<event>
12    1  0.1598876E-007  0.1545415E+04  0.7818608E-02  0.8854802E-01
         -2   -1    0    0    0  501 -0.00000000000E+00  0.00000000000E+00  0.17752299256E+03  0.17752299256E+03  0.00000000000E+00 0. -1.
          2   -1    0    0  501    0  0.00000000000E+00 -0.00000000000E+00 -0.33633772465E+04  0.33633772465E+04  0.00000000000E+00 0.  1.
         23    2    1    2    0    0  0.35826465968E+03  0.27770916124E+03 -0.58254966797E+03  0.74360231163E+03  0.90024094555E+02 0.  0.
        254    2    1    2    0    0 -0.35826465968E+03 -0.27770916124E+03 -0.26033045860E+04  0.27972979275E+04  0.91771726738E+03 0.  0.
        -24    2    4    4    0    0  0.27595220467E+03  0.27667398313E+02 -0.49630899031E+03  0.57439031563E+03  0.81771123478E+02 0.  0.
         24    2    4    4    0    0 -0.63421686434E+03 -0.30537655956E+03 -0.21069955957E+04  0.22229076118E+04  0.80012101058E+02 0.  0.
         11    1    3    3    0    0  0.26726998711E+03  0.15731425821E+03 -0.41548517819E+03  0.51846789210E+03  0.00000000000E+00 0.  1.
        -11    1    3    3    0    0  0.90994672569E+02  0.12039490303E+03 -0.16706448978E+03  0.22513441953E+03  0.00000000000E+00 0. -1.
          4    1    6    6  502    0 -0.43972422935E+02 -0.72445296514E+00 -0.11769950005E+03  0.12564740794E+03  0.00000000000E+00 0. -1.
          3    1    5    5  503    0  0.31131965735E+02  0.24553700037E+02 -0.11102373205E+03  0.11789127429E+03  0.00000000000E+00 0. -1.
         -4    1    5    5    0  503  0.24482023893E+03  0.31136982762E+01 -0.38528525826E+03  0.45649904133E+03  0.00000000000E+00 0.  1.
         -3    1    6    6    0  502 -0.59024444141E+03 -0.30465210659E+03 -0.19892960956E+04  0.20972602039E+04  0.00000000000E+00 0.  1.
<mgrwt>
<rscale>  0 0.15454149E+04</rscale>
<asrwt>0</asrwt>
<pdfrwt beam="1">  1        2 0.51744261E+00 0.15454149E+04</pdfrwt>
<pdfrwt beam="2">  1       -2 0.27311232E-01 0.15454149E+04</pdfrwt>
<totfact> 0.11998807E+01</totfact>
</mgrwt>
</event>
<event>
12    1  0.1598876E-007  0.2212332E+04  0.7818608E-02  0.8513313E-01
          2   -1    0    0  501    0  0.00000000000E+00  0.00000000000E+00  0.10655949721E+04  0.10655949721E+04  0.00000000000E+00 0. -1.
         -2   -1    0    0    0  501 -0.00000000000E+00 -0.00000000000E+00 -0.11482812278E+04  0.11482812278E+04  0.00000000000E+00 0.  1.
         23    2    1    2    0    0 -0.68992292888E+03  0.51365242031E+03 -0.35776250157E+03  0.93551226597E+03  0.85771414639E+02 0.  0.
        254    2    1    2    0    0  0.68992292888E+03 -0.51365242031E+03  0.27507624590E+03  0.12783639340E+04  0.90482868540E+03 0.  0.
        -24    2    4    4    0    0  0.10813379174E+03  0.16193503721E+03  0.31880795034E+03  0.38205117265E+03  0.80054457319E+02 0.  0.
         24    2    4    4    0    0  0.58178913714E+03 -0.67558745752E+03 -0.43731704440E+02  0.89631276131E+03  0.81037591736E+02 0.  0.
         11    1    3    3    0    0 -0.36763501553E+03  0.22329028457E+03 -0.16267353987E+03  0.45986599831E+03  0.00000000000E+00 0.  1.
        -11    1    3    3    0    0 -0.32228791334E+03  0.29036213574E+03 -0.19508896170E+03  0.47564626766E+03  0.00000000000E+00 0. -1.
          4    1    6    6  502    0  0.42559157291E+03 -0.53092054239E+03 -0.83667922878E+01  0.68049600475E+03  0.00000000000E+00 0. -1.
          3    1    5    5  503    0  0.11657924073E+03  0.11859516645E+03  0.24757525518E+03  0.29824325617E+03  0.00000000000E+00 0. -1.
         -4    1    5    5    0  503 -0.84454489893E+01  0.43339870752E+02  0.71232695159E+02  0.83807916482E+02  0.00000000000E+00 0.  1.
         -3    1    6    6    0  502  0.15619756423E+03 -0.14466691512E+03 -0.35364912152E+02  0.21581675656E+03  0.00000000000E+00 0.  1.
<mgrwt>
<rscale>  0 0.22123315E+04</rscale>
<asrwt>0</asrwt>
<pdfrwt beam="1">  1        2 0.16393769E+00 0.22123315E+04</pdfrwt>
<pdfrwt beam="2">  1       -2 0.17665865E+00 0.22123315E+04</pdfrwt>
<totfact> 0.39971103E+00</totfact>
</mgrwt>
</event>
<event>
12    1  0.1598876E-007  0.1154885E+04  0.7818608E-02  0.9153289E-01
         -1   -1    0    0    0  501 -0.00000000000E+00  0.00000000000E+00  0.29857615550E+03  0.29857615550E+03  0.00000000000E+00 0.  1.
          1   -1    0    0  501    0  0.00000000000E+00 -0.00000000000E+00 -0.11167656156E+04  0.11167656156E+04  0.00000000000E+00 0. -1.
         23    2    1    2    0    0  0.36977137281E+02  0.48929330502E+02 -0.41179457849E+03  0.42572121571E+03  0.88895391142E+02 0.  0.
        254    2    1    2    0    0 -0.36977137281E+02 -0.48929330502E+02 -0.40639488159E+03  0.98962055537E+03  0.90023922141E+03 0.  0.
        -24    2    4    4    0    0 -0.16070486658E+03 -0.59035716950E+02 -0.66528416482E+03  0.69139837448E+03  0.78213951801E+02 0.  0.
         24    2    4    4    0    0  0.12372772930E+03  0.10106386447E+02  0.25888928323E+03  0.29822218089E+03  0.80635712644E+02 0.  0.
         13    1    3    3    0    0  0.52996033191E+02  0.48712698361E+02 -0.39836590381E+03  0.40481711900E+03  0.00000000000E+00 0. -1.
        -13    1    3    3    0    0 -0.16018895909E+02  0.21663214127E+00 -0.13428674680E+02  0.20904096711E+02  0.00000000000E+00 0.  1.
          2    1    6    6  502    0 -0.72867113462E+01 -0.16656689866E+01 -0.38834940340E+00  0.74847465338E+01  0.00000000000E+00 0. -1.
          1    1    5    5  503    0 -0.73717863305E+02 -0.11411569781E+02 -0.16081357175E+03  0.17727253638E+03  0.00000000000E+00 0. -1.
         -2    1    5    5    0  503 -0.86987003280E+02 -0.47624147168E+02 -0.50447059307E+03  0.51412583810E+03  0.00000000000E+00 0.  1.
         -1    1    6    6    0  502  0.13101444065E+03  0.11772055434E+02  0.25927763264E+03  0.29073743435E+03  0.00000000000E+00 0.  1.
<mgrwt>
<rscale>  0 0.11548846E+04</rscale>
<asrwt>0</asrwt>
<pdfrwt beam="1">  1        1 0.17181009E+00 0.11548846E+04</pdfrwt>
<pdfrwt beam="2">  1       -1 0.45934794E-01 0.11548846E+04</pdfrwt>
<totfact> 0.57594931E+01</totfact>
</mgrwt>
</event>
<event>
12    1  0.1598876E-007  0.2335330E+04  0.7818608E-02  0.8464120E-01
         -1   -1    0    0    0  501 -0.00000000000E+00  0.00000000000E+00  0.62987722620E+03  0.62987722620E+03  0.00000000000E+00 0.  1.
          1   -1    0    0  501    0  0.00000000000E+00 -0.00000000000E+00 -0.21646141104E+04  0.21646141104E+04  0.00000000000E+00 0. -1.
         23    2    1    2    0    0  0.38106988576E+03  0.89041215695E+03 -0.87498966305E+03  0.13084460444E+04  0.91520890924E+02 0.  0.
        254    2    1    2    0    0 -0.38106988576E+03 -0.89041215695E+03 -0.65974722116E+03  0.14860452923E+04  0.91379217973E+03 0.  0.
        -24    2    4    4    0    0 -0.65123503497E+03 -0.45067518677E+03 -0.50081006216E+03  0.94048912627E+03  0.80584635710E+02 0.  0.
         24    2    4    4    0    0  0.27016514922E+03 -0.43973697017E+03 -0.15893715900E+03  0.54555616599E+03  0.77541594964E+02 0.  0.
         11    1    3    3    0    0  0.19346826349E+03  0.42609680487E+03 -0.36284003542E+03  0.59214976771E+03  0.00000000000E+00 0.  1.
        -11    1    3    3    0    0  0.18760162227E+03  0.46431535208E+03 -0.51214962763E+03  0.71629627665E+03  0.00000000000E+00 0. -1.
          2    1    6    6  502    0  0.23032323503E+03 -0.39765389927E+03 -0.16267611102E+03  0.48748429031E+03  0.00000000000E+00 0. -1.
          1    1    5    5  503    0 -0.29555013613E+03 -0.15719967263E+03 -0.20096233063E+03  0.39044523096E+03  0.00000000000E+00 0. -1.
         -2    1    5    5    0  503 -0.35568489884E+03 -0.29347551414E+03 -0.29984773153E+03  0.55004389531E+03  0.00000000000E+00 0.  1.
         -1    1    6    6    0  502  0.39841914193E+02 -0.42083070901E+02  0.37389520245E+01  0.58071875683E+02  0.00000000000E+00 0.  1.
<mgrwt>
<rscale>  0 0.23353296E+04</rscale>
<asrwt>0</asrwt>
<pdfrwt beam="1">  1        1 0.33301755E+00 0.23353296E+04</pdfrwt>
<pdfrwt beam="2">  1       -1 0.96904192E-01 0.23353296E+04</pdfrwt>
<totfact> 0.21243674E+00</totfact>
</mgrwt>
</event>
<event>
12    1  0.1598876E-007  0.2354196E+04  0.7818608E-02  0.8456854E-01
          1   -1    0    0  501    0  0.00000000000E+00  0.00000000000E+00  0.32746711042E+04  0.32746711042E+04  0.00000000000E+00 0. -1.
         -1   -1    0    0    0  501 -0.00000000000E+00 -0.00000000000E+00 -0.42311410639E+03  0.42311410639E+03  0.00000000000E+00 0.  1.
         23    2    1    2    0    0 -0.79349365031E+03  0.15911589768E+03  0.21638814619E+04  0.23120950315E+04  0.91926121073E+02 0.  0.
        254    2    1    2    0    0  0.79349365031E+03 -0.15911589768E+03  0.68767553591E+03  0.13856901791E+04  0.89010650355E+03 0.  0.
        -24    2    4    4    0    0 -0.54133925744E+02 -0.27449590174E+03  0.36790809098E+03  0.46931405571E+03  0.81368528909E+02 0.  0.
         24    2    4    4    0    0  0.84762757606E+03  0.11538000406E+03  0.31976744494E+03  0.91637612335E+03  0.75557445515E+02 0.  0.
         11    1    3    3    0    0 -0.40595404145E+03  0.90922975839E+02  0.98396375731E+03  0.10682931934E+04  0.00000000000E+00 0. -1.
        -11    1    3    3    0    0 -0.38753960886E+03  0.68192921842E+02  0.11799177045E+04  0.12438018381E+04  0.00000000000E+00 0.  1.
          2    1    6    6  502    0  0.82706711764E+03  0.11628703121E+03  0.32311433424E+03  0.89552530042E+03  0.00000000000E+00 0. -1.
          1    1    5    5  503    0 -0.66688089671E+02 -0.25891917574E+03  0.35845461405E+03  0.44718693094E+03  0.00000000000E+00 0. -1.
         -2    1    5    5    0  503  0.12554163928E+02 -0.15576726002E+02  0.94534769280E+01  0.22127124777E+02  0.00000000000E+00 0.  1.
         -1    1    6    6    0  502  0.20560458420E+02 -0.90702715873E+00 -0.33468893016E+01  0.20850822926E+02  0.00000000000E+00 0.  1.
<mgrwt>
<rscale>  0 0.23541959E+04</rscale>
<asrwt>0</asrwt>
<pdfrwt beam="1">  1        1 0.50379554E+00 0.23541959E+04</pdfrwt>
<pdfrwt beam="2">  1       -1 0.65094480E-01 0.23541959E+04</pdfrwt>
<totfact> 0.80445297E-01</totfact>
</mgrwt>
</event>
<event>
12    1  0.1598876E-007  0.1407012E+04  0.7818608E-02  0.8948759E-01
         -1   -1    0    0    0  501 -0.00000000000E+00  0.00000000000E+00  0.24201008456E+03  0.24201008456E+03  0.00000000000E+00 0.  1.
          1   -1    0    0  501    0  0.00000000000E+00 -0.00000000000E+00 -0.20450409543E+04  0.20450409543E+04  0.00000000000E+00 0. -1.
         23    2    1    2    0    0 -0.14193488972E+03  0.91652148029E+02 -0.11476501459E+04  0.11636818682E+04  0.92244262191E+02 0.  0.
        254    2    1    2    0    0  0.14193488972E+03 -0.91652148029E+02 -0.65538072387E+03  0.11233691707E+04  0.89659844479E+03 0.  0.
        -24    2    4    4    0    0  0.15792135401E+03  0.36198917743E+03 -0.49026090504E+03  0.63475135239E+03  0.81106138582E+02 0.  0.
         24    2    4    4    0    0 -0.15986464294E+02 -0.45364132546E+03 -0.16511981883E+03  0.48861781827E+03  0.73734649595E+02 0.  0.
         13    1    3    3    0    0 -0.61079037953E+02  0.47771045807E+02 -0.81066586064E+03  0.81436592470E+03  0.00000000000E+00 0. -1.
        -13    1    3    3    0    0 -0.80855851768E+02  0.43881102222E+02 -0.33698428526E+03  0.34931594354E+03  0.00000000000E+00 0.  1.
          4    1    6    6  502    0 -0.19036684799E+02 -0.43203281729E+03 -0.17249159646E+03  0.46558361379E+03  0.00000000000E+00 0. -1.
          1    1    5    5  503    0  0.13367068914E+03  0.35075332211E+03 -0.46824463377E+03  0.60012397316E+03  0.00000000000E+00 0. -1.
         -2    1    5    5    0  503  0.24250664873E+02  0.11235855325E+02 -0.22016271269E+02  0.34627379229E+02  0.00000000000E+00 0.  1.
         -3    1    6    6    0  502  0.30502205054E+01 -0.21608508169E+02  0.73717776233E+01  0.23034204474E+02  0.00000000000E+00 0.  1.
<mgrwt>
<rscale>  0 0.14070118E+04</rscale>
<asrwt>0</asrwt>
<pdfrwt beam="1">  1        1 0.31462169E+00 0.14070118E+04</pdfrwt>
<pdfrwt beam="2">  1       -1 0.37232320E-01 0.14070118E+04</pdfrwt>
<totfact> 0.18806537E+01</totfact>
</mgrwt>
</event>
<event>
12    1  0.1598876E-007  0.1816832E+04  0.7818608E-02  0.8697399E-01
         -2   -1    0    0    0  501 -0.00000000000E+00  0.00000000000E+00  0.20288991230E+04  0.20288991230E+04  0.00000000000E+00 0.  1.
          2   -1    0    0  501    0  0.00000000000E+00 -0.00000000000E+00 -0.40673257509E+03  0.40673257509E+03  0.00000000000E+00 0. -1.
         23    2    1    2    0    0  0.61048853853E+02 -0.21280328768E+03 -0.25017835335E+03  0.34475033879E+03  0.85155069170E+02 0.  0.
        254    2    1    2    0    0 -0.61048853853E+02  0.21280328768E+03  0.18723449013E+04  0.20908813593E+04  0.90393430489E+03 0.  0.
        -24    2    4    4    0    0  0.16871274358E+03  0.15739150428E+03  0.47547462882E+02  0.24915770352E+03  0.81133991219E+02 0.  0.
         24    2    4    4    0    0 -0.22976159744E+03  0.55411783402E+02  0.18247974384E+04  0.18417236558E+04  0.78736749480E+02 0.  0.
         11    1    3    3    0    0  0.30395500331E+02 -0.91999871740E+02 -0.50223765247E+02  0.10913427251E+03  0.00000000000E+00 0.  1.
        -11    1    3    3    0    0  0.30653353522E+02 -0.12080341594E+03 -0.19995458811E+03  0.23561606628E+03  0.00000000000E+00 0. -1.
          2    1    6    6  502    0 -0.26130716292E+02  0.21684924932E+02  0.12835214500E+03  0.13276793072E+03  0.00000000000E+00 0. -1.
          1    1    5    5  503    0  0.53894265609E+02  0.62809233198E+01  0.17494604233E+02  0.57009674973E+02  0.00000000000E+00 0. -1.
         -2    1    5    5    0  503  0.11481847797E+03  0.15111058096E+03  0.30052858649E+02  0.19214802855E+03  0.00000000000E+00 0.  1.
         -1    1    6    6    0  502 -0.20363088114E+03  0.33726858471E+02  0.16964452934E+04  0.17089557251E+04  0.00000000000E+00 0.  1.
<mgrwt>
<rscale>  0 0.18168317E+04</rscale>
<asrwt>0</asrwt>
<pdfrwt beam="1">  1        2 0.62574243E-01 0.18168317E+04</pdfrwt>
<pdfrwt beam="2">  1       -2 0.31213832E+00 0.18168317E+04</pdfrwt>
<totfact> 0.19737675E+00</totfact>
</mgrwt>
</event>
<event>
12    1  0.1598876E-007  0.2169558E+04  0.7818608E-02  0.8531207E-01
          2   -1    0    0  501    0  0.00000000000E+00  0.00000000000E+00  0.32920041212E+04  0.32920041212E+04  0.00000000000E+00 0. -1.
         -2   -1    0    0    0  501 -0.00000000000E+00 -0.00000000000E+00 -0.35745568686E+03  0.35745568686E+03  0.00000000000E+00 0.  1.
         23    2    1    2    0    0 -0.18374357935E+03 -0.30940995930E+03  0.26001751170E+04  0.26264920757E+04  0.89742738711E+02 0.  0.
        254    2    1    2    0    0  0.18374357935E+03  0.30940995930E+03  0.33437331735E+03  0.10229677323E+04  0.89730777334E+03 0.  0.
        -24    2    4    4    0    0 -0.19670570519E+03 -0.21791475251E+03  0.17007564949E+03  0.34851382472E+03  0.79725690048E+02 0.  0.
         24    2    4    4    0    0  0.38044928454E+03  0.52732471181E+03  0.16429766785E+03  0.67445390757E+03  0.71283518285E+02 0.  0.
         13    1    3    3    0    0 -0.14470670116E+02 -0.92436674501E+01  0.31623461306E+03  0.31670045181E+03  0.00000000000E+00 0.  1.
        -13    1    3    3    0    0 -0.16927290924E+03 -0.30016629185E+03  0.22839405039E+04  0.23097916239E+04  0.00000000000E+00 0. -1.
          2    1    6    6  502    0  0.18162918037E+03  0.30625662182E+03  0.10558629901E+03  0.37139028543E+03  0.00000000000E+00 0. -1.
          3    1    5    5  503    0 -0.13394346263E+03 -0.19161031676E+03  0.14917919250E+03  0.27732615482E+03  0.00000000000E+00 0. -1.
         -4    1    5    5    0  503 -0.62762242559E+02 -0.26304435752E+02  0.20896456991E+02  0.71187669901E+02  0.00000000000E+00 0.  1.
         -1    1    6    6    0  502  0.19882010417E+03  0.22106808999E+03  0.58711368846E+02  0.30306362215E+03  0.00000000000E+00 0.  1.
<mgrwt>
<rscale>  0 0.21695581E+04</rscale>
<asrwt>0</asrwt>
<pdfrwt beam="1">  1        2 0.50646215E+00 0.21695581E+04</pdfrwt>
<pdfrwt beam="2">  1       -2 0.54993185E-01 0.21695581E+04</pdfrwt>
<totfact> 0.32217724E+00</totfact>
</mgrwt>
</event>
<event>
12    1  0.1598876E-007  0.1578345E+04  0.7818608E-02  0.8833963E-01
          2   -1    0    0  501    0  0.00000000000E+00  0.00000000000E+00  0.45962882805E+03  0.45962882805E+03  0.00000000000E+00 0. -1.
         -2   -1    0    0    0  501 -0.00000000000E+00 -0.00000000000E+00 -0.13549917122E+04  0.13549917122E+04  0.00000000000E+00 0.  1.
         23    2    1    2    0    0  0.22414214134E+03 -0.30663372405E+03  0.11569985025E+03  0.40889040904E+03  0.97677894175E+02 0.  0.
        254    2    1    2    0    0 -0.22414214134E+03  0.30663372405E+03 -0.10110627344E+04  0.14057301312E+04  0.89975852795E+03 0.  0.
        -24    2    4    4    0    0  0.40346945334E+02  0.84278491347E+02 -0.10422052211E+04  0.10492463920E+04  0.77430796673E+02 0.  0.
         24    2    4    4    0    0 -0.26448908668E+03  0.22235523270E+03  0.31142486687E+02  0.35648373916E+03  0.81941902125E+02 0.  0.
         13    1    3    3    0    0  0.16937114417E+03 -0.16921496155E+03  0.10228829325E+03  0.26035203596E+03  0.00000000000E+00 0.  1.
        -13    1    3    3    0    0  0.54770997172E+02 -0.13741876250E+03  0.13411556996E+02  0.14853837309E+03  0.00000000000E+00 0. -1.
          2    1    6    6  502    0 -0.96683013718E+02  0.48827506531E+02 -0.18921757233E+02  0.10995346030E+03  0.00000000000E+00 0. -1.
          1    1    5    5  503    0 -0.61339941110E+01  0.37816848346E+02 -0.15707223085E+03  0.16167691735E+03  0.00000000000E+00 0. -1.
         -2    1    5    5    0  503  0.46480939445E+02  0.46461643001E+02 -0.88513299022E+03  0.88756947467E+03  0.00000000000E+00 0.  1.
         -1    1    6    6    0  502 -0.16780607296E+03  0.17352772617E+03  0.50064243921E+02  0.24653027885E+03  0.00000000000E+00 0.  1.
<mgrwt>
<rscale>  0 0.15783450E+04</rscale>
<asrwt>0</asrwt>
<pdfrwt beam="1">  1        2 0.70712128E-01 0.15783450E+04</pdfrwt>
<pdfrwt beam="2">  1       -2 0.20846026E+00 0.15783450E+04</pdfrwt>
<totfact> 0.76315670E+00</totfact>
</mgrwt>
</event>
<event>
12    1  0.1598876E-007  0.1502330E+04  0.7818608E-02  0.8882905E-01
         -2   -1    0    0    0  501 -0.00000000000E+00  0.00000000000E+00  0.13459804242E+03  0.13459804242E+03  0.00000000000E+00 0.  1.
          2   -1    0    0  501    0  0.00000000000E+00 -0.00000000000E+00 -0.41921019800E+04  0.41921019800E+04  0.00000000000E+00 0. -1.
         23    2    1    2    0    0 -0.86230768760E+02 -0.44919468871E+03 -0.16989895349E+04  0.17619130088E+04  0.92522412801E+02 0.  0.
        254    2    1    2    0    0  0.86230768760E+02  0.44919468871E+03 -0.23585144027E+04  0.25647870136E+04  0.89795914379E+03 0.  0.
        -24    2    4    4    0    0  0.23084054400E+03  0.23102910393E+03 -0.20552947933E+03  0.39439720113E+03  0.81516757582E+02 0.  0.
         24    2    4    4    0    0 -0.14460977524E+03  0.21816558478E+03 -0.21529849233E+04  0.21703898125E+04  0.82095363217E+02 0.  0.
         11    1    3    3    0    0  0.17922057543E+02 -0.43415314876E+02 -0.14316172782E+03  0.15066973825E+03  0.00000000000E+00 0.  1.
        -11    1    3    3    0    0 -0.10415282630E+03 -0.40577937384E+03 -0.15558278071E+04  0.16112432705E+04  0.00000000000E+00 0. -1.
          2    1    6    6  502    0 -0.84478898077E+02  0.76117845409E+02 -0.11506847797E+04  0.11562897875E+04  0.00000000000E+00 0. -1.
          3    1    5    5  503    0  0.19361001465E+03  0.17879778835E+03 -0.12567575528E+03  0.29197239999E+03  0.00000000000E+00 0. -1.
         -4    1    5    5    0  503  0.37230529352E+02  0.52231315581E+02 -0.79853724054E+02  0.10242480114E+03  0.00000000000E+00 0.  1.
         -1    1    6    6    0  502 -0.60130877168E+02  0.14204773937E+03 -0.10023001437E+04  0.10141000250E+04  0.00000000000E+00 0.  1.
<mgrwt>
<rscale>  0 0.15023298E+04</rscale>
<asrwt>0</asrwt>
<pdfrwt beam="1">  1        2 0.64493890E+00 0.15023298E+04</pdfrwt>
<pdfrwt beam="2">  1       -2 0.20707387E-01 0.15023298E+04</pdfrwt>
<totfact> 0.47177880E+00</totfact>
</mgrwt>
</event>
<event>
12    1  0.1598876E-007  0.1595602E+04  0.7818608E-02  0.8823254E-01
          2   -1    0    0  501    0  0.00000000000E+00  0.00000000000E+00  0.20769367710E+04  0.20769367710E+04  0.00000000000E+00 0.  1.
         -2   -1    0    0    0  501 -0.00000000000E+00 -0.00000000000E+00 -0.30645456776E+03  0.30645456776E+03  0.00000000000E+00 0. -1.
         23    2    1    2    0    0  0.32315662218E+03 -0.23290363138E+03  0.67155581800E+02  0.41786220433E+03  0.10688613417E+03 0.  0.
        254    2    1    2    0    0 -0.32315662218E+03  0.23290363138E+03  0.17033266214E+04  0.19655291344E+04  0.89627501082E+03 0.  0.
        -24    2    4    4    0    0 -0.46591169292E+03 -0.14341354017E+03  0.53743616116E+03  0.72970278830E+03  0.77378180606E+02 0.  0.
         24    2    4    4    0    0  0.14275507074E+03  0.37631717155E+03  0.11658904602E+04  0.12358263461E+04  0.77282395061E+02 0.  0.
         13    1    3    3    0    0  0.49556864641E+02  0.42659938435E+01  0.80168577289E+00  0.49746600251E+02  0.00000000000E+00 0.  1.
        -13    1    3    3    0    0  0.27359975754E+03 -0.23716962522E+03  0.66353896027E+02  0.36811560408E+03  0.00000000000E+00 0. -1.
          4    1    6    6  502    0  0.15236221768E+03  0.34716353693E+03  0.10812825486E+04  0.11458222885E+04  0.00000000000E+00 0. -1.
          3    1    5    5  503    0 -0.37386404570E+03 -0.84580921792E+02  0.39800137553E+03  0.55256977109E+03  0.00000000000E+00 0. -1.
         -4    1    5    5    0  503 -0.92047647218E+02 -0.58832618380E+02  0.13943478563E+03  0.17713301721E+03  0.00000000000E+00 0.  1.
         -3    1    6    6    0  502 -0.96071469350E+01  0.29153634615E+02  0.84607911618E+02  0.90004057641E+02  0.00000000000E+00 0.  1.
<mgrwt>
<rscale>  0 0.15956024E+04</rscale>
<asrwt>0</asrwt>
<pdfrwt beam="1">  1        2 0.31952872E+00 0.15956024E+04</pdfrwt>
<pdfrwt beam="2">  1       -2 0.47146858E-01 0.15956024E+04</pdfrwt>
<totfact> 0.24768384E+01</totfact>
</mgrwt>
</event>
<event>
12    1  0.1598876E-007  0.2256048E+04  0.7818608E-02  0.8495455E-01
          2   -1    0    0  501    0  0.00000000000E+00  0.00000000000E+00  0.82848001129E+03  0.82848001129E+03  0.00000000000E+00 0. -1.
         -2   -1    0    0    0  501 -0.00000000000E+00 -0.00000000000E+00 -0.15358713340E+04  0.15358713340E+04  0.00000000000E+00 0.  1.
         23    2    1    2    0    0  0.52204697773E+02 -0.48597740260E+03 -0.11418642513E+04  0.12454470218E+04  0.91569370107E+02 0.  0.
        254    2    1    2    0    0 -0.52204697773E+02  0.48597740260E+03  0.43447292858E+03  0.11189043235E+04  0.90789910952E+03 0.  0.
        -24    2    4    4    0    0 -0.38830244582E+03  0.51264465581E+03  0.13815900708E+03  0.66276306583E+03  0.81139618145E+02 0.  0.
         24    2    4    4    0    0  0.33609774805E+03 -0.26667253206E+02  0.29631392150E+03  0.45614125762E+03  0.81179235010E+02 0.  0.
         13    1    3    3    0    0  0.17896429786E+02 -0.39335208155E+03 -0.97545295441E+03  0.10519289941E+04  0.00000000000E+00 0.  1.
        -13    1    3    3    0    0  0.34308267987E+02 -0.92625321049E+02 -0.16641129687E+03  0.19351802779E+03  0.00000000000E+00 0. -1.
          2    1    6    6  502    0  0.85463574011E+02 -0.38809721859E+02  0.10324009650E+03  0.13953040715E+03  0.00000000000E+00 0. -1.
          3    1    5    5  503    0 -0.16333257886E+03  0.17830213646E+03  0.19090900215E+02  0.24255647931E+03  0.00000000000E+00 0. -1.
         -4    1    5    5    0  503 -0.22496986696E+03  0.33434251935E+03  0.11906810687E+03  0.42020658652E+03  0.00000000000E+00 0.  1.
         -1    1    6    6    0  502  0.25063417404E+03  0.12142468653E+02  0.19307382500E+03  0.31661085048E+03  0.00000000000E+00 0.  1.
<mgrwt>
<rscale>  0 0.22560485E+04</rscale>
<asrwt>0</asrwt>
<pdfrwt beam="1">  1        2 0.12745847E+00 0.22560485E+04</pdfrwt>
<pdfrwt beam="2">  1       -2 0.23628789E+00 0.22560485E+04</pdfrwt>
<totfact> 0.23351434E+00</totfact>
</mgrwt>
</event>
<event>
12    1  0.1598876E-007  0.2000952E+04  0.7818608E-02  0.8606176E-01
          2   -1    0    0  501    0  0.00000000000E+00  0.00000000000E+00  0.19947325927E+04  0.19947325927E+04  0.00000000000E+00 0. -1.
         -2   -1    0    0    0  501 -0.00000000000E+00 -0.00000000000E+00 -0.50179745887E+03  0.50179745887E+03  0.00000000000E+00 0.  1.
         23    2    1    2    0    0 -0.17668216917E+03  0.24257277667E+03  0.15224387635E+04  0.15546139122E+04  0.94585869912E+02 0.  0.
        254    2    1    2    0    0  0.17668216917E+03 -0.24257277667E+03 -0.29503629577E+02  0.94191613937E+03  0.89234377264E+03 0.  0.
        -24    2    4    4    0    0 -0.17608656899E+03  0.18441365274E+03 -0.22455160959E+03  0.34929623975E+03  0.81052838553E+02 0.  0.
         24    2    4    4    0    0  0.35276873817E+03 -0.42698642940E+03  0.19504798001E+03  0.59261989962E+03  0.79946465859E+02 0.  0.
         13    1    3    3    0    0 -0.18612438345E+03  0.24109064643E+03  0.14892400475E+04  0.15200667436E+04  0.00000000000E+00 0. -1.
        -13    1    3    3    0    0  0.94422142743E+01  0.14821302399E+01  0.33198715910E+02  0.34547168604E+02  0.00000000000E+00 0.  1.
          2    1    6    6  502    0  0.19894106898E+03 -0.22604512674E+03  0.14680317445E+03  0.33500017952E+03  0.00000000000E+00 0. -1.
          3    1    5    5  503    0 -0.63671879968E+02  0.73711402373E+02 -0.13926535536E+03  0.16994798716E+03  0.00000000000E+00 0. -1.
         -4    1    5    5    0  503 -0.11241468902E+03  0.11070225036E+03 -0.85286254234E+02  0.17934825258E+03  0.00000000000E+00 0.  1.
         -3    1    6    6    0  502  0.15382766918E+03 -0.20094130266E+03  0.48244805559E+02  0.25761972010E+03  0.00000000000E+00 0.  1.
<mgrwt>
<rscale>  0 0.20009515E+04</rscale>
<asrwt>0</asrwt>
<pdfrwt beam="1">  1        2 0.30688193E+00 0.20009515E+04</pdfrwt>
<pdfrwt beam="2">  1       -2 0.77199610E-01 0.20009515E+04</pdfrwt>
<totfact> 0.93554115E+00</totfact>
</mgrwt>
</event>
<event>
12    1  0.1598876E-007  0.1903182E+04  0.7818608E-02  0.8653274E-01
         -2   -1    0    0    0  501 -0.00000000000E+00  0.00000000000E+00  0.20294262471E+03  0.20294262471E+03  0.00000000000E+00 0.  1.
          2   -1    0    0  501    0  0.00000000000E+00 -0.00000000000E+00 -0.44619761554E+04  0.44619761554E+04  0.00000000000E+00 0. -1.
         23    2    1    2    0    0 -0.16830389716E+01 -0.46205066419E+03 -0.29310904340E+03  0.55469490742E+03  0.90993846468E+02 0.  0.
        254    2    1    2    0    0  0.16830389716E+01  0.46205066419E+03 -0.39659244872E+04  0.41102238726E+04  0.97564829516E+03 0.  0.
        -24    2    4    4    0    0 -0.19980087190E+03  0.69221813983E+03 -0.22025564918E+04  0.23187795250E+04  0.79981524918E+02 0.  0.
         24    2    4    4    0    0  0.20148391088E+03 -0.23016747564E+03 -0.17633679954E+04  0.17914443477E+04  0.78951442591E+02 0.  0.
         11    1    3    3    0    0 -0.26953371509E+02 -0.57881885967E+02 -0.59004457278E+02  0.86938615916E+02  0.00000000000E+00 0. -1.
        -11    1    3    3    0    0  0.25270332537E+02 -0.40416877823E+03 -0.23410458612E+03  0.46775629150E+03  0.00000000000E+00 0.  1.
          4    1    6    6  502    0  0.19537059884E+03 -0.20683268305E+03 -0.14833718637E+04  0.15104110419E+04  0.00000000000E+00 0. -1.
          1    1    5    5  503    0 -0.16675438672E+03  0.63370984620E+03 -0.20471055282E+04  0.21494269558E+04  0.00000000000E+00 0. -1.
         -2    1    5    5    0  503 -0.33046485179E+02  0.58508293632E+02 -0.15545096363E+03  0.16935256921E+03  0.00000000000E+00 0.  1.
         -3    1    6    6    0  502  0.61133120400E+01 -0.23334792587E+02 -0.27999613176E+03  0.28103330573E+03  0.00000000000E+00 0.  1.
<mgrwt>
<rscale>  0 0.19031817E+04</rscale>
<asrwt>0</asrwt>
<pdfrwt beam="1">  1        2 0.68645787E+00 0.19031817E+04</pdfrwt>
<pdfrwt beam="2">  1       -2 0.31221942E-01 0.19031817E+04</pdfrwt>
<totfact> 0.12164506E+00</totfact>
</mgrwt>
</event>
<event>
12    1  0.1598876E-007  0.1501462E+04  0.7818608E-02  0.8883481E-01
         -1   -1    0    0    0  501 -0.00000000000E+00  0.00000000000E+00  0.19894850008E+04  0.19894850008E+04  0.00000000000E+00 0.  1.
          1   -1    0    0  501    0  0.00000000000E+00 -0.00000000000E+00 -0.28328788529E+03  0.28328788529E+03  0.00000000000E+00 0. -1.
         23    2    1    2    0    0  0.32476667462E+03  0.81552942840E+02  0.14548940727E+02  0.34763296573E+03  0.92264466363E+02 0.  0.
        254    2    1    2    0    0 -0.32476667462E+03 -0.81552942840E+02  0.16916481748E+04  0.19251399203E+04  0.85578378711E+03 0.  0.
        -24    2    4    4    0    0 -0.54007283553E+03 -0.13059386602E+03  0.15572764590E+04  0.16552991734E+04  0.78561810130E+02 0.  0.
         24    2    4    4    0    0  0.21530616091E+03  0.49040923181E+02  0.13437171574E+03  0.26984074697E+03  0.77437172347E+02 0.  0.
         13    1    3    3    0    0  0.30479774819E+03  0.49753586770E+02  0.20951286507E+02  0.30954166619E+03  0.00000000000E+00 0. -1.
        -13    1    3    3    0    0  0.19968926430E+02  0.31799356070E+02 -0.64023457802E+01  0.38091299541E+02  0.00000000000E+00 0.  1.
          2    1    6    6  502    0  0.74239707008E+02  0.24950197325E+02  0.76545900622E+01  0.78693323683E+02  0.00000000000E+00 0. -1.
          1    1    5    5  503    0 -0.85454630086E+02 -0.18492656079E+02  0.17055851905E+03  0.19166293474E+03  0.00000000000E+00 0. -1.
         -2    1    5    5    0  503 -0.45461820545E+03 -0.11210120994E+03  0.13867179400E+04  0.14636362386E+04  0.00000000000E+00 0.  1.
         -1    1    6    6    0  502  0.14106645390E+03  0.24090725856E+02  0.12671712568E+03  0.19114742329E+03  0.00000000000E+00 0.  1.
<mgrwt>
<rscale>  0 0.15014620E+04</rscale>
<asrwt>0</asrwt>
<pdfrwt beam="1">  1        1 0.43582753E-01 0.15014620E+04</pdfrwt>
<pdfrwt beam="2">  1       -1 0.30607461E+00 0.15014620E+04</pdfrwt>
<totfact> 0.27641722E+00</totfact>
</mgrwt>
</event>
<event>
12    1  0.1598876E-007  0.1974156E+04  0.7818608E-02  0.8618800E-01
         -1   -1    0    0    0  501 -0.00000000000E+00  0.00000000000E+00  0.13384007068E+04  0.13384007068E+04  0.00000000000E+00 0.  1.
          1   -1    0    0  501    0  0.00000000000E+00 -0.00000000000E+00 -0.72797522721E+03  0.72797522721E+03  0.00000000000E+00 0. -1.
         23    2    1    2    0    0  0.52173335800E+03 -0.47302347486E+03  0.60936481590E+03  0.93819439291E+03  0.11369404301E+03 0.  0.
        254    2    1    2    0    0 -0.52173335800E+03  0.47302347486E+03  0.10606636952E+01  0.11281815411E+04  0.88138275457E+03 0.  0.
        -24    2    4    4    0    0  0.51010031850E+02  0.12537457981E+03  0.33872279486E+03  0.37370309213E+03  0.81240757583E+02 0.  0.
         24    2    4    4    0    0 -0.57274338985E+03  0.34764889504E+03 -0.33766213117E+03  0.75447844897E+03  0.79544140543E+02 0.  0.
         11    1    3    3    0    0  0.15656022290E+03 -0.13010079060E+03  0.24620817649E+03  0.31946171176E+03  0.00000000000E+00 0. -1.
        -11    1    3    3    0    0  0.36517313510E+03 -0.34292268426E+03  0.36315663941E+03  0.61873268115E+03  0.00000000000E+00 0.  1.
          2    1    6    6  502    0 -0.91125236715E+02  0.74412186179E+02 -0.31701296852E+02  0.12184397581E+03  0.00000000000E+00 0. -1.
          3    1    5    5  503    0  0.24087399345E+01  0.49809319344E+02  0.47250687512E+02  0.68697873271E+02  0.00000000000E+00 0. -1.
         -4    1    5    5    0  503  0.48601291915E+02  0.75565260469E+02  0.29147210735E+03  0.30500521885E+03  0.00000000000E+00 0.  1.
         -1    1    6    6    0  502 -0.48161815314E+03  0.27323670886E+03 -0.30596083431E+03  0.63263447316E+03  0.00000000000E+00 0.  1.
<mgrwt>
<rscale>  0 0.19741556E+04</rscale>
<asrwt>0</asrwt>
<pdfrwt beam="1">  1        1 0.11199619E+00 0.19741556E+04</pdfrwt>
<pdfrwt beam="2">  1       -1 0.20590780E+00 0.19741556E+04</pdfrwt>
<totfact> 0.32690159E+00</totfact>
</mgrwt>
</event>
<event>
12    1  0.1598876E-007  0.1278276E+04  0.7818608E-02  0.9046972E-01
          2   -1    0    0  501    0  0.00000000000E+00  0.00000000000E+00  0.12315550229E+04  0.12315550229E+04  0.00000000000E+00 0. -1.
         -2   -1    0    0    0  501 -0.00000000000E+00 -0.00000000000E+00 -0.33169241784E+03  0.33169241784E+03  0.00000000000E+00 0.  1.
         23    2    1    2    0    0  0.20161996071E+03 -0.38929624384E+02 -0.81770681138E+02  0.23818927281E+03  0.88778157090E+02 0.  0.
        254    2    1    2    0    0 -0.20161996071E+03  0.38929624384E+02  0.98163328624E+03  0.13250581680E+04  0.86603066669E+03 0.  0.
        -24    2    4    4    0    0  0.26420720452E+03  0.16960876332E+03  0.14407575145E+03  0.35464620354E+03  0.80271589051E+02 0.  0.
         24    2    4    4    0    0 -0.46582716523E+03 -0.13067913894E+03  0.83755753479E+03  0.97041196444E+03  0.78260918824E+02 0.  0.
         11    1    3    3    0    0  0.35644651984E+01 -0.23601075520E+02 -0.16793476198E+02  0.29184533929E+02  0.00000000000E+00 0. -1.
        -11    1    3    3    0    0  0.19805549551E+03 -0.15328548864E+02 -0.64977204940E+02  0.20900473888E+03  0.00000000000E+00 0.  1.
          4    1    6    6  502    0 -0.42325959078E+03 -0.13744375757E+03  0.73587950568E+03  0.85997564766E+03  0.00000000000E+00 0. -1.
          1    1    5    5  503    0  0.24142251162E+03  0.17759428968E+03  0.12988913647E+03  0.32664315180E+03  0.00000000000E+00 0. -1.
         -2    1    5    5    0  503  0.22784692903E+02 -0.79855263604E+01  0.14186614978E+02  0.28003051734E+02  0.00000000000E+00 0.  1.
         -3    1    6    6    0  502 -0.42567574450E+02  0.67646186343E+01  0.10167802911E+03  0.11043631678E+03  0.00000000000E+00 0.  1.
<mgrwt>
<rscale>  0 0.12782761E+04</rscale>
<asrwt>0</asrwt>
<pdfrwt beam="1">  1        2 0.18947000E+00 0.12782761E+04</pdfrwt>
<pdfrwt beam="2">  1       -2 0.51029603E-01 0.12782761E+04</pdfrwt>
<totfact> 0.64609410E+01</totfact>
</mgrwt>
</event>
<event>
12    1  0.1598876E-007  0.1337690E+04  0.7818608E-02  0.9000200E-01
         -2   -1    0    0    0  501 -0.00000000000E+00  0.00000000000E+00  0.67119331255E+03  0.67119331255E+03  0.00000000000E+00 0.  1.
          2   -1    0    0  501    0  0.00000000000E+00 -0.00000000000E+00 -0.66650442501E+03  0.66650442501E+03  0.00000000000E+00 0. -1.
         23    2    1    2    0    0  0.11808973417E+03 -0.11182789841E+03 -0.32170373478E+03  0.37259974098E+03  0.94268816807E+02 0.  0.
        254    2    1    2    0    0 -0.11808973417E+03  0.11182789841E+03  0.32639262232E+03  0.96509799659E+03  0.89354985028E+03 0.  0.
        -24    2    4    4    0    0 -0.25214238872E+03 -0.12549455126E+03 -0.20887584379E+03  0.35940361243E+03  0.78849045154E+02 0.  0.
         24    2    4    4    0    0  0.13405265455E+03  0.23732244967E+03  0.53526846612E+03  0.60569438416E+03  0.77854331130E+02 0.  0.
         11    1    3    3    0    0  0.10155271391E+03 -0.33498133533E+02 -0.20263612648E+03  0.22912109988E+03  0.00000000000E+00 0. -1.
        -11    1    3    3    0    0  0.16537020256E+02 -0.78329764878E+02 -0.11906760830E+03  0.14347864110E+03  0.00000000000E+00 0.  1.
          4    1    6    6  502    0  0.14002873646E+03  0.22466019953E+03  0.47467273218E+03  0.54350202848E+03  0.00000000000E+00 0. -1.
          3    1    5    5  503    0 -0.24908501132E+03 -0.13010461511E+03 -0.21290440089E+03  0.35256040285E+03  0.00000000000E+00 0. -1.
         -4    1    5    5    0  503 -0.30573773944E+01  0.46100638441E+01  0.40285570912E+01  0.68432095843E+01  0.00000000000E+00 0.  1.
         -3    1    6    6    0  502 -0.59760819132E+01  0.12662250142E+02  0.60595733936E+02  0.62192355679E+02  0.00000000000E+00 0.  1.
<mgrwt>
<rscale>  0 0.13376895E+04</rscale>
<asrwt>0</asrwt>
<pdfrwt beam="1">  1        2 0.10253914E+00 0.13376895E+04</pdfrwt>
<pdfrwt beam="2">  1       -2 0.10326051E+00 0.13376895E+04</pdfrwt>
<totfact> 0.32605331E+01</totfact>
</mgrwt>
</event>
<event>
12    1  0.1598876E-007  0.1208958E+04  0.7818608E-02  0.9105052E-01
         -2   -1    0    0    0  501 -0.00000000000E+00  0.00000000000E+00  0.19632894288E+04  0.19632894288E+04  0.00000000000E+00 0. -1.
          2   -1    0    0  501    0  0.00000000000E+00 -0.00000000000E+00 -0.18611353383E+03  0.18611353383E+03  0.00000000000E+00 0.  1.
         23    2    1    2    0    0  0.15113919192E+03  0.30980192367E+02  0.19941951826E+02  0.18178644155E+03  0.94052119783E+02 0.  0.
        254    2    1    2    0    0 -0.15113919192E+03 -0.30980192367E+02  0.17572339432E+04  0.19676165211E+04  0.87168848530E+03 0.  0.
        -24    2    4    4    0    0  0.15118430920E+03  0.33849098613E+03  0.99820903856E+03  0.10677388174E+04  0.78816587660E+02 0.  0.
         24    2    4    4    0    0 -0.30232350112E+03 -0.36947117850E+03  0.75902490460E+03  0.89987770368E+03  0.75846059277E+02 0.  0.
         13    1    3    3    0    0  0.47356665345E+01 -0.16784750861E+02 -0.15979929213E+02  0.23654017347E+02  0.00000000000E+00 0. -1.
        -13    1    3    3    0    0  0.14640352539E+03  0.47764943229E+02  0.35921881039E+02  0.15813242421E+03  0.00000000000E+00 0.  1.
          4    1    6    6  502    0 -0.59964064939E+02 -0.36294671190E+02  0.13502674805E+03  0.15213551502E+03  0.00000000000E+00 0. -1.
          1    1    5    5  503    0  0.13736661416E+03  0.23349459395E+03  0.76682918128E+03  0.81327504902E+03  0.00000000000E+00 0. -1.
         -2    1    5    5    0  503  0.13817695034E+02  0.10499639218E+03  0.23137985728E+03  0.25446376839E+03  0.00000000000E+00 0.  1.
         -1    1    6    6    0  502 -0.24235943618E+03 -0.33317650731E+03  0.62399815655E+03  0.74774218866E+03  0.00000000000E+00 0.  1.
<mgrwt>
<rscale>  0 0.12089578E+04</rscale>
<asrwt>0</asrwt>
<pdfrwt beam="1">  1        2 0.28632853E-01 0.12089578E+04</pdfrwt>
<pdfrwt beam="2">  1       -2 0.30204451E+00 0.12089578E+04</pdfrwt>
<totfact> 0.57670540E+00</totfact>
</mgrwt>
</event>
<event>
12    1  0.1598876E-007  0.1260895E+04  0.7818608E-02  0.9061164E-01
         -2   -1    0    0    0  501 -0.00000000000E+00  0.00000000000E+00  0.32441615359E+03  0.32441615359E+03  0.00000000000E+00 0.  1.
          2   -1    0    0  501    0  0.00000000000E+00 -0.00000000000E+00 -0.12251679589E+04  0.12251679589E+04  0.00000000000E+00 0. -1.
         23    2    1    2    0    0  0.11805626489E+03  0.15683727554E+03  0.39312782472E+02  0.21980222746E+03  0.90732087224E+02 0.  0.
        254    2    1    2    0    0 -0.11805626489E+03 -0.15683727554E+03 -0.94006458782E+03  0.13297818851E+04  0.91981694913E+03 0.  0.
        -24    2    4    4    0    0 -0.11477581539E+03  0.36116495791E+03 -0.24642115381E+03  0.45980819201E+03  0.84181790043E+02 0.  0.
         24    2    4    4    0    0 -0.32804494946E+01 -0.51800223345E+03 -0.69364343401E+03  0.86997369306E+03  0.85883280438E+02 0.  0.
         13    1    3    3    0    0  0.55139006150E+02  0.30814659490E+02 -0.21017669808E+02  0.66570231206E+02  0.00000000000E+00 0. -1.
        -13    1    3    3    0    0  0.62917258737E+02  0.12602261605E+03  0.60330452279E+02  0.15323199625E+03  0.00000000000E+00 0.  1.
          4    1    6    6  502    0 -0.28662326425E+02 -0.25796594120E+03 -0.40098128335E+03  0.47765462981E+03  0.00000000000E+00 0. -1.
          1    1    5    5  503    0 -0.11225205962E+02  0.38882575248E+02  0.10539840756E+01  0.40484204194E+02  0.00000000000E+00 0. -1.
         -2    1    5    5    0  503 -0.10355060943E+03  0.32228238266E+03 -0.24747513789E+03  0.41932398782E+03  0.00000000000E+00 0.  1.
         -3    1    6    6    0  502  0.25381876930E+02 -0.26003629225E+03 -0.29266215065E+03  0.39231906325E+03  0.00000000000E+00 0.  1.
<mgrwt>
<rscale>  0 0.12608954E+04</rscale>
<asrwt>0</asrwt>
<pdfrwt beam="1">  1        2 0.18848738E+00 0.12608954E+04</pdfrwt>
<pdfrwt beam="2">  1       -2 0.49910178E-01 0.12608954E+04</pdfrwt>
<totfact> 0.68281142E+01</totfact>
</mgrwt>
</event>
<event>
12    1  0.1598876E-007  0.1550284E+04  0.7818608E-02  0.8851686E-01
          2   -1    0    0  501    0  0.00000000000E+00  0.00000000000E+00  0.14896745633E+04  0.14896745633E+04  0.00000000000E+00 0. -1.
         -2   -1    0    0    0  501 -0.00000000000E+00 -0.00000000000E+00 -0.40334008785E+03  0.40334008785E+03  0.00000000000E+00 0.  1.
         23    2    1    2    0    0  0.23236220479E+03 -0.41353131663E+03  0.38266434554E+03  0.61922655707E+03  0.10958642061E+03 0.  0.
        254    2    1    2    0    0 -0.23236220479E+03  0.41353131663E+03  0.70367012987E+03  0.12737880940E+04  0.94993900477E+03 0.  0.
        -24    2    4    4    0    0 -0.45634673961E+03  0.21469237052E+03  0.80013939321E+03  0.94912654616E+03  0.79202218086E+02 0.  0.
         24    2    4    4    0    0  0.22398453482E+03  0.19883894611E+03 -0.96469263342E+02  0.32466154787E+03  0.79955009634E+02 0.  0.
         13    1    3    3    0    0  0.21957890742E+03 -0.31539459491E+03  0.33296537960E+03  0.50848263598E+03  0.00000000000E+00 0. -1.
        -13    1    3    3    0    0  0.12783297362E+02 -0.98136721722E+02  0.49698965940E+02  0.11074392109E+03  0.00000000000E+00 0.  1.
          2    1    6    6  502    0  0.15938691591E+03  0.89297778546E+02 -0.61516419956E+02  0.19277591173E+03  0.00000000000E+00 0. -1.
          1    1    5    5  503    0 -0.99822024750E+02  0.30925643529E+02  0.22329242614E+03  0.24653669022E+03  0.00000000000E+00 0. -1.
         -2    1    5    5    0  503 -0.35652471486E+03  0.18376672699E+03  0.57684696707E+03  0.70258985595E+03  0.00000000000E+00 0.  1.
         -1    1    6    6    0  502  0.64597618909E+02  0.10954116757E+03 -0.34952843385E+02  0.13188563615E+03  0.00000000000E+00 0.  1.
<mgrwt>
<rscale>  0 0.15502845E+04</rscale>
<asrwt>0</asrwt>
<pdfrwt beam="1">  1        2 0.22918070E+00 0.15502845E+04</pdfrwt>
<pdfrwt beam="2">  1       -2 0.62052322E-01 0.15502845E+04</pdfrwt>
<totfact> 0.29858345E+01</totfact>
</mgrwt>
</event>
<event>
12    1  0.1598876E-007  0.1266038E+04  0.7818608E-02  0.9056940E-01
          1   -1    0    0  501    0  0.00000000000E+00  0.00000000000E+00  0.13904012849E+04  0.13904012849E+04  0.00000000000E+00 0. -1.
         -1   -1    0    0    0  501 -0.00000000000E+00 -0.00000000000E+00 -0.28819945907E+03  0.28819945907E+03  0.00000000000E+00 0.  1.
         23    2    1    2    0    0  0.22993157493E+03  0.20523883372E+03  0.27950447984E+03  0.42426697100E+03  0.82995183067E+02 0.  0.
        254    2    1    2    0    0 -0.22993157493E+03 -0.20523883372E+03  0.82269734597E+03  0.12543337729E+04  0.89528251568E+03 0.  0.
        -24    2    4    4    0    0  0.26762532315E+03  0.15213045459E+03  0.37236519831E+03  0.48982159916E+03  0.80637269845E+02 0.  0.
         24    2    4    4    0    0 -0.49755689808E+03 -0.35736928831E+03  0.45033214766E+03  0.76451217378E+03  0.80025905745E+02 0.  0.
         13    1    3    3    0    0  0.91600336712E+02  0.58940787159E+02  0.14808313259E+03  0.18382941069E+03  0.00000000000E+00 0.  1.
        -13    1    3    3    0    0  0.13833123822E+03  0.14629804656E+03  0.13142134725E+03  0.24043756031E+03  0.00000000000E+00 0. -1.
          2    1    6    6  502    0 -0.15602909758E+03 -0.71272495878E+02  0.14219770627E+03  0.22281165955E+03  0.00000000000E+00 0. -1.
          3    1    5    5  503    0  0.18645203364E+03  0.61752101803E+02  0.24092106899E+03  0.31083861473E+03  0.00000000000E+00 0. -1.
         -4    1    5    5    0  503  0.81173289514E+02  0.90378352791E+02  0.13144412932E+03  0.17898298443E+03  0.00000000000E+00 0.  1.
         -1    1    6    6    0  502 -0.34152780050E+03 -0.28609679243E+03  0.30813444138E+03  0.54170051423E+03  0.00000000000E+00 0.  1.
<mgrwt>
<rscale>  0 0.12660378E+04</rscale>
<asrwt>0</asrwt>
<pdfrwt beam="1">  1        1 0.21390789E+00 0.12660378E+04</pdfrwt>
<pdfrwt beam="2">  1       -1 0.44338379E-01 0.12660378E+04</pdfrwt>
<totfact> 0.38688160E+01</totfact>
</mgrwt>
</event>
<event>
12    1  0.1598876E-007  0.1912689E+04  0.7818608E-02  0.8648566E-01
          2   -1    0    0  501    0  0.00000000000E+00  0.00000000000E+00  0.36264696765E+04  0.36264696765E+04  0.00000000000E+00 0. -1.
         -2   -1    0    0    0  501 -0.00000000000E+00 -0.00000000000E+00 -0.25219977177E+03  0.25219977177E+03  0.00000000000E+00 0.  1.
         23    2    1    2    0    0 -0.14934571940E+03 -0.31057651001E+03  0.26125524142E+04  0.26366807341E+04  0.88844041169E+02 0.  0.
        254    2    1    2    0    0  0.14934571940E+03  0.31057651001E+03  0.76171749046E+03  0.12419887142E+04  0.91845550707E+03 0.  0.
        -24    2    4    4    0    0  0.89396527659E+02 -0.29152663071E+03  0.76708982175E+02  0.32438428357E+03  0.79758259208E+02 0.  0.
         24    2    4    4    0    0  0.59949191737E+02  0.60210314072E+03  0.68500850829E+03  0.91760443064E+03  0.81480899861E+02 0.  0.
         11    1    3    3    0    0 -0.35759459322E+02 -0.12640913002E+03  0.72917655208E+03  0.74091595420E+03  0.00000000000E+00 0. -1.
        -11    1    3    3    0    0 -0.11358626007E+03 -0.18416737999E+03  0.18833758622E+04  0.18957647798E+04  0.00000000000E+00 0.  1.
          2    1    6    6  502    0 -0.11122505352E+02  0.13471951069E+02  0.23349901538E+02  0.29161987119E+02  0.00000000000E+00 0. -1.
          1    1    5    5  503    0 -0.13326817202E+02 -0.35254191552E+02  0.19465371396E+02  0.42418896289E+02  0.00000000000E+00 0. -1.
         -2    1    5    5    0  503  0.10272334486E+03 -0.25627243915E+03  0.57243610779E+02  0.28196538728E+03  0.00000000000E+00 0.  1.
         -1    1    6    6    0  502  0.71071697088E+02  0.58863118965E+03  0.66165860675E+03  0.88844244352E+03  0.00000000000E+00 0.  1.
<mgrwt>
<rscale>  0 0.19126890E+04</rscale>
<asrwt>0</asrwt>
<pdfrwt beam="1">  1        2 0.55791837E+00 0.19126890E+04</pdfrwt>
<pdfrwt beam="2">  1       -2 0.38799968E-01 0.19126890E+04</pdfrwt>
<totfact> 0.39109835E+00</totfact>
</mgrwt>
</event>
<event>
12    1  0.1598876E-007  0.2193277E+04  0.7818608E-02  0.8521232E-01
         -2   -1    0    0    0  501 -0.00000000000E+00  0.00000000000E+00  0.39830740879E+03  0.39830740879E+03  0.00000000000E+00 0.  1.
          2   -1    0    0  501    0  0.00000000000E+00 -0.00000000000E+00 -0.30193161604E+04  0.30193161604E+04  0.00000000000E+00 0. -1.
         23    2    1    2    0    0 -0.67747198441E+03  0.53761070817E+03 -0.67497268023E+03  0.11017475505E+04  0.10132118579E+03 0.  0.
        254    2    1    2    0    0  0.67747198441E+03 -0.53761070817E+03 -0.19460360713E+04  0.23158760187E+04  0.91007240361E+03 0.  0.
        -24    2    4    4    0    0  0.22813427613E+03 -0.34125154360E+03 -0.17206710989E+04  0.17707724005E+04  0.80174808300E+02 0.  0.
         24    2    4    4    0    0  0.44933770828E+03 -0.19635916457E+03 -0.22536497245E+03  0.54510361819E+03  0.76728652793E+02 0.  0.
         11    1    3    3    0    0 -0.60246686923E+03  0.49215196752E+03 -0.56697041774E+03  0.96261900160E+03  0.00000000000E+00 0. -1.
        -11    1    3    3    0    0 -0.75005115184E+02  0.45458740647E+02 -0.10800226249E+03  0.13912854886E+03  0.00000000000E+00 0.  1.
          4    1    6    6  502    0  0.29593011010E+02 -0.79546899473E+01  0.41876388744E+01  0.30928299535E+02  0.00000000000E+00 0. -1.
          3    1    5    5  503    0  0.77688812187E+02 -0.91673157255E+02 -0.37008827431E+03  0.38910776153E+03  0.00000000000E+00 0. -1.
         -4    1    5    5    0  503  0.15044546394E+03 -0.24957838634E+03 -0.13505828246E+04  0.13816646390E+04  0.00000000000E+00 0.  1.
         -3    1    6    6    0  502  0.41974469727E+03 -0.18840447462E+03 -0.22955261132E+03  0.51417531865E+03  0.00000000000E+00 0.  1.
<mgrwt>
<rscale>  0 0.21932770E+04</rscale>
<asrwt>0</asrwt>
<pdfrwt beam="1">  1        2 0.46451018E+00 0.21932770E+04</pdfrwt>
<pdfrwt beam="2">  1       -2 0.61278063E-01 0.21932770E+04</pdfrwt>
<totfact> 0.38401680E+00</totfact>
</mgrwt>
</event>
<event>
12    1  0.1598876E-007  0.1701464E+04  0.7818608E-02  0.8760530E-01
         -1   -1    0    0    0  501 -0.00000000000E+00  0.00000000000E+00  0.53894017807E+03  0.53894017807E+03  0.00000000000E+00 0.  1.
          1   -1    0    0  501    0  0.00000000000E+00 -0.00000000000E+00 -0.13429040860E+04  0.13429040860E+04  0.00000000000E+00 0. -1.
         23    2    1    2    0    0 -0.11361533951E+03 -0.36462378637E+03 -0.80692305586E+03  0.89751269264E+03  0.92440599337E+02 0.  0.
        254    2    1    2    0    0  0.11361533951E+03  0.36462378637E+03  0.29591479099E+01  0.98433157145E+03  0.90721603548E+03 0.  0.
        -24    2    4    4    0    0 -0.37374899783E+03  0.50134452921E+02  0.81510612323E+02  0.39368907393E+03  0.78392156860E+02 0.  0.
         24    2    4    4    0    0  0.48736433734E+03  0.31448933345E+03 -0.78551464413E+02  0.59064249753E+03  0.79124516796E+02 0.  0.
         11    1    3    3    0    0 -0.10567152185E+03 -0.20552095996E+03 -0.42655683102E+03  0.48513510036E+03  0.00000000000E+00 0. -1.
        -11    1    3    3    0    0 -0.79438176564E+01 -0.15910282641E+03 -0.38036622484E+03  0.41237759228E+03  0.00000000000E+00 0.  1.
          4    1    6    6  502    0  0.83672655870E+01  0.17848708300E+02 -0.12570226174E+02  0.23379437706E+02  0.00000000000E+00 0. -1.
          1    1    5    5  503    0 -0.13902790424E+02  0.12797753903E+02 -0.87463094238E+01  0.20822296105E+02  0.00000000000E+00 0. -1.
         -2    1    5    5    0  503 -0.35984620741E+03  0.37336699018E+02  0.90256921747E+02  0.37286677782E+03  0.00000000000E+00 0.  1.
         -3    1    6    6    0  502  0.47899707175E+03  0.29664062515E+03 -0.65981238239E+02  0.56726305982E+03  0.00000000000E+00 0.  1.
<mgrwt>
<rscale>  0 0.17014640E+04</rscale>
<asrwt>0</asrwt>
<pdfrwt beam="1">  1        1 0.20660063E+00 0.17014640E+04</pdfrwt>
<pdfrwt beam="2">  1       -1 0.82913873E-01 0.17014640E+04</pdfrwt>
<totfact> 0.11589317E+01</totfact>
</mgrwt>
</event>
<event>
12    1  0.1598876E-007  0.1650896E+04  0.7818608E-02  0.8789877E-01
         -1   -1    0    0    0  501 -0.00000000000E+00  0.00000000000E+00  0.76155649461E+03  0.76155649461E+03  0.00000000000E+00 0.  1.
          1   -1    0    0  501    0  0.00000000000E+00 -0.00000000000E+00 -0.89469922022E+03  0.89469922022E+03  0.00000000000E+00 0. -1.
         23    2    1    2    0    0 -0.28999664174E+03  0.21929126044E+03 -0.49290750659E+03  0.61922688306E+03  0.91090139553E+02 0.  0.
        254    2    1    2    0    0  0.28999664174E+03 -0.21929126044E+03  0.35976478098E+03  0.10370288318E+04  0.90211495452E+03 0.  0.
        -24    2    4    4    0    0  0.48762773746E+03 -0.44115726927E+03  0.20657764767E+03  0.69372197538E+03  0.78583128136E+02 0.  0.
         24    2    4    4    0    0 -0.19763109572E+03  0.22186600884E+03  0.15318713331E+03  0.34330685639E+03  0.78171119750E+02 0.  0.
         11    1    3    3    0    0 -0.28674796077E+02  0.30150518510E+02 -0.18510024358E+02  0.45540297520E+02  0.00000000000E+00 0.  1.
        -11    1    3    3    0    0 -0.26132184566E+03  0.18914074193E+03 -0.47439748223E+03  0.57368658554E+03  0.00000000000E+00 0. -1.
          4    1    6    6  502    0 -0.89439821366E+02  0.15526248229E+03  0.75876592795E+02  0.19458462783E+03  0.00000000000E+00 0. -1.
          3    1    5    5  503    0  0.46161040597E+03 -0.43493082429E+03  0.18931201650E+03  0.66188218620E+03  0.00000000000E+00 0. -1.
         -4    1    5    5    0  503  0.26017331493E+02 -0.62264449831E+01  0.17265631168E+02  0.31839789176E+02  0.00000000000E+00 0.  1.
         -3    1    6    6    0  502 -0.10819127435E+03  0.66603526546E+02  0.77310540512E+02  0.14872222856E+03  0.00000000000E+00 0.  1.
<mgrwt>
<rscale>  0 0.16508955E+04</rscale>
<asrwt>0</asrwt>
<pdfrwt beam="1">  1        1 0.13764603E+00 0.16508955E+04</pdfrwt>
<pdfrwt beam="2">  1       -1 0.11716254E+00 0.16508955E+04</pdfrwt>
<totfact> 0.11528365E+01</totfact>
</mgrwt>
</event>
<event>
12    1  0.1598876E-007  0.1307581E+04  0.7818608E-02  0.9023575E-01
          2   -1    0    0  501    0  0.00000000000E+00  0.00000000000E+00  0.16765948695E+04  0.16765948695E+04  0.00000000000E+00 0. -1.
         -2   -1    0    0    0  501 -0.00000000000E+00 -0.00000000000E+00 -0.25494651709E+03  0.25494651709E+03  0.00000000000E+00 0.  1.
         23    2    1    2    0    0 -0.15900490589E+03 -0.79172880102E+02 -0.46430715338E+02  0.20531474463E+03  0.91909890636E+02 0.  0.
        254    2    1    2    0    0  0.15900490589E+03  0.79172880102E+02  0.14680790678E+04  0.17262266420E+04  0.89053431446E+03 0.  0.
        -24    2    4    4    0    0 -0.24837790165E+03  0.31718319021E+03  0.85506867569E+03  0.94857967330E+03  0.79775925390E+02 0.  0.
         24    2    4    4    0    0  0.40738280754E+03 -0.23801031011E+03  0.61301039207E+03  0.77764696868E+03  0.79645511548E+02 0.  0.
         13    1    3    3    0    0  0.34837562267E+01  0.12005299342E+02  0.23341846530E+01  0.12716610702E+02  0.00000000000E+00 0. -1.
        -13    1    3    3    0    0 -0.16248866211E+03 -0.91178179445E+02 -0.48764899991E+02  0.19259813393E+03  0.00000000000E+00 0.  1.
          4    1    6    6  502    0  0.31854355047E+03 -0.15160601874E+03  0.48199459808E+03  0.59730492300E+03  0.00000000000E+00 0. -1.
          1    1    5    5  503    0 -0.25447671161E+03  0.31207514470E+03  0.84045576745E+03  0.93194162357E+03  0.00000000000E+00 0. -1.
         -2    1    5    5    0  503  0.60988099562E+01  0.51080455104E+01  0.14612908234E+02  0.16638049731E+02  0.00000000000E+00 0.  1.
         -3    1    6    6    0  502  0.88839257067E+02 -0.86404291366E+02  0.13101579399E+03  0.18034204567E+03  0.00000000000E+00 0.  1.
<mgrwt>
<rscale>  0 0.13075810E+04</rscale>
<asrwt>0</asrwt>
<pdfrwt beam="1">  1        2 0.25793767E+00 0.13075810E+04</pdfrwt>
<pdfrwt beam="2">  1       -2 0.39222542E-01 0.13075810E+04</pdfrwt>
<totfact> 0.60833722E+01</totfact>
</mgrwt>
</event>
<event>
12    1  0.1598876E-007  0.1848092E+04  0.7818608E-02  0.8681135E-01
         -1   -1    0    0    0  501 -0.00000000000E+00  0.00000000000E+00  0.10749026225E+04  0.10749026225E+04  0.00000000000E+00 0.  1.
          1   -1    0    0  501    0  0.00000000000E+00 -0.00000000000E+00 -0.79436118588E+03  0.79436118588E+03  0.00000000000E+00 0. -1.
         23    2    1    2    0    0 -0.22781996393E+03 -0.16619038690E+03 -0.53669395057E+03  0.61274291084E+03  0.88838603876E+02 0.  0.
        254    2    1    2    0    0  0.22781996393E+03  0.16619038690E+03  0.81723538722E+03  0.12565208976E+04  0.91183875067E+03 0.  0.
        -24    2    4    4    0    0  0.57366736179E+03  0.11884684007E+03  0.57159183091E+03  0.82228553664E+03  0.78850930390E+02 0.  0.
         24    2    4    4    0    0 -0.34584739786E+03  0.47343546828E+02  0.24564355630E+03  0.43423536092E+03  0.79798232338E+02 0.  0.
         11    1    3    3    0    0 -0.21473625639E+03 -0.13823536103E+03 -0.41575226538E+03  0.48792481082E+03  0.00000000000E+00 0. -1.
        -11    1    3    3    0    0 -0.13083707540E+02 -0.27955025872E+02 -0.12094168519E+03  0.12481810002E+03  0.00000000000E+00 0.  1.
          2    1    6    6  502    0 -0.14473415873E+02 -0.14779274476E+02  0.10592009978E+02  0.23239995621E+02  0.00000000000E+00 0. -1.
          1    1    5    5  503    0  0.15738006075E+03  0.73718086829E+01  0.11989048870E+03  0.19798120205E+03  0.00000000000E+00 0. -1.
         -2    1    5    5    0  503  0.41628730104E+03  0.11147503139E+03  0.45170134221E+03  0.62430433459E+03  0.00000000000E+00 0.  1.
         -1    1    6    6    0  502 -0.33137398199E+03  0.62122821305E+02  0.23505154633E+03  0.41099536530E+03  0.00000000000E+00 0.  1.
<mgrwt>
<rscale>  0 0.18480919E+04</rscale>
<asrwt>0</asrwt>
<pdfrwt beam="1">  1        1 0.12220941E+00 0.18480919E+04</pdfrwt>
<pdfrwt beam="2">  1       -1 0.16536963E+00 0.18480919E+04</pdfrwt>
<totfact> 0.55959929E+00</totfact>
</mgrwt>
</event>
<event>
12    1  0.1598876E-007  0.3192872E+04  0.7818608E-02  0.8190702E-01
         -2   -1    0    0    0  501 -0.00000000000E+00  0.00000000000E+00  0.11763165758E+04  0.11763165758E+04  0.00000000000E+00 0.  1.
          2   -1    0    0  501    0  0.00000000000E+00 -0.00000000000E+00 -0.21665999538E+04  0.21665999538E+04  0.00000000000E+00 0. -1.
         23    2    1    2    0    0  0.10757076887E+04  0.96053462268E+03 -0.17841307473E+03  0.14558620230E+04  0.89046121839E+02 0.  0.
        254    2    1    2    0    0 -0.10757076887E+04 -0.96053462268E+03 -0.81187030328E+03  0.18870545066E+04  0.90667939681E+03 0.  0.
        -24    2    4    4    0    0 -0.50163430406E+03 -0.23067494735E+03 -0.77341916631E+03  0.95421564953E+03  0.86616353270E+02 0.  0.
         24    2    4    4    0    0 -0.57407338463E+03 -0.72985967534E+03 -0.38451136969E+02  0.93283885706E+03  0.80339571029E+02 0.  0.
         11    1    3    3    0    0  0.59411843909E+03  0.52435151054E+03 -0.53596022258E+02  0.79422525764E+03  0.00000000000E+00 0. -1.
        -11    1    3    3    0    0  0.48158924960E+03  0.43618311215E+03 -0.12481705247E+03  0.66163676533E+03  0.00000000000E+00 0.  1.
          2    1    6    6  502    0 -0.29347767568E+03 -0.31108899690E+03 -0.61475649182E+01  0.42771871910E+03  0.00000000000E+00 0. -1.
          3    1    5    5  503    0 -0.13125417233E+03 -0.92824120421E+02 -0.26956140317E+03  0.31385876627E+03  0.00000000000E+00 0. -1.
         -4    1    5    5    0  503 -0.37038013173E+03 -0.13785082693E+03 -0.50385776314E+03  0.64035688326E+03  0.00000000000E+00 0.  1.
         -1    1    6    6    0  502 -0.28059570896E+03 -0.41877067844E+03 -0.32303572051E+02  0.50512013796E+03  0.00000000000E+00 0.  1.
<mgrwt>
<rscale>  0 0.31928717E+04</rscale>
<asrwt>0</asrwt>
<pdfrwt beam="1">  1        2 0.33332307E+00 0.31928717E+04</pdfrwt>
<pdfrwt beam="2">  1       -2 0.18097178E+00 0.31928717E+04</pdfrwt>
<totfact> 0.81116920E-01</totfact>
</mgrwt>
</event>
<event>
12    1  0.1598876E-007  0.2030394E+04  0.7818608E-02  0.8592541E-01
         -1   -1    0    0    0  501 -0.00000000000E+00  0.00000000000E+00  0.15035223665E+04  0.15035223665E+04  0.00000000000E+00 0.  1.
          1   -1    0    0  501    0  0.00000000000E+00 -0.00000000000E+00 -0.68547373228E+03  0.68547373228E+03  0.00000000000E+00 0. -1.
         23    2    1    2    0    0 -0.29842790803E+03 -0.29651753737E+03 -0.42498593455E+03  0.60470040781E+03  0.89820222588E+02 0.  0.
        254    2    1    2    0    0  0.29842790803E+03  0.29651753737E+03  0.12430345688E+04  0.15842956910E+04  0.88762381166E+03 0.  0.
        -24    2    4    4    0    0  0.43303098279E+03  0.20643779396E+02  0.18153326691E+03  0.47642263031E+03  0.77988447775E+02 0.  0.
         24    2    4    4    0    0 -0.13460307476E+03  0.27587375798E+03  0.10615013019E+04  0.11078730607E+04  0.79833493209E+02 0.  0.
         13    1    3    3    0    0 -0.15508014862E+03 -0.20609335091E+03 -0.22239788581E+03  0.34056591345E+03  0.00000000000E+00 0. -1.
        -13    1    3    3    0    0 -0.14334775942E+03 -0.90424186457E+02 -0.20258804873E+03  0.26413449437E+03  0.00000000000E+00 0.  1.
          4    1    6    6  502    0 -0.14030416446E+03  0.27259251634E+03  0.99791570741E+03  0.10439481298E+04  0.00000000000E+00 0. -1.
          1    1    5    5  503    0  0.31234720584E+03  0.50790577757E-01  0.16387925987E+03  0.35272821179E+03  0.00000000000E+00 0. -1.
         -2    1    5    5    0  503  0.12068377695E+03  0.20592988818E+02  0.17654007043E+02  0.12369441852E+03  0.00000000000E+00 0.  1.
         -3    1    6    6    0  502  0.57010897071E+01  0.32812416329E+01  0.63585594473E+02  0.63924930935E+02  0.00000000000E+00 0.  1.
<mgrwt>
<rscale>  0 0.20303941E+04</rscale>
<asrwt>0</asrwt>
<pdfrwt beam="1">  1        1 0.10545750E+00 0.20303941E+04</pdfrwt>
<pdfrwt beam="2">  1       -1 0.23131113E+00 0.20303941E+04</pdfrwt>
<totfact> 0.24073232E+00</totfact>
</mgrwt>
</event>
<event>
12    1  0.1715073E-007  0.1875435E+04  0.7818608E-02  0.8667182E-01
          1   -1    0    0  501    0  0.00000000000E+00  0.00000000000E+00  0.19565155157E+04  0.19565155157E+04  0.00000000000E+00 0. -1.
         -1   -1    0    0    0  501 -0.00000000000E+00 -0.00000000000E+00 -0.44942840328E+03  0.44942840328E+03  0.00000000000E+00 0.  1.
         23    2    1    2    0    0 -0.21665896463E+02  0.71910519019E+03  0.61383410430E+03  0.95291314070E+03  0.11691646799E+03 0.  0.
        254    2    1    2    0    0  0.21665896463E+02 -0.71910519019E+03  0.89325300816E+03  0.14530307783E+04  0.89208509715E+03 0.  0.
        -24    2    4    4    0    0  0.43171646608E+03 -0.52627863344E+03  0.52236101872E+03  0.86173243369E+03  0.79833866838E+02 0.  0.
         24    2    4    4    0    0 -0.41005056961E+03 -0.19282655675E+03  0.37089198944E+03  0.59129834464E+03  0.82154208128E+02 0.  0.
         11    1    3    3    0    0 -0.76455167914E+01  0.64202634919E+01  0.29666698172E+02  0.31301544543E+02  0.00000000000E+00 0.  1.
        -11    1    3    3    0    0 -0.14020379672E+02  0.71268492670E+03  0.58416740613E+03  0.92161159616E+03  0.00000000000E+00 0. -1.
          2    1    6    6  502    0 -0.34429611697E+03 -0.12621539179E+03  0.28812575161E+03  0.46635457543E+03  0.00000000000E+00 0. -1.
          1    1    5    5  503    0  0.40521703941E+03 -0.51613945920E+03  0.50844376860E+03  0.83013002367E+03  0.00000000000E+00 0. -1.
         -2    1    5    5    0  503  0.26499426671E+02 -0.10139174241E+02  0.13917250121E+02  0.31602410021E+02  0.00000000000E+00 0.  1.
         -1    1    6    6    0  502 -0.65754452646E+02 -0.66611164952E+02  0.82766237822E+02  0.12494376920E+03  0.00000000000E+00 0.  1.
<mgrwt>
<rscale>  0 0.18754345E+04</rscale>
<asrwt>0</asrwt>
<pdfrwt beam="1">  1        1 0.30100238E+00 0.18754345E+04</pdfrwt>
<pdfrwt beam="2">  1       -1 0.69142833E-01 0.18754345E+04</pdfrwt>
<totfact> 0.63280971E+00</totfact>
</mgrwt>
</event>
<event>
12    1  0.1598876E-007  0.1408908E+04  0.7818608E-02  0.8947395E-01
          1   -1    0    0  501    0  0.00000000000E+00  0.00000000000E+00  0.87019085106E+03  0.87019085106E+03  0.00000000000E+00 0. -1.
         -1   -1    0    0    0  501 -0.00000000000E+00 -0.00000000000E+00 -0.57028371994E+03  0.57028371994E+03  0.00000000000E+00 0.  1.
         23    2    1    2    0    0  0.93001901372E+02  0.32283675682E+03 -0.14887940201E+03  0.37840573027E+03  0.90293383711E+02 0.  0.
        254    2    1    2    0    0 -0.93001901372E+02 -0.32283675682E+03  0.44878653313E+03  0.10620688407E+04  0.90205761729E+03 0.  0.
        -24    2    4    4    0    0  0.35915154682E+03  0.31913282316E+02  0.91587799131E+02  0.38053006201E+03  0.80040689466E+02 0.  0.
         24    2    4    4    0    0 -0.45215344819E+03 -0.35475003914E+03  0.35719873400E+03  0.68153877872E+03  0.81325520888E+02 0.  0.
         13    1    3    3    0    0  0.65458894713E+02  0.26649261662E+03 -0.81289631593E+02  0.28620130295E+03  0.00000000000E+00 0. -1.
        -13    1    3    3    0    0  0.27543006659E+02  0.56344140208E+02 -0.67589770415E+02  0.92204427314E+02  0.00000000000E+00 0.  1.
          2    1    6    6  502    0 -0.14431347164E+02 -0.35370400073E+01 -0.23390998675E+01  0.15041470047E+02  0.00000000000E+00 0. -1.
          3    1    5    5  503    0  0.79002314798E+02 -0.26194233518E+02  0.20510133536E+02  0.85721462836E+02  0.00000000000E+00 0. -1.
         -4    1    5    5    0  503  0.28014923202E+03  0.58107515835E+02  0.71077665595E+02  0.29480859917E+03  0.00000000000E+00 0.  1.
         -1    1    6    6    0  502 -0.43772210103E+03 -0.35121299913E+03  0.35953783386E+03  0.66649730867E+03  0.00000000000E+00 0.  1.
<mgrwt>
<rscale>  0 0.14089083E+04</rscale>
<asrwt>0</asrwt>
<pdfrwt beam="1">  1        1 0.13387552E+00 0.14089083E+04</pdfrwt>
<pdfrwt beam="2">  1       -1 0.87735957E-01 0.14089083E+04</pdfrwt>
<totfact> 0.23986419E+01</totfact>
</mgrwt>
</event>
<event>
12    1  0.1598876E-007  0.1495918E+04  0.7818608E-02  0.8887172E-01
         -1   -1    0    0    0  501 -0.00000000000E+00  0.00000000000E+00  0.23052410527E+03  0.23052410527E+03  0.00000000000E+00 0.  1.
          1   -1    0    0  501    0  0.00000000000E+00 -0.00000000000E+00 -0.24268286403E+04  0.24268286403E+04  0.00000000000E+00 0. -1.
         23    2    1    2    0    0 -0.25284730869E+02 -0.17983208643E+03 -0.14822598076E+04  0.14962086145E+04  0.92559083261E+02 0.  0.
        254    2    1    2    0    0  0.25284730869E+02  0.17983208643E+03 -0.71404472742E+03  0.11611441311E+04  0.89745023454E+03 0.  0.
        -24    2    4    4    0    0 -0.41818641710E+03  0.10404948548E+03 -0.23101955136E+03  0.49550655602E+03  0.80315248066E+02 0.  0.
         24    2    4    4    0    0  0.44347114797E+03  0.75782600951E+02 -0.48302517606E+03  0.66563757506E+03  0.85734467629E+02 0.  0.
         11    1    3    3    0    0 -0.15270276320E+02 -0.10968513923E+03 -0.12034851546E+04  0.12085696208E+04  0.00000000000E+00 0. -1.
        -11    1    3    3    0    0 -0.10014454549E+02 -0.70146947194E+02 -0.27877465309E+03  0.28763899372E+03  0.00000000000E+00 0.  1.
          4    1    6    6  502    0  0.13538041636E+03  0.42118126644E+02 -0.10293147182E+03  0.17520468492E+03  0.00000000000E+00 0. -1.
          3    1    5    5  503    0 -0.43793573498E+02  0.38327799776E+02 -0.33024334176E+02  0.66914153683E+02  0.00000000000E+00 0. -1.
         -4    1    5    5    0  503 -0.37439284360E+03  0.65721685702E+02 -0.19799521718E+03  0.42859240234E+03  0.00000000000E+00 0.  1.
         -3    1    6    6    0  502  0.30809073161E+03  0.33664474307E+02 -0.38009370424E+03  0.49043289014E+03  0.00000000000E+00 0.  1.
<mgrwt>
<rscale>  0 0.14959178E+04</rscale>
<asrwt>0</asrwt>
<pdfrwt beam="1">  1        1 0.37335821E+00 0.14959178E+04</pdfrwt>
<pdfrwt beam="2">  1       -1 0.35465251E-01 0.14959178E+04</pdfrwt>
<totfact> 0.11189008E+01</totfact>
</mgrwt>
</event>
<event>
12    1  0.1598876E-007  0.2303088E+04  0.7818608E-02  0.8476705E-01
         -2   -1    0    0    0  501 -0.00000000000E+00  0.00000000000E+00  0.77849046408E+03  0.77849046408E+03  0.00000000000E+00 0.  1.
          2   -1    0    0  501    0  0.00000000000E+00 -0.00000000000E+00 -0.17033648239E+04  0.17033648239E+04  0.00000000000E+00 0. -1.
         23    2    1    2    0    0  0.40442519637E+03  0.52985759067E+03  0.37887958853E+03  0.77206422633E+03  0.90689696875E+02 0.  0.
        254    2    1    2    0    0 -0.40442519637E+03 -0.52985759067E+03 -0.13037539484E+04  0.17097910617E+04  0.88278100957E+03 0.  0.
        -24    2    4    4    0    0 -0.65664743590E+03 -0.22847132665E+03 -0.90641652971E+03  0.11451251869E+04  0.79597526417E+02 0.  0.
         24    2    4    4    0    0  0.25222223953E+03 -0.30138626402E+03 -0.39733741869E+03  0.56466587478E+03  0.80751393777E+02 0.  0.
         11    1    3    3    0    0  0.33459954603E+03  0.43791595562E+03  0.27135391631E+03  0.61429649868E+03  0.00000000000E+00 0.  1.
        -11    1    3    3    0    0  0.69825650337E+02  0.91941635047E+02  0.10752567222E+03  0.15776772765E+03  0.00000000000E+00 0. -1.
          4    1    6    6  502    0  0.25369582133E+03 -0.27552734219E+03 -0.36228972009E+03  0.52108610357E+03  0.00000000000E+00 0. -1.
          1    1    5    5  503    0 -0.59001583364E+03 -0.20511853305E+03 -0.76991251097E+03  0.99144216730E+03  0.00000000000E+00 0. -1.
         -2    1    5    5    0  503 -0.66631602264E+02 -0.23352793605E+02 -0.13650401874E+03  0.15368301962E+03  0.00000000000E+00 0.  1.
         -3    1    6    6    0  502 -0.14735817958E+01 -0.25858921825E+02 -0.35047698598E+02  0.43579771205E+02  0.00000000000E+00 0.  1.
<mgrwt>
<rscale>  0 0.23030877E+04</rscale>
<asrwt>0</asrwt>
<pdfrwt beam="1">  1        2 0.26205612E+00 0.23030877E+04</pdfrwt>
<pdfrwt beam="2">  1       -2 0.11976776E+00 0.23030877E+04</pdfrwt>
<totfact> 0.47229099E+00</totfact>
</mgrwt>
</event>
<event>
12    1  0.1598876E-007  0.2369614E+04  0.7818608E-02  0.8450968E-01
         -1   -1    0    0    0  501 -0.00000000000E+00  0.00000000000E+00  0.16537480410E+04  0.16537480410E+04  0.00000000000E+00 0.  1.
          1   -1    0    0  501    0  0.00000000000E+00 -0.00000000000E+00 -0.84883990713E+03  0.84883990713E+03  0.00000000000E+00 0. -1.
         23    2    1    2    0    0 -0.92224707513E+03 -0.27482828954E+03 -0.10708513341E+02  0.96666590424E+03  0.90873768726E+02 0.  0.
        254    2    1    2    0    0  0.92224707513E+03  0.27482828954E+03  0.81561664719E+03  0.15359220439E+04  0.87621672737E+03 0.  0.
        -24    2    4    4    0    0  0.83123567642E+03 -0.92829655268E+02  0.78399669931E+03  0.11491710941E+04  0.79832851938E+02 0.  0.
         24    2    4    4    0    0  0.91011398713E+02  0.36765794481E+03  0.31619947874E+02  0.38675094980E+03  0.71561421091E+02 0.  0.
         11    1    3    3    0    0 -0.18353335379E+03 -0.62795528405E+02  0.33516824685E+02  0.19685311244E+03  0.00000000000E+00 0.  1.
        -11    1    3    3    0    0 -0.73871372135E+03 -0.21203276114E+03 -0.44225338026E+02  0.76981279180E+03  0.00000000000E+00 0. -1.
          4    1    6    6  502    0  0.19060376439E+02  0.13137471476E+03  0.42866553167E+02  0.13949965953E+03  0.00000000000E+00 0. -1.
          3    1    5    5  503    0  0.31295988349E+02 -0.12801786417E+02  0.16187352264E+02  0.37488064708E+02  0.00000000000E+00 0. -1.
         -4    1    5    5    0  503  0.79993968807E+03 -0.80027868851E+02  0.76780934705E+03  0.11116830294E+04  0.00000000000E+00 0.  1.
         -3    1    6    6    0  502  0.71951022275E+02  0.23628323005E+03 -0.11246605293E+02  0.24725129027E+03  0.00000000000E+00 0.  1.
<mgrwt>
<rscale>  0 0.23696138E+04</rscale>
<asrwt>0</asrwt>
<pdfrwt beam="1">  1        1 0.13059076E+00 0.23696138E+04</pdfrwt>
<pdfrwt beam="2">  1       -1 0.25442277E+00 0.23696138E+04</pdfrwt>
<totfact> 0.11764652E+00</totfact>
</mgrwt>
</event>
<event>
12    1  0.1598876E-007  0.2570093E+04  0.7818608E-02  0.8378431E-01
          1   -1    0    0  501    0  0.00000000000E+00  0.00000000000E+00  0.89618624478E+03  0.89618624478E+03  0.00000000000E+00 0. -1.
         -1   -1    0    0    0  501 -0.00000000000E+00 -0.00000000000E+00 -0.18426358241E+04  0.18426358241E+04  0.00000000000E+00 0.  1.
         23    2    1    2    0    0 -0.73511577391E+03  0.19463556335E+02  0.48269645014E+03  0.88427802966E+03  0.90430855893E+02 0.  0.
        254    2    1    2    0    0  0.73511577391E+03 -0.19463556335E+02 -0.14291460295E+04  0.18545440392E+04  0.92525736357E+03 0.  0.
        -24    2    4    4    0    0  0.78077792088E+02 -0.27230004750E+03 -0.96139152668E+03  0.10054526406E+04  0.80111718183E+02 0.  0.
         24    2    4    4    0    0  0.65703798182E+03  0.25283649116E+03 -0.46775450278E+03  0.84909139865E+03  0.80850031337E+02 0.  0.
         11    1    3    3    0    0 -0.68298467975E+03  0.35235782872E+02  0.42632014269E+03  0.80588987909E+03  0.00000000000E+00 0. -1.
        -11    1    3    3    0    0 -0.52131094163E+02 -0.15772226538E+02  0.56376307446E+02  0.78388150570E+02  0.00000000000E+00 0.  1.
          4    1    6    6  502    0  0.24851387488E+03  0.11260281682E+03 -0.22487358492E+03  0.35356282265E+03  0.00000000000E+00 0. -1.
          3    1    5    5  503    0  0.80345132392E+02 -0.20895050792E+03 -0.64420792240E+03  0.68199670259E+03  0.00000000000E+00 0. -1.
         -4    1    5    5    0  503 -0.22673403043E+01 -0.63349539576E+02 -0.31718360428E+03  0.32345593799E+03  0.00000000000E+00 0.  1.
         -3    1    6    6    0  502  0.40852410694E+03  0.14023367434E+03 -0.24288091786E+03  0.49552857600E+03  0.00000000000E+00 0.  1.
<mgrwt>
<rscale>  0 0.25700933E+04</rscale>
<asrwt>0</asrwt>
<pdfrwt beam="1">  1        1 0.13787481E+00 0.25700933E+04</pdfrwt>
<pdfrwt beam="2">  1       -1 0.28348243E+00 0.25700933E+04</pdfrwt>
<totfact> 0.68388695E-01</totfact>
</mgrwt>
</event>
<event>
12    1  0.1598876E-007  0.1594107E+04  0.7818608E-02  0.8824176E-01
         -1   -1    0    0    0  501 -0.00000000000E+00  0.00000000000E+00  0.19181878288E+04  0.19181878288E+04  0.00000000000E+00 0.  1.
          1   -1    0    0  501    0  0.00000000000E+00 -0.00000000000E+00 -0.33119519498E+03  0.33119519498E+03  0.00000000000E+00 0. -1.
         23    2    1    2    0    0  0.17250132120E+03  0.73747636034E+02 -0.16891439723E+03  0.26869338512E+03  0.92025224680E+02 0.  0.
        254    2    1    2    0    0 -0.17250132120E+03 -0.73747636034E+02  0.17559070310E+04  0.19806896386E+04  0.89706550671E+03 0.  0.
        -24    2    4    4    0    0 -0.25241875716E+03  0.26502935766E+03  0.29489544820E+03  0.47667386004E+03  0.79365320419E+02 0.  0.
         24    2    4    4    0    0  0.79917435958E+02 -0.33877699370E+03  0.14610115828E+04  0.15040157786E+04  0.79699241316E+02 0.  0.
         11    1    3    3    0    0  0.79751208859E+02  0.83034743887E+02 -0.83045574049E+02  0.14195630094E+03  0.00000000000E+00 0.  1.
        -11    1    3    3    0    0  0.92750112340E+02 -0.92871078535E+01 -0.85868823185E+02  0.12673708418E+03  0.00000000000E+00 0. -1.
          2    1    6    6  502    0  0.63454875885E+02 -0.24658622121E+03  0.90345762673E+03  0.93865167611E+03  0.00000000000E+00 0. -1.
          1    1    5    5  503    0 -0.19521864916E+03  0.17058634946E+03  0.24034522880E+03  0.35351923937E+03  0.00000000000E+00 0. -1.
         -2    1    5    5    0  503 -0.57200107993E+02  0.94443008207E+02  0.54550219402E+02  0.12315462066E+03  0.00000000000E+00 0.  1.
         -1    1    6    6    0  502  0.16462560074E+02 -0.92190772485E+02  0.55755395611E+03  0.56536410249E+03  0.00000000000E+00 0.  1.
<mgrwt>
<rscale>  0 0.15941074E+04</rscale>
<asrwt>0</asrwt>
<pdfrwt beam="1">  1        1 0.50953108E-01 0.15941074E+04</pdfrwt>
<pdfrwt beam="2">  1       -1 0.29510581E+00 0.15941074E+04</pdfrwt>
<totfact> 0.26316121E+00</totfact>
</mgrwt>
</event>
<event>
12    1  0.1598876E-007  0.3177097E+04  0.7818608E-02  0.8194892E-01
         -1   -1    0    0    0  501 -0.00000000000E+00  0.00000000000E+00  0.77743522308E+03  0.77743522308E+03  0.00000000000E+00 0.  1.
          1   -1    0    0  501    0  0.00000000000E+00 -0.00000000000E+00 -0.32459116414E+04  0.32459116414E+04  0.00000000000E+00 0. -1.
         23    2    1    2    0    0  0.40090565587E+02 -0.14307400069E+04 -0.14988491920E+04  0.20745705354E+04  0.93111682637E+02 0.  0.
        254    2    1    2    0    0 -0.40090565587E+02  0.14307400069E+04 -0.96962722634E+03  0.19487763290E+04  0.89940424826E+03 0.  0.
        -24    2    4    4    0    0 -0.28089991704E+03  0.62698843605E+03 -0.38038500458E+02  0.69282882603E+03  0.80904835023E+02 0.  0.
         24    2    4    4    0    0  0.24080935145E+03  0.80375157084E+03 -0.93158872588E+03  0.12559475030E+04  0.74436850730E+02 0.  0.
         13    1    3    3    0    0  0.88872343998E+01 -0.10567564895E+02 -0.13955136838E+02  0.19631663385E+02  0.00000000000E+00 0. -1.
        -13    1    3    3    0    0  0.31203331187E+02 -0.14201724420E+04 -0.14848940551E+04  0.20549388721E+04  0.00000000000E+00 0.  1.
          2    1    6    6  502    0  0.18562776979E+02  0.95091611775E+02 -0.14250461757E+03  0.17232108794E+03  0.00000000000E+00 0. -1.
          1    1    5    5  503    0 -0.27280895739E+02  0.11337065949E+03 -0.27984896761E+02  0.11991792256E+03  0.00000000000E+00 0. -1.
         -2    1    5    5    0  503 -0.25361902130E+03  0.51361777656E+03 -0.10053603697E+02  0.57291090347E+03  0.00000000000E+00 0.  1.
         -1    1    6    6    0  502  0.22224657447E+03  0.70865995907E+03 -0.78908410831E+03  0.10836264151E+04  0.00000000000E+00 0.  1.
<mgrwt>
<rscale>  0 0.31770968E+04</rscale>
<asrwt>0</asrwt>
<pdfrwt beam="1">  1        1 0.49937103E+00 0.31770968E+04</pdfrwt>
<pdfrwt beam="2">  1       -1 0.11960542E+00 0.31770968E+04</pdfrwt>
<totfact> 0.20515455E-01</totfact>
</mgrwt>
</event>
<event>
12    1  0.1598876E-007  0.2109693E+04  0.7818608E-02  0.8556986E-01
         -2   -1    0    0    0  501 -0.00000000000E+00  0.00000000000E+00  0.58866856589E+03  0.58866856589E+03  0.00000000000E+00 0.  1.
          2   -1    0    0  501    0  0.00000000000E+00 -0.00000000000E+00 -0.18901989535E+04  0.18901989535E+04  0.00000000000E+00 0. -1.
         23    2    1    2    0    0  0.28998541446E+03 -0.77740527791E+03 -0.27570930221E+03  0.87935871821E+03  0.93838314285E+02 0.  0.
        254    2    1    2    0    0 -0.28998541446E+03  0.77740527791E+03 -0.10258210854E+04  0.15995088012E+04  0.90425051790E+03 0.  0.
        -24    2    4    4    0    0 -0.50260157300E+03  0.84727032762E+03 -0.77711669819E+03  0.12573085940E+04  0.80244555064E+02 0.  0.
         24    2    4    4    0    0  0.21261615854E+03 -0.69865049707E+02 -0.24870438723E+03  0.34220020724E+03  0.71835600944E+02 0.  0.
         11    1    3    3    0    0  0.15674806270E+02 -0.38111324272E+02  0.67377375937E+01  0.41756073777E+02  0.00000000000E+00 0. -1.
        -11    1    3    3    0    0  0.27431060819E+03 -0.73929395364E+03 -0.28244703981E+03  0.83760264443E+03  0.00000000000E+00 0.  1.
          2    1    6    6  502    0  0.13531249357E+03 -0.12734743432E+02 -0.17204618446E+03  0.21925221594E+03  0.00000000000E+00 0. -1.
          3    1    5    5  503    0 -0.45068142361E+03  0.71101098572E+03 -0.67946265806E+03  0.10818132330E+04  0.00000000000E+00 0. -1.
         -2    1    5    5    0  503 -0.51920149395E+02  0.13625934190E+03 -0.97654040131E+02  0.17549536097E+03  0.00000000000E+00 0.  1.
         -1    1    6    6    0  502  0.77303664964E+02 -0.57130306275E+02 -0.76658202774E+02  0.12294799130E+03  0.00000000000E+00 0.  1.
<mgrwt>
<rscale>  0 0.21096926E+04</rscale>
<asrwt>0</asrwt>
<pdfrwt beam="1">  1        2 0.29079984E+00 0.21096926E+04</pdfrwt>
<pdfrwt beam="2">  1       -2 0.90564395E-01 0.21096926E+04</pdfrwt>
<totfact> 0.73748417E+00</totfact>
</mgrwt>
</event>
<event>
12    1  0.1598876E-007  0.2840277E+04  0.7818608E-02  0.8290872E-01
          2   -1    0    0  501    0  0.00000000000E+00  0.00000000000E+00  0.32613509143E+04  0.32613509143E+04  0.00000000000E+00 0. -1.
         -2   -1    0    0    0  501 -0.00000000000E+00 -0.00000000000E+00 -0.61839180513E+03  0.61839180513E+03  0.00000000000E+00 0.  1.
         23    2    1    2    0    0  0.95428950503E+03 -0.59731178355E+03  0.19960335429E+04  0.22934997397E+04  0.92419290963E+02 0.  0.
        254    2    1    2    0    0 -0.95428950503E+03  0.59731178355E+03  0.64692556629E+03  0.15862429798E+04  0.91115546227E+03 0.  0.
        -24    2    4    4    0    0 -0.14323341096E+03  0.36379901076E+02 -0.21495954202E+03  0.27412802970E+03  0.84257134701E+02 0.  0.
         24    2    4    4    0    0 -0.81105609407E+03  0.56093188247E+03  0.86188510831E+03  0.13121149501E+04  0.79643818383E+02 0.  0.
         11    1    3    3    0    0  0.41007890099E+03 -0.21966138261E+03  0.75719517108E+03  0.88868462075E+03  0.00000000000E+00 0.  1.
        -11    1    3    3    0    0  0.54421060404E+03 -0.37765040094E+03  0.12388383718E+04  0.14048151189E+04  0.00000000000E+00 0. -1.
          4    1    6    6  502    0 -0.50472020388E+03  0.32343919013E+03  0.56636403122E+03  0.82469607115E+03  0.00000000000E+00 0. -1.
          3    1    5    5  503    0 -0.32794606747E+02  0.48385600040E+02 -0.63656923013E+02  0.86422545498E+02  0.00000000000E+00 0. -1.
         -4    1    5    5    0  503 -0.11043880421E+03 -0.12005698964E+02 -0.15130261900E+03  0.18770548421E+03  0.00000000000E+00 0.  1.
         -3    1    6    6    0  502 -0.30633589019E+03  0.23749269234E+03  0.29552107709E+03  0.48741887893E+03  0.00000000000E+00 0.  1.
<mgrwt>
<rscale>  0 0.28402765E+04</rscale>
<asrwt>0</asrwt>
<pdfrwt beam="1">  1        2 0.50174628E+00 0.28402765E+04</pdfrwt>
<pdfrwt beam="2">  1       -2 0.95137203E-01 0.28402765E+04</pdfrwt>
<totfact> 0.95159297E-01</totfact>
</mgrwt>
</event>
<event>
12    1  0.1598876E-007  0.2218385E+04  0.7818608E-02  0.8510815E-01
          2   -1    0    0  501    0  0.00000000000E+00  0.00000000000E+00  0.15833825446E+04  0.15833825446E+04  0.00000000000E+00 0. -1.
         -2   -1    0    0    0  501 -0.00000000000E+00 -0.00000000000E+00 -0.77701222437E+03  0.77701222437E+03  0.00000000000E+00 0.  1.
         23    2    1    2    0    0 -0.23456461139E+03  0.63348886899E+03 -0.34367983386E+03  0.76340236707E+03  0.91316163921E+02 0.  0.
        254    2    1    2    0    0  0.23456461139E+03 -0.63348886899E+03  0.11500501541E+04  0.15969924019E+04  0.87831695348E+03 0.  0.
        -24    2    4    4    0    0  0.12799209779E+03 -0.99743098349E+02  0.10147269242E+04  0.10306341536E+04  0.78774139863E+02 0.  0.
         24    2    4    4    0    0  0.10657251359E+03 -0.53374577064E+03  0.13532322989E+03  0.56635824830E+03  0.78784773497E+02 0.  0.
         13    1    3    3    0    0 -0.22364026624E+03  0.56138608382E+03 -0.27765141672E+03  0.66502602430E+03  0.00000000000E+00 0.  1.
        -13    1    3    3    0    0 -0.10924345147E+02  0.72102785169E+02 -0.66028417141E+02  0.98376342767E+02  0.00000000000E+00 0. -1.
          4    1    6    6  502    0  0.46687880066E+02 -0.33749295920E+03  0.11750173465E+03  0.36039965774E+03  0.00000000000E+00 0. -1.
          3    1    5    5  503    0  0.27418987240E+02 -0.69912838238E+02  0.39088293755E+03  0.39803150212E+03  0.00000000000E+00 0. -1.
         -4    1    5    5    0  503  0.10057311055E+03 -0.29830260110E+02  0.62384398669E+03  0.63260265152E+03  0.00000000000E+00 0.  1.
         -3    1    6    6    0  502  0.59884633526E+02 -0.19625281144E+03  0.17821495245E+02  0.20595859055E+03  0.00000000000E+00 0.  1.
<mgrwt>
<rscale>  0 0.22183846E+04</rscale>
<asrwt>0</asrwt>
<pdfrwt beam="1">  1        2 0.24359731E+00 0.22183846E+04</pdfrwt>
<pdfrwt beam="2">  1       -2 0.11954034E+00 0.22183846E+04</pdfrwt>
<totfact> 0.55753940E+00</totfact>
</mgrwt>
</event>
<event>
12    1  0.1598876E-007  0.1540052E+04  0.7818608E-02  0.8858247E-01
         -3   -1    0    0    0  501 -0.00000000000E+00  0.00000000000E+00  0.41179507851E+03  0.41179507851E+03  0.00000000000E+00 0.  1.
          3   -1    0    0  501    0  0.00000000000E+00 -0.00000000000E+00 -0.14398907369E+04  0.14398907369E+04  0.00000000000E+00 0. -1.
         23    2    1    2    0    0 -0.68804377354E+02 -0.48724616642E+03 -0.45089383908E+03  0.67380310884E+03  0.92533811785E+02 0.  0.
        254    2    1    2    0    0  0.68804377354E+02  0.48724616642E+03 -0.57720181934E+03  0.11778827066E+04  0.90116749897E+03 0.  0.
        -24    2    4    4    0    0 -0.19764770278E+03  0.47103567672E+02 -0.61742248672E+03  0.65561518124E+03  0.85658497894E+02 0.  0.
         24    2    4    4    0    0  0.26645208013E+03  0.44014259875E+03  0.40220667383E+02  0.52226752535E+03  0.80146414191E+02 0.  0.
         11    1    3    3    0    0 -0.84699558757E+02 -0.31130231558E+03 -0.31527792322E+03  0.45109124998E+03  0.00000000000E+00 0. -1.
        -11    1    3    3    0    0  0.15895181404E+02 -0.17594385085E+03 -0.13561591586E+03  0.22271185886E+03  0.00000000000E+00 0.  1.
          4    1    6    6  502    0  0.20556677671E+03  0.38682434374E+03  0.49343790373E+02  0.44082375417E+03  0.00000000000E+00 0. -1.
          1    1    5    5  503    0 -0.91608128964E+02  0.26277628789E+02 -0.41870944211E+03  0.42941839735E+03  0.00000000000E+00 0. -1.
         -2    1    5    5    0  503 -0.10603957381E+03  0.20825938883E+02 -0.19871304461E+03  0.22619678389E+03  0.00000000000E+00 0.  1.
         -3    1    6    6    0  502  0.60885303420E+02  0.53318255015E+02 -0.91231229894E+01  0.81443771176E+02  0.00000000000E+00 0.  1.
<mgrwt>
<rscale>  0 0.15400518E+04</rscale>
<asrwt>0</asrwt>
<pdfrwt beam="1">  1        3 0.22152165E+00 0.15400518E+04</pdfrwt>
<pdfrwt beam="2">  1       -3 0.63353088E-01 0.15400518E+04</pdfrwt>
<totfact> 0.66329364E-01</totfact>
</mgrwt>
</event>
<event>
12    1  0.1598876E-007  0.3051880E+04  0.7818608E-02  0.8229070E-01
          1   -1    0    0  501    0  0.00000000000E+00  0.00000000000E+00  0.16227442381E+04  0.16227442381E+04  0.00000000000E+00 0. -1.
         -1   -1    0    0    0  501 -0.00000000000E+00 -0.00000000000E+00 -0.14349102538E+04  0.14349102538E+04  0.00000000000E+00 0.  1.
         23    2    1    2    0    0  0.21477721937E+03 -0.54346715525E+02  0.14680540306E+04  0.14872051791E+04  0.86682112385E+02 0.  0.
        254    2    1    2    0    0 -0.21477721937E+03  0.54346715525E+02 -0.12802200463E+04  0.15704493128E+04  0.88219320889E+03 0.  0.
        -24    2    4    4    0    0 -0.52909860986E+03 -0.11051247283E+03 -0.78532938443E+03  0.95652374259E+03  0.77698664639E+02 0.  0.
         24    2    4    4    0    0  0.31432139048E+03  0.16485918835E+03 -0.49489066186E+03  0.61392557024E+03  0.77532896900E+02 0.  0.
         13    1    3    3    0    0  0.10393239859E+03  0.15902413171E+02  0.73767639764E+03  0.74513173188E+03  0.00000000000E+00 0. -1.
        -13    1    3    3    0    0  0.11084482078E+03 -0.70249128696E+02  0.73037763296E+03  0.74207344725E+03  0.00000000000E+00 0.  1.
          4    1    6    6  502    0  0.26351009183E+02 -0.71020684147E+01 -0.47305398991E+02  0.54613330190E+02  0.00000000000E+00 0. -1.
          3    1    5    5  503    0 -0.21480211023E+02 -0.73147525644E+01 -0.68204261689E+02  0.71879944235E+02  0.00000000000E+00 0. -1.
         -4    1    5    5    0  503 -0.50761839883E+03 -0.10319772026E+03 -0.71712512274E+03  0.88464379835E+03  0.00000000000E+00 0.  1.
         -3    1    6    6    0  502  0.28797038130E+03  0.17196125677E+03 -0.44758526287E+03  0.55931224005E+03  0.00000000000E+00 0.  1.
<mgrwt>
<rscale>  0 0.30518796E+04</rscale>
<asrwt>0</asrwt>
<pdfrwt beam="1">  1        1 0.24965296E+00 0.30518796E+04</pdfrwt>
<pdfrwt beam="2">  1       -1 0.22075542E+00 0.30518796E+04</pdfrwt>
<totfact> 0.49614812E-01</totfact>
</mgrwt>
</event>
<event>
12    1  0.1598876E-007  0.1450875E+04  0.7818608E-02  0.8917794E-01
         -2   -1    0    0    0  501 -0.00000000000E+00  0.00000000000E+00  0.14376456016E+03  0.14376456016E+03  0.00000000000E+00 0.  1.
          2   -1    0    0  501    0  0.00000000000E+00 -0.00000000000E+00 -0.36605676392E+04  0.36605676392E+04  0.00000000000E+00 0. -1.
         23    2    1    2    0    0  0.33610185908E+03  0.23705043244E+03 -0.12662444518E+04  0.13348422781E+04  0.96288776746E+02 0.  0.
        254    2    1    2    0    0 -0.33610185908E+03 -0.23705043244E+03 -0.22505586273E+04  0.24694899213E+04  0.92962840389E+03 0.  0.
        -24    2    4    4    0    0 -0.30026008562E+03 -0.24348647671E+03 -0.25005552083E+03  0.46707698846E+03  0.78685235524E+02 0.  0.
         24    2    4    4    0    0 -0.35841773453E+02  0.64360442674E+01 -0.20005031064E+04  0.20024129328E+04  0.79491001172E+02 0.  0.
         11    1    3    3    0    0  0.34069008160E+03  0.23730664623E+03 -0.12272872206E+04  0.12956149497E+04  0.00000000000E+00 0. -1.
        -11    1    3    3    0    0 -0.45882225188E+01 -0.25621379011E+00 -0.38957231222E+02  0.39227328432E+02  0.00000000000E+00 0.  1.
          4    1    6    6  502    0 -0.50903844685E+02  0.29062932876E+02 -0.15330741795E+04  0.15341943473E+04  0.00000000000E+00 0. -1.
          1    1    5    5  503    0 -0.15171400529E+03 -0.15276287525E+03 -0.17531606515E+03  0.27764970405E+03  0.00000000000E+00 0. -1.
         -2    1    5    5    0  503 -0.14854608034E+03 -0.90723601457E+02 -0.74739455677E+02  0.18942728441E+03  0.00000000000E+00 0.  1.
         -3    1    6    6    0  502  0.15062071232E+02 -0.22626888609E+02 -0.46742892692E+03  0.46821858549E+03  0.00000000000E+00 0.  1.
<mgrwt>
<rscale>  0 0.14508755E+04</rscale>
<asrwt>0</asrwt>
<pdfrwt beam="1">  1        2 0.56316420E+00 0.14508755E+04</pdfrwt>
<pdfrwt beam="2">  1       -2 0.22117627E-01 0.14508755E+04</pdfrwt>
<totfact> 0.11024962E+01</totfact>
</mgrwt>
</event>
<event>
12    1  0.1598876E-007  0.5535266E+04  0.7818608E-02  0.7750855E-01
         -2   -1    0    0    0  501 -0.00000000000E+00  0.00000000000E+00  0.14733115112E+04  0.14733115112E+04  0.00000000000E+00 0.  1.
          2   -1    0    0  501    0  0.00000000000E+00 -0.00000000000E+00 -0.51990311608E+04  0.51990311608E+04  0.00000000000E+00 0. -1.
         23    2    1    2    0    0  0.86777308740E+03  0.16416200250E+03  0.12541369949E+04  0.15364251946E+04  0.88110625872E+02 0.  0.
        254    2    1    2    0    0 -0.86777308740E+03 -0.16416200250E+03 -0.49798566445E+04  0.51359174774E+04  0.89369840608E+03 0.  0.
        -24    2    4    4    0    0 -0.38724164405E+03 -0.46104215343E+03 -0.34530442257E+04  0.35060414528E+04  0.79349136916E+02 0.  0.
         24    2    4    4    0    0 -0.48053144335E+03  0.29688015094E+03 -0.15268124188E+04  0.16298760247E+04  0.79318356227E+02 0.  0.
         11    1    3    3    0    0  0.28429720856E+02 -0.10015464502E+02  0.37207874451E+02  0.47885117503E+02  0.00000000000E+00 0. -1.
        -11    1    3    3    0    0  0.83934336654E+03  0.17417746700E+03  0.12169291204E+04  0.14885400771E+04  0.00000000000E+00 0.  1.
          2    1    6    6  502    0 -0.49726228388E+02  0.60531870925E+02 -0.18403584346E+03  0.20001499160E+03  0.00000000000E+00 0. -1.
          3    1    5    5  503    0 -0.18474750836E+03 -0.28063231424E+03 -0.19438116009E+04  0.19726352114E+04  0.00000000000E+00 0. -1.
         -4    1    5    5    0  503 -0.20249413569E+03 -0.18040983919E+03 -0.15092326248E+04  0.15334062413E+04  0.00000000000E+00 0.  1.
         -1    1    6    6    0  502 -0.43080521496E+03  0.23634828001E+03 -0.13427765753E+04  0.14298610331E+04  0.00000000000E+00 0.  1.
<mgrwt>
<rscale>  0 0.55352660E+04</rscale>
<asrwt>0</asrwt>
<pdfrwt beam="1">  1        2 0.79985094E+00 0.55352660E+04</pdfrwt>
<pdfrwt beam="2">  1       -2 0.22666331E+00 0.55352660E+04</pdfrwt>
<totfact> 0.11300557E-03</totfact>
</mgrwt>
</event>
<event>
12    1  0.1598876E-007  0.1159734E+04  0.7818608E-02  0.9148850E-01
          2   -1    0    0  501    0  0.00000000000E+00  0.00000000000E+00  0.14999037031E+04  0.14999037031E+04  0.00000000000E+00 0.  1.
         -2   -1    0    0    0  501 -0.00000000000E+00 -0.00000000000E+00 -0.22417822984E+03  0.22417822984E+03  0.00000000000E+00 0. -1.
         23    2    1    2    0    0  0.58892758457E+01  0.69923199691E+02 -0.33674143786E+02  0.12091052188E+03  0.92528206054E+02 0.  0.
        254    2    1    2    0    0 -0.58892758457E+01 -0.69923199691E+02  0.13093996170E+04  0.16031714110E+04  0.92233794170E+03 0.  0.
        -24    2    4    4    0    0  0.31818233451E+03 -0.23330476555E+03  0.23694945000E+03  0.46818077037E+03  0.85889931069E+02 0.  0.
         24    2    4    4    0    0 -0.32407161036E+03  0.16338156586E+03  0.10724501670E+04  0.11349906407E+04  0.79614376686E+02 0.  0.
         13    1    3    3    0    0 -0.14388647203E+02  0.35091262457E+02 -0.61273763257E+02  0.72061806339E+02  0.00000000000E+00 0. -1.
        -13    1    3    3    0    0  0.20277923049E+02  0.34831937234E+02  0.27599619471E+02  0.48848715537E+02  0.00000000000E+00 0.  1.
          4    1    6    6  502    0 -0.30913062886E+03  0.13075164937E+03  0.97257556139E+03  0.10288639182E+04  0.00000000000E+00 0. -1.
          3    1    5    5  503    0  0.25822014947E+03 -0.19498747514E+03  0.15237766835E+03  0.35765446294E+03  0.00000000000E+00 0. -1.
         -4    1    5    5    0  503  0.59962185046E+02 -0.38317290408E+02  0.84571781657E+02  0.11052630742E+03  0.00000000000E+00 0.  1.
         -3    1    6    6    0  502 -0.14940981496E+02  0.32629916494E+02  0.99874605629E+02  0.10612672250E+03  0.00000000000E+00 0.  1.
<mgrwt>
<rscale>  0 0.11597340E+04</rscale>
<asrwt>0</asrwt>
<pdfrwt beam="1">  1        2 0.23075441E+00 0.11597340E+04</pdfrwt>
<pdfrwt beam="2">  1       -2 0.34488959E-01 0.11597340E+04</pdfrwt>
<totfact> 0.98895603E+01</totfact>
</mgrwt>
</event>
<event>
12    1  0.2310698E-007  0.2074377E+04  0.7818608E-02  0.8572615E-01
         -1   -1    0    0    0  501 -0.00000000000E+00  0.00000000000E+00  0.88613094907E+03  0.88613094907E+03  0.00000000000E+00 0.  1.
          1   -1    0    0  501    0  0.00000000000E+00 -0.00000000000E+00 -0.12139970150E+04  0.12139970150E+04  0.00000000000E+00 0. -1.
         23    2    1    2    0    0 -0.50422181701E+03 -0.43866160227E+03  0.38215369227E+03  0.77597966421E+03  0.97156331225E+02 0.  0.
        254    2    1    2    0    0  0.50422181701E+03  0.43866160227E+03 -0.71001975823E+03  0.13241482999E+04  0.89586663126E+03 0.  0.
        -24    2    4    4    0    0  0.36432287718E+03  0.14254321860E+03  0.13007197422E+03  0.41928361797E+03  0.76356439260E+02 0.  0.
         24    2    4    4    0    0  0.13989893982E+03  0.29611838367E+03 -0.84009173245E+03  0.90486468193E+03  0.75948424304E+02 0.  0.
         13    1    3    3    0    0 -0.45750724121E+03 -0.42943792412E+03  0.34957012757E+03  0.71828203411E+03  0.00000000000E+00 0.  1.
        -13    1    3    3    0    0 -0.46714575794E+02 -0.92236781460E+01  0.32583564705E+02  0.57697630099E+02  0.00000000000E+00 0. -1.
          4    1    6    6  502    0  0.66486873044E+01  0.48698243386E+02 -0.73798444789E+02  0.88667549899E+02  0.00000000000E+00 0. -1.
          3    1    5    5  503    0  0.66019572640E+01 -0.77172324096E+01  0.66045995418E+01  0.12114547077E+02  0.00000000000E+00 0. -1.
         -4    1    5    5    0  503  0.35772091992E+03  0.15026045101E+03  0.12346737468E+03  0.40716907090E+03  0.00000000000E+00 0.  1.
         -3    1    6    6    0  502  0.13325025252E+03  0.24742014028E+03 -0.76629328766E+03  0.81619713203E+03  0.00000000000E+00 0.  1.
<mgrwt>
<rscale>  0 0.20743773E+04</rscale>
<asrwt>0</asrwt>
<pdfrwt beam="1">  1        1 0.18676877E+00 0.20743773E+04</pdfrwt>
<pdfrwt beam="2">  1       -1 0.13632784E+00 0.20743773E+04</pdfrwt>
<totfact> 0.43214935E+00</totfact>
</mgrwt>
</event>
<event>
12    1  0.1598876E-007  0.2500703E+04  0.7818608E-02  0.8402735E-01
         -1   -1    0    0    0  501 -0.00000000000E+00  0.00000000000E+00  0.46843924824E+03  0.46843924824E+03  0.00000000000E+00 0.  1.
          1   -1    0    0  501    0  0.00000000000E+00 -0.00000000000E+00 -0.33374201748E+04  0.33374201748E+04  0.00000000000E+00 0. -1.
         23    2    1    2    0    0 -0.10002192859E+04  0.19586153935E+03 -0.17653179757E+04  0.20404456334E+04  0.90942097717E+02 0.  0.
        254    2    1    2    0    0  0.10002192859E+04 -0.19586153935E+03 -0.11036629508E+04  0.17654137896E+04  0.92726133160E+03 0.  0.
        -24    2    4    4    0    0  0.77643228794E+03 -0.23515031195E+03 -0.21262438091E+03  0.84244028228E+03  0.79710318475E+02 0.  0.
         24    2    4    4    0    0  0.22378699792E+03  0.39288772597E+02 -0.89103856989E+03  0.92297350731E+03  0.79411170950E+02 0.  0.
         13    1    3    3    0    0 -0.25405945626E+03  0.82651686566E+02 -0.50959468337E+03  0.57538182968E+03  0.00000000000E+00 0.  1.
        -13    1    3    3    0    0 -0.74615982960E+03  0.11320985279E+03 -0.12557232924E+04  0.14650638038E+04  0.00000000000E+00 0. -1.
          2    1    6    6  502    0  0.19981601438E+03  0.49707276620E+02 -0.68482614575E+03  0.71511125209E+03  0.00000000000E+00 0. -1.
          1    1    5    5  503    0  0.47616460438E+03 -0.13492988837E+03 -0.90340465872E+02  0.50309065288E+03  0.00000000000E+00 0. -1.
         -2    1    5    5    0  503  0.30026768357E+03 -0.10022042358E+03 -0.12228391503E+03  0.33934962940E+03  0.00000000000E+00 0.  1.
         -1    1    6    6    0  502  0.23970983537E+02 -0.10418504023E+02 -0.20621242414E+03  0.20786225523E+03  0.00000000000E+00 0.  1.
<mgrwt>
<rscale>  0 0.25007028E+04</rscale>
<asrwt>0</asrwt>
<pdfrwt beam="1">  1        1 0.51344925E+00 0.25007028E+04</pdfrwt>
<pdfrwt beam="2">  1       -1 0.72067577E-01 0.25007028E+04</pdfrwt>
<totfact> 0.57738212E-01</totfact>
</mgrwt>
</event>
<event>
12    1  0.1598876E-007  0.1589240E+04  0.7818608E-02  0.8827186E-01
         -1   -1    0    0    0  501 -0.00000000000E+00  0.00000000000E+00  0.89376222169E+03  0.89376222169E+03  0.00000000000E+00 0.  1.
          1   -1    0    0  501    0  0.00000000000E+00 -0.00000000000E+00 -0.70647535191E+03  0.70647535191E+03  0.00000000000E+00 0. -1.
         23    2    1    2    0    0 -0.23974671811E+03  0.35054849243E+03  0.33845215586E+03  0.55372438296E+03  0.10815773708E+03 0.  0.
        254    2    1    2    0    0  0.23974671811E+03 -0.35054849243E+03 -0.15116528609E+03  0.10465131906E+04  0.94444490578E+03 0.  0.
        -24    2    4    4    0    0  0.56988897229E+03 -0.90773226863E+02  0.26105528134E+02  0.58311255162E+03  0.79533199404E+02 0.  0.
         24    2    4    4    0    0 -0.33014225418E+03 -0.25977526557E+03 -0.17727081422E+03  0.46340063901E+03  0.82692890072E+02 0.  0.
         11    1    3    3    0    0 -0.30015827516E+02  0.52081967097E+00  0.27269446152E+02  0.40556674519E+02  0.00000000000E+00 0. -1.
        -11    1    3    3    0    0 -0.20973089059E+03  0.35002767276E+03  0.31118270971E+03  0.51316770845E+03  0.00000000000E+00 0.  1.
          2    1    6    6  502    0 -0.17154222540E+03 -0.18367504752E+03 -0.89287974884E+02  0.26671258057E+03  0.00000000000E+00 0. -1.
          1    1    5    5  503    0  0.49453768576E+03 -0.88908881351E+02  0.47647397919E+02  0.50472030507E+03  0.00000000000E+00 0. -1.
         -2    1    5    5    0  503  0.75351286531E+02 -0.18643455113E+01 -0.21541869785E+02  0.78392246554E+02  0.00000000000E+00 0.  1.
         -3    1    6    6    0  502 -0.15860002878E+03 -0.76100218048E+02 -0.87982839336E+02  0.19668805844E+03  0.00000000000E+00 0.  1.
<mgrwt>
<rscale>  0 0.15892400E+04</rscale>
<asrwt>0</asrwt>
<pdfrwt beam="1">  1        1 0.10868852E+00 0.15892400E+04</pdfrwt>
<pdfrwt beam="2">  1       -1 0.13750188E+00 0.15892400E+04</pdfrwt>
<totfact> 0.11336182E+01</totfact>
</mgrwt>
</event>
<event>
12    1  0.1598876E-007  0.2834152E+04  0.7818608E-02  0.8292743E-01
          1   -1    0    0  501    0  0.00000000000E+00  0.00000000000E+00  0.27948730573E+04  0.27948730573E+04  0.00000000000E+00 0. -1.
         -1   -1    0    0    0  501 -0.00000000000E+00 -0.00000000000E+00 -0.71849594518E+03  0.71849594518E+03  0.00000000000E+00 0.  1.
         23    2    1    2    0    0  0.99343701950E+03  0.85799725249E+02  0.19152320728E+04  0.21614985174E+04  0.98403473148E+02 0.  0.
        254    2    1    2    0    0 -0.99343701950E+03 -0.85799725249E+02  0.16114503924E+03  0.13518704850E+04  0.89850285472E+03 0.  0.
        -24    2    4    4    0    0 -0.67876202036E+03  0.34112200577E+03  0.25985874742E+03  0.80685873999E+03  0.80077178897E+02 0.  0.
         24    2    4    4    0    0 -0.31467499914E+03 -0.42692173102E+03 -0.98713708180E+02  0.54501174500E+03  0.77529907117E+02 0.  0.
         11    1    3    3    0    0  0.71426227756E+03  0.91271514732E+02  0.14487548450E+04  0.16178354958E+04  0.00000000000E+00 0. -1.
        -11    1    3    3    0    0  0.27917474195E+03 -0.54717894827E+01  0.46647722783E+03  0.54366302165E+03  0.00000000000E+00 0.  1.
          2    1    6    6  502    0 -0.13440771451E+03 -0.12123875150E+03 -0.28113915324E+02  0.18317931330E+03  0.00000000000E+00 0. -1.
          1    1    5    5  503    0 -0.30584793500E+03  0.10961501111E+03  0.10647352071E+03  0.34189913808E+03  0.00000000000E+00 0. -1.
         -4    1    5    5    0  503 -0.37291408536E+03  0.23150699467E+03  0.15338522671E+03  0.46495960192E+03  0.00000000000E+00 0.  1.
         -1    1    6    6    0  502 -0.18026728463E+03 -0.30568297952E+03 -0.70599792856E+02  0.36183243170E+03  0.00000000000E+00 0.  1.
<mgrwt>
<rscale>  0 0.28341524E+04</rscale>
<asrwt>0</asrwt>
<pdfrwt beam="1">  1        1 0.42998047E+00 0.28341524E+04</pdfrwt>
<pdfrwt beam="2">  1       -1 0.11053784E+00 0.28341524E+04</pdfrwt>
<totfact> 0.54698067E-01</totfact>
</mgrwt>
</event>
<event>
12    1  0.1598876E-007  0.2481007E+04  0.7818608E-02  0.8409783E-01
          1   -1    0    0  501    0  0.00000000000E+00  0.00000000000E+00  0.61040571862E+03  0.61040571862E+03  0.00000000000E+00 0. -1.
         -1   -1    0    0    0  501 -0.00000000000E+00 -0.00000000000E+00 -0.25210270160E+04  0.25210270160E+04  0.00000000000E+00 0.  1.
         23    2    1    2    0    0 -0.50830785842E+03 -0.92482698680E+03 -0.10976682059E+04  0.15254382910E+04  0.91676904427E+02 0.  0.
        254    2    1    2    0    0  0.50830785842E+03  0.92482698680E+03 -0.81295309147E+03  0.16059944437E+04  0.89701928054E+03 0.  0.
        -24    2    4    4    0    0  0.32477378529E+03  0.30694383797E+03  0.11898202862E+03  0.46945101855E+03  0.80839374103E+02 0.  0.
         24    2    4    4    0    0  0.18353407314E+03  0.61788314884E+03 -0.93193512009E+03  0.11365434251E+04  0.88110995187E+02 0.  0.
         13    1    3    3    0    0 -0.43258111062E+03 -0.77489937889E+03 -0.96796603938E+03  0.13132226460E+04  0.00000000000E+00 0. -1.
        -13    1    3    3    0    0 -0.75726747799E+02 -0.14992760792E+03 -0.12970216653E+03  0.21221564492E+03  0.00000000000E+00 0.  1.
          2    1    6    6  502    0  0.15551608429E+03  0.51446853335E+03 -0.71381942863E+03  0.89353304414E+03  0.00000000000E+00 0. -1.
          1    1    5    5  503    0  0.32508128119E+03  0.30158674287E+03  0.12565125275E+03  0.46089113701E+03  0.00000000000E+00 0. -1.
         -2    1    5    5    0  503 -0.30749590108E+00  0.53570950961E+01 -0.66692241237E+01  0.85598815418E+01  0.00000000000E+00 0.  1.
         -1    1    6    6    0  502  0.28017988841E+02  0.10341461549E+03 -0.21811569146E+03  0.24301038096E+03  0.00000000000E+00 0.  1.
<mgrwt>
<rscale>  0 0.24810073E+04</rscale>
<asrwt>0</asrwt>
<pdfrwt beam="1">  1        1 0.93908573E-01 0.24810073E+04</pdfrwt>
<pdfrwt beam="2">  1       -1 0.38785031E+00 0.24810073E+04</pdfrwt>
<totfact> 0.25736122E-01</totfact>
</mgrwt>
</event>
<event>
12    1  0.1598876E-007  0.1364997E+04  0.7818608E-02  0.8979553E-01
          1   -1    0    0  501    0  0.00000000000E+00  0.00000000000E+00  0.12808333807E+04  0.12808333807E+04  0.00000000000E+00 0. -1.
         -1   -1    0    0    0  501 -0.00000000000E+00 -0.00000000000E+00 -0.36367267817E+03  0.36367267817E+03  0.00000000000E+00 0.  1.
         23    2    1    2    0    0  0.23733038612E+03 -0.19112606364E+03  0.51851239759E+03  0.60819832653E+03  0.90527418848E+02 0.  0.
        254    2    1    2    0    0 -0.23733038612E+03  0.19112606364E+03  0.39864830495E+03  0.10363077323E+04  0.90672948596E+03 0.  0.
        -24    2    4    4    0    0 -0.21124993549E+02  0.46171485921E+02  0.65535809124E+03  0.66215770636E+03  0.79878212772E+02 0.  0.
         24    2    4    4    0    0 -0.21620539257E+03  0.14495457772E+03 -0.25670978630E+03  0.37415002599E+03  0.79572144545E+02 0.  0.
         13    1    3    3    0    0  0.16614713812E+03 -0.14284468366E+03  0.44090902380E+03  0.49235174664E+03  0.00000000000E+00 0. -1.
        -13    1    3    3    0    0  0.71183247993E+02 -0.48281379977E+02  0.77603373790E+02  0.11584657988E+03  0.00000000000E+00 0.  1.
          4    1    6    6  502    0 -0.44855877307E+02  0.43974890000E+02 -0.22123552046E+02  0.66597989719E+02  0.00000000000E+00 0. -1.
          3    1    5    5  503    0  0.19021366452E+02  0.13948591759E+02  0.58392927714E+02  0.62977056146E+02  0.00000000000E+00 0. -1.
         -4    1    5    5    0  503 -0.40146360001E+02  0.32222894163E+02  0.59696516353E+03  0.59918065022E+03  0.00000000000E+00 0.  1.
         -3    1    6    6    0  502 -0.17134951526E+03  0.10097968772E+03 -0.23458623425E+03  0.30755203627E+03  0.00000000000E+00 0.  1.
<mgrwt>
<rscale>  0 0.13649969E+04</rscale>
<asrwt>0</asrwt>
<pdfrwt beam="1">  1        1 0.19705129E+00 0.13649969E+04</pdfrwt>
<pdfrwt beam="2">  1       -1 0.55949643E-01 0.13649969E+04</pdfrwt>
<totfact> 0.29495620E+01</totfact>
</mgrwt>
</event>
<event>
12    1  0.1598876E-007  0.1437286E+04  0.7818608E-02  0.8927262E-01
         -2   -1    0    0    0  501 -0.00000000000E+00  0.00000000000E+00  0.17194273727E+04  0.17194273727E+04  0.00000000000E+00 0. -1.
          2   -1    0    0  501    0  0.00000000000E+00 -0.00000000000E+00 -0.30036040616E+03  0.30036040616E+03  0.00000000000E+00 0.  1.
         23    2    1    2    0    0  0.14826460224E+02 -0.24323207310E+03 -0.59451341486E+02  0.26713694783E+03  0.91902239283E+02 0.  0.
        254    2    1    2    0    0 -0.14826460224E+02  0.24323207310E+03  0.14785183080E+04  0.17526508310E+04  0.90905823960E+03 0.  0.
        -24    2    4    4    0    0 -0.38615748472E+03  0.16992568874E+03  0.12017684321E+04  0.12763248484E+04  0.82252121947E+02 0.  0.
         24    2    4    4    0    0  0.37133102450E+03  0.73306384353E+02  0.27674987591E+03  0.47632598260E+03  0.83877244499E+02 0.  0.
         13    1    3    3    0    0 -0.19237347467E+02 -0.53964286231E+01 -0.73583851490E+01  0.21291848475E+02  0.00000000000E+00 0. -1.
        -13    1    3    3    0    0  0.34063807691E+02 -0.23783564447E+03 -0.52092956337E+02  0.24584509935E+03  0.00000000000E+00 0.  1.
          2    1    6    6  502    0  0.49160409437E+02  0.21423067201E+02  0.76625850661E+02  0.93526545183E+02  0.00000000000E+00 0. -1.
          3    1    5    5  503    0 -0.30778611462E+02  0.41761018790E+02  0.13365511084E+03  0.14337013032E+03  0.00000000000E+00 0. -1.
         -4    1    5    5    0  503 -0.35537887326E+03  0.12816466995E+03  0.10681133212E+04  0.11329547181E+04  0.00000000000E+00 0.  1.
         -1    1    6    6    0  502  0.32217061506E+03  0.51883317153E+02  0.20012402525E+03  0.38279943742E+03  0.00000000000E+00 0.  1.
<mgrwt>
<rscale>  0 0.14372862E+04</rscale>
<asrwt>0</asrwt>
<pdfrwt beam="1">  1        2 0.46209294E-01 0.14372862E+04</pdfrwt>
<pdfrwt beam="2">  1       -2 0.26452728E+00 0.14372862E+04</pdfrwt>
<totfact> 0.55813498E+00</totfact>
</mgrwt>
</event>
<event>
12    1  0.2490536E-007  0.2462597E+04  0.7818608E-02  0.8416433E-01
         -2   -1    0    0    0  501 -0.00000000000E+00  0.00000000000E+00  0.75514011637E+03  0.75514011637E+03  0.00000000000E+00 0.  1.
          2   -1    0    0  501    0  0.00000000000E+00 -0.00000000000E+00 -0.20077014496E+04  0.20077014496E+04  0.00000000000E+00 0. -1.
         23    2    1    2    0    0 -0.70720825178E+03  0.72196358308E+03 -0.17614340880E+03  0.10322573078E+04  0.11468967888E+03 0.  0.
        254    2    1    2    0    0  0.70720825178E+03 -0.72196358308E+03 -0.10764179244E+04  0.17305842581E+04  0.90270227636E+03 0.  0.
        -24    2    4    4    0    0  0.50085212057E+02 -0.44218798639E+03 -0.87325709814E+03  0.98387496097E+03  0.85983926431E+02 0.  0.
         24    2    4    4    0    0  0.65712303972E+03 -0.27977559669E+03 -0.20316082629E+03  0.74670929715E+03  0.78837676720E+02 0.  0.
         13    1    3    3    0    0 -0.10172449380E+02  0.23754049250E+02 -0.21516475616E+02  0.33625768468E+02  0.00000000000E+00 0. -1.
        -13    1    3    3    0    0 -0.69703580240E+03  0.69820953383E+03 -0.15462693319E+03  0.99863153937E+03  0.00000000000E+00 0.  1.
          2    1    6    6  502    0  0.18466879924E+03 -0.75671456925E+02 -0.20597096008E+02  0.20063144113E+03  0.00000000000E+00 0. -1.
          3    1    5    5  503    0  0.27433500508E+02 -0.52154235294E+02 -0.77276102094E+02  0.97181568026E+02  0.00000000000E+00 0. -1.
         -4    1    5    5    0  503  0.22651711550E+02 -0.39003375110E+03 -0.79598099604E+03  0.88669339295E+03  0.00000000000E+00 0.  1.
         -1    1    6    6    0  502  0.47245424049E+03 -0.20410413977E+03 -0.18256373028E+03  0.54607785602E+03  0.00000000000E+00 0.  1.
<mgrwt>
<rscale>  0 0.24625969E+04</rscale>
<asrwt>0</asrwt>
<pdfrwt beam="1">  1        2 0.30887715E+00 0.24625969E+04</pdfrwt>
<pdfrwt beam="2">  1       -2 0.11617540E+00 0.24625969E+04</pdfrwt>
<totfact> 0.34040274E+00</totfact>
</mgrwt>
</event>
<event>
12    1  0.1598876E-007  0.3339539E+04  0.7818608E-02  0.8152907E-01
         -2   -1    0    0    0  501 -0.00000000000E+00  0.00000000000E+00  0.16382302271E+04  0.16382302271E+04  0.00000000000E+00 0.  1.
          2   -1    0    0  501    0  0.00000000000E+00 -0.00000000000E+00 -0.17019159153E+04  0.17019159153E+04  0.00000000000E+00 0. -1.
         23    2    1    2    0    0 -0.12028583437E+04  0.93469857998E+03 -0.30942216795E+03  0.15570772384E+04  0.90652179680E+02 0.  0.
        254    2    1    2    0    0  0.12028583437E+04 -0.93469857998E+03  0.24573647978E+03  0.17830689041E+04  0.89354276267E+03 0.  0.
        -24    2    4    4    0    0  0.78501475055E+03 -0.48542023122E+03 -0.28358823183E+03  0.96882644805E+03  0.79507495018E+02 0.  0.
         24    2    4    4    0    0  0.41784359318E+03 -0.44927834877E+03  0.52932471162E+03  0.81424245603E+03  0.79761042156E+02 0.  0.
         11    1    3    3    0    0 -0.11952531429E+04  0.93472767462E+03 -0.30341810523E+03  0.15473876204E+04  0.00000000000E+00 0. -1.
        -11    1    3    3    0    0 -0.76052008453E+01 -0.29094639380E-01 -0.60040627170E+01  0.96896179236E+01  0.00000000000E+00 0.  1.
          2    1    6    6  502    0  0.89059043479E+02 -0.14511592532E+03  0.16132602984E+03  0.23455539412E+03  0.00000000000E+00 0. -1.
          3    1    5    5  503    0  0.22230020436E+03 -0.14631189190E+03 -0.45318748853E+02  0.26995988511E+03  0.00000000000E+00 0. -1.
         -4    1    5    5    0  503  0.56271454618E+03 -0.33910833932E+03 -0.23826948298E+03  0.69886656294E+03  0.00000000000E+00 0.  1.
         -1    1    6    6    0  502  0.32878454970E+03 -0.30416242344E+03  0.36799868178E+03  0.57968706191E+03  0.00000000000E+00 0.  1.
<mgrwt>
<rscale>  0 0.33395389E+04</rscale>
<asrwt>0</asrwt>
<pdfrwt beam="1">  1        2 0.26183322E+00 0.33395389E+04</pdfrwt>
<pdfrwt beam="2">  1       -2 0.25203542E+00 0.33395389E+04</pdfrwt>
<totfact> 0.50852361E-01</totfact>
</mgrwt>
</event>
<event>
12    1  0.1598876E-007  0.2708886E+04  0.7818608E-02  0.8332128E-01
          2   -1    0    0  501    0  0.00000000000E+00  0.00000000000E+00  0.13910370149E+04  0.13910370149E+04  0.00000000000E+00 0.  1.
         -2   -1    0    0    0  501 -0.00000000000E+00 -0.00000000000E+00 -0.13188117370E+04  0.13188117370E+04  0.00000000000E+00 0. -1.
         23    2    1    2    0    0  0.64503043013E+03 -0.20951810312E+03 -0.96179126716E+03  0.11804951371E+04  0.92543155925E+02 0.  0.
        254    2    1    2    0    0 -0.64503043013E+03  0.20951810312E+03  0.10340165451E+04  0.15293536148E+04  0.89987230888E+03 0.  0.
        -24    2    4    4    0    0 -0.14926216202E+03 -0.13088025178E+03 -0.10582962235E+03  0.23816110534E+03  0.78179088080E+02 0.  0.
         24    2    4    4    0    0 -0.49576826810E+03  0.34039835490E+03  0.11398461674E+04  0.12911925095E+04  0.79193404963E+02 0.  0.
         13    1    3    3    0    0  0.60243761310E+03 -0.21090580711E+03 -0.86747612753E+03  0.10769991499E+04  0.00000000000E+00 0. -1.
        -13    1    3    3    0    0  0.42592817023E+02  0.13877039939E+01 -0.94315139629E+02  0.10349598711E+03  0.00000000000E+00 0.  1.
          2    1    6    6  502    0 -0.22155661410E+03  0.15134593863E+03  0.42580924877E+03  0.50329558187E+03  0.00000000000E+00 0. -1.
          3    1    5    5  503    0 -0.74351600600E+02 -0.11431331468E+03 -0.73432451642E+02  0.15488066173E+03  0.00000000000E+00 0. -1.
         -4    1    5    5    0  503 -0.74910561423E+02 -0.16566937098E+02 -0.32397170713E+02  0.83280443609E+02  0.00000000000E+00 0.  1.
         -1    1    6    6    0  502 -0.27421165401E+03  0.18905241627E+03  0.71403691867E+03  0.78789692759E+03  0.00000000000E+00 0.  1.
<mgrwt>
<rscale>  0 0.27088861E+04</rscale>
<asrwt>0</asrwt>
<pdfrwt beam="1">  1        2 0.21400569E+00 0.27088861E+04</pdfrwt>
<pdfrwt beam="2">  1       -2 0.20289411E+00 0.27088861E+04</pdfrwt>
<totfact> 0.16345026E+00</totfact>
</mgrwt>
</event>
<event>
12    1  0.1598876E-007  0.2291492E+04  0.7818608E-02  0.8481283E-01
          2   -1    0    0  501    0  0.00000000000E+00  0.00000000000E+00  0.28077860561E+04  0.28077860561E+04  0.00000000000E+00 0. -1.
         -2   -1    0    0    0  501 -0.00000000000E+00 -0.00000000000E+00 -0.46753328441E+03  0.46753328441E+03  0.00000000000E+00 0.  1.
         23    2    1    2    0    0  0.35138376182E+03 -0.92732626962E+02  0.22611986180E+04  0.22919819256E+04  0.89955926950E+02 0.  0.
        254    2    1    2    0    0 -0.35138376182E+03  0.92732626962E+02  0.79054153709E+02  0.98333741498E+03  0.91029282338E+03 0.  0.
        -24    2    4    4    0    0 -0.41556510197E+03  0.37968118374E+03 -0.16527822783E+03  0.59296413949E+03  0.86240494338E+02 0.  0.
         24    2    4    4    0    0  0.64181340147E+02 -0.28694855678E+03  0.24433238153E+03  0.39037327549E+03  0.78957348524E+02 0.  0.
         13    1    3    3    0    0  0.34341858409E+03 -0.87065545108E+02  0.22469092898E+04  0.22746687868E+04  0.00000000000E+00 0. -1.
        -13    1    3    3    0    0  0.79651777359E+01 -0.56670818535E+01  0.14289328252E+02  0.17313138797E+02  0.00000000000E+00 0.  1.
          2    1    6    6  502    0  0.24807934988E+02 -0.36360984253E+02  0.69610614198E+02  0.82360138557E+02  0.00000000000E+00 0. -1.
          3    1    5    5  503    0 -0.22925093555E+03  0.16540970475E+03 -0.11194642220E+03  0.30405322449E+03  0.00000000000E+00 0. -1.
         -4    1    5    5    0  503 -0.18631416642E+03  0.21427147899E+03 -0.53331805630E+02  0.28891091500E+03  0.00000000000E+00 0.  1.
         -1    1    6    6    0  502  0.39373405160E+02 -0.25058757253E+03  0.17472176734E+03  0.30801313693E+03  0.00000000000E+00 0.  1.
<mgrwt>
<rscale>  0 0.22914916E+04</rscale>
<asrwt>0</asrwt>
<pdfrwt beam="1">  1        2 0.43196708E+00 0.22914916E+04</pdfrwt>
<pdfrwt beam="2">  1       -2 0.71928199E-01 0.22914916E+04</pdfrwt>
<totfact> 0.36360120E+00</totfact>
</mgrwt>
</event>
<event>
12    1  0.1598876E-007  0.1629303E+04  0.7818608E-02  0.8802746E-01
         -2   -1    0    0    0  501 -0.00000000000E+00  0.00000000000E+00  0.14000989146E+04  0.14000989146E+04  0.00000000000E+00 0.  1.
          2   -1    0    0  501    0  0.00000000000E+00 -0.00000000000E+00 -0.47400727897E+03  0.47400727897E+03  0.00000000000E+00 0. -1.
         23    2    1    2    0    0  0.22654403435E+03 -0.51542458942E+03  0.18395978580E+03  0.60295285592E+03  0.11281062357E+03 0.  0.
        254    2    1    2    0    0 -0.22654403435E+03  0.51542458942E+03  0.74213184980E+03  0.12711533376E+04  0.86491989130E+03 0.  0.
        -24    2    4    4    0    0 -0.13366063915E+03 -0.59577153487E+02  0.65684203305E+03  0.67757482991E+03  0.79066997376E+02 0.  0.
         24    2    4    4    0    0 -0.92883395200E+02  0.57500174291E+03  0.85289816753E+02  0.59357850771E+03  0.76202116253E+02 0.  0.
         13    1    3    3    0    0  0.13999385076E+03 -0.32522595186E+03  0.57536669330E+02  0.35872087524E+03  0.00000000000E+00 0. -1.
        -13    1    3    3    0    0  0.86550183593E+02 -0.19019863756E+03  0.12642311647E+03  0.24423198068E+03  0.00000000000E+00 0.  1.
          4    1    6    6  502    0 -0.37594512769E+02  0.15262884278E+03  0.54968132583E+02  0.16652449261E+03  0.00000000000E+00 0. -1.
          1    1    5    5  503    0  0.65999552743E+01  0.33422412947E+01  0.88528270724E+02  0.88836843167E+02  0.00000000000E+00 0. -1.
         -2    1    5    5    0  503 -0.14026059442E+03 -0.62919394782E+02  0.56831376232E+03  0.58873798674E+03  0.00000000000E+00 0.  1.
         -3    1    6    6    0  502 -0.55288882431E+02  0.42237290013E+03  0.30321684170E+02  0.42705401510E+03  0.00000000000E+00 0.  1.
<mgrwt>
<rscale>  0 0.16293030E+04</rscale>
<asrwt>0</asrwt>
<pdfrwt beam="1">  1        2 0.72924198E-01 0.16293030E+04</pdfrwt>
<pdfrwt beam="2">  1       -2 0.21539983E+00 0.16293030E+04</pdfrwt>
<totfact> 0.66219335E+00</totfact>
</mgrwt>
</event>
<event>
12    1  0.1598876E-007  0.1880134E+04  0.7818608E-02  0.8664809E-01
         -1   -1    0    0    0  501 -0.00000000000E+00  0.00000000000E+00  0.27516303276E+03  0.27516303276E+03  0.00000000000E+00 0.  1.
          1   -1    0    0  501    0  0.00000000000E+00 -0.00000000000E+00 -0.32116441876E+04  0.32116441876E+04  0.00000000000E+00 0. -1.
         23    2    1    2    0    0 -0.38153159653E+03  0.61029782089E+03 -0.11554971459E+04  0.13644301605E+04  0.92012061106E+02 0.  0.
        254    2    1    2    0    0  0.38153159653E+03 -0.61029782089E+03 -0.17809840089E+04  0.21223770598E+04  0.90252454521E+03 0.  0.
        -24    2    4    4    0    0 -0.87087445276E+02  0.52825081262E+02 -0.94506390533E+03  0.95396848209E+03  0.80841618829E+02 0.  0.
         24    2    4    4    0    0  0.46861904181E+03 -0.66312290216E+03 -0.83592010362E+03  0.11684085778E+04  0.84145084428E+02 0.  0.
         13    1    3    3    0    0 -0.55321695517E+02  0.15993624782E+03 -0.25396100752E+03  0.30518238268E+03  0.00000000000E+00 0.  1.
        -13    1    3    3    0    0 -0.32620990102E+03  0.45036157308E+03 -0.90153613836E+03  0.10592477778E+04  0.00000000000E+00 0. -1.
          4    1    6    6  502    0  0.22317594040E+03 -0.30191428867E+03 -0.32781475860E+03  0.49841975686E+03  0.00000000000E+00 0. -1.
          3    1    5    5  503    0 -0.16321854409E+02 -0.20984156306E+02 -0.14749682661E+03  0.14987345197E+03  0.00000000000E+00 0. -1.
         -4    1    5    5    0  503 -0.70765590867E+02  0.73809237569E+02 -0.79756707872E+03  0.80409503012E+03  0.00000000000E+00 0.  1.
         -3    1    6    6    0  502  0.24544310141E+03 -0.36120861348E+03 -0.50810534502E+03  0.66998882089E+03  0.00000000000E+00 0.  1.
<mgrwt>
<rscale>  0 0.18801338E+04</rscale>
<asrwt>0</asrwt>
<pdfrwt beam="1">  1        1 0.49409913E+00 0.18801338E+04</pdfrwt>
<pdfrwt beam="2">  1       -1 0.42332772E-01 0.18801338E+04</pdfrwt>
<totfact> 0.21502618E+00</totfact>
</mgrwt>
</event>
<event>
12    1  0.1598876E-007  0.1238496E+04  0.7818608E-02  0.9079813E-01
          2   -1    0    0  501    0  0.00000000000E+00  0.00000000000E+00  0.15872820796E+04  0.15872820796E+04  0.00000000000E+00 0. -1.
         -2   -1    0    0    0  501 -0.00000000000E+00 -0.00000000000E+00 -0.24158786191E+03  0.24158786191E+03  0.00000000000E+00 0.  1.
         23    2    1    2    0    0 -0.12555800369E+03  0.72472846540E+01  0.67189344576E+03  0.68911888754E+03  0.87330998439E+02 0.  0.
        254    2    1    2    0    0  0.12555800369E+03 -0.72472846540E+01  0.67380077189E+03  0.11397510539E+04  0.91060839514E+03 0.  0.
        -24    2    4    4    0    0 -0.16697623430E+03  0.38178885799E+03  0.34174055142E+03  0.54473192335E+03  0.79388090544E+02 0.  0.
         24    2    4    4    0    0  0.29253423799E+03 -0.38903614265E+03  0.33206022046E+03  0.59501913058E+03  0.82815306886E+02 0.  0.
         11    1    3    3    0    0 -0.92708243414E+02 -0.24323432520E+01  0.62029770200E+03  0.62719213467E+03  0.00000000000E+00 0. -1.
        -11    1    3    3    0    0 -0.32849760279E+02  0.96796279060E+01  0.51595743757E+02  0.61926752866E+02  0.00000000000E+00 0.  1.
          4    1    6    6  502    0  0.49984950600E+02 -0.31115334897E+02  0.60648033521E+02  0.84527175051E+02  0.00000000000E+00 0. -1.
          3    1    5    5  503    0 -0.81069111582E+02  0.27733512391E+03  0.23503818220E+03  0.37246465456E+03  0.00000000000E+00 0. -1.
         -4    1    5    5    0  503 -0.85907122717E+02  0.10445373409E+03  0.10670236923E+03  0.17226726879E+03  0.00000000000E+00 0.  1.
         -3    1    6    6    0  502  0.24254928739E+03 -0.35792080775E+03  0.27141218694E+03  0.51049195553E+03  0.00000000000E+00 0.  1.
<mgrwt>
<rscale>  0 0.12384960E+04</rscale>
<asrwt>0</asrwt>
<pdfrwt beam="1">  1        2 0.24419724E+00 0.12384960E+04</pdfrwt>
<pdfrwt beam="2">  1       -2 0.37167364E-01 0.12384960E+04</pdfrwt>
<totfact> 0.76109669E+01</totfact>
</mgrwt>
</event>
<event>
12    1  0.1598876E-007  0.2198034E+04  0.7818608E-02  0.8519247E-01
         -2   -1    0    0    0  501 -0.00000000000E+00  0.00000000000E+00  0.44743313502E+03  0.44743313502E+03  0.00000000000E+00 0.  1.
          2   -1    0    0  501    0  0.00000000000E+00 -0.00000000000E+00 -0.26994845701E+04  0.26994845701E+04  0.00000000000E+00 0. -1.
         23    2    1    2    0    0 -0.27486800520E+03 -0.83952650342E+03 -0.12739399810E+04  0.15524635324E+04  0.82841861188E+02 0.  0.
        254    2    1    2    0    0  0.27486800520E+03  0.83952650342E+03 -0.97811145408E+03  0.15944541727E+04  0.89734325768E+03 0.  0.
        -24    2    4    4    0    0  0.31146603438E+02 -0.12351590833E+02  0.14052497384E+03  0.16517685362E+03  0.80084030847E+02 0.  0.
         24    2    4    4    0    0  0.24372140176E+03  0.85187809425E+03 -0.11186364279E+04  0.14292773191E+04  0.79936148803E+02 0.  0.
         13    1    3    3    0    0 -0.22228926134E+03 -0.72362257220E+03 -0.11323612948E+04  0.13620881927E+04  0.00000000000E+00 0.  1.
        -13    1    3    3    0    0 -0.52578743861E+02 -0.11590393122E+03 -0.14157868622E+03  0.19037533971E+03  0.00000000000E+00 0. -1.
          4    1    6    6  502    0  0.24388246707E+02  0.13877209704E+03 -0.13935488215E+03  0.19817231056E+03  0.00000000000E+00 0. -1.
          3    1    5    5  503    0 -0.36540711036E+01  0.22194253167E+02  0.80040654258E+01  0.23874718273E+02  0.00000000000E+00 0. -1.
         -4    1    5    5    0  503  0.34800674542E+02 -0.34545844000E+02  0.13252090842E+03  0.14130213535E+03  0.00000000000E+00 0.  1.
         -3    1    6    6    0  502  0.21933315506E+03  0.71310599721E+03 -0.97928154578E+03  0.12311050085E+04  0.00000000000E+00 0.  1.
<mgrwt>
<rscale>  0 0.21980344E+04</rscale>
<asrwt>0</asrwt>
<pdfrwt beam="1">  1        2 0.41530531E+00 0.21980344E+04</pdfrwt>
<pdfrwt beam="2">  1       -2 0.68835868E-01 0.21980344E+04</pdfrwt>
<totfact> 0.46863794E+00</totfact>
</mgrwt>
</event>
<event>
12    1  0.1598876E-007  0.2119883E+04  0.7818608E-02  0.8552535E-01
         -1   -1    0    0    0  501 -0.00000000000E+00  0.00000000000E+00  0.11266024654E+04  0.11266024654E+04  0.00000000000E+00 0.  1.
          1   -1    0    0  501    0  0.00000000000E+00 -0.00000000000E+00 -0.99722484260E+03  0.99722484260E+03  0.00000000000E+00 0. -1.
         23    2    1    2    0    0 -0.74603697525E+03 -0.18225624193E+03  0.45250616509E+03  0.89601991174E+03  0.91111726046E+02 0.  0.
        254    2    1    2    0    0  0.74603697525E+03  0.18225624193E+03 -0.32312854226E+03  0.12278073963E+04  0.90183725884E+03 0.  0.
        -24    2    4    4    0    0  0.36966533920E+03 -0.61573678986E-02 -0.60737816878E+03  0.71561120905E+03  0.80862225733E+02 0.  0.
         24    2    4    4    0    0  0.37637163605E+03  0.18226239930E+03  0.28424962653E+03  0.51219618726E+03  0.81681659136E+02 0.  0.
         11    1    3    3    0    0 -0.49526836277E+03 -0.13321452136E+03  0.25322800335E+03  0.57198014086E+03  0.00000000000E+00 0. -1.
        -11    1    3    3    0    0 -0.25076861248E+03 -0.49041720563E+02  0.19927816174E+03  0.32403977087E+03  0.00000000000E+00 0.  1.
          2    1    6    6  502    0  0.91181297865E+02  0.77328885702E+02  0.55338559658E+02  0.13174271073E+03  0.00000000000E+00 0. -1.
          1    1    5    5  503    0  0.10370709651E+02  0.89464689751E+01 -0.58553239839E+01  0.14895494108E+02  0.00000000000E+00 0. -1.
         -2    1    5    5    0  503  0.35929462955E+03 -0.89526263430E+01 -0.60152284480E+03  0.70071571494E+03  0.00000000000E+00 0.  1.
         -1    1    6    6    0  502  0.28519033818E+03  0.10493351359E+03  0.22891106687E+03  0.38045347653E+03  0.00000000000E+00 0.  1.
<mgrwt>
<rscale>  0 0.21198830E+04</rscale>
<asrwt>0</asrwt>
<pdfrwt beam="1">  1        1 0.15341921E+00 0.21198830E+04</pdfrwt>
<pdfrwt beam="2">  1       -1 0.17332346E+00 0.21198830E+04</pdfrwt>
<totfact> 0.32481698E+00</totfact>
</mgrwt>
</event>
<event>
12    1  0.1598876E-007  0.1710471E+04  0.7818608E-02  0.8755415E-01
         -1   -1    0    0    0  501 -0.00000000000E+00  0.00000000000E+00  0.71817207979E+03  0.71817207979E+03  0.00000000000E+00 0.  1.
          1   -1    0    0  501    0  0.00000000000E+00 -0.00000000000E+00 -0.10184577897E+04  0.10184577897E+04  0.00000000000E+00 0. -1.
         23    2    1    2    0    0  0.96087022592E+02  0.12434242680E+03  0.49780153087E+03  0.52987191270E+03  0.90907231429E+02 0.  0.
        254    2    1    2    0    0 -0.96087022592E+02 -0.12434242680E+03 -0.79808724075E+03  0.12067579568E+04  0.89141896286E+03 0.  0.
        -24    2    4    4    0    0 -0.65056152560E+02 -0.32115807196E+03 -0.90581787746E+03  0.96664250341E+03  0.80727269887E+02 0.  0.
         24    2    4    4    0    0 -0.31030870033E+02  0.19681564516E+03  0.10773063670E+03  0.24011545335E+03  0.79688316458E+02 0.  0.
         13    1    3    3    0    0  0.32164031048E+02  0.11150494680E+03  0.30407492365E+03  0.32546802799E+03  0.00000000000E+00 0.  1.
        -13    1    3    3    0    0  0.63922991544E+02  0.12837480002E+02  0.19372660722E+03  0.20440388471E+03  0.00000000000E+00 0. -1.
          4    1    6    6  502    0 -0.14904429737E+01  0.88378600617E+01 -0.12238264276E+02  0.15169189274E+02  0.00000000000E+00 0. -1.
          3    1    5    5  503    0 -0.68589893524E+01 -0.78682340730E+02 -0.13402430670E+03  0.15556500655E+03  0.00000000000E+00 0. -1.
         -4    1    5    5    0  503 -0.58197163207E+02 -0.24247573123E+03 -0.77179357076E+03  0.81107749686E+03  0.00000000000E+00 0.  1.
         -3    1    6    6    0  502 -0.29540427059E+02  0.18797778510E+03  0.11996890098E+03  0.22494626408E+03  0.00000000000E+00 0.  1.
<mgrwt>
<rscale>  0 0.17104712E+04</rscale>
<asrwt>0</asrwt>
<pdfrwt beam="1">  1        1 0.15668581E+00 0.17104712E+04</pdfrwt>
<pdfrwt beam="2">  1       -1 0.11048801E+00 0.17104712E+04</pdfrwt>
<totfact> 0.10512547E+01</totfact>
</mgrwt>
</event>
<event>
12    1  0.1598876E-007  0.1084221E+04  0.7818608E-02  0.9220709E-01
          4   -1    0    0  501    0  0.00000000000E+00  0.00000000000E+00  0.61679254746E+03  0.61679254746E+03  0.00000000000E+00 0. -1.
         -4   -1    0    0    0  501 -0.00000000000E+00 -0.00000000000E+00 -0.47647140614E+03  0.47647140614E+03  0.00000000000E+00 0.  1.
         23    2    1    2    0    0  0.23644418068E+02 -0.13908043761E+03 -0.16994816667E+02  0.16973804370E+03  0.92842625197E+02 0.  0.
        254    2    1    2    0    0 -0.23644418068E+02  0.13908043761E+03  0.15731595798E+03  0.92352590990E+03  0.89902690115E+03 0.  0.
        -24    2    4    4    0    0 -0.37384132321E+03 -0.16299284612E+03  0.18512372885E+03  0.45486081475E+03  0.79394980872E+02 0.  0.
         24    2    4    4    0    0  0.35019690514E+03  0.30207328374E+03 -0.27807770864E+02  0.46866509515E+03  0.70622646278E+02 0.  0.
         11    1    3    3    0    0 -0.33662959958E+02 -0.44917715971E+02  0.80279611316E+01  0.56703123734E+02  0.00000000000E+00 0. -1.
        -11    1    3    3    0    0  0.57307378026E+02 -0.94162721641E+02 -0.25022777798E+02  0.11303491997E+03  0.00000000000E+00 0.  1.
          4    1    6    6  502    0  0.27794406113E+02  0.30444380869E+02  0.17253266672E+02  0.44688528154E+02  0.00000000000E+00 0. -1.
          3    1    5    5  503    0 -0.45449125122E+02 -0.41967069958E+02  0.72953070099E+01  0.62290283670E+02  0.00000000000E+00 0. -1.
         -4    1    5    5    0  503 -0.32839219809E+03 -0.12102577617E+03  0.17782842184E+03  0.39257053108E+03  0.00000000000E+00 0.  1.
         -3    1    6    6    0  502  0.32240249903E+03  0.27162890287E+03 -0.45061037535E+02  0.42397656699E+03  0.00000000000E+00 0.  1.
<mgrwt>
<rscale>  0 0.10842214E+04</rscale>
<asrwt>0</asrwt>
<pdfrwt beam="1">  1        4 0.94891161E-01 0.10842214E+04</pdfrwt>
<pdfrwt beam="2">  1       -4 0.73303293E-01 0.10842214E+04</pdfrwt>
<totfact> 0.31252283E+00</totfact>
</mgrwt>
</event>
<event>
12    1  0.1598876E-007  0.2088794E+04  0.7818608E-02  0.8566196E-01
          2   -1    0    0  501    0  0.00000000000E+00  0.00000000000E+00  0.80556860786E+03  0.80556860786E+03  0.00000000000E+00 0. -1.
         -2   -1    0    0    0  501 -0.00000000000E+00 -0.00000000000E+00 -0.13540309104E+04  0.13540309104E+04  0.00000000000E+00 0.  1.
         23    2    1    2    0    0 -0.23875824344E+03 -0.71558554815E+02  0.60920338628E+03  0.66397348375E+03  0.87211786404E+02 0.  0.
        254    2    1    2    0    0  0.23875824344E+03  0.71558554815E+02 -0.11576656889E+04  0.14956260345E+04  0.91355419239E+03 0.  0.
        -24    2    4    4    0    0  0.31938977021E+03 -0.34602930001E+02 -0.12648355190E+04  0.13073457596E+04  0.78338093076E+02 0.  0.
         24    2    4    4    0    0 -0.80631526769E+02  0.10616148482E+03  0.10716983016E+03  0.18828027496E+03  0.78691711586E+02 0.  0.
         11    1    3    3    0    0 -0.19866432028E+03 -0.31357069819E+02  0.52694494064E+03  0.56402282618E+03  0.00000000000E+00 0. -1.
        -11    1    3    3    0    0 -0.40093923159E+02 -0.40201484997E+02  0.82258445641E+02  0.99950657574E+02  0.00000000000E+00 0.  1.
          4    1    6    6  502    0 -0.43477324647E+02  0.61612053748E+02  0.10621746637E+03  0.13026309181E+03  0.00000000000E+00 0. -1.
          1    1    5    5  503    0  0.10942329246E+03  0.53372641450E+01 -0.56802663907E+03  0.57849477613E+03  0.00000000000E+00 0. -1.
         -2    1    5    5    0  503  0.20996647775E+03 -0.39940194146E+02 -0.69680887997E+03  0.72885098346E+03  0.00000000000E+00 0.  1.
         -3    1    6    6    0  502 -0.37154202123E+02  0.44549431068E+02  0.95236379770E+00  0.58017183150E+02  0.00000000000E+00 0.  1.
<mgrwt>
<rscale>  0 0.20887937E+04</rscale>
<asrwt>0</asrwt>
<pdfrwt beam="1">  1        2 0.12393363E+00 0.20887937E+04</pdfrwt>
<pdfrwt beam="2">  1       -2 0.20831245E+00 0.20887937E+04</pdfrwt>
<totfact> 0.36944376E+00</totfact>
</mgrwt>
</event>
<event>
12    1  0.1598876E-007  0.1756950E+04  0.7818608E-02  0.8729534E-01
          2   -1    0    0  501    0  0.00000000000E+00  0.00000000000E+00  0.75414731758E+03  0.75414731758E+03  0.00000000000E+00 0. -1.
         -2   -1    0    0    0  501 -0.00000000000E+00 -0.00000000000E+00 -0.10232993852E+04  0.10232993852E+04  0.00000000000E+00 0.  1.
         23    2    1    2    0    0 -0.27709274708E+02  0.60769517229E+03  0.12653455397E+03  0.62459284281E+03  0.63592449337E+02 0.  0.
        254    2    1    2    0    0  0.27709274708E+02 -0.60769517229E+03 -0.39568662163E+03  0.11528538600E+04  0.89579176914E+03 0.  0.
        -24    2    4    4    0    0 -0.28967776568E+03 -0.43047852375E+03 -0.54004231551E+03  0.75316740038E+03  0.79940372257E+02 0.  0.
         24    2    4    4    0    0  0.31738704038E+03 -0.17721664854E+03  0.14435569388E+03  0.39968645963E+03  0.82282596766E+02 0.  0.
         11    1    3    3    0    0 -0.43323175675E+02  0.54285182741E+03  0.11941903612E+03  0.55751763224E+03  0.00000000000E+00 0. -1.
        -11    1    3    3    0    0  0.15613900967E+02  0.64843344874E+02  0.71155178550E+01  0.67075210564E+02  0.00000000000E+00 0.  1.
          4    1    6    6  502    0  0.29248496394E+03 -0.18551963646E+03  0.13649833929E+03  0.37228589319E+03  0.00000000000E+00 0. -1.
          3    1    5    5  503    0 -0.19980402096E+03 -0.22628842240E+03 -0.30707806543E+03  0.43061007324E+03  0.00000000000E+00 0. -1.
         -4    1    5    5    0  503 -0.89873744714E+02 -0.20419010135E+03 -0.23296425008E+03  0.32255732714E+03  0.00000000000E+00 0.  1.
         -3    1    6    6    0  502  0.24902076444E+02  0.83029879206E+01  0.78573545867E+01  0.27400566431E+02  0.00000000000E+00 0.  1.
<mgrwt>
<rscale>  0 0.17569502E+04</rscale>
<asrwt>0</asrwt>
<pdfrwt beam="1">  1        2 0.11602266E+00 0.17569502E+04</pdfrwt>
<pdfrwt beam="2">  1       -2 0.15743067E+00 0.17569502E+04</pdfrwt>
<totfact> 0.92789074E+00</totfact>
</mgrwt>
</event>
<event>
12    1  0.1598876E-007  0.1241219E+04  0.7818608E-02  0.9077524E-01
          1   -1    0    0  501    0  0.00000000000E+00  0.00000000000E+00  0.29221911090E+04  0.29221911090E+04  0.00000000000E+00 0. -1.
         -1   -1    0    0    0  501 -0.00000000000E+00 -0.00000000000E+00 -0.13180386429E+03  0.13180386429E+03  0.00000000000E+00 0.  1.
         23    2    1    2    0    0  0.19917621284E+03  0.17940535245E+02  0.17995187637E+03  0.28454778743E+03  0.92691633682E+02 0.  0.
        254    2    1    2    0    0 -0.19917621284E+03 -0.17940535245E+02  0.26104353683E+04  0.27694471859E+04  0.90303481463E+03 0.  0.
        -24    2    4    4    0    0  0.17432260464E+03  0.25011096733E+03  0.39397291648E+03  0.50439240464E+03  0.79077003429E+02 0.  0.
         24    2    4    4    0    0 -0.37349881749E+03 -0.26805150257E+03  0.22164624519E+04  0.22650547812E+04  0.80089866703E+02 0.  0.
         11    1    3    3    0    0  0.13738499276E+03 -0.72720736322E+00  0.63389126745E+02  0.15130547398E+03  0.00000000000E+00 0.  1.
        -11    1    3    3    0    0  0.61791220082E+02  0.18667742609E+02  0.11656274963E+03  0.13324231345E+03  0.00000000000E+00 0. -1.
          2    1    6    6  502    0 -0.23838270693E+02 -0.82047596032E+01  0.23038553989E+03  0.23176082115E+03  0.00000000000E+00 0. -1.
          1    1    5    5  503    0  0.87681791301E+02  0.61995360991E+02  0.14765530361E+03  0.18257494350E+03  0.00000000000E+00 0. -1.
         -2    1    5    5    0  503  0.86640813341E+02  0.18811560633E+03  0.24631761287E+03  0.32181746114E+03  0.00000000000E+00 0.  1.
         -1    1    6    6    0  502 -0.34966054679E+03 -0.25984674297E+03  0.19860769120E+04  0.20332939601E+04  0.00000000000E+00 0.  1.
<mgrwt>
<rscale>  0 0.12412189E+04</rscale>
<asrwt>0</asrwt>
<pdfrwt beam="1">  1        1 0.44956781E+00 0.12412189E+04</pdfrwt>
<pdfrwt beam="2">  1       -1 0.20277520E-01 0.12412189E+04</pdfrwt>
<totfact> 0.13572766E+01</totfact>
</mgrwt>
</event>
<event>
12    1  0.1598876E-007  0.1834421E+04  0.7818608E-02  0.8688206E-01
         -2   -1    0    0    0  501 -0.00000000000E+00  0.00000000000E+00  0.71307675114E+03  0.71307675114E+03  0.00000000000E+00 0.  1.
          2   -1    0    0  501    0  0.00000000000E+00 -0.00000000000E+00 -0.11797819785E+04  0.11797819785E+04  0.00000000000E+00 0. -1.
         23    2    1    2    0    0 -0.28810413902E+03  0.61915403483E+03 -0.43163876788E+02  0.69063476106E+03  0.93581724499E+02 0.  0.
        254    2    1    2    0    0  0.28810413902E+03 -0.61915403483E+03 -0.42354135056E+03  0.12022239686E+04  0.89420326616E+03 0.  0.
        -24    2    4    4    0    0  0.43945805055E+03 -0.52508856269E+03 -0.61854128255E+03  0.92601429235E+03  0.77895921271E+02 0.  0.
         24    2    4    4    0    0 -0.15135391153E+03 -0.94065472137E+02  0.19499993199E+03  0.27620967622E+03  0.80687620989E+02 0.  0.
         13    1    3    3    0    0 -0.49490828379E+02  0.42854050075E+02 -0.11489935235E+01  0.65476193288E+02  0.00000000000E+00 0. -1.
        -13    1    3    3    0    0 -0.23861331064E+03  0.57629998476E+03 -0.42014883264E+02  0.62515856777E+03  0.00000000000E+00 0.  1.
          2    1    6    6  502    0 -0.11514162300E+02 -0.41624801906E+02  0.24911531113E+02  0.49857641837E+02  0.00000000000E+00 0. -1.
          1    1    5    5  503    0  0.18623335988E+01 -0.27419369464E+01 -0.16200758969E+02  0.16536356788E+02  0.00000000000E+00 0. -1.
         -2    1    5    5    0  503  0.43759571695E+03 -0.52234662575E+03 -0.60234052358E+03  0.90947793556E+03  0.00000000000E+00 0.  1.
         -1    1    6    6    0  502 -0.13983974923E+03 -0.52440670231E+02  0.17008840087E+03  0.22635203439E+03  0.00000000000E+00 0.  1.
<mgrwt>
<rscale>  0 0.18344210E+04</rscale>
<asrwt>0</asrwt>
<pdfrwt beam="1">  1        2 0.18150492E+00 0.18344210E+04</pdfrwt>
<pdfrwt beam="2">  1       -2 0.10970412E+00 0.18344210E+04</pdfrwt>
<totfact> 0.12129237E+01</totfact>
</mgrwt>
</event>
<event>
12    1  0.1598876E-007  0.1645314E+04  0.7818608E-02  0.8793183E-01
          1   -1    0    0  501    0  0.00000000000E+00  0.00000000000E+00  0.23443177204E+04  0.23443177204E+04  0.00000000000E+00 0. -1.
         -1   -1    0    0    0  501 -0.00000000000E+00 -0.00000000000E+00 -0.28868295870E+03  0.28868295870E+03  0.00000000000E+00 0.  1.
         23    2    1    2    0    0  0.32071824654E+03 -0.29081351388E+03  0.12781650134E+03  0.46103503170E+03  0.93720589645E+02 0.  0.
        254    2    1    2    0    0 -0.32071824654E+03  0.29081351388E+03  0.19278182604E+04  0.21719656474E+04  0.90195278976E+03 0.  0.
        -24    2    4    4    0    0 -0.52347412563E+02 -0.27047641541E+03  0.10759892941E+04  0.11137570342E+04  0.82486528085E+02 0.  0.
         24    2    4    4    0    0 -0.26837083397E+03  0.56128992929E+03  0.85182896626E+03  0.10582086132E+04  0.84401374569E+02 0.  0.
         11    1    3    3    0    0  0.47179947757E+02 -0.62755299333E+02  0.59242949951E+02  0.98355997192E+02  0.00000000000E+00 0. -1.
        -11    1    3    3    0    0  0.27353829878E+03 -0.22805821455E+03  0.68573551385E+02  0.36267903451E+03  0.00000000000E+00 0.  1.
          4    1    6    6  502    0 -0.63218337400E-01  0.44365223262E+02  0.77485138197E+02  0.89287309698E+02  0.00000000000E+00 0. -1.
          1    1    5    5  503    0 -0.39156599542E+02 -0.41859073648E+02  0.17640850598E+03  0.18548687909E+03  0.00000000000E+00 0. -1.
         -2    1    5    5    0  503 -0.13190813022E+02 -0.22861734176E+03  0.89958078815E+03  0.92827015513E+03  0.00000000000E+00 0.  1.
         -3    1    6    6    0  502 -0.26830761563E+03  0.51692470603E+03  0.77434382807E+03  0.96892130350E+03  0.00000000000E+00 0.  1.
<mgrwt>
<rscale>  0 0.16453140E+04</rscale>
<asrwt>0</asrwt>
<pdfrwt beam="1">  1        1 0.36066425E+00 0.16453140E+04</pdfrwt>
<pdfrwt beam="2">  1       -1 0.44412764E-01 0.16453140E+04</pdfrwt>
<totfact> 0.83360663E+00</totfact>
</mgrwt>
</event>
<event>
12    1  0.1598876E-007  0.2042017E+04  0.7818608E-02  0.8587224E-01
         -2   -1    0    0    0  501 -0.00000000000E+00  0.00000000000E+00  0.23389248320E+04  0.23389248320E+04  0.00000000000E+00 0.  1.
          2   -1    0    0  501    0  0.00000000000E+00 -0.00000000000E+00 -0.44569980590E+03  0.44569980590E+03  0.00000000000E+00 0. -1.
         23    2    1    2    0    0  0.39722019324E+03  0.34888457156E+03  0.16149142135E+04  0.17017766349E+04  0.92690192897E+02 0.  0.
        254    2    1    2    0    0 -0.39722019324E+03 -0.34888457156E+03  0.27831081259E+03  0.10828480030E+04  0.90310495682E+03 0.  0.
        -24    2    4    4    0    0 -0.36098583660E+03 -0.38088377976E+03 -0.22067910893E+03  0.57475286422E+03  0.79109783775E+02 0.  0.
         24    2    4    4    0    0 -0.36234356640E+02  0.31999208205E+02  0.49898992152E+03  0.50809513879E+03  0.82661057085E+02 0.  0.
         13    1    3    3    0    0  0.38147458322E+03  0.30015962096E+03  0.14493091539E+04  0.15284356968E+04  0.00000000000E+00 0.  1.
        -13    1    3    3    0    0  0.15745610024E+02  0.48724950600E+02  0.16560505961E+03  0.17334093808E+03  0.00000000000E+00 0. -1.
          4    1    6    6  502    0 -0.29323111789E+01  0.56471452552E+01  0.40393508579E+03  0.40398520051E+03  0.00000000000E+00 0. -1.
          1    1    5    5  503    0 -0.32795601283E+03 -0.31553740020E+03 -0.17051990121E+03  0.48600003496E+03  0.00000000000E+00 0. -1.
         -2    1    5    5    0  503 -0.33029823773E+02 -0.65346379561E+02 -0.50159207728E+02  0.88752829251E+02  0.00000000000E+00 0.  1.
         -1    1    6    6    0  502 -0.33302045461E+02  0.26352062950E+02  0.95054835736E+02  0.10410993829E+03  0.00000000000E+00 0.  1.
<mgrwt>
<rscale>  0 0.20420170E+04</rscale>
<asrwt>0</asrwt>
<pdfrwt beam="1">  1        2 0.68569203E-01 0.20420170E+04</pdfrwt>
<pdfrwt beam="2">  1       -2 0.35983458E+00 0.20420170E+04</pdfrwt>
<totfact> 0.87970861E-01</totfact>
</mgrwt>
</event>
<event>
12    1  0.1598876E-007  0.1223680E+04  0.7818608E-02  0.9092378E-01
          1   -1    0    0  501    0  0.00000000000E+00  0.00000000000E+00  0.95515945850E+03  0.95515945850E+03  0.00000000000E+00 0. -1.
         -1   -1    0    0    0  501 -0.00000000000E+00 -0.00000000000E+00 -0.39192233280E+03  0.39192233280E+03  0.00000000000E+00 0.  1.
         23    2    1    2    0    0  0.83157787908E+02 -0.51718017662E+02  0.41289316857E+03  0.43334282851E+03  0.87836594463E+02 0.  0.
        254    2    1    2    0    0 -0.83157787908E+02  0.51718017662E+02  0.15034395712E+03  0.91373896279E+03  0.89594956088E+03 0.  0.
        -24    2    4    4    0    0  0.12079335132E+03  0.33366770034E+03 -0.20004505788E+03  0.41343307186E+03  0.70595408832E+02 0.  0.
         24    2    4    4    0    0 -0.20395113923E+03 -0.28194968268E+03  0.35038901500E+03  0.50030589093E+03  0.80261023629E+02 0.  0.
         11    1    3    3    0    0  0.26265265893E+01 -0.50612305122E+02  0.14476609468E+03  0.15338098396E+03  0.00000000000E+00 0.  1.
        -11    1    3    3    0    0  0.80531261319E+02 -0.11057125396E+01  0.26812707389E+03  0.27996184455E+03  0.00000000000E+00 0. -1.
          4    1    6    6  502    0 -0.10824123275E+03 -0.11573837776E+03  0.20771744966E+03  0.26126246467E+03  0.00000000000E+00 0. -1.
          3    1    5    5  503    0  0.12898798710E+02  0.64922818211E+02 -0.68847494213E+02  0.95505647959E+02  0.00000000000E+00 0. -1.
         -4    1    5    5    0  503  0.10789455261E+03  0.26874488213E+03 -0.13119756367E+03  0.31792742390E+03  0.00000000000E+00 0.  1.
         -3    1    6    6    0  502 -0.95709906473E+02 -0.16621130492E+03  0.14267156534E+03  0.23904342626E+03  0.00000000000E+00 0.  1.
<mgrwt>
<rscale>  0 0.12236802E+04</rscale>
<asrwt>0</asrwt>
<pdfrwt beam="1">  1        1 0.14694761E+00 0.12236802E+04</pdfrwt>
<pdfrwt beam="2">  1       -1 0.60295744E-01 0.12236802E+04</pdfrwt>
<totfact> 0.45246827E+01</totfact>
</mgrwt>
</event>
<event>
12    1  0.1598876E-007  0.2148438E+04  0.7818608E-02  0.8540201E-01
          1   -1    0    0  501    0  0.00000000000E+00  0.00000000000E+00  0.88422582150E+03  0.88422582150E+03  0.00000000000E+00 0. -1.
         -1   -1    0    0    0  501 -0.00000000000E+00 -0.00000000000E+00 -0.13050355612E+04  0.13050355612E+04  0.00000000000E+00 0.  1.
         23    2    1    2    0    0  0.57652352803E+03  0.81934486561E+02  0.50426851212E+03  0.77549251586E+03  0.89494532703E+02 0.  0.
        254    2    1    2    0    0 -0.57652352803E+03 -0.81934486561E+02 -0.92507825178E+03  0.14137688668E+04  0.89659355248E+03 0.  0.
        -24    2    4    4    0    0 -0.35110089341E+03 -0.28714657243E+03 -0.99049823377E+03  0.10923130133E+04  0.79598846984E+02 0.  0.
         24    2    4    4    0    0 -0.22542263462E+03  0.20521208587E+03  0.65419981984E+02  0.32145585353E+03  0.78273414028E+02 0.  0.
         11    1    3    3    0    0  0.59548609255E+02 -0.12489151204E+02  0.77344856232E+02  0.98408549159E+02  0.00000000000E+00 0.  1.
        -11    1    3    3    0    0  0.51697491877E+03  0.94423637765E+02  0.42692365589E+03  0.67708396670E+03  0.00000000000E+00 0. -1.
          2    1    6    6  502    0 -0.20120610421E+02 -0.49604688553E+01  0.14950445215E+01  0.20776919240E+02  0.00000000000E+00 0. -1.
          3    1    5    5  503    0 -0.14533044172E+03 -0.13790845774E+03 -0.52507740269E+03  0.56200174272E+03  0.00000000000E+00 0. -1.
         -4    1    5    5    0  503 -0.20577045169E+03 -0.14923811469E+03 -0.46542083108E+03  0.53031127054E+03  0.00000000000E+00 0.  1.
         -1    1    6    6    0  502 -0.20530202420E+03  0.21017255472E+03  0.63924937462E+02  0.30067893429E+03  0.00000000000E+00 0.  1.
<mgrwt>
<rscale>  0 0.21484377E+04</rscale>
<asrwt>0</asrwt>
<pdfrwt beam="1">  1        1 0.13603474E+00 0.21484377E+04</pdfrwt>
<pdfrwt beam="2">  1       -1 0.20077470E+00 0.21484377E+04</pdfrwt>
<totfact> 0.25526259E+00</totfact>
</mgrwt>
</event>
<event>
12    1  0.1598876E-007  0.2025409E+04  0.7818608E-02  0.8594833E-01
          1   -1    0    0  501    0  0.00000000000E+00  0.00000000000E+00  0.16628163318E+04  0.16628163318E+04  0.00000000000E+00 0. -1.
         -1   -1    0    0    0  501 -0.00000000000E+00 -0.00000000000E+00 -0.61676696007E+03  0.61676696007E+03  0.00000000000E+00 0.  1.
         23    2    1    2    0    0  0.30537501353E+03 -0.14849540935E+03  0.12585187131E+04  0.13066411895E+04  0.90205662151E+02 0.  0.
        254    2    1    2    0    0 -0.30537501353E+03  0.14849540935E+03 -0.21246934133E+03  0.97294210237E+03  0.88666133787E+03 0.  0.
        -24    2    4    4    0    0 -0.50596827407E+03  0.36587561621E+03 -0.22001935984E+03  0.66699117451E+03  0.81239444039E+02 0.  0.
         24    2    4    4    0    0  0.20059326054E+03 -0.21738020686E+03  0.75500185111E+01  0.30595092786E+03  0.77827739078E+02 0.  0.
         11    1    3    3    0    0  0.30025597299E+03 -0.12194904917E+03  0.11735774269E+04  0.12175012102E+04  0.00000000000E+00 0. -1.
        -11    1    3    3    0    0  0.51190405430E+01 -0.26546360177E+02  0.84941286133E+02  0.89139979273E+02  0.00000000000E+00 0.  1.
          2    1    6    6  502    0  0.14566124895E+03 -0.17881014910E+03  0.35307679604E+02  0.23331716847E+03  0.00000000000E+00 0. -1.
          3    1    5    5  503    0 -0.48040574010E+03  0.32919144206E+03 -0.21923984898E+03  0.62227228126E+03  0.00000000000E+00 0. -1.
         -4    1    5    5    0  503 -0.25562533962E+02  0.36684174154E+02 -0.77951086437E+00  0.44718893246E+02  0.00000000000E+00 0.  1.
         -1    1    6    6    0  502  0.54932011588E+02 -0.38570057764E+02 -0.27757661093E+02  0.72633759385E+02  0.00000000000E+00 0.  1.
<mgrwt>
<rscale>  0 0.20254088E+04</rscale>
<asrwt>0</asrwt>
<pdfrwt beam="1">  1        1 0.25581790E+00 0.20254088E+04</pdfrwt>
<pdfrwt beam="2">  1       -1 0.94887225E-01 0.20254088E+04</pdfrwt>
<totfact> 0.50212955E+00</totfact>
</mgrwt>
</event>
<event>
12    1  0.1598876E-007  0.1836825E+04  0.7818608E-02  0.8686958E-01
         -2   -1    0    0    0  501 -0.00000000000E+00  0.00000000000E+00  0.63085532013E+03  0.63085532013E+03  0.00000000000E+00 0.  1.
          2   -1    0    0  501    0  0.00000000000E+00 -0.00000000000E+00 -0.13370443074E+04  0.13370443074E+04  0.00000000000E+00 0. -1.
         23    2    1    2    0    0  0.25647272073E+03 -0.37874058642E+03 -0.82199782131E+03  0.94495957795E+03  0.89696696992E+02 0.  0.
        254    2    1    2    0    0 -0.25647272073E+03  0.37874058642E+03  0.11580883403E+03  0.10229400496E+04  0.90761884661E+03 0.  0.
        -24    2    4    4    0    0 -0.17051232182E+03  0.66927094431E+03  0.20640002342E+02  0.69557137928E+03  0.79971777377E+02 0.  0.
         24    2    4    4    0    0 -0.85960398908E+02 -0.29053035789E+03  0.95168831685E+02  0.32736867030E+03  0.79473648049E+02 0.  0.
         11    1    3    3    0    0  0.12337698463E+03 -0.12320721295E+03 -0.25431839492E+03  0.30835003431E+03  0.00000000000E+00 0.  1.
        -11    1    3    3    0    0  0.13309573610E+03 -0.25553337347E+03 -0.56767942639E+03  0.63660954365E+03  0.00000000000E+00 0. -1.
          2    1    6    6  502    0 -0.34815633245E+02 -0.11750389264E+03 -0.17351937194E+01  0.12256550902E+03  0.00000000000E+00 0. -1.
          3    1    5    5  503    0 -0.24414577710E+02  0.26225528259E+02  0.13461019981E+01  0.35856128176E+02  0.00000000000E+00 0. -1.
         -2    1    5    5    0  503 -0.14609774411E+03  0.64304541606E+03  0.19293900344E+02  0.65971525110E+03  0.00000000000E+00 0.  1.
         -1    1    6    6    0  502 -0.51144765663E+02 -0.17302646525E+03  0.96904025404E+02  0.20480316129E+03  0.00000000000E+00 0.  1.
<mgrwt>
<rscale>  0 0.18368250E+04</rscale>
<asrwt>0</asrwt>
<pdfrwt beam="1">  1        2 0.20569912E+00 0.18368250E+04</pdfrwt>
<pdfrwt beam="2">  1       -2 0.97054666E-01 0.18368250E+04</pdfrwt>
<totfact> 0.13127283E+01</totfact>
</mgrwt>
</event>
<event>
12    1  0.1598876E-007  0.1668918E+04  0.7818608E-02  0.8779293E-01
          1   -1    0    0  501    0  0.00000000000E+00  0.00000000000E+00  0.73275182170E+03  0.73275182170E+03  0.00000000000E+00 0. -1.
         -1   -1    0    0    0  501 -0.00000000000E+00 -0.00000000000E+00 -0.95028323441E+03  0.95028323441E+03  0.00000000000E+00 0.  1.
         23    2    1    2    0    0  0.25339681440E+01 -0.29162629044E+03 -0.58832180475E+03  0.66295081000E+03  0.91262896398E+02 0.  0.
        254    2    1    2    0    0 -0.25339681440E+01  0.29162629044E+03  0.37079039205E+03  0.10200842461E+04  0.90445234262E+03 0.  0.
        -24    2    4    4    0    0 -0.33767616236E+03 -0.13618745924E+03  0.27253192483E+03  0.46184650057E+03  0.80351262329E+02 0.  0.
         24    2    4    4    0    0  0.33514219421E+03  0.42781374968E+03  0.98258467212E+02  0.55823774554E+03  0.81423334548E+02 0.  0.
         11    1    3    3    0    0  0.42998413195E+02 -0.16908841301E+03 -0.29952618153E+03  0.34663480548E+03  0.00000000000E+00 0. -1.
        -11    1    3    3    0    0 -0.40464445051E+02 -0.12253787743E+03 -0.28879562323E+03  0.31631600452E+03  0.00000000000E+00 0.  1.
          2    1    6    6  502    0  0.38594926137E+02  0.29705284056E+02 -0.11020446044E+02  0.49934181233E+02  0.00000000000E+00 0. -1.
          1    1    5    5  503    0 -0.16359802922E+03 -0.75947908319E+02  0.86468868604E+02  0.20002316161E+03  0.00000000000E+00 0. -1.
         -2    1    5    5    0  503 -0.17407813314E+03 -0.60239550925E+02  0.18606305623E+03  0.26182333896E+03  0.00000000000E+00 0.  1.
         -3    1    6    6    0  502  0.29654726808E+03  0.39810846563E+03  0.10927891326E+03  0.50830356431E+03  0.00000000000E+00 0.  1.
<mgrwt>
<rscale>  0 0.16689179E+04</rscale>
<asrwt>0</asrwt>
<pdfrwt beam="1">  1        1 0.11273105E+00 0.16689179E+04</pdfrwt>
<pdfrwt beam="2">  1       -1 0.14619742E+00 0.16689179E+04</pdfrwt>
<totfact> 0.90580133E+00</totfact>
</mgrwt>
</event>
<event>
12    1  0.1598876E-007  0.1834705E+04  0.7818608E-02  0.8688058E-01
         -1   -1    0    0    0  501 -0.00000000000E+00  0.00000000000E+00  0.14834414244E+04  0.14834414244E+04  0.00000000000E+00 0.  1.
          1   -1    0    0  501    0  0.00000000000E+00 -0.00000000000E+00 -0.56728595539E+03  0.56728595539E+03  0.00000000000E+00 0. -1.
         23    2    1    2    0    0  0.68163489882E+03 -0.81346137128E+02  0.25575193454E+03  0.73820547127E+03  0.91076541809E+02 0.  0.
        254    2    1    2    0    0 -0.68163489882E+03  0.81346137128E+02  0.66040353451E+03  0.13125219086E+04  0.90296046576E+03 0.  0.
        -24    2    4    4    0    0 -0.50358912786E+03  0.26586090054E+02  0.87765065558E+03  0.10154736728E+04  0.81285159155E+02 0.  0.
         24    2    4    4    0    0 -0.17804577096E+03  0.54760047074E+02 -0.21724712108E+03  0.29704823572E+03  0.79639082201E+02 0.  0.
         11    1    3    3    0    0  0.30164554289E+03 -0.25643589497E+02  0.15992958531E+03  0.34238151160E+03  0.00000000000E+00 0. -1.
        -11    1    3    3    0    0  0.37998935593E+03 -0.55702547631E+02  0.95822349234E+02  0.39582395967E+03  0.00000000000E+00 0.  1.
          4    1    6    6  502    0 -0.12607355779E+03 -0.12432481604E+01 -0.13984850954E+03  0.18829151139E+03  0.00000000000E+00 0. -1.
          1    1    5    5  503    0 -0.39210983330E+03  0.52062926876E+02  0.65489678614E+03  0.76508200228E+03  0.00000000000E+00 0. -1.
         -2    1    5    5    0  503 -0.11147929456E+03 -0.25476836822E+02  0.22275386944E+03  0.25039167055E+03  0.00000000000E+00 0.  1.
         -3    1    6    6    0  502 -0.51972213168E+02  0.56003295235E+02 -0.77398611538E+02  0.10875672433E+03  0.00000000000E+00 0.  1.
<mgrwt>
<rscale>  0 0.18347049E+04</rscale>
<asrwt>0</asrwt>
<pdfrwt beam="1">  1        1 0.87274763E-01 0.18347049E+04</pdfrwt>
<pdfrwt beam="2">  1       -1 0.22822176E+00 0.18347049E+04</pdfrwt>
<totfact> 0.33871605E+00</totfact>
</mgrwt>
</event>
<event>
12    1  0.1598876E-007  0.1941288E+04  0.7818608E-02  0.8634573E-01
         -1   -1    0    0    0  501 -0.00000000000E+00  0.00000000000E+00  0.30078740224E+03  0.30078740224E+03  0.00000000000E+00 0.  1.
          1   -1    0    0  501    0  0.00000000000E+00 -0.00000000000E+00 -0.31322775438E+04  0.31322775438E+04  0.00000000000E+00 0. -1.
         23    2    1    2    0    0 -0.25233920272E+03 -0.71358707744E+03 -0.12765266715E+04  0.14868947734E+04  0.91946363260E+02 0.  0.
        254    2    1    2    0    0  0.25233920272E+03  0.71358707744E+03 -0.15549634700E+04  0.19461701727E+04  0.89262834229E+03 0.  0.
        -24    2    4    4    0    0 -0.12574113664E+02 -0.10353476793E+03  0.35891775731E+02  0.13641875560E+03  0.80276402573E+02 0.  0.
         24    2    4    4    0    0  0.26491331638E+03  0.81712184536E+03 -0.15908552458E+04  0.18097514171E+04  0.80700701175E+02 0.  0.
         13    1    3    3    0    0 -0.36960631962E+02 -0.19476186206E+03 -0.38741393385E+03  0.43518711765E+03  0.00000000000E+00 0. -1.
        -13    1    3    3    0    0 -0.21537857076E+03 -0.51882521538E+03 -0.88911273769E+03  0.10517076558E+04  0.00000000000E+00 0.  1.
          4    1    6    6  502    0  0.39156135517E+02  0.15677322424E+03 -0.24084996726E+03  0.29003405579E+03  0.00000000000E+00 0. -1.
          1    1    5    5  503    0 -0.22432079333E+02 -0.10573248321E+03  0.99056081941E+01  0.10853882836E+03  0.00000000000E+00 0. -1.
         -2    1    5    5    0  503  0.98579656689E+01  0.21977152800E+01  0.25986167537E+02  0.27879927239E+02  0.00000000000E+00 0.  1.
         -3    1    6    6    0  502  0.22575718087E+03  0.66034862112E+03 -0.13500052785E+04  0.15197173613E+04  0.00000000000E+00 0.  1.
<mgrwt>
<rscale>  0 0.19412878E+04</rscale>
<asrwt>0</asrwt>
<pdfrwt beam="1">  1        1 0.48188883E+00 0.19412878E+04</pdfrwt>
<pdfrwt beam="2">  1       -1 0.46274987E-01 0.19412878E+04</pdfrwt>
<totfact> 0.20752675E+00</totfact>
</mgrwt>
</event>
<event>
12    1  0.1598876E-007  0.2271418E+04  0.7818608E-02  0.8489276E-01
          2   -1    0    0  501    0  0.00000000000E+00  0.00000000000E+00  0.12059899289E+04  0.12059899289E+04  0.00000000000E+00 0. -1.
         -2   -1    0    0    0  501 -0.00000000000E+00 -0.00000000000E+00 -0.10695241703E+04  0.10695241703E+04  0.00000000000E+00 0.  1.
         23    2    1    2    0    0  0.25107788124E+03  0.60159896497E+03  0.76859959943E+03  0.10113269288E+04  0.84115370704E+02 0.  0.
        254    2    1    2    0    0 -0.25107788124E+03 -0.60159896497E+03 -0.63213384082E+03  0.12641871703E+04  0.87955363214E+03 0.  0.
        -24    2    4    4    0    0  0.18945547662E+03 -0.22878249935E+03  0.10473052716E+03  0.32464814075E+03  0.78696393433E+02 0.  0.
         24    2    4    4    0    0 -0.44053335787E+03 -0.37281646562E+03 -0.73686436798E+03  0.93953902958E+03  0.81870231993E+02 0.  0.
         11    1    3    3    0    0  0.23840249022E+03  0.56256434363E+03  0.74666621973E+03  0.96479263666E+03  0.00000000000E+00 0. -1.
        -11    1    3    3    0    0  0.12675391020E+02  0.39034621340E+02  0.21933379697E+02  0.46534292147E+02  0.00000000000E+00 0.  1.
          2    1    6    6  502    0 -0.83991810568E+01 -0.19823985316E+02 -0.51085661333E+02  0.55437184543E+02  0.00000000000E+00 0. -1.
          1    1    5    5  503    0  0.94253108030E+02 -0.15588244684E+03  0.91972153967E+02  0.20406337916E+03  0.00000000000E+00 0. -1.
         -2    1    5    5    0  503  0.95202368592E+02 -0.72900052510E+02  0.12758373190E+02  0.12058476159E+03  0.00000000000E+00 0.  1.
         -1    1    6    6    0  502 -0.43213417681E+03 -0.35299248030E+03 -0.68577870665E+03  0.88410184504E+03  0.00000000000E+00 0.  1.
<mgrwt>
<rscale>  0 0.22714184E+04</rscale>
<asrwt>0</asrwt>
<pdfrwt beam="1">  1        2 0.18553691E+00 0.22714184E+04</pdfrwt>
<pdfrwt beam="2">  1       -2 0.16454218E+00 0.22714184E+04</pdfrwt>
<totfact> 0.39827181E+00</totfact>
</mgrwt>
</event>
<event>
12    1  0.1598876E-007  0.2077089E+04  0.7818608E-02  0.8571403E-01
         -2   -1    0    0    0  501 -0.00000000000E+00  0.00000000000E+00  0.79005685208E+03  0.79005685208E+03  0.00000000000E+00 0.  1.
          2   -1    0    0  501    0  0.00000000000E+00 -0.00000000000E+00 -0.13651864850E+04  0.13651864850E+04  0.00000000000E+00 0. -1.
         23    2    1    2    0    0  0.61728782693E+03 -0.54693962542E+02 -0.82659748288E+03  0.10373184608E+04  0.93437142650E+02 0.  0.
        254    2    1    2    0    0 -0.61728782693E+03  0.54693962542E+02  0.25146784999E+03  0.11179248762E+04  0.89581485727E+03 0.  0.
        -24    2    4    4    0    0 -0.64540921770E+03  0.19699602058E+02  0.52029439815E+03  0.83393837525E+03  0.88350553807E+02 0.  0.
         24    2    4    4    0    0  0.28121390767E+02  0.34994360484E+02 -0.26882654816E+03  0.28398650098E+03  0.79782215169E+02 0.  0.
         13    1    3    3    0    0  0.56538312872E+02 -0.19263611013E+02 -0.45292446131E+02  0.74960477641E+02  0.00000000000E+00 0.  1.
        -13    1    3    3    0    0  0.56074951406E+03 -0.35430351529E+02 -0.78130503675E+03  0.96235798317E+03  0.00000000000E+00 0. -1.
          4    1    6    6  502    0  0.35043537123E+02  0.40859545893E+02 -0.26956188517E+03  0.27488390626E+03  0.00000000000E+00 0. -1.
          1    1    5    5  503    0 -0.50451013112E+03 -0.10008228100E+02  0.43734639889E+03  0.66775932016E+03  0.00000000000E+00 0. -1.
         -2    1    5    5    0  503 -0.14089908657E+03  0.29707830158E+02  0.82947999263E+02  0.16617905509E+03  0.00000000000E+00 0.  1.
         -3    1    6    6    0  502 -0.69221463557E+01 -0.58651854090E+01  0.73533701012E+00  0.91025947163E+01  0.00000000000E+00 0.  1.
<mgrwt>
<rscale>  0 0.20770892E+04</rscale>
<asrwt>0</asrwt>
<pdfrwt beam="1">  1        2 0.21002869E+00 0.20770892E+04</pdfrwt>
<pdfrwt beam="2">  1       -2 0.12154721E+00 0.20770892E+04</pdfrwt>
<totfact> 0.71967314E+00</totfact>
</mgrwt>
</event>
<event>
12    1  0.1598876E-007  0.2118270E+04  0.7818608E-02  0.8553238E-01
         -2   -1    0    0    0  501 -0.00000000000E+00  0.00000000000E+00  0.49812056736E+03  0.49812056736E+03  0.00000000000E+00 0.  1.
          2   -1    0    0  501    0  0.00000000000E+00 -0.00000000000E+00 -0.22519988629E+04  0.22519988629E+04  0.00000000000E+00 0. -1.
         23    2    1    2    0    0 -0.15742613788E+03  0.45099305788E+03 -0.16536118405E+04  0.17248569510E+04  0.11190020188E+03 0.  0.
        254    2    1    2    0    0  0.15742613788E+03 -0.45099305788E+03 -0.10026645502E+03  0.10252624793E+04  0.90162745202E+03 0.  0.
        -24    2    4    4    0    0  0.34359242619E+03 -0.62042779780E+03 -0.20353462065E+03  0.74201782420E+03  0.78598358831E+02 0.  0.
         24    2    4    4    0    0 -0.18616628831E+03  0.16943473992E+03  0.10326816563E+03  0.28324465506E+03  0.78722313182E+02 0.  0.
         11    1    3    3    0    0 -0.11433465442E+03  0.38751983950E+03 -0.14954722385E+04  0.15490904606E+04  0.00000000000E+00 0. -1.
        -11    1    3    3    0    0 -0.43091483458E+02  0.63473218377E+02 -0.15813960199E+03  0.17576649031E+03  0.00000000000E+00 0.  1.
          4    1    6    6  502    0 -0.18576441170E+02  0.17991410013E+02 -0.13278371808E+02  0.29070434443E+02  0.00000000000E+00 0. -1.
          3    1    5    5  503    0  0.52038416191E+01 -0.48353776895E+02 -0.19019080829E+02  0.52219662419E+02  0.00000000000E+00 0. -1.
         -4    1    5    5    0  503  0.33838858457E+03 -0.57207402090E+03 -0.18451553982E+03  0.68979816178E+03  0.00000000000E+00 0.  1.
         -1    1    6    6    0  502 -0.16758984714E+03  0.15144332991E+03  0.11654653744E+03  0.25417422062E+03  0.00000000000E+00 0.  1.
<mgrwt>
<rscale>  0 0.21182700E+04</rscale>
<asrwt>0</asrwt>
<pdfrwt beam="1">  1        2 0.34646136E+00 0.21182700E+04</pdfrwt>
<pdfrwt beam="2">  1       -2 0.76633934E-01 0.21182700E+04</pdfrwt>
<totfact> 0.67596092E+00</totfact>
</mgrwt>
</event>
<event>
12    1  0.1598876E-007  0.3034877E+04  0.7818608E-02  0.8233841E-01
         -2   -1    0    0    0  501 -0.00000000000E+00  0.00000000000E+00  0.95589512165E+03  0.95589512165E+03  0.00000000000E+00 0.  1.
          2   -1    0    0  501    0  0.00000000000E+00 -0.00000000000E+00 -0.24088626023E+04  0.24088626023E+04  0.00000000000E+00 0. -1.
         23    2    1    2    0    0  0.86545302844E+03  0.60342370825E+03  0.32338856777E+03  0.11064018356E+04  0.80098313611E+02 0.  0.
        254    2    1    2    0    0 -0.86545302844E+03 -0.60342370825E+03 -0.17763560484E+04  0.22583558883E+04  0.91192181229E+03 0.  0.
        -24    2    4    4    0    0 -0.65937226638E+03 -0.73515120556E+03 -0.17347835517E+04  0.19977394757E+04  0.79183084156E+02 0.  0.
         24    2    4    4    0    0 -0.20608076205E+03  0.13172749731E+03 -0.41572496703E+02  0.26061641267E+03  0.79819972657E+02 0.  0.
         11    1    3    3    0    0  0.81420986076E+03  0.57751775114E+03  0.28797065678E+03  0.10389377024E+04  0.00000000000E+00 0.  1.
        -11    1    3    3    0    0  0.51243167678E+02  0.25905957111E+02  0.35417910988E+02  0.67464133184E+02  0.00000000000E+00 0. -1.
          4    1    6    6  502    0 -0.14713070209E+03  0.10994193318E+03 -0.63066142515E+02  0.19419580454E+03  0.00000000000E+00 0. -1.
          3    1    5    5  503    0 -0.49277491660E+03 -0.52763723806E+03 -0.13299699739E+04  0.15132905554E+04  0.00000000000E+00 0. -1.
         -4    1    5    5    0  503 -0.16659734978E+03 -0.20751396750E+03 -0.40481357774E+03  0.48444892031E+03  0.00000000000E+00 0.  1.
         -3    1    6    6    0  502 -0.58950059962E+02  0.21785564126E+02  0.21493645812E+02  0.66420608129E+02  0.00000000000E+00 0.  1.
<mgrwt>
<rscale>  0 0.30348773E+04</rscale>
<asrwt>0</asrwt>
<pdfrwt beam="1">  1        2 0.37059424E+00 0.30348773E+04</pdfrwt>
<pdfrwt beam="2">  1       -2 0.14706079E+00 0.30348773E+04</pdfrwt>
<totfact> 0.10587448E+00</totfact>
</mgrwt>
</event>
<event>
12    1  0.1598876E-007  0.3159747E+04  0.7818608E-02  0.8199530E-01
          2   -1    0    0  501    0  0.00000000000E+00  0.00000000000E+00  0.27687197079E+04  0.27687197079E+04  0.00000000000E+00 0. -1.
         -2   -1    0    0    0  501 -0.00000000000E+00 -0.00000000000E+00 -0.90149970576E+03  0.90149970576E+03  0.00000000000E+00 0.  1.
         23    2    1    2    0    0 -0.49098890797E+03  0.23319434594E+03 -0.70404969077E+03  0.89564732225E+03  0.10511159809E+03 0.  0.
        254    2    1    2    0    0  0.49098890797E+03 -0.23319434594E+03  0.25712696929E+04  0.27745720914E+04  0.88959133653E+03 0.  0.
        -24    2    4    4    0    0 -0.75776008487E+02  0.14351721443E+03  0.14451314894E+04  0.14564059968E+04  0.79838660180E+02 0.  0.
         24    2    4    4    0    0  0.56676491646E+03 -0.37671156037E+03  0.11261382035E+04  0.13181660946E+04  0.78997020520E+02 0.  0.
         13    1    3    3    0    0 -0.11444701925E+03  0.88587886025E+02 -0.13333960439E+03  0.19678766187E+03  0.00000000000E+00 0. -1.
        -13    1    3    3    0    0 -0.37654188872E+03  0.14460645992E+03 -0.57071008638E+03  0.69885966038E+03  0.00000000000E+00 0.  1.
          4    1    6    6  502    0  0.48955277106E+03 -0.29018436554E+03  0.94118191126E+03  0.10998601146E+04  0.00000000000E+00 0. -1.
          1    1    5    5  503    0 -0.57178112328E+02  0.37944815855E+02  0.40586176471E+03  0.41162229972E+03  0.00000000000E+00 0. -1.
         -2    1    5    5    0  503 -0.18597896159E+02  0.10557239858E+03  0.10392697247E+04  0.10447836971E+04  0.00000000000E+00 0.  1.
         -3    1    6    6    0  502  0.77212145405E+02 -0.86527194833E+02  0.18495629228E+03  0.21830597999E+03  0.00000000000E+00 0.  1.
<mgrwt>
<rscale>  0 0.31597468E+04</rscale>
<asrwt>0</asrwt>
<pdfrwt beam="1">  1        2 0.42595687E+00 0.31597468E+04</pdfrwt>
<pdfrwt beam="2">  1       -2 0.13869226E+00 0.31597468E+04</pdfrwt>
<totfact> 0.75063111E-01</totfact>
</mgrwt>
</event>
<event>
12    1  0.1598876E-007  0.1219319E+04  0.7818608E-02  0.9096113E-01
         -1   -1    0    0    0  501 -0.00000000000E+00  0.00000000000E+00  0.93321851608E+03  0.93321851608E+03  0.00000000000E+00 0.  1.
          1   -1    0    0  501    0  0.00000000000E+00 -0.00000000000E+00 -0.39828277078E+03  0.39828277078E+03  0.00000000000E+00 0. -1.
         23    2    1    2    0    0 -0.56167249263E+02  0.26945405341E+03  0.21194698389E+03  0.35930927345E+03  0.91768094809E+02 0.  0.
        254    2    1    2    0    0  0.56167249263E+02 -0.26945405341E+03  0.32298876141E+03  0.97219201341E+03  0.87468584312E+03 0.  0.
        -24    2    4    4    0    0 -0.19613607645E+03 -0.28648998482E+03 -0.18286116517E+03  0.40105325737E+03  0.82822929370E+02 0.  0.
         24    2    4    4    0    0  0.25230332572E+03  0.17035931413E+02  0.50584992658E+03  0.57113875604E+03  0.79800622168E+02 0.  0.
         11    1    3    3    0    0 -0.44862803258E+02  0.26707329944E+03  0.21667491639E+03  0.34682681237E+03  0.00000000000E+00 0.  1.
        -11    1    3    3    0    0 -0.11304446005E+02  0.23807539653E+01 -0.47279324989E+01  0.12482461081E+02  0.00000000000E+00 0. -1.
          2    1    6    6  502    0  0.24211794048E+03  0.33851651163E+02  0.47990077142E+03  0.53858312432E+03  0.00000000000E+00 0. -1.
          3    1    5    5  503    0 -0.18525647376E+03 -0.28956815661E+03 -0.16867107968E+03  0.38290940379E+03  0.00000000000E+00 0. -1.
         -4    1    5    5    0  503 -0.10879602697E+02  0.30781717892E+01 -0.14190085492E+02  0.18143853578E+02  0.00000000000E+00 0.  1.
         -1    1    6    6    0  502  0.10185385233E+02 -0.16815719750E+02  0.25949155164E+02  0.32555631721E+02  0.00000000000E+00 0.  1.
<mgrwt>
<rscale>  0 0.12193192E+04</rscale>
<asrwt>0</asrwt>
<pdfrwt beam="1">  1        1 0.61274273E-01 0.12193192E+04</pdfrwt>
<pdfrwt beam="2">  1       -1 0.14357208E+00 0.12193192E+04</pdfrwt>
<totfact> 0.23396579E+01</totfact>
</mgrwt>
</event>
<event>
12    1  0.1598876E-007  0.1577575E+04  0.7818608E-02  0.8834444E-01
          1   -1    0    0  501    0  0.00000000000E+00  0.00000000000E+00  0.18648707241E+04  0.18648707241E+04  0.00000000000E+00 0. -1.
         -1   -1    0    0    0  501 -0.00000000000E+00 -0.00000000000E+00 -0.33363468904E+03  0.33363468904E+03  0.00000000000E+00 0.  1.
         23    2    1    2    0    0  0.45944732016E+03  0.51808227607E+02  0.87206739003E+03  0.99115471910E+03  0.90056715337E+02 0.  0.
        254    2    1    2    0    0 -0.45944732016E+03 -0.51808227607E+02  0.65916864501E+03  0.12073506940E+04  0.89967575456E+03 0.  0.
        -24    2    4    4    0    0 -0.19835199450E+03  0.39769482621E+03  0.15123139245E+03  0.47600697098E+03  0.78784604072E+02 0.  0.
         24    2    4    4    0    0 -0.26109532566E+03 -0.44950305382E+03  0.50793725256E+03  0.73134372304E+03  0.81483889365E+02 0.  0.
         13    1    3    3    0    0  0.12495793700E+03 -0.14448412273E+01  0.16341948798E+03  0.20572433653E+03  0.00000000000E+00 0.  1.
        -13    1    3    3    0    0  0.33448938316E+03  0.53253068834E+02  0.70864790205E+03  0.78543038257E+03  0.00000000000E+00 0. -1.
          4    1    6    6  502    0 -0.96204937735E+02 -0.23671451236E+03  0.27461686058E+03  0.37510474606E+03  0.00000000000E+00 0. -1.
          3    1    5    5  503    0 -0.16785466139E+03  0.34964560922E+03  0.10270796446E+03  0.40121835122E+03  0.00000000000E+00 0. -1.
         -4    1    5    5    0  503 -0.30497333112E+02  0.48049216993E+02  0.48523427990E+02  0.74788619752E+02  0.00000000000E+00 0.  1.
         -3    1    6    6    0  502 -0.16489038792E+03 -0.21278854146E+03  0.23332039198E+03  0.35623897698E+03  0.00000000000E+00 0.  1.
<mgrwt>
<rscale>  0 0.15775748E+04</rscale>
<asrwt>0</asrwt>
<pdfrwt beam="1">  1        1 0.28690318E+00 0.15775748E+04</pdfrwt>
<pdfrwt beam="2">  1       -1 0.51328415E-01 0.15775748E+04</pdfrwt>
<totfact> 0.13510971E+01</totfact>
</mgrwt>
</event>
<event>
12    1  0.1598876E-007  0.2000703E+04  0.7818608E-02  0.8606292E-01
          2   -1    0    0  501    0  0.00000000000E+00  0.00000000000E+00  0.14138990542E+04  0.14138990542E+04  0.00000000000E+00 0.  1.
         -2   -1    0    0    0  501 -0.00000000000E+00 -0.00000000000E+00 -0.70776135829E+03  0.70776135829E+03  0.00000000000E+00 0. -1.
         23    2    1    2    0    0 -0.29744596505E+03 -0.71627867825E+03  0.10774524322E+03  0.78831131878E+03  0.91084855161E+02 0.  0.
        254    2    1    2    0    0  0.29744596505E+03  0.71627867825E+03  0.59839245264E+03  0.13333490937E+04  0.90455349821E+03 0.  0.
        -24    2    4    4    0    0 -0.26240826165E+03  0.42292206479E+03  0.75835462352E+02  0.50936407372E+03  0.77327702508E+02 0.  0.
         24    2    4    4    0    0  0.55985422671E+03  0.29335661346E+03  0.52255699029E+03  0.82398501993E+03  0.79941523346E+02 0.  0.
         13    1    3    3    0    0 -0.23714735964E+03 -0.64592636228E+03  0.89587883295E+02  0.69389172391E+03  0.00000000000E+00 0. -1.
        -13    1    3    3    0    0 -0.60298605409E+02 -0.70352315972E+02  0.18157359924E+02  0.94419594875E+02  0.00000000000E+00 0.  1.
          2    1    6    6  502    0  0.37402379023E+03  0.23120540680E+03  0.33555798720E+03  0.55312647611E+03  0.00000000000E+00 0. -1.
          3    1    5    5  503    0 -0.23516035411E+03  0.35785486719E+03  0.39528022204E+02  0.43002669994E+03  0.00000000000E+00 0. -1.
         -4    1    5    5    0  503 -0.27247907544E+02  0.65067197603E+02  0.36307440148E+02  0.79337373788E+02  0.00000000000E+00 0.  1.
         -1    1    6    6    0  502  0.18583043647E+03  0.62151206655E+02  0.18699900309E+03  0.27085854383E+03  0.00000000000E+00 0.  1.
<mgrwt>
<rscale>  0 0.20007030E+04</rscale>
<asrwt>0</asrwt>
<pdfrwt beam="1">  1        2 0.21752293E+00 0.20007030E+04</pdfrwt>
<pdfrwt beam="2">  1       -2 0.10888636E+00 0.20007030E+04</pdfrwt>
<totfact> 0.88899486E+00</totfact>
</mgrwt>
</event>
<event>
12    1  0.1598876E-007  0.2983935E+04  0.7818608E-02  0.8248333E-01
         -1   -1    0    0    0  501 -0.00000000000E+00  0.00000000000E+00  0.27023684163E+04  0.27023684163E+04  0.00000000000E+00 0.  1.
          1   -1    0    0  501    0  0.00000000000E+00 -0.00000000000E+00 -0.82370941912E+03  0.82370941912E+03  0.00000000000E+00 0. -1.
         23    2    1    2    0    0 -0.13128143098E+04 -0.31711834904E+03  0.93479848486E+03  0.16450734282E+04  0.91503647606E+02 0.  0.
        254    2    1    2    0    0  0.13128143098E+04  0.31711834904E+03  0.94386051231E+03  0.18810044072E+04  0.90733646118E+03 0.  0.
        -24    2    4    4    0    0  0.34179663614E+03  0.41780056716E+03  0.38232108768E+02  0.54689861891E+03  0.79083189298E+02 0.  0.
         24    2    4    4    0    0  0.97101767368E+03 -0.10068221812E+03  0.90562840354E+03  0.13341057883E+04  0.81628532743E+02 0.  0.
         11    1    3    3    0    0 -0.18291682572E+03 -0.28331572129E+02  0.16261419577E+03  0.24638307526E+03  0.00000000000E+00 0. -1.
        -11    1    3    3    0    0 -0.11298974841E+04 -0.28878677691E+03  0.77218428910E+03  0.13986903530E+04  0.00000000000E+00 0.  1.
          4    1    6    6  502    0  0.58731575857E+02  0.63259119697E+01  0.76898406634E+02  0.96967933399E+02  0.00000000000E+00 0. -1.
          3    1    5    5  503    0  0.11232311744E+03  0.92587224272E+02  0.30906141878E+02  0.14880882506E+03  0.00000000000E+00 0. -1.
         -4    1    5    5    0  503  0.22947351870E+03  0.32521334289E+03  0.73259668903E+01  0.39808979385E+03  0.00000000000E+00 0.  1.
         -3    1    6    6    0  502  0.91228609783E+03 -0.10700813009E+03  0.82872999691E+03  0.12371378549E+04  0.00000000000E+00 0.  1.
<mgrwt>
<rscale>  0 0.29839345E+04</rscale>
<asrwt>0</asrwt>
<pdfrwt beam="1">  1        1 0.12672453E+00 0.29839345E+04</pdfrwt>
<pdfrwt beam="2">  1       -1 0.41574898E+00 0.29839345E+04</pdfrwt>
<totfact> 0.10015919E-01</totfact>
</mgrwt>
</event>
<event>
12    1  0.1769761E-007  0.1173808E+04  0.7818608E-02  0.9136096E-01
          1   -1    0    0  501    0  0.00000000000E+00  0.00000000000E+00  0.18409549260E+04  0.18409549260E+04  0.00000000000E+00 0. -1.
         -1   -1    0    0    0  501 -0.00000000000E+00 -0.00000000000E+00 -0.18710751343E+03  0.18710751343E+03  0.00000000000E+00 0.  1.
         23    2    1    2    0    0  0.31092007643E+02 -0.25872767565E+03  0.60918782542E+03  0.66921885322E+03  0.94007147498E+02 0.  0.
        254    2    1    2    0    0 -0.31092007643E+02  0.25872767565E+03  0.10446595871E+04  0.13588435862E+04  0.82899669220E+03 0.  0.
        -24    2    4    4    0    0 -0.60839656477E+01  0.49142323631E+03  0.98682050743E+03  0.11052510105E+04  0.78938397112E+02 0.  0.
         24    2    4    4    0    0 -0.25008041995E+02 -0.23269556066E+03  0.57839079695E+02  0.25359257567E+03  0.78684237191E+02 0.  0.
         13    1    3    3    0    0  0.19384679725E+02 -0.34212890502E+02  0.18503496075E+03  0.18916718633E+03  0.00000000000E+00 0. -1.
        -13    1    3    3    0    0  0.11707327918E+02 -0.22451478515E+03  0.42415286467E+03  0.48005166690E+03  0.00000000000E+00 0.  1.
          4    1    6    6  502    0 -0.10269952569E+02 -0.17559441621E+03  0.74956701573E+01  0.17605412804E+03  0.00000000000E+00 0. -1.
          1    1    5    5  503    0 -0.13218378809E+01  0.26757853931E+03  0.62335750387E+03  0.67836170262E+03  0.00000000000E+00 0. -1.
         -2    1    5    5    0  503 -0.47621277669E+01  0.22384469700E+03  0.36346300356E+03  0.42688930789E+03  0.00000000000E+00 0.  1.
         -3    1    6    6    0  502 -0.14738089426E+02 -0.57101144452E+02  0.50343409538E+02  0.77538447635E+02  0.00000000000E+00 0.  1.
<mgrwt>
<rscale>  0 0.11738083E+04</rscale>
<asrwt>0</asrwt>
<pdfrwt beam="1">  1        1 0.28322382E+00 0.11738083E+04</pdfrwt>
<pdfrwt beam="2">  1       -1 0.28785773E-01 0.11738083E+04</pdfrwt>
<totfact> 0.41610119E+01</totfact>
</mgrwt>
</event>
<event>
12    1  0.1598876E-007  0.3151985E+04  0.7818608E-02  0.8201614E-01
         -2   -1    0    0    0  501 -0.00000000000E+00  0.00000000000E+00  0.16007875365E+04  0.16007875365E+04  0.00000000000E+00 0. -1.
          2   -1    0    0  501    0  0.00000000000E+00 -0.00000000000E+00 -0.15515814288E+04  0.15515814288E+04  0.00000000000E+00 0.  1.
         23    2    1    2    0    0 -0.51276264451E+03 -0.57493085477E+03  0.12449487163E+04  0.14665955488E+04  0.86799656505E+02 0.  0.
        254    2    1    2    0    0  0.51276264451E+03  0.57493085477E+03 -0.11957426085E+04  0.16857734164E+04  0.90474339360E+03 0.  0.
        -24    2    4    4    0    0 -0.12963339045E+03  0.51547683617E+03 -0.52542635565E+03  0.75201541333E+03  0.83265491857E+02 0.  0.
         24    2    4    4    0    0  0.64239603497E+03  0.59454018600E+02 -0.67031625289E+03  0.93375800309E+03  0.79829088494E+02 0.  0.
         11    1    3    3    0    0 -0.40736096712E+03 -0.49654166621E+03  0.10675856398E+04  0.12458875078E+04  0.00000000000E+00 0. -1.
        -11    1    3    3    0    0 -0.10540167740E+03 -0.78389188562E+02  0.17736307646E+03  0.22070804103E+03  0.00000000000E+00 0.  1.
          4    1    6    6  502    0  0.19204361620E+02  0.16379480772E+02 -0.29948325807E+02  0.39166275215E+02  0.00000000000E+00 0. -1.
          3    1    5    5  503    0 -0.46665312519E+02  0.65362287853E+02 -0.77876621803E+02  0.11186888884E+03  0.00000000000E+00 0. -1.
         -4    1    5    5    0  503 -0.82968077935E+02  0.45011454831E+03 -0.44754973385E+03  0.64014652450E+03  0.00000000000E+00 0.  1.
         -3    1    6    6    0  502  0.62319167335E+03  0.43074537828E+02 -0.64036792709E+03  0.89459172787E+03  0.00000000000E+00 0.  1.
<mgrwt>
<rscale>  0 0.31519849E+04</rscale>
<asrwt>0</asrwt>
<pdfrwt beam="1">  1        2 0.23870484E+00 0.31519849E+04</pdfrwt>
<pdfrwt beam="2">  1       -2 0.24627500E+00 0.31519849E+04</pdfrwt>
<totfact> 0.67998048E-01</totfact>
</mgrwt>
</event>
<event>
12    1  0.1598876E-007  0.1476196E+04  0.7818608E-02  0.8900439E-01
         -1   -1    0    0    0  501 -0.00000000000E+00  0.00000000000E+00  0.94944025969E+03  0.94944025969E+03  0.00000000000E+00 0.  1.
          1   -1    0    0  501    0  0.00000000000E+00 -0.00000000000E+00 -0.57379953420E+03  0.57379953420E+03  0.00000000000E+00 0. -1.
         23    2    1    2    0    0 -0.11436092802E+03 -0.42263583247E+03  0.18547751657E+03  0.48424721626E+03  0.91618712942E+02 0.  0.
        254    2    1    2    0    0  0.11436092802E+03  0.42263583247E+03  0.19016320892E+03  0.10389925776E+04  0.92284563259E+03 0.  0.
        -24    2    4    4    0    0  0.24035007657E+03 -0.13625994418E+03 -0.19232240846E+03  0.34611248114E+03  0.80442582681E+02 0.  0.
         24    2    4    4    0    0 -0.12598914856E+03  0.55889577664E+03  0.38248561739E+03  0.69288009649E+03  0.74497153637E+02 0.  0.
         13    1    3    3    0    0  0.14452166712E+02 -0.27754033357E+02  0.20002335966E+02  0.37138187010E+02  0.00000000000E+00 0. -1.
        -13    1    3    3    0    0 -0.12881309473E+03 -0.39488179911E+03  0.16547518060E+03  0.44710902925E+03  0.00000000000E+00 0.  1.
          2    1    6    6  502    0 -0.72852287915E+02  0.44455557386E+03  0.31667277526E+03  0.55065303113E+03  0.00000000000E+00 0. -1.
          1    1    5    5  503    0  0.18406936215E+03 -0.12364639918E+03 -0.18337951705E+03  0.28774643245E+03  0.00000000000E+00 0. -1.
         -2    1    5    5    0  503  0.56280714421E+02 -0.12613544996E+02 -0.89428914134E+01  0.58366048692E+02  0.00000000000E+00 0.  1.
         -1    1    6    6    0  502 -0.53136860642E+02  0.11434020278E+03  0.65812842129E+02  0.14222706536E+03  0.00000000000E+00 0.  1.
<mgrwt>
<rscale>  0 0.14761956E+04</rscale>
<asrwt>0</asrwt>
<pdfrwt beam="1">  1        1 0.88276852E-01 0.14761956E+04</pdfrwt>
<pdfrwt beam="2">  1       -1 0.14606773E+00 0.14761956E+04</pdfrwt>
<totfact> 0.13264265E+01</totfact>
</mgrwt>
</event>
<event>
12    1  0.1598876E-007  0.2685954E+04  0.7818608E-02  0.8339577E-01
          1   -1    0    0  501    0  0.00000000000E+00  0.00000000000E+00  0.10215023520E+04  0.10215023520E+04  0.00000000000E+00 0. -1.
         -1   -1    0    0    0  501 -0.00000000000E+00 -0.00000000000E+00 -0.17656223585E+04  0.17656223585E+04  0.00000000000E+00 0.  1.
         23    2    1    2    0    0  0.33234146526E+03  0.85181660094E+03  0.46207131407E+03  0.10285578457E+04  0.91536722122E+02 0.  0.
        254    2    1    2    0    0 -0.33234146526E+03 -0.85181660094E+03 -0.12061913206E+04  0.17585668649E+04  0.89533096964E+03 0.  0.
        -24    2    4    4    0    0  0.65661928100E+02 -0.72747292441E+01  0.10458711924E+03  0.14733712907E+03  0.80033453028E+02 0.  0.
         24    2    4    4    0    0 -0.39800339336E+03 -0.84454187170E+03 -0.13107784398E+04  0.16112297358E+04  0.79142081274E+02 0.  0.
         11    1    3    3    0    0  0.28311849677E+03  0.61766818440E+03  0.33239639804E+03  0.75641089010E+03  0.00000000000E+00 0. -1.
        -11    1    3    3    0    0  0.49222968497E+02  0.23414841654E+03  0.12967491603E+03  0.27214695560E+03  0.00000000000E+00 0.  1.
          2    1    6    6  502    0 -0.26029648600E+03 -0.46029509292E+03 -0.74057261857E+03  0.90998551448E+03  0.00000000000E+00 0. -1.
          1    1    5    5  503    0 -0.18327763083E+02 -0.17100061017E+01  0.28163568542E+02  0.33645469435E+02  0.00000000000E+00 0. -1.
         -2    1    5    5    0  503  0.83989691183E+02 -0.55647231424E+01  0.76423550703E+02  0.11369165964E+03  0.00000000000E+00 0.  1.
         -1    1    6    6    0  502 -0.13770690737E+03 -0.38424677878E+03 -0.57020582123E+03  0.70124422130E+03  0.00000000000E+00 0.  1.
<mgrwt>
<rscale>  0 0.26859541E+04</rscale>
<asrwt>0</asrwt>
<pdfrwt beam="1">  1        1 0.15715421E+00 0.26859541E+04</pdfrwt>
<pdfrwt beam="2">  1       -1 0.27163421E+00 0.26859541E+04</pdfrwt>
<totfact> 0.64168921E-01</totfact>
</mgrwt>
</event>
<event>
12    1  0.1598876E-007  0.1437456E+04  0.7818608E-02  0.8927144E-01
         -2   -1    0    0    0  501 -0.00000000000E+00  0.00000000000E+00  0.42644323567E+03  0.42644323567E+03  0.00000000000E+00 0.  1.
          2   -1    0    0  501    0  0.00000000000E+00 -0.00000000000E+00 -0.12113449859E+04  0.12113449859E+04  0.00000000000E+00 0. -1.
         23    2    1    2    0    0 -0.24254805878E+03  0.33576179290E+03 -0.37473726157E+03  0.56608854995E+03  0.91992873532E+02 0.  0.
        254    2    1    2    0    0  0.24254805878E+03 -0.33576179290E+03 -0.41016448869E+03  0.10716996717E+04  0.89929958081E+03 0.  0.
        -24    2    4    4    0    0  0.31527514129E+03 -0.45403719268E+03 -0.60207872887E+03  0.82193015989E+03  0.86730645777E+02 0.  0.
         24    2    4    4    0    0 -0.72727082516E+02  0.11827539978E+03  0.19191424018E+03  0.24976951177E+03  0.79217641348E+02 0.  0.
         13    1    3    3    0    0 -0.20790145922E+03  0.30311753285E+03 -0.36397885505E+03  0.51728508812E+03  0.00000000000E+00 0. -1.
        -13    1    3    3    0    0 -0.34646599555E+02  0.32644260058E+02 -0.10758406516E+02  0.48803461827E+02  0.00000000000E+00 0.  1.
          4    1    6    6  502    0 -0.51487444627E+02  0.67800494669E+02  0.52585803451E+02  0.10006563224E+03  0.00000000000E+00 0. -1.
          1    1    5    5  503    0  0.13099823714E+03 -0.20366567145E+03 -0.20254008319E+03  0.31569404360E+03  0.00000000000E+00 0. -1.
         -2    1    5    5    0  503  0.18427690415E+03 -0.25037152123E+03 -0.39953864568E+03  0.50623611629E+03  0.00000000000E+00 0.  1.
         -3    1    6    6    0  502 -0.21239637889E+02  0.50474905109E+02  0.13932843673E+03  0.14970387952E+03  0.00000000000E+00 0.  1.
<mgrwt>
<rscale>  0 0.14374559E+04</rscale>
<asrwt>0</asrwt>
<pdfrwt beam="1">  1        2 0.18636077E+00 0.14374559E+04</pdfrwt>
<pdfrwt beam="2">  1       -2 0.65606651E-01 0.14374559E+04</pdfrwt>
<totfact> 0.38734754E+01</totfact>
</mgrwt>
</event>
<event>
12    1  0.1598876E-007  0.1386656E+04  0.7818608E-02  0.8963534E-01
          2   -1    0    0  501    0  0.00000000000E+00  0.00000000000E+00  0.28985820240E+04  0.28985820240E+04  0.00000000000E+00 0. -1.
         -2   -1    0    0    0  501 -0.00000000000E+00 -0.00000000000E+00 -0.16584108848E+03  0.16584108848E+03  0.00000000000E+00 0.  1.
         23    2    1    2    0    0  0.22476601649E+03 -0.31933496458E+03  0.98295281010E+03  0.10618234156E+04  0.93691820307E+02 0.  0.
        254    2    1    2    0    0 -0.22476601649E+03  0.31933496458E+03  0.17497881254E+04  0.20025996969E+04  0.89227376989E+03 0.  0.
        -24    2    4    4    0    0 -0.47119770949E+03  0.20856901777E+03  0.16002593163E+04  0.16829903184E+04  0.78091074430E+02 0.  0.
         24    2    4    4    0    0  0.24643169300E+03  0.11076594681E+03  0.14952880910E+03  0.31960937847E+03  0.82423393318E+02 0.  0.
         13    1    3    3    0    0  0.25362055066E+01 -0.15706030993E+02  0.11122748029E+03  0.11235953061E+03  0.00000000000E+00 0. -1.
        -13    1    3    3    0    0  0.22222981099E+03 -0.30362893359E+03  0.87172532981E+03  0.94946388496E+03  0.00000000000E+00 0.  1.
          2    1    6    6  502    0  0.38070206806E+02  0.38071700568E+02  0.62236722921E+02  0.82293406239E+02  0.00000000000E+00 0. -1.
          3    1    5    5  503    0 -0.17764942347E+02 -0.57735115331E+01  0.41003944321E+02  0.45058296261E+02  0.00000000000E+00 0. -1.
         -4    1    5    5    0  503 -0.45343276714E+03  0.21434252931E+03  0.15592553720E+04  0.16379320222E+04  0.00000000000E+00 0.  1.
         -1    1    6    6    0  502  0.20836148619E+03  0.72694246243E+02  0.87292086181E+02  0.23731597223E+03  0.00000000000E+00 0.  1.
<mgrwt>
<rscale>  0 0.13866564E+04</rscale>
<asrwt>0</asrwt>
<pdfrwt beam="1">  1        2 0.44593566E+00 0.13866564E+04</pdfrwt>
<pdfrwt beam="2">  1       -2 0.25514016E-01 0.13866564E+04</pdfrwt>
<totfact> 0.27334079E+01</totfact>
</mgrwt>
</event>
<event>
12    1  0.1598876E-007  0.1391006E+04  0.7818608E-02  0.8960355E-01
          2   -1    0    0  501    0  0.00000000000E+00  0.00000000000E+00  0.28965410491E+04  0.28965410491E+04  0.00000000000E+00 0.  1.
         -2   -1    0    0    0  501 -0.00000000000E+00 -0.00000000000E+00 -0.16700065990E+03  0.16700065990E+03  0.00000000000E+00 0. -1.
         23    2    1    2    0    0 -0.36305762570E+02  0.37252243704E+03  0.11006575225E+04  0.11658926180E+04  0.88133651276E+02 0.  0.
        254    2    1    2    0    0  0.36305762570E+02 -0.37252243704E+03  0.16288828667E+04  0.18976490910E+04  0.89873333336E+03 0.  0.
        -24    2    4    4    0    0  0.33377519580E+03 -0.29652842427E+03  0.33116366590E+03  0.56156119753E+03  0.79665658956E+02 0.  0.
         24    2    4    4    0    0 -0.29746943323E+03 -0.75994012764E+02  0.12977192008E+04  0.13360878935E+04  0.82417116950E+02 0.  0.
         11    1    3    3    0    0 -0.54688661165E+02  0.16128301348E+03  0.42927155467E+03  0.46181936701E+03  0.00000000000E+00 0. -1.
        -11    1    3    3    0    0  0.18382898595E+02  0.21123942356E+03  0.67138596782E+03  0.70407325102E+03  0.00000000000E+00 0.  1.
          4    1    6    6  502    0 -0.61529770854E+02 -0.51743232355E+02  0.35503604682E+03  0.36402454496E+03  0.00000000000E+00 0. -1.
          3    1    5    5  503    0  0.61432528668E+02 -0.10013281151E+03  0.77356804739E+02  0.14065777888E+03  0.00000000000E+00 0. -1.
         -4    1    5    5    0  503  0.27234266714E+03 -0.19639561276E+03  0.25380686117E+03  0.42090341865E+03  0.00000000000E+00 0.  1.
         -3    1    6    6    0  502 -0.23593966238E+03 -0.24250780410E+02  0.94268315402E+03  0.97206334851E+03  0.00000000000E+00 0.  1.
<mgrwt>
<rscale>  0 0.13910058E+04</rscale>
<asrwt>0</asrwt>
<pdfrwt beam="1">  1        2 0.44562166E+00 0.13910058E+04</pdfrwt>
<pdfrwt beam="2">  1       -2 0.25692411E-01 0.13910058E+04</pdfrwt>
<totfact> 0.27056164E+01</totfact>
</mgrwt>
</event>
<event>
12    1  0.1598876E-007  0.2170601E+04  0.7818608E-02  0.8530765E-01
         -1   -1    0    0    0  501 -0.00000000000E+00  0.00000000000E+00  0.57180823506E+03  0.57180823506E+03  0.00000000000E+00 0.  1.
          1   -1    0    0  501    0  0.00000000000E+00 -0.00000000000E+00 -0.20599162627E+04  0.20599162627E+04  0.00000000000E+00 0. -1.
         23    2    1    2    0    0  0.78703811759E+03  0.21278742638E+03 -0.10418127144E+04  0.13264559013E+04  0.96974423925E+02 0.  0.
        254    2    1    2    0    0 -0.78703811759E+03 -0.21278742638E+03 -0.44629531326E+03  0.13052685965E+04  0.91642736477E+03 0.  0.
        -24    2    4    4    0    0  0.17986528820E+03 -0.15546577886E+03 -0.50976720195E+02  0.25614620540E+03  0.80567501167E+02 0.  0.
         24    2    4    4    0    0 -0.96690340579E+03 -0.57321647526E+02 -0.39531859306E+03  0.10491223911E+04  0.78695832030E+02 0.  0.
         13    1    3    3    0    0  0.23863120795E+03  0.32077641588E+02 -0.25769470513E+03  0.35267604051E+03  0.00000000000E+00 0.  1.
        -13    1    3    3    0    0  0.54840690964E+03  0.18070978480E+03 -0.78411800923E+03  0.97377986078E+03  0.00000000000E+00 0. -1.
          4    1    6    6  502    0 -0.15756540352E+03 -0.20036927846E+02 -0.94880305947E+02  0.18501515430E+03  0.00000000000E+00 0. -1.
          3    1    5    5  503    0  0.95796905004E+02 -0.49054726298E+02 -0.54182826006E+02  0.12049560911E+03  0.00000000000E+00 0. -1.
         -4    1    5    5    0  503  0.84068383201E+02 -0.10641105256E+03  0.32061058110E+01  0.13565059630E+03  0.00000000000E+00 0.  1.
         -3    1    6    6    0  502 -0.80933800227E+03 -0.37284719680E+02 -0.30043828712E+03  0.86410723675E+03  0.00000000000E+00 0.  1.
<mgrwt>
<rscale>  0 0.21706009E+04</rscale>
<asrwt>0</asrwt>
<pdfrwt beam="1">  1        1 0.31691020E+00 0.21706009E+04</pdfrwt>
<pdfrwt beam="2">  1       -1 0.87970496E-01 0.21706009E+04</pdfrwt>
<totfact> 0.31498717E+00</totfact>
</mgrwt>
</event>
<event>
12    1  0.1598876E-007  0.1435069E+04  0.7818608E-02  0.8928818E-01
         -1   -1    0    0    0  501 -0.00000000000E+00  0.00000000000E+00  0.51663417330E+03  0.51663417330E+03  0.00000000000E+00 0.  1.
          1   -1    0    0  501    0  0.00000000000E+00 -0.00000000000E+00 -0.99655791275E+03  0.99655791275E+03  0.00000000000E+00 0. -1.
         23    2    1    2    0    0 -0.17078233908E+02  0.23907540385E+03 -0.51694710205E+03  0.57736776090E+03  0.93115574486E+02 0.  0.
        254    2    1    2    0    0  0.17078233908E+02 -0.23907540385E+03  0.37023362595E+02  0.93582432515E+03  0.90385160473E+03 0.  0.
        -24    2    4    4    0    0  0.13194504313E+03 -0.55413413928E+03 -0.58900275815E+02  0.57796431193E+03  0.78098429214E+02 0.  0.
         24    2    4    4    0    0 -0.11486680923E+03  0.31505873543E+03  0.95923638410E+02  0.35786001322E+03  0.80037828710E+02 0.  0.
         11    1    3    3    0    0  0.24449489060E+02  0.44721627851E+02 -0.17059464799E+03  0.17804588014E+03  0.00000000000E+00 0.  1.
        -11    1    3    3    0    0 -0.41527722968E+02  0.19435377600E+03 -0.34635245406E+03  0.39932188076E+03  0.00000000000E+00 0. -1.
          4    1    6    6  502    0 -0.17939820323E+02  0.44415242579E+01 -0.48958641093E+00  0.18487941633E+02  0.00000000000E+00 0. -1.
          1    1    5    5  503    0  0.70197620515E+02 -0.25043703479E+03 -0.64636238086E+02  0.26800048059E+03  0.00000000000E+00 0. -1.
         -4    1    5    5    0  503  0.61747422619E+02 -0.30369710449E+03  0.57359622713E+01  0.30996383134E+03  0.00000000000E+00 0.  1.
         -3    1    6    6    0  502 -0.96926988903E+02  0.31061721117E+03  0.96413224821E+02  0.33937207159E+03  0.00000000000E+00 0.  1.
<mgrwt>
<rscale>  0 0.14350692E+04</rscale>
<asrwt>0</asrwt>
<pdfrwt beam="1">  1        1 0.15331660E+00 0.14350692E+04</pdfrwt>
<pdfrwt beam="2">  1       -1 0.79482180E-01 0.14350692E+04</pdfrwt>
<totfact> 0.23421198E+01</totfact>
</mgrwt>
</event>
<event>
12    1  0.1598876E-007  0.1811466E+04  0.7818608E-02  0.8700226E-01
          2   -1    0    0  501    0  0.00000000000E+00  0.00000000000E+00  0.15467476974E+04  0.15467476974E+04  0.00000000000E+00 0. -1.
         -2   -1    0    0    0  501 -0.00000000000E+00 -0.00000000000E+00 -0.53037244618E+03  0.53037244618E+03  0.00000000000E+00 0.  1.
         23    2    1    2    0    0 -0.20879060459E+03 -0.52305388861E+03  0.96299558644E+02  0.57854677335E+03  0.90905868902E+02 0.  0.
        254    2    1    2    0    0  0.20879060459E+03  0.52305388861E+03  0.92007569253E+03  0.14985733702E+04  0.10401942025E+04 0.  0.
        -24    2    4    4    0    0  0.42935148407E+03  0.68048150311E+03  0.38947733457E+03  0.89749130032E+03  0.80001669172E+02 0.  0.
         24    2    4    4    0    0 -0.22056087948E+03 -0.15742761449E+03  0.53059835796E+03  0.60108206987E+03  0.79589458369E+02 0.  0.
         13    1    3    3    0    0 -0.10735192458E+03 -0.30350701460E+03  0.98578097663E+02  0.33668766678E+03  0.00000000000E+00 0.  1.
        -13    1    3    3    0    0 -0.10143868002E+03 -0.21954687401E+03 -0.22785390192E+01  0.24185910657E+03  0.00000000000E+00 0. -1.
          4    1    6    6  502    0 -0.77853879860E+02 -0.13892744904E+02  0.17187079780E+03  0.18919251070E+03  0.00000000000E+00 0. -1.
          3    1    5    5  503    0  0.56864732116E+02  0.52653905638E+02  0.51422593049E+02  0.93007067546E+02  0.00000000000E+00 0. -1.
         -4    1    5    5    0  503  0.37248675196E+03  0.62782759747E+03  0.33805474152E+03  0.80448423278E+03  0.00000000000E+00 0.  1.
         -3    1    6    6    0  502 -0.14270699962E+03 -0.14353486959E+03  0.35872756016E+03  0.41188955917E+03  0.00000000000E+00 0.  1.
<mgrwt>
<rscale>  0 0.18114661E+04</rscale>
<asrwt>0</asrwt>
<pdfrwt beam="1">  1        2 0.23796118E+00 0.18114661E+04</pdfrwt>
<pdfrwt beam="2">  1       -2 0.81595761E-01 0.18114661E+04</pdfrwt>
<totfact> 0.14896448E+01</totfact>
</mgrwt>
</event>
<event>
12    1  0.1598876E-007  0.1982270E+04  0.7818608E-02  0.8614955E-01
          1   -1    0    0  501    0  0.00000000000E+00  0.00000000000E+00  0.60119147422E+03  0.60119147422E+03  0.00000000000E+00 0. -1.
         -1   -1    0    0    0  501 -0.00000000000E+00 -0.00000000000E+00 -0.16340028135E+04  0.16340028135E+04  0.00000000000E+00 0.  1.
         23    2    1    2    0    0 -0.89354853028E+02 -0.93310704644E+02 -0.12850885939E+04  0.12945053283E+04  0.87178973098E+02 0.  0.
        254    2    1    2    0    0  0.89354853028E+02  0.93310704644E+02  0.25227725468E+03  0.94068895941E+03  0.89697309199E+03 0.  0.
        -24    2    4    4    0    0  0.75177580818E+02  0.30468877419E+03  0.50595624642E+03  0.60068329223E+03  0.79635271680E+02 0.  0.
         24    2    4    4    0    0  0.14177272210E+02 -0.21137806955E+03 -0.25367899174E+03  0.34000566718E+03  0.79806888961E+02 0.  0.
         11    1    3    3    0    0 -0.10590178797E+03 -0.68869154327E+02 -0.10487310190E+04  0.10563119327E+04  0.00000000000E+00 0.  1.
        -11    1    3    3    0    0  0.16546934938E+02 -0.24441550317E+02 -0.23635757495E+03  0.23819339553E+03  0.00000000000E+00 0. -1.
          4    1    6    6  502    0  0.16590523453E+02 -0.88124946904E+01 -0.46935177876E+02  0.50555083358E+02  0.00000000000E+00 0. -1.
          1    1    5    5  503    0  0.16498518204E+01  0.28402727736E+02  0.10128245737E+03  0.10520253383E+03  0.00000000000E+00 0. -1.
         -2    1    5    5    0  503  0.73527728998E+02  0.27628604646E+03  0.40467378906E+03  0.49548075840E+03  0.00000000000E+00 0.  1.
         -3    1    6    6    0  502 -0.24132512427E+01 -0.20256557486E+03 -0.20674381387E+03  0.28945058382E+03  0.00000000000E+00 0.  1.
<mgrwt>
<rscale>  0 0.19822700E+04</rscale>
<asrwt>0</asrwt>
<pdfrwt beam="1">  1        1 0.92490996E-01 0.19822700E+04</pdfrwt>
<pdfrwt beam="2">  1       -1 0.25138505E+00 0.19822700E+04</pdfrwt>
<totfact> 0.21664318E+00</totfact>
</mgrwt>
</event>
<event>
12    1  0.1598876E-007  0.3261598E+04  0.7818608E-02  0.8172736E-01
          2   -1    0    0  501    0  0.00000000000E+00  0.00000000000E+00  0.44865685463E+04  0.44865685463E+04  0.00000000000E+00 0. -1.
         -2   -1    0    0    0  501 -0.00000000000E+00 -0.00000000000E+00 -0.59277040829E+03  0.59277040829E+03  0.00000000000E+00 0.  1.
         23    2    1    2    0    0 -0.11147504798E+04 -0.77536012603E+03  0.79066119058E+03  0.15739895580E+04  0.91902410920E+02 0.  0.
        254    2    1    2    0    0  0.11147504798E+04  0.77536012603E+03  0.31031369474E+04  0.35053493966E+04  0.90231010206E+03 0.  0.
        -24    2    4    4    0    0  0.88359973318E+03  0.21845559911E+03  0.12067939251E+04  0.15137157246E+04  0.80699319075E+02 0.  0.
         24    2    4    4    0    0  0.23115074666E+03  0.55690452692E+03  0.18963430224E+04  0.19916336720E+04  0.83153503113E+02 0.  0.
         13    1    3    3    0    0 -0.77774224249E+03 -0.52445150115E+03  0.59203358149E+03  0.11092502578E+04  0.00000000000E+00 0. -1.
        -13    1    3    3    0    0 -0.33700823735E+03 -0.25090862488E+03  0.19862760909E+03  0.46473930022E+03  0.00000000000E+00 0.  1.
          4    1    6    6  502    0  0.31725291384E+02  0.73749464007E+02  0.17208313977E+03  0.18988966414E+03  0.00000000000E+00 0. -1.
          1    1    5    5  503    0  0.44998712681E+02  0.11705180825E+02  0.35977386468E+02  0.58790030942E+02  0.00000000000E+00 0. -1.
         -2    1    5    5    0  503  0.83860102050E+03  0.20675041828E+03  0.11708165386E+04  0.14549256937E+04  0.00000000000E+00 0.  1.
         -3    1    6    6    0  502  0.19942545527E+03  0.48315506292E+03  0.17242598826E+04  0.18017440078E+04  0.00000000000E+00 0.  1.
<mgrwt>
<rscale>  0 0.32615978E+04</rscale>
<asrwt>0</asrwt>
<pdfrwt beam="1">  1        2 0.69024129E+00 0.32615978E+04</pdfrwt>
<pdfrwt beam="2">  1       -2 0.91195450E-01 0.32615978E+04</pdfrwt>
<totfact> 0.10859107E-01</totfact>
</mgrwt>
</event>
<event>
12    1  0.1598876E-007  0.2245548E+04  0.7818608E-02  0.8499706E-01
          1   -1    0    0  501    0  0.00000000000E+00  0.00000000000E+00  0.10291970611E+04  0.10291970611E+04  0.00000000000E+00 0. -1.
         -1   -1    0    0    0  501 -0.00000000000E+00 -0.00000000000E+00 -0.12248590566E+04  0.12248590566E+04  0.00000000000E+00 0.  1.
         23    2    1    2    0    0  0.22703064326E+03 -0.51137356904E+03  0.67764707660E+03  0.88396060360E+03  0.95576922885E+02 0.  0.
        254    2    1    2    0    0 -0.22703064326E+03  0.51137356904E+03 -0.87330907216E+03  0.13700955141E+04  0.89523580249E+03 0.  0.
        -24    2    4    4    0    0 -0.33429336164E+02  0.27861486828E+03  0.12769230410E+03  0.32101279669E+03  0.89443422170E+02 0.  0.
         24    2    4    4    0    0 -0.19360130709E+03  0.23275870076E+03 -0.10010013763E+04  0.10490827174E+04  0.83142731030E+02 0.  0.
         13    1    3    3    0    0  0.10577245666E+03 -0.33507415720E+03  0.38225811841E+03  0.51921457270E+03  0.00000000000E+00 0. -1.
        -13    1    3    3    0    0  0.12125818660E+03 -0.17629941184E+03  0.29538895819E+03  0.36474603089E+03  0.00000000000E+00 0.  1.
          2    1    6    6  502    0 -0.11033076838E+03  0.70187492446E+02 -0.38759941669E+03  0.40906291737E+03  0.00000000000E+00 0. -1.
          1    1    5    5  503    0 -0.31381300013E+02  0.95184694758E+02  0.50523770213E+01  0.10035157508E+03  0.00000000000E+00 0. -1.
         -2    1    5    5    0  503 -0.20480361509E+01  0.18343017353E+03  0.12263992708E+03  0.22066122162E+03  0.00000000000E+00 0.  1.
         -1    1    6    6    0  502 -0.83270538709E+02  0.16257120831E+03 -0.61340195958E+03  0.64001980001E+03  0.00000000000E+00 0.  1.
<mgrwt>
<rscale>  0 0.22455479E+04</rscale>
<asrwt>0</asrwt>
<pdfrwt beam="1">  1        1 0.15833801E+00 0.22455479E+04</pdfrwt>
<pdfrwt beam="2">  1       -1 0.18843985E+00 0.22455479E+04</pdfrwt>
<totfact> 0.23632490E+00</totfact>
</mgrwt>
</event>
<event>
12    1  0.1598876E-007  0.2750920E+04  0.7818608E-02  0.8318670E-01
          2   -1    0    0  501    0  0.00000000000E+00  0.00000000000E+00  0.97105846308E+03  0.97105846308E+03  0.00000000000E+00 0. -1.
         -2   -1    0    0    0  501 -0.00000000000E+00 -0.00000000000E+00 -0.19482761661E+04  0.19482761661E+04  0.00000000000E+00 0.  1.
         23    2    1    2    0    0 -0.10077352356E+04  0.30793945068E+03 -0.11073697290E+04  0.15312316821E+04  0.89698034509E+02 0.  0.
        254    2    1    2    0    0  0.10077352356E+04 -0.30793945068E+03  0.13015202602E+03  0.13881029470E+04  0.89416622131E+03 0.  0.
        -24    2    4    4    0    0  0.98461628632E+02 -0.31741242463E+03  0.30655213999E+03  0.45845131646E+03  0.75881851618E+02 0.  0.
         24    2    4    4    0    0  0.90927360693E+03  0.94729739497E+01 -0.17640011397E+03  0.92965163055E+03  0.79163908990E+02 0.  0.
         11    1    3    3    0    0 -0.72293881282E+03  0.25612446842E+03 -0.77218812678E+03  0.10883541581E+04  0.00000000000E+00 0.  1.
        -11    1    3    3    0    0 -0.28479642274E+03  0.51814982265E+02 -0.33518160222E+03  0.44287752399E+03  0.00000000000E+00 0. -1.
          2    1    6    6  502    0  0.75666222924E+03  0.34549473373E+02 -0.13319645887E+03  0.76907261811E+03  0.00000000000E+00 0. -1.
          1    1    5    5  503    0  0.36116091625E+02 -0.11811926492E+03  0.66485787238E+02  0.14027434807E+03  0.00000000000E+00 0. -1.
         -2    1    5    5    0  503  0.62345537007E+02 -0.19929315971E+03  0.24006635275E+03  0.31817696839E+03  0.00000000000E+00 0.  1.
         -1    1    6    6    0  502  0.15261137768E+03 -0.25076499423E+02 -0.43203655096E+02  0.16057901244E+03  0.00000000000E+00 0.  1.
<mgrwt>
<rscale>  0 0.27509199E+04</rscale>
<asrwt>0</asrwt>
<pdfrwt beam="1">  1        2 0.14939361E+00 0.27509199E+04</pdfrwt>
<pdfrwt beam="2">  1       -2 0.29973479E+00 0.27509199E+04</pdfrwt>
<totfact> 0.73303645E-01</totfact>
</mgrwt>
</event>
<event>
12    1  0.1598876E-007  0.1441335E+04  0.7818608E-02  0.8924430E-01
          2   -1    0    0  501    0  0.00000000000E+00  0.00000000000E+00  0.92592118922E+03  0.92592118922E+03  0.00000000000E+00 0. -1.
         -2   -1    0    0    0  501 -0.00000000000E+00 -0.00000000000E+00 -0.56091379713E+03  0.56091379713E+03  0.00000000000E+00 0.  1.
         23    2    1    2    0    0 -0.17433452304E+02 -0.86518874873E+02  0.55463737907E+03  0.56893143183E+03  0.90944548482E+02 0.  0.
        254    2    1    2    0    0  0.17433452304E+02  0.86518874873E+02 -0.18962998697E+03  0.91790355452E+03  0.89375497899E+03 0.  0.
        -24    2    4    4    0    0 -0.40461646468E+02 -0.77854767367E+02 -0.52190192658E+03  0.53526716416E+03  0.80192308998E+02 0.  0.
         24    2    4    4    0    0  0.57895098772E+02  0.16437364224E+03  0.33227193960E+03  0.38263639036E+03  0.75069492183E+02 0.  0.
         11    1    3    3    0    0  0.25854806026E+01 -0.13840330056E+02  0.35894552248E+03  0.35922155775E+03  0.00000000000E+00 0. -1.
        -11    1    3    3    0    0 -0.20018932907E+02 -0.72678544817E+02  0.19569185659E+03  0.20970987408E+03  0.00000000000E+00 0.  1.
          2    1    6    6  502    0 -0.12099519979E+02  0.55046807563E+02  0.13713141974E+03  0.14826184838E+03  0.00000000000E+00 0. -1.
          1    1    5    5  503    0  0.12388475236E+02 -0.50901276206E+02 -0.33791894204E+03  0.34195559013E+03  0.00000000000E+00 0. -1.
         -2    1    5    5    0  503 -0.52850121704E+02 -0.26953491161E+02 -0.18398298454E+03  0.19331157402E+03  0.00000000000E+00 0.  1.
         -1    1    6    6    0  502  0.69994618752E+02  0.10932683468E+03  0.19514051987E+03  0.23437454198E+03  0.00000000000E+00 0.  1.
<mgrwt>
<rscale>  0 0.14413355E+04</rscale>
<asrwt>0</asrwt>
<pdfrwt beam="1">  1        2 0.14244941E+00 0.14413355E+04</pdfrwt>
<pdfrwt beam="2">  1       -2 0.86294430E-01 0.14413355E+04</pdfrwt>
<totfact> 0.31826399E+01</totfact>
</mgrwt>
</event>
<event>
12    1  0.1598876E-007  0.1286357E+04  0.7818608E-02  0.9040454E-01
          2   -1    0    0  501    0  0.00000000000E+00  0.00000000000E+00  0.51012024040E+03  0.51012024040E+03  0.00000000000E+00 0. -1.
         -2   -1    0    0    0  501 -0.00000000000E+00 -0.00000000000E+00 -0.81094360589E+03  0.81094360589E+03  0.00000000000E+00 0.  1.
         23    2    1    2    0    0 -0.13174987048E+03  0.15759211266E+03 -0.33443034760E+03  0.40379106264E+03  0.94922402630E+02 0.  0.
        254    2    1    2    0    0  0.13174987048E+03 -0.15759211266E+03  0.33606982109E+02  0.91727278365E+03  0.89334574944E+03 0.  0.
        -24    2    4    4    0    0 -0.17849000180E+03  0.15344157064E+03  0.30560778171E+03  0.39370833843E+03  0.78785424828E+02 0.  0.
         24    2    4    4    0    0  0.31023987229E+03 -0.31103368330E+03 -0.27200079960E+03  0.52356444522E+03  0.84525515744E+02 0.  0.
         13    1    3    3    0    0 -0.36330247782E+02 -0.32274221241E+01 -0.81056376160E+02  0.88884415246E+02  0.00000000000E+00 0. -1.
        -13    1    3    3    0    0 -0.95419622702E+02  0.16081953479E+03 -0.25337397144E+03  0.31490664739E+03  0.00000000000E+00 0.  1.
          2    1    6    6  502    0  0.60058363192E+02 -0.10774821723E+03 -0.95838874416E+02  0.15621067555E+03  0.00000000000E+00 0. -1.
          1    1    5    5  503    0 -0.35940190213E+02  0.17711236782E+02  0.15142105394E+02  0.42833030907E+02  0.00000000000E+00 0. -1.
         -2    1    5    5    0  503 -0.14254981159E+03  0.13573033386E+03  0.29046567632E+03  0.35087530752E+03  0.00000000000E+00 0.  1.
         -1    1    6    6    0  502  0.25018150909E+03 -0.20328546607E+03 -0.17616192518E+03  0.36735376967E+03  0.00000000000E+00 0.  1.
<mgrwt>
<rscale>  0 0.12863573E+04</rscale>
<asrwt>0</asrwt>
<pdfrwt beam="1">  1        2 0.78480038E-01 0.12863573E+04</pdfrwt>
<pdfrwt beam="2">  1       -2 0.12476055E+00 0.12863573E+04</pdfrwt>
<totfact> 0.28423654E+01</totfact>
</mgrwt>
</event>
<event>
12    1  0.1598876E-007  0.1644434E+04  0.7818608E-02  0.8793706E-01
         -1   -1    0    0    0  501 -0.00000000000E+00  0.00000000000E+00  0.77927599660E+03  0.77927599660E+03  0.00000000000E+00 0.  1.
          1   -1    0    0  501    0  0.00000000000E+00 -0.00000000000E+00 -0.86752401546E+03  0.86752401546E+03  0.00000000000E+00 0. -1.
         23    2    1    2    0    0  0.23123199954E+03 -0.19353080037E+03 -0.51834707662E+03  0.60750491255E+03  0.97242576232E+02 0.  0.
        254    2    1    2    0    0 -0.23123199954E+03  0.19353080037E+03  0.43009905777E+03  0.10392950995E+04  0.89678687327E+03 0.  0.
        -24    2    4    4    0    0  0.11459293914E+03  0.79625904680E+02 -0.23031421217E+03  0.28088540856E+03  0.79875841277E+02 0.  0.
         24    2    4    4    0    0 -0.34582493868E+03  0.11390489569E+03  0.66041326993E+03  0.75840969095E+03  0.80438540164E+02 0.  0.
         11    1    3    3    0    0  0.20455069605E+03 -0.20327498245E+03 -0.47467240677E+03  0.55540579714E+03  0.00000000000E+00 0. -1.
        -11    1    3    3    0    0  0.26681303485E+02  0.97441820864E+01 -0.43674669854E+02  0.52099115415E+02  0.00000000000E+00 0.  1.
          2    1    6    6  502    0 -0.88006215974E+02 -0.48077640953E+01  0.17981376714E+03  0.20025283893E+03  0.00000000000E+00 0. -1.
          3    1    5    5  503    0  0.63669899515E+02  0.77027416315E+02 -0.10193485523E+03  0.14275080973E+03  0.00000000000E+00 0. -1.
         -4    1    5    5    0  503  0.50923039629E+02  0.25984883656E+01 -0.12837935693E+03  0.13813459883E+03  0.00000000000E+00 0.  1.
         -1    1    6    6    0  502 -0.25781872271E+03  0.11871265978E+03  0.48059950279E+03  0.55815685202E+03  0.00000000000E+00 0.  1.
<mgrwt>
<rscale>  0 0.16444338E+04</rscale>
<asrwt>0</asrwt>
<pdfrwt beam="1">  1        1 0.13346523E+00 0.16444338E+04</pdfrwt>
<pdfrwt beam="2">  1       -1 0.11988862E+00 0.16444338E+04</pdfrwt>
<totfact> 0.11487159E+01</totfact>
</mgrwt>
</event>
<event>
12    1  0.1598876E-007  0.2563999E+04  0.7818608E-02  0.8380534E-01
         -2   -1    0    0    0  501 -0.00000000000E+00  0.00000000000E+00  0.55332677216E+03  0.55332677216E+03  0.00000000000E+00 0.  1.
          2   -1    0    0  501    0  0.00000000000E+00 -0.00000000000E+00 -0.29702559744E+04  0.29702559744E+04  0.00000000000E+00 0. -1.
         23    2    1    2    0    0  0.89866049772E+02  0.17112385353E+01 -0.26578935677E+04  0.26610064043E+04  0.92076224981E+02 0.  0.
        254    2    1    2    0    0 -0.89866049772E+02 -0.17112385353E+01  0.24096436546E+03  0.86257634228E+03  0.82334396554E+03 0.  0.
        -24    2    4    4    0    0 -0.32882488446E+03 -0.34753224959E+02 -0.16884978264E+03  0.38036796132E+03  0.82679777552E+02 0.  0.
         24    2    4    4    0    0  0.23895883469E+03  0.33041986423E+02  0.40981414810E+03  0.48220838095E+03  0.79901120997E+02 0.  0.
         11    1    3    3    0    0  0.22831546054E+02  0.93783441554E+01 -0.13672025151E+03  0.13893041426E+03  0.00000000000E+00 0.  1.
        -11    1    3    3    0    0  0.67034503718E+02 -0.76671056200E+01 -0.25211733162E+04  0.25220759900E+04  0.00000000000E+00 0. -1.
          4    1    6    6  502    0  0.79929198379E+02 -0.26613505734E+02  0.13917389066E+03  0.16268474816E+03  0.00000000000E+00 0. -1.
          1    1    5    5  503    0 -0.24012415142E+03  0.47761123355E+01 -0.14435705755E+03  0.28021666511E+03  0.00000000000E+00 0. -1.
         -2    1    5    5    0  503 -0.88700733048E+02 -0.39529337294E+02 -0.24492725085E+02  0.10015129621E+03  0.00000000000E+00 0.  1.
         -3    1    6    6    0  502  0.15902963631E+03  0.59655492158E+02  0.27064025744E+03  0.31952363280E+03  0.00000000000E+00 0.  1.
<mgrwt>
<rscale>  0 0.25639986E+04</rscale>
<asrwt>0</asrwt>
<pdfrwt beam="1">  1        2 0.45696246E+00 0.25639986E+04</pdfrwt>
<pdfrwt beam="2">  1       -2 0.85127194E-01 0.25639986E+04</pdfrwt>
<totfact> 0.19360808E+00</totfact>
</mgrwt>
</event>
<event>
12    1  0.1598876E-007  0.2920796E+04  0.7818608E-02  0.8266717E-01
         -2   -1    0    0    0  501 -0.00000000000E+00  0.00000000000E+00  0.73177814024E+03  0.73177814024E+03  0.00000000000E+00 0.  1.
          2   -1    0    0  501    0  0.00000000000E+00 -0.00000000000E+00 -0.29144932542E+04  0.29144932542E+04  0.00000000000E+00 0. -1.
         23    2    1    2    0    0  0.89507081292E+03 -0.30621221588E+03  0.15997709561E+03  0.96377823179E+03  0.91422796155E+02 0.  0.
        254    2    1    2    0    0 -0.89507081292E+03  0.30621221588E+03 -0.23426922096E+04  0.26824931627E+04  0.90146830093E+03 0.  0.
        -24    2    4    4    0    0  0.81905614636E+02  0.29490502866E+03 -0.72666258487E+03  0.79239624789E+03  0.78586231541E+02 0.  0.
         24    2    4    4    0    0 -0.97697642755E+03  0.11307187225E+02 -0.16160296248E+04  0.18900969148E+04  0.79396516197E+02 0.  0.
         13    1    3    3    0    0  0.12372367330E+03 -0.76970004603E+02  0.25646870231E+02  0.14795165053E+03  0.00000000000E+00 0. -1.
        -13    1    3    3    0    0  0.77134713962E+03 -0.22924221128E+03  0.13433022538E+03  0.81582658126E+03  0.00000000000E+00 0.  1.
          4    1    6    6  502    0 -0.31452087307E+03  0.29590163114E+02 -0.57382149907E+03  0.65503440379E+03  0.00000000000E+00 0. -1.
          3    1    5    5  503    0  0.52104260200E+02  0.64345518888E+02 -0.21519601008E+03  0.23057433180E+03  0.00000000000E+00 0. -1.
         -4    1    5    5    0  503  0.29801354436E+02  0.23055950977E+03 -0.51146657479E+03  0.56182191609E+03  0.00000000000E+00 0.  1.
         -1    1    6    6    0  502 -0.66245555448E+03 -0.18282975889E+02 -0.10422081257E+04  0.12350625110E+04  0.00000000000E+00 0.  1.
<mgrwt>
<rscale>  0 0.29207961E+04</rscale>
<asrwt>0</asrwt>
<pdfrwt beam="1">  1        2 0.44838357E+00 0.29207961E+04</pdfrwt>
<pdfrwt beam="2">  1       -2 0.11258125E+00 0.29207961E+04</pdfrwt>
<totfact> 0.10525688E+00</totfact>
</mgrwt>
</event>
<event>
12    1  0.1598876E-007  0.1799823E+04  0.7818608E-02  0.8706394E-01
          1   -1    0    0  501    0  0.00000000000E+00  0.00000000000E+00  0.41401447382E+04  0.41401447382E+04  0.00000000000E+00 0. -1.
         -1   -1    0    0    0  501 -0.00000000000E+00 -0.00000000000E+00 -0.19560676671E+03  0.19560676671E+03  0.00000000000E+00 0.  1.
         23    2    1    2    0    0 -0.48494046945E+03 -0.44389778962E+03  0.11574137431E+04  0.13342631831E+04  0.91864915358E+02 0.  0.
        254    2    1    2    0    0  0.48494046945E+03  0.44389778962E+03  0.27871242284E+04  0.30014883218E+04  0.89925423244E+03 0.  0.
        -24    2    4    4    0    0  0.26892347317E+03  0.25067407233E+02  0.23045798222E+04  0.23219262308E+04  0.85469614568E+02 0.  0.
         24    2    4    4    0    0  0.21601699628E+03  0.41883038239E+03  0.48254440624E+03  0.67956209101E+03  0.82905365575E+02 0.  0.
         13    1    3    3    0    0 -0.45031868452E+03 -0.42025942979E+03  0.11193735966E+04  0.12776549435E+04  0.00000000000E+00 0. -1.
        -13    1    3    3    0    0 -0.34621784929E+02 -0.23638359835E+02  0.38040146451E+02  0.56608239589E+02  0.00000000000E+00 0.  1.
          4    1    6    6  502    0  0.13921772025E+03  0.32078899408E+03  0.31388932804E+03  0.46990814274E+03  0.00000000000E+00 0. -1.
          3    1    5    5  503    0  0.22700097654E+03  0.20795268534E+02  0.16084931146E+04  0.16245651684E+04  0.00000000000E+00 0. -1.
         -4    1    5    5    0  503  0.41922496630E+02  0.42721386987E+01  0.69608670753E+03  0.69736106236E+03  0.00000000000E+00 0.  1.
         -3    1    6    6    0  502  0.76799276032E+02  0.98041388311E+02  0.16865507820E+03  0.20965394827E+03  0.00000000000E+00 0.  1.
<mgrwt>
<rscale>  0 0.17998226E+04</rscale>
<asrwt>0</asrwt>
<pdfrwt beam="1">  1        1 0.63694527E+00 0.17998226E+04</pdfrwt>
<pdfrwt beam="2">  1       -1 0.30093352E-01 0.17998226E+04</pdfrwt>
<totfact> 0.69708925E-01</totfact>
</mgrwt>
</event>
<event>
12    1  0.1598876E-007  0.2447476E+04  0.7818608E-02  0.8421940E-01
         -2   -1    0    0    0  501 -0.00000000000E+00  0.00000000000E+00  0.47251699818E+03  0.47251699818E+03  0.00000000000E+00 0.  1.
          2   -1    0    0  501    0  0.00000000000E+00 -0.00000000000E+00 -0.31692718936E+04  0.31692718936E+04  0.00000000000E+00 0. -1.
         23    2    1    2    0    0  0.21906530145E+03 -0.20224165187E+03  0.33879817135E+03  0.46044679513E+03  0.91300373386E+02 0.  0.
        254    2    1    2    0    0 -0.21906530145E+03  0.20224165187E+03 -0.30355530668E+04  0.31813420967E+04  0.90413705967E+03 0.  0.
        -24    2    4    4    0    0 -0.21747883487E+03  0.53602793475E+03 -0.22403131177E+04  0.23152084477E+04  0.81020370719E+02 0.  0.
         24    2    4    4    0    0 -0.15864665807E+01 -0.33378628288E+03 -0.79523994910E+03  0.86613364899E+03  0.79781713094E+02 0.  0.
         11    1    3    3    0    0  0.15677507116E+03 -0.13300524449E+03  0.28948513400E+03  0.35506402353E+03  0.00000000000E+00 0.  1.
        -11    1    3    3    0    0  0.62290230293E+02 -0.69236407377E+02  0.49313037353E+02  0.10538277160E+03  0.00000000000E+00 0. -1.
          4    1    6    6  502    0 -0.13198103206E+02 -0.31789579448E+03 -0.70050307546E+03  0.76937408639E+03  0.00000000000E+00 0. -1.
          1    1    5    5  503    0 -0.19225119221E+03  0.37810137533E+03 -0.16201573286E+04  0.16747629505E+04  0.00000000000E+00 0. -1.
         -2    1    5    5    0  503 -0.25227642655E+02  0.15792655942E+03 -0.62015578907E+03  0.64044549717E+03  0.00000000000E+00 0.  1.
         -3    1    6    6    0  502  0.11611636625E+02 -0.15890488397E+02 -0.94736873642E+02  0.96759562598E+02  0.00000000000E+00 0.  1.
<mgrwt>
<rscale>  0 0.24474761E+04</rscale>
<asrwt>0</asrwt>
<pdfrwt beam="1">  1        2 0.48758030E+00 0.24474761E+04</pdfrwt>
<pdfrwt beam="2">  1       -2 0.72694922E-01 0.24474761E+04</pdfrwt>
<totfact> 0.20824350E+00</totfact>
</mgrwt>
</event>
<event>
12    1  0.1598876E-007  0.1602031E+04  0.7818608E-02  0.8819301E-01
         -1   -1    0    0    0  501 -0.00000000000E+00  0.00000000000E+00  0.36725251268E+03  0.36725251268E+03  0.00000000000E+00 0.  1.
          1   -1    0    0  501    0  0.00000000000E+00 -0.00000000000E+00 -0.17470965492E+04  0.17470965492E+04  0.00000000000E+00 0. -1.
         23    2    1    2    0    0  0.13351873494E+02  0.29146617473E+03 -0.10836488595E+04  0.11258542325E+04  0.90122686304E+02 0.  0.
        254    2    1    2    0    0 -0.13351873494E+02 -0.29146617473E+03 -0.29619517708E+03  0.98849482944E+03  0.89680524161E+03 0.  0.
        -24    2    4    4    0    0  0.33958862880E+03 -0.43023305771E+03 -0.15538218172E+03  0.57532112717E+03  0.80186384241E+02 0.  0.
         24    2    4    4    0    0 -0.35294050230E+03  0.13876688298E+03 -0.14081299536E+03  0.41317370228E+03  0.84029534203E+02 0.  0.
         13    1    3    3    0    0  0.14481195727E+02  0.23644511139E+03 -0.98302151058E+03  0.10111613551E+04  0.00000000000E+00 0. -1.
        -13    1    3    3    0    0 -0.11293222321E+01  0.55021063339E+02 -0.10062734891E+03  0.11469287741E+03  0.00000000000E+00 0.  1.
          4    1    6    6  502    0 -0.27566460728E+03  0.13867556769E+03 -0.13115645619E+03  0.33529674138E+03  0.00000000000E+00 0. -1.
          3    1    5    5  503    0  0.32118106657E+03 -0.41317546518E+03 -0.16457479118E+03  0.54859466315E+03  0.00000000000E+00 0. -1.
         -4    1    5    5    0  503  0.18407562233E+02 -0.17057592528E+02  0.91926094601E+01  0.26726464018E+02  0.00000000000E+00 0.  1.
         -1    1    6    6    0  502 -0.77275895021E+02  0.91315284862E-01 -0.96565391658E+01  0.77876960896E+02  0.00000000000E+00 0.  1.
<mgrwt>
<rscale>  0 0.16020307E+04</rscale>
<asrwt>0</asrwt>
<pdfrwt beam="1">  1        1 0.26878408E+00 0.16020307E+04</pdfrwt>
<pdfrwt beam="2">  1       -1 0.56500387E-01 0.16020307E+04</pdfrwt>
<totfact> 0.13463212E+01</totfact>
</mgrwt>
</event>
<event>
12    1  0.1598876E-007  0.1547298E+04  0.7818608E-02  0.8853596E-01
          1   -1    0    0  501    0  0.00000000000E+00  0.00000000000E+00  0.63922128099E+03  0.63922128099E+03  0.00000000000E+00 0. -1.
         -1   -1    0    0    0  501 -0.00000000000E+00 -0.00000000000E+00 -0.93634626882E+03  0.93634626882E+03  0.00000000000E+00 0.  1.
         23    2    1    2    0    0  0.14783869672E+03 -0.45265947615E+03 -0.27159418149E+03  0.55606108443E+03  0.93186096621E+02 0.  0.
        254    2    1    2    0    0 -0.14783869672E+03  0.45265947615E+03 -0.25530806339E+02  0.10195064654E+04  0.90110195277E+03 0.  0.
        -24    2    4    4    0    0 -0.21325519950E+03 -0.84303529930E+02  0.29704997864E+03  0.38404564407E+03  0.81654771095E+02 0.  0.
         24    2    4    4    0    0  0.65416502782E+02  0.53696300608E+03 -0.32258078498E+03  0.63546082131E+03  0.84519251333E+02 0.  0.
         13    1    3    3    0    0  0.12826657238E+03 -0.40479816674E+03 -0.20438209008E+03  0.47125991568E+03  0.00000000000E+00 0.  1.
        -13    1    3    3    0    0  0.19572124339E+02 -0.47861309416E+02 -0.67212091404E+02  0.84801168748E+02  0.00000000000E+00 0. -1.
          2    1    6    6  502    0  0.20231468231E+02  0.42834922873E+03 -0.26883381812E+03  0.50612646228E+03  0.00000000000E+00 0. -1.
          3    1    5    5  503    0 -0.21318234079E+03 -0.73487041053E+02  0.29740287101E+03  0.37322315484E+03  0.00000000000E+00 0. -1.
         -4    1    5    5    0  503 -0.72858709562E-01 -0.10816488876E+02 -0.35289236278E+00  0.10822489225E+02  0.00000000000E+00 0.  1.
         -1    1    6    6    0  502  0.45185034551E+02  0.10861377735E+03 -0.53746966864E+02  0.12933435903E+03  0.00000000000E+00 0.  1.
<mgrwt>
<rscale>  0 0.15472976E+04</rscale>
<asrwt>0</asrwt>
<pdfrwt beam="1">  1        1 0.98341735E-01 0.15472976E+04</pdfrwt>
<pdfrwt beam="2">  1       -1 0.14405327E+00 0.15472976E+04</pdfrwt>
<totfact> 0.11698213E+01</totfact>
</mgrwt>
</event>
<event>
12    1  0.1598876E-007  0.1345001E+04  0.7818608E-02  0.8994621E-01
         -2   -1    0    0    0  501 -0.00000000000E+00  0.00000000000E+00  0.27323110710E+03  0.27323110710E+03  0.00000000000E+00 0. -1.
          2   -1    0    0  501    0  0.00000000000E+00 -0.00000000000E+00 -0.16552177480E+04  0.16552177480E+04  0.00000000000E+00 0.  1.
         23    2    1    2    0    0  0.14206404660E+02 -0.34853901030E+03 -0.20964320543E+03  0.41174801452E+03  0.62489120981E+02 0.  0.
        254    2    1    2    0    0 -0.14206404660E+02  0.34853901030E+03 -0.11723434355E+04  0.15167008406E+04  0.89683390072E+03 0.  0.
        -24    2    4    4    0    0 -0.36823429118E+02  0.17485820397E+03 -0.12815474530E+04  0.12963509033E+04  0.78933095486E+02 0.  0.
         24    2    4    4    0    0  0.22617024458E+02  0.17368080633E+03  0.10920401757E+03  0.22034993732E+03  0.77149369001E+02 0.  0.
         11    1    3    3    0    0  0.26979849508E+02 -0.23216004280E+03 -0.11140828732E+03  0.25891698329E+03  0.00000000000E+00 0.  1.
        -11    1    3    3    0    0 -0.12773444848E+02 -0.11637896750E+03 -0.98234918111E+02  0.15283103123E+03  0.00000000000E+00 0. -1.
          4    1    6    6  502    0  0.92967241036E+01  0.12413690060E+03  0.33523841647E+02  0.12891953742E+03  0.00000000000E+00 0. -1.
          1    1    5    5  503    0 -0.10681651870E+02  0.12895055558E+03 -0.10899551352E+04  0.10976085551E+04  0.00000000000E+00 0. -1.
         -2    1    5    5    0  503 -0.26141777248E+02  0.45907648390E+02 -0.19159231782E+03  0.19874234815E+03  0.00000000000E+00 0.  1.
         -3    1    6    6    0  502  0.13320300354E+02  0.49543905732E+02  0.75680175928E+02  0.91430399896E+02  0.00000000000E+00 0.  1.
<mgrwt>
<rscale>  0 0.13450011E+04</rscale>
<asrwt>0</asrwt>
<pdfrwt beam="1">  1        2 0.25464889E+00 0.13450011E+04</pdfrwt>
<pdfrwt beam="2">  1       -2 0.42035554E-01 0.13450011E+04</pdfrwt>
<totfact> 0.54424794E+01</totfact>
</mgrwt>
</event>
<event>
12    1  0.1598876E-007  0.3607519E+04  0.7818608E-02  0.8088772E-01
          1   -1    0    0  501    0  0.00000000000E+00  0.00000000000E+00  0.16938979778E+04  0.16938979778E+04  0.00000000000E+00 0. -1.
         -1   -1    0    0    0  501 -0.00000000000E+00 -0.00000000000E+00 -0.19207459319E+04  0.19207459319E+04  0.00000000000E+00 0.  1.
         23    2    1    2    0    0  0.78041131884E+03  0.36909069071E+03  0.13509396202E+04  0.16058300869E+04  0.91556791648E+02 0.  0.
        254    2    1    2    0    0 -0.78041131884E+03 -0.36909069071E+03 -0.15777875743E+04  0.20088138227E+04  0.89479024367E+03 0.  0.
        -24    2    4    4    0    0 -0.28863929403E+02  0.21336424791E+03 -0.60269264851E+03  0.64449820630E+03  0.76039993738E+02 0.  0.
         24    2    4    4    0    0 -0.75154738943E+03 -0.58245493862E+03 -0.97509492579E+03  0.13643156164E+04  0.80434773511E+02 0.  0.
         13    1    3    3    0    0  0.14053818078E+03  0.40719590670E+02  0.18438386215E+03  0.23538579809E+03  0.00000000000E+00 0.  1.
        -13    1    3    3    0    0  0.63987313805E+03  0.32837110004E+03  0.11665557581E+04  0.13704442889E+04  0.00000000000E+00 0. -1.
          2    1    6    6  502    0 -0.22720609452E+02 -0.37765287557E+02 -0.52205492947E+02  0.68321713474E+02  0.00000000000E+00 0. -1.
          1    1    5    5  503    0 -0.30787292782E+02  0.49091353926E+02 -0.23029318307E+03  0.23747161640E+03  0.00000000000E+00 0. -1.
         -2    1    5    5    0  503  0.19233633789E+01  0.16427289399E+03 -0.37239946544E+03  0.40702658990E+03  0.00000000000E+00 0.  1.
         -1    1    6    6    0  502 -0.72882677998E+03 -0.54468965107E+03 -0.92288943284E+03  0.12959939029E+04  0.00000000000E+00 0.  1.
<mgrwt>
<rscale>  0 0.36075186E+04</rscale>
<asrwt>0</asrwt>
<pdfrwt beam="1">  1        1 0.26059969E+00 0.36075186E+04</pdfrwt>
<pdfrwt beam="2">  1       -1 0.29549937E+00 0.36075186E+04</pdfrwt>
<totfact> 0.13740645E-01</totfact>
</mgrwt>
</event>
<event>
12    1  0.1598876E-007  0.1813048E+04  0.7818608E-02  0.8699391E-01
         -2   -1    0    0    0  501 -0.00000000000E+00  0.00000000000E+00  0.69706200555E+03  0.69706200555E+03  0.00000000000E+00 0.  1.
          2   -1    0    0  501    0  0.00000000000E+00 -0.00000000000E+00 -0.11789274439E+04  0.11789274439E+04  0.00000000000E+00 0. -1.
         23    2    1    2    0    0  0.44484518698E+03  0.34686330468E+03 -0.56853754356E+03  0.80613194221E+03  0.91719012761E+02 0.  0.
        254    2    1    2    0    0 -0.44484518698E+03 -0.34686330468E+03  0.86672105185E+02  0.10698575073E+04  0.90492079184E+03 0.  0.
        -24    2    4    4    0    0 -0.12543439556E+03  0.28925827938E+03 -0.78659307745E+02  0.33457202211E+03  0.79668133544E+02 0.  0.
         24    2    4    4    0    0 -0.31941079141E+03 -0.63612158407E+03  0.16533141293E+03  0.73528548515E+03  0.81463766103E+02 0.  0.
         13    1    3    3    0    0  0.42810532087E+03  0.33472446119E+03 -0.56704394014E+03  0.78540019144E+03  0.00000000000E+00 0. -1.
        -13    1    3    3    0    0  0.16739866106E+02  0.12138843498E+02 -0.14936034255E+01  0.20731750768E+02  0.00000000000E+00 0.  1.
          2    1    6    6  502    0 -0.31595191864E+03 -0.61379427759E+03  0.14613421552E+03  0.70563746998E+03  0.00000000000E+00 0. -1.
          3    1    5    5  503    0 -0.13673089233E+03  0.26477723608E+03 -0.75600345699E+02  0.30743736587E+03  0.00000000000E+00 0. -1.
         -4    1    5    5    0  503  0.11296496768E+02  0.24481043302E+02 -0.30589620456E+01  0.27134656239E+02  0.00000000000E+00 0.  1.
         -1    1    6    6    0  502 -0.34588727755E+01 -0.22327306472E+02  0.19197197406E+02  0.29648015169E+02  0.00000000000E+00 0.  1.
<mgrwt>
<rscale>  0 0.18130477E+04</rscale>
<asrwt>0</asrwt>
<pdfrwt beam="1">  1        2 0.18137345E+00 0.18130477E+04</pdfrwt>
<pdfrwt beam="2">  1       -2 0.10724031E+00 0.18130477E+04</pdfrwt>
<totfact> 0.12851105E+01</totfact>
</mgrwt>
</event>
<event>
12    1  0.1598876E-007  0.3060896E+04  0.7818608E-02  0.8226552E-01
          2   -1    0    0  501    0  0.00000000000E+00  0.00000000000E+00  0.24480856335E+04  0.24480856335E+04  0.00000000000E+00 0. -1.
         -2   -1    0    0    0  501 -0.00000000000E+00 -0.00000000000E+00 -0.95677648548E+03  0.95677648548E+03  0.00000000000E+00 0.  1.
         23    2    1    2    0    0  0.11057363443E+03  0.34335181310E+02 -0.86550219921E+03  0.87805162903E+03  0.92060703348E+02 0.  0.
        254    2    1    2    0    0 -0.11057363443E+03 -0.34335181310E+02  0.23568113472E+04  0.25268104900E+04  0.90377325274E+03 0.  0.
        -24    2    4    4    0    0  0.38123462429E+03 -0.99499328027E+02  0.12016823795E+04  0.12670772458E+04  0.78767065189E+02 0.  0.
         24    2    4    4    0    0 -0.49180825872E+03  0.65164146718E+02  0.11551289678E+04  0.12597332442E+04  0.80518227731E+02 0.  0.
         13    1    3    3    0    0  0.46697592067E+02 -0.19534726550E+01 -0.62086770505E+03  0.62262443603E+03  0.00000000000E+00 0.  1.
        -13    1    3    3    0    0  0.63876042366E+02  0.36288653965E+02 -0.24463449416E+03  0.25542719301E+03  0.00000000000E+00 0. -1.
          2    1    6    6  502    0 -0.44156055263E+03  0.72110317748E+02  0.97794280589E+03  0.10754291009E+04  0.00000000000E+00 0. -1.
          3    1    5    5  503    0  0.30931375445E+03 -0.11012993617E+03  0.95224451619E+03  0.10072602544E+04  0.00000000000E+00 0. -1.
         -4    1    5    5    0  503  0.71920869835E+02  0.10630608142E+02  0.24943786329E+03  0.25981699134E+03  0.00000000000E+00 0.  1.
         -1    1    6    6    0  502 -0.50247706086E+02 -0.69461710300E+01  0.17718616188E+03  0.18430414325E+03  0.00000000000E+00 0.  1.
<mgrwt>
<rscale>  0 0.30608958E+04</rscale>
<asrwt>0</asrwt>
<pdfrwt beam="1">  1        2 0.37662856E+00 0.30608958E+04</pdfrwt>
<pdfrwt beam="2">  1       -2 0.14719638E+00 0.30608958E+04</pdfrwt>
<totfact> 0.10005344E+00</totfact>
</mgrwt>
</event>
<event>
12    1  0.1598876E-007  0.1452897E+04  0.7818608E-02  0.8916394E-01
          2   -1    0    0  501    0  0.00000000000E+00  0.00000000000E+00  0.27690023614E+04  0.27690023614E+04  0.00000000000E+00 0. -1.
         -2   -1    0    0    0  501 -0.00000000000E+00 -0.00000000000E+00 -0.19058403748E+03  0.19058403748E+03  0.00000000000E+00 0.  1.
         23    2    1    2    0    0  0.20144989859E+03  0.11088313378E+03  0.15821141498E+04  0.16013675427E+04  0.91737085870E+02 0.  0.
        254    2    1    2    0    0 -0.20144989859E+03 -0.11088313378E+03  0.99630417416E+03  0.13582188562E+04  0.89401304400E+03 0.  0.
        -24    2    4    4    0    0 -0.44182728696E+03 -0.33610154642E+03  0.46996595545E+03  0.73184066692E+03  0.80914531860E+02 0.  0.
         24    2    4    4    0    0  0.24037738837E+03  0.22521841263E+03  0.52633821870E+03  0.62637818926E+03  0.82541464049E+02 0.  0.
         11    1    3    3    0    0  0.18492971660E+03  0.98797797646E+02  0.11626200913E+04  0.11813744037E+04  0.00000000000E+00 0. -1.
        -11    1    3    3    0    0  0.16520181993E+02  0.12085336135E+02  0.41949405846E+03  0.41999313904E+03  0.00000000000E+00 0.  1.
          2    1    6    6  502    0  0.15770464532E+03  0.16855244023E+03  0.29744675715E+03  0.37650398882E+03  0.00000000000E+00 0. -1.
          3    1    5    5  503    0 -0.35336184186E+03 -0.23789671174E+03  0.38878068150E+03  0.57672337827E+03  0.00000000000E+00 0. -1.
         -4    1    5    5    0  503 -0.88465445096E+02 -0.98204834671E+02  0.81185273957E+02  0.15511728864E+03  0.00000000000E+00 0.  1.
         -1    1    6    6    0  502  0.82672743047E+02  0.56665972407E+02  0.22889146156E+03  0.24987420044E+03  0.00000000000E+00 0.  1.
<mgrwt>
<rscale>  0 0.14528973E+04</rscale>
<asrwt>0</asrwt>
<pdfrwt beam="1">  1        2 0.42600033E+00 0.14528973E+04</pdfrwt>
<pdfrwt beam="2">  1       -2 0.29320623E-01 0.14528973E+04</pdfrwt>
<totfact> 0.25191611E+01</totfact>
</mgrwt>
</event>
<event>
12    1  0.1598876E-007  0.1830671E+04  0.7818608E-02  0.8690157E-01
         -2   -1    0    0    0  501 -0.00000000000E+00  0.00000000000E+00  0.88105938431E+03  0.88105938431E+03  0.00000000000E+00 0.  1.
          2   -1    0    0  501    0  0.00000000000E+00 -0.00000000000E+00 -0.95094461172E+03  0.95094461172E+03  0.00000000000E+00 0. -1.
         23    2    1    2    0    0  0.17786923205E+03 -0.47774292027E+03  0.43336453776E+03  0.67528681941E+03  0.91278169918E+02 0.  0.
        254    2    1    2    0    0 -0.17786923205E+03  0.47774292027E+03 -0.50324976516E+03  0.11567171766E+04  0.90821723116E+03 0.  0.
        -24    2    4    4    0    0 -0.13017452859E+03  0.29895352140E+03 -0.75925483916E+03  0.83036672898E+03  0.81990108875E+02 0.  0.
         24    2    4    4    0    0 -0.47694703458E+02  0.17878939887E+03  0.25600507400E+03  0.32635044764E+03  0.82009651118E+02 0.  0.
         11    1    3    3    0    0  0.62628433887E+02 -0.73113150176E+02  0.65682796099E+02  0.11654219478E+03  0.00000000000E+00 0. -1.
        -11    1    3    3    0    0  0.11524079816E+03 -0.40462977009E+03  0.36768174166E+03  0.55874462463E+03  0.00000000000E+00 0.  1.
          4    1    6    6  502    0  0.27876728748E+01  0.60152344486E+01 -0.56844357406E+01  0.87330965424E+01  0.00000000000E+00 0. -1.
          3    1    5    5  503    0 -0.65519990044E+02  0.15475674023E+03 -0.28949378504E+03  0.33473746327E+03  0.00000000000E+00 0. -1.
         -4    1    5    5    0  503 -0.64654538549E+02  0.14419678117E+03 -0.46976105412E+03  0.49562926571E+03  0.00000000000E+00 0.  1.
         -3    1    6    6    0  502 -0.50482376333E+02  0.17277416442E+03  0.26168950974E+03  0.31761735110E+03  0.00000000000E+00 0.  1.
<mgrwt>
<rscale>  0 0.18306706E+04</rscale>
<asrwt>0</asrwt>
<pdfrwt beam="1">  1        2 0.14629917E+00 0.18306706E+04</pdfrwt>
<pdfrwt beam="2">  1       -2 0.13554760E+00 0.18306706E+04</pdfrwt>
<totfact> 0.99681701E+00</totfact>
</mgrwt>
</event>
<event>
12    1  0.1598876E-007  0.1396231E+04  0.7818608E-02  0.8956552E-01
          1   -1    0    0  501    0  0.00000000000E+00  0.00000000000E+00  0.18033352263E+04  0.18033352263E+04  0.00000000000E+00 0. -1.
         -1   -1    0    0    0  501 -0.00000000000E+00 -0.00000000000E+00 -0.27025758293E+03  0.27025758293E+03  0.00000000000E+00 0.  1.
         23    2    1    2    0    0 -0.28067872862E+03 -0.26010889768E+03  0.65071092436E+03  0.75995269808E+03  0.87556889426E+02 0.  0.
        254    2    1    2    0    0  0.28067872862E+03  0.26010889768E+03  0.88236671899E+03  0.13136401111E+04  0.89478607914E+03 0.  0.
        -24    2    4    4    0    0  0.23904391298E+03 -0.29223899179E+03  0.51789898837E+03  0.64649539164E+03  0.84801583692E+02 0.  0.
         24    2    4    4    0    0  0.41634815640E+02  0.55234788947E+03  0.36446773061E+03  0.66714471949E+03  0.73645781982E+02 0.  0.
         13    1    3    3    0    0 -0.13354057168E+02 -0.14525259368E+02  0.69896714524E+01  0.20932498885E+02  0.00000000000E+00 0. -1.
        -13    1    3    3    0    0 -0.26732467145E+03 -0.24558363831E+03  0.64372125291E+03  0.73902019920E+03  0.00000000000E+00 0.  1.
          4    1    6    6  502    0  0.12085301765E+02  0.47645853176E+03  0.29882089789E+03  0.56254130161E+03  0.00000000000E+00 0. -1.
          1    1    5    5  503    0  0.15720338462E+03 -0.19598035539E+03  0.27357474078E+03  0.37143551612E+03  0.00000000000E+00 0. -1.
         -2    1    5    5    0  503  0.81840528352E+02 -0.96258636400E+02  0.24432424759E+03  0.27505987552E+03  0.00000000000E+00 0.  1.
         -3    1    6    6    0  502  0.29549513875E+02  0.75889357714E+02  0.65646832726E+02  0.10460341788E+03  0.00000000000E+00 0.  1.
<mgrwt>
<rscale>  0 0.13962307E+04</rscale>
<asrwt>0</asrwt>
<pdfrwt beam="1">  1        1 0.27743618E+00 0.13962307E+04</pdfrwt>
<pdfrwt beam="2">  1       -1 0.41578091E-01 0.13962307E+04</pdfrwt>
<totfact> 0.22430519E+01</totfact>
</mgrwt>
</event>
<event>
12    1  0.1598876E-007  0.1770183E+04  0.7818608E-02  0.8722319E-01
         -1   -1    0    0    0  501 -0.00000000000E+00  0.00000000000E+00  0.58830777827E+03  0.58830777827E+03  0.00000000000E+00 0.  1.
          1   -1    0    0  501    0  0.00000000000E+00 -0.00000000000E+00 -0.13315935449E+04  0.13315935449E+04  0.00000000000E+00 0. -1.
         23    2    1    2    0    0 -0.23353260515E+03  0.21829802769E+03 -0.90421844723E+03  0.96337817054E+03  0.91076849984E+02 0.  0.
        254    2    1    2    0    0  0.23353260515E+03 -0.21829802769E+03  0.16093268065E+03  0.95652315258E+03  0.88704323861E+03 0.  0.
        -24    2    4    4    0    0  0.54367326669E+03 -0.13131650602E+03 -0.44203597678E+02  0.56661712674E+03  0.79223510430E+02 0.  0.
         24    2    4    4    0    0 -0.31014066154E+03 -0.86981521673E+02  0.20513627833E+03  0.38990602584E+03  0.78694353322E+02 0.  0.
         13    1    3    3    0    0 -0.34012184405E+01  0.20439517519E+02 -0.21132825443E+02  0.29596257779E+02  0.00000000000E+00 0.  1.
        -13    1    3    3    0    0 -0.23013138671E+03  0.19785851017E+03 -0.88308562179E+03  0.93378191277E+03  0.00000000000E+00 0. -1.
          4    1    6    6  502    0 -0.26825443169E+01  0.15268998358E+01 -0.58800311605E+01  0.66409512549E+01  0.00000000000E+00 0. -1.
          3    1    5    5  503    0  0.56016365008E+02 -0.15298977831E+02  0.19641412885E+02  0.61299893732E+02  0.00000000000E+00 0. -1.
         -4    1    5    5    0  503  0.48765690168E+03 -0.11601752819E+03 -0.63845010563E+02  0.50531723301E+03  0.00000000000E+00 0.  1.
         -3    1    6    6    0  502 -0.30745811722E+03 -0.88508421509E+02  0.21101630949E+03  0.38326507458E+03  0.00000000000E+00 0.  1.
<mgrwt>
<rscale>  0 0.17701829E+04</rscale>
<asrwt>0</asrwt>
<pdfrwt beam="1">  1        1 0.20486054E+00 0.17701829E+04</pdfrwt>
<pdfrwt beam="2">  1       -1 0.90508890E-01 0.17701829E+04</pdfrwt>
<totfact> 0.96924156E+00</totfact>
</mgrwt>
</event>
<event>
12    1  0.1598876E-007  0.1935053E+04  0.7818608E-02  0.8637602E-01
          1   -1    0    0  501    0  0.00000000000E+00  0.00000000000E+00  0.10139931300E+04  0.10139931300E+04  0.00000000000E+00 0. -1.
         -1   -1    0    0    0  501 -0.00000000000E+00 -0.00000000000E+00 -0.92318907647E+03  0.92318907647E+03  0.00000000000E+00 0.  1.
         23    2    1    2    0    0 -0.31822578231E+03  0.57554886041E+03 -0.21367478401E+03  0.69758188137E+03  0.91866363011E+02 0.  0.
        254    2    1    2    0    0  0.31822578231E+03 -0.57554886041E+03  0.30447883759E+03  0.12396003252E+04  0.10056726427E+04 0.  0.
        -24    2    4    4    0    0  0.60753803466E+03 -0.63328085830E+03  0.13735606187E+03  0.89168208300E+03  0.77994489270E+02 0.  0.
         24    2    4    4    0    0 -0.28931225234E+03  0.57731997897E+02  0.16712277572E+03  0.34791824216E+03  0.77990500203E+02 0.  0.
         13    1    3    3    0    0 -0.19239607065E+03  0.28092168256E+03 -0.75932199549E+02  0.34885374967E+03  0.00000000000E+00 0. -1.
        -13    1    3    3    0    0 -0.12582971166E+03  0.29462717785E+03 -0.13774258446E+03  0.34872813170E+03  0.00000000000E+00 0.  1.
          4    1    6    6  502    0 -0.89278805959E+02 -0.45698930594E+01  0.83527260721E+02  0.12234538160E+03  0.00000000000E+00 0. -1.
          1    1    5    5  503    0  0.42965831026E+03 -0.41161556203E+03  0.66056520217E+02  0.59866275844E+03  0.00000000000E+00 0. -1.
         -4    1    5    5    0  503  0.17787972439E+03 -0.22166529627E+03  0.71299541649E+02  0.29301932455E+03  0.00000000000E+00 0.  1.
         -3    1    6    6    0  502 -0.20003344638E+03  0.62301890957E+02  0.83595515001E+02  0.22557286055E+03  0.00000000000E+00 0.  1.
<mgrwt>
<rscale>  0 0.19350528E+04</rscale>
<asrwt>0</asrwt>
<pdfrwt beam="1">  1        1 0.15599894E+00 0.19350528E+04</pdfrwt>
<pdfrwt beam="2">  1       -1 0.14202909E+00 0.19350528E+04</pdfrwt>
<totfact> 0.55558377E+00</totfact>
</mgrwt>
</event>
<event>
12    1  0.1598876E-007  0.1947752E+04  0.7818608E-02  0.8631446E-01
          2   -1    0    0  501    0  0.00000000000E+00  0.00000000000E+00  0.19188734646E+04  0.19188734646E+04  0.00000000000E+00 0. -1.
         -2   -1    0    0    0  501 -0.00000000000E+00 -0.00000000000E+00 -0.49426628601E+03  0.49426628601E+03  0.00000000000E+00 0.  1.
         23    2    1    2    0    0 -0.55463345616E+03 -0.51209002511E+03  0.68464971502E+03  0.10233612407E+04  0.93104952890E+02 0.  0.
        254    2    1    2    0    0  0.55463345616E+03  0.51209002511E+03  0.73995746358E+03  0.13897785099E+04  0.90227090951E+03 0.  0.
        -24    2    4    4    0    0  0.67277723771E+03  0.38167820921E+03  0.86110848566E+03  0.11602865289E+04  0.80309016500E+02 0.  0.
         24    2    4    4    0    0 -0.11814378156E+03  0.13041181590E+03 -0.12115102208E+03  0.22949198098E+03  0.83808140040E+02 0.  0.
         11    1    3    3    0    0 -0.25806140766E+02 -0.34640222843E+02  0.70719717742E+02  0.82868452486E+02  0.00000000000E+00 0. -1.
        -11    1    3    3    0    0 -0.52882731539E+03 -0.47744980226E+03  0.61392999728E+03  0.94049278824E+03  0.00000000000E+00 0.  1.
          4    1    6    6  502    0 -0.11868636048E+03  0.13955658031E+03 -0.12228128587E+03  0.22026167198E+03  0.00000000000E+00 0. -1.
          3    1    5    5  503    0  0.33998352759E+03  0.21041094728E+03  0.50002264257E+03  0.64022199966E+03  0.00000000000E+00 0. -1.
         -4    1    5    5    0  503  0.33279371012E+03  0.17126726193E+03  0.36108584309E+03  0.52006452925E+03  0.00000000000E+00 0.  1.
         -3    1    6    6    0  502  0.54257892608E+00 -0.91447644090E+01  0.11302637843E+01  0.92303089985E+01  0.00000000000E+00 0.  1.
<mgrwt>
<rscale>  0 0.19477520E+04</rscale>
<asrwt>0</asrwt>
<pdfrwt beam="1">  1        2 0.29521130E+00 0.19477520E+04</pdfrwt>
<pdfrwt beam="2">  1       -2 0.76040968E-01 0.19477520E+04</pdfrwt>
<totfact> 0.10708755E+01</totfact>
</mgrwt>
</event>
<event>
12    1  0.1598876E-007  0.1974773E+04  0.7818608E-02  0.8618507E-01
          1   -1    0    0  501    0  0.00000000000E+00  0.00000000000E+00  0.97537786995E+03  0.97537786995E+03  0.00000000000E+00 0. -1.
         -1   -1    0    0    0  501 -0.00000000000E+00 -0.00000000000E+00 -0.99954319570E+03  0.99954319570E+03  0.00000000000E+00 0.  1.
         23    2    1    2    0    0  0.78055706347E+02  0.10064885274E+03 -0.78094609359E+03  0.79674616114E+03  0.93299299873E+02 0.  0.
        254    2    1    2    0    0 -0.78055706347E+02 -0.10064885274E+03  0.75678076784E+03  0.11781749045E+04  0.89395530660E+03 0.  0.
        -24    2    4    4    0    0 -0.45108522902E+03  0.52660577037E+02  0.55174612306E+03  0.71893351201E+03  0.78680303547E+02 0.  0.
         24    2    4    4    0    0  0.37302952267E+03 -0.15330942978E+03  0.20503464478E+03  0.45924139251E+03  0.78794955334E+02 0.  0.
         11    1    3    3    0    0 -0.10571085682E+02  0.58053144268E+02 -0.26150947162E+03  0.26808416432E+03  0.00000000000E+00 0.  1.
        -11    1    3    3    0    0  0.88626792029E+02  0.42595708476E+02 -0.51943662196E+03  0.52866199682E+03  0.00000000000E+00 0. -1.
          4    1    6    6  502    0  0.23073007167E+03 -0.91722849385E+02  0.16810938129E+03  0.29985031457E+03  0.00000000000E+00 0. -1.
          1    1    5    5  503    0 -0.24465189245E+03  0.20113400905E+01  0.24960282070E+03  0.34951418007E+03  0.00000000000E+00 0. -1.
         -2    1    5    5    0  503 -0.20643333657E+03  0.50649236946E+02  0.30214330236E+03  0.36941933194E+03  0.00000000000E+00 0.  1.
         -3    1    6    6    0  502  0.14229945100E+03 -0.61586580395E+02  0.36925263488E+02  0.15939107793E+03  0.00000000000E+00 0.  1.
<mgrwt>
<rscale>  0 0.19747732E+04</rscale>
<asrwt>0</asrwt>
<pdfrwt beam="1">  1        1 0.15005813E+00 0.19747732E+04</pdfrwt>
<pdfrwt beam="2">  1       -1 0.15377588E+00 0.19747732E+04</pdfrwt>
<totfact> 0.47971733E+00</totfact>
</mgrwt>
</event>
<event>
12    1  0.1598876E-007  0.1595794E+04  0.7818608E-02  0.8823136E-01
          2   -1    0    0  501    0  0.00000000000E+00  0.00000000000E+00  0.40283566894E+04  0.40283566894E+04  0.00000000000E+00 0. -1.
         -2   -1    0    0    0  501 -0.00000000000E+00 -0.00000000000E+00 -0.15803953278E+03  0.15803953278E+03  0.00000000000E+00 0.  1.
         23    2    1    2    0    0 -0.32317518109E+03 -0.89543661859E+02  0.24206406852E+04  0.24454873646E+04  0.91906790346E+02 0.  0.
        254    2    1    2    0    0  0.32317518109E+03  0.89543661859E+02  0.14496764714E+04  0.17409088576E+04  0.90373752486E+03 0.  0.
        -24    2    4    4    0    0  0.16942160820E+03  0.46938437340E+03  0.53733801134E+03  0.73775064440E+03  0.80737250213E+02 0.  0.
         24    2    4    4    0    0  0.15375357289E+03 -0.37984071154E+03  0.91233846006E+03  0.10031582132E+04  0.77754792546E+02 0.  0.
         11    1    3    3    0    0 -0.92406708837E+02  0.15556828867E+02  0.60025097539E+03  0.60752139733E+03  0.00000000000E+00 0.  1.
        -11    1    3    3    0    0 -0.23076847225E+03 -0.10510049073E+03  0.18203897098E+04  0.18379659672E+04  0.00000000000E+00 0. -1.
          4    1    6    6  502    0 -0.63046264359E+01 -0.39799234432E+01  0.28753241696E+02  0.29704158180E+02  0.00000000000E+00 0. -1.
          1    1    5    5  503    0  0.62715121005E+02  0.79692393005E+02  0.10308212150E+03  0.14460286193E+03  0.00000000000E+00 0. -1.
         -2    1    5    5    0  503  0.10670648720E+03  0.38969198039E+03  0.43425588984E+03  0.59314778248E+03  0.00000000000E+00 0.  1.
         -3    1    6    6    0  502  0.16005819933E+03 -0.37586078810E+03  0.88358521837E+03  0.97345405506E+03  0.00000000000E+00 0.  1.
<mgrwt>
<rscale>  0 0.15957940E+04</rscale>
<asrwt>0</asrwt>
<pdfrwt beam="1">  1        2 0.61974710E+00 0.15957940E+04</pdfrwt>
<pdfrwt beam="2">  1       -2 0.24313777E-01 0.15957940E+04</pdfrwt>
<totfact> 0.47944673E+00</totfact>
</mgrwt>
</event>
<event>
12    1  0.1598876E-007  0.1929965E+04  0.7818608E-02  0.8640083E-01
         -2   -1    0    0    0  501 -0.00000000000E+00  0.00000000000E+00  0.17360274979E+04  0.17360274979E+04  0.00000000000E+00 0.  1.
          2   -1    0    0  501    0  0.00000000000E+00 -0.00000000000E+00 -0.53639215707E+03  0.53639215707E+03  0.00000000000E+00 0. -1.
         23    2    1    2    0    0  0.54485501498E+03  0.45744936345E+03  0.20040420820E+03  0.74487059133E+03  0.92430750751E+02 0.  0.
        254    2    1    2    0    0 -0.54485501498E+03 -0.45744936345E+03  0.99923113261E+03  0.15275490636E+04  0.91039352917E+03 0.  0.
        -24    2    4    4    0    0 -0.37349447686E+03 -0.61764805959E+03  0.30017013360E+03  0.78597211967E+03  0.81626062230E+02 0.  0.
         24    2    4    4    0    0 -0.17136053812E+03  0.16019869614E+03  0.69906099902E+03  0.74157694396E+03  0.78879827576E+02 0.  0.
         11    1    3    3    0    0  0.50967711611E+03  0.39975788177E+03  0.19769864409E+03  0.67724580515E+03  0.00000000000E+00 0. -1.
        -11    1    3    3    0    0  0.35177898869E+02  0.57691481684E+02  0.27055641157E+01  0.67624786173E+02  0.00000000000E+00 0.  1.
          4    1    6    6  502    0 -0.14833388105E+03  0.89965850137E+02  0.49936009055E+03  0.52863720498E+03  0.00000000000E+00 0. -1.
          1    1    5    5  503    0 -0.31413021877E+03 -0.55827035829E+03  0.24678228960E+03  0.68647293154E+03  0.00000000000E+00 0. -1.
         -2    1    5    5    0  503 -0.59364258097E+02 -0.59377701308E+02  0.53387843996E+02  0.99499188131E+02  0.00000000000E+00 0.  1.
         -3    1    6    6    0  502 -0.23026657070E+02  0.70232846005E+02  0.19970090846E+03  0.21293973898E+03  0.00000000000E+00 0.  1.
<mgrwt>
<rscale>  0 0.19299653E+04</rscale>
<asrwt>0</asrwt>
<pdfrwt beam="1">  1        2 0.82521871E-01 0.19299653E+04</pdfrwt>
<pdfrwt beam="2">  1       -2 0.26708115E+00 0.19299653E+04</pdfrwt>
<totfact> 0.26763073E+00</totfact>
</mgrwt>
</event>
<event>
12    1  0.1598876E-007  0.1443906E+04  0.7818608E-02  0.8922636E-01
         -2   -1    0    0    0  501 -0.00000000000E+00  0.00000000000E+00  0.32069865329E+03  0.32069865329E+03  0.00000000000E+00 0.  1.
          2   -1    0    0  501    0  0.00000000000E+00 -0.00000000000E+00 -0.16252523170E+04  0.16252523170E+04  0.00000000000E+00 0. -1.
         23    2    1    2    0    0 -0.41095403551E+03  0.75551099220E+02 -0.20496748327E+03  0.47417176986E+03  0.90752466864E+02 0.  0.
        254    2    1    2    0    0  0.41095403551E+03 -0.75551099220E+02 -0.10995861804E+04  0.14717792004E+04  0.88456376745E+03 0.  0.
        -24    2    4    4    0    0  0.61975291187E+03 -0.26938654724E+03 -0.80347680126E+03  0.10530308839E+04  0.81463419706E+02 0.  0.
         24    2    4    4    0    0 -0.20879887636E+03  0.19383544802E+03 -0.29610937915E+03  0.41874831646E+03  0.80624043823E+02 0.  0.
         13    1    3    3    0    0 -0.17244377978E+03  0.41335984843E+02 -0.13620327105E+03  0.22359975821E+03  0.00000000000E+00 0. -1.
        -13    1    3    3    0    0 -0.23851025573E+03  0.34215114377E+02 -0.68764212220E+02  0.25057201165E+03  0.00000000000E+00 0.  1.
          4    1    6    6  502    0 -0.19344008721E+03  0.17496954654E+03 -0.22803726504E+03  0.34645981556E+03  0.00000000000E+00 0. -1.
          3    1    5    5  503    0  0.54759880270E+03 -0.22617534556E+03 -0.66166867869E+03  0.88815830572E+03  0.00000000000E+00 0. -1.
         -4    1    5    5    0  503  0.72154109171E+02 -0.43211201683E+02 -0.14180812256E+03  0.16487257821E+03  0.00000000000E+00 0.  1.
         -3    1    6    6    0  502 -0.15358789156E+02  0.18865901482E+02 -0.68072114108E+02  0.72288500899E+02  0.00000000000E+00 0.  1.
<mgrwt>
<rscale>  0 0.14439061E+04</rscale>
<asrwt>0</asrwt>
<pdfrwt beam="1">  1        2 0.25003882E+00 0.14439061E+04</pdfrwt>
<pdfrwt beam="2">  1       -2 0.49338254E-01 0.14439061E+04</pdfrwt>
<totfact> 0.40719206E+01</totfact>
</mgrwt>
</event>
<event>
12    1  0.1598876E-007  0.1527907E+04  0.7818608E-02  0.8866104E-01
          2   -1    0    0  501    0  0.00000000000E+00  0.00000000000E+00  0.14078787874E+04  0.14078787874E+04  0.00000000000E+00 0. -1.
         -2   -1    0    0    0  501 -0.00000000000E+00 -0.00000000000E+00 -0.41454224961E+03  0.41454224961E+03  0.00000000000E+00 0.  1.
         23    2    1    2    0    0  0.42099073151E+03 -0.25967856529E+03  0.38996998941E+03  0.63630006601E+03  0.90194390501E+02 0.  0.
        254    2    1    2    0    0 -0.42099073151E+03  0.25967856529E+03  0.60336654836E+03  0.11861209710E+04  0.89340114889E+03 0.  0.
        -24    2    4    4    0    0 -0.17966473954E+02  0.32260216789E+03 -0.11916098080E+03  0.35303385672E+03  0.77708504898E+02 0.  0.
         24    2    4    4    0    0 -0.40302425755E+03 -0.62923602600E+02  0.72252752916E+03  0.83308711426E+03  0.74834334430E+02 0.  0.
         11    1    3    3    0    0  0.24358115158E+03 -0.18332529076E+03  0.28061477770E+03  0.41434839579E+03  0.00000000000E+00 0. -1.
        -11    1    3    3    0    0  0.17740957993E+03 -0.76353274531E+02  0.10935521172E+03  0.22195167022E+03  0.00000000000E+00 0.  1.
          2    1    6    6  502    0 -0.36856292872E+02 -0.12860181904E+01  0.11799742296E+03  0.12362617842E+03  0.00000000000E+00 0. -1.
          1    1    5    5  503    0  0.12893291986E+02  0.74101943022E+01 -0.10531251276E+02  0.18222382152E+02  0.00000000000E+00 0. -1.
         -2    1    5    5    0  503 -0.30859765940E+02  0.31519197359E+03 -0.10862972952E+03  0.33481147457E+03  0.00000000000E+00 0.  1.
         -1    1    6    6    0  502 -0.36616796468E+03 -0.61637584410E+02  0.60453010620E+03  0.70946093583E+03  0.00000000000E+00 0.  1.
<mgrwt>
<rscale>  0 0.15279074E+04</rscale>
<asrwt>0</asrwt>
<pdfrwt beam="1">  1        2 0.21659673E+00 0.15279074E+04</pdfrwt>
<pdfrwt beam="2">  1       -2 0.63775731E-01 0.15279074E+04</pdfrwt>
<totfact> 0.31399219E+01</totfact>
</mgrwt>
</event>
<event>
12    1  0.1598876E-007  0.1710395E+04  0.7818608E-02  0.8755458E-01
         -2   -1    0    0    0  501 -0.00000000000E+00  0.00000000000E+00  0.14483935309E+04  0.14483935309E+04  0.00000000000E+00 0.  1.
          2   -1    0    0  501    0  0.00000000000E+00 -0.00000000000E+00 -0.50494777387E+03  0.50494777387E+03  0.00000000000E+00 0. -1.
         23    2    1    2    0    0 -0.11930850254E+03  0.27137338876E+03  0.95543548796E+03  0.10046414282E+04  0.92571014772E+02 0.  0.
        254    2    1    2    0    0  0.11930850254E+03 -0.27137338876E+03 -0.11989730963E+02  0.94869987650E+03  0.90111579007E+03 0.  0.
        -24    2    4    4    0    0  0.47430748953E+03 -0.11509127003E+03 -0.16924138613E+03  0.52253606399E+03  0.78661911538E+02 0.  0.
         24    2    4    4    0    0 -0.35499898699E+03 -0.15628211873E+03  0.15725165516E+03  0.42616381251E+03  0.80244193855E+02 0.  0.
         13    1    3    3    0    0 -0.37484698969E+02  0.16173988176E+03  0.63244802298E+03  0.65387720084E+03  0.00000000000E+00 0.  1.
        -13    1    3    3    0    0 -0.81823803575E+02  0.10963350699E+03  0.32298746498E+03  0.35076422740E+03  0.00000000000E+00 0. -1.
          4    1    6    6  502    0 -0.31778407910E+03 -0.15583390963E+03  0.16085133586E+03  0.38877253063E+03  0.00000000000E+00 0. -1.
          1    1    5    5  503    0  0.33324097677E+03 -0.11192961459E+03 -0.10074574461E+03  0.36568769774E+03  0.00000000000E+00 0. -1.
         -4    1    5    5    0  503  0.14106651276E+03 -0.31616554390E+01 -0.68495641520E+02  0.15684836625E+03  0.00000000000E+00 0.  1.
         -3    1    6    6    0  502 -0.37214907883E+02 -0.44820910244E+00 -0.35996806926E+01  0.37391281888E+02  0.00000000000E+00 0.  1.
<mgrwt>
<rscale>  0 0.17103954E+04</rscale>
<asrwt>0</asrwt>
<pdfrwt beam="1">  1        2 0.77684273E-01 0.17103954E+04</pdfrwt>
<pdfrwt beam="2">  1       -2 0.22282977E+00 0.17103954E+04</pdfrwt>
<totfact> 0.54860286E+00</totfact>
</mgrwt>
</event>
<event>
12    1  0.1598876E-007  0.2527006E+04  0.7818608E-02  0.8393427E-01
          2   -1    0    0  501    0  0.00000000000E+00  0.00000000000E+00  0.33693074724E+04  0.33693074724E+04  0.00000000000E+00 0. -1.
         -2   -1    0    0    0  501 -0.00000000000E+00 -0.00000000000E+00 -0.47381830062E+03  0.47381830062E+03  0.00000000000E+00 0.  1.
         23    2    1    2    0    0 -0.28065402067E+03 -0.77228327214E+03  0.15043958335E+03  0.84144674123E+03  0.10105651068E+03 0.  0.
        254    2    1    2    0    0  0.28065402067E+03  0.77228327214E+03  0.27450495884E+04  0.30016790318E+04  0.89419887899E+03 0.  0.
        -24    2    4    4    0    0 -0.25766114231E+03  0.57364778385E+03  0.14636360243E+04  0.15950030248E+04  0.79644165523E+02 0.  0.
         24    2    4    4    0    0  0.53831516297E+03  0.19863548829E+03  0.12814135641E+04  0.14066760070E+04  0.86471929513E+02 0.  0.
         13    1    3    3    0    0 -0.18074961413E+03 -0.48283789290E+03  0.14353014188E+03  0.53516703510E+03  0.00000000000E+00 0.  1.
        -13    1    3    3    0    0 -0.99904406539E+02 -0.28944537924E+03  0.69094414700E+01  0.30627970614E+03  0.00000000000E+00 0. -1.
          4    1    6    6  502    0  0.37136909776E+03  0.12112873620E+03  0.95758473078E+03  0.10341932576E+04  0.00000000000E+00 0. -1.
          3    1    5    5  503    0 -0.25268636174E+03  0.50254156843E+03  0.13081010932E+04  0.14239125308E+04  0.00000000000E+00 0. -1.
         -4    1    5    5    0  503 -0.49747805684E+01  0.71106215418E+02  0.15553493115E+03  0.17109049396E+03  0.00000000000E+00 0.  1.
         -3    1    6    6    0  502  0.16694606521E+03  0.77506752092E+02  0.32382883333E+03  0.37248274940E+03  0.00000000000E+00 0.  1.
<mgrwt>
<rscale>  0 0.25270058E+04</rscale>
<asrwt>0</asrwt>
<pdfrwt beam="1">  1        2 0.51835498E+00 0.25270058E+04</pdfrwt>
<pdfrwt beam="2">  1       -2 0.72895125E-01 0.25270058E+04</pdfrwt>
<totfact> 0.15151827E+00</totfact>
</mgrwt>
</event>
<event>
12    1  0.1598876E-007  0.1685652E+04  0.7818608E-02  0.8769590E-01
          2   -1    0    0  501    0  0.00000000000E+00  0.00000000000E+00  0.45453848609E+04  0.45453848609E+04  0.00000000000E+00 0. -1.
         -2   -1    0    0    0  501 -0.00000000000E+00 -0.00000000000E+00 -0.15628055923E+03  0.15628055923E+03  0.00000000000E+00 0.  1.
         23    2    1    2    0    0  0.10930971264E+03 -0.34887226541E+03  0.24719998388E+03  0.44977877504E+03  0.86790803640E+02 0.  0.
        254    2    1    2    0    0 -0.10930971264E+03  0.34887226541E+03  0.41419043178E+04  0.42518866451E+04  0.88854273622E+03 0.  0.
        -24    2    4    4    0    0 -0.47036888014E+03  0.17835310731E+03  0.29184632051E+04  0.29625378376E+04  0.78397993418E+02 0.  0.
         24    2    4    4    0    0  0.36105916750E+03  0.17051915810E+03  0.12234411127E+04  0.12893488075E+04  0.78560075381E+02 0.  0.
         11    1    3    3    0    0  0.11094849960E+03 -0.35254045527E+03  0.24871917501E+03  0.44548352403E+03  0.00000000000E+00 0.  1.
        -11    1    3    3    0    0 -0.16387869543E+01  0.36681898636E+01 -0.15191911262E+01  0.42952510096E+01  0.00000000000E+00 0. -1.
          4    1    6    6  502    0  0.28299769884E+03  0.16675498484E+03  0.10081248952E+04  0.10602880396E+04  0.00000000000E+00 0. -1.
          1    1    5    5  503    0 -0.46177842575E+03  0.17207375769E+03  0.28966242932E+04  0.29382445420E+04  0.00000000000E+00 0. -1.
         -2    1    5    5    0  503 -0.85904543944E+01  0.62793496157E+01  0.21838911861E+02  0.24293295569E+02  0.00000000000E+00 0.  1.
         -3    1    6    6    0  502  0.78061468665E+02  0.37641732610E+01  0.21531621750E+03  0.22906076794E+03  0.00000000000E+00 0.  1.
<mgrwt>
<rscale>  0 0.16856516E+04</rscale>
<asrwt>0</asrwt>
<pdfrwt beam="1">  1        2 0.69928988E+00 0.16856516E+04</pdfrwt>
<pdfrwt beam="2">  1       -2 0.24043166E-01 0.16856516E+04</pdfrwt>
<totfact> 0.16740721E+00</totfact>
</mgrwt>
</event>
<event>
12    1  0.1598876E-007  0.1919632E+04  0.7818608E-02  0.8645145E-01
          2   -1    0    0  501    0  0.00000000000E+00  0.00000000000E+00  0.17660486320E+04  0.17660486320E+04  0.00000000000E+00 0. -1.
         -2   -1    0    0    0  501 -0.00000000000E+00 -0.00000000000E+00 -0.52164310285E+03  0.52164310285E+03  0.00000000000E+00 0.  1.
         23    2    1    2    0    0 -0.20960829582E+03  0.72584112173E+03  0.40174609640E+03  0.86030600196E+03  0.89137642807E+02 0.  0.
        254    2    1    2    0    0  0.20960829582E+03 -0.72584112173E+03  0.84265943271E+03  0.14273857329E+04  0.86981270350E+03 0.  0.
        -24    2    4    4    0    0 -0.36518486716E+02 -0.91887984369E+02  0.72027314693E+03  0.73133630529E+03  0.79261489490E+02 0.  0.
         24    2    4    4    0    0  0.24612678253E+03 -0.63395313736E+03  0.12238628578E+03  0.69604942756E+03  0.83853617770E+02 0.  0.
         11    1    3    3    0    0 -0.15285922733E+03  0.45533808115E+03  0.29707383271E+03  0.56475797790E+03  0.00000000000E+00 0. -1.
        -11    1    3    3    0    0 -0.56749068487E+02  0.27050304058E+03  0.10467226369E+03  0.29554802406E+03  0.00000000000E+00 0.  1.
          2    1    6    6  502    0  0.31336605209E+01 -0.76425616824E+01 -0.82441191302E+01  0.11670221830E+02  0.00000000000E+00 0. -1.
          1    1    5    5  503    0 -0.39192086859E+01  0.58039137668E+01  0.48031495277E+01  0.84921055764E+01  0.00000000000E+00 0. -1.
         -2    1    5    5    0  503 -0.32599278030E+02 -0.97691898136E+02  0.71546999740E+03  0.72284419972E+03  0.00000000000E+00 0.  1.
         -1    1    6    6    0  502  0.24299312201E+03 -0.62631057568E+03  0.13063040491E+03  0.68437920573E+03  0.00000000000E+00 0.  1.
<mgrwt>
<rscale>  0 0.19196323E+04</rscale>
<asrwt>0</asrwt>
<pdfrwt beam="1">  1        2 0.27169979E+00 0.19196323E+04</pdfrwt>
<pdfrwt beam="2">  1       -2 0.80252786E-01 0.19196323E+04</pdfrwt>
<totfact> 0.11564954E+01</totfact>
</mgrwt>
</event>
<event>
12    1  0.1598876E-007  0.1751776E+04  0.7818608E-02  0.8732374E-01
          1   -1    0    0  501    0  0.00000000000E+00  0.00000000000E+00  0.37476529616E+04  0.37476529616E+04  0.00000000000E+00 0. -1.
         -1   -1    0    0    0  501 -0.00000000000E+00 -0.00000000000E+00 -0.20470931846E+03  0.20470931846E+03  0.00000000000E+00 0.  1.
         23    2    1    2    0    0 -0.47998510089E+02 -0.63404611274E+03  0.14634252419E+04  0.15991736279E+04  0.10688556150E+03 0.  0.
        254    2    1    2    0    0  0.47998510089E+02  0.63404611274E+03  0.20795184011E+04  0.23531886521E+04  0.89932292409E+03 0.  0.
        -24    2    4    4    0    0  0.41924274644E+03  0.32759332873E+03  0.65631981023E+03  0.84868631760E+03  0.80192910659E+02 0.  0.
         24    2    4    4    0    0 -0.37124423635E+03  0.30645278401E+03  0.14231985909E+04  0.15045023345E+04  0.79356496781E+02 0.  0.
         13    1    3    3    0    0  0.80866779177E+01 -0.49057667293E+02  0.19478051812E+03  0.20102611601E+03  0.00000000000E+00 0.  1.
        -13    1    3    3    0    0 -0.56085188007E+02 -0.58498844545E+03  0.12686447238E+04  0.13981475119E+04  0.00000000000E+00 0. -1.
          4    1    6    6  502    0 -0.20945517793E+03  0.12807823467E+03  0.77848668970E+03  0.81628244609E+03  0.00000000000E+00 0. -1.
          1    1    5    5  503    0  0.37578509575E+02  0.48279460658E+02  0.45901163613E+02  0.76485080403E+02  0.00000000000E+00 0. -1.
         -2    1    5    5    0  503  0.38166423686E+03  0.27931386807E+03  0.61041864661E+03  0.77220123720E+03  0.00000000000E+00 0.  1.
         -3    1    6    6    0  502 -0.16178905842E+03  0.17837454934E+03  0.64471190122E+03  0.68821988845E+03  0.00000000000E+00 0.  1.
<mgrwt>
<rscale>  0 0.17517757E+04</rscale>
<asrwt>0</asrwt>
<pdfrwt beam="1">  1        1 0.57656194E+00 0.17517757E+04</pdfrwt>
<pdfrwt beam="2">  1       -1 0.31493744E-01 0.17517757E+04</pdfrwt>
<totfact> 0.14121481E+00</totfact>
</mgrwt>
</event>
<event>
12    1  0.1598876E-007  0.2258195E+04  0.7818608E-02  0.8494589E-01
         -1   -1    0    0    0  501 -0.00000000000E+00  0.00000000000E+00  0.96489545964E+03  0.96489545964E+03  0.00000000000E+00 0.  1.
          1   -1    0    0  501    0  0.00000000000E+00 -0.00000000000E+00 -0.13212424992E+04  0.13212424992E+04  0.00000000000E+00 0. -1.
         23    2    1    2    0    0 -0.79822500791E+03  0.17295143629E+03 -0.63818278221E+03  0.10403528738E+04  0.89339106356E+02 0.  0.
        254    2    1    2    0    0  0.79822500791E+03 -0.17295143629E+03  0.28183574267E+03  0.12457850850E+04  0.89748188266E+03 0.  0.
        -24    2    4    4    0    0  0.82760416030E+02  0.10042006016E+03 -0.26171357850E+03  0.30320029582E+03  0.80640853589E+02 0.  0.
         24    2    4    4    0    0  0.71546459188E+03 -0.27337149645E+03  0.54354932117E+03  0.94258478923E+03  0.79991643526E+02 0.  0.
         11    1    3    3    0    0 -0.11809033890E+03  0.33675297860E+02 -0.59018895618E+02  0.13624457372E+03  0.00000000000E+00 0.  1.
        -11    1    3    3    0    0 -0.68013466901E+03  0.13927613843E+03 -0.57916388660E+03  0.90410830007E+03  0.00000000000E+00 0. -1.
          4    1    6    6  502    0  0.50260519383E+03 -0.19451911840E+03  0.33660130747E+03  0.63541333672E+03  0.00000000000E+00 0. -1.
          3    1    5    5  503    0  0.68912337412E+02  0.88418683151E+02 -0.26189067195E+03  0.28487452998E+03  0.00000000000E+00 0. -1.
         -4    1    5    5    0  503  0.13848078618E+02  0.12001377006E+02  0.17709344560E+00  0.18325765837E+02  0.00000000000E+00 0.  1.
         -3    1    6    6    0  502  0.21285939805E+03 -0.78852378045E+02  0.20694801370E+03  0.30717145251E+03  0.00000000000E+00 0.  1.
<mgrwt>
<rscale>  0 0.22581948E+04</rscale>
<asrwt>0</asrwt>
<pdfrwt beam="1">  1        1 0.20326808E+00 0.22581948E+04</pdfrwt>
<pdfrwt beam="2">  1       -1 0.14844546E+00 0.22581948E+04</pdfrwt>
<totfact> 0.28435700E+00</totfact>
</mgrwt>
</event>
<event>
12    1  0.1598876E-007  0.2316073E+04  0.7818608E-02  0.8471611E-01
         -1   -1    0    0    0  501 -0.00000000000E+00  0.00000000000E+00  0.14783874666E+04  0.14783874666E+04  0.00000000000E+00 0.  1.
          1   -1    0    0  501    0  0.00000000000E+00 -0.00000000000E+00 -0.90710190438E+03  0.90710190438E+03  0.00000000000E+00 0. -1.
         23    2    1    2    0    0  0.36110925789E+03  0.44003665152E+03 -0.58085808599E+03  0.81790847717E+03  0.86867773889E+02 0.  0.
        254    2    1    2    0    0 -0.36110925789E+03 -0.44003665152E+03  0.11521436482E+04  0.15675808939E+04  0.89768742988E+03 0.  0.
        -24    2    4    4    0    0 -0.58468094772E+01  0.12915673281E+03  0.78276338065E+03  0.79757038585E+03  0.81757956688E+02 0.  0.
         24    2    4    4    0    0 -0.35526244841E+03 -0.56919338433E+03  0.36938026759E+03  0.77001050801E+03  0.79258339193E+02 0.  0.
         11    1    3    3    0    0  0.11485731370E+03  0.16607543224E+03 -0.15312785836E+03  0.25341940081E+03  0.00000000000E+00 0.  1.
        -11    1    3    3    0    0  0.24625194419E+03  0.27396121929E+03 -0.42773022764E+03  0.56448907636E+03  0.00000000000E+00 0. -1.
          2    1    6    6  502    0 -0.17756387512E+03 -0.35799918101E+03  0.21677990476E+03  0.45462717743E+03  0.00000000000E+00 0. -1.
          1    1    5    5  503    0 -0.34046282925E+02  0.11664586860E+03  0.65102162526E+03  0.66226472395E+03  0.00000000000E+00 0. -1.
         -2    1    5    5    0  503  0.28199473448E+02  0.12510864210E+02  0.13174175540E+03  0.13530566190E+03  0.00000000000E+00 0.  1.
         -1    1    6    6    0  502 -0.17769857330E+03 -0.21119420333E+03  0.15260036284E+03  0.31538333058E+03  0.00000000000E+00 0.  1.
<mgrwt>
<rscale>  0 0.23160726E+04</rscale>
<asrwt>0</asrwt>
<pdfrwt beam="1">  1        1 0.13955414E+00 0.23160726E+04</pdfrwt>
<pdfrwt beam="2">  1       -1 0.22744423E+00 0.23160726E+04</pdfrwt>
<totfact> 0.15905996E+00</totfact>
</mgrwt>
</event>
<event>
12    1  0.1598876E-007  0.1934609E+04  0.7818608E-02  0.8637819E-01
          2   -1    0    0  501    0  0.00000000000E+00  0.00000000000E+00  0.64446998919E+03  0.64446998919E+03  0.00000000000E+00 0. -1.
         -2   -1    0    0    0  501 -0.00000000000E+00 -0.00000000000E+00 -0.14518559602E+04  0.14518559602E+04  0.00000000000E+00 0.  1.
         23    2    1    2    0    0  0.39882371408E+03  0.23263634334E+03 -0.96084993052E+03  0.10702703460E+04  0.95215552478E+02 0.  0.
        254    2    1    2    0    0 -0.39882371408E+03 -0.23263634334E+03  0.15346395948E+03  0.10260556034E+04  0.90335977951E+03 0.  0.
        -24    2    4    4    0    0 -0.14878311779E+03 -0.43345658232E+03 -0.23081960501E+03  0.51919685017E+03  0.79162202293E+02 0.  0.
         24    2    4    4    0    0 -0.25004059630E+03  0.20082023898E+03  0.38428356449E+03  0.50685875323E+03  0.79892863306E+02 0.  0.
         11    1    3    3    0    0  0.13638737318E+03  0.12442865466E+03 -0.43826538685E+03  0.47556340794E+03  0.00000000000E+00 0. -1.
        -11    1    3    3    0    0  0.26243634090E+03  0.10820768868E+03 -0.52258454367E+03  0.59470693808E+03  0.00000000000E+00 0.  1.
          4    1    6    6  502    0 -0.24956069659E+03  0.18641146906E+03  0.34401020086E+03  0.46408274626E+03  0.00000000000E+00 0. -1.
          1    1    5    5  503    0 -0.72196681851E+02 -0.29606186354E+03 -0.12369398932E+03  0.32888476843E+03  0.00000000000E+00 0. -1.
         -2    1    5    5    0  503 -0.76586435936E+02 -0.13739471878E+03 -0.10712561568E+03  0.19031208173E+03  0.00000000000E+00 0.  1.
         -3    1    6    6    0  502 -0.47989970859E+00  0.14408769923E+02  0.40273363629E+02  0.42776006971E+02  0.00000000000E+00 0.  1.
<mgrwt>
<rscale>  0 0.19346086E+04</rscale>
<asrwt>0</asrwt>
<pdfrwt beam="1">  1        2 0.99149229E-01 0.19346086E+04</pdfrwt>
<pdfrwt beam="2">  1       -2 0.22336245E+00 0.19346086E+04</pdfrwt>
<totfact> 0.39919159E+00</totfact>
</mgrwt>
</event>
<event>
12    1  0.1598876E-007  0.1882712E+04  0.7818608E-02  0.8663510E-01
         -2   -1    0    0    0  501 -0.00000000000E+00  0.00000000000E+00  0.48031505916E+03  0.48031505916E+03  0.00000000000E+00 0.  1.
          2   -1    0    0  501    0  0.00000000000E+00 -0.00000000000E+00 -0.18449376890E+04  0.18449376890E+04  0.00000000000E+00 0. -1.
         23    2    1    2    0    0  0.20957493518E+03 -0.52563355246E+03 -0.10486010298E+04  0.11950033017E+04  0.90865210410E+02 0.  0.
        254    2    1    2    0    0 -0.20957493518E+03  0.52563355246E+03 -0.31602159997E+03  0.11302494464E+04  0.92594917490E+03 0.  0.
        -24    2    4    4    0    0 -0.23874487951E+03  0.57236088564E+03 -0.57768227932E+03  0.85123652495E+03  0.79313962554E+02 0.  0.
         24    2    4    4    0    0  0.29169944327E+02 -0.46727333182E+02  0.26166067935E+03  0.27901292145E+03  0.79671637977E+02 0.  0.
         11    1    3    3    0    0  0.15349107199E+03 -0.41745074244E+03 -0.89044823521E+03  0.99535053681E+03  0.00000000000E+00 0. -1.
        -11    1    3    3    0    0  0.56083863191E+02 -0.10818281002E+03 -0.15815279462E+03  0.19965276492E+03  0.00000000000E+00 0.  1.
          2    1    6    6  502    0  0.78442467031E+01  0.12230141147E+02  0.59032229421E+01  0.15683003536E+02  0.00000000000E+00 0. -1.
          3    1    5    5  503    0 -0.70309564852E+02  0.91947974074E+02 -0.11870152141E+03  0.16579480098E+03  0.00000000000E+00 0. -1.
         -4    1    5    5    0  503 -0.16843531465E+03  0.48041291157E+03 -0.45898075791E+03  0.68544172397E+03  0.00000000000E+00 0.  1.
         -1    1    6    6    0  502  0.21325697623E+02 -0.58957474329E+02  0.25575745641E+03  0.26332991791E+03  0.00000000000E+00 0.  1.
<mgrwt>
<rscale>  0 0.18827123E+04</rscale>
<asrwt>0</asrwt>
<pdfrwt beam="1">  1        2 0.28383657E+00 0.18827123E+04</pdfrwt>
<pdfrwt beam="2">  1       -2 0.73894624E-01 0.18827123E+04</pdfrwt>
<totfact> 0.12607823E+01</totfact>
</mgrwt>
</event>
<event>
12    1  0.1598876E-007  0.1794420E+04  0.7818608E-02  0.8709273E-01
          1   -1    0    0  501    0  0.00000000000E+00  0.00000000000E+00  0.29044182243E+04  0.29044182243E+04  0.00000000000E+00 0. -1.
         -1   -1    0    0    0  501 -0.00000000000E+00 -0.00000000000E+00 -0.27715899369E+03  0.27715899369E+03  0.00000000000E+00 0.  1.
         23    2    1    2    0    0  0.21120799172E+03 -0.22126580878E+03  0.20394233123E+04  0.20642137791E+04  0.90353225833E+02 0.  0.
        254    2    1    2    0    0 -0.21120799172E+03  0.22126580878E+03  0.58783591838E+03  0.11173634389E+04  0.89965694224E+03 0.  0.
        -24    2    4    4    0    0  0.32225762892E+03  0.18149212027E+03  0.38310828319E+03  0.53883598838E+03  0.82358342656E+02 0.  0.
         24    2    4    4    0    0 -0.53346562064E+03  0.39773688511E+02  0.20472763518E+03  0.57852745051E+03  0.81320917833E+02 0.  0.
         11    1    3    3    0    0  0.11677105546E+03 -0.16964602518E+03  0.11491978991E+04  0.11675063445E+04  0.00000000000E+00 0.  1.
        -11    1    3    3    0    0  0.94436936258E+02 -0.51619783600E+02  0.89022541320E+03  0.89670743462E+03  0.00000000000E+00 0. -1.
          2    1    6    6  502    0 -0.16994815882E+03  0.40671287264E+02  0.39166365030E+02  0.17908247944E+03  0.00000000000E+00 0. -1.
          1    1    5    5  503    0  0.19389672760E+01 -0.25304935595E+01 -0.30648416092E+01  0.44222444348E+01  0.00000000000E+00 0. -1.
         -2    1    5    5    0  503  0.32031866164E+03  0.18402261383E+03  0.38617312480E+03  0.53441374395E+03  0.00000000000E+00 0.  1.
         -1    1    6    6    0  502 -0.36351746183E+03 -0.89759875286E+00  0.16556127015E+03  0.39944497107E+03  0.00000000000E+00 0.  1.
<mgrwt>
<rscale>  0 0.17944198E+04</rscale>
<asrwt>0</asrwt>
<pdfrwt beam="1">  1        1 0.44683355E+00 0.17944198E+04</pdfrwt>
<pdfrwt beam="2">  1       -1 0.42639847E-01 0.17944198E+04</pdfrwt>
<totfact> 0.35942712E+00</totfact>
</mgrwt>
</event>
<event>
12    1  0.1598876E-007  0.3183804E+04  0.7818608E-02  0.8193108E-01
          2   -1    0    0  501    0  0.00000000000E+00  0.00000000000E+00  0.34761988383E+04  0.34761988383E+04  0.00000000000E+00 0. -1.
         -2   -1    0    0    0  501 -0.00000000000E+00 -0.00000000000E+00 -0.72900069195E+03  0.72900069195E+03  0.00000000000E+00 0.  1.
         23    2    1    2    0    0 -0.10451510987E+04 -0.58202491206E+03  0.14796521709E+03  0.12088615605E+04  0.91426197902E+02 0.  0.
        254    2    1    2    0    0  0.10451510987E+04  0.58202491206E+03  0.25992329293E+04  0.29963379698E+04  0.88934559723E+03 0.  0.
        -24    2    4    4    0    0  0.51321446461E+03 -0.49125221922E+02  0.43676982328E+03  0.68035522758E+03  0.79454282808E+02 0.  0.
         24    2    4    4    0    0  0.53193663404E+03  0.63115013398E+03  0.21624631060E+04  0.23159827422E+04  0.78881576775E+02 0.  0.
         13    1    3    3    0    0 -0.37145085710E+03 -0.20671903069E+03  0.86022289266E+01  0.42518524813E+03  0.00000000000E+00 0. -1.
        -13    1    3    3    0    0 -0.67370024156E+03 -0.37530588137E+03  0.13936298816E+03  0.78367631235E+03  0.00000000000E+00 0.  1.
          2    1    6    6  502    0  0.46185813843E+03  0.54580517451E+03  0.19412989236E+04  0.20687817042E+04  0.00000000000E+00 0. -1.
          3    1    5    5  503    0  0.45904477519E+03 -0.26593894094E+02  0.36139108527E+03  0.58483575245E+03  0.00000000000E+00 0. -1.
         -4    1    5    5    0  503  0.54169689424E+02 -0.22531327828E+02  0.75378738009E+02  0.95519475134E+02  0.00000000000E+00 0.  1.
         -1    1    6    6    0  502  0.70078495614E+02  0.85344959466E+02  0.22116418240E+03  0.24720103808E+03  0.00000000000E+00 0.  1.
<mgrwt>
<rscale>  0 0.31838036E+04</rscale>
<asrwt>0</asrwt>
<pdfrwt beam="1">  1        2 0.53479981E+00 0.31838036E+04</pdfrwt>
<pdfrwt beam="2">  1       -2 0.11215395E+00 0.31838036E+04</pdfrwt>
<totfact> 0.44588577E-01</totfact>
</mgrwt>
</event>
<event>
12    1  0.1598876E-007  0.1797451E+04  0.7818608E-02  0.8707656E-01
          1   -1    0    0  501    0  0.00000000000E+00  0.00000000000E+00  0.81193836823E+03  0.81193836823E+03  0.00000000000E+00 0. -1.
         -1   -1    0    0    0  501 -0.00000000000E+00 -0.00000000000E+00 -0.99478962397E+03  0.99478962397E+03  0.00000000000E+00 0.  1.
         23    2    1    2    0    0  0.14133678656E+02  0.31311768981E+03  0.51874034894E+03  0.61276136829E+03  0.90235781675E+02 0.  0.
        254    2    1    2    0    0 -0.14133678656E+02 -0.31311768981E+03 -0.70159160468E+03  0.11939666239E+04  0.91382879726E+03 0.  0.
        -24    2    4    4    0    0  0.73002444628E+02  0.30806659999E+03 -0.30592043401E+03  0.44792516884E+03  0.82554575781E+02 0.  0.
         24    2    4    4    0    0 -0.87136123284E+02 -0.62118428981E+03 -0.39567117067E+03  0.74604145507E+03  0.80991058130E+02 0.  0.
         13    1    3    3    0    0  0.45929436351E+02  0.23256927035E+03  0.41175222714E+03  0.47511880113E+03  0.00000000000E+00 0. -1.
        -13    1    3    3    0    0 -0.31795757695E+02  0.80548419467E+02  0.10698812181E+03  0.13764256716E+03  0.00000000000E+00 0.  1.
          4    1    6    6  502    0 -0.27616370221E+02 -0.39556845824E+03 -0.28136065701E+03  0.48621074482E+03  0.00000000000E+00 0. -1.
          3    1    5    5  503    0  0.30524463058E+02  0.20872665306E+03 -0.15257486087E+03  0.26034140415E+03  0.00000000000E+00 0. -1.
         -4    1    5    5    0  503  0.42477981570E+02  0.99339946929E+02 -0.15334557314E+03  0.18758376469E+03  0.00000000000E+00 0.  1.
         -3    1    6    6    0  502 -0.59519753063E+02 -0.22561583156E+03 -0.11431051366E+03  0.25983071025E+03  0.00000000000E+00 0.  1.
<mgrwt>
<rscale>  0 0.17974514E+04</rscale>
<asrwt>0</asrwt>
<pdfrwt beam="1">  1        1 0.12491360E+00 0.17974514E+04</pdfrwt>
<pdfrwt beam="2">  1       -1 0.15304456E+00 0.17974514E+04</pdfrwt>
<totfact> 0.67319474E+00</totfact>
</mgrwt>
</event>
<event>
12    1  0.1598876E-007  0.1609548E+04  0.7818608E-02  0.8814704E-01
         -2   -1    0    0    0  501 -0.00000000000E+00  0.00000000000E+00  0.56474685399E+03  0.56474685399E+03  0.00000000000E+00 0.  1.
          2   -1    0    0  501    0  0.00000000000E+00 -0.00000000000E+00 -0.11468171557E+04  0.11468171557E+04  0.00000000000E+00 0. -1.
         23    2    1    2    0    0  0.47479685544E+03  0.21651230347E+03 -0.34102896749E+02  0.53138842763E+03  0.94345227581E+02 0.  0.
        254    2    1    2    0    0 -0.47479685544E+03 -0.21651230347E+03 -0.54796740494E+03  0.11801755820E+04  0.90566908750E+03 0.  0.
        -24    2    4    4    0    0 -0.72616615500E+03 -0.22241308078E+03 -0.49768688638E+03  0.91147074938E+03  0.79384047157E+02 0.  0.
         24    2    4    4    0    0  0.25136929956E+03  0.59007773035E+01 -0.50280518559E+02  0.26870483264E+03  0.80329400629E+02 0.  0.
         11    1    3    3    0    0  0.29478381246E+03  0.13860959680E+03  0.24524597222E+02  0.32666737254E+03  0.00000000000E+00 0.  1.
        -11    1    3    3    0    0  0.18001304298E+03  0.77902706675E+02 -0.58627493971E+02  0.20472105509E+03  0.00000000000E+00 0. -1.
          4    1    6    6  502    0  0.19515706547E+03  0.13317154491E+02 -0.71349989343E+02  0.20821730905E+03  0.00000000000E+00 0. -1.
          3    1    5    5  503    0 -0.32607402829E+03 -0.92023442785E+02 -0.26850801635E+03  0.43230676700E+03  0.00000000000E+00 0. -1.
         -4    1    5    5    0  503 -0.40009212670E+03 -0.13038963799E+03 -0.22917887003E+03  0.47916398239E+03  0.00000000000E+00 0.  1.
         -3    1    6    6    0  502  0.56212234089E+02 -0.74163771874E+01  0.21069470784E+02  0.60487523597E+02  0.00000000000E+00 0.  1.
<mgrwt>
<rscale>  0 0.16095482E+04</rscale>
<asrwt>0</asrwt>
<pdfrwt beam="1">  1        2 0.17643341E+00 0.16095482E+04</pdfrwt>
<pdfrwt beam="2">  1       -2 0.86884132E-01 0.16095482E+04</pdfrwt>
<totfact> 0.22398781E+01</totfact>
</mgrwt>
</event>
<event>
12    1  0.1598876E-007  0.2373476E+04  0.7818608E-02  0.8449501E-01
         -2   -1    0    0    0  501 -0.00000000000E+00  0.00000000000E+00  0.57572452665E+03  0.57572452665E+03  0.00000000000E+00 0. -1.
          2   -1    0    0  501    0  0.00000000000E+00 -0.00000000000E+00 -0.24462176278E+04  0.24462176278E+04  0.00000000000E+00 0.  1.
         23    2    1    2    0    0  0.10084913906E+04  0.15619366651E+03 -0.80518439190E+03  0.13031545556E+04  0.91861549874E+02 0.  0.
        254    2    1    2    0    0 -0.10084913906E+04 -0.15619366651E+03 -0.10653087093E+04  0.17187875989E+04  0.88198459044E+03 0.  0.
        -24    2    4    4    0    0 -0.11504388561E+04 -0.21203110371E+03 -0.88346192518E+03  0.14680966058E+04  0.79598492330E+02 0.  0.
         24    2    4    4    0    0  0.14194746554E+03  0.55837437195E+02 -0.18184678410E+03  0.25069099315E+03  0.80689644886E+02 0.  0.
         11    1    3    3    0    0  0.74307899335E+03  0.13091160191E+03 -0.64099192835E+03  0.99003782255E+03  0.00000000000E+00 0.  1.
        -11    1    3    3    0    0  0.26541239724E+03  0.25282064605E+02 -0.16419246356E+03  0.31311673301E+03  0.00000000000E+00 0. -1.
          2    1    6    6  502    0  0.39769100518E+02  0.53087767060E+02 -0.98750564956E+02  0.11896035662E+03  0.00000000000E+00 0. -1.
          1    1    5    5  503    0 -0.10484460506E+03 -0.34636415332E+02 -0.10649058215E+03  0.15340246596E+03  0.00000000000E+00 0. -1.
         -2    1    5    5    0  503 -0.10455942511E+04 -0.17739468838E+03 -0.77697134303E+03  0.13146941398E+04  0.00000000000E+00 0.  1.
         -1    1    6    6    0  502  0.10217836503E+03  0.27496701351E+01 -0.83096219148E+02  0.13173063653E+03  0.00000000000E+00 0.  1.
<mgrwt>
<rscale>  0 0.23734763E+04</rscale>
<asrwt>0</asrwt>
<pdfrwt beam="1">  1        2 0.37634117E+00 0.23734763E+04</pdfrwt>
<pdfrwt beam="2">  1       -2 0.88573005E-01 0.23734763E+04</pdfrwt>
<totfact> 0.36947202E+00</totfact>
</mgrwt>
</event>
<event>
12    1  0.1598876E-007  0.1262672E+04  0.7818608E-02  0.9059702E-01
          1   -1    0    0  501    0  0.00000000000E+00  0.00000000000E+00  0.37943906886E+04  0.37943906886E+04  0.00000000000E+00 0. -1.
         -1   -1    0    0    0  501 -0.00000000000E+00 -0.00000000000E+00 -0.10504583883E+03  0.10504583883E+03  0.00000000000E+00 0.  1.
         23    2    1    2    0    0  0.14575135543E+03 -0.24707076262E+02  0.17356396079E+04  0.17442519193E+04  0.90088912584E+02 0.  0.
        254    2    1    2    0    0 -0.14575135543E+03  0.24707076262E+02  0.19537052418E+04  0.21551846081E+04  0.89777648993E+03 0.  0.
        -24    2    4    4    0    0 -0.12916689829E+03  0.43401007662E+03  0.73326449001E+03  0.86540816413E+03  0.78775910088E+02 0.  0.
         24    2    4    4    0    0 -0.16584457138E+02 -0.40930300036E+03  0.12204407518E+04  0.12897764439E+04  0.79016811019E+02 0.  0.
         13    1    3    3    0    0  0.15235223791E+03 -0.19951783706E+02  0.13814412556E+04  0.13899601508E+04  0.00000000000E+00 0. -1.
        -13    1    3    3    0    0 -0.66008824896E+01 -0.47552925564E+01  0.35419835232E+03  0.35429176852E+03  0.00000000000E+00 0.  1.
          4    1    6    6  502    0  0.26937124578E+02 -0.24891349206E+03  0.76796633365E+03  0.80774737686E+03  0.00000000000E+00 0. -1.
          1    1    5    5  503    0 -0.75369788004E+02  0.34461334068E+03  0.52556069116E+03  0.63297156304E+03  0.00000000000E+00 0. -1.
         -2    1    5    5    0  503 -0.53797110284E+02  0.89396735944E+02  0.20770379885E+03  0.23243660109E+03  0.00000000000E+00 0.  1.
         -3    1    6    6    0  502 -0.43521581716E+02 -0.16038950830E+03  0.45247441814E+03  0.48202906709E+03  0.00000000000E+00 0.  1.
<mgrwt>
<rscale>  0 0.12626717E+04</rscale>
<asrwt>0</asrwt>
<pdfrwt beam="1">  1        1 0.58375231E+00 0.12626717E+04</pdfrwt>
<pdfrwt beam="2">  1       -1 0.16160901E-01 0.12626717E+04</pdfrwt>
<totfact> 0.42415196E+00</totfact>
</mgrwt>
</event>
<event>
12    1  0.1598876E-007  0.1300731E+04  0.7818608E-02  0.9028986E-01
         -1   -1    0    0    0  501 -0.00000000000E+00  0.00000000000E+00  0.25761428313E+03  0.25761428313E+03  0.00000000000E+00 0.  1.
          1   -1    0    0  501    0  0.00000000000E+00 -0.00000000000E+00 -0.16418937582E+04  0.16418937582E+04  0.00000000000E+00 0. -1.
         23    2    1    2    0    0 -0.31508145785E+03 -0.16658936939E+02 -0.21096947464E+03  0.39045135848E+03  0.91598574478E+02 0.  0.
        254    2    1    2    0    0  0.31508145785E+03  0.16658936939E+02 -0.11733100004E+04  0.15090566828E+04  0.89500942433E+03 0.  0.
        -24    2    4    4    0    0  0.44363294048E+03 -0.27423028608E+03 -0.10174480351E+04  0.11461474901E+04  0.80256646968E+02 0.  0.
         24    2    4    4    0    0 -0.12855148262E+03  0.29088922302E+03 -0.15586196533E+03  0.36290919268E+03  0.79171371992E+02 0.  0.
         13    1    3    3    0    0 -0.30223515660E+03 -0.43350202474E+01 -0.17240784190E+03  0.34797894510E+03  0.00000000000E+00 0.  1.
        -13    1    3    3    0    0 -0.12846301250E+02 -0.12323916691E+02 -0.38561632739E+02  0.42472413375E+02  0.00000000000E+00 0. -1.
          2    1    6    6  502    0 -0.21455962927E+02  0.28102803316E+02  0.65338269744E+01  0.35955761628E+02  0.00000000000E+00 0. -1.
          1    1    5    5  503    0  0.19129377532E+02  0.30405134850E+01 -0.54996407416E+02  0.58307655035E+02  0.00000000000E+00 0. -1.
         -4    1    5    5    0  503  0.42450356294E+03 -0.27727079957E+03 -0.96245162764E+03  0.10878398351E+04  0.00000000000E+00 0.  1.
         -1    1    6    6    0  502 -0.10709551970E+03  0.26278641970E+03 -0.16239579230E+03  0.32695343105E+03  0.00000000000E+00 0.  1.
<mgrwt>
<rscale>  0 0.13007310E+04</rscale>
<asrwt>0</asrwt>
<pdfrwt beam="1">  1        1 0.25259905E+00 0.13007310E+04</pdfrwt>
<pdfrwt beam="2">  1       -1 0.39632966E-01 0.13007310E+04</pdfrwt>
<totfact> 0.31787953E+01</totfact>
</mgrwt>
</event>
<event>
12    1  0.1598876E-007  0.1942465E+04  0.7818608E-02  0.8634003E-01
         -2   -1    0    0    0  501 -0.00000000000E+00  0.00000000000E+00  0.36036034140E+03  0.36036034140E+03  0.00000000000E+00 0.  1.
          2   -1    0    0  501    0  0.00000000000E+00 -0.00000000000E+00 -0.26176382780E+04  0.26176382780E+04  0.00000000000E+00 0. -1.
         23    2    1    2    0    0 -0.26760852165E+03  0.35732970293E+02  0.19784490269E+03  0.34714605241E+03  0.92068507978E+02 0.  0.
        254    2    1    2    0    0  0.26760852165E+03 -0.35732970293E+02 -0.24551228393E+04  0.26308525670E+04  0.90601650494E+03 0.  0.
        -24    2    4    4    0    0 -0.93684999656E+02 -0.39763838607E+03 -0.89646961310E+03  0.98842398371E+03  0.80193759856E+02 0.  0.
         24    2    4    4    0    0  0.36129352130E+03  0.36190541578E+03 -0.15586532262E+04  0.16424285833E+04  0.81628629634E+02 0.  0.
         11    1    3    3    0    0 -0.16858919089E+03  0.65168278219E+02  0.14098783822E+03  0.22923086681E+03  0.00000000000E+00 0.  1.
        -11    1    3    3    0    0 -0.99019330758E+02 -0.29435307926E+02  0.56857064467E+02  0.11791518561E+03  0.00000000000E+00 0. -1.
          4    1    6    6  502    0  0.28039873298E+03  0.25731098259E+03 -0.10489421082E+04  0.11158458396E+04  0.00000000000E+00 0. -1.
          3    1    5    5  503    0 -0.95788268819E+02 -0.28061257374E+03 -0.58885093224E+03  0.65929070173E+03  0.00000000000E+00 0. -1.
         -4    1    5    5    0  503  0.21032691631E+01 -0.11702581232E+03 -0.30761868087E+03  0.32913328198E+03  0.00000000000E+00 0.  1.
         -3    1    6    6    0  502  0.80894788325E+02  0.10459443319E+03 -0.50971111791E+03  0.52658274369E+03  0.00000000000E+00 0.  1.
<mgrwt>
<rscale>  0 0.19424655E+04</rscale>
<asrwt>0</asrwt>
<pdfrwt beam="1">  1        2 0.40271360E+00 0.19424655E+04</pdfrwt>
<pdfrwt beam="2">  1       -2 0.55440051E-01 0.19424655E+04</pdfrwt>
<totfact> 0.84896349E+00</totfact>
</mgrwt>
</event>
<event>
12    1  0.1598876E-007  0.1576908E+04  0.7818608E-02  0.8834861E-01
         -2   -1    0    0    0  501 -0.00000000000E+00  0.00000000000E+00  0.80420585509E+03  0.80420585509E+03  0.00000000000E+00 0.  1.
          2   -1    0    0  501    0  0.00000000000E+00 -0.00000000000E+00 -0.77301054876E+03  0.77301054876E+03  0.00000000000E+00 0. -1.
         23    2    1    2    0    0  0.72695939511E+02  0.96947287227E+02 -0.50918965442E+03  0.53116260541E+03  0.90421972404E+02 0.  0.
        254    2    1    2    0    0 -0.72695939511E+02 -0.96947287227E+02  0.54038496075E+03  0.10460537984E+04  0.88742840123E+03 0.  0.
        -24    2    4    4    0    0  0.31468327290E+03 -0.30764876472E+03  0.28127794096E+03  0.52843586025E+03  0.80335880181E+02 0.  0.
         24    2    4    4    0    0 -0.38737921241E+03  0.21070147750E+03  0.25910701979E+03  0.51761793819E+03  0.79587156033E+02 0.  0.
         11    1    3    3    0    0 -0.34206006055E+00  0.42397321186E+01  0.32211589901E+01  0.53355598359E+01  0.00000000000E+00 0.  1.
        -11    1    3    3    0    0  0.73037999572E+02  0.92707555108E+02 -0.51241081341E+03  0.52582704557E+03  0.00000000000E+00 0. -1.
          4    1    6    6  502    0 -0.32899202242E+03  0.16831488268E+03  0.18170703649E+03  0.41180468387E+03  0.00000000000E+00 0. -1.
          1    1    5    5  503    0  0.23285249583E+03 -0.18652843301E+03  0.21609301477E+03  0.36838747559E+03  0.00000000000E+00 0. -1.
         -2    1    5    5    0  503  0.81830777069E+02 -0.12112033171E+03  0.65184926190E+02  0.16004838466E+03  0.00000000000E+00 0.  1.
         -3    1    6    6    0  502 -0.58387189992E+02  0.42386594815E+02  0.77399983299E+02  0.10581325432E+03  0.00000000000E+00 0.  1.
<mgrwt>
<rscale>  0 0.15769079E+04</rscale>
<asrwt>0</asrwt>
<pdfrwt beam="1">  1        2 0.11892470E+00 0.15769079E+04</pdfrwt>
<pdfrwt beam="2">  1       -2 0.12372398E+00 0.15769079E+04</pdfrwt>
<totfact> 0.17034260E+01</totfact>
</mgrwt>
</event>
<event>
12    1  0.1598876E-007  0.3629516E+04  0.7818608E-02  0.8083764E-01
          1   -1    0    0  501    0  0.00000000000E+00  0.00000000000E+00  0.18448021122E+04  0.18448021122E+04  0.00000000000E+00 0. -1.
         -1   -1    0    0    0  501 -0.00000000000E+00 -0.00000000000E+00 -0.17852034171E+04  0.17852034171E+04  0.00000000000E+00 0.  1.
         23    2    1    2    0    0 -0.10005555047E+04 -0.27242583027E+03 -0.13194490111E+04  0.16825810931E+04  0.12168110414E+03 0.  0.
        254    2    1    2    0    0  0.10005555047E+04  0.27242583027E+03  0.13790477062E+04  0.19474244361E+04  0.90297409022E+03 0.  0.
        -24    2    4    4    0    0  0.43700690696E+03  0.30721713605E+03  0.10281246093E+03  0.54962477901E+03  0.78483056576E+02 0.  0.
         24    2    4    4    0    0  0.56354859772E+03 -0.34791305784E+02  0.12762352452E+04  0.13977996571E+04  0.79183478657E+02 0.  0.
         11    1    3    3    0    0 -0.96575253087E+03 -0.27453986428E+03 -0.12378087354E+04  0.15938069373E+04  0.00000000000E+00 0.  1.
        -11    1    3    3    0    0 -0.34802973797E+02  0.21140340083E+01 -0.81640275673E+02  0.88774155794E+02  0.00000000000E+00 0. -1.
          4    1    6    6  502    0  0.25023369686E+03 -0.52549915148E+02  0.54027570259E+03  0.59772588319E+03  0.00000000000E+00 0. -1.
          3    1    5    5  503    0  0.16577805020E+03  0.15865602120E+03  0.25652436464E+02  0.23089422359E+03  0.00000000000E+00 0. -1.
         -4    1    5    5    0  503  0.27122885676E+03  0.14856111486E+03  0.77160024470E+02  0.31873055543E+03  0.00000000000E+00 0.  1.
         -3    1    6    6    0  502  0.31331490086E+03  0.17758609364E+02  0.73595954265E+03  0.80007377393E+03  0.00000000000E+00 0.  1.
<mgrwt>
<rscale>  0 0.36295162E+04</rscale>
<asrwt>0</asrwt>
<pdfrwt beam="1">  1        1 0.28381571E+00 0.36295162E+04</pdfrwt>
<pdfrwt beam="2">  1       -1 0.27464668E+00 0.36295162E+04</pdfrwt>
<totfact> 0.14776955E-01</totfact>
</mgrwt>
</event>
<event>
12    1  0.1598876E-007  0.2362510E+04  0.7818608E-02  0.8453674E-01
         -2   -1    0    0    0  501 -0.00000000000E+00  0.00000000000E+00  0.73089453301E+03  0.73089453301E+03  0.00000000000E+00 0.  1.
          2   -1    0    0  501    0  0.00000000000E+00 -0.00000000000E+00 -0.19091169138E+04  0.19091169138E+04  0.00000000000E+00 0. -1.
         23    2    1    2    0    0 -0.43177725842E+03  0.58619294824E+03  0.27760463937E+03  0.78560248358E+03  0.10026541254E+03 0.  0.
        254    2    1    2    0    0  0.43177725842E+03 -0.58619294824E+03 -0.14558270201E+04  0.18544089632E+04  0.88845175268E+03 0.  0.
        -24    2    4    4    0    0  0.51589159478E+03 -0.55520329832E+03 -0.54812963723E+03  0.93873143717E+03  0.79848430685E+02 0.  0.
         24    2    4    4    0    0 -0.84114336364E+02 -0.30989649915E+02 -0.90769738289E+03  0.91567752603E+03  0.80716868090E+02 0.  0.
         11    1    3    3    0    0 -0.40282041862E+03  0.54386051397E+03  0.22777572307E+03  0.71409406127E+03  0.00000000000E+00 0.  1.
        -11    1    3    3    0    0 -0.28956839795E+02  0.42332434267E+02  0.49828916297E+02  0.71508422310E+02  0.00000000000E+00 0. -1.
          2    1    6    6  502    0 -0.55439229129E+01 -0.40591140065E+02 -0.35042320763E+03  0.35280986406E+03  0.00000000000E+00 0. -1.
          3    1    5    5  503    0  0.18856645059E+03 -0.22643875538E+03 -0.16976401823E+03  0.34007592992E+03  0.00000000000E+00 0. -1.
         -4    1    5    5    0  503  0.32732514419E+03 -0.32876454295E+03 -0.37836561900E+03  0.59865550725E+03  0.00000000000E+00 0.  1.
         -1    1    6    6    0  502 -0.78570413451E+02  0.96014901502E+01 -0.55727417526E+03  0.56286766197E+03  0.00000000000E+00 0.  1.
<mgrwt>
<rscale>  0 0.23625098E+04</rscale>
<asrwt>0</asrwt>
<pdfrwt beam="1">  1        2 0.29371029E+00 0.23625098E+04</pdfrwt>
<pdfrwt beam="2">  1       -2 0.11244531E+00 0.23625098E+04</pdfrwt>
<totfact> 0.42166941E+00</totfact>
</mgrwt>
</event>
<event>
12    1  0.1598876E-007  0.3013468E+04  0.7818608E-02  0.8239896E-01
          2   -1    0    0  501    0  0.00000000000E+00  0.00000000000E+00  0.15783230961E+04  0.15783230961E+04  0.00000000000E+00 0. -1.
         -2   -1    0    0    0  501 -0.00000000000E+00 -0.00000000000E+00 -0.14383918241E+04  0.14383918241E+04  0.00000000000E+00 0.  1.
         23    2    1    2    0    0 -0.15315094549E+03 -0.11185240288E+04 -0.72217466221E+03  0.13432974625E+04  0.91436399082E+02 0.  0.
        254    2    1    2    0    0  0.15315094549E+03  0.11185240288E+04  0.86210593421E+03  0.16734174577E+04  0.88461750552E+03 0.  0.
        -24    2    4    4    0    0 -0.17329375549E+03  0.38344606692E+03 -0.74741799962E+02  0.43597464600E+03  0.86173913507E+02 0.  0.
         24    2    4    4    0    0  0.32644470098E+03  0.73507796184E+03  0.93684773417E+03  0.12374428117E+04  0.81702402287E+02 0.  0.
         11    1    3    3    0    0 -0.47740898205E+02 -0.14152910827E+03 -0.80437085644E+02  0.16964612166E+03  0.00000000000E+00 0. -1.
        -11    1    3    3    0    0 -0.10541004729E+03 -0.97699492049E+03 -0.64173757657E+03  0.11736513409E+04  0.00000000000E+00 0.  1.
          2    1    6    6  502    0  0.18008226687E+03  0.47387807538E+03  0.63133059441E+03  0.80967176844E+03  0.00000000000E+00 0. -1.
          1    1    5    5  503    0 -0.67847413228E+02  0.17887597752E+03 -0.75919068011E+02  0.20582417667E+03  0.00000000000E+00 0. -1.
         -2    1    5    5    0  503 -0.10544634226E+03  0.20457008940E+03  0.11772680489E+01  0.23015046933E+03  0.00000000000E+00 0.  1.
         -1    1    6    6    0  502  0.14636243411E+03  0.26119988646E+03  0.30551713976E+03  0.42777104331E+03  0.00000000000E+00 0.  1.
<mgrwt>
<rscale>  0 0.30134678E+04</rscale>
<asrwt>0</asrwt>
<pdfrwt beam="1">  1        2 0.24281894E+00 0.30134678E+04</pdfrwt>
<pdfrwt beam="2">  1       -2 0.22129105E+00 0.30134678E+04</pdfrwt>
<totfact> 0.95119395E-01</totfact>
</mgrwt>
</event>
<event>
12    1  0.1598876E-007  0.1987757E+04  0.7818608E-02  0.8612366E-01
         -2   -1    0    0    0  501 -0.00000000000E+00  0.00000000000E+00  0.14223584209E+04  0.14223584209E+04  0.00000000000E+00 0.  1.
          2   -1    0    0  501    0  0.00000000000E+00 -0.00000000000E+00 -0.69447631910E+03  0.69447631910E+03  0.00000000000E+00 0. -1.
         23    2    1    2    0    0  0.31998952243E+03 -0.64503084654E+03  0.64706060236E+03  0.97251102991E+03  0.92909594391E+02 0.  0.
        254    2    1    2    0    0 -0.31998952243E+03  0.64503084654E+03  0.80821499462E+02  0.11443237101E+04  0.88571245406E+03 0.  0.
        -24    2    4    4    0    0  0.84526236448E+02  0.63166406831E+03 -0.16598312904E+03  0.66338870286E+03  0.79937426242E+02 0.  0.
         24    2    4    4    0    0 -0.40451575887E+03  0.13366778231E+02  0.24680462851E+03  0.48093500724E+03  0.81081974570E+02 0.  0.
         13    1    3    3    0    0  0.26757877914E+02 -0.52160503869E+02  0.22448095399E+02  0.62774351302E+02  0.00000000000E+00 0. -1.
        -13    1    3    3    0    0  0.29323164451E+03 -0.59287034267E+03  0.62461250696E+03  0.90973667861E+03  0.00000000000E+00 0.  1.
          4    1    6    6  502    0 -0.39332609557E+03  0.41572562173E+01  0.22058599714E+03  0.45097769609E+03  0.00000000000E+00 0. -1.
          3    1    5    5  503    0  0.62453739006E+02  0.60117721279E+03 -0.15195671096E+03  0.62322175242E+03  0.00000000000E+00 0. -1.
         -4    1    5    5    0  503  0.22072497442E+02  0.30486855523E+02 -0.14026418087E+02  0.40166950436E+02  0.00000000000E+00 0.  1.
         -3    1    6    6    0  502 -0.11189663299E+02  0.92095220132E+01  0.26218631367E+02  0.29957311148E+02  0.00000000000E+00 0.  1.
<mgrwt>
<rscale>  0 0.19877568E+04</rscale>
<asrwt>0</asrwt>
<pdfrwt beam="1">  1        2 0.10684251E+00 0.19877568E+04</pdfrwt>
<pdfrwt beam="2">  1       -2 0.21882437E+00 0.19877568E+04</pdfrwt>
<totfact> 0.38677869E+00</totfact>
</mgrwt>
</event>
<event>
12    1  0.1598876E-007  0.1491637E+04  0.7818608E-02  0.8890033E-01
          2   -1    0    0  501    0  0.00000000000E+00  0.00000000000E+00  0.10145697839E+04  0.10145697839E+04  0.00000000000E+00 0. -1.
         -2   -1    0    0    0  501 -0.00000000000E+00 -0.00000000000E+00 -0.54825711113E+03  0.54825711113E+03  0.00000000000E+00 0.  1.
         23    2    1    2    0    0 -0.22569363123E+02  0.16716454044E+02  0.63383026491E+03  0.64137766609E+03  0.93998350286E+02 0.  0.
        254    2    1    2    0    0  0.22569363123E+02 -0.16716454044E+02 -0.16751759213E+03  0.92144922895E+03  0.90565872263E+03 0.  0.
        -24    2    4    4    0    0 -0.19878353994E+03  0.13831407655E+03 -0.45304715144E+03  0.51972908481E+03  0.78872813125E+02 0.  0.
         24    2    4    4    0    0  0.22135290306E+03 -0.15503053060E+03  0.28552955931E+03  0.40172014414E+03  0.82585542695E+02 0.  0.
         13    1    3    3    0    0  0.24562913229E+01 -0.23805925230E+02  0.48205267763E+02  0.53819172079E+02  0.00000000000E+00 0.  1.
        -13    1    3    3    0    0 -0.25025654446E+02  0.40522379274E+02  0.58562499715E+03  0.58755849401E+03  0.00000000000E+00 0. -1.
          2    1    6    6  502    0  0.26666532777E+02  0.56742153384E+01  0.12899042749E+02  0.30161001208E+02  0.00000000000E+00 0. -1.
          3    1    5    5  503    0 -0.29588978022E+02  0.46357086641E+02 -0.56221768234E+02  0.78647150779E+02  0.00000000000E+00 0. -1.
         -4    1    5    5    0  503 -0.16919456192E+03  0.91956989911E+02 -0.39682538320E+03  0.44108193403E+03  0.00000000000E+00 0.  1.
         -1    1    6    6    0  502  0.19468637029E+03 -0.16070474593E+03  0.27263051656E+03  0.37155914294E+03  0.00000000000E+00 0.  1.
<mgrwt>
<rscale>  0 0.14916368E+04</rscale>
<asrwt>0</asrwt>
<pdfrwt beam="1">  1        2 0.15608766E+00 0.14916368E+04</pdfrwt>
<pdfrwt beam="2">  1       -2 0.84347248E-01 0.14916368E+04</pdfrwt>
<totfact> 0.29233050E+01</totfact>
</mgrwt>
</event>
<event>
12    1  0.1829727E-007  0.1933854E+04  0.7818608E-02  0.8638186E-01
          1   -1    0    0  501    0  0.00000000000E+00  0.00000000000E+00  0.27582337332E+04  0.27582337332E+04  0.00000000000E+00 0. -1.
         -1   -1    0    0    0  501 -0.00000000000E+00 -0.00000000000E+00 -0.33896615653E+03  0.33896615653E+03  0.00000000000E+00 0.  1.
         23    2    1    2    0    0  0.21704716184E+03 -0.67354476606E+03  0.13648511565E+04  0.15400318239E+04  0.90040638880E+02 0.  0.
        254    2    1    2    0    0 -0.21704716184E+03  0.67354476606E+03  0.10544164201E+04  0.15571680659E+04  0.90122493084E+03 0.  0.
        -24    2    4    4    0    0 -0.18896619665E+03  0.35310857700E+03  0.11439710938E+04  0.12146582589E+04  0.79567153262E+02 0.  0.
         24    2    4    4    0    0 -0.28080965182E+02  0.32043618906E+03 -0.89554673655E+02  0.34250980697E+03  0.76321926278E+02 0.  0.
         13    1    3    3    0    0  0.10567111261E+03 -0.34816509704E+03  0.60512105593E+03  0.70608555513E+03  0.00000000000E+00 0. -1.
        -13    1    3    3    0    0  0.11137604923E+03 -0.32537966902E+03  0.75973010062E+03  0.83394626874E+03  0.00000000000E+00 0.  1.
          2    1    6    6  502    0 -0.23080725115E+02  0.31256953979E+03 -0.99542356152E+02  0.32884816822E+03  0.00000000000E+00 0. -1.
          1    1    5    5  503    0 -0.18296594161E+03  0.30698693649E+03  0.94485828547E+03  0.10101854753E+04  0.00000000000E+00 0. -1.
         -2    1    5    5    0  503 -0.60002550462E+01  0.46121640517E+02  0.19911280831E+03  0.20447278356E+03  0.00000000000E+00 0.  1.
         -1    1    6    6    0  502 -0.50002400678E+01  0.78666492690E+01  0.99876824973E+01  0.13661638742E+02  0.00000000000E+00 0.  1.
<mgrwt>
<rscale>  0 0.19338541E+04</rscale>
<asrwt>0</asrwt>
<pdfrwt beam="1">  1        1 0.42434364E+00 0.19338541E+04</pdfrwt>
<pdfrwt beam="2">  1       -1 0.52148641E-01 0.19338541E+04</pdfrwt>
<totfact> 0.30874445E+00</totfact>
</mgrwt>
</event>
<event>
12    1  0.1598876E-007  0.2459288E+04  0.7818608E-02  0.8417635E-01
          1   -1    0    0  501    0  0.00000000000E+00  0.00000000000E+00  0.24300282350E+04  0.24300282350E+04  0.00000000000E+00 0. -1.
         -1   -1    0    0    0  501 -0.00000000000E+00 -0.00000000000E+00 -0.62222483724E+03  0.62222483724E+03  0.00000000000E+00 0.  1.
         23    2    1    2    0    0  0.53822424592E+02  0.32668081475E+03  0.20308581257E+04  0.20596017790E+04  0.89205119307E+02 0.  0.
        254    2    1    2    0    0 -0.53822424592E+02 -0.32668081475E+03 -0.22305472798E+03  0.99265129317E+03  0.90883770281E+03 0.  0.
        -24    2    4    4    0    0 -0.97388368296E+02 -0.63385177719E+03 -0.16239097025E+03  0.66652420544E+03  0.81431685968E+02 0.  0.
         24    2    4    4    0    0  0.43565943704E+02  0.30717096245E+03 -0.60663757726E+02  0.32612708774E+03  0.80167289052E+02 0.  0.
         13    1    3    3    0    0 -0.25056645105E+02  0.84784781384E+02  0.53924102075E+03  0.54644045703E+03  0.00000000000E+00 0.  1.
        -13    1    3    3    0    0  0.78879069697E+02  0.24189603336E+03  0.14916171050E+04  0.15131613220E+04  0.00000000000E+00 0. -1.
          4    1    6    6  502    0  0.33521785737E+02  0.11217725404E+03  0.12221094292E+02  0.11771491660E+03  0.00000000000E+00 0. -1.
          3    1    5    5  503    0 -0.10615476099E+03 -0.53392752517E+03 -0.15464555887E+03  0.56591755962E+03  0.00000000000E+00 0. -1.
         -4    1    5    5    0  503  0.87663926936E+01 -0.99924252030E+02 -0.77454113841E+01  0.10060664581E+03  0.00000000000E+00 0.  1.
         -3    1    6    6    0  502  0.10044157967E+02  0.19499370840E+03 -0.72884852018E+02  0.20841217114E+03  0.00000000000E+00 0.  1.
<mgrwt>
<rscale>  0 0.24592876E+04</rscale>
<asrwt>0</asrwt>
<pdfrwt beam="1">  1        1 0.37385049E+00 0.24592876E+04</pdfrwt>
<pdfrwt beam="2">  1       -1 0.95726900E-01 0.24592876E+04</pdfrwt>
<totfact> 0.14209144E+00</totfact>
</mgrwt>
</event>
<event>
12    1  0.1598876E-007  0.1384238E+04  0.7818608E-02  0.8965307E-01
          2   -1    0    0  501    0  0.00000000000E+00  0.00000000000E+00  0.84941760775E+03  0.84941760775E+03  0.00000000000E+00 0. -1.
         -2   -1    0    0    0  501 -0.00000000000E+00 -0.00000000000E+00 -0.56394990319E+03  0.56394990319E+03  0.00000000000E+00 0.  1.
         23    2    1    2    0    0  0.37200594760E+03 -0.13420129311E+03  0.82465485099E+02  0.41381159893E+03  0.89672019335E+02 0.  0.
        254    2    1    2    0    0 -0.37200594760E+03  0.13420129311E+03  0.20300221947E+03  0.99955591201E+03  0.89526739469E+03 0.  0.
        -24    2    4    4    0    0 -0.56263359722E+03  0.37313174792E+02  0.40140503701E+03  0.69685302864E+03  0.80804096825E+02 0.  0.
         24    2    4    4    0    0  0.19062764961E+03  0.96888118315E+02 -0.19840281754E+03  0.30270288337E+03  0.80865006791E+02 0.  0.
         13    1    3    3    0    0  0.35754595863E+03 -0.12157015024E+03  0.96792523628E+02  0.38985536625E+03  0.00000000000E+00 0. -1.
        -13    1    3    3    0    0  0.14459988970E+02 -0.12631142866E+02 -0.14327038529E+02  0.23956232678E+02  0.00000000000E+00 0.  1.
          4    1    6    6  502    0  0.15890581771E+03  0.43580849319E+02 -0.12644654217E+03  0.20769948810E+03  0.00000000000E+00 0. -1.
          1    1    5    5  503    0 -0.50740068578E+03  0.53417384406E+02  0.37689215630E+03  0.63431582857E+03  0.00000000000E+00 0. -1.
         -2    1    5    5    0  503 -0.55232911432E+02 -0.16104209614E+02  0.24512880705E+02  0.62537200073E+02  0.00000000000E+00 0.  1.
         -3    1    6    6    0  502  0.31721831899E+02  0.53307268996E+02 -0.71956275373E+02  0.95003395268E+02  0.00000000000E+00 0.  1.
<mgrwt>
<rscale>  0 0.13842384E+04</rscale>
<asrwt>0</asrwt>
<pdfrwt beam="1">  1        2 0.13067963E+00 0.13842384E+04</pdfrwt>
<pdfrwt beam="2">  1       -2 0.86761523E-01 0.13842384E+04</pdfrwt>
<totfact> 0.35602748E+01</totfact>
</mgrwt>
</event>
<event>
12    1  0.1598876E-007  0.2311766E+04  0.7818608E-02  0.8473296E-01
         -2   -1    0    0    0  501 -0.00000000000E+00  0.00000000000E+00  0.13154325002E+04  0.13154325002E+04  0.00000000000E+00 0.  1.
          2   -1    0    0  501    0  0.00000000000E+00 -0.00000000000E+00 -0.10156852594E+04  0.10156852594E+04  0.00000000000E+00 0. -1.
         23    2    1    2    0    0 -0.94300595425E+03  0.23829705761E+03  0.27113648380E+03  0.10139932124E+04  0.92852164873E+02 0.  0.
        254    2    1    2    0    0  0.94300595425E+03 -0.23829705761E+03  0.28610756929E+02  0.13171245472E+04  0.88766704343E+03 0.  0.
        -24    2    4    4    0    0 -0.11621553690E+03  0.16894090341E+02  0.16446031667E+03  0.21627277654E+03  0.77040617906E+02 0.  0.
         24    2    4    4    0    0  0.10592214912E+04 -0.25519114795E+03 -0.13584955974E+03  0.11008517707E+04  0.79666986617E+02 0.  0.
         13    1    3    3    0    0 -0.93577591793E+03  0.23924361940E+03  0.25927348078E+03  0.10000684056E+04  0.00000000000E+00 0. -1.
        -13    1    3    3    0    0 -0.72300363190E+01 -0.94656178472E+00  0.11863003012E+02  0.13924806816E+02  0.00000000000E+00 0.  1.
          4    1    6    6  502    0  0.72584403873E+03 -0.18549669541E+03 -0.12900846520E+03  0.76019851135E+03  0.00000000000E+00 0. -1.
          1    1    5    5  503    0 -0.61681681824E+02 -0.10315936526E+02  0.13457103932E+03  0.14839276614E+03  0.00000000000E+00 0. -1.
         -2    1    5    5    0  503 -0.54533855076E+02  0.27210026867E+02  0.29889277356E+02  0.67880010403E+02  0.00000000000E+00 0.  1.
         -3    1    6    6    0  502  0.33337745242E+03 -0.69694452543E+02 -0.68410945459E+01  0.34065325930E+03  0.00000000000E+00 0.  1.
<mgrwt>
<rscale>  0 0.23117659E+04</rscale>
<asrwt>0</asrwt>
<pdfrwt beam="1">  1        2 0.15625927E+00 0.23117659E+04</pdfrwt>
<pdfrwt beam="2">  1       -2 0.20237423E+00 0.23117659E+04</pdfrwt>
<totfact> 0.28598653E+00</totfact>
</mgrwt>
</event>
<event>
12    1  0.1598876E-007  0.2857722E+04  0.7818608E-02  0.8285569E-01
         -2   -1    0    0    0  501 -0.00000000000E+00  0.00000000000E+00  0.11485354020E+04  0.11485354020E+04  0.00000000000E+00 0.  1.
          2   -1    0    0  501    0  0.00000000000E+00 -0.00000000000E+00 -0.17776067853E+04  0.17776067853E+04  0.00000000000E+00 0. -1.
         23    2    1    2    0    0  0.88498979712E+03  0.27208244665E+03  0.63837285696E+03  0.11280495796E+04  0.87978126442E+02 0.  0.
        254    2    1    2    0    0 -0.88498979712E+03 -0.27208244665E+03 -0.12674442403E+04  0.17980926077E+04  0.87720369636E+03 0.  0.
        -24    2    4    4    0    0 -0.40887777050E+02  0.15629019916E+03 -0.62756684267E+03  0.65282912616E+03  0.79039795563E+02 0.  0.
         24    2    4    4    0    0 -0.84410202007E+03 -0.42837264581E+03 -0.63987739760E+03  0.11452634815E+04  0.78574895692E+02 0.  0.
         11    1    3    3    0    0  0.54035969527E+03  0.14299304829E+03  0.42930138194E+03  0.70479450102E+03  0.00000000000E+00 0.  1.
        -11    1    3    3    0    0  0.34463010185E+03  0.12908939836E+03  0.20907147502E+03  0.42325507857E+03  0.00000000000E+00 0. -1.
          2    1    6    6  502    0 -0.43822497223E+03 -0.26627293316E+03 -0.34349979383E+03  0.61719892221E+03  0.00000000000E+00 0. -1.
          1    1    5    5  503    0 -0.16378456155E+02  0.10832715278E+03 -0.27248599640E+03  0.29368630218E+03  0.00000000000E+00 0. -1.
         -2    1    5    5    0  503 -0.24509320895E+02  0.47963046377E+02 -0.35508084627E+03  0.35914282398E+03  0.00000000000E+00 0.  1.
         -1    1    6    6    0  502 -0.40587704784E+03 -0.16209971265E+03 -0.29637760376E+03  0.52806455933E+03  0.00000000000E+00 0.  1.
<mgrwt>
<rscale>  0 0.28577224E+04</rscale>
<asrwt>0</asrwt>
<pdfrwt beam="1">  1        2 0.27347797E+00 0.28577224E+04</pdfrwt>
<pdfrwt beam="2">  1       -2 0.17669776E+00 0.28577224E+04</pdfrwt>
<totfact> 0.14703211E+00</totfact>
</mgrwt>
</event>
<event>
12    1  0.1598876E-007  0.1211809E+04  0.7818608E-02  0.9102582E-01
          2   -1    0    0  501    0  0.00000000000E+00  0.00000000000E+00  0.55869195582E+03  0.55869195582E+03  0.00000000000E+00 0. -1.
         -2   -1    0    0    0  501 -0.00000000000E+00 -0.00000000000E+00 -0.65710705250E+03  0.65710705250E+03  0.00000000000E+00 0.  1.
         23    2    1    2    0    0 -0.33950369773E+02 -0.16036662931E+03 -0.23045708268E+03  0.29697904363E+03  0.90642164552E+02 0.  0.
        254    2    1    2    0    0  0.33950369773E+02  0.16036662931E+03  0.13204198600E+03  0.91881996469E+03  0.89438524028E+03 0.  0.
        -24    2    4    4    0    0 -0.20057779254E+03 -0.29197363520E+03 -0.61673779551E+02  0.36808796209E+03  0.78772065113E+02 0.  0.
         24    2    4    4    0    0  0.23452816231E+03  0.45234026451E+03  0.19371576555E+03  0.55073200259E+03  0.78516030474E+02 0.  0.
         11    1    3    3    0    0 -0.41316667280E+02 -0.39731171611E+02 -0.12113020559E+03  0.13400805834E+03  0.00000000000E+00 0.  1.
        -11    1    3    3    0    0  0.73662975066E+01 -0.12063545770E+03 -0.10932687708E+03  0.16297098529E+03  0.00000000000E+00 0. -1.
          4    1    6    6  502    0  0.23463580801E+02  0.41021303754E+02 -0.50027270686E+01  0.47521724125E+02  0.00000000000E+00 0. -1.
          1    1    5    5  503    0 -0.12392162784E+03 -0.14853522963E+03  0.19463470431E+01  0.19345043953E+03  0.00000000000E+00 0. -1.
         -4    1    5    5    0  503 -0.76656164697E+02 -0.14343840558E+03 -0.63620126594E+02  0.17463752257E+03  0.00000000000E+00 0.  1.
         -3    1    6    6    0  502  0.21106458151E+03  0.41131896076E+03  0.19871849262E+03  0.50321027847E+03  0.00000000000E+00 0.  1.
<mgrwt>
<rscale>  0 0.12118093E+04</rscale>
<asrwt>0</asrwt>
<pdfrwt beam="1">  1        2 0.85952609E-01 0.12118093E+04</pdfrwt>
<pdfrwt beam="2">  1       -2 0.10109339E+00 0.12118093E+04</pdfrwt>
<totfact> 0.42892568E+01</totfact>
</mgrwt>
</event>
<event>
12    1  0.1598876E-007  0.1056701E+04  0.7818608E-02  0.9248453E-01
         -2   -1    0    0    0  501 -0.00000000000E+00  0.00000000000E+00  0.16193604586E+03  0.16193604586E+03  0.00000000000E+00 0.  1.
          2   -1    0    0  501    0  0.00000000000E+00 -0.00000000000E+00 -0.17238557681E+04  0.17238557681E+04  0.00000000000E+00 0. -1.
         23    2    1    2    0    0  0.94196929156E+01  0.21173204559E+02 -0.65794738910E+01  0.97195771874E+02  0.94163121166E+02 0.  0.
        254    2    1    2    0    0 -0.94196929156E+01 -0.21173204559E+02 -0.15553402483E+04  0.17885960421E+04  0.88286775818E+03 0.  0.
        -24    2    4    4    0    0  0.12306220050E+03 -0.12997890288E+03  0.26433887705E+02  0.19517503328E+03  0.73182804062E+02 0.  0.
         24    2    4    4    0    0 -0.13248189341E+03  0.10880569833E+03 -0.15817741361E+04  0.15934210088E+04  0.87126125511E+02 0.  0.
         11    1    3    3    0    0  0.16969852667E+02  0.55222109874E+02  0.99159759934E+01  0.58615560207E+02  0.00000000000E+00 0.  1.
        -11    1    3    3    0    0 -0.75501597516E+01 -0.34048905315E+02 -0.16495449884E+02  0.38580211668E+02  0.00000000000E+00 0. -1.
          2    1    6    6  502    0 -0.70072869325E+02  0.34468993330E+02 -0.39252931886E+03  0.40022191929E+03  0.00000000000E+00 0. -1.
          1    1    5    5  503    0  0.68132793705E+02 -0.57216454283E+02 -0.22406353417E+02  0.91748814119E+02  0.00000000000E+00 0. -1.
         -2    1    5    5    0  503  0.54929406791E+02 -0.72762448601E+02  0.48840241122E+02  0.10342621916E+03  0.00000000000E+00 0.  1.
         -1    1    6    6    0  502 -0.62409024088E+02  0.74336704996E+02 -0.11892448172E+04  0.11931990895E+04  0.00000000000E+00 0.  1.
<mgrwt>
<rscale>  0 0.10567013E+04</rscale>
<asrwt>0</asrwt>
<pdfrwt beam="1">  1        2 0.26520858E+00 0.10567013E+04</pdfrwt>
<pdfrwt beam="2">  1       -2 0.24913238E-01 0.10567013E+04</pdfrwt>
<totfact> 0.13671408E+02</totfact>
</mgrwt>
</event>
<event>
12    1  0.1598876E-007  0.1550037E+04  0.7818608E-02  0.8851844E-01
         -3   -1    0    0    0  501 -0.00000000000E+00  0.00000000000E+00  0.36882730994E+03  0.36882730994E+03  0.00000000000E+00 0.  1.
          3   -1    0    0  501    0  0.00000000000E+00 -0.00000000000E+00 -0.16285494990E+04  0.16285494990E+04  0.00000000000E+00 0. -1.
         23    2    1    2    0    0  0.33124001549E+03  0.38356714193E+03 -0.46355489642E+03  0.69286042389E+03  0.91261847292E+02 0.  0.
        254    2    1    2    0    0 -0.33124001549E+03 -0.38356714193E+03 -0.79616729265E+03  0.13045163851E+04  0.90057589396E+03 0.  0.
        -24    2    4    4    0    0  0.24284995170E+03 -0.37360722292E+03 -0.36992549204E+03  0.58516152688E+03  0.83729844274E+02 0.  0.
         24    2    4    4    0    0 -0.57408996719E+03 -0.99599190099E+01 -0.42624180061E+03  0.71935485818E+03  0.78171919419E+02 0.  0.
         13    1    3    3    0    0  0.28176894426E+03  0.36678090892E+03 -0.42206826052E+03  0.62614981405E+03  0.00000000000E+00 0.  1.
        -13    1    3    3    0    0  0.49471071230E+02  0.16786233014E+02 -0.41486635902E+02  0.66710609845E+02  0.00000000000E+00 0. -1.
          4    1    6    6  502    0 -0.19603128826E+03  0.24320023654E+02 -0.11583844510E+03  0.22899404991E+03  0.00000000000E+00 0. -1.
          1    1    5    5  503    0  0.78153323145E+02 -0.19507068609E+03 -0.18313297741E+03  0.27874397196E+03  0.00000000000E+00 0. -1.
         -2    1    5    5    0  503  0.16469662856E+03 -0.17853653683E+03 -0.18679251463E+03  0.30641755492E+03  0.00000000000E+00 0.  1.
         -3    1    6    6    0  502 -0.37805867893E+03 -0.34279942664E+02 -0.31040335551E+03  0.49036080828E+03  0.00000000000E+00 0.  1.
<mgrwt>
<rscale>  0 0.15500368E+04</rscale>
<asrwt>0</asrwt>
<pdfrwt beam="1">  1        3 0.25054608E+00 0.15500368E+04</pdfrwt>
<pdfrwt beam="2">  1       -3 0.56742662E-01 0.15500368E+04</pdfrwt>
<totfact> 0.56562158E-01</totfact>
</mgrwt>
</event>
<event>
12    1  0.1598876E-007  0.3915230E+04  0.7818608E-02  0.8021869E-01
          2   -1    0    0  501    0  0.00000000000E+00  0.00000000000E+00  0.16887049996E+04  0.16887049996E+04  0.00000000000E+00 0. -1.
         -2   -1    0    0    0  501 -0.00000000000E+00 -0.00000000000E+00 -0.22693463258E+04  0.22693463258E+04  0.00000000000E+00 0.  1.
         23    2    1    2    0    0  0.12739128003E+04 -0.13451233460E+04 -0.24261767490E+03  0.18707849881E+04  0.93608208588E+02 0.  0.
        254    2    1    2    0    0 -0.12739128003E+04  0.13451233460E+04 -0.33802365130E+03  0.20872663373E+04  0.90011673412E+03 0.  0.
        -24    2    4    4    0    0 -0.66885631911E+03  0.17418796551E+03 -0.32124635252E+03  0.76634109304E+03  0.79807449093E+02 0.  0.
         24    2    4    4    0    0 -0.60505648123E+03  0.11709353805E+04 -0.16777298781E+02  0.13209252442E+04  0.85901177758E+02 0.  0.
         13    1    3    3    0    0  0.63296761792E+03 -0.66199826709E+03 -0.16694247986E+03  0.93099919578E+03  0.00000000000E+00 0. -1.
        -13    1    3    3    0    0  0.64094518242E+03 -0.68312507892E+03 -0.75675195033E+02  0.93978579233E+03  0.00000000000E+00 0.  1.
          4    1    6    6  502    0 -0.27669318569E+03  0.57188636106E+03 -0.47621666479E+02  0.63708786843E+03  0.00000000000E+00 0. -1.
          3    1    5    5  503    0 -0.13469460590E+03  0.66526275897E+02 -0.56196988137E+02  0.16039477460E+03  0.00000000000E+00 0. -1.
         -4    1    5    5    0  503 -0.53416171321E+03  0.10766168961E+03 -0.26504936438E+03  0.60594631844E+03  0.00000000000E+00 0.  1.
         -3    1    6    6    0  502 -0.32836329554E+03  0.59904901943E+03  0.30844367697E+02  0.68383737581E+03  0.00000000000E+00 0.  1.
<mgrwt>
<rscale>  0 0.39152300E+04</rscale>
<asrwt>0</asrwt>
<pdfrwt beam="1">  1        2 0.25980077E+00 0.39152300E+04</pdfrwt>
<pdfrwt beam="2">  1       -2 0.34913020E+00 0.39152300E+04</pdfrwt>
<totfact> 0.12448575E-01</totfact>
</mgrwt>
</event>
<event>
12    1  0.1598876E-007  0.1828069E+04  0.7818608E-02  0.8691514E-01
          2   -1    0    0  501    0  0.00000000000E+00  0.00000000000E+00  0.23413338249E+04  0.23413338249E+04  0.00000000000E+00 0. -1.
         -2   -1    0    0    0  501 -0.00000000000E+00 -0.00000000000E+00 -0.35683029136E+03  0.35683029136E+03  0.00000000000E+00 0.  1.
         23    2    1    2    0    0  0.11674482430E+03  0.45780201013E+03  0.18293287528E+02  0.48138680359E+03  0.90479698355E+02 0.  0.
        254    2    1    2    0    0 -0.11674482430E+03 -0.45780201013E+03  0.19662102460E+04  0.22167773127E+04  0.90824384833E+03 0.  0.
        -24    2    4    4    0    0 -0.38351162375E+03  0.53799719424E+02  0.48988684481E+03  0.62969443666E+03  0.80934464100E+02 0.  0.
         24    2    4    4    0    0  0.26676679946E+03 -0.51160172956E+03  0.14763234012E+04  0.15870828761E+04  0.80002596507E+02 0.  0.
         13    1    3    3    0    0  0.54001803042E+02  0.27344234149E+03 -0.31165209667E+02  0.28046065525E+03  0.00000000000E+00 0.  1.
        -13    1    3    3    0    0  0.62743021255E+02  0.18435966864E+03  0.49458497195E+02  0.20092614833E+03  0.00000000000E+00 0. -1.
          4    1    6    6  502    0  0.18446512786E+03 -0.31101524623E+03  0.10111398227E+04  0.10738536250E+04  0.00000000000E+00 0. -1.
          3    1    5    5  503    0 -0.22699136690E+03 -0.61524912310E+01  0.26011719347E+03  0.34528812336E+03  0.00000000000E+00 0. -1.
         -4    1    5    5    0  503 -0.15652025686E+03  0.59952210655E+02  0.22976965134E+03  0.28440631330E+03  0.00000000000E+00 0.  1.
         -3    1    6    6    0  502  0.82301671592E+02 -0.20058648333E+03  0.46518357854E+03  0.51322925110E+03  0.00000000000E+00 0.  1.
<mgrwt>
<rscale>  0 0.18280687E+04</rscale>
<asrwt>0</asrwt>
<pdfrwt beam="1">  1        2 0.36020519E+00 0.18280687E+04</pdfrwt>
<pdfrwt beam="2">  1       -2 0.54896969E-01 0.18280687E+04</pdfrwt>
<totfact> 0.12633308E+01</totfact>
</mgrwt>
</event>
<event>
12    1  0.1598876E-007  0.1636625E+04  0.7818608E-02  0.8798359E-01
         -2   -1    0    0    0  501 -0.00000000000E+00  0.00000000000E+00  0.19695806692E+03  0.19695806692E+03  0.00000000000E+00 0.  1.
          2   -1    0    0  501    0  0.00000000000E+00 -0.00000000000E+00 -0.33998867194E+04  0.33998867194E+04  0.00000000000E+00 0. -1.
         23    2    1    2    0    0  0.19619887174E+03 -0.11710983948E+03  0.81170545497E+01  0.24660332969E+03  0.92404566250E+02 0.  0.
        254    2    1    2    0    0 -0.19619887174E+03  0.11710983948E+03 -0.32110457071E+04  0.33502414567E+04  0.92795181629E+03 0.  0.
        -24    2    4    4    0    0  0.27994925731E+03  0.25733962958E+03 -0.20236783748E+04  0.20607715861E+04  0.83126974748E+02 0.  0.
         24    2    4    4    0    0 -0.47614812905E+03 -0.14022979009E+03 -0.11873673323E+04  0.12894698706E+04  0.80684140239E+02 0.  0.
         13    1    3    3    0    0  0.43007311183E+02 -0.43660872954E+02 -0.36003270154E+02  0.71078380005E+02  0.00000000000E+00 0. -1.
        -13    1    3    3    0    0  0.15319156055E+03 -0.73448966528E+02  0.44120324704E+02  0.17552494968E+03  0.00000000000E+00 0.  1.
          2    1    6    6  502    0 -0.42830697680E+03 -0.11278845461E+03 -0.11037787614E+04  0.11893257149E+04  0.00000000000E+00 0. -1.
          1    1    5    5  503    0  0.20773168124E+03  0.16962278549E+03 -0.12220933632E+04  0.12511740603E+04  0.00000000000E+00 0. -1.
         -2    1    5    5    0  503  0.72217576077E+02  0.87716844083E+02 -0.80158501155E+03  0.80959752579E+03  0.00000000000E+00 0.  1.
         -1    1    6    6    0  502 -0.47841152251E+02 -0.27441335480E+02 -0.83588570842E+02  0.10014415568E+03  0.00000000000E+00 0.  1.
<mgrwt>
<rscale>  0 0.16366247E+04</rscale>
<asrwt>0</asrwt>
<pdfrwt beam="1">  1        2 0.52305949E+00 0.16366247E+04</pdfrwt>
<pdfrwt beam="2">  1       -2 0.30301241E-01 0.16366247E+04</pdfrwt>
<totfact> 0.92682834E+00</totfact>
</mgrwt>
</event>
<event>
12    1  0.1598876E-007  0.1716098E+04  0.7818608E-02  0.8752236E-01
         -2   -1    0    0    0  501 -0.00000000000E+00  0.00000000000E+00  0.90599428430E+03  0.90599428430E+03  0.00000000000E+00 0. -1.
          2   -1    0    0  501    0  0.00000000000E+00 -0.00000000000E+00 -0.81264133852E+03  0.81264133852E+03  0.00000000000E+00 0.  1.
         23    2    1    2    0    0 -0.19295384353E+03 -0.56976654656E+03  0.18490465707E+03  0.63595135819E+03  0.91538486308E+02 0.  0.
        254    2    1    2    0    0  0.19295384353E+03  0.56976654656E+03 -0.91551711288E+02  0.10826842646E+04  0.89552129943E+03 0.  0.
        -24    2    4    4    0    0 -0.95119618404E+01 -0.46157065335E+02 -0.36339364174E+03  0.37505493048E+03  0.79939414091E+02 0.  0.
         24    2    4    4    0    0  0.20246580537E+03  0.61592361189E+03  0.27184193045E+03  0.70762933415E+03  0.80541550587E+02 0.  0.
         13    1    3    3    0    0 -0.54089269905E+02 -0.21770411292E+03  0.27264551039E+02  0.22597363927E+03  0.00000000000E+00 0.  1.
        -13    1    3    3    0    0 -0.13886457362E+03 -0.35206243363E+03  0.15764010603E+03  0.40997771892E+03  0.00000000000E+00 0. -1.
          4    1    6    6  502    0  0.14895096594E+03  0.49396080400E+03  0.24754967548E+03  0.57224514674E+03  0.00000000000E+00 0. -1.
          3    1    5    5  503    0  0.32119000709E+02 -0.38543459126E+02 -0.18191895418E+03  0.18871071601E+03  0.00000000000E+00 0. -1.
         -4    1    5    5    0  503 -0.41630962549E+02 -0.76136062089E+01 -0.18147468756E+03  0.18634421447E+03  0.00000000000E+00 0.  1.
         -3    1    6    6    0  502  0.53514839429E+02  0.12196280789E+03  0.24292254967E+02  0.13538418741E+03  0.00000000000E+00 0.  1.
<mgrwt>
<rscale>  0 0.17160984E+04</rscale>
<asrwt>0</asrwt>
<pdfrwt beam="1">  1        2 0.12502174E+00 0.17160984E+04</pdfrwt>
<pdfrwt beam="2">  1       -2 0.13938374E+00 0.17160984E+04</pdfrwt>
<totfact> 0.11643028E+01</totfact>
</mgrwt>
</event>
<event>
12    1  0.1598876E-007  0.2066591E+04  0.7818608E-02  0.8576105E-01
         -1   -1    0    0    0  501 -0.00000000000E+00  0.00000000000E+00  0.93022030647E+03  0.93022030647E+03  0.00000000000E+00 0.  1.
          1   -1    0    0  501    0  0.00000000000E+00 -0.00000000000E+00 -0.11477926619E+04  0.11477926619E+04  0.00000000000E+00 0. -1.
         23    2    1    2    0    0  0.59782654401E+03 -0.68664180957E+02 -0.66981139984E+03  0.90474566177E+03  0.88351879817E+02 0.  0.
        254    2    1    2    0    0 -0.59782654401E+03  0.68664180957E+02  0.45223904445E+03  0.11732673066E+04  0.89995815060E+03 0.  0.
        -24    2    4    4    0    0 -0.43661153526E+03  0.10228151404E+03 -0.19877484719E+03  0.49702464281E+03  0.80192985045E+02 0.  0.
         24    2    4    4    0    0 -0.16121500875E+03 -0.33617333084E+02  0.65101389164E+03  0.67624266374E+03  0.79778750481E+02 0.  0.
         11    1    3    3    0    0  0.45702218015E+03 -0.79725455498E+02 -0.55003064057E+03  0.71955481165E+03  0.00000000000E+00 0. -1.
        -11    1    3    3    0    0  0.14080436387E+03  0.11061274542E+02 -0.11978075927E+03  0.18519085012E+03  0.00000000000E+00 0.  1.
          4    1    6    6  502    0 -0.53426720108E+02  0.90392055550E+01  0.34072941526E+03  0.34501109559E+03  0.00000000000E+00 0. -1.
          1    1    5    5  503    0 -0.34983973410E+03  0.53467540015E+02 -0.13492505109E+03  0.37874976806E+03  0.00000000000E+00 0. -1.
         -2    1    5    5    0  503 -0.86771801163E+02  0.48813974026E+02 -0.63849796100E+02  0.11827487476E+03  0.00000000000E+00 0.  1.
         -3    1    6    6    0  502 -0.10778828864E+03 -0.42656538639E+02  0.31028447637E+03  0.33123156815E+03  0.00000000000E+00 0.  1.
<mgrwt>
<rscale>  0 0.20665914E+04</rscale>
<asrwt>0</asrwt>
<pdfrwt beam="1">  1        1 0.17658349E+00 0.20665914E+04</pdfrwt>
<pdfrwt beam="2">  1       -1 0.14311082E+00 0.20665914E+04</pdfrwt>
<totfact> 0.42608539E+00</totfact>
</mgrwt>
</event>
<event>
12    1  0.1598876E-007  0.1498886E+04  0.7818608E-02  0.8885194E-01
         -2   -1    0    0    0  501 -0.00000000000E+00  0.00000000000E+00  0.63857399062E+03  0.63857399062E+03  0.00000000000E+00 0.  1.
          2   -1    0    0  501    0  0.00000000000E+00 -0.00000000000E+00 -0.87956087648E+03  0.87956087648E+03  0.00000000000E+00 0. -1.
         23    2    1    2    0    0 -0.44675922487E+03 -0.91251309504E+02 -0.20174239042E+03  0.50703302314E+03  0.91988520858E+02 0.  0.
        254    2    1    2    0    0  0.44675922487E+03  0.91251309504E+02 -0.39244495433E+02  0.10111018440E+04  0.90159092827E+03 0.  0.
        -24    2    4    4    0    0  0.21355538384E+02 -0.17670270071E+03 -0.35975980829E+03  0.40929224462E+03  0.80081947947E+02 0.  0.
         24    2    4    4    0    0  0.42540368648E+03  0.26795401022E+03  0.32051531286E+03  0.60180959934E+03  0.81713401648E+02 0.  0.
         13    1    3    3    0    0 -0.44059991442E+03 -0.78106330225E+02 -0.20494097082E+03  0.49216835019E+03  0.00000000000E+00 0. -1.
        -13    1    3    3    0    0 -0.61593104522E+01 -0.13144979279E+02  0.31985803952E+01  0.14864672954E+02  0.00000000000E+00 0.  1.
          2    1    6    6  502    0  0.19628173615E+03  0.12249360026E+03  0.99717200325E+02  0.25194190221E+03  0.00000000000E+00 0. -1.
          3    1    5    5  503    0 -0.15646051233E+02 -0.13357745808E+03 -0.21288984250E+03  0.25181306810E+03  0.00000000000E+00 0. -1.
         -4    1    5    5    0  503  0.37001589618E+02 -0.43125242634E+02 -0.14686996579E+03  0.15747917652E+03  0.00000000000E+00 0.  1.
         -1    1    6    6    0  502  0.22912195033E+03  0.14546040996E+03  0.22079811253E+03  0.34986769712E+03  0.00000000000E+00 0.  1.
<mgrwt>
<rscale>  0 0.14988859E+04</rscale>
<asrwt>0</asrwt>
<pdfrwt beam="1">  1        2 0.13531706E+00 0.14988859E+04</pdfrwt>
<pdfrwt beam="2">  1       -2 0.98242153E-01 0.14988859E+04</pdfrwt>
<totfact> 0.25206474E+01</totfact>
</mgrwt>
</event>
<event>
12    1  0.1598876E-007  0.2871627E+04  0.7818608E-02  0.8281370E-01
         -2   -1    0    0    0  501 -0.00000000000E+00  0.00000000000E+00  0.13566672929E+04  0.13566672929E+04  0.00000000000E+00 0.  1.
          2   -1    0    0  501    0  0.00000000000E+00 -0.00000000000E+00 -0.15195770723E+04  0.15195770723E+04  0.00000000000E+00 0. -1.
         23    2    1    2    0    0  0.73400108520E+02 -0.33152884841E+03 -0.13227983419E+04  0.13687887758E+04  0.92132004089E+02 0.  0.
        254    2    1    2    0    0 -0.73400108520E+02  0.33152884841E+03  0.11598885624E+04  0.15074555894E+04  0.90098941370E+03 0.  0.
        -24    2    4    4    0    0  0.26742052585E+02  0.43252839571E+03  0.12465717360E+04  0.13221271590E+04  0.79266519435E+02 0.  0.
         24    2    4    4    0    0 -0.10014216110E+03 -0.10099954730E+03 -0.86683173591E+02  0.18532843042E+03  0.81260651941E+02 0.  0.
         13    1    3    3    0    0  0.69426215516E+02 -0.11720033756E+03 -0.45884811810E+03  0.47864132084E+03  0.00000000000E+00 0.  1.
        -13    1    3    3    0    0  0.39738930039E+01 -0.21432851085E+03 -0.86395022378E+03  0.89014745495E+03  0.00000000000E+00 0. -1.
          4    1    6    6  502    0 -0.33007945028E+02 -0.85639882614E+02 -0.67214164650E+02  0.11376052856E+03  0.00000000000E+00 0. -1.
          1    1    5    5  503    0 -0.10005610829E+02  0.31326644026E+03  0.82748874918E+03  0.88485795745E+03  0.00000000000E+00 0. -1.
         -2    1    5    5    0  503  0.36747663413E+02  0.11926195544E+03  0.41908298682E+03  0.43726920155E+03  0.00000000000E+00 0.  1.
         -3    1    6    6    0  502 -0.67134216076E+02 -0.15359664682E+02 -0.19469008941E+02  0.71567901859E+02  0.00000000000E+00 0.  1.
<mgrwt>
<rscale>  0 0.28716271E+04</rscale>
<asrwt>0</asrwt>
<pdfrwt beam="1">  1        2 0.23378109E+00 0.28716271E+04</pdfrwt>
<pdfrwt beam="2">  1       -2 0.20871805E+00 0.28716271E+04</pdfrwt>
<totfact> 0.12494847E+00</totfact>
</mgrwt>
</event>
<event>
12    1  0.1598876E-007  0.2786487E+04  0.7818608E-02  0.8307476E-01
          1   -1    0    0  501    0  0.00000000000E+00  0.00000000000E+00  0.15928915784E+04  0.15928915784E+04  0.00000000000E+00 0. -1.
         -1   -1    0    0    0  501 -0.00000000000E+00 -0.00000000000E+00 -0.12186186274E+04  0.12186186274E+04  0.00000000000E+00 0.  1.
         23    2    1    2    0    0  0.89752850579E+03  0.86335892429E+03  0.21080626053E+03  0.12663885808E+04  0.91404087943E+02 0.  0.
        254    2    1    2    0    0 -0.89752850579E+03 -0.86335892429E+03  0.16346669048E+03  0.15451216251E+04  0.89985189140E+03 0.  0.
        -24    2    4    4    0    0 -0.91485912650E+03 -0.10114364602E+04  0.12571146139E+03  0.13719113155E+04  0.79789420230E+02 0.  0.
         24    2    4    4    0    0  0.17330620709E+02  0.14807753593E+03  0.37755229095E+02  0.17321030959E+03  0.79680907135E+02 0.  0.
         13    1    3    3    0    0  0.53806679285E+03  0.48848068160E+03  0.82415359969E+02  0.73138330677E+03  0.00000000000E+00 0.  1.
        -13    1    3    3    0    0  0.35946171294E+03  0.37487824269E+03  0.12839090056E+03  0.53500527405E+03  0.00000000000E+00 0. -1.
          4    1    6    6  502    0  0.73516378308E+01 -0.87710476924E+01  0.57942834510E+01  0.12827765867E+02  0.00000000000E+00 0. -1.
          1    1    5    5  503    0 -0.24063508781E+03 -0.23551561718E+03  0.58853321364E+02  0.34181364053E+03  0.00000000000E+00 0. -1.
         -2    1    5    5    0  503 -0.67422403869E+03 -0.77592084304E+03  0.66858140021E+02  0.10300976749E+04  0.00000000000E+00 0.  1.
         -3    1    6    6    0  502  0.99789828781E+01  0.15684858362E+03  0.31960945644E+02  0.16038254372E+03  0.00000000000E+00 0.  1.
<mgrwt>
<rscale>  0 0.27864869E+04</rscale>
<asrwt>0</asrwt>
<pdfrwt beam="1">  1        1 0.24506024E+00 0.27864869E+04</pdfrwt>
<pdfrwt beam="2">  1       -1 0.18747979E+00 0.27864869E+04</pdfrwt>
<totfact> 0.90037828E-01</totfact>
</mgrwt>
</event>
<event>
12    1  0.1598876E-007  0.1489246E+04  0.7818608E-02  0.8891636E-01
         -2   -1    0    0    0  501 -0.00000000000E+00  0.00000000000E+00  0.22338921597E+03  0.22338921597E+03  0.00000000000E+00 0.  1.
          2   -1    0    0  501    0  0.00000000000E+00 -0.00000000000E+00 -0.24820518826E+04  0.24820518826E+04  0.00000000000E+00 0. -1.
         23    2    1    2    0    0 -0.34470361962E+03  0.10212367219E+03 -0.12701582091E+04  0.13227981763E+04  0.85107634038E+02 0.  0.
        254    2    1    2    0    0  0.34470361962E+03 -0.10212367219E+03 -0.98850445756E+03  0.13826429223E+04  0.89739097280E+03 0.  0.
        -24    2    4    4    0    0  0.65288682618E+02 -0.14200087207E+02 -0.10643201856E+04  0.10694070835E+04  0.79936213899E+02 0.  0.
         24    2    4    4    0    0  0.27941493701E+03 -0.87923584980E+02  0.75815728040E+02  0.31323583872E+03  0.81027169669E+02 0.  0.
         11    1    3    3    0    0 -0.22448716351E+03  0.89243926361E+02 -0.95944732405E+03  0.98939281006E+03  0.00000000000E+00 0. -1.
        -11    1    3    3    0    0 -0.12021645611E+03  0.12879745826E+02 -0.31071088505E+03  0.33340536628E+03  0.00000000000E+00 0.  1.
          2    1    6    6  502    0  0.61934710746E+02 -0.27352032886E+02  0.53664449148E+02  0.86393953496E+02  0.00000000000E+00 0. -1.
          1    1    5    5  503    0  0.61811191898E+02  0.67664454203E+01 -0.40509900678E+03  0.40984340122E+03  0.00000000000E+00 0. -1.
         -2    1    5    5    0  503  0.34774907198E+01 -0.20966532628E+02 -0.65922117882E+03  0.65956368232E+03  0.00000000000E+00 0.  1.
         -1    1    6    6    0  502  0.21748022626E+03 -0.60571552094E+02  0.22151278892E+02  0.22684188523E+03  0.00000000000E+00 0.  1.
<mgrwt>
<rscale>  0 0.14892463E+04</rscale>
<asrwt>0</asrwt>
<pdfrwt beam="1">  1        2 0.38185414E+00 0.14892463E+04</pdfrwt>
<pdfrwt beam="2">  1       -2 0.34367571E-01 0.14892463E+04</pdfrwt>
<totfact> 0.27425279E+01</totfact>
</mgrwt>
</event>
<event>
12    1  0.1598876E-007  0.1782501E+04  0.7818608E-02  0.8715661E-01
          2   -1    0    0  501    0  0.00000000000E+00  0.00000000000E+00  0.23801692296E+04  0.23801692296E+04  0.00000000000E+00 0. -1.
         -2   -1    0    0    0  501 -0.00000000000E+00 -0.00000000000E+00 -0.33372719509E+03  0.33372719509E+03  0.00000000000E+00 0.  1.
         23    2    1    2    0    0  0.60462254952E+03  0.27500901968E+02  0.35869866883E+03  0.70942583181E+03  0.91079903554E+02 0.  0.
        254    2    1    2    0    0 -0.60462254952E+03 -0.27500901968E+02  0.16877433657E+04  0.20044705928E+04  0.89615844707E+03 0.  0.
        -24    2    4    4    0    0 -0.23740228344E+03  0.31263948982E+03  0.23265591725E+03  0.46364276018E+03  0.82052047221E+02 0.  0.
         24    2    4    4    0    0 -0.36722026607E+03 -0.34014039179E+03  0.14550874484E+04  0.15408278327E+04  0.79528092257E+02 0.  0.
         11    1    3    3    0    0  0.28191126513E+03  0.38399034050E+02  0.12462082974E+03  0.31061036433E+03  0.00000000000E+00 0.  1.
        -11    1    3    3    0    0  0.32271128439E+03 -0.10898132082E+02  0.23407783908E+03  0.39881546748E+03  0.00000000000E+00 0. -1.
          4    1    6    6  502    0 -0.33901823835E+03 -0.32814871176E+03  0.14050248328E+04  0.14821301305E+04  0.00000000000E+00 0. -1.
          1    1    5    5  503    0 -0.61352209620E+02  0.10788062637E+03  0.11461122688E+03  0.16893210618E+03  0.00000000000E+00 0. -1.
         -2    1    5    5    0  503 -0.17605007382E+03  0.20475886345E+03  0.11804469037E+03  0.29471065400E+03  0.00000000000E+00 0.  1.
         -3    1    6    6    0  502 -0.28202027725E+02 -0.11991680035E+02  0.50062615632E+02  0.58697702185E+02  0.00000000000E+00 0.  1.
<mgrwt>
<rscale>  0 0.17825007E+04</rscale>
<asrwt>0</asrwt>
<pdfrwt beam="1">  1        2 0.36617987E+00 0.17825007E+04</pdfrwt>
<pdfrwt beam="2">  1       -2 0.51342647E-01 0.17825007E+04</pdfrwt>
<totfact> 0.13839563E+01</totfact>
</mgrwt>
</event>
<event>
12    1  0.1598876E-007  0.1292182E+04  0.7818608E-02  0.9035788E-01
         -2   -1    0    0    0  501 -0.00000000000E+00  0.00000000000E+00  0.39957217831E+03  0.39957217831E+03  0.00000000000E+00 0. -1.
          2   -1    0    0  501    0  0.00000000000E+00 -0.00000000000E+00 -0.10447020120E+04  0.10447020120E+04  0.00000000000E+00 0.  1.
         23    2    1    2    0    0  0.90043180365E+02 -0.23911259146E+03  0.47341556359E+02  0.27555069488E+03  0.91675278928E+02 0.  0.
        254    2    1    2    0    0 -0.90043180365E+02  0.23911259146E+03 -0.69247139009E+03  0.11687234955E+04  0.90615416848E+03 0.  0.
        -24    2    4    4    0    0  0.19887641795E+02  0.19019337818E+03 -0.89570573628E+03  0.91935162111E+03  0.79684363785E+02 0.  0.
         24    2    4    4    0    0 -0.10993082216E+03  0.48919213281E+02  0.20323434619E+03  0.24937187436E+03  0.80026602862E+02 0.  0.
         11    1    3    3    0    0  0.25381996988E+02 -0.79982462268E+01 -0.10633222147E+02  0.28658037739E+02  0.00000000000E+00 0.  1.
        -11    1    3    3    0    0  0.64661183377E+02 -0.23111434524E+03  0.57974778506E+02  0.24689265715E+03  0.00000000000E+00 0. -1.
          2    1    6    6  502    0  0.53154022911E+01 -0.47548505789E+01  0.48901535039E+02  0.49418844935E+02  0.00000000000E+00 0. -1.
          3    1    5    5  503    0 -0.94232634163E+01  0.13431216482E+03 -0.46683962507E+03  0.48586807988E+03  0.00000000000E+00 0. -1.
         -4    1    5    5    0  503  0.29310905211E+02  0.55881213359E+02 -0.42886611121E+03  0.43348354123E+03  0.00000000000E+00 0.  1.
         -1    1    6    6    0  502 -0.11524622445E+03  0.53674063860E+02  0.15433281115E+03  0.19995302943E+03  0.00000000000E+00 0.  1.
<mgrwt>
<rscale>  0 0.12921824E+04</rscale>
<asrwt>0</asrwt>
<pdfrwt beam="1">  1        2 0.16072339E+00 0.12921824E+04</pdfrwt>
<pdfrwt beam="2">  1       -2 0.61472643E-01 0.12921824E+04</pdfrwt>
<totfact> 0.56916221E+01</totfact>
</mgrwt>
</event>
<event>
12    1  0.1598876E-007  0.1529131E+04  0.7818608E-02  0.8865309E-01
         -1   -1    0    0    0  501 -0.00000000000E+00  0.00000000000E+00  0.17191523728E+03  0.17191523728E+03  0.00000000000E+00 0.  1.
          1   -1    0    0  501    0  0.00000000000E+00 -0.00000000000E+00 -0.34002812556E+04  0.34002812556E+04  0.00000000000E+00 0. -1.
         23    2    1    2    0    0 -0.48543762270E+03 -0.78202902995E+02 -0.13492947944E+04  0.14390560770E+04  0.92306939682E+02 0.  0.
        254    2    1    2    0    0  0.48543762270E+03  0.78202902995E+02 -0.18790712240E+04  0.21331404159E+04  0.88182423961E+03 0.  0.
        -24    2    4    4    0    0  0.22611197245E+03 -0.38705390018E+02 -0.11926367431E+02  0.24283622728E+03  0.78755721926E+02 0.  0.
         24    2    4    4    0    0  0.25932565024E+03  0.11690829301E+03 -0.18671448565E+04  0.18903041886E+04  0.78119577007E+02 0.  0.
         13    1    3    3    0    0 -0.34859372246E+03 -0.67284965310E+02 -0.10788394112E+04  0.11357549582E+04  0.00000000000E+00 0. -1.
        -13    1    3    3    0    0 -0.13684390024E+03 -0.10917937686E+02 -0.27045538319E+03  0.30330111885E+03  0.00000000000E+00 0.  1.
          2    1    6    6  502    0  0.19679544459E+03  0.11738148395E+03 -0.15715441567E+04  0.15881617978E+04  0.00000000000E+00 0. -1.
          1    1    5    5  503    0  0.20965518560E+03 -0.57216463718E+02 -0.15194442543E+02  0.21785291289E+03  0.00000000000E+00 0. -1.
         -2    1    5    5    0  503  0.16456786852E+02  0.18511073700E+02  0.32680751119E+01  0.24983314391E+02  0.00000000000E+00 0.  1.
         -1    1    6    6    0  502  0.62530205653E+02 -0.47319094122E+00 -0.29560069987E+03  0.30214239076E+03  0.00000000000E+00 0.  1.
<mgrwt>
<rscale>  0 0.15291307E+04</rscale>
<asrwt>0</asrwt>
<pdfrwt beam="1">  1        1 0.52312015E+00 0.15291307E+04</pdfrwt>
<pdfrwt beam="2">  1       -1 0.26448500E-01 0.15291307E+04</pdfrwt>
<totfact> 0.37047252E+00</totfact>
</mgrwt>
</event>
<event>
12    1  0.1598876E-007  0.1805503E+04  0.7818608E-02  0.8703379E-01
          3   -1    0    0  501    0  0.00000000000E+00  0.00000000000E+00  0.22868098911E+04  0.22868098911E+04  0.00000000000E+00 0. -1.
         -3   -1    0    0    0  501 -0.00000000000E+00 -0.00000000000E+00 -0.35637430307E+03  0.35637430307E+03  0.00000000000E+00 0.  1.
         23    2    1    2    0    0 -0.21974564728E+03  0.54745731917E+03  0.12033885043E+04  0.13432695172E+04  0.90727271147E+02 0.  0.
        254    2    1    2    0    0  0.21974564728E+03 -0.54745731917E+03  0.72704708376E+03  0.12999146770E+04  0.90176662152E+03 0.  0.
        -24    2    4    4    0    0 -0.51916125583E+02  0.18729891573E+03 -0.25205688463E+02  0.21092018434E+03  0.77947607411E+02 0.  0.
         24    2    4    4    0    0  0.27166177286E+03 -0.73475623491E+03  0.75225277223E+03  0.10889944927E+04  0.79736617600E+02 0.  0.
         11    1    3    3    0    0 -0.18947076181E+03  0.43846919251E+03  0.10411602207E+04  0.11454994577E+04  0.00000000000E+00 0. -1.
        -11    1    3    3    0    0 -0.30274885472E+02  0.10898812666E+03  0.16222828360E+03  0.19777005953E+03  0.00000000000E+00 0.  1.
          2    1    6    6  502    0  0.16227206816E+03 -0.47839786271E+03  0.43452098027E+03  0.66633716799E+03  0.00000000000E+00 0. -1.
          3    1    5    5  503    0 -0.71326384554E+01  0.13880164954E+03 -0.37086663465E+02  0.14384781213E+03  0.00000000000E+00 0. -1.
         -4    1    5    5    0  503 -0.44783487127E+02  0.48497266190E+02  0.11880975001E+02  0.67072372212E+02  0.00000000000E+00 0.  1.
         -1    1    6    6    0  502  0.10938970470E+03 -0.25635837220E+03  0.31773179196E+03  0.42265732469E+03  0.00000000000E+00 0.  1.
<mgrwt>
<rscale>  0 0.18055030E+04</rscale>
<asrwt>0</asrwt>
<pdfrwt beam="1">  1        3 0.35181690E+00 0.18055030E+04</pdfrwt>
<pdfrwt beam="2">  1       -3 0.54826817E-01 0.18055030E+04</pdfrwt>
<totfact> 0.16391643E-01</totfact>
</mgrwt>
</event>
<event>
12    1  0.1598876E-007  0.1027061E+04  0.7818608E-02  0.9279353E-01
          2   -1    0    0  501    0  0.00000000000E+00  0.00000000000E+00  0.10820290289E+04  0.10820290289E+04  0.00000000000E+00 0. -1.
         -2   -1    0    0    0  501 -0.00000000000E+00 -0.00000000000E+00 -0.24372128439E+03  0.24372128439E+03  0.00000000000E+00 0.  1.
         23    2    1    2    0    0  0.21577679183E+02 -0.70221697090E+02  0.15140101209E+03  0.18735104063E+03  0.82349638632E+02 0.  0.
        254    2    1    2    0    0 -0.21577679183E+02  0.70221697090E+02  0.68690673246E+03  0.11383992727E+04  0.90482891311E+03 0.  0.
        -24    2    4    4    0    0 -0.26724869158E+03 -0.28300294833E+03  0.55209546391E+03  0.68036595482E+03  0.81091918784E+02 0.  0.
         24    2    4    4    0    0  0.24567101240E+03  0.35322464542E+03  0.13481126855E+03  0.45803331788E+03  0.80613557737E+02 0.  0.
         13    1    3    3    0    0 -0.77438299577E+01 -0.55004774630E+02  0.14278772276E+03  0.15321170290E+03  0.00000000000E+00 0. -1.
        -13    1    3    3    0    0  0.29321509141E+02 -0.15216922460E+02  0.86132893241E+01  0.34139337727E+02  0.00000000000E+00 0.  1.
          4    1    6    6  502    0  0.20716242060E+03  0.32773537419E+03  0.13847905112E+03  0.41170765308E+03  0.00000000000E+00 0. -1.
          1    1    5    5  503    0 -0.23574398458E+03 -0.22480515689E+03  0.49707614939E+03  0.59430403257E+03  0.00000000000E+00 0. -1.
         -2    1    5    5    0  503 -0.31504707000E+02 -0.58197791443E+02  0.55019314516E+02  0.86061922253E+02  0.00000000000E+00 0.  1.
         -3    1    6    6    0  502  0.38508591796E+02  0.25489271232E+02 -0.36677825669E+01  0.46325664798E+02  0.00000000000E+00 0.  1.
<mgrwt>
<rscale>  0 0.10270609E+04</rscale>
<asrwt>0</asrwt>
<pdfrwt beam="1">  1        2 0.16646600E+00 0.10270609E+04</pdfrwt>
<pdfrwt beam="2">  1       -2 0.37495583E-01 0.10270609E+04</pdfrwt>
<totfact> 0.14934196E+02</totfact>
</mgrwt>
</event>
<event>
12    1  0.1598876E-007  0.1675365E+04  0.7818608E-02  0.8775541E-01
          1   -1    0    0  501    0  0.00000000000E+00  0.00000000000E+00  0.98915861723E+03  0.98915861723E+03  0.00000000000E+00 0. -1.
         -1   -1    0    0    0  501 -0.00000000000E+00 -0.00000000000E+00 -0.70940259382E+03  0.70940259382E+03  0.00000000000E+00 0.  1.
         23    2    1    2    0    0 -0.56195482557E+02  0.18182169115E+03 -0.46432673545E+03  0.50937122010E+03  0.87422325403E+02 0.  0.
        254    2    1    2    0    0  0.56195482557E+02 -0.18182169115E+03  0.74408275886E+03  0.11891899910E+04  0.90790782732E+03 0.  0.
        -24    2    4    4    0    0  0.14173207050E+03  0.18820437060E+03  0.76132098906E+03  0.80075672487E+03  0.78056512297E+02 0.  0.
         24    2    4    4    0    0 -0.85536587938E+02 -0.37002606175E+03 -0.17238230200E+02  0.38843326609E+03  0.79670894139E+02 0.  0.
         11    1    3    3    0    0 -0.66836887473E+02  0.92462049745E+02 -0.31499753095E+03  0.33502215550E+03  0.00000000000E+00 0.  1.
        -11    1    3    3    0    0  0.10641404916E+02  0.89359641402E+02 -0.14932920450E+03  0.17434906460E+03  0.00000000000E+00 0. -1.
          2    1    6    6  502    0  0.15012944687E+02 -0.46806742323E+02  0.36539429654E+01  0.49291083720E+02  0.00000000000E+00 0. -1.
          3    1    5    5  503    0 -0.98089483089E+01  0.14096420923E+02  0.45023134128E+02  0.48187209469E+02  0.00000000000E+00 0. -1.
         -4    1    5    5    0  503  0.15154101880E+03  0.17410794968E+03  0.71629785493E+03  0.75256951540E+03  0.00000000000E+00 0.  1.
         -1    1    6    6    0  502 -0.10054953262E+03 -0.32321931943E+03 -0.20892173166E+02  0.33914218237E+03  0.00000000000E+00 0.  1.
<mgrwt>
<rscale>  0 0.16753647E+04</rscale>
<asrwt>0</asrwt>
<pdfrwt beam="1">  1        1 0.15217825E+00 0.16753647E+04</pdfrwt>
<pdfrwt beam="2">  1       -1 0.10913886E+00 0.16753647E+04</pdfrwt>
<totfact> 0.11442568E+01</totfact>
</mgrwt>
</event>
<event>
12    1  0.1598876E-007  0.2674264E+04  0.7818608E-02  0.8343404E-01
          1   -1    0    0  501    0  0.00000000000E+00  0.00000000000E+00  0.24661507828E+04  0.24661507828E+04  0.00000000000E+00 0. -1.
         -1   -1    0    0    0  501 -0.00000000000E+00 -0.00000000000E+00 -0.72498478791E+03  0.72498478791E+03  0.00000000000E+00 0.  1.
         23    2    1    2    0    0  0.10983474220E+04  0.29621791252E+03  0.36648164130E+03  0.11986046564E+04  0.90731569882E+02 0.  0.
        254    2    1    2    0    0 -0.10983474220E+04 -0.29621791252E+03  0.13746843536E+04  0.19925309143E+04  0.88674137236E+03 0.  0.
        -24    2    4    4    0    0 -0.20955145822E+03  0.29251999222E+03  0.42645008159E+03  0.56361270794E+03  0.79497502909E+02 0.  0.
         24    2    4    4    0    0 -0.88879596378E+03 -0.58873790474E+03  0.94823427198E+03  0.14289182064E+04  0.78028329908E+02 0.  0.
         13    1    3    3    0    0  0.53618521324E+03  0.12828899260E+03  0.22223212149E+03  0.59442389281E+03  0.00000000000E+00 0.  1.
        -13    1    3    3    0    0  0.56216220876E+03  0.16792891993E+03  0.14424951981E+03  0.60418076357E+03  0.00000000000E+00 0. -1.
          4    1    6    6  502    0 -0.14247192757E+03 -0.12585643824E+03  0.18799430194E+03  0.26735734655E+03  0.00000000000E+00 0. -1.
          1    1    5    5  503    0 -0.27907149209E+00  0.14333324835E+02  0.17011957344E+01  0.14436625251E+02  0.00000000000E+00 0. -1.
         -4    1    5    5    0  503 -0.20927238673E+03  0.27818666738E+03  0.42474888586E+03  0.54917608269E+03  0.00000000000E+00 0.  1.
         -3    1    6    6    0  502 -0.74632403620E+03 -0.46288146650E+03  0.76023997003E+03  0.11615608598E+04  0.00000000000E+00 0.  1.
<mgrwt>
<rscale>  0 0.26742639E+04</rscale>
<asrwt>0</asrwt>
<pdfrwt beam="1">  1        1 0.37940781E+00 0.26742639E+04</pdfrwt>
<pdfrwt beam="2">  1       -1 0.11153612E+00 0.26742639E+04</pdfrwt>
<totfact> 0.92369887E-01</totfact>
</mgrwt>
</event>
<event>
12    1  0.1598876E-007  0.1183816E+04  0.7818608E-02  0.9127141E-01
         -1   -1    0    0    0  501 -0.00000000000E+00  0.00000000000E+00  0.12057890669E+04  0.12057890669E+04  0.00000000000E+00 0. -1.
          1   -1    0    0  501    0  0.00000000000E+00 -0.00000000000E+00 -0.29056082652E+03  0.29056082652E+03  0.00000000000E+00 0.  1.
         23    2    1    2    0    0 -0.14253807235E+03  0.17966847039E+03  0.18839286980E+03  0.30836372916E+03  0.83656767479E+02 0.  0.
        254    2    1    2    0    0  0.14253807235E+03 -0.17966847039E+03  0.72683537059E+03  0.11879861643E+04  0.91127581404E+03 0.  0.
        -24    2    4    4    0    0  0.10486525489E+03 -0.38040770647E+03  0.84700097939E+03  0.93791490413E+03  0.81036803151E+02 0.  0.
         24    2    4    4    0    0  0.37672817461E+02  0.20073923608E+03 -0.12016560881E+03  0.25007126015E+03  0.79877277954E+02 0.  0.
         11    1    3    3    0    0 -0.27638060050E+02  0.47408913471E+02  0.55892899054E+01  0.55160743301E+02  0.00000000000E+00 0. -1.
        -11    1    3    3    0    0 -0.11490001230E+03  0.13225955692E+03  0.18280357989E+03  0.25320298586E+03  0.00000000000E+00 0.  1.
          2    1    6    6  502    0  0.33218994772E+02  0.30184050625E+02 -0.72217380703E+01  0.45461324514E+02  0.00000000000E+00 0. -1.
          3    1    5    5  503    0  0.16925246783E+00 -0.57174521448E+02  0.18770328863E+03  0.19621793780E+03  0.00000000000E+00 0. -1.
         -4    1    5    5    0  503  0.10469600243E+03 -0.32323318502E+03  0.65929769076E+03  0.74169696633E+03  0.00000000000E+00 0.  1.
         -1    1    6    6    0  502  0.44538226886E+01  0.17055518545E+03 -0.11294387074E+03  0.20460993563E+03  0.00000000000E+00 0.  1.
<mgrwt>
<rscale>  0 0.11838160E+04</rscale>
<asrwt>0</asrwt>
<pdfrwt beam="1">  1        1 0.44701666E-01 0.11838160E+04</pdfrwt>
<pdfrwt beam="2">  1       -1 0.18550601E+00 0.11838160E+04</pdfrwt>
<totfact> 0.17220272E+01</totfact>
</mgrwt>
</event>
<event>
12    1  0.1598876E-007  0.1618416E+04  0.7818608E-02  0.8809314E-01
          1   -1    0    0  501    0  0.00000000000E+00  0.00000000000E+00  0.27824759227E+04  0.27824759227E+04  0.00000000000E+00 0. -1.
         -1   -1    0    0    0  501 -0.00000000000E+00 -0.00000000000E+00 -0.23533624497E+03  0.23533624497E+03  0.00000000000E+00 0.  1.
         23    2    1    2    0    0  0.19938481458E+03 -0.35758449438E+03  0.15877951102E+04  0.16442355670E+04  0.12164009586E+03 0.  0.
        254    2    1    2    0    0 -0.19938481458E+03  0.35758449438E+03  0.95934456749E+03  0.13735766006E+04  0.89372798084E+03 0.  0.
        -24    2    4    4    0    0  0.96732928231E+02  0.43478955104E+03  0.95579340107E+03  0.10574904069E+04  0.79660040049E+02 0.  0.
         24    2    4    4    0    0 -0.29611774281E+03 -0.77205056664E+02  0.35511664260E+01  0.31608619377E+03  0.79066634749E+02 0.  0.
         13    1    3    3    0    0  0.13928368316E+03 -0.23819524726E+03  0.12671825969E+04  0.12968764991E+04  0.00000000000E+00 0. -1.
        -13    1    3    3    0    0  0.60101131414E+02 -0.11938924711E+03  0.32061251337E+03  0.34735906790E+03  0.00000000000E+00 0.  1.
          4    1    6    6  502    0 -0.28240961736E+03 -0.53381477251E+02 -0.44989173285E+01  0.28744567199E+03  0.00000000000E+00 0. -1.
          1    1    5    5  503    0  0.76259871788E+02  0.22302120795E+03  0.57225739182E+03  0.61889623503E+03  0.00000000000E+00 0. -1.
         -2    1    5    5    0  503  0.20473056444E+02  0.21176834309E+03  0.38353600925E+03  0.43859417183E+03  0.00000000000E+00 0.  1.
         -3    1    6    6    0  502 -0.13708125449E+02 -0.23823579412E+02  0.80500837545E+01  0.28640521779E+02  0.00000000000E+00 0.  1.
<mgrwt>
<rscale>  0 0.16184158E+04</rscale>
<asrwt>0</asrwt>
<pdfrwt beam="1">  1        1 0.42807319E+00 0.16184158E+04</pdfrwt>
<pdfrwt beam="2">  1       -1 0.36205578E-01 0.16184158E+04</pdfrwt>
<totfact> 0.60199027E+00</totfact>
</mgrwt>
</event>
<event>
12    1  0.1598876E-007  0.2495920E+04  0.7818608E-02  0.8404441E-01
          2   -1    0    0  501    0  0.00000000000E+00  0.00000000000E+00  0.15377029535E+04  0.15377029535E+04  0.00000000000E+00 0. -1.
         -2   -1    0    0    0  501 -0.00000000000E+00 -0.00000000000E+00 -0.10128119375E+04  0.10128119375E+04  0.00000000000E+00 0.  1.
         23    2    1    2    0    0  0.81986023028E+03  0.61867172063E+03 -0.12891098091E+03  0.10388636427E+04  0.87716201428E+02 0.  0.
        254    2    1    2    0    0 -0.81986023028E+03 -0.61867172063E+03  0.65380199694E+03  0.15116512483E+04  0.89593914426E+03 0.  0.
        -24    2    4    4    0    0 -0.75210904912E+03 -0.83091114373E+03  0.50482569746E+03  0.12320290111E+04  0.83457467394E+02 0.  0.
         24    2    4    4    0    0 -0.67751181162E+02  0.21223942310E+03  0.14897629948E+03  0.27962223720E+03  0.79742475904E+02 0.  0.
         11    1    3    3    0    0  0.77592107778E+03  0.60721453432E+03 -0.12689041241E+03  0.99341038166E+03  0.00000000000E+00 0.  1.
        -11    1    3    3    0    0  0.43939152503E+02  0.11457186310E+02 -0.20205685026E+01  0.45453261026E+02  0.00000000000E+00 0. -1.
          4    1    6    6  502    0 -0.53572353488E+02  0.20438234276E+03  0.11174911260E+03  0.23901883452E+03  0.00000000000E+00 0. -1.
          1    1    5    5  503    0 -0.66106254600E+03 -0.68597824371E+03  0.42464523899E+03  0.10430212939E+04  0.00000000000E+00 0. -1.
         -2    1    5    5    0  503 -0.91046503113E+02 -0.14493290002E+03  0.80180458467E+02  0.18900771719E+03  0.00000000000E+00 0.  1.
         -3    1    6    6    0  502 -0.14178827674E+02  0.78570803387E+01  0.37227186884E+02  0.40603402677E+02  0.00000000000E+00 0.  1.
<mgrwt>
<rscale>  0 0.24959198E+04</rscale>
<asrwt>0</asrwt>
<pdfrwt beam="1">  1        2 0.23656969E+00 0.24959198E+04</pdfrwt>
<pdfrwt beam="2">  1       -2 0.15581722E+00 0.24959198E+04</pdfrwt>
<totfact> 0.29192599E+00</totfact>
</mgrwt>
</event>
<event>
12    1  0.1598876E-007  0.2285810E+04  0.7818608E-02  0.8483537E-01
          2   -1    0    0  501    0  0.00000000000E+00  0.00000000000E+00  0.16565316591E+04  0.16565316591E+04  0.00000000000E+00 0.  1.
         -2   -1    0    0    0  501 -0.00000000000E+00 -0.00000000000E+00 -0.78853394715E+03  0.78853394715E+03  0.00000000000E+00 0. -1.
         23    2    1    2    0    0 -0.83145127138E+03  0.26144252082E+03  0.79494100642E+03  0.11839577313E+04  0.10080326144E+03 0.  0.
        254    2    1    2    0    0  0.83145127138E+03 -0.26144252082E+03  0.73056705518E+02  0.12611078749E+04  0.90851107949E+03 0.  0.
        -24    2    4    4    0    0 -0.78479411844E+02  0.18910539660E+02  0.26334623229E+03  0.28681852277E+03  0.79981249957E+02 0.  0.
         24    2    4    4    0    0  0.90993068323E+03 -0.28035306048E+03 -0.19028952678E+03  0.97428935214E+03  0.80361376879E+02 0.  0.
         11    1    3    3    0    0 -0.33417544807E+03  0.56116882505E+02  0.32761269282E+03  0.47133046909E+03  0.00000000000E+00 0. -1.
        -11    1    3    3    0    0 -0.49727582331E+03  0.20532563831E+03  0.46732831361E+03  0.71262726225E+03  0.00000000000E+00 0.  1.
          4    1    6    6  502    0  0.89189022351E+03 -0.28458802260E+03 -0.18088336450E+03  0.95350789454E+03  0.00000000000E+00 0. -1.
          3    1    5    5  503    0 -0.66921827960E+02 -0.18984128359E+02  0.12664158681E+03  0.14448882204E+03  0.00000000000E+00 0. -1.
         -4    1    5    5    0  503 -0.11557583884E+02  0.37894668020E+02  0.13670464549E+03  0.14232970072E+03  0.00000000000E+00 0.  1.
         -3    1    6    6    0  502  0.18040459713E+02  0.42349621267E+01 -0.94061622795E+01  0.20781457593E+02  0.00000000000E+00 0.  1.
<mgrwt>
<rscale>  0 0.22858097E+04</rscale>
<asrwt>0</asrwt>
<pdfrwt beam="1">  1        2 0.25485102E+00 0.22858097E+04</pdfrwt>
<pdfrwt beam="2">  1       -2 0.12131292E+00 0.22858097E+04</pdfrwt>
<totfact> 0.48647488E+00</totfact>
</mgrwt>
</event>
<event>
12    1  0.1598876E-007  0.1208907E+04  0.7818608E-02  0.9105095E-01
         -2   -1    0    0    0  501 -0.00000000000E+00  0.00000000000E+00  0.24954748741E+03  0.24954748741E+03  0.00000000000E+00 0.  1.
          2   -1    0    0  501    0  0.00000000000E+00 -0.00000000000E+00 -0.14641074439E+04  0.14641074439E+04  0.00000000000E+00 0. -1.
         23    2    1    2    0    0 -0.29687373730E+02  0.23124839822E+03 -0.12566742030E+03  0.28030662953E+03  0.91773330534E+02 0.  0.
        254    2    1    2    0    0  0.29687373730E+02 -0.23124839822E+03 -0.10888925361E+04  0.14333483017E+04  0.90246508905E+03 0.  0.
        -24    2    4    4    0    0  0.26248246878E+03 -0.41641437154E+02  0.23858077698E+02  0.27785469719E+03  0.77478830463E+02 0.  0.
         24    2    4    4    0    0 -0.23279509505E+03 -0.18960696106E+03 -0.11127506138E+04  0.11554936045E+04  0.82505669902E+02 0.  0.
         13    1    3    3    0    0 -0.26284776178E+02  0.23928473921E+03 -0.11578405611E+03  0.26712173915E+03  0.00000000000E+00 0.  1.
        -13    1    3    3    0    0 -0.34025975528E+01 -0.80363409923E+01 -0.98833641895E+01  0.13184890381E+02  0.00000000000E+00 0. -1.
          4    1    6    6  502    0 -0.14934870225E+03 -0.16212025177E+03 -0.71748454751E+03  0.75058116604E+03  0.00000000000E+00 0. -1.
          3    1    5    5  503    0  0.15939158150E+03  0.10323691091E+02 -0.11501005860E+01  0.15972970163E+03  0.00000000000E+00 0. -1.
         -4    1    5    5    0  503  0.10309088728E+03 -0.51965128244E+02  0.25008178285E+02  0.11812499556E+03  0.00000000000E+00 0.  1.
         -3    1    6    6    0  502 -0.83446392807E+02 -0.27486709292E+02 -0.39526606634E+03  0.40491243851E+03  0.00000000000E+00 0.  1.
<mgrwt>
<rscale>  0 0.12089075E+04</rscale>
<asrwt>0</asrwt>
<pdfrwt beam="1">  1        2 0.22524730E+00 0.12089075E+04</pdfrwt>
<pdfrwt beam="2">  1       -2 0.38391921E-01 0.12089075E+04</pdfrwt>
<totfact> 0.84011473E+01</totfact>
</mgrwt>
</event>
<event>
12    1  0.1598876E-007  0.2174384E+04  0.7818608E-02  0.8529166E-01
         -2   -1    0    0    0  501 -0.00000000000E+00  0.00000000000E+00  0.66707035507E+03  0.66707035507E+03  0.00000000000E+00 0.  1.
          2   -1    0    0  501    0  0.00000000000E+00 -0.00000000000E+00 -0.17719060812E+04  0.17719060812E+04  0.00000000000E+00 0. -1.
         23    2    1    2    0    0 -0.18354131524E+03 -0.41781356427E+03 -0.13260871599E+04  0.14053737138E+04  0.91173081668E+02 0.  0.
        254    2    1    2    0    0  0.18354131524E+03  0.41781356427E+03  0.22125143378E+03  0.10336027225E+04  0.90062578361E+03 0.  0.
        -24    2    4    4    0    0  0.53974235899E+03  0.27878707539E+03  0.78630240874E+02  0.61784449424E+03  0.80653932283E+02 0.  0.
         24    2    4    4    0    0 -0.35620104374E+03  0.13902648888E+03  0.14262119290E+03  0.41575822825E+03  0.79413799296E+02 0.  0.
         11    1    3    3    0    0 -0.11169561353E+03 -0.34550249907E+03 -0.10566414393E+04  0.11172909282E+04  0.00000000000E+00 0. -1.
        -11    1    3    3    0    0 -0.71845701719E+02 -0.72311065204E+02 -0.26944572060E+03  0.28808278559E+03  0.00000000000E+00 0.  1.
          4    1    6    6  502    0 -0.11831079095E+03  0.48855309515E+02  0.88015879170E+01  0.12830336112E+03  0.00000000000E+00 0. -1.
          3    1    5    5  503    0  0.29557217443E+03  0.11293268919E+03  0.60273354864E+02  0.32210181603E+03  0.00000000000E+00 0. -1.
         -4    1    5    5    0  503  0.24417018456E+03  0.16585438621E+03  0.18356886010E+02  0.29574267821E+03  0.00000000000E+00 0.  1.
         -3    1    6    6    0  502 -0.23789025279E+03  0.90171179363E+02  0.13381960499E+03  0.28745486713E+03  0.00000000000E+00 0.  1.
<mgrwt>
<rscale>  0 0.21743836E+04</rscale>
<asrwt>0</asrwt>
<pdfrwt beam="1">  1        2 0.27260093E+00 0.21743836E+04</pdfrwt>
<pdfrwt beam="2">  1       -2 0.10262621E+00 0.21743836E+04</pdfrwt>
<totfact> 0.63618536E+00</totfact>
</mgrwt>
</event>
<event>
12    1  0.1598876E-007  0.1362976E+04  0.7818608E-02  0.8981063E-01
         -2   -1    0    0    0  501 -0.00000000000E+00  0.00000000000E+00  0.48393121420E+03  0.48393121420E+03  0.00000000000E+00 0.  1.
          2   -1    0    0  501    0  0.00000000000E+00 -0.00000000000E+00 -0.95969378924E+03  0.95969378924E+03  0.00000000000E+00 0. -1.
         23    2    1    2    0    0 -0.33363174734E+03 -0.14350904547E+03 -0.22256269218E+03  0.43569558602E+03  0.91605145946E+02 0.  0.
        254    2    1    2    0    0  0.33363174734E+03  0.14350904547E+03 -0.25319988286E+03  0.10079294174E+04  0.90548690817E+03 0.  0.
        -24    2    4    4    0    0  0.73639523029E+01 -0.33194529968E+03 -0.25451946395E+03  0.42592953411E+03  0.79961870431E+02 0.  0.
         24    2    4    4    0    0  0.32626779503E+03  0.47545434515E+03  0.13195810919E+01  0.58199988332E+03  0.78832826254E+02 0.  0.
         13    1    3    3    0    0 -0.31914950256E+03 -0.15479768042E+03 -0.20226893162E+03  0.40832762280E+03  0.00000000000E+00 0. -1.
        -13    1    3    3    0    0 -0.14482244772E+02  0.11288634946E+02 -0.20293760567E+02  0.27367963215E+02  0.00000000000E+00 0.  1.
          4    1    6    6  502    0  0.27304921631E+03  0.35259608042E+03  0.22103496431E+02  0.44650692605E+03  0.00000000000E+00 0. -1.
          3    1    5    5  503    0  0.13479393097E+02 -0.32289597284E+03 -0.25896922308E+03  0.41413592191E+03  0.00000000000E+00 0. -1.
         -4    1    5    5    0  503 -0.61154407945E+01 -0.90493268410E+01  0.44497591285E+01  0.11793612198E+02  0.00000000000E+00 0.  1.
         -3    1    6    6    0  502  0.53218578721E+02  0.12285826473E+03 -0.20783915339E+02  0.13549295727E+03  0.00000000000E+00 0.  1.
<mgrwt>
<rscale>  0 0.13629758E+04</rscale>
<asrwt>0</asrwt>
<pdfrwt beam="1">  1        2 0.14764520E+00 0.13629758E+04</pdfrwt>
<pdfrwt beam="2">  1       -2 0.74450957E-01 0.13629758E+04</pdfrwt>
<totfact> 0.42388089E+01</totfact>
</mgrwt>
</event>
<event>
12    1  0.1598876E-007  0.2056259E+04  0.7818608E-02  0.8580760E-01
         -1   -1    0    0    0  501 -0.00000000000E+00  0.00000000000E+00  0.61186838317E+03  0.61186838317E+03  0.00000000000E+00 0.  1.
          1   -1    0    0  501    0  0.00000000000E+00 -0.00000000000E+00 -0.17275770490E+04  0.17275770490E+04  0.00000000000E+00 0. -1.
         23    2    1    2    0    0 -0.54871513220E+03  0.60809722171E+03 -0.35439638126E+03  0.89697783242E+03  0.90010607323E+02 0.  0.
        254    2    1    2    0    0  0.54871513220E+03 -0.60809722171E+03 -0.76131228454E+03  0.14424675997E+04  0.91117827801E+03 0.  0.
        -24    2    4    4    0    0  0.67070529305E+02  0.12520231775E+03 -0.49634077992E+03  0.52250634264E+03  0.80527212898E+02 0.  0.
         24    2    4    4    0    0  0.48164460290E+03 -0.73329953946E+03 -0.26497150461E+03  0.91996125709E+03  0.80056718693E+02 0.  0.
         13    1    3    3    0    0 -0.42829355111E+03  0.45211764818E+03 -0.30686438325E+03  0.69427046850E+03  0.00000000000E+00 0. -1.
        -13    1    3    3    0    0 -0.12042158109E+03  0.15597957353E+03 -0.47531998011E+02  0.20270736392E+03  0.00000000000E+00 0.  1.
          2    1    6    6  502    0  0.37097879483E+03 -0.54548048454E+03 -0.16423684606E+03  0.67981465624E+03  0.00000000000E+00 0. -1.
          1    1    5    5  503    0  0.90200616420E+01  0.46905946420E+02 -0.29467744956E+03  0.29852358132E+03  0.00000000000E+00 0. -1.
         -2    1    5    5    0  503  0.58050467663E+02  0.78296371332E+02 -0.20166333036E+03  0.22398276133E+03  0.00000000000E+00 0.  1.
         -1    1    6    6    0  502  0.11066580807E+03 -0.18781905492E+03 -0.10073465855E+03  0.24014660085E+03  0.00000000000E+00 0.  1.
<mgrwt>
<rscale>  0 0.20562585E+04</rscale>
<asrwt>0</asrwt>
<pdfrwt beam="1">  1        1 0.26578108E+00 0.20562585E+04</pdfrwt>
<pdfrwt beam="2">  1       -1 0.94133598E-01 0.20562585E+04</pdfrwt>
<totfact> 0.46046502E+00</totfact>
</mgrwt>
</event>
<event>
12    1  0.1598876E-007  0.2645213E+04  0.7818608E-02  0.8353003E-01
         -1   -1    0    0    0  501 -0.00000000000E+00  0.00000000000E+00  0.72082930490E+03  0.72082930490E+03  0.00000000000E+00 0.  1.
          1   -1    0    0  501    0  0.00000000000E+00 -0.00000000000E+00 -0.24267721230E+04  0.24267721230E+04  0.00000000000E+00 0. -1.
         23    2    1    2    0    0 -0.16829326866E+03 -0.10280375706E+04 -0.12160490252E+04  0.16034822464E+04  0.84830489736E+02 0.  0.
        254    2    1    2    0    0  0.16829326866E+03  0.10280375706E+04 -0.48989379293E+03  0.15441191815E+04  0.10291376232E+04 0.  0.
        -24    2    4    4    0    0 -0.55501171405E+02  0.41829637555E+03  0.29598032448E+03  0.52148513106E+03  0.79310476041E+02 0.  0.
         24    2    4    4    0    0  0.22379444007E+03  0.60974119506E+03 -0.78587411741E+03  0.10226340504E+04  0.79460659210E+02 0.  0.
         11    1    3    3    0    0 -0.71824222029E+02 -0.53446621387E+03 -0.56856493678E+03  0.78363189061E+03  0.00000000000E+00 0. -1.
        -11    1    3    3    0    0 -0.96469046631E+02 -0.49357135674E+03 -0.64748408838E+03  0.81985035577E+03  0.00000000000E+00 0.  1.
          4    1    6    6  502    0  0.13826880187E+03  0.41157762915E+03 -0.57862039464E+03  0.72340581106E+03  0.00000000000E+00 0. -1.
          3    1    5    5  503    0 -0.19337963817E+02  0.32415262961E+03  0.19505351079E+03  0.37880701710E+03  0.00000000000E+00 0. -1.
         -4    1    5    5    0  503 -0.36163207588E+02  0.94143745933E+02  0.10092681369E+03  0.14267811396E+03  0.00000000000E+00 0.  1.
         -3    1    6    6    0  502  0.85525638193E+02  0.19816356591E+03 -0.20725372277E+03  0.29922823939E+03  0.00000000000E+00 0.  1.
<mgrwt>
<rscale>  0 0.26452134E+04</rscale>
<asrwt>0</asrwt>
<pdfrwt beam="1">  1        1 0.37334955E+00 0.26452134E+04</pdfrwt>
<pdfrwt beam="2">  1       -1 0.11089682E+00 0.26452134E+04</pdfrwt>
<totfact> 0.99955225E-01</totfact>
</mgrwt>
</event>
<event>
12    1  0.1598876E-007  0.1206473E+04  0.7818608E-02  0.9107209E-01
         -2   -1    0    0    0  501 -0.00000000000E+00  0.00000000000E+00  0.10515552923E+04  0.10515552923E+04  0.00000000000E+00 0.  1.
          2   -1    0    0  501    0  0.00000000000E+00 -0.00000000000E+00 -0.34605363405E+03  0.34605363405E+03  0.00000000000E+00 0. -1.
         23    2    1    2    0    0  0.91070298658E+02  0.21445484100E+03  0.40713111607E+02  0.25246233748E+03  0.88289276053E+02 0.  0.
        254    2    1    2    0    0 -0.91070298658E+02 -0.21445484100E+03  0.66478854661E+03  0.11451465888E+04  0.90284673121E+03 0.  0.
        -24    2    4    4    0    0  0.17958384282E+03 -0.48104761937E+03  0.50294594662E+03  0.72368069569E+03  0.84273099974E+02 0.  0.
         24    2    4    4    0    0 -0.27065414148E+03  0.26659277838E+03  0.16184259999E+03  0.42146589314E+03  0.84351041051E+02 0.  0.
         13    1    3    3    0    0  0.53864959143E+01  0.15481604139E+02  0.31640357247E+02  0.35634345955E+02  0.00000000000E+00 0.  1.
        -13    1    3    3    0    0  0.85683802744E+02  0.19897323686E+03  0.90727543601E+01  0.21682799153E+03  0.00000000000E+00 0. -1.
          2    1    6    6  502    0 -0.87187639051E+01  0.45406881697E+02  0.22125107371E+02  0.51257410446E+02  0.00000000000E+00 0. -1.
          3    1    5    5  503    0 -0.18071838436E-01 -0.16662611957E+02  0.41928029472E+02  0.45117653077E+02  0.00000000000E+00 0. -1.
         -4    1    5    5    0  503  0.17960191466E+03 -0.46438500742E+03  0.46101791715E+03  0.67856304261E+03  0.00000000000E+00 0.  1.
         -1    1    6    6    0  502 -0.26193537757E+03  0.22118589668E+03  0.13971749262E+03  0.37020848269E+03  0.00000000000E+00 0.  1.
<mgrwt>
<rscale>  0 0.12064734E+04</rscale>
<asrwt>0</asrwt>
<pdfrwt beam="1">  1        2 0.53239021E-01 0.12064734E+04</pdfrwt>
<pdfrwt beam="2">  1       -2 0.16177774E+00 0.12064734E+04</pdfrwt>
<totfact> 0.22534588E+01</totfact>
</mgrwt>
</event>
<event>
12    1  0.1598876E-007  0.1595957E+04  0.7818608E-02  0.8823036E-01
         -1   -1    0    0    0  501 -0.00000000000E+00  0.00000000000E+00  0.16936162127E+03  0.16936162127E+03  0.00000000000E+00 0.  1.
          1   -1    0    0  501    0  0.00000000000E+00 -0.00000000000E+00 -0.37598211375E+04  0.37598211375E+04  0.00000000000E+00 0. -1.
         23    2    1    2    0    0 -0.13512419753E+03 -0.46707144077E+03 -0.65611976769E+03  0.82138680788E+03  0.88141131420E+02 0.  0.
        254    2    1    2    0    0  0.13512419753E+03  0.46707144077E+03 -0.29343397485E+04  0.31077959509E+04  0.90090600673E+03 0.  0.
        -24    2    4    4    0    0  0.18937599141E+03  0.38093987539E+03 -0.29454374188E+04  0.29771975541E+04  0.84411097604E+02 0.  0.
         24    2    4    4    0    0 -0.54251793878E+02  0.86131565386E+02  0.11097670234E+02  0.13059839680E+03  0.81060960191E+02 0.  0.
         13    1    3    3    0    0 -0.74163270072E+02 -0.32901389132E+03 -0.50919357703E+03  0.61076053425E+03  0.00000000000E+00 0. -1.
        -13    1    3    3    0    0 -0.60960927462E+02 -0.13805754945E+03 -0.14692619066E+03  0.21062627362E+03  0.00000000000E+00 0.  1.
          4    1    6    6  502    0 -0.32516131625E+02  0.82404369759E+02  0.37499782264E+02  0.96197778774E+02  0.00000000000E+00 0. -1.
          3    1    5    5  503    0  0.19583713714E+03  0.37368457128E+03 -0.29110906815E+04  0.29415032379E+04  0.00000000000E+00 0. -1.
         -4    1    5    5    0  503 -0.64611457290E+01  0.72553041110E+01 -0.34346737291E+02  0.35694316136E+02  0.00000000000E+00 0.  1.
         -3    1    6    6    0  502 -0.21735662253E+02  0.37271956269E+01 -0.26402112031E+02  0.34400618025E+02  0.00000000000E+00 0.  1.
<mgrwt>
<rscale>  0 0.15959566E+04</rscale>
<asrwt>0</asrwt>
<pdfrwt beam="1">  1        1 0.57843406E+00 0.15959566E+04</pdfrwt>
<pdfrwt beam="2">  1       -1 0.26055632E-01 0.15959566E+04</pdfrwt>
<totfact> 0.19530181E+00</totfact>
</mgrwt>
</event>
<event>
12    1  0.1598876E-007  0.1936609E+04  0.7818608E-02  0.8636845E-01
          1   -1    0    0  501    0  0.00000000000E+00  0.00000000000E+00  0.19619085869E+04  0.19619085869E+04  0.00000000000E+00 0. -1.
         -1   -1    0    0    0  501 -0.00000000000E+00 -0.00000000000E+00 -0.47790900458E+03  0.47790900458E+03  0.00000000000E+00 0.  1.
         23    2    1    2    0    0  0.89009382634E+02 -0.23856416625E+03  0.14947399506E+04  0.15187766801E+04  0.87175412569E+02 0.  0.
        254    2    1    2    0    0 -0.89009382634E+02  0.23856416625E+03 -0.10740368258E+02  0.92104091137E+03  0.88507935988E+03 0.  0.
        -24    2    4    4    0    0  0.68571200037E+02  0.43972058170E+03  0.27535479505E+03  0.52956352846E+03  0.81000420205E+02 0.  0.
         24    2    4    4    0    0 -0.15758058267E+03 -0.20115641545E+03 -0.28609516330E+03  0.39147738291E+03  0.78157247611E+02 0.  0.
         11    1    3    3    0    0  0.71154477550E+02 -0.81109191329E+02  0.71526768041E+03  0.72335987948E+03  0.00000000000E+00 0.  1.
        -11    1    3    3    0    0  0.17854905084E+02 -0.15745497492E+03  0.77947227020E+03  0.79541680066E+03  0.00000000000E+00 0. -1.
          2    1    6    6  502    0 -0.72134450121E+02 -0.15270755014E+03 -0.17564336865E+03  0.24366691962E+03  0.00000000000E+00 0. -1.
          1    1    5    5  503    0  0.82965785606E+02  0.41597430215E+03  0.25278371518E+03  0.49377884553E+03  0.00000000000E+00 0. -1.
         -2    1    5    5    0  503 -0.14394585568E+02  0.23746279551E+02  0.22571079867E+02  0.35784682932E+02  0.00000000000E+00 0.  1.
         -1    1    6    6    0  502 -0.85446132551E+02 -0.48448865308E+02 -0.11045179465E+03  0.14781046330E+03  0.00000000000E+00 0.  1.
<mgrwt>
<rscale>  0 0.19366092E+04</rscale>
<asrwt>0</asrwt>
<pdfrwt beam="1">  1        1 0.30183209E+00 0.19366092E+04</pdfrwt>
<pdfrwt beam="2">  1       -1 0.73524463E-01 0.19366092E+04</pdfrwt>
<totfact> 0.54975529E+00</totfact>
</mgrwt>
</event>
<event>
12    1  0.1598876E-007  0.1786340E+04  0.7818608E-02  0.8713598E-01
          2   -1    0    0  501    0  0.00000000000E+00  0.00000000000E+00  0.33879332159E+03  0.33879332159E+03  0.00000000000E+00 0. -1.
         -2   -1    0    0    0  501 -0.00000000000E+00 -0.00000000000E+00 -0.23546875402E+04  0.23546875402E+04  0.00000000000E+00 0.  1.
         23    2    1    2    0    0  0.25139236697E+03 -0.54761178161E+03 -0.11816090536E+04  0.13294878308E+04  0.90890875554E+02 0.  0.
        254    2    1    2    0    0 -0.25139236697E+03  0.54761178161E+03 -0.83428516504E+03  0.13639930310E+04  0.89519186012E+03 0.  0.
        -24    2    4    4    0    0  0.14906157695E+03  0.78300495637E+02  0.12154377561E+03  0.22344032945E+03  0.82476482077E+02 0.  0.
         24    2    4    4    0    0 -0.40045394392E+03  0.46931128597E+03 -0.95582894065E+03  0.11405527015E+04  0.81455858209E+02 0.  0.
         13    1    3    3    0    0  0.22739151809E+03 -0.48282699918E+03 -0.10994832334E+04  0.12221670075E+04  0.00000000000E+00 0.  1.
        -13    1    3    3    0    0  0.24000848876E+02 -0.64784782428E+02 -0.82125820149E+02  0.10732082331E+03  0.00000000000E+00 0. -1.
          4    1    6    6  502    0 -0.36246954343E+03  0.43358758157E+03 -0.82782610588E+03  0.10023364816E+04  0.00000000000E+00 0. -1.
          1    1    5    5  503    0  0.12118814452E+03  0.22307404965E+02  0.65976808711E+02  0.13977526955E+03  0.00000000000E+00 0. -1.
         -2    1    5    5    0  503  0.27873432425E+02  0.55993090671E+02  0.55566966899E+02  0.83665059902E+02  0.00000000000E+00 0.  1.
         -3    1    6    6    0  502 -0.37984400483E+02  0.35723704403E+02 -0.12800283477E+03  0.13821621991E+03  0.00000000000E+00 0.  1.
<mgrwt>
<rscale>  0 0.17863397E+04</rscale>
<asrwt>0</asrwt>
<pdfrwt beam="1">  1        2 0.52122048E-01 0.17863397E+04</pdfrwt>
<pdfrwt beam="2">  1       -2 0.36225963E+00 0.17863397E+04</pdfrwt>
<totfact> 0.11833968E+00</totfact>
</mgrwt>
</event>
<event>
12    1  0.1598876E-007  0.1971171E+04  0.7818608E-02  0.8620219E-01
          2   -1    0    0  501    0  0.00000000000E+00  0.00000000000E+00  0.81113340565E+03  0.81113340565E+03  0.00000000000E+00 0. -1.
         -2   -1    0    0    0  501 -0.00000000000E+00 -0.00000000000E+00 -0.11975578656E+04  0.11975578656E+04  0.00000000000E+00 0.  1.
         23    2    1    2    0    0 -0.72385960202E+02  0.33117953509E+03  0.56112267833E+03  0.66212982714E+03  0.92938884010E+02 0.  0.
        254    2    1    2    0    0  0.72385960202E+02 -0.33117953509E+03 -0.94754713831E+03  0.13465614441E+04  0.89468571679E+03 0.  0.
        -24    2    4    4    0    0  0.29276618127E+03 -0.55371784816E+03 -0.66975098990E+03  0.92031819806E+03  0.78126211613E+02 0.  0.
         24    2    4    4    0    0 -0.22038022107E+03  0.22253831307E+03 -0.27779614842E+03  0.42624324609E+03  0.80136521862E+02 0.  0.
         11    1    3    3    0    0 -0.69214173401E+02  0.29634813266E+03  0.54365314732E+03  0.62303415807E+03  0.00000000000E+00 0. -1.
        -11    1    3    3    0    0 -0.31717868011E+01  0.34831402426E+02  0.17469531009E+02  0.39095669071E+02  0.00000000000E+00 0.  1.
          2    1    6    6  502    0 -0.18988617002E+02  0.63643805021E+02 -0.49387519767E+02  0.82766107810E+02  0.00000000000E+00 0. -1.
          3    1    5    5  503    0  0.14681757697E+02 -0.10322354743E+02 -0.69257456981E+01  0.19237228750E+02  0.00000000000E+00 0. -1.
         -4    1    5    5    0  503  0.27808442357E+03 -0.54339549342E+03 -0.66282524420E+03  0.90108096931E+03  0.00000000000E+00 0.  1.
         -1    1    6    6    0  502 -0.20139160407E+03  0.15889450805E+03 -0.22840862865E+03  0.34347713828E+03  0.00000000000E+00 0.  1.
<mgrwt>
<rscale>  0 0.19711714E+04</rscale>
<asrwt>0</asrwt>
<pdfrwt beam="1">  1        2 0.12478975E+00 0.19711714E+04</pdfrwt>
<pdfrwt beam="2">  1       -2 0.18423967E+00 0.19711714E+04</pdfrwt>
<totfact> 0.53368542E+00</totfact>
</mgrwt>
</event>
<event>
12    1  0.1598876E-007  0.1579053E+04  0.7818608E-02  0.8833521E-01
         -1   -1    0    0    0  501 -0.00000000000E+00  0.00000000000E+00  0.83313426843E+03  0.83313426843E+03  0.00000000000E+00 0.  1.
          1   -1    0    0  501    0  0.00000000000E+00 -0.00000000000E+00 -0.74820145866E+03  0.74820145866E+03  0.00000000000E+00 0. -1.
         23    2    1    2    0    0 -0.30894695998E+03  0.39233487086E+02  0.44855976474E+03  0.55367432848E+03  0.91443473707E+02 0.  0.
        254    2    1    2    0    0  0.30894695998E+03 -0.39233487086E+02 -0.36362695497E+03  0.10276613986E+04  0.90932716732E+03 0.  0.
        -24    2    4    4    0    0 -0.23678530724E+03 -0.25510714765E+03 -0.63915830926E+02  0.36376991859E+03  0.84240024478E+02 0.  0.
         24    2    4    4    0    0  0.54573226722E+03  0.21587366057E+03 -0.29971112405E+03  0.66389148002E+03  0.80622543731E+02 0.  0.
         13    1    3    3    0    0 -0.20890572242E+03 -0.96810885949E+01  0.33274555283E+03  0.39300754098E+03  0.00000000000E+00 0.  1.
        -13    1    3    3    0    0 -0.10004123755E+03  0.48914575681E+02  0.11581421192E+03  0.16066678750E+03  0.00000000000E+00 0. -1.
          2    1    6    6  502    0  0.49374278641E+03  0.21500943084E+03 -0.28756349571E+03  0.61049468347E+03  0.00000000000E+00 0. -1.
          3    1    5    5  503    0 -0.15973034989E+03 -0.22356716382E+03 -0.45690628927E+02  0.27853849822E+03  0.00000000000E+00 0. -1.
         -4    1    5    5    0  503 -0.77054957349E+02 -0.31539983827E+02 -0.18225201999E+02  0.85231420379E+02  0.00000000000E+00 0.  1.
         -1    1    6    6    0  502  0.51989480802E+02  0.86422972927E+00 -0.12147628336E+02  0.53396796545E+02  0.00000000000E+00 0.  1.
<mgrwt>
<rscale>  0 0.15790532E+04</rscale>
<asrwt>0</asrwt>
<pdfrwt beam="1">  1        1 0.11510792E+00 0.15790532E+04</pdfrwt>
<pdfrwt beam="2">  1       -1 0.12817450E+00 0.15790532E+04</pdfrwt>
<totfact> 0.12422114E+01</totfact>
</mgrwt>
</event>
<event>
12    1  0.1598876E-007  0.3561140E+04  0.7818608E-02  0.8099451E-01
          2   -1    0    0  501    0  0.00000000000E+00  0.00000000000E+00  0.16370170339E+04  0.16370170339E+04  0.00000000000E+00 0.  1.
         -2   -1    0    0    0  501 -0.00000000000E+00 -0.00000000000E+00 -0.19367115125E+04  0.19367115125E+04  0.00000000000E+00 0. -1.
         23    2    1    2    0    0  0.67768476480E+03 -0.72870267047E+03  0.11935333437E+04  0.15569556501E+04  0.96565167976E+02 0.  0.
        254    2    1    2    0    0 -0.67768476480E+03  0.72870267047E+03 -0.14932278223E+04  0.20167728963E+04  0.92053210888E+03 0.  0.
        -24    2    4    4    0    0 -0.29554320058E+03  0.62163875493E+03 -0.14531146305E+04  0.16098923253E+04  0.80191299230E+02 0.  0.
         24    2    4    4    0    0 -0.38214156422E+03  0.10706391555E+03 -0.40113191752E+02  0.40688057100E+03  0.80298653700E+02 0.  0.
         11    1    3    3    0    0  0.25361029328E+03 -0.20631764561E+03  0.38658067833E+03  0.50629020592E+03  0.00000000000E+00 0. -1.
        -11    1    3    3    0    0  0.42407447152E+03 -0.52238502487E+03  0.80695266534E+03  0.10506654442E+04  0.00000000000E+00 0.  1.
          4    1    6    6  502    0 -0.39753971418E+01  0.76236877998E+01 -0.12117466239E+02  0.14857906520E+02  0.00000000000E+00 0. -1.
          3    1    5    5  503    0 -0.58224732724E+02  0.66697597162E+02 -0.16012429853E+03  0.18297125443E+03  0.00000000000E+00 0. -1.
         -4    1    5    5    0  503 -0.23731846785E+03  0.55494115776E+03 -0.12929903320E+04  0.14269210708E+04  0.00000000000E+00 0.  1.
         -3    1    6    6    0  502 -0.37816616708E+03  0.99440227746E+02 -0.27995725513E+02  0.39202266448E+03  0.00000000000E+00 0.  1.
<mgrwt>
<rscale>  0 0.35611401E+04</rscale>
<asrwt>0</asrwt>
<pdfrwt beam="1">  1        2 0.25184878E+00 0.35611401E+04</pdfrwt>
<pdfrwt beam="2">  1       -2 0.29795562E+00 0.35611401E+04</pdfrwt>
<totfact> 0.28437209E-01</totfact>
</mgrwt>
</event>
<event>
12    1  0.1598876E-007  0.1244625E+04  0.7818608E-02  0.9074669E-01
          1   -1    0    0  501    0  0.00000000000E+00  0.00000000000E+00  0.35474377334E+03  0.35474377334E+03  0.00000000000E+00 0. -1.
         -1   -1    0    0    0  501 -0.00000000000E+00 -0.00000000000E+00 -0.10916972738E+04  0.10916972738E+04  0.00000000000E+00 0.  1.
         23    2    1    2    0    0 -0.24689396852E+03  0.84364482063E+02 -0.40855376051E+02  0.27878043756E+03  0.89304944375E+02 0.  0.
        254    2    1    2    0    0  0.24689396852E+03 -0.84364482063E+02 -0.69609812440E+03  0.11676606096E+04  0.90044694615E+03 0.  0.
        -24    2    4    4    0    0 -0.12902860112E+03  0.11056055721E+03 -0.71205175764E+03  0.73646950105E+03  0.80607714953E+02 0.  0.
         24    2    4    4    0    0  0.37592256964E+03 -0.19492503928E+03  0.15953633241E+02  0.43119110852E+03  0.79735213992E+02 0.  0.
         13    1    3    3    0    0 -0.20233268307E+03  0.10346672414E+03 -0.35349222581E+02  0.22998574995E+03  0.00000000000E+00 0. -1.
        -13    1    3    3    0    0 -0.44561285448E+02 -0.19102242076E+02 -0.55061534705E+01  0.48794687612E+02  0.00000000000E+00 0.  1.
          4    1    6    6  502    0  0.23595490362E+03 -0.13016289982E+03  0.47882368026E+02  0.27369658055E+03  0.00000000000E+00 0. -1.
          1    1    5    5  503    0 -0.90983366806E+02  0.53720645028E+02 -0.55801434529E+03  0.56792947651E+03  0.00000000000E+00 0. -1.
         -2    1    5    5    0  503 -0.38045234311E+02  0.56839912186E+02 -0.15403741235E+03  0.16854002455E+03  0.00000000000E+00 0.  1.
         -3    1    6    6    0  502  0.13996766601E+03 -0.64762139455E+02 -0.31928734785E+02  0.15749452797E+03  0.00000000000E+00 0.  1.
<mgrwt>
<rscale>  0 0.12446249E+04</rscale>
<asrwt>0</asrwt>
<pdfrwt beam="1">  1        1 0.54575966E-01 0.12446249E+04</pdfrwt>
<pdfrwt beam="2">  1       -1 0.16795343E+00 0.12446249E+04</pdfrwt>
<totfact> 0.17683641E+01</totfact>
</mgrwt>
</event>
<event>
12    1  0.1598876E-007  0.1847148E+04  0.7818608E-02  0.8681621E-01
          1   -1    0    0  501    0  0.00000000000E+00  0.00000000000E+00  0.22373530213E+04  0.22373530213E+04  0.00000000000E+00 0. -1.
         -1   -1    0    0    0  501 -0.00000000000E+00 -0.00000000000E+00 -0.38124908229E+03  0.38124908229E+03  0.00000000000E+00 0.  1.
         23    2    1    2    0    0 -0.54515349536E+02 -0.25010300712E+03 -0.21483957933E+03  0.34605806795E+03  0.89870484815E+02 0.  0.
        254    2    1    2    0    0  0.54515349536E+02  0.25010300712E+03  0.20709435184E+04  0.22725440357E+04  0.90006994189E+03 0.  0.
        -24    2    4    4    0    0  0.32275592172E+03 -0.39096222400E+02  0.28064078191E+03  0.43757278328E+03  0.83730475810E+02 0.  0.
         24    2    4    4    0    0 -0.26824057218E+03  0.28919922952E+03  0.17903027365E+04  0.18349712524E+04  0.79664358653E+02 0.  0.
         11    1    3    3    0    0 -0.17508653045E+02 -0.67229088015E+02 -0.12077752147E+02  0.70513653315E+02  0.00000000000E+00 0. -1.
        -11    1    3    3    0    0 -0.37006696491E+02 -0.18287391910E+03 -0.20276182718E+03  0.27554441463E+03  0.00000000000E+00 0.  1.
          2    1    6    6  502    0 -0.19829241687E+03  0.16733670960E+03  0.12544877279E+04  0.12810389988E+04  0.00000000000E+00 0. -1.
          1    1    5    5  503    0  0.24844738856E+03 -0.11072751157E+02  0.16945937713E+03  0.30094051106E+03  0.00000000000E+00 0. -1.
         -2    1    5    5    0  503  0.74308533165E+02 -0.28023471244E+02  0.11118140479E+03  0.13663227222E+03  0.00000000000E+00 0.  1.
         -1    1    6    6    0  502 -0.69948155317E+02  0.12186251992E+03  0.53581500859E+03  0.55393225364E+03  0.00000000000E+00 0.  1.
<mgrwt>
<rscale>  0 0.18471478E+04</rscale>
<asrwt>0</asrwt>
<pdfrwt beam="1">  1        1 0.34420815E+00 0.18471478E+04</pdfrwt>
<pdfrwt beam="2">  1       -1 0.58653706E-01 0.18471478E+04</pdfrwt>
<totfact> 0.56893182E+00</totfact>
</mgrwt>
</event>
<event>
12    1  0.1598876E-007  0.2730126E+04  0.7818608E-02  0.8325296E-01
         -1   -1    0    0    0  501 -0.00000000000E+00  0.00000000000E+00  0.16164241936E+04  0.16164241936E+04  0.00000000000E+00 0.  1.
          1   -1    0    0  501    0  0.00000000000E+00 -0.00000000000E+00 -0.11527894650E+04  0.11527894650E+04  0.00000000000E+00 0. -1.
         23    2    1    2    0    0  0.51150115621E+03 -0.84022214632E+03  0.93867628120E+03  0.13625847185E+04  0.88979021658E+02 0.  0.
        254    2    1    2    0    0 -0.51150115621E+03  0.84022214632E+03 -0.47504155265E+03  0.14066289401E+04  0.88619061737E+03 0.  0.
        -24    2    4    4    0    0 -0.45190758984E+03  0.68869376170E+03 -0.72347228402E+03  0.10990594397E+04  0.77459274313E+02 0.  0.
         24    2    4    4    0    0 -0.59593566372E+02  0.15152838462E+03  0.24843073137E+03  0.30756950033E+03  0.79805543329E+02 0.  0.
         13    1    3    3    0    0  0.26978727361E+03 -0.46343124046E+03  0.57064611951E+03  0.78306492792E+03  0.00000000000E+00 0.  1.
        -13    1    3    3    0    0  0.24171388260E+03 -0.37679090587E+03  0.36803016169E+03  0.57951979061E+03  0.00000000000E+00 0. -1.
          4    1    6    6  502    0 -0.38162548798E+02  0.15261916054E+03  0.23300722518E+03  0.28114294457E+03  0.00000000000E+00 0. -1.
          3    1    5    5  503    0 -0.33784644734E+03  0.56376798053E+03 -0.55368556286E+03  0.85938481507E+03  0.00000000000E+00 0. -1.
         -2    1    5    5    0  503 -0.11406114250E+03  0.12492578117E+03 -0.16978672116E+03  0.23967462467E+03  0.00000000000E+00 0.  1.
         -3    1    6    6    0  502 -0.21431017574E+02 -0.10907759122E+01  0.15423506182E+02  0.26426555760E+02  0.00000000000E+00 0.  1.
<mgrwt>
<rscale>  0 0.27301258E+04</rscale>
<asrwt>0</asrwt>
<pdfrwt beam="1">  1        1 0.17735222E+00 0.27301258E+04</pdfrwt>
<pdfrwt beam="2">  1       -1 0.24868065E+00 0.27301258E+04</pdfrwt>
<totfact> 0.71702124E-01</totfact>
</mgrwt>
</event>
<event>
12    1  0.1598876E-007  0.1208838E+04  0.7818608E-02  0.9105156E-01
          2   -1    0    0  501    0  0.00000000000E+00  0.00000000000E+00  0.25591675948E+04  0.25591675948E+04  0.00000000000E+00 0. -1.
         -2   -1    0    0    0  501 -0.00000000000E+00 -0.00000000000E+00 -0.14275034043E+03  0.14275034043E+03  0.00000000000E+00 0.  1.
         23    2    1    2    0    0  0.21625334693E+03 -0.29939238415E+02  0.90850727338E+03  0.93917487345E+03  0.94879445008E+02 0.  0.
        254    2    1    2    0    0 -0.21625334693E+03  0.29939238415E+02  0.15079099810E+04  0.17627430618E+04  0.88645852864E+03 0.  0.
        -24    2    4    4    0    0  0.20901809037E+03 -0.19438923262E+03  0.10604002898E+04  0.11009140520E+04  0.78020763589E+02 0.  0.
         24    2    4    4    0    0 -0.42527143731E+03  0.22432847103E+03  0.44750969121E+03  0.66182900974E+03  0.81078086389E+02 0.  0.
         13    1    3    3    0    0  0.14816710143E+03 -0.27607676911E+02  0.77243016514E+03  0.78699684485E+03  0.00000000000E+00 0. -1.
        -13    1    3    3    0    0  0.68086245499E+02 -0.23315615048E+01  0.13607710824E+03  0.15217802861E+03  0.00000000000E+00 0.  1.
          2    1    6    6  502    0 -0.10825696147E+03  0.93348339437E+02  0.15703319191E+03  0.21235090191E+03  0.00000000000E+00 0. -1.
          3    1    5    5  503    0  0.60842750447E+02 -0.91411763806E+02  0.30203468515E+03  0.32137657332E+03  0.00000000000E+00 0. -1.
         -4    1    5    5    0  503  0.14817533993E+03 -0.10297746881E+03  0.75836560464E+03  0.77953747873E+03  0.00000000000E+00 0.  1.
         -1    1    6    6    0  502 -0.31701447584E+03  0.13098013160E+03  0.29047649931E+03  0.44947810783E+03  0.00000000000E+00 0.  1.
<mgrwt>
<rscale>  0 0.12088375E+04</rscale>
<asrwt>0</asrwt>
<pdfrwt beam="1">  1        2 0.39371806E+00 0.12088375E+04</pdfrwt>
<pdfrwt beam="2">  1       -2 0.21961593E-01 0.12088375E+04</pdfrwt>
<totfact> 0.57840843E+01</totfact>
</mgrwt>
</event>
<event>
12    1  0.1598876E-007  0.1578686E+04  0.7818608E-02  0.8833750E-01
         -2   -1    0    0    0  501 -0.00000000000E+00  0.00000000000E+00  0.22399686518E+03  0.22399686518E+03  0.00000000000E+00 0. -1.
          2   -1    0    0  501    0  0.00000000000E+00 -0.00000000000E+00 -0.27815677469E+04  0.27815677469E+04  0.00000000000E+00 0.  1.
         23    2    1    2    0    0 -0.30043245450E+03  0.43719248302E+03 -0.10600060705E+04  0.11886455068E+04  0.88703688293E+02 0.  0.
        254    2    1    2    0    0  0.30043245450E+03 -0.43719248302E+03 -0.14975648111E+04  0.18169191052E+04  0.88153147677E+03 0.  0.
        -24    2    4    4    0    0  0.25127678039E+03 -0.65765866253E+03 -0.13778287447E+04  0.15490419581E+04  0.73918884387E+02 0.  0.
         24    2    4    4    0    0  0.49155674118E+02  0.22046617951E+03 -0.11973606640E+03  0.26787714711E+03  0.79998898392E+02 0.  0.
         11    1    3    3    0    0 -0.85972238843E+02  0.18663068778E+03 -0.46423413500E+03  0.50767664076E+03  0.00000000000E+00 0.  1.
        -11    1    3    3    0    0 -0.21446021566E+03  0.25056179524E+03 -0.59577193554E+03  0.68096886604E+03  0.00000000000E+00 0. -1.
          2    1    6    6  502    0  0.56770650438E+02  0.20580511914E+03 -0.12849524169E+03  0.24917801058E+03  0.00000000000E+00 0. -1.
          1    1    5    5  503    0  0.15328827256E+03 -0.30974602191E+03 -0.71140815631E+03  0.79091178867E+03  0.00000000000E+00 0. -1.
         -2    1    5    5    0  503  0.97988507824E+02 -0.34791264062E+03 -0.66642058843E+03  0.75813016946E+03  0.00000000000E+00 0.  1.
         -1    1    6    6    0  502 -0.76149763202E+01  0.14661060366E+02  0.87591752950E+01  0.18699136538E+02  0.00000000000E+00 0.  1.
<mgrwt>
<rscale>  0 0.15786861E+04</rscale>
<asrwt>0</asrwt>
<pdfrwt beam="1">  1        2 0.42793348E+00 0.15786861E+04</pdfrwt>
<pdfrwt beam="2">  1       -2 0.34461058E-01 0.15786861E+04</pdfrwt>
<totfact> 0.18060193E+01</totfact>
</mgrwt>
</event>
<event>
12    1  0.1598876E-007  0.1484356E+04  0.7818608E-02  0.8894923E-01
          1   -1    0    0  501    0  0.00000000000E+00  0.00000000000E+00  0.23207458537E+04  0.23207458537E+04  0.00000000000E+00 0. -1.
         -1   -1    0    0    0  501 -0.00000000000E+00 -0.00000000000E+00 -0.23734951273E+03  0.23734951273E+03  0.00000000000E+00 0.  1.
         23    2    1    2    0    0 -0.26626740538E+03  0.26958576430E+03  0.63020635940E+03  0.74119392661E+03  0.92916984100E+02 0.  0.
        254    2    1    2    0    0  0.26626740538E+03 -0.26958576430E+03  0.14531899816E+04  0.18169014399E+04  0.10226411414E+04 0.  0.
        -24    2    4    4    0    0 -0.52111608140E+02 -0.24759389485E+03 -0.58502606221E+02  0.26971796465E+03  0.72848260469E+02 0.  0.
         24    2    4    4    0    0  0.31837901351E+03 -0.21991869456E+02  0.15116925878E+04  0.15471834752E+04  0.81935262929E+02 0.  0.
         11    1    3    3    0    0 -0.24475414922E+03  0.27460559945E+03  0.58873839138E+03  0.69420870226E+03  0.00000000000E+00 0.  1.
        -11    1    3    3    0    0 -0.21513256155E+02 -0.50198351486E+01  0.41467968024E+02  0.46985224351E+02  0.00000000000E+00 0. -1.
          2    1    6    6  502    0  0.25873740177E+03  0.43341019466E+01  0.10783652696E+04  0.11089794778E+04  0.00000000000E+00 0. -1.
          3    1    5    5  503    0 -0.60522100124E+02 -0.16879270358E+03 -0.16623107069E+02  0.18008395007E+03  0.00000000000E+00 0. -1.
         -4    1    5    5    0  503  0.84104919844E+01 -0.78801191268E+02 -0.41879499151E+02  0.89634014580E+02  0.00000000000E+00 0.  1.
         -1    1    6    6    0  502  0.59641611745E+02 -0.26325971402E+02  0.43332731823E+03  0.43820399741E+03  0.00000000000E+00 0.  1.
<mgrwt>
<rscale>  0 0.14843556E+04</rscale>
<asrwt>0</asrwt>
<pdfrwt beam="1">  1        1 0.35703781E+00 0.14843556E+04</pdfrwt>
<pdfrwt beam="2">  1       -1 0.36515311E-01 0.14843556E+04</pdfrwt>
<totfact> 0.12565787E+01</totfact>
</mgrwt>
</event>
<event>
12    1  0.1598876E-007  0.1530338E+04  0.7818608E-02  0.8864526E-01
          2   -1    0    0  501    0  0.00000000000E+00  0.00000000000E+00  0.79394552594E+03  0.79394552594E+03  0.00000000000E+00 0. -1.
         -2   -1    0    0    0  501 -0.00000000000E+00 -0.00000000000E+00 -0.73743524746E+03  0.73743524746E+03  0.00000000000E+00 0.  1.
         23    2    1    2    0    0  0.27362372473E+03  0.24012999397E+03  0.35629511120E+03  0.51758877924E+03  0.91758276973E+02 0.  0.
        254    2    1    2    0    0 -0.27362372473E+03 -0.24012999397E+03 -0.29978483272E+03  0.10137919942E+04  0.89742459559E+03 0.  0.
        -24    2    4    4    0    0 -0.48486803647E+03 -0.42018851572E+03 -0.32524860032E+03  0.72386995573E+03  0.80905248730E+02 0.  0.
         24    2    4    4    0    0  0.21124431174E+03  0.18005852175E+03  0.25463767607E+02  0.28992203843E+03  0.79756845536E+02 0.  0.
         11    1    3    3    0    0 -0.66825278865E+01  0.79168484054E+01  0.42458658374E+01  0.11196429982E+02  0.00000000000E+00 0.  1.
        -11    1    3    3    0    0  0.28030625261E+03  0.23221314556E+03  0.35204924536E+03  0.50639234925E+03  0.00000000000E+00 0. -1.
          2    1    6    6  502    0 -0.34911128425E+01  0.99864428343E+01 -0.89305372510E+01  0.13844544231E+02  0.00000000000E+00 0. -1.
          1    1    5    5  503    0 -0.28885400206E+02 -0.22785722276E+02  0.66622398606E+00  0.36796730005E+02  0.00000000000E+00 0. -1.
         -2    1    5    5    0  503 -0.45598263626E+03 -0.39740279344E+03 -0.32591482431E+03  0.68707322573E+03  0.00000000000E+00 0.  1.
         -1    1    6    6    0  502  0.21473542458E+03  0.17007207892E+03  0.34394304858E+02  0.27607749420E+03  0.00000000000E+00 0.  1.
<mgrwt>
<rscale>  0 0.15303378E+04</rscale>
<asrwt>0</asrwt>
<pdfrwt beam="1">  1        2 0.12214547E+00 0.15303378E+04</pdfrwt>
<pdfrwt beam="2">  1       -2 0.11345158E+00 0.15303378E+04</pdfrwt>
<totfact> 0.20445043E+01</totfact>
</mgrwt>
</event>
<event>
12    1  0.1598876E-007  0.2279036E+04  0.7818608E-02  0.8486233E-01
         -1   -1    0    0    0  501 -0.00000000000E+00  0.00000000000E+00  0.33805631835E+03  0.33805631835E+03  0.00000000000E+00 0.  1.
          1   -1    0    0  501    0  0.00000000000E+00 -0.00000000000E+00 -0.38410802389E+04  0.38410802389E+04  0.00000000000E+00 0. -1.
         23    2    1    2    0    0  0.56251444502E+03 -0.47380048489E+03 -0.35520993265E+03  0.82240847484E+03  0.96292278453E+02 0.  0.
        254    2    1    2    0    0 -0.56251444502E+03  0.47380048489E+03 -0.31478139879E+04  0.33567280824E+04  0.90442308494E+03 0.  0.
        -24    2    4    4    0    0 -0.19103781912E+03  0.61926713075E+03 -0.25577029650E+04  0.26397594750E+04  0.80612660287E+02 0.  0.
         24    2    4    4    0    0 -0.37147662590E+03 -0.14546664586E+03 -0.59011102287E+03  0.71696860742E+03  0.81593725626E+02 0.  0.
         13    1    3    3    0    0  0.17345194288E+03 -0.10705576230E+03 -0.13311332262E+03  0.24344541357E+03  0.00000000000E+00 0. -1.
        -13    1    3    3    0    0  0.38906250213E+03 -0.36674472259E+03 -0.22209661003E+03  0.57896306126E+03  0.00000000000E+00 0.  1.
          2    1    6    6  502    0 -0.59868846060E+02 -0.40525239513E+02 -0.63956423068E+02  0.96524596957E+02  0.00000000000E+00 0. -1.
          1    1    5    5  503    0 -0.19063141829E+03  0.53098081032E+03 -0.21708910745E+04  0.22430000035E+04  0.00000000000E+00 0. -1.
         -2    1    5    5    0  503 -0.40640082445E+00  0.88286320432E+02 -0.38681189054E+03  0.39675947147E+03  0.00000000000E+00 0.  1.
         -1    1    6    6    0  502 -0.31160777984E+03 -0.10494140635E+03 -0.52615459980E+03  0.62044401046E+03  0.00000000000E+00 0.  1.
<mgrwt>
<rscale>  0 0.22790362E+04</rscale>
<asrwt>0</asrwt>
<pdfrwt beam="1">  1        1 0.59093539E+00 0.22790362E+04</pdfrwt>
<pdfrwt beam="2">  1       -1 0.52008667E-01 0.22790362E+04</pdfrwt>
<totfact> 0.44527210E-01</totfact>
</mgrwt>
</event>
<event>
12    1  0.1598876E-007  0.2824742E+04  0.7818608E-02  0.8295628E-01
         -2   -1    0    0    0  501 -0.00000000000E+00  0.00000000000E+00  0.74423043314E+03  0.74423043314E+03  0.00000000000E+00 0. -1.
          2   -1    0    0  501    0  0.00000000000E+00 -0.00000000000E+00 -0.26803410933E+04  0.26803410933E+04  0.00000000000E+00 0.  1.
         23    2    1    2    0    0 -0.74011050371E+03  0.85627285664E+03 -0.18465078122E+03  0.11501836187E+04  0.88654853267E+02 0.  0.
        254    2    1    2    0    0  0.74011050371E+03 -0.85627285664E+03 -0.17514598790E+04  0.22743879078E+04  0.90788869616E+03 0.  0.
        -24    2    4    4    0    0  0.47062750419E+03 -0.80704982874E+03 -0.66093542293E+03  0.11471234917E+04  0.78974668114E+02 0.  0.
         24    2    4    4    0    0  0.26948299953E+03 -0.49223027893E+02 -0.10905244560E+04  0.11272644161E+04  0.80233913915E+02 0.  0.
         13    1    3    3    0    0 -0.62184094125E+03  0.71993028127E+03 -0.18779014398E+03  0.96966535686E+03  0.00000000000E+00 0.  1.
        -13    1    3    3    0    0 -0.11826956246E+03  0.13634257536E+03  0.31393627612E+01  0.18051826185E+03  0.00000000000E+00 0. -1.
          4    1    6    6  502    0  0.94560095702E+02 -0.55818358067E+02 -0.38543974962E+03  0.40077562474E+03  0.00000000000E+00 0. -1.
          1    1    5    5  503    0  0.43713153746E+02 -0.42194249494E+02 -0.31063801574E+02  0.68236018854E+02  0.00000000000E+00 0. -1.
         -2    1    5    5    0  503  0.42691435044E+03 -0.76485557925E+03 -0.62987162136E+03  0.10788874729E+04  0.00000000000E+00 0.  1.
         -3    1    6    6    0  502  0.17492290383E+03  0.65953301736E+01 -0.70508470643E+03  0.72648879131E+03  0.00000000000E+00 0.  1.
<mgrwt>
<rscale>  0 0.28247417E+04</rscale>
<asrwt>0</asrwt>
<pdfrwt beam="1">  1        2 0.41236017E+00 0.28247417E+04</pdfrwt>
<pdfrwt beam="2">  1       -2 0.11449699E+00 0.28247417E+04</pdfrwt>
<totfact> 0.14114613E+00</totfact>
</mgrwt>
</event>
<event>
12    1  0.1598876E-007  0.1379409E+04  0.7818608E-02  0.8968859E-01
          1   -1    0    0  501    0  0.00000000000E+00  0.00000000000E+00  0.26188427033E+04  0.26188427033E+04  0.00000000000E+00 0. -1.
         -1   -1    0    0    0  501 -0.00000000000E+00 -0.00000000000E+00 -0.18164230024E+03  0.18164230024E+03  0.00000000000E+00 0.  1.
         23    2    1    2    0    0  0.19535591230E+03 -0.16489256622E+03  0.12065444130E+04  0.12366478421E+04  0.90526095804E+02 0.  0.
        254    2    1    2    0    0 -0.19535591230E+03  0.16489256622E+03  0.12306559901E+04  0.15638371615E+04  0.93044022416E+03 0.  0.
        -24    2    4    4    0    0 -0.47447595626E+03  0.29927441779E+03  0.46160734696E+03  0.73085611201E+03  0.79854264019E+02 0.  0.
         24    2    4    4    0    0  0.27912004396E+03 -0.13438185156E+03  0.76904864316E+03  0.83298104947E+03  0.80343837703E+02 0.  0.
         13    1    3    3    0    0 -0.87789463038E+01 -0.10227310899E+02  0.36697517868E+02  0.39094444671E+02  0.00000000000E+00 0.  1.
        -13    1    3    3    0    0  0.20413485860E+03 -0.15466525533E+03  0.11698468951E+04  0.11975533974E+04  0.00000000000E+00 0. -1.
          4    1    6    6  502    0  0.13986049686E+02 -0.31264692660E+02  0.61689195023E+02  0.70559530721E+02  0.00000000000E+00 0. -1.
          1    1    5    5  503    0 -0.37405181555E+02  0.20064060342E+02  0.11103026089E+02  0.43874722938E+02  0.00000000000E+00 0. -1.
         -2    1    5    5    0  503 -0.43707077471E+03  0.27921035745E+03  0.45050432087E+03  0.68698138907E+03  0.00000000000E+00 0.  1.
         -3    1    6    6    0  502  0.26513399428E+03 -0.10311715890E+03  0.70735944814E+03  0.76242151875E+03  0.00000000000E+00 0.  1.
<mgrwt>
<rscale>  0 0.13794095E+04</rscale>
<asrwt>0</asrwt>
<pdfrwt beam="1">  1        1 0.40289885E+00 0.13794095E+04</pdfrwt>
<pdfrwt beam="2">  1       -1 0.27944971E-01 0.13794095E+04</pdfrwt>
<totfact> 0.12687770E+01</totfact>
</mgrwt>
</event>
<event>
12    1  0.1598876E-007  0.1334619E+04  0.7818608E-02  0.9002554E-01
          2   -1    0    0  501    0  0.00000000000E+00  0.00000000000E+00  0.11717194597E+04  0.11717194597E+04  0.00000000000E+00 0. -1.
         -2   -1    0    0    0  501 -0.00000000000E+00 -0.00000000000E+00 -0.38004144978E+03  0.38004144978E+03  0.00000000000E+00 0.  1.
         23    2    1    2    0    0  0.14356398209E+03 -0.23129578967E+03 -0.51803347628E+02  0.29171866034E+03  0.91147302160E+02 0.  0.
        254    2    1    2    0    0 -0.14356398209E+03  0.23129578967E+03  0.84348135757E+03  0.12600422492E+04  0.89562118659E+03 0.  0.
        -24    2    4    4    0    0  0.26010168100E+03 -0.16405991299E+03  0.12250992691E+03  0.34058015981E+03  0.80110071498E+02 0.  0.
         24    2    4    4    0    0 -0.40366566309E+03  0.39535570266E+03  0.72097143066E+03  0.91946208936E+03  0.79741023098E+02 0.  0.
         11    1    3    3    0    0  0.77803601938E+01 -0.22601003056E+02  0.21524438812E+02  0.32165832961E+02  0.00000000000E+00 0. -1.
        -11    1    3    3    0    0  0.13578362190E+03 -0.20869478661E+03 -0.73327786440E+02  0.25955282738E+03  0.00000000000E+00 0.  1.
          2    1    6    6  502    0 -0.37368090390E+03  0.32947040975E+03  0.63353421833E+03  0.80594899010E+03  0.00000000000E+00 0. -1.
          1    1    5    5  503    0  0.22449539781E+03 -0.15960460308E+03  0.84065767706E+02  0.28799108712E+03  0.00000000000E+00 0. -1.
         -2    1    5    5    0  503  0.35606283190E+02 -0.44553099057E+01  0.38444159204E+02  0.52589072685E+02  0.00000000000E+00 0.  1.
         -1    1    6    6    0  502 -0.29984759190E+02  0.65885292907E+02  0.87437212331E+02  0.11351309927E+03  0.00000000000E+00 0.  1.
<mgrwt>
<rscale>  0 0.13346190E+04</rscale>
<asrwt>0</asrwt>
<pdfrwt beam="1">  1        2 0.18026453E+00 0.13346190E+04</pdfrwt>
<pdfrwt beam="2">  1       -2 0.58467916E-01 0.13346190E+04</pdfrwt>
<totfact> 0.52681667E+01</totfact>
</mgrwt>
</event>
<event>
12    1  0.1598876E-007  0.1712100E+04  0.7818608E-02  0.8754493E-01
         -2   -1    0    0    0  501 -0.00000000000E+00  0.00000000000E+00  0.26450592087E+03  0.26450592087E+03  0.00000000000E+00 0.  1.
          2   -1    0    0  501    0  0.00000000000E+00 -0.00000000000E+00 -0.27705307304E+04  0.27705307304E+04  0.00000000000E+00 0. -1.
         23    2    1    2    0    0 -0.46738149272E+03  0.14221756636E+03 -0.23317380478E+03  0.54862816407E+03  0.89171426224E+02 0.  0.
        254    2    1    2    0    0  0.46738149272E+03 -0.14221756636E+03 -0.22728510047E+04  0.24864084872E+04  0.88187537642E+03 0.  0.
        -24    2    4    4    0    0  0.67905075771E+03 -0.20919343240E+03 -0.20097237315E+04  0.21331050731E+04  0.79220906247E+02 0.  0.
         24    2    4    4    0    0 -0.21166926499E+03  0.66975866038E+02 -0.26312727318E+03  0.35330341409E+03  0.79358025099E+02 0.  0.
         13    1    3    3    0    0 -0.41199634200E+03  0.14739736946E+03 -0.22616279134E+03  0.49256124343E+03  0.00000000000E+00 0.  1.
        -13    1    3    3    0    0 -0.55385150720E+02 -0.51798030928E+01 -0.70110134410E+01  0.56066920638E+02  0.00000000000E+00 0. -1.
          2    1    6    6  502    0 -0.34442706191E+02  0.29436449621E+02 -0.98904821192E+02  0.10878864017E+03  0.00000000000E+00 0. -1.
          3    1    5    5  503    0  0.40348709188E+03 -0.16418802181E+03 -0.12057896218E+04  0.12820640202E+04  0.00000000000E+00 0. -1.
         -4    1    5    5    0  503  0.27556366583E+03 -0.45005410598E+02 -0.80393410978E+03  0.85104105293E+03  0.00000000000E+00 0.  1.
         -1    1    6    6    0  502 -0.17722655880E+03  0.37539416417E+02 -0.16422245198E+03  0.24451477392E+03  0.00000000000E+00 0.  1.
<mgrwt>
<rscale>  0 0.17121002E+04</rscale>
<asrwt>0</asrwt>
<pdfrwt beam="1">  1        2 0.42623549E+00 0.17121002E+04</pdfrwt>
<pdfrwt beam="2">  1       -2 0.40693219E-01 0.17121002E+04</pdfrwt>
<totfact> 0.13136180E+01</totfact>
</mgrwt>
</event>
<event>
12    1  0.1598876E-007  0.1806283E+04  0.7818608E-02  0.8702965E-01
          2   -1    0    0  501    0  0.00000000000E+00  0.00000000000E+00  0.18474946764E+04  0.18474946764E+04  0.00000000000E+00 0. -1.
         -2   -1    0    0    0  501 -0.00000000000E+00 -0.00000000000E+00 -0.44149764212E+03  0.44149764212E+03  0.00000000000E+00 0.  1.
         23    2    1    2    0    0  0.41626174144E+03 -0.27365930721E+03  0.11273113722E+04  0.12358953685E+04  0.91886768016E+02 0.  0.
        254    2    1    2    0    0 -0.41626174144E+03  0.27365930721E+03  0.27868566206E+03  0.10530969500E+04  0.88497696812E+03 0.  0.
        -24    2    4    4    0    0 -0.39315959761E+03  0.50545106774E+03 -0.44888476416E+02  0.64682484958E+03  0.79449101011E+02 0.  0.
         24    2    4    4    0    0 -0.23102143827E+02 -0.23179176053E+03  0.32357413848E+03  0.40627210044E+03  0.78074753990E+02 0.  0.
         13    1    3    3    0    0  0.19075802480E+03 -0.74218895517E+02  0.49132998649E+03  0.53226142459E+03  0.00000000000E+00 0. -1.
        -13    1    3    3    0    0  0.22550371663E+03 -0.19944041170E+03  0.63598138573E+03  0.70363394392E+03  0.00000000000E+00 0.  1.
          2    1    6    6  502    0 -0.32960875126E+02 -0.41892512812E+02  0.49869217151E+02  0.72995484367E+02  0.00000000000E+00 0. -1.
          1    1    5    5  503    0 -0.14878109411E+03  0.20724491231E+03 -0.55678722577E+02  0.26112523392E+03  0.00000000000E+00 0. -1.
         -2    1    5    5    0  503 -0.24437850351E+03  0.29820615543E+03  0.10790246161E+02  0.38569961567E+03  0.00000000000E+00 0.  1.
         -1    1    6    6    0  502  0.98587312989E+01 -0.18989924771E+03  0.27370492132E+03  0.33327661607E+03  0.00000000000E+00 0.  1.
<mgrwt>
<rscale>  0 0.18062830E+04</rscale>
<asrwt>0</asrwt>
<pdfrwt beam="1">  1        2 0.28422994E+00 0.18062830E+04</pdfrwt>
<pdfrwt beam="2">  1       -2 0.67922715E-01 0.18062830E+04</pdfrwt>
<totfact> 0.15209129E+01</totfact>
</mgrwt>
</event>
<event>
12    1  0.1598876E-007  0.1184732E+04  0.7818608E-02  0.9126327E-01
         -2   -1    0    0    0  501 -0.00000000000E+00  0.00000000000E+00  0.90238712801E+03  0.90238712801E+03  0.00000000000E+00 0.  1.
          2   -1    0    0  501    0  0.00000000000E+00 -0.00000000000E+00 -0.38885464770E+03  0.38885464770E+03  0.00000000000E+00 0. -1.
         23    2    1    2    0    0  0.18942227816E+02 -0.28024506268E+02  0.34260853146E+03  0.35629424314E+03  0.91764922057E+02 0.  0.
        254    2    1    2    0    0 -0.18942227816E+02  0.28024506268E+02  0.17092394885E+03  0.93494753257E+03  0.91856829437E+03 0.  0.
        -24    2    4    4    0    0  0.19757105337E+02 -0.31090811512E+03  0.40240548705E+03  0.51500595428E+03  0.79036432602E+02 0.  0.
         24    2    4    4    0    0 -0.38699333153E+02  0.33893262139E+03 -0.23148153820E+03  0.41994157829E+03  0.79964157099E+02 0.  0.
         11    1    3    3    0    0  0.16637323942E+02  0.26455798098E+02  0.21864969871E+03  0.22087190982E+03  0.00000000000E+00 0.  1.
        -11    1    3    3    0    0  0.23049038743E+01 -0.54480304366E+02  0.12395883275E+03  0.13542233332E+03  0.00000000000E+00 0. -1.
          2    1    6    6  502    0 -0.23044586746E+02  0.30189067062E+03 -0.22906023678E+03  0.37965460890E+03  0.00000000000E+00 0. -1.
          3    1    5    5  503    0 -0.85995076530E-01 -0.15861868849E+03  0.26546070965E+03  0.30923984883E+03  0.00000000000E+00 0. -1.
         -2    1    5    5    0  503  0.19843100413E+02 -0.15228942663E+03  0.13694477740E+03  0.20576610545E+03  0.00000000000E+00 0.  1.
         -1    1    6    6    0  502 -0.15654746407E+02  0.37041950773E+02 -0.24213014183E+01  0.40286969391E+02  0.00000000000E+00 0.  1.
<mgrwt>
<rscale>  0 0.11847319E+04</rscale>
<asrwt>0</asrwt>
<pdfrwt beam="1">  1        2 0.59823792E-01 0.11847319E+04</pdfrwt>
<pdfrwt beam="2">  1       -2 0.13882879E+00 0.11847319E+04</pdfrwt>
<totfact> 0.29740130E+01</totfact>
</mgrwt>
</event>
<event>
12    1  0.1598876E-007  0.1186828E+04  0.7818608E-02  0.9124464E-01
         -2   -1    0    0    0  501 -0.00000000000E+00  0.00000000000E+00  0.34197852583E+03  0.34197852583E+03  0.00000000000E+00 0.  1.
          2   -1    0    0  501    0  0.00000000000E+00 -0.00000000000E+00 -0.10297147334E+04  0.10297147334E+04  0.00000000000E+00 0. -1.
         23    2    1    2    0    0 -0.16475096917E+03  0.12388389764E+02 -0.33347636951E+03  0.38281101964E+03  0.89674041353E+02 0.  0.
        254    2    1    2    0    0  0.16475096917E+03 -0.12388389764E+02 -0.35425983808E+03  0.98888223961E+03  0.90834558231E+03 0.  0.
        -24    2    4    4    0    0  0.34480492283E+03  0.16950453454E+03  0.14792173602E+03  0.41927495955E+03  0.79299619688E+02 0.  0.
         24    2    4    4    0    0 -0.18005395366E+03 -0.18189292430E+03 -0.50218157410E+03  0.56960728006E+03  0.82229301310E+02 0.  0.
         13    1    3    3    0    0 -0.26716744246E+02 -0.32802115802E+02 -0.86528660059E+02  0.96317040215E+02  0.00000000000E+00 0. -1.
        -13    1    3    3    0    0 -0.13803422492E+03  0.45190505565E+02 -0.24694770945E+03  0.28649397942E+03  0.00000000000E+00 0.  1.
          2    1    6    6  502    0 -0.12418942714E+03 -0.16143714639E+03 -0.43196983525E+03  0.47758025986E+03  0.00000000000E+00 0. -1.
          1    1    5    5  503    0  0.32431444405E+03  0.15443286734E+03  0.11397358882E+03  0.37685454499E+03  0.00000000000E+00 0. -1.
         -2    1    5    5    0  503  0.20490478783E+02  0.15071667199E+02  0.33948147205E+02  0.42420414562E+02  0.00000000000E+00 0.  1.
         -1    1    6    6    0  502 -0.55864526528E+02 -0.20455777910E+02 -0.70211738851E+02  0.92027020198E+02  0.00000000000E+00 0.  1.
<mgrwt>
<rscale>  0 0.11868283E+04</rscale>
<asrwt>0</asrwt>
<pdfrwt beam="1">  1        2 0.15841765E+00 0.11868283E+04</pdfrwt>
<pdfrwt beam="2">  1       -2 0.52612081E-01 0.11868283E+04</pdfrwt>
<totfact> 0.81151966E+01</totfact>
</mgrwt>
</event>
<event>
12    1  0.1598876E-007  0.2134275E+04  0.7818608E-02  0.8546293E-01
         -2   -1    0    0    0  501 -0.00000000000E+00  0.00000000000E+00  0.59076287600E+03  0.59076287600E+03  0.00000000000E+00 0.  1.
          2   -1    0    0  501    0  0.00000000000E+00 -0.00000000000E+00 -0.19276478523E+04  0.19276478523E+04  0.00000000000E+00 0. -1.
         23    2    1    2    0    0  0.11163251888E+03 -0.60779473850E+03 -0.12749468336E+04  0.14221620919E+04  0.12320439813E+03 0.  0.
        254    2    1    2    0    0 -0.11163251888E+03  0.60779473850E+03 -0.61938142736E+02  0.10962486364E+04  0.90335401472E+03 0.  0.
        -24    2    4    4    0    0 -0.11479412249E+03  0.24633443610E+03  0.40884855677E+03  0.49724266374E+03  0.78960618749E+02 0.  0.
         24    2    4    4    0    0  0.31616036118E+01  0.36146030241E+03 -0.47078669950E+03  0.59900597268E+03  0.80650436609E+02 0.  0.
         13    1    3    3    0    0  0.20171801903E+02 -0.13718663169E+03 -0.41574762161E+03  0.43826151825E+03  0.00000000000E+00 0.  1.
        -13    1    3    3    0    0  0.91460716973E+02 -0.47060810681E+03 -0.85919921199E+03  0.98390057365E+03  0.00000000000E+00 0. -1.
          4    1    6    6  502    0  0.12378783883E+02  0.35929023963E+02 -0.20153287916E+02  0.43014928423E+02  0.00000000000E+00 0. -1.
          3    1    5    5  503    0  0.40709134078E+01  0.59979185999E+02  0.11231754622E+03  0.12739429453E+03  0.00000000000E+00 0. -1.
         -4    1    5    5    0  503 -0.11886503590E+03  0.18635525010E+03  0.29653101054E+03  0.36984836922E+03  0.00000000000E+00 0.  1.
         -3    1    6    6    0  502 -0.92171802707E+01  0.32553127844E+03 -0.45063341159E+03  0.55599104426E+03  0.00000000000E+00 0.  1.
<mgrwt>
<rscale>  0 0.21342753E+04</rscale>
<asrwt>0</asrwt>
<pdfrwt beam="1">  1        2 0.29656121E+00 0.21342753E+04</pdfrwt>
<pdfrwt beam="2">  1       -2 0.90886596E-01 0.21342753E+04</pdfrwt>
<totfact> 0.69584331E+00</totfact>
</mgrwt>
</event>
<event>
12    1  0.1598876E-007  0.1785605E+04  0.7818608E-02  0.8713992E-01
          1   -1    0    0  501    0  0.00000000000E+00  0.00000000000E+00  0.44971300249E+03  0.44971300249E+03  0.00000000000E+00 0. -1.
         -1   -1    0    0    0  501 -0.00000000000E+00 -0.00000000000E+00 -0.17724558068E+04  0.17724558068E+04  0.00000000000E+00 0.  1.
         23    2    1    2    0    0 -0.18933343852E+02 -0.66043877739E+03 -0.48865770323E+03  0.82685693987E+03  0.91477854627E+02 0.  0.
        254    2    1    2    0    0  0.18933343852E+02  0.66043877739E+03 -0.83408510108E+03  0.13953118694E+04  0.90258484749E+03 0.  0.
        -24    2    4    4    0    0  0.26935781750E+03 -0.11025448113E+03 -0.26678824799E+03  0.40269329496E+03  0.79222699334E+02 0.  0.
         24    2    4    4    0    0 -0.25042447364E+03  0.77069325853E+03 -0.56729685310E+03  0.99261857447E+03  0.82373533979E+02 0.  0.
         11    1    3    3    0    0 -0.64725070608E+01 -0.20129248603E+03 -0.98462623701E+02  0.22417726590E+03  0.00000000000E+00 0.  1.
        -11    1    3    3    0    0 -0.12460836792E+02 -0.45914629136E+03 -0.39019507953E+03  0.60267967396E+03  0.00000000000E+00 0. -1.
          2    1    6    6  502    0 -0.16963804845E+03  0.60053993414E+03 -0.40461299296E+03  0.74373177561E+03  0.00000000000E+00 0. -1.
          3    1    5    5  503    0  0.17958261671E+03 -0.70879845849E+02 -0.12386934722E+03  0.22938501249E+03  0.00000000000E+00 0. -1.
         -4    1    5    5    0  503  0.89775200782E+02 -0.39374635283E+02 -0.14291890076E+03  0.17330828247E+03  0.00000000000E+00 0.  1.
         -3    1    6    6    0  502 -0.80786425194E+02  0.17015332439E+03 -0.16268386014E+03  0.24888679885E+03  0.00000000000E+00 0.  1.
<mgrwt>
<rscale>  0 0.17856051E+04</rscale>
<asrwt>0</asrwt>
<pdfrwt beam="1">  1        1 0.69186616E-01 0.17856051E+04</pdfrwt>
<pdfrwt beam="2">  1       -1 0.27268551E+00 0.17856051E+04</pdfrwt>
<totfact> 0.24046274E+00</totfact>
</mgrwt>
</event>
<event>
12    1  0.1598876E-007  0.1299237E+04  0.7818608E-02  0.9030171E-01
         -2   -1    0    0    0  501 -0.00000000000E+00  0.00000000000E+00  0.21693541388E+03  0.21693541388E+03  0.00000000000E+00 0.  1.
          2   -1    0    0  501    0  0.00000000000E+00 -0.00000000000E+00 -0.19452975977E+04  0.19452975977E+04  0.00000000000E+00 0. -1.
         23    2    1    2    0    0  0.30276280461E+02 -0.11257589632E+03 -0.10034348939E+04  0.10142999836E+04  0.91284635678E+02 0.  0.
        254    2    1    2    0    0 -0.30276280461E+02  0.11257589632E+03 -0.72492728988E+03  0.11479330280E+04  0.88240618514E+03 0.  0.
        -24    2    4    4    0    0 -0.24413465666E+03 -0.29140449491E+02  0.10265027293E+03  0.27769410418E+03  0.78269026964E+02 0.  0.
         24    2    4    4    0    0  0.21385837620E+03  0.14171634581E+03 -0.82757756281E+03  0.87023892382E+03  0.81315646301E+02 0.  0.
         13    1    3    3    0    0 -0.30404438689E+02 -0.55972280474E+02 -0.36838987501E+03  0.37385615694E+03  0.00000000000E+00 0.  1.
        -13    1    3    3    0    0  0.60680719149E+02 -0.56603615846E+02 -0.63504501893E+03  0.64044382663E+03  0.00000000000E+00 0. -1.
          2    1    6    6  502    0  0.18484749637E+03  0.12892102957E+03 -0.78762867735E+03  0.81923632864E+03  0.00000000000E+00 0. -1.
          1    1    5    5  503    0 -0.21180724176E+03 -0.49923277760E+02  0.99053327279E+02  0.23909454818E+03  0.00000000000E+00 0. -1.
         -2    1    5    5    0  503 -0.32327414901E+02  0.20782828269E+02  0.35969456493E+01  0.38599555995E+02  0.00000000000E+00 0.  1.
         -1    1    6    6    0  502  0.29010879829E+02  0.12795316238E+02 -0.39948885462E+02  0.51002595186E+02  0.00000000000E+00 0.  1.
<mgrwt>
<rscale>  0 0.12992366E+04</rscale>
<asrwt>0</asrwt>
<pdfrwt beam="1">  1        2 0.29927657E+00 0.12992366E+04</pdfrwt>
<pdfrwt beam="2">  1       -2 0.33374677E-01 0.12992366E+04</pdfrwt>
<totfact> 0.58960219E+01</totfact>
</mgrwt>
</event>
<event>
12    1  0.1598876E-007  0.1295731E+04  0.7818608E-02  0.9032958E-01
         -2   -1    0    0    0  501 -0.00000000000E+00  0.00000000000E+00  0.41057556362E+03  0.41057556362E+03  0.00000000000E+00 0.  1.
          2   -1    0    0  501    0  0.00000000000E+00 -0.00000000000E+00 -0.10222951292E+04  0.10222951292E+04  0.00000000000E+00 0. -1.
         23    2    1    2    0    0  0.30456482100E+01 -0.49136721104E+02  0.19545618986E+03  0.22040536661E+03  0.89172361983E+02 0.  0.
        254    2    1    2    0    0 -0.30456482100E+01  0.49136721104E+02 -0.80717575547E+03  0.12124653262E+04  0.90339126284E+03 0.  0.
        -24    2    4    4    0    0 -0.23190656620E+03 -0.11734156789E+03  0.75987170056E+02  0.28166760416E+03  0.77542828268E+02 0.  0.
         24    2    4    4    0    0  0.22886091799E+03  0.16647828899E+03 -0.88316292552E+03  0.93079772208E+03  0.79468899052E+02 0.  0.
         11    1    3    3    0    0 -0.16145481001E+02 -0.37352317858E+02  0.19357568799E+03  0.19780651957E+03  0.00000000000E+00 0.  1.
        -11    1    3    3    0    0  0.19191129211E+02 -0.11784403246E+02  0.18805018783E+01  0.22598847040E+02  0.00000000000E+00 0. -1.
          2    1    6    6  502    0  0.98648405095E+02  0.48647529342E+02 -0.45315789042E+03  0.46631551935E+03  0.00000000000E+00 0. -1.
          1    1    5    5  503    0 -0.12614877108E+03 -0.83364059131E+02  0.78889066787E+02  0.17054783393E+03  0.00000000000E+00 0. -1.
         -2    1    5    5    0  503 -0.10575779512E+03 -0.33977508755E+02 -0.29018967313E+01  0.11111977022E+03  0.00000000000E+00 0.  1.
         -1    1    6    6    0  502  0.13021251290E+03  0.11783075965E+03 -0.43000503510E+03  0.46448220272E+03  0.00000000000E+00 0.  1.
<mgrwt>
<rscale>  0 0.12957305E+04</rscale>
<asrwt>0</asrwt>
<pdfrwt beam="1">  1        2 0.15727617E+00 0.12957305E+04</pdfrwt>
<pdfrwt beam="2">  1       -2 0.63165472E-01 0.12957305E+04</pdfrwt>
<totfact> 0.55486600E+01</totfact>
</mgrwt>
</event>
<event>
12    1  0.1598876E-007  0.1593397E+04  0.7818608E-02  0.8824615E-01
         -2   -1    0    0    0  501 -0.00000000000E+00  0.00000000000E+00  0.58679451724E+03  0.58679451724E+03  0.00000000000E+00 0.  1.
          2   -1    0    0  501    0  0.00000000000E+00 -0.00000000000E+00 -0.10816879615E+04  0.10816879615E+04  0.00000000000E+00 0. -1.
         23    2    1    2    0    0 -0.45448554843E+03 -0.18845921579E+03 -0.42451678321E+03  0.65615787759E+03  0.90855221881E+02 0.  0.
        254    2    1    2    0    0  0.45448554843E+03  0.18845921579E+03 -0.70376661042E+02  0.10123246011E+04  0.88191509451E+03 0.  0.
        -24    2    4    4    0    0 -0.20905377474E+03  0.13960393585E+03  0.15406243344E+03  0.30544752282E+03  0.79813633925E+02 0.  0.
         24    2    4    4    0    0  0.66353932317E+03  0.48855279941E+02 -0.22443909448E+03  0.70687707833E+03  0.81431105637E+02 0.  0.
         11    1    3    3    0    0 -0.24822610797E+02 -0.28660865618E+02 -0.12865885842E+02  0.40039208824E+02  0.00000000000E+00 0.  1.
        -11    1    3    3    0    0 -0.42966293764E+03 -0.15979835017E+03 -0.41165089737E+03  0.61611866876E+03  0.00000000000E+00 0. -1.
          4    1    6    6  502    0  0.49832603214E+03  0.71840017487E+02 -0.16634550824E+03  0.53024583971E+03  0.00000000000E+00 0. -1.
          3    1    5    5  503    0 -0.18606315132E+03  0.91175795562E+02  0.13987016379E+03  0.24999236927E+03  0.00000000000E+00 0. -1.
         -4    1    5    5    0  503 -0.22990623418E+02  0.48428140288E+02  0.14192269651E+02  0.55455153545E+02  0.00000000000E+00 0.  1.
         -3    1    6    6    0  502  0.16521329103E+03 -0.22984737546E+02 -0.58093586245E+02  0.17663123862E+03  0.00000000000E+00 0.  1.
<mgrwt>
<rscale>  0 0.15933971E+04</rscale>
<asrwt>0</asrwt>
<pdfrwt beam="1">  1        2 0.16641353E+00 0.15933971E+04</pdfrwt>
<pdfrwt beam="2">  1       -2 0.90276081E-01 0.15933971E+04</pdfrwt>
<totfact> 0.22519207E+01</totfact>
</mgrwt>
</event>
<event>
12    1  0.1598876E-007  0.1477524E+04  0.7818608E-02  0.8899539E-01
         -2   -1    0    0    0  501 -0.00000000000E+00  0.00000000000E+00  0.41898330778E+03  0.41898330778E+03  0.00000000000E+00 0.  1.
          2   -1    0    0  501    0  0.00000000000E+00 -0.00000000000E+00 -0.13026032075E+04  0.13026032075E+04  0.00000000000E+00 0. -1.
         23    2    1    2    0    0  0.33255371877E+03 -0.19352464507E+02  0.93304024329E+02  0.35699524914E+03  0.88167302356E+02 0.  0.
        254    2    1    2    0    0 -0.33255371877E+03  0.19352464507E+02 -0.97692392403E+03  0.13645912661E+04  0.89261552556E+03 0.  0.
        -24    2    4    4    0    0 -0.37784540798E+03 -0.22742799861E+03 -0.11361801727E+03  0.46254882939E+03  0.80942688625E+02 0.  0.
         24    2    4    4    0    0  0.45291689207E+02  0.24678046312E+03 -0.86330590675E+03  0.90204243672E+03  0.73698947907E+02 0.  0.
         13    1    3    3    0    0  0.23641097741E+03 -0.93923653815E+00  0.25215408223E+02  0.23775375752E+03  0.00000000000E+00 0. -1.
        -13    1    3    3    0    0  0.96142741364E+02 -0.18413227969E+02  0.68088616106E+02  0.11924149162E+03  0.00000000000E+00 0.  1.
          4    1    6    6  502    0  0.21336904343E+02  0.16162896124E+03 -0.66852216838E+03  0.68811414331E+03  0.00000000000E+00 0. -1.
          3    1    5    5  503    0 -0.36612082239E+03 -0.23181268810E+03 -0.10137135958E+03  0.44503677544E+03  0.00000000000E+00 0. -1.
         -4    1    5    5    0  503 -0.11724585587E+02  0.43846894851E+01 -0.12246657691E+02  0.17512053953E+02  0.00000000000E+00 0.  1.
         -3    1    6    6    0  502  0.23954784864E+02  0.85151501877E+02 -0.19478373837E+03  0.21392829341E+03  0.00000000000E+00 0.  1.
<mgrwt>
<rscale>  0 0.14775236E+04</rscale>
<asrwt>0</asrwt>
<pdfrwt beam="1">  1        2 0.20040049E+00 0.14775236E+04</pdfrwt>
<pdfrwt beam="2">  1       -2 0.64458971E-01 0.14775236E+04</pdfrwt>
<totfact> 0.35437446E+01</totfact>
</mgrwt>
</event>
<event>
12    1  0.1598876E-007  0.3061924E+04  0.7818608E-02  0.8226266E-01
          2   -1    0    0  501    0  0.00000000000E+00  0.00000000000E+00  0.19506891293E+04  0.19506891293E+04  0.00000000000E+00 0. -1.
         -2   -1    0    0    0  501 -0.00000000000E+00 -0.00000000000E+00 -0.12015470502E+04  0.12015470502E+04  0.00000000000E+00 0.  1.
         23    2    1    2    0    0 -0.12583109973E+04 -0.98493962796E+02 -0.24470987874E+03  0.12886419179E+04  0.87563926638E+02 0.  0.
        254    2    1    2    0    0  0.12583109973E+04  0.98493962796E+02  0.99385195785E+03  0.18635942616E+04  0.94456033750E+03 0.  0.
        -24    2    4    4    0    0 -0.11097656107E+03 -0.37435341057E+01 -0.42847068566E+02  0.14144916134E+03  0.76434173012E+02 0.  0.
         24    2    4    4    0    0  0.13692875583E+04  0.10223749690E+03  0.10366990264E+04  0.17221451002E+04  0.75086295354E+02 0.  0.
         11    1    3    3    0    0 -0.19334107025E+02 -0.12940468996E+02 -0.42395390517E+01  0.23648194934E+02  0.00000000000E+00 0.  1.
        -11    1    3    3    0    0 -0.12389768902E+04 -0.85553493800E+02 -0.24047033968E+03  0.12649937230E+04  0.00000000000E+00 0. -1.
          4    1    6    6  502    0  0.88639787328E+03  0.86943937328E+02  0.63514722517E+03  0.10939252422E+04  0.00000000000E+00 0. -1.
          3    1    5    5  503    0 -0.10955634104E+03 -0.14402902736E+02 -0.56470872764E+02  0.12409268689E+03  0.00000000000E+00 0. -1.
         -4    1    5    5    0  503 -0.14202200366E+01  0.10659368630E+02  0.13623804198E+02  0.17356474451E+02  0.00000000000E+00 0.  1.
         -3    1    6    6    0  502  0.48288968506E+03  0.15293559573E+02  0.40155180124E+03  0.62821985800E+03  0.00000000000E+00 0.  1.
<mgrwt>
<rscale>  0 0.30619241E+04</rscale>
<asrwt>0</asrwt>
<pdfrwt beam="1">  1        2 0.30010602E+00 0.30619241E+04</pdfrwt>
<pdfrwt beam="2">  1       -2 0.18485339E+00 0.30619241E+04</pdfrwt>
<totfact> 0.10179958E+00</totfact>
</mgrwt>
</event>
<event>
12    1  0.1598876E-007  0.2033930E+04  0.7818608E-02  0.8590920E-01
          1   -1    0    0  501    0  0.00000000000E+00  0.00000000000E+00  0.24543417490E+04  0.24543417490E+04  0.00000000000E+00 0. -1.
         -1   -1    0    0    0  501 -0.00000000000E+00 -0.00000000000E+00 -0.42138299416E+03  0.42138299416E+03  0.00000000000E+00 0.  1.
         23    2    1    2    0    0 -0.56327739089E+03 -0.54253626803E+02 -0.83308528550E+01  0.57538509270E+03  0.10379656394E+03 0.  0.
        254    2    1    2    0    0  0.56327739089E+03  0.54253626803E+02  0.20412896077E+04  0.23003396505E+04  0.89692495223E+03 0.  0.
        -24    2    4    4    0    0  0.71161951586E+03 -0.13887274023E+02  0.92727448896E+03  0.11716812154E+04  0.80023127575E+02 0.  0.
         24    2    4    4    0    0 -0.14834212498E+03  0.68140900826E+02  0.11140151188E+04  0.11286584351E+04  0.78686783058E+02 0.  0.
         13    1    3    3    0    0 -0.46273758731E+03 -0.32594931095E+02  0.31831743630E+02  0.46497501454E+03  0.00000000000E+00 0.  1.
        -13    1    3    3    0    0 -0.10053980357E+03 -0.21658695707E+02 -0.40162596485E+02  0.11041007816E+03  0.00000000000E+00 0. -1.
          2    1    6    6  502    0 -0.10689979470E+03  0.84591622534E+02  0.86693421233E+03  0.87758659813E+03  0.00000000000E+00 0. -1.
          3    1    5    5  503    0  0.53689714197E+03  0.15768709970E+02  0.65923188819E+03  0.85034926687E+03  0.00000000000E+00 0. -1.
         -4    1    5    5    0  503  0.17472237390E+03 -0.29655983993E+02  0.26804260078E+03  0.32133194855E+03  0.00000000000E+00 0.  1.
         -1    1    6    6    0  502 -0.41442330281E+02 -0.16450721708E+02  0.24708090644E+03  0.25107183695E+03  0.00000000000E+00 0.  1.
<mgrwt>
<rscale>  0 0.20339301E+04</rscale>
<asrwt>0</asrwt>
<pdfrwt beam="1">  1        1 0.37759103E+00 0.20339301E+04</pdfrwt>
<pdfrwt beam="2">  1       -1 0.64828154E-01 0.20339301E+04</pdfrwt>
<totfact> 0.32526436E+00</totfact>
</mgrwt>
</event>
<event>
12    1  0.1598876E-007  0.1319894E+04  0.7818608E-02  0.9013936E-01
         -2   -1    0    0    0  501 -0.00000000000E+00  0.00000000000E+00  0.13211309288E+04  0.13211309288E+04  0.00000000000E+00 0. -1.
          2   -1    0    0  501    0  0.00000000000E+00 -0.00000000000E+00 -0.32966451321E+03  0.32966451321E+03  0.00000000000E+00 0.  1.
         23    2    1    2    0    0  0.22210567351E+03  0.24659220877E+03  0.13871434644E+03  0.37149112429E+03  0.92872697236E+02 0.  0.
        254    2    1    2    0    0 -0.22210567351E+03 -0.24659220877E+03  0.85275206913E+03  0.12793043177E+04  0.89403288432E+03 0.  0.
        -24    2    4    4    0    0 -0.36016753048E+03  0.23821138376E+03  0.45664639447E+03  0.63347009820E+03  0.79329202516E+02 0.  0.
         24    2    4    4    0    0  0.13806185697E+03 -0.48480359253E+03  0.39610567467E+03  0.64583421950E+03  0.78144314575E+02 0.  0.
         13    1    3    3    0    0  0.37030332127E+01  0.19016855466E+02  0.34018742944E+02  0.39148794595E+02  0.00000000000E+00 0. -1.
        -13    1    3    3    0    0  0.21840264030E+03  0.22757535330E+03  0.10469560349E+03  0.33234232970E+03  0.00000000000E+00 0.  1.
          2    1    6    6  502    0 -0.62361252186E+01 -0.13449514956E+02  0.24003342265E+02  0.28212393557E+02  0.00000000000E+00 0. -1.
          3    1    5    5  503    0 -0.47542879431E+02  0.45941444748E+02  0.11166868553E+03  0.12977225072E+03  0.00000000000E+00 0. -1.
         -4    1    5    5    0  503 -0.31262465104E+03  0.19226993901E+03  0.34497770894E+03  0.50369784748E+03  0.00000000000E+00 0.  1.
         -1    1    6    6    0  502  0.14429798219E+03 -0.47135407757E+03  0.37210233240E+03  0.61762182595E+03  0.00000000000E+00 0.  1.
<mgrwt>
<rscale>  0 0.13198939E+04</rscale>
<asrwt>0</asrwt>
<pdfrwt beam="1">  1        2 0.50717618E-01 0.13198939E+04</pdfrwt>
<pdfrwt beam="2">  1       -2 0.20325091E+00 0.13198939E+04</pdfrwt>
<totfact> 0.12239296E+01</totfact>
</mgrwt>
</event>
<event>
12    1  0.1598876E-007  0.3031856E+04  0.7818608E-02  0.8234692E-01
          2   -1    0    0  501    0  0.00000000000E+00  0.00000000000E+00  0.10390288219E+04  0.10390288219E+04  0.00000000000E+00 0. -1.
         -2   -1    0    0    0  501 -0.00000000000E+00 -0.00000000000E+00 -0.22117168747E+04  0.22117168747E+04  0.00000000000E+00 0.  1.
         23    2    1    2    0    0 -0.10956740354E+03 -0.77549883041E+03  0.68613377548E+03  0.10452657861E+04  0.91638167530E+02 0.  0.
        254    2    1    2    0    0  0.10956740354E+03  0.77549883041E+03 -0.18588218283E+04  0.22054799105E+04  0.89191905140E+03 0.  0.
        -24    2    4    4    0    0 -0.27678223855E+03  0.70205020755E+03 -0.14269516362E+04  0.16161875998E+04  0.79927993052E+02 0.  0.
         24    2    4    4    0    0  0.38634964209E+03  0.73448622863E+02 -0.43187019205E+03  0.58929231067E+03  0.78056508305E+02 0.  0.
         11    1    3    3    0    0 -0.24035804339E+02 -0.33029399385E+03  0.34231503684E+03  0.47628922590E+03  0.00000000000E+00 0. -1.
        -11    1    3    3    0    0 -0.85531599204E+02 -0.44520483656E+03  0.34381873864E+03  0.56897656015E+03  0.00000000000E+00 0.  1.
          2    1    6    6  502    0  0.38809768879E+03  0.75409062737E+02 -0.43308066727E+03  0.58640021074E+03  0.00000000000E+00 0. -1.
          3    1    5    5  503    0 -0.22267447900E+03  0.55776149850E+03 -0.10623191240E+04  0.12203293547E+04  0.00000000000E+00 0. -1.
         -4    1    5    5    0  503 -0.54107759545E+02  0.14428870905E+03 -0.36463251224E+03  0.39585824506E+03  0.00000000000E+00 0.  1.
         -1    1    6    6    0  502 -0.17480467024E+01 -0.19604398738E+01  0.12104752182E+01  0.28920999337E+01  0.00000000000E+00 0.  1.
<mgrwt>
<rscale>  0 0.30318559E+04</rscale>
<asrwt>0</asrwt>
<pdfrwt beam="1">  1        2 0.15985059E+00 0.30318559E+04</pdfrwt>
<pdfrwt beam="2">  1       -2 0.34026413E+00 0.30318559E+04</pdfrwt>
<totfact> 0.36366446E-01</totfact>
</mgrwt>
</event>
<event>
12    1  0.1598876E-007  0.1772605E+04  0.7818608E-02  0.8721005E-01
          1   -1    0    0  501    0  0.00000000000E+00  0.00000000000E+00  0.51496189424E+03  0.51496189424E+03  0.00000000000E+00 0. -1.
         -1   -1    0    0    0  501 -0.00000000000E+00 -0.00000000000E+00 -0.15254171037E+04  0.15254171037E+04  0.00000000000E+00 0.  1.
         23    2    1    2    0    0  0.15465380643E+03 -0.50993235549E+03 -0.80215546785E+03  0.96861672779E+03  0.10400078715E+03 0.  0.
        254    2    1    2    0    0 -0.15465380643E+03  0.50993235549E+03 -0.20829974156E+03  0.10717622701E+04  0.90627632335E+03 0.  0.
        -24    2    4    4    0    0 -0.28329573545E+02 -0.11555313876E+02  0.30942983449E+03  0.32160082370E+03  0.82122940278E+02 0.  0.
         24    2    4    4    0    0 -0.12632423289E+03  0.52148766936E+03 -0.51772957605E+03  0.75016144640E+03  0.82408013167E+02 0.  0.
         11    1    3    3    0    0  0.12105584106E+03 -0.37503235081E+03 -0.50516843392E+03  0.64070190216E+03  0.00000000000E+00 0.  1.
        -11    1    3    3    0    0  0.33597965375E+02 -0.13490000468E+03 -0.29698703394E+03  0.32791482563E+03  0.00000000000E+00 0. -1.
          2    1    6    6  502    0 -0.57696834900E+02  0.11705634299E+03 -0.97461776944E+02  0.16288004837E+03  0.00000000000E+00 0. -1.
          1    1    5    5  503    0  0.15953792458E+02 -0.77430449308E+01  0.13333144992E+02  0.22186730132E+02  0.00000000000E+00 0. -1.
         -2    1    5    5    0  503 -0.44283366003E+02 -0.38122689454E+01  0.29609668950E+03  0.29941409357E+03  0.00000000000E+00 0.  1.
         -1    1    6    6    0  502 -0.68627397988E+02  0.40443132637E+03 -0.42026779911E+03  0.58728139803E+03  0.00000000000E+00 0.  1.
<mgrwt>
<rscale>  0 0.17726045E+04</rscale>
<asrwt>0</asrwt>
<pdfrwt beam="1">  1        1 0.79224907E-01 0.17726045E+04</pdfrwt>
<pdfrwt beam="2">  1       -1 0.23467955E+00 0.17726045E+04</pdfrwt>
<totfact> 0.35365647E+00</totfact>
</mgrwt>
</event>
<event>
12    1  0.1598876E-007  0.1282839E+04  0.7818608E-02  0.9043286E-01
         -2   -1    0    0    0  501 -0.00000000000E+00  0.00000000000E+00  0.24715465034E+03  0.24715465034E+03  0.00000000000E+00 0.  1.
          2   -1    0    0  501    0  0.00000000000E+00 -0.00000000000E+00 -0.16646212914E+04  0.16646212914E+04  0.00000000000E+00 0. -1.
         23    2    1    2    0    0  0.10868765227E+03 -0.26711272625E+03 -0.16299083504E+03  0.34323414143E+03  0.89896881232E+02 0.  0.
        254    2    1    2    0    0 -0.10868765227E+03  0.26711272625E+03 -0.12544758060E+04  0.15685418003E+04  0.89635462688E+03 0.  0.
        -24    2    4    4    0    0  0.24303882062E+03 -0.54592370004E+02 -0.97745847692E+03  0.10118853916E+04  0.80241986438E+02 0.  0.
         24    2    4    4    0    0 -0.35172647289E+03  0.32170509626E+03 -0.27701732907E+03  0.55665640871E+03  0.76955026236E+02 0.  0.
         11    1    3    3    0    0 -0.10174205651E+02 -0.24561523771E+02  0.20994319865E+01  0.26668155640E+02  0.00000000000E+00 0. -1.
        -11    1    3    3    0    0  0.11886185792E+03 -0.24255120248E+03 -0.16509026702E+03  0.31656598579E+03  0.00000000000E+00 0.  1.
          2    1    6    6  502    0 -0.18150326759E+03  0.14857392452E+03 -0.94372204167E+02  0.25283148560E+03  0.00000000000E+00 0. -1.
          3    1    5    5  503    0  0.13053304726E+03 -0.69611620249E+02 -0.53054229973E+03  0.55078106894E+03  0.00000000000E+00 0. -1.
         -4    1    5    5    0  503  0.11250577336E+03  0.15019250244E+02 -0.44691617719E+03  0.46110432263E+03  0.00000000000E+00 0.  1.
         -1    1    6    6    0  502 -0.17022320530E+03  0.17313117174E+03 -0.18264512490E+03  0.30382492311E+03  0.00000000000E+00 0.  1.
<mgrwt>
<rscale>  0 0.12828389E+04</rscale>
<asrwt>0</asrwt>
<pdfrwt beam="1">  1        2 0.25609559E+00 0.12828389E+04</pdfrwt>
<pdfrwt beam="2">  1       -2 0.38023791E-01 0.12828389E+04</pdfrwt>
<totfact> 0.65735573E+01</totfact>
</mgrwt>
</event>
<event>
12    1  0.1598876E-007  0.1843739E+04  0.7818608E-02  0.8683379E-01
         -1   -1    0    0    0  501 -0.00000000000E+00  0.00000000000E+00  0.78749125125E+03  0.78749125125E+03  0.00000000000E+00 0.  1.
          1   -1    0    0  501    0  0.00000000000E+00 -0.00000000000E+00 -0.10791777645E+04  0.10791777645E+04  0.00000000000E+00 0. -1.
         23    2    1    2    0    0  0.63461713547E+03  0.31830367829E+03  0.21735875229E+01  0.71591877550E+03  0.92080553804E+02 0.  0.
        254    2    1    2    0    0 -0.63461713547E+03 -0.31830367829E+03 -0.29386010078E+03  0.11507502403E+04  0.85663073514E+03 0.  0.
        -24    2    4    4    0    0 -0.68618176501E+03 -0.73193045009E+02  0.73322036368E+02  0.69928041428E+03  0.86106563633E+02 0.  0.
         24    2    4    4    0    0  0.51564629545E+02 -0.24511063328E+03 -0.36718213715E+03  0.45146982598E+03  0.79146373056E+02 0.  0.
         13    1    3    3    0    0  0.40085149831E+02  0.48171390639E+02  0.52531918332E+01  0.62887980867E+02  0.00000000000E+00 0. -1.
        -13    1    3    3    0    0  0.59453198564E+03  0.27013228765E+03 -0.30796043103E+01  0.65303079463E+03  0.00000000000E+00 0.  1.
          4    1    6    6  502    0 -0.29754334571E+01 -0.11580558188E+02  0.10813377405E+01  0.12005491390E+02  0.00000000000E+00 0. -1.
          1    1    5    5  503    0 -0.54776921834E+03 -0.83145086738E+02  0.34184464747E+02  0.55509710830E+03  0.00000000000E+00 0. -1.
         -2    1    5    5    0  503 -0.13841254667E+03  0.99520417297E+01  0.39137571620E+02  0.14418330598E+03  0.00000000000E+00 0.  1.
         -3    1    6    6    0  502  0.54540063002E+02 -0.23353007509E+03 -0.36826347489E+03  0.43946433459E+03  0.00000000000E+00 0.  1.
<mgrwt>
<rscale>  0 0.18437386E+04</rscale>
<asrwt>0</asrwt>
<pdfrwt beam="1">  1        1 0.16602735E+00 0.18437386E+04</pdfrwt>
<pdfrwt beam="2">  1       -1 0.12115250E+00 0.18437386E+04</pdfrwt>
<totfact> 0.74749667E+00</totfact>
</mgrwt>
</event>
<event>
12    1  0.1598876E-007  0.2242588E+04  0.7818608E-02  0.8500908E-01
          2   -1    0    0  501    0  0.00000000000E+00  0.00000000000E+00  0.19781958922E+04  0.19781958922E+04  0.00000000000E+00 0. -1.
         -2   -1    0    0    0  501 -0.00000000000E+00 -0.00000000000E+00 -0.63557897406E+03  0.63557897406E+03  0.00000000000E+00 0.  1.
         23    2    1    2    0    0  0.32568385373E+02  0.93139726145E+03  0.41666852014E+03  0.10248019307E+04  0.89692714441E+02 0.  0.
        254    2    1    2    0    0 -0.32568385373E+02 -0.93139726145E+03  0.92594839797E+03  0.15889729356E+04  0.89380814269E+03 0.  0.
        -24    2    4    4    0    0 -0.39529769464E+03 -0.64978473270E+03  0.79790006870E+03  0.11052164188E+04  0.79864551033E+02 0.  0.
         24    2    4    4    0    0  0.36272930926E+03 -0.28161252875E+03  0.12804832927E+03  0.48375651678E+03  0.82132969935E+02 0.  0.
         11    1    3    3    0    0  0.40756180130E+02  0.78922353695E+03  0.31958672194E+03  0.85244972305E+03  0.00000000000E+00 0. -1.
        -11    1    3    3    0    0 -0.81877947574E+01  0.14217372451E+03  0.97081798201E+02  0.17235220760E+03  0.00000000000E+00 0.  1.
          4    1    6    6  502    0  0.23482049190E+00  0.46025590217E+01  0.17788812386E+01  0.49399502702E+01  0.00000000000E+00 0. -1.
          1    1    5    5  503    0 -0.30707950688E+02 -0.60666423180E+02  0.10705497343E+03  0.12682334356E+03  0.00000000000E+00 0. -1.
         -2    1    5    5    0  503 -0.36458974395E+03 -0.58911830952E+03  0.69084509528E+03  0.97839307524E+03  0.00000000000E+00 0.  1.
         -3    1    6    6    0  502  0.36249448877E+03 -0.28621508777E+03  0.12626944803E+03  0.47881656651E+03  0.00000000000E+00 0.  1.
<mgrwt>
<rscale>  0 0.22425875E+04</rscale>
<asrwt>0</asrwt>
<pdfrwt beam="1">  1        2 0.30433783E+00 0.22425875E+04</pdfrwt>
<pdfrwt beam="2">  1       -2 0.97781381E-01 0.22425875E+04</pdfrwt>
<totfact> 0.54502274E+00</totfact>
</mgrwt>
</event>
<event>
12    1  0.1598876E-007  0.2437789E+04  0.7818608E-02  0.8425490E-01
          1   -1    0    0  501    0  0.00000000000E+00  0.00000000000E+00  0.14326724275E+04  0.14326724275E+04  0.00000000000E+00 0. -1.
         -1   -1    0    0    0  501 -0.00000000000E+00 -0.00000000000E+00 -0.10370155691E+04  0.10370155691E+04  0.00000000000E+00 0.  1.
         23    2    1    2    0    0  0.10349617159E+03  0.71551903072E+03 -0.59984406341E+03  0.94377930192E+03  0.90705730070E+02 0.  0.
        254    2    1    2    0    0 -0.10349617159E+03 -0.71551903072E+03  0.99550092182E+03  0.15259086946E+04  0.90260529472E+03 0.  0.
        -24    2    4    4    0    0 -0.44667646056E+02 -0.91707123978E+03  0.87299876422E+03  0.12694454516E+04  0.79687231928E+02 0.  0.
         24    2    4    4    0    0 -0.58828525539E+02  0.20155220905E+03  0.12250215759E+03  0.25646324296E+03  0.81746730704E+02 0.  0.
         11    1    3    3    0    0  0.11461792261E+03  0.50694888268E+03 -0.42454844220E+03  0.67110045269E+03  0.00000000000E+00 0.  1.
        -11    1    3    3    0    0 -0.11121751014E+02  0.20857014805E+03 -0.17529562121E+03  0.27267884923E+03  0.00000000000E+00 0. -1.
          2    1    6    6  502    0 -0.19320117656E+02  0.14045158150E+03  0.41810404865E+02  0.14781076972E+03  0.00000000000E+00 0. -1.
          3    1    5    5  503    0 -0.53719912794E+02 -0.89294885246E+03  0.83624839326E+03  0.12245631292E+04  0.00000000000E+00 0. -1.
         -4    1    5    5    0  503  0.90522667374E+01 -0.24122387320E+02  0.36750370964E+02  0.44882322457E+02  0.00000000000E+00 0.  1.
         -1    1    6    6    0  502 -0.39508407883E+02  0.61100627559E+02  0.80691752729E+02  0.10865247323E+03  0.00000000000E+00 0.  1.
<mgrwt>
<rscale>  0 0.24377888E+04</rscale>
<asrwt>0</asrwt>
<pdfrwt beam="1">  1        1 0.22041114E+00 0.24377888E+04</pdfrwt>
<pdfrwt beam="2">  1       -1 0.15954086E+00 0.24377888E+04</pdfrwt>
<totfact> 0.19177867E+00</totfact>
</mgrwt>
</event>
<event>
12    1  0.1598876E-007  0.1323545E+04  0.7818608E-02  0.9011099E-01
          2   -1    0    0  501    0  0.00000000000E+00  0.00000000000E+00  0.22395792332E+04  0.22395792332E+04  0.00000000000E+00 0. -1.
         -2   -1    0    0    0  501 -0.00000000000E+00 -0.00000000000E+00 -0.19554705011E+03  0.19554705011E+03  0.00000000000E+00 0.  1.
         23    2    1    2    0    0 -0.82532117338E+02 -0.23106661633E+03  0.10293990246E+04  0.10622789172E+04  0.92578693474E+02 0.  0.
        254    2    1    2    0    0  0.82532117338E+02  0.23106661633E+03  0.10146331586E+04  0.13728473662E+04  0.89164236822E+03 0.  0.
        -24    2    4    4    0    0 -0.25379024075E+03  0.43190200646E+03  0.43323544262E+03  0.66729007937E+03  0.81451039319E+02 0.  0.
         24    2    4    4    0    0  0.33632235808E+03 -0.20083539013E+03  0.58139771594E+03  0.70555728681E+03  0.79625362771E+02 0.  0.
         13    1    3    3    0    0 -0.36326736279E+02 -0.20652499944E+03  0.84125087477E+03  0.86699206540E+03  0.00000000000E+00 0. -1.
        -13    1    3    3    0    0 -0.46205381059E+02 -0.24541616891E+02  0.18814814980E+03  0.19528685177E+03  0.00000000000E+00 0.  1.
          4    1    6    6  502    0  0.46162493516E+02 -0.44211398083E+02  0.14612214047E+03  0.15949076294E+03  0.00000000000E+00 0. -1.
          1    1    5    5  503    0 -0.45624235359E+02  0.60926123968E+02  0.10649071970E+03  0.13089628267E+03  0.00000000000E+00 0. -1.
         -2    1    5    5    0  503 -0.20816600539E+03  0.37097588249E+03  0.32674472292E+03  0.53639379671E+03  0.00000000000E+00 0.  1.
         -3    1    6    6    0  502  0.29015986457E+03 -0.15662399204E+03  0.43527557547E+03  0.54606652387E+03  0.00000000000E+00 0.  1.
<mgrwt>
<rscale>  0 0.13235454E+04</rscale>
<asrwt>0</asrwt>
<pdfrwt beam="1">  1        2 0.34455063E+00 0.13235454E+04</pdfrwt>
<pdfrwt beam="2">  1       -2 0.30084163E-01 0.13235454E+04</pdfrwt>
<totfact> 0.49075694E+01</totfact>
</mgrwt>
</event>
<event>
12    1  0.1598876E-007  0.1642615E+04  0.7818608E-02  0.8794787E-01
         -2   -1    0    0    0  501 -0.00000000000E+00  0.00000000000E+00  0.73074633619E+03  0.73074633619E+03  0.00000000000E+00 0.  1.
          2   -1    0    0  501    0  0.00000000000E+00 -0.00000000000E+00 -0.92309197718E+03  0.92309197718E+03  0.00000000000E+00 0. -1.
         23    2    1    2    0    0  0.20148693398E+03 -0.14138086659E+03  0.49912090533E+03  0.56411045410E+03  0.92268045868E+02 0.  0.
        254    2    1    2    0    0 -0.20148693398E+03  0.14138086659E+03 -0.69146654632E+03  0.10897278593E+04  0.80547829801E+03 0.  0.
        -24    2    4    4    0    0  0.23639065269E+03  0.22655055411E+03 -0.11312684440E+03  0.35560290248E+03  0.80312185140E+02 0.  0.
         24    2    4    4    0    0 -0.43787758667E+03 -0.85169687521E+02 -0.57833970192E+03  0.73412495678E+03  0.73972865089E+02 0.  0.
         11    1    3    3    0    0  0.81932228801E+02 -0.10025001075E+03  0.18788620142E+03  0.22817576439E+03  0.00000000000E+00 0. -1.
        -11    1    3    3    0    0  0.11955470518E+03 -0.41130855837E+02  0.31123470391E+03  0.33593468971E+03  0.00000000000E+00 0.  1.
          4    1    6    6  502    0 -0.52031855651E+02 -0.29910109523E+02 -0.10510586304E+03  0.12103376016E+03  0.00000000000E+00 0. -1.
          1    1    5    5  503    0  0.79867924177E+01  0.44016806047E+02 -0.16020854015E+02  0.47517742277E+02  0.00000000000E+00 0. -1.
         -2    1    5    5    0  503  0.22840386027E+03  0.18253374806E+03 -0.97105990389E+02  0.30808516021E+03  0.00000000000E+00 0.  1.
         -1    1    6    6    0  502 -0.38584573102E+03 -0.55259577999E+02 -0.47323383888E+03  0.61309119661E+03  0.00000000000E+00 0.  1.
<mgrwt>
<rscale>  0 0.16426151E+04</rscale>
<asrwt>0</asrwt>
<pdfrwt beam="1">  1        2 0.14201415E+00 0.16426151E+04</pdfrwt>
<pdfrwt beam="2">  1       -2 0.11242251E+00 0.16426151E+04</pdfrwt>
<totfact> 0.16851853E+01</totfact>
</mgrwt>
</event>
<event>
12    1  0.1598876E-007  0.1596867E+04  0.7818608E-02  0.8822475E-01
         -2   -1    0    0    0  501 -0.00000000000E+00  0.00000000000E+00  0.18054013070E+03  0.18054013070E+03  0.00000000000E+00 0.  1.
          2   -1    0    0  501    0  0.00000000000E+00 -0.00000000000E+00 -0.35310492985E+04  0.35310492985E+04  0.00000000000E+00 0. -1.
         23    2    1    2    0    0 -0.29814019164E+03 -0.20830805599E+03 -0.22759722683E+03  0.43855999507E+03  0.90854562617E+02 0.  0.
        254    2    1    2    0    0  0.29814019164E+03  0.20830805599E+03 -0.31229119410E+04  0.32730294342E+04  0.90986969701E+03 0.  0.
        -24    2    4    4    0    0 -0.26234942080E+03  0.26065387840E+03 -0.86091690176E+03  0.94034197523E+03  0.79356510284E+02 0.  0.
         24    2    4    4    0    0  0.56048961245E+03 -0.52345822408E+02 -0.22619950393E+04  0.23326874589E+04  0.88997374638E+02 0.  0.
         11    1    3    3    0    0 -0.97326455977E+01 -0.18379744901E+02 -0.41165424655E+02  0.46120836940E+02  0.00000000000E+00 0. -1.
        -11    1    3    3    0    0 -0.28840754605E+03 -0.18992831109E+03 -0.18643180218E+03  0.39243915813E+03  0.00000000000E+00 0.  1.
          4    1    6    6  502    0  0.10495218758E+03 -0.68500007331E+01 -0.29716578034E+03  0.31522909954E+03  0.00000000000E+00 0. -1.
          1    1    5    5  503    0 -0.54398463703E+02  0.19511135952E+02 -0.17063847145E+03  0.18015927736E+03  0.00000000000E+00 0. -1.
         -2    1    5    5    0  503 -0.20795095710E+03  0.24114274245E+03 -0.69027843031E+03  0.76018269787E+03  0.00000000000E+00 0.  1.
         -3    1    6    6    0  502  0.45553742486E+03 -0.45495821675E+02 -0.19648292589E+04  0.20174583594E+04  0.00000000000E+00 0.  1.
<mgrwt>
<rscale>  0 0.15968671E+04</rscale>
<asrwt>0</asrwt>
<pdfrwt beam="1">  1        2 0.54323828E+00 0.15968671E+04</pdfrwt>
<pdfrwt beam="2">  1       -2 0.27775408E-01 0.15968671E+04</pdfrwt>
<totfact> 0.88830359E+00</totfact>
</mgrwt>
</event>
<event>
12    1  0.1598876E-007  0.1829598E+04  0.7818608E-02  0.8690716E-01
         -2   -1    0    0    0  501 -0.00000000000E+00  0.00000000000E+00  0.94571999387E+03  0.94571999387E+03  0.00000000000E+00 0.  1.
          2   -1    0    0  501    0  0.00000000000E+00 -0.00000000000E+00 -0.88488871398E+03  0.88488871398E+03  0.00000000000E+00 0. -1.
         23    2    1    2    0    0 -0.60244558822E+02  0.68184071693E+03  0.89423013171E+02  0.69634526409E+03  0.91455351971E+02 0.  0.
        254    2    1    2    0    0  0.60244558822E+02 -0.68184071693E+03 -0.28591733281E+02  0.11342634438E+04  0.90399109647E+03 0.  0.
        -24    2    4    4    0    0  0.29974325626E+03  0.38222857972E+02  0.15617891493E+03  0.34932965958E+03  0.79576070810E+02 0.  0.
         24    2    4    4    0    0 -0.23949869744E+03 -0.72006357491E+03 -0.18477064821E+03  0.78493378419E+03  0.78292241864E+02 0.  0.
         11    1    3    3    0    0 -0.69477162173E+02  0.52823039359E+03  0.10004447035E+03  0.54209161663E+03  0.00000000000E+00 0.  1.
        -11    1    3    3    0    0  0.92326033513E+01  0.15361032335E+03 -0.10621457177E+02  0.15425364746E+03  0.00000000000E+00 0. -1.
          2    1    6    6  502    0 -0.21166621044E+03 -0.61187179278E+03 -0.12941167131E+03  0.66025529616E+03  0.00000000000E+00 0. -1.
          1    1    5    5  503    0  0.15841461490E+03  0.59796508262E+02  0.78723181240E+02  0.18673015793E+03  0.00000000000E+00 0. -1.
         -4    1    5    5    0  503  0.14132864136E+03 -0.21573650290E+02  0.77455733685E+02  0.16259950165E+03  0.00000000000E+00 0.  1.
         -3    1    6    6    0  502 -0.27832487005E+02 -0.10819178212E+03 -0.55358976900E+02  0.12467848802E+03  0.00000000000E+00 0.  1.
<mgrwt>
<rscale>  0 0.18295977E+04</rscale>
<asrwt>0</asrwt>
<pdfrwt beam="1">  1        2 0.13613673E+00 0.18295977E+04</pdfrwt>
<pdfrwt beam="2">  1       -2 0.14549538E+00 0.18295977E+04</pdfrwt>
<totfact> 0.91813292E+00</totfact>
</mgrwt>
</event>
<event>
12    1  0.1598876E-007  0.2147391E+04  0.7818608E-02  0.8540650E-01
          1   -1    0    0  501    0  0.00000000000E+00  0.00000000000E+00  0.10237617248E+04  0.10237617248E+04  0.00000000000E+00 0. -1.
         -1   -1    0    0    0  501 -0.00000000000E+00 -0.00000000000E+00 -0.11260652693E+04  0.11260652693E+04  0.00000000000E+00 0.  1.
         23    2    1    2    0    0 -0.49900675336E+03 -0.61552838922E+03  0.34739132414E+03  0.87020734316E+03  0.93258512514E+02 0.  0.
        254    2    1    2    0    0  0.49900675336E+03  0.61552838922E+03 -0.44969486868E+03  0.12796196510E+04  0.89850878596E+03 0.  0.
        -24    2    4    4    0    0  0.69936266663E+02 -0.16378319936E+03  0.11041496492E+03  0.22533494321E+03  0.82875535367E+02 0.  0.
         24    2    4    4    0    0  0.42907048670E+03  0.77931158859E+03 -0.56010983360E+03  0.10542847078E+04  0.79782107733E+02 0.  0.
         11    1    3    3    0    0 -0.13309180268E+03 -0.11295923930E+03  0.53555762099E+02  0.18259637821E+03  0.00000000000E+00 0.  1.
        -11    1    3    3    0    0 -0.36591495069E+03 -0.50256914993E+03  0.29383556204E+03  0.68761096494E+03  0.00000000000E+00 0. -1.
          4    1    6    6  502    0  0.29291052715E+03  0.48527182687E+03 -0.39265246997E+03  0.68953700774E+03  0.00000000000E+00 0. -1.
          3    1    5    5  503    0  0.89137478576E+02 -0.13454929132E+03  0.92791315113E+02  0.18616989564E+03  0.00000000000E+00 0. -1.
         -2    1    5    5    0  503 -0.19201211912E+02 -0.29233908041E+02  0.17623649809E+02  0.39165047566E+02  0.00000000000E+00 0.  1.
         -3    1    6    6    0  502  0.13615995955E+03  0.29403976172E+03 -0.16745736363E+03  0.36474770005E+03  0.00000000000E+00 0.  1.
<mgrwt>
<rscale>  0 0.21473915E+04</rscale>
<asrwt>0</asrwt>
<pdfrwt beam="1">  1        1 0.15750180E+00 0.21473915E+04</pdfrwt>
<pdfrwt beam="2">  1       -1 0.17324081E+00 0.21473915E+04</pdfrwt>
<totfact> 0.30939982E+00</totfact>
</mgrwt>
</event>
<event>
12    1  0.1598876E-007  0.1413408E+04  0.7818608E-02  0.8944170E-01
         -2   -1    0    0    0  501 -0.00000000000E+00  0.00000000000E+00  0.34209556124E+03  0.34209556124E+03  0.00000000000E+00 0.  1.
          2   -1    0    0  501    0  0.00000000000E+00 -0.00000000000E+00 -0.14599149129E+04  0.14599149129E+04  0.00000000000E+00 0. -1.
         23    2    1    2    0    0 -0.36085692409E+03  0.20186651017E+03 -0.38785569337E+03  0.57512131693E+03  0.96771290799E+02 0.  0.
        254    2    1    2    0    0  0.36085692409E+03 -0.20186651017E+03 -0.72996365831E+03  0.12268891572E+04  0.89523307249E+03 0.  0.
        -24    2    4    4    0    0  0.83143059048E+02 -0.50537753720E+03 -0.21059015740E+03  0.55951831794E+03  0.79958178778E+02 0.  0.
         24    2    4    4    0    0  0.27771386504E+03  0.30351102703E+03 -0.51937350092E+03  0.66737083928E+03  0.79944163674E+02 0.  0.
         11    1    3    3    0    0 -0.10007177867E+03  0.86267574290E+02 -0.75759627347E+02  0.15230225341E+03  0.00000000000E+00 0.  1.
        -11    1    3    3    0    0 -0.26078514542E+03  0.11559893588E+03 -0.31209606602E+03  0.42281906352E+03  0.00000000000E+00 0. -1.
          4    1    6    6  502    0  0.24808038236E+03  0.25421762988E+03 -0.48213605578E+03  0.59885361795E+03  0.00000000000E+00 0. -1.
          3    1    5    5  503    0  0.34293475513E+02 -0.37069259447E+03 -0.12537142070E+03  0.39281934166E+03  0.00000000000E+00 0. -1.
         -4    1    5    5    0  503  0.48849583535E+02 -0.13468494273E+03 -0.85218736697E+02  0.16669897628E+03  0.00000000000E+00 0.  1.
         -3    1    6    6    0  502  0.29633482684E+02  0.49293397150E+02 -0.37237445141E+02  0.68517221333E+02  0.00000000000E+00 0.  1.
<mgrwt>
<rscale>  0 0.14134078E+04</rscale>
<asrwt>0</asrwt>
<pdfrwt beam="1">  1        2 0.22460230E+00 0.14134078E+04</pdfrwt>
<pdfrwt beam="2">  1       -2 0.52630086E-01 0.14134078E+04</pdfrwt>
<totfact> 0.44290743E+01</totfact>
</mgrwt>
</event>
<event>
12    1  0.1598876E-007  0.2100121E+04  0.7818608E-02  0.8561190E-01
          1   -1    0    0  501    0  0.00000000000E+00  0.00000000000E+00  0.23444811523E+04  0.23444811523E+04  0.00000000000E+00 0. -1.
         -1   -1    0    0    0  501 -0.00000000000E+00 -0.00000000000E+00 -0.47030746861E+03  0.47030746861E+03  0.00000000000E+00 0.  1.
         23    2    1    2    0    0  0.40769053362E+03 -0.26338131543E+03 -0.17604647520E+03  0.52432658715E+03  0.91349439187E+02 0.  0.
        254    2    1    2    0    0 -0.40769053362E+03  0.26338131543E+03  0.20502201589E+04  0.22904620338E+04  0.89846109524E+03 0.  0.
        -24    2    4    4    0    0 -0.24054320035E+03  0.57719558082E+03  0.15368040901E+04  0.16610304059E+04  0.78990051093E+02 0.  0.
         24    2    4    4    0    0 -0.16714733327E+03 -0.31381426539E+03  0.51341606883E+03  0.62943162791E+03  0.78552468459E+02 0.  0.
         13    1    3    3    0    0  0.38443478198E+03 -0.26348847999E+03 -0.18196803499E+03  0.50032853850E+03  0.00000000000E+00 0.  1.
        -13    1    3    3    0    0  0.23255751642E+02  0.10716455413E+00  0.59215597884E+01  0.23998048650E+02  0.00000000000E+00 0. -1.
          2    1    6    6  502    0 -0.95850448885E+02 -0.11625925466E+03  0.17278480975E+03  0.22925556335E+03  0.00000000000E+00 0. -1.
          3    1    5    5  503    0 -0.22478039754E+03  0.47488890169E+03  0.12410025893E+04  0.13476398342E+04  0.00000000000E+00 0. -1.
         -4    1    5    5    0  503 -0.15762802813E+02  0.10230667914E+03  0.29580150080E+03  0.31339057169E+03  0.00000000000E+00 0.  1.
         -1    1    6    6    0  502 -0.71296884389E+02 -0.19755501073E+03  0.34063125908E+03  0.40017606457E+03  0.00000000000E+00 0.  1.
<mgrwt>
<rscale>  0 0.21001209E+04</rscale>
<asrwt>0</asrwt>
<pdfrwt beam="1">  1        1 0.36068940E+00 0.21001209E+04</pdfrwt>
<pdfrwt beam="2">  1       -1 0.72354997E-01 0.21001209E+04</pdfrwt>
<totfact> 0.30744466E+00</totfact>
</mgrwt>
</event>
<event>
12    1  0.1598876E-007  0.1380627E+04  0.7818608E-02  0.8967962E-01
          2   -1    0    0  501    0  0.00000000000E+00  0.00000000000E+00  0.17712690538E+04  0.17712690538E+04  0.00000000000E+00 0.  1.
         -2   -1    0    0    0  501 -0.00000000000E+00 -0.00000000000E+00 -0.26903478599E+03  0.26903478599E+03  0.00000000000E+00 0. -1.
         23    2    1    2    0    0  0.35959233019E+02  0.35351540851E+03  0.19046370886E+03  0.41354587074E+03  0.92073624450E+02 0.  0.
        254    2    1    2    0    0 -0.35959233019E+02 -0.35351540851E+03  0.13117705589E+04  0.16267579690E+04  0.89405440552E+03 0.  0.
        -24    2    4    4    0    0  0.41474542971E+03 -0.83246766356E+02  0.56719680158E+03  0.71210140343E+03  0.80202253511E+02 0.  0.
         24    2    4    4    0    0 -0.45070466273E+03 -0.27026864215E+03  0.74457375733E+03  0.91465656559E+03  0.77631958141E+02 0.  0.
         11    1    3    3    0    0 -0.84307545894E+00  0.21746776330E+03  0.70930789373E+02  0.22874465181E+03  0.00000000000E+00 0. -1.
        -11    1    3    3    0    0  0.36802308478E+02  0.13604764521E+03  0.11953291949E+03  0.18480121893E+03  0.00000000000E+00 0.  1.
          4    1    6    6  502    0 -0.39910314007E+03 -0.26470403669E+03  0.68215982939E+03  0.83348279903E+03  0.00000000000E+00 0. -1.
          3    1    5    5  503    0  0.41755704058E+03 -0.79362596946E+02  0.55543677635E+03  0.69940139866E+03  0.00000000000E+00 0. -1.
         -4    1    5    5    0  503 -0.28116108652E+01 -0.38841694095E+01  0.11760025231E+02  0.12700004768E+02  0.00000000000E+00 0.  1.
         -1    1    6    6    0  502 -0.51601522663E+02 -0.55646054602E+01  0.62413927942E+02  0.81173766552E+02  0.00000000000E+00 0.  1.
<mgrwt>
<rscale>  0 0.13806274E+04</rscale>
<asrwt>0</asrwt>
<pdfrwt beam="1">  1        2 0.27250292E+00 0.13806274E+04</pdfrwt>
<pdfrwt beam="2">  1       -2 0.41389968E-01 0.13806274E+04</pdfrwt>
<totfact> 0.48247959E+01</totfact>
</mgrwt>
</event>
<event>
12    1  0.1598876E-007  0.2684411E+04  0.7818608E-02  0.8340081E-01
          1   -1    0    0  501    0  0.00000000000E+00  0.00000000000E+00  0.14311942285E+04  0.14311942285E+04  0.00000000000E+00 0. -1.
         -1   -1    0    0    0  501 -0.00000000000E+00 -0.00000000000E+00 -0.12587495798E+04  0.12587495798E+04  0.00000000000E+00 0.  1.
         23    2    1    2    0    0 -0.84384316090E+03 -0.78770203362E+03  0.36161299523E+03  0.12131052479E+04  0.91184484696E+02 0.  0.
        254    2    1    2    0    0  0.84384316090E+03  0.78770203362E+03 -0.18916834656E+03  0.14768385604E+04  0.90151078546E+03 0.  0.
        -24    2    4    4    0    0  0.90750172534E+03  0.85899906426E+03 -0.20277074899E+01  0.12520612224E+04  0.78831587129E+02 0.  0.
         24    2    4    4    0    0 -0.63658564440E+02 -0.71297030645E+02 -0.18714063907E+03  0.22477733804E+03  0.79796951715E+02 0.  0.
         11    1    3    3    0    0 -0.71953175518E+03 -0.71057077731E+03  0.30516376317E+03  0.10562962173E+04  0.00000000000E+00 0. -1.
        -11    1    3    3    0    0 -0.12431140571E+03 -0.77131256305E+02  0.56449232055E+02  0.15680903064E+03  0.00000000000E+00 0.  1.
          4    1    6    6  502    0 -0.47626163903E+02 -0.83648787243E+02 -0.17844216441E+03  0.20274855643E+03  0.00000000000E+00 0. -1.
          1    1    5    5  503    0  0.85283401607E+03  0.78889747965E+03 -0.17152604150E+02  0.11618860978E+04  0.00000000000E+00 0. -1.
         -2    1    5    5    0  503  0.54667709264E+02  0.70101584607E+02  0.15124896660E+02  0.90175124616E+02  0.00000000000E+00 0.  1.
         -3    1    6    6    0  502 -0.16032400537E+02  0.12351756597E+02 -0.86984746536E+01  0.22028781612E+02  0.00000000000E+00 0.  1.
<mgrwt>
<rscale>  0 0.26844106E+04</rscale>
<asrwt>0</asrwt>
<pdfrwt beam="1">  1        1 0.22018373E+00 0.26844106E+04</pdfrwt>
<pdfrwt beam="2">  1       -1 0.19365378E+00 0.26844106E+04</pdfrwt>
<totfact> 0.10640496E+00</totfact>
</mgrwt>
</event>
<event>
12    1  0.1598876E-007  0.1291871E+04  0.7818608E-02  0.9036036E-01
         -2   -1    0    0    0  501 -0.00000000000E+00  0.00000000000E+00  0.36200796371E+03  0.36200796371E+03  0.00000000000E+00 0.  1.
          2   -1    0    0  501    0  0.00000000000E+00 -0.00000000000E+00 -0.11525518677E+04  0.11525518677E+04  0.00000000000E+00 0. -1.
         23    2    1    2    0    0 -0.66024653947E+02 -0.10304802692E+03  0.14498084937E+03  0.21173254976E+03  0.93984441089E+02 0.  0.
        254    2    1    2    0    0  0.66024653947E+02  0.10304802692E+03 -0.93552475337E+03  0.13028272817E+04  0.89842874557E+03 0.  0.
        -24    2    4    4    0    0 -0.37546408961E+03 -0.12415404848E+03 -0.44041006517E+03  0.59682417191E+03  0.76488929510E+02 0.  0.
         24    2    4    4    0    0  0.44148874355E+03  0.22720207540E+03 -0.49511468820E+03  0.70600310974E+03  0.82272369226E+02 0.  0.
         11    1    3    3    0    0 -0.23101059592E+02 -0.17143424705E+02  0.10297172514E+03  0.10691460211E+03  0.00000000000E+00 0. -1.
        -11    1    3    3    0    0 -0.42923594354E+02 -0.85904602210E+02  0.42009124224E+02  0.10481794766E+03  0.00000000000E+00 0.  1.
          2    1    6    6  502    0  0.21999697297E+03  0.11434753676E+03 -0.18955645579E+03  0.31209882604E+03  0.00000000000E+00 0. -1.
          1    1    5    5  503    0 -0.37781019054E+03 -0.12582638660E+03 -0.43018649615E+03  0.58620238921E+03  0.00000000000E+00 0. -1.
         -2    1    5    5    0  503  0.23461009342E+01  0.16723381189E+01 -0.10223569015E+02  0.10621782702E+02  0.00000000000E+00 0.  1.
         -1    1    6    6    0  502  0.22149177058E+03  0.11285453863E+03 -0.30555823241E+03  0.39390428370E+03  0.00000000000E+00 0.  1.
<mgrwt>
<rscale>  0 0.12918714E+04</rscale>
<asrwt>0</asrwt>
<pdfrwt beam="1">  1        2 0.17731567E+00 0.12918714E+04</pdfrwt>
<pdfrwt beam="2">  1       -2 0.55693534E-01 0.12918714E+04</pdfrwt>
<totfact> 0.60087600E+01</totfact>
</mgrwt>
</event>
<event>
12    1  0.1598876E-007  0.1508985E+04  0.7818608E-02  0.8878500E-01
         -2   -1    0    0    0  501 -0.00000000000E+00  0.00000000000E+00  0.27638437791E+03  0.27638437791E+03  0.00000000000E+00 0.  1.
          2   -1    0    0  501    0  0.00000000000E+00 -0.00000000000E+00 -0.20596637457E+04  0.20596637457E+04  0.00000000000E+00 0. -1.
         23    2    1    2    0    0 -0.92817374928E+02  0.43559400079E+03 -0.83631382264E+03  0.95181417571E+03  0.90400312648E+02 0.  0.
        254    2    1    2    0    0  0.92817374928E+02 -0.43559400079E+03 -0.94696554515E+03  0.13842339479E+04  0.90609198221E+03 0.  0.
        -24    2    4    4    0    0 -0.25578503617E+03  0.13132808856E+03 -0.12781478104E+03  0.32573116857E+03  0.84208813990E+02 0.  0.
         24    2    4    4    0    0  0.34860241109E+03 -0.56692208935E+03 -0.81915076410E+03  0.10585027793E+04  0.80596917534E+02 0.  0.
         11    1    3    3    0    0 -0.82480926329E+02  0.20816971461E+03 -0.46823814398E+03  0.51902282490E+03  0.00000000000E+00 0.  1.
        -11    1    3    3    0    0 -0.10336448599E+02  0.22742428617E+03 -0.36807567867E+03  0.43279135081E+03  0.00000000000E+00 0. -1.
          4    1    6    6  502    0  0.86327957323E+02 -0.15686710167E+03 -0.27772301736E+03  0.33043891746E+03  0.00000000000E+00 0. -1.
          1    1    5    5  503    0 -0.86668418675E+02  0.63353021384E+02 -0.88833815527E+02  0.13934298294E+03  0.00000000000E+00 0. -1.
         -2    1    5    5    0  503 -0.16911661749E+03  0.67975067180E+02 -0.38980965516E+02  0.18638818563E+03  0.00000000000E+00 0.  1.
         -3    1    6    6    0  502  0.26227445377E+03 -0.41005498768E+03 -0.54142774674E+03  0.72806386187E+03  0.00000000000E+00 0.  1.
<mgrwt>
<rscale>  0 0.15089849E+04</rscale>
<asrwt>0</asrwt>
<pdfrwt beam="1">  1        2 0.31687135E+00 0.15089849E+04</pdfrwt>
<pdfrwt beam="2">  1       -2 0.42520673E-01 0.15089849E+04</pdfrwt>
<totfact> 0.31346503E+01</totfact>
</mgrwt>
</event>
<event>
12    1  0.1598876E-007  0.1450059E+04  0.7818608E-02  0.8918360E-01
         -1   -1    0    0    0  501 -0.00000000000E+00  0.00000000000E+00  0.10014042557E+04  0.10014042557E+04  0.00000000000E+00 0.  1.
          1   -1    0    0  501    0  0.00000000000E+00 -0.00000000000E+00 -0.52493033066E+03  0.52493033066E+03  0.00000000000E+00 0. -1.
         23    2    1    2    0    0  0.30652320543E+03  0.26168238831E+03 -0.18493748296E+02  0.41395316168E+03  0.92633976057E+02 0.  0.
        254    2    1    2    0    0 -0.30652320543E+03 -0.26168238831E+03  0.49496767336E+03  0.11123814247E+04  0.91102430733E+03 0.  0.
        -24    2    4    4    0    0 -0.47867831026E+03 -0.48830259631E+03  0.42170077369E+03  0.80719129180E+03  0.78446725569E+02 0.  0.
         24    2    4    4    0    0  0.17215510483E+03  0.22662020800E+03  0.73266899677E+02  0.30519013291E+03  0.82333953182E+02 0.  0.
         13    1    3    3    0    0  0.12293181973E+03  0.60200818466E+02 -0.33630858941E+02  0.14095178438E+03  0.00000000000E+00 0.  1.
        -13    1    3    3    0    0  0.18359138570E+03  0.20148156985E+03  0.15137110645E+02  0.27300137730E+03  0.00000000000E+00 0. -1.
          4    1    6    6  502    0  0.92348169841E+02  0.10314261441E+03  0.76416496944E+02  0.15813305912E+03  0.00000000000E+00 0. -1.
          1    1    5    5  503    0 -0.86131170617E+02 -0.72016568048E+02  0.39118811817E+02  0.11889174094E+03  0.00000000000E+00 0. -1.
         -4    1    5    5    0  503 -0.39254713964E+03 -0.41628602826E+03  0.38258196187E+03  0.68829955086E+03  0.00000000000E+00 0.  1.
         -3    1    6    6    0  502  0.79806934987E+02  0.12347759358E+03 -0.31495972673E+01  0.14705707379E+03  0.00000000000E+00 0.  1.
<mgrwt>
<rscale>  0 0.14500586E+04</rscale>
<asrwt>0</asrwt>
<pdfrwt beam="1">  1        1 0.80758512E-01 0.14500586E+04</pdfrwt>
<pdfrwt beam="2">  1       -1 0.15406219E+00 0.14500586E+04</pdfrwt>
<totfact> 0.13053947E+01</totfact>
</mgrwt>
</event>
<event>
12    1  0.1598876E-007  0.2560046E+04  0.7818608E-02  0.8381901E-01
         -2   -1    0    0    0  501 -0.00000000000E+00  0.00000000000E+00  0.12641195379E+04  0.12641195379E+04  0.00000000000E+00 0.  1.
          2   -1    0    0  501    0  0.00000000000E+00 -0.00000000000E+00 -0.12961267648E+04  0.12961267648E+04  0.00000000000E+00 0. -1.
         23    2    1    2    0    0  0.54657984765E+03 -0.79568177485E+03  0.55351327537E+03  0.11162649998E+04  0.88383183240E+02 0.  0.
        254    2    1    2    0    0 -0.54657984765E+03  0.79568177485E+03 -0.58552050236E+03  0.14439813029E+04  0.90021593396E+03 0.  0.
        -24    2    4    4    0    0  0.77027537749E+01  0.18665714880E+03  0.21298243614E+03  0.29412222454E+03  0.79032532873E+02 0.  0.
         24    2    4    4    0    0 -0.55428260142E+03  0.60902462604E+03 -0.79850293850E+03  0.11498590784E+04  0.80179547986E+02 0.  0.
         11    1    3    3    0    0  0.52281354480E+02 -0.67291005408E+02  0.22142806384E+02  0.88043871505E+02  0.00000000000E+00 0. -1.
        -11    1    3    3    0    0  0.49429849317E+03 -0.72839076944E+03  0.53137046899E+03  0.10282211283E+04  0.00000000000E+00 0.  1.
          4    1    6    6  502    0 -0.53737833070E+03  0.57063553887E+03 -0.77239305287E+03  0.11004505517E+04  0.00000000000E+00 0. -1.
          3    1    5    5  503    0  0.25312182443E+02  0.12030839792E+03  0.17996169359E+03  0.21794730637E+03  0.00000000000E+00 0. -1.
         -4    1    5    5    0  503 -0.17609428668E+02  0.66348750880E+02  0.33020742545E+02  0.76174918179E+02  0.00000000000E+00 0.  1.
         -3    1    6    6    0  502 -0.16904270724E+02  0.38389087171E+02 -0.26109885633E+02  0.49408526696E+02  0.00000000000E+00 0.  1.
<mgrwt>
<rscale>  0 0.25600462E+04</rscale>
<asrwt>0</asrwt>
<pdfrwt beam="1">  1        2 0.19940412E+00 0.25600462E+04</pdfrwt>
<pdfrwt beam="2">  1       -2 0.19447993E+00 0.25600462E+04</pdfrwt>
<totfact> 0.21336239E+00</totfact>
</mgrwt>
</event>
<event>
12    1  0.1598876E-007  0.1684111E+04  0.7818608E-02  0.8770479E-01
          2   -1    0    0  501    0  0.00000000000E+00  0.00000000000E+00  0.18582962913E+04  0.18582962913E+04  0.00000000000E+00 0. -1.
         -2   -1    0    0    0  501 -0.00000000000E+00 -0.00000000000E+00 -0.38156328978E+03  0.38156328978E+03  0.00000000000E+00 0.  1.
         23    2    1    2    0    0 -0.48303805994E+02  0.48704542707E+03  0.98278766517E+03  0.11021169294E+04  0.96143775730E+02 0.  0.
        254    2    1    2    0    0  0.48303805994E+02 -0.48704542707E+03  0.49394533638E+03  0.11377426517E+04  0.90051642984E+03 0.  0.
        -24    2    4    4    0    0  0.36901394485E+03 -0.27366065324E+03 -0.46297777297E+02  0.46823755633E+03  0.77726960262E+02 0.  0.
         24    2    4    4    0    0 -0.32071013885E+03 -0.21338477383E+03  0.54024311368E+03  0.66950509535E+03  0.89366637836E+02 0.  0.
         11    1    3    3    0    0 -0.22000030954E+02  0.78254653375E+02  0.24638455684E+03  0.25944776350E+03  0.00000000000E+00 0. -1.
        -11    1    3    3    0    0 -0.26303775040E+02  0.40879077370E+03  0.73640310833E+03  0.84266916592E+03  0.00000000000E+00 0.  1.
          2    1    6    6  502    0 -0.10899395492E+03 -0.87218721808E+02  0.12904361826E+03  0.19010271712E+03  0.00000000000E+00 0. -1.
          1    1    5    5  503    0  0.15225930816E+03 -0.12123476499E+03 -0.57719283363E+02  0.20300808071E+03  0.00000000000E+00 0. -1.
         -2    1    5    5    0  503  0.21675463669E+03 -0.15242588825E+03  0.11421506066E+02  0.26522947562E+03  0.00000000000E+00 0.  1.
         -1    1    6    6    0  502 -0.21171618394E+03 -0.12616605202E+03  0.41119949541E+03  0.47940237823E+03  0.00000000000E+00 0.  1.
<mgrwt>
<rscale>  0 0.16841112E+04</rscale>
<asrwt>0</asrwt>
<pdfrwt beam="1">  1        2 0.28589173E+00 0.16841112E+04</pdfrwt>
<pdfrwt beam="2">  1       -2 0.58702046E-01 0.16841112E+04</pdfrwt>
<totfact> 0.20696417E+01</totfact>
</mgrwt>
</event>
<event>
12    1  0.1598876E-007  0.1619686E+04  0.7818608E-02  0.8808545E-01
          2   -1    0    0  501    0  0.00000000000E+00  0.00000000000E+00  0.17210809375E+04  0.17210809375E+04  0.00000000000E+00 0. -1.
         -2   -1    0    0    0  501 -0.00000000000E+00 -0.00000000000E+00 -0.38106613950E+03  0.38106613950E+03  0.00000000000E+00 0.  1.
         23    2    1    2    0    0  0.14330030281E+03 -0.58350929611E+02  0.11581950898E+04  0.11719780293E+04  0.90425810589E+02 0.  0.
        254    2    1    2    0    0 -0.14330030281E+03  0.58350929611E+02  0.18181970819E+03  0.93016904775E+03  0.89900847790E+03 0.  0.
        -24    2    4    4    0    0 -0.51608872689E+03 -0.19296091250E+02  0.86426479671E+02  0.52954507393E+03  0.78921073082E+02 0.  0.
         24    2    4    4    0    0  0.37278842408E+03  0.77647020861E+02  0.95393228521E+02  0.40062397382E+03  0.79996446041E+02 0.  0.
         13    1    3    3    0    0  0.75947866164E+02 -0.76252888823E+02  0.61724363816E+03  0.62655589557E+03  0.00000000000E+00 0. -1.
        -13    1    3    3    0    0  0.67352436644E+02  0.17901959212E+02  0.54095145166E+03  0.54542213369E+03  0.00000000000E+00 0.  1.
          4    1    6    6  502    0  0.24418526878E+03  0.18553445016E+02  0.82913119643E+02  0.25854450529E+03  0.00000000000E+00 0. -1.
          1    1    5    5  503    0 -0.48845765716E+03 -0.21560093420E+01  0.90500032344E+02  0.49677538895E+03  0.00000000000E+00 0. -1.
         -2    1    5    5    0  503 -0.27631069727E+02 -0.17140081908E+02 -0.40735526727E+01  0.32769684976E+02  0.00000000000E+00 0.  1.
         -3    1    6    6    0  502  0.12860315530E+03  0.59093575845E+02  0.12480108878E+02  0.14207946853E+03  0.00000000000E+00 0.  1.
<mgrwt>
<rscale>  0 0.16196860E+04</rscale>
<asrwt>0</asrwt>
<pdfrwt beam="1">  1        2 0.26478168E+00 0.16196860E+04</pdfrwt>
<pdfrwt beam="2">  1       -2 0.58625561E-01 0.16196860E+04</pdfrwt>
<totfact> 0.24856199E+01</totfact>
</mgrwt>
</event>
<event>
12    1  0.1598876E-007  0.2871577E+04  0.7818608E-02  0.8281385E-01
         -2   -1    0    0    0  501 -0.00000000000E+00  0.00000000000E+00  0.16473614022E+04  0.16473614022E+04  0.00000000000E+00 0.  1.
          2   -1    0    0  501    0  0.00000000000E+00 -0.00000000000E+00 -0.12513883138E+04  0.12513883138E+04  0.00000000000E+00 0. -1.
         23    2    1    2    0    0 -0.49821519196E+03  0.58541509925E+03  0.12273405677E+04  0.14510366671E+04  0.90627391563E+02 0.  0.
        254    2    1    2    0    0  0.49821519196E+03 -0.58541509925E+03 -0.83136747925E+03  0.14477130490E+04  0.90209310533E+03 0.  0.
        -24    2    4    4    0    0  0.40393308136E+03  0.13258094782E+03 -0.17429810307E+03  0.46651929867E+03  0.80751379939E+02 0.  0.
         24    2    4    4    0    0  0.94282110605E+02 -0.71799604707E+03 -0.65706937618E+03  0.98119375030E+03  0.81200803718E+02 0.  0.
         11    1    3    3    0    0 -0.88569515183E+02  0.65673200236E+02  0.14089464802E+03  0.17891011735E+03  0.00000000000E+00 0. -1.
        -11    1    3    3    0    0 -0.40964567678E+03  0.51974189902E+03  0.10864459197E+04  0.12721265497E+04  0.00000000000E+00 0.  1.
          2    1    6    6  502    0  0.66786726929E+02 -0.51796946448E+03 -0.42299156873E+03  0.67206748192E+03  0.00000000000E+00 0. -1.
          1    1    5    5  503    0  0.29810212389E+01 -0.50101402772E+01  0.35432501087E+01  0.68222147838E+01  0.00000000000E+00 0. -1.
         -2    1    5    5    0  503  0.40095206012E+03  0.13759108810E+03 -0.17784135318E+03  0.45969708389E+03  0.00000000000E+00 0.  1.
         -1    1    6    6    0  502  0.27495383676E+02 -0.20002658259E+03 -0.23407780745E+03  0.30912626839E+03  0.00000000000E+00 0.  1.
<mgrwt>
<rscale>  0 0.28715771E+04</rscale>
<asrwt>0</asrwt>
<pdfrwt beam="1">  1        2 0.19252128E+00 0.28715771E+04</pdfrwt>
<pdfrwt beam="2">  1       -2 0.25344022E+00 0.28715771E+04</pdfrwt>
<totfact> 0.93475921E-01</totfact>
</mgrwt>
</event>
<event>
12    1  0.1598876E-007  0.2434382E+04  0.7818608E-02  0.8426742E-01
          1   -1    0    0  501    0  0.00000000000E+00  0.00000000000E+00  0.22206666547E+04  0.22206666547E+04  0.00000000000E+00 0. -1.
         -1   -1    0    0    0  501 -0.00000000000E+00 -0.00000000000E+00 -0.66716636173E+03  0.66716636173E+03  0.00000000000E+00 0.  1.
         23    2    1    2    0    0  0.41342287781E+03 -0.85311856812E+03  0.12155340753E+04  0.15441633257E+04  0.90484921986E+02 0.  0.
        254    2    1    2    0    0 -0.41342287781E+03  0.85311856812E+03  0.33796621768E+03  0.13436696907E+04  0.89022317780E+03 0.  0.
        -24    2    4    4    0    0  0.15970803621E+03  0.58167027733E+03 -0.23896925638E+02  0.60893793281E+03  0.79921052348E+02 0.  0.
         24    2    4    4    0    0 -0.57313091402E+03  0.27144829079E+03  0.36186314332E+03  0.73473175790E+03  0.81991477588E+02 0.  0.
         11    1    3    3    0    0  0.68138081114E+02 -0.13204116079E+03  0.14101888046E+03  0.20485114324E+03  0.00000000000E+00 0. -1.
        -11    1    3    3    0    0  0.34528479669E+03 -0.72107740734E+03  0.10745151948E+04  0.13393121825E+04  0.00000000000E+00 0.  1.
          4    1    6    6  502    0 -0.72913050633E+02  0.58999250814E+02  0.32558477412E+02  0.99283830509E+02  0.00000000000E+00 0. -1.
          1    1    5    5  503    0  0.42264737626E+02  0.27558701234E+03 -0.34433798538E+02  0.28092738546E+03  0.00000000000E+00 0. -1.
         -2    1    5    5    0  503  0.11744329859E+03  0.30608326499E+03  0.10536872900E+02  0.32801054736E+03  0.00000000000E+00 0.  1.
         -3    1    6    6    0  502 -0.50021786339E+03  0.21244903998E+03  0.32930466591E+03  0.63544792739E+03  0.00000000000E+00 0.  1.
<mgrwt>
<rscale>  0 0.24343821E+04</rscale>
<asrwt>0</asrwt>
<pdfrwt beam="1">  1        1 0.34164102E+00 0.24343821E+04</pdfrwt>
<pdfrwt beam="2">  1       -1 0.10264098E+00 0.24343821E+04</pdfrwt>
<totfact> 0.16907179E+00</totfact>
</mgrwt>
</event>
<event>
12    1  0.1598876E-007  0.1480637E+04  0.7818608E-02  0.8897432E-01
         -2   -1    0    0    0  501 -0.00000000000E+00  0.00000000000E+00  0.35617202910E+03  0.35617202910E+03  0.00000000000E+00 0.  1.
          2   -1    0    0  501    0  0.00000000000E+00 -0.00000000000E+00 -0.15387840138E+04  0.15387840138E+04  0.00000000000E+00 0. -1.
         23    2    1    2    0    0  0.13141035791E+03  0.10417208147E+03 -0.88133575214E+03  0.90108189290E+03  0.84115188831E+02 0.  0.
        254    2    1    2    0    0 -0.13141035791E+03 -0.10417208147E+03 -0.30127623259E+03  0.99387415002E+03  0.93214695893E+03 0.  0.
        -24    2    4    4    0    0  0.89511076236E+02  0.36755554283E+03  0.58604379614E+00  0.38642952351E+03  0.78855078210E+02 0.  0.
         24    2    4    4    0    0 -0.22092143414E+03 -0.47172762429E+03 -0.30186227639E+03  0.60744462652E+03  0.80838782737E+02 0.  0.
         13    1    3    3    0    0  0.24149241149E+02  0.49389277228E+02 -0.44658517190E+03  0.44995644491E+03  0.00000000000E+00 0.  1.
        -13    1    3    3    0    0  0.10726111676E+03  0.54782804241E+02 -0.43475058024E+03  0.45112544799E+03  0.00000000000E+00 0. -1.
          2    1    6    6  502    0 -0.14120345654E+03 -0.32305866305E+03 -0.24535121867E+03  0.42953758440E+03  0.00000000000E+00 0. -1.
          1    1    5    5  503    0  0.54379307467E+02  0.20993276055E+03  0.39226431629E+02  0.22038054808E+03  0.00000000000E+00 0. -1.
         -2    1    5    5    0  503  0.35131768769E+02  0.15762278228E+03 -0.38640387833E+02  0.16604897543E+03  0.00000000000E+00 0.  1.
         -1    1    6    6    0  502 -0.79717977606E+02 -0.14866896124E+03 -0.56511057718E+02  0.17790704212E+03  0.00000000000E+00 0.  1.
<mgrwt>
<rscale>  0 0.14806375E+04</rscale>
<asrwt>0</asrwt>
<pdfrwt beam="1">  1        2 0.23673600E+00 0.14806375E+04</pdfrwt>
<pdfrwt beam="2">  1       -2 0.54795697E-01 0.14806375E+04</pdfrwt>
<totfact> 0.36585790E+01</totfact>
</mgrwt>
</event>
<event>
12    1  0.1598876E-007  0.1852759E+04  0.7818608E-02  0.8678735E-01
         -1   -1    0    0    0  501 -0.00000000000E+00  0.00000000000E+00  0.48112801672E+03  0.48112801672E+03  0.00000000000E+00 0.  1.
          1   -1    0    0  501    0  0.00000000000E+00 -0.00000000000E+00 -0.17836815968E+04  0.17836815968E+04  0.00000000000E+00 0. -1.
         23    2    1    2    0    0  0.94188788950E+02 -0.67286308988E+03 -0.85753172609E+03  0.10978152631E+04  0.90672074093E+02 0.  0.
        254    2    1    2    0    0 -0.94188788950E+02  0.67286308988E+03 -0.44502185403E+03  0.11669943504E+04  0.83798275501E+03 0.  0.
        -24    2    4    4    0    0 -0.40212589559E+03  0.29501491691E+03 -0.44264955137E+03  0.67257933827E+03  0.87665864727E+02 0.  0.
         24    2    4    4    0    0  0.30793710664E+03  0.37784817296E+03 -0.23723026591E+01  0.49441501216E+03  0.82740999315E+02 0.  0.
         11    1    3    3    0    0 -0.14510246569E+02 -0.37471381797E+02 -0.62226472560E+02  0.74072839804E+02  0.00000000000E+00 0.  1.
        -11    1    3    3    0    0  0.10869903552E+03 -0.63539170808E+03 -0.79530525353E+03  0.10237424233E+04  0.00000000000E+00 0. -1.
          2    1    6    6  502    0  0.24756848994E+02  0.44084238515E+02  0.23886926712E+02  0.55918752895E+02  0.00000000000E+00 0. -1.
          1    1    5    5  503    0 -0.30485271266E+03  0.26200055396E+03 -0.37383207891E+03  0.54893523289E+03  0.00000000000E+00 0. -1.
         -2    1    5    5    0  503 -0.97273182935E+02  0.33014362950E+02 -0.68817472460E+02  0.12364410538E+03  0.00000000000E+00 0.  1.
         -1    1    6    6    0  502  0.28318025765E+03  0.33376393445E+03 -0.26259229371E+02  0.43849625926E+03  0.00000000000E+00 0.  1.
<mgrwt>
<rscale>  0 0.18527592E+04</rscale>
<asrwt>0</asrwt>
<pdfrwt beam="1">  1        1 0.27441255E+00 0.18527592E+04</pdfrwt>
<pdfrwt beam="2">  1       -1 0.74019696E-01 0.18527592E+04</pdfrwt>
<totfact> 0.72148041E+00</totfact>
</mgrwt>
</event>
<event>
12    1  0.1598876E-007  0.2179538E+04  0.7818608E-02  0.8526993E-01
         -2   -1    0    0    0  501 -0.00000000000E+00  0.00000000000E+00  0.90187502633E+03  0.90187502633E+03  0.00000000000E+00 0. -1.
          2   -1    0    0  501    0  0.00000000000E+00 -0.00000000000E+00 -0.13168087292E+04  0.13168087292E+04  0.00000000000E+00 0.  1.
         23    2    1    2    0    0 -0.81307500293E+03  0.28032847926E+01  0.21329240009E+03  0.84545806963E+03  0.90591836117E+02 0.  0.
        254    2    1    2    0    0  0.81307500293E+03 -0.28032847926E+01 -0.62822610292E+03  0.13732256859E+04  0.91103344019E+03 0.  0.
        -24    2    4    4    0    0  0.23035006005E+03 -0.19687096311E+03 -0.68297798626E+03  0.75157704803E+03  0.81177602338E+02 0.  0.
         24    2    4    4    0    0  0.58272494288E+03  0.19406767832E+03  0.54751883337E+02  0.62164863784E+03  0.78858337442E+02 0.  0.
         13    1    3    3    0    0 -0.22762911600E+03 -0.36257984075E+02  0.42763023875E+02  0.23443193483E+03  0.00000000000E+00 0.  1.
        -13    1    3    3    0    0 -0.58544588693E+03  0.39061268867E+02  0.17052937622E+03  0.61102613480E+03  0.00000000000E+00 0. -1.
          2    1    6    6  502    0  0.17665025167E+03  0.48844537439E+02  0.51492737828E+02  0.19037489934E+03  0.00000000000E+00 0. -1.
          3    1    5    5  503    0  0.24266913294E+02  0.26890653441E+01 -0.32486549589E+02  0.40638529223E+02  0.00000000000E+00 0. -1.
         -4    1    5    5    0  503  0.20608314676E+03 -0.19956002846E+03 -0.65049143667E+03  0.71093851880E+03  0.00000000000E+00 0.  1.
         -1    1    6    6    0  502  0.40607469121E+03  0.14522314088E+03  0.32591455081E+01  0.43127373850E+03  0.00000000000E+00 0.  1.
<mgrwt>
<rscale>  0 0.21795384E+04</rscale>
<asrwt>0</asrwt>
<pdfrwt beam="1">  1        2 0.20258596E+00 0.21795384E+04</pdfrwt>
<pdfrwt beam="2">  1       -2 0.13875000E+00 0.21795384E+04</pdfrwt>
<totfact> 0.54410715E+00</totfact>
</mgrwt>
</event>
<event>
12    1  0.1598876E-007  0.1411072E+04  0.7818608E-02  0.8945843E-01
         -2   -1    0    0    0  501 -0.00000000000E+00  0.00000000000E+00  0.25989611833E+03  0.25989611833E+03  0.00000000000E+00 0. -1.
          2   -1    0    0  501    0  0.00000000000E+00 -0.00000000000E+00 -0.19153073601E+04  0.19153073601E+04  0.00000000000E+00 0.  1.
         23    2    1    2    0    0  0.34456761674E+03  0.13417762817E+03 -0.73323851426E+03  0.82619635562E+03  0.90726075784E+02 0.  0.
        254    2    1    2    0    0 -0.34456761674E+03 -0.13417762817E+03 -0.92217272755E+03  0.13490071229E+04  0.91251695856E+03 0.  0.
        -24    2    4    4    0    0 -0.56721756413E+03  0.16742180702E+03 -0.62997034058E+03  0.86764293460E+03  0.78586292883E+02 0.  0.
         24    2    4    4    0    0  0.22264994739E+03 -0.30159943519E+03 -0.29220238697E+03  0.48136418825E+03  0.76118515535E+02 0.  0.
         11    1    3    3    0    0  0.14813126887E+03  0.45474110701E+02 -0.21586502271E+03  0.26572255379E+03  0.00000000000E+00 0. -1.
        -11    1    3    3    0    0  0.19643634787E+03  0.88703517469E+02 -0.51737349155E+03  0.56047380182E+03  0.00000000000E+00 0.  1.
          4    1    6    6  502    0  0.48078813091E+02 -0.63955699999E+02 -0.10529324472E+03  0.13224436175E+03  0.00000000000E+00 0. -1.
          1    1    5    5  503    0 -0.18047608701E+03  0.59526666685E+02 -0.15156973240E+03  0.24308110952E+03  0.00000000000E+00 0. -1.
         -2    1    5    5    0  503 -0.38674147712E+03  0.10789514033E+03 -0.47840060818E+03  0.62456182508E+03  0.00000000000E+00 0.  1.
         -3    1    6    6    0  502  0.17457113429E+03 -0.23764373519E+03 -0.18690914225E+03  0.34911982650E+03  0.00000000000E+00 0.  1.
<mgrwt>
<rscale>  0 0.14110719E+04</rscale>
<asrwt>0</asrwt>
<pdfrwt beam="1">  1        2 0.29466267E+00 0.14110719E+04</pdfrwt>
<pdfrwt beam="2">  1       -2 0.39984018E-01 0.14110719E+04</pdfrwt>
<totfact> 0.42876207E+01</totfact>
</mgrwt>
</event>
<event>
12    1  0.1598876E-007  0.1112783E+04  0.7818608E-02  0.9192822E-01
          1   -1    0    0  501    0  0.00000000000E+00  0.00000000000E+00  0.21878445890E+04  0.21878445890E+04  0.00000000000E+00 0. -1.
         -1   -1    0    0    0  501 -0.00000000000E+00 -0.00000000000E+00 -0.14149605597E+03  0.14149605597E+03  0.00000000000E+00 0.  1.
         23    2    1    2    0    0  0.13912007474E+03 -0.13105986849E+02  0.14574016759E+03  0.22171104432E+03  0.91593824229E+02 0.  0.
        254    2    1    2    0    0 -0.13912007474E+03  0.13105986849E+02  0.19006083654E+04  0.21076296006E+04  0.90014677284E+03 0.  0.
        -24    2    4    4    0    0 -0.13183348617E+03 -0.28665300799E+02  0.19811356857E+04  0.19874436244E+04  0.82654627617E+02 0.  0.
         24    2    4    4    0    0 -0.72865885724E+01  0.41771287647E+02 -0.80527320278E+02  0.12018597623E+03  0.78498947303E+02 0.  0.
         11    1    3    3    0    0 -0.11093004079E+02  0.76051825921E+01  0.22924826748E+02  0.26578962041E+02  0.00000000000E+00 0. -1.
        -11    1    3    3    0    0  0.15021307882E+03 -0.20711169441E+02  0.12281534084E+03  0.19513208228E+03  0.00000000000E+00 0.  1.
          2    1    6    6  502    0 -0.39309589853E+02  0.28653937351E+02 -0.67517066779E+02  0.83215661306E+02  0.00000000000E+00 0. -1.
          3    1    5    5  503    0 -0.14242293168E+03 -0.32806096605E+02  0.17818700993E+04  0.17878539041E+04  0.00000000000E+00 0. -1.
         -4    1    5    5    0  503  0.10589445516E+02  0.41407958067E+01  0.19926558633E+03  0.19958972028E+03  0.00000000000E+00 0.  1.
         -1    1    6    6    0  502  0.32023001281E+02  0.13117350296E+02 -0.13010253498E+02  0.36970314929E+02  0.00000000000E+00 0.  1.
<mgrwt>
<rscale>  0 0.11127828E+04</rscale>
<asrwt>0</asrwt>
<pdfrwt beam="1">  1        1 0.33659145E+00 0.11127828E+04</pdfrwt>
<pdfrwt beam="2">  1       -1 0.21768626E-01 0.11127828E+04</pdfrwt>
<totfact> 0.39390188E+01</totfact>
</mgrwt>
</event>
<event>
12    1  0.1598876E-007  0.1472044E+04  0.7818608E-02  0.8903259E-01
          2   -1    0    0  501    0  0.00000000000E+00  0.00000000000E+00  0.59918874318E+03  0.59918874318E+03  0.00000000000E+00 0. -1.
         -2   -1    0    0    0  501 -0.00000000000E+00 -0.00000000000E+00 -0.90410346425E+03  0.90410346425E+03  0.00000000000E+00 0.  1.
         23    2    1    2    0    0  0.11061515843E+03 -0.33460033338E+03 -0.38602488332E+03  0.53082445973E+03  0.92554309074E+02 0.  0.
        254    2    1    2    0    0 -0.11061515843E+03  0.33460033338E+03  0.81110162246E+02  0.97246774770E+03  0.90273006238E+03 0.  0.
        -24    2    4    4    0    0 -0.42428680208E+03  0.62659414700E+02  0.26575551358E+03  0.51144353038E+03  0.83683923784E+02 0.  0.
         24    2    4    4    0    0  0.31367164365E+03  0.27194091868E+03 -0.18464535134E+03  0.46102421732E+03  0.78151518876E+02 0.  0.
         13    1    3    3    0    0  0.71504207415E+02 -0.23733011531E+03 -0.32760272734E+03  0.41080650223E+03  0.00000000000E+00 0.  1.
        -13    1    3    3    0    0  0.39110951012E+02 -0.97270218074E+02 -0.58422155980E+02  0.12001795750E+03  0.00000000000E+00 0. -1.
          4    1    6    6  502    0  0.28623416176E+03  0.22738023419E+03 -0.13741312911E+03  0.39053058050E+03  0.00000000000E+00 0. -1.
          1    1    5    5  503    0 -0.42624356166E+03  0.56231411809E+02  0.25903875478E+03  0.50194284735E+03  0.00000000000E+00 0. -1.
         -2    1    5    5    0  503  0.19567595787E+01  0.64280028910E+01  0.67167588051E+01  0.95006830313E+01  0.00000000000E+00 0.  1.
         -3    1    6    6    0  502  0.27437481893E+02  0.44560684497E+02 -0.47232222230E+02  0.70493636821E+02  0.00000000000E+00 0.  1.
<mgrwt>
<rscale>  0 0.14720443E+04</rscale>
<asrwt>0</asrwt>
<pdfrwt beam="1">  1        2 0.92182883E-01 0.14720443E+04</pdfrwt>
<pdfrwt beam="2">  1       -2 0.13909284E+00 0.14720443E+04</pdfrwt>
<totfact> 0.17559136E+01</totfact>
</mgrwt>
</event>
<event>
12    1  0.1598876E-007  0.1620724E+04  0.7818608E-02  0.8807917E-01
         -2   -1    0    0    0  501 -0.00000000000E+00  0.00000000000E+00  0.11137686972E+04  0.11137686972E+04  0.00000000000E+00 0.  1.
          2   -1    0    0  501    0  0.00000000000E+00 -0.00000000000E+00 -0.58960739513E+03  0.58960739513E+03  0.00000000000E+00 0. -1.
         23    2    1    2    0    0  0.16934522560E+03 -0.47376548086E+03 -0.77055808680E+02  0.51621514945E+03  0.86075237929E+02 0.  0.
        254    2    1    2    0    0 -0.16934522560E+03  0.47376548086E+03  0.60121711078E+03  0.11871609429E+04  0.89149175754E+03 0.  0.
        -24    2    4    4    0    0  0.17681992498E+03 -0.18103419433E+01 -0.13862968047E+03  0.23844026328E+03  0.79793531299E+02 0.  0.
         24    2    4    4    0    0 -0.34616515058E+03  0.47557582280E+03  0.73984679125E+03  0.94872067962E+03  0.81822849510E+02 0.  0.
         11    1    3    3    0    0  0.71621620787E+02 -0.15213597326E+03  0.11665646424E+02  0.16855592019E+03  0.00000000000E+00 0. -1.
        -11    1    3    3    0    0  0.97723604812E+02 -0.32162950760E+03 -0.88721455104E+02  0.34765922926E+03  0.00000000000E+00 0.  1.
          2    1    6    6  502    0 -0.56544880415E+02  0.95662536762E+02  0.94990199954E+02  0.14619091124E+03  0.00000000000E+00 0. -1.
          1    1    5    5  503    0 -0.21314938289E+01  0.31055848664E+01  0.68137774606E+01  0.77855948127E+01  0.00000000000E+00 0. -1.
         -2    1    5    5    0  503  0.17895141881E+03 -0.49159268096E+01 -0.14544345793E+03  0.23065466847E+03  0.00000000000E+00 0.  1.
         -1    1    6    6    0  502 -0.28962027017E+03  0.37991328604E+03  0.64485659130E+03  0.80252976838E+03  0.00000000000E+00 0.  1.
<mgrwt>
<rscale>  0 0.16207236E+04</rscale>
<asrwt>0</asrwt>
<pdfrwt beam="1">  1        2 0.90708830E-01 0.16207236E+04</pdfrwt>
<pdfrwt beam="2">  1       -2 0.17134903E+00 0.16207236E+04</pdfrwt>
<totfact> 0.10101717E+01</totfact>
</mgrwt>
</event>
<event>
12    1  0.1598876E-007  0.2271017E+04  0.7818608E-02  0.8489437E-01
         -2   -1    0    0    0  501 -0.00000000000E+00  0.00000000000E+00  0.61273226230E+03  0.61273226230E+03  0.00000000000E+00 0. -1.
          2   -1    0    0  501    0  0.00000000000E+00 -0.00000000000E+00 -0.21043124222E+04  0.21043124222E+04  0.00000000000E+00 0.  1.
         23    2    1    2    0    0  0.35928923044E+03 -0.12471540392E+03 -0.16822109182E+04  0.17270816730E+04  0.91295393054E+02 0.  0.
        254    2    1    2    0    0 -0.35928923044E+03  0.12471540392E+03  0.19063075832E+03  0.98996301149E+03  0.89389260821E+03 0.  0.
        -24    2    4    4    0    0 -0.62387183206E+03  0.39648986441E+02 -0.22256334619E+02  0.63123737940E+03  0.84718237499E+02 0.  0.
         24    2    4    4    0    0  0.26458260161E+03  0.85066417476E+02  0.21288709293E+03  0.35872563209E+03  0.78249065922E+02 0.  0.
         13    1    3    3    0    0  0.81130892629E+02 -0.21513155481E+02 -0.22908032196E+03  0.24397301389E+03  0.00000000000E+00 0. -1.
        -13    1    3    3    0    0  0.27815833781E+03 -0.10320224844E+03 -0.14531305962E+04  0.14831086591E+04  0.00000000000E+00 0.  1.
          2    1    6    6  502    0  0.23702061812E+03  0.51895305809E+02  0.16071003480E+03  0.29103197670E+03  0.00000000000E+00 0. -1.
          3    1    5    5  503    0 -0.15180425880E+03  0.41122633559E+02  0.13258698876E+02  0.15783344727E+03  0.00000000000E+00 0. -1.
         -4    1    5    5    0  503 -0.47206757326E+03 -0.14736471189E+01 -0.35515033495E+02  0.47340393213E+03  0.00000000000E+00 0.  1.
         -1    1    6    6    0  502  0.27561983496E+02  0.33171111667E+02  0.52177058133E+02  0.67693655381E+02  0.00000000000E+00 0.  1.
<mgrwt>
<rscale>  0 0.22710175E+04</rscale>
<asrwt>0</asrwt>
<pdfrwt beam="1">  1        2 0.32374038E+00 0.22710175E+04</pdfrwt>
<pdfrwt beam="2">  1       -2 0.94266501E-01 0.22710175E+04</pdfrwt>
<totfact> 0.50390227E+00</totfact>
</mgrwt>
</event>
<event>
12    1  0.1598876E-007  0.1478862E+04  0.7818608E-02  0.8898633E-01
         -2   -1    0    0    0  501 -0.00000000000E+00  0.00000000000E+00  0.92785352041E+03  0.92785352041E+03  0.00000000000E+00 0. -1.
          2   -1    0    0  501    0  0.00000000000E+00 -0.00000000000E+00 -0.58927187051E+03  0.58927187051E+03  0.00000000000E+00 0.  1.
         23    2    1    2    0    0  0.56823911893E+02 -0.45409211317E+03  0.12568218282E+03  0.48288986689E+03  0.89207669312E+02 0.  0.
        254    2    1    2    0    0 -0.56823911893E+02  0.45409211317E+03  0.21289946708E+03  0.10342355240E+04  0.90271165489E+03 0.  0.
        -24    2    4    4    0    0  0.40752040726E+03  0.30079477383E+03  0.68645739079E+02  0.51768035617E+03  0.82038621177E+02 0.  0.
         24    2    4    4    0    0 -0.46434431916E+03  0.15329733933E+03  0.14425372800E+03  0.51655516786E+03  0.83092613508E+02 0.  0.
         13    1    3    3    0    0  0.55268346288E+02 -0.19014130171E+03  0.86350526262E+02  0.21602017985E+03  0.00000000000E+00 0. -1.
        -13    1    3    3    0    0  0.15555656047E+01 -0.26395081145E+03  0.39331656560E+02  0.26686968704E+03  0.00000000000E+00 0.  1.
          4    1    6    6  502    0 -0.14372802627E+01 -0.53652073829E+01  0.57364176943E+01  0.79848426896E+01  0.00000000000E+00 0. -1.
          3    1    5    5  503    0  0.79250191539E+02  0.90771617151E+02  0.39824428633E+02  0.12690967046E+03  0.00000000000E+00 0. -1.
         -4    1    5    5    0  503  0.32827021572E+03  0.21002315668E+03  0.28821310446E+02  0.39077068571E+03  0.00000000000E+00 0.  1.
         -3    1    6    6    0  502 -0.46290703889E+03  0.15866254672E+03  0.13851731031E+03  0.50857032517E+03  0.00000000000E+00 0.  1.
<mgrwt>
<rscale>  0 0.14788617E+04</rscale>
<asrwt>0</asrwt>
<pdfrwt beam="1">  1        2 0.90657211E-01 0.14788617E+04</pdfrwt>
<pdfrwt beam="2">  1       -2 0.14274670E+00 0.14788617E+04</pdfrwt>
<totfact> 0.16736754E+01</totfact>
</mgrwt>
</event>
<event>
12    1  0.1598876E-007  0.1763096E+04  0.7818608E-02  0.8726174E-01
          1   -1    0    0  501    0  0.00000000000E+00  0.00000000000E+00  0.47471017522E+03  0.47471017522E+03  0.00000000000E+00 0.  1.
         -1   -1    0    0    0  501 -0.00000000000E+00 -0.00000000000E+00 -0.16370556793E+04  0.16370556793E+04  0.00000000000E+00 0. -1.
         23    2    1    2    0    0  0.79118782840E+02  0.62870596312E+03 -0.24031927043E+03  0.68308531418E+03  0.85564156350E+02 0.  0.
        254    2    1    2    0    0 -0.79118782840E+02 -0.62870596312E+03 -0.92202623371E+03  0.14286805404E+04  0.88851828398E+03 0.  0.
        -24    2    4    4    0    0  0.18783366876E+03 -0.74853113614E+03 -0.75308677737E+03  0.10813086485E+04  0.80674346698E+02 0.  0.
         24    2    4    4    0    0 -0.26695245160E+03  0.11982517302E+03 -0.16893945634E+03  0.34737189187E+03  0.80653628844E+02 0.  0.
         11    1    3    3    0    0  0.53800571909E+02  0.59343309705E+03 -0.22048909331E+03  0.63535248680E+03  0.00000000000E+00 0.  1.
        -11    1    3    3    0    0  0.25318210931E+02  0.35272866067E+02 -0.19830177112E+02  0.47732827379E+02  0.00000000000E+00 0. -1.
          2    1    6    6  502    0 -0.25193214485E+03  0.12221483511E+03 -0.13642743460E+03  0.31147827604E+03  0.00000000000E+00 0. -1.
          3    1    5    5  503    0  0.13735389848E+03 -0.44596618903E+03 -0.49679922632E+03  0.68158741659E+03  0.00000000000E+00 0. -1.
         -4    1    5    5    0  503  0.50479770289E+02 -0.30256494711E+03 -0.25628755104E+03  0.39972123192E+03  0.00000000000E+00 0.  1.
         -1    1    6    6    0  502 -0.15020306751E+02 -0.23896620939E+01 -0.32512021740E+02  0.35893615831E+02  0.00000000000E+00 0.  1.
<mgrwt>
<rscale>  0 0.17630961E+04</rscale>
<asrwt>0</asrwt>
<pdfrwt beam="1">  1        1 0.73032333E-01 0.17630961E+04</pdfrwt>
<pdfrwt beam="2">  1       -1 0.25185472E+00 0.17630961E+04</pdfrwt>
<totfact> 0.30557495E+00</totfact>
</mgrwt>
</event>
<event>
12    1  0.1598876E-007  0.1846261E+04  0.7818608E-02  0.8682078E-01
          2   -1    0    0  501    0  0.00000000000E+00  0.00000000000E+00  0.81346218090E+03  0.81346218090E+03  0.00000000000E+00 0. -1.
         -2   -1    0    0    0  501 -0.00000000000E+00 -0.00000000000E+00 -0.10475838876E+04  0.10475838876E+04  0.00000000000E+00 0.  1.
         23    2    1    2    0    0  0.22114330026E+03  0.66650842647E+03 -0.93078372644E+02  0.71347576455E+03  0.85124857388E+02 0.  0.
        254    2    1    2    0    0 -0.22114330026E+03 -0.66650842647E+03 -0.14104333410E+03  0.11475703040E+04  0.89659719981E+03 0.  0.
        -24    2    4    4    0    0  0.16714787879E+03 -0.19313266216E+03  0.28965093363E+03  0.39497994831E+03  0.82902699800E+02 0.  0.
         24    2    4    4    0    0 -0.38829117905E+03 -0.47337576431E+03 -0.43069426773E+03  0.75259035569E+03  0.77717676620E+02 0.  0.
         11    1    3    3    0    0  0.88957678995E+02  0.24309243721E+03  0.61981527104E+01  0.25893207368E+03  0.00000000000E+00 0. -1.
        -11    1    3    3    0    0  0.13218562127E+03  0.42341598925E+03 -0.99276525355E+02  0.45454369087E+03  0.00000000000E+00 0.  1.
          2    1    6    6  502    0 -0.14486096851E+02 -0.43367529538E+02 -0.47618464309E+02  0.66015965973E+02  0.00000000000E+00 0. -1.
          1    1    5    5  503    0  0.24763154806E+02 -0.25362259291E+02  0.59469245106E+01  0.35941952415E+02  0.00000000000E+00 0. -1.
         -2    1    5    5    0  503  0.14238472398E+03 -0.16777040287E+03  0.28370400912E+03  0.35903799589E+03  0.00000000000E+00 0.  1.
         -1    1    6    6    0  502 -0.37380508220E+03 -0.43000823477E+03 -0.38307580342E+03  0.68657438971E+03  0.00000000000E+00 0.  1.
<mgrwt>
<rscale>  0 0.18462610E+04</rscale>
<asrwt>0</asrwt>
<pdfrwt beam="1">  1        2 0.12514803E+00 0.18462610E+04</pdfrwt>
<pdfrwt beam="2">  1       -2 0.16116675E+00 0.18462610E+04</pdfrwt>
<totfact> 0.78208985E+00</totfact>
</mgrwt>
</event>
<event>
12    1  0.1598876E-007  0.1248234E+04  0.7818608E-02  0.9071654E-01
          1   -1    0    0  501    0  0.00000000000E+00  0.00000000000E+00  0.14802402151E+04  0.14802402151E+04  0.00000000000E+00 0. -1.
         -1   -1    0    0    0  501 -0.00000000000E+00 -0.00000000000E+00 -0.26314783514E+03  0.26314783514E+03  0.00000000000E+00 0.  1.
         23    2    1    2    0    0  0.10198364700E+02  0.26013010346E+03  0.11234244313E+03  0.29698005110E+03  0.88343923683E+02 0.  0.
        254    2    1    2    0    0 -0.10198364700E+02 -0.26013010346E+03  0.11047499368E+04  0.14464079991E+04  0.89657793845E+03 0.  0.
        -24    2    4    4    0    0  0.30217388200E+03 -0.23078339864E+03  0.10481371795E+04  0.11178304367E+04  0.79895595690E+02 0.  0.
         24    2    4    4    0    0 -0.31237224670E+03 -0.29346704820E+02  0.56612757355E+02  0.32857756243E+03  0.79501953717E+02 0.  0.
         11    1    3    3    0    0  0.18930965633E+02  0.12161934384E+03  0.79958145572E+01  0.12334333912E+03  0.00000000000E+00 0.  1.
        -11    1    3    3    0    0 -0.87326009329E+01  0.13851075962E+03  0.10434662858E+03  0.17363671198E+03  0.00000000000E+00 0. -1.
          4    1    6    6  502    0 -0.16464654656E+03 -0.27631576975E+02 -0.84209573122E+01  0.16716130491E+03  0.00000000000E+00 0. -1.
          3    1    5    5  503    0  0.28584354201E+03 -0.20353170551E+03  0.10031831035E+04  0.10627831504E+04  0.00000000000E+00 0. -1.
         -4    1    5    5    0  503  0.16330339995E+02 -0.27251693131E+02  0.44954075957E+02  0.55047286291E+02  0.00000000000E+00 0.  1.
         -3    1    6    6    0  502 -0.14772570014E+03 -0.17151278452E+01  0.65033714668E+02  0.16141625752E+03  0.00000000000E+00 0.  1.
<mgrwt>
<rscale>  0 0.12482340E+04</rscale>
<asrwt>0</asrwt>
<pdfrwt beam="1">  1        1 0.22772926E+00 0.12482340E+04</pdfrwt>
<pdfrwt beam="2">  1       -1 0.40484283E-01 0.12482340E+04</pdfrwt>
<totfact> 0.39665623E+01</totfact>
</mgrwt>
</event>
<event>
12    1  0.1598876E-007  0.1724106E+04  0.7818608E-02  0.8747734E-01
          1   -1    0    0  501    0  0.00000000000E+00  0.00000000000E+00  0.25786651957E+04  0.25786651957E+04  0.00000000000E+00 0. -1.
         -1   -1    0    0    0  501 -0.00000000000E+00 -0.00000000000E+00 -0.28818603953E+03  0.28818603953E+03  0.00000000000E+00 0.  1.
         23    2    1    2    0    0  0.12581874812E+02 -0.40051485666E+03  0.16227392602E+04  0.16739839926E+04  0.91483588758E+02 0.  0.
        254    2    1    2    0    0 -0.12581874812E+02  0.40051485666E+03  0.66773989597E+03  0.11928672426E+04  0.90359572588E+03 0.  0.
        -24    2    4    4    0    0  0.20762392068E+03  0.45319940739E+02 -0.14947790082E+03  0.27156597370E+03  0.79011681235E+02 0.  0.
         24    2    4    4    0    0 -0.22020579549E+03  0.35519491593E+03  0.81721779679E+03  0.92130126891E+03  0.79354143138E+02 0.  0.
         11    1    3    3    0    0 -0.12054383914E+02 -0.11967430970E+03  0.34053890002E+03  0.36115646332E+03  0.00000000000E+00 0.  1.
        -11    1    3    3    0    0  0.24636258726E+02 -0.28084054696E+03  0.12822003602E+04  0.13128275293E+04  0.00000000000E+00 0. -1.
          2    1    6    6  502    0 -0.19149553894E+03  0.30918286477E+03  0.75959835554E+03  0.84217233809E+03  0.00000000000E+00 0. -1.
          1    1    5    5  503    0  0.20965940646E+03  0.34069225045E+02 -0.13015722769E+03  0.24911580185E+03  0.00000000000E+00 0. -1.
         -2    1    5    5    0  503 -0.20354857773E+01  0.11250715695E+02 -0.19320673129E+02  0.22450171851E+02  0.00000000000E+00 0.  1.
         -1    1    6    6    0  502 -0.28710256555E+02  0.46012051153E+02  0.57619441252E+02  0.79128930822E+02  0.00000000000E+00 0.  1.
<mgrwt>
<rscale>  0 0.17241059E+04</rscale>
<asrwt>0</asrwt>
<pdfrwt beam="1">  1        1 0.39671771E+00 0.17241059E+04</pdfrwt>
<pdfrwt beam="2">  1       -1 0.44336315E-01 0.17241059E+04</pdfrwt>
<totfact> 0.57202407E+00</totfact>
</mgrwt>
</event>
<event>
12    1  0.1598876E-007  0.1599923E+04  0.7818608E-02  0.8820596E-01
          1   -1    0    0  501    0  0.00000000000E+00  0.00000000000E+00  0.10556731818E+04  0.10556731818E+04  0.00000000000E+00 0. -1.
         -1   -1    0    0    0  501 -0.00000000000E+00 -0.00000000000E+00 -0.60618960533E+03  0.60618960533E+03  0.00000000000E+00 0.  1.
         23    2    1    2    0    0  0.23082979006E+03 -0.45132394476E+03  0.34202690122E+03  0.61778633710E+03  0.87760253309E+02 0.  0.
        254    2    1    2    0    0 -0.23082979006E+03  0.45132394476E+03  0.10745667525E+03  0.10440764500E+04  0.90640664238E+03 0.  0.
        -24    2    4    4    0    0  0.30216567740E+03 -0.91350624356E+00  0.13448716668E+03  0.34001798975E+03  0.78870173425E+02 0.  0.
         24    2    4    4    0    0 -0.53299546746E+03  0.45223745100E+03 -0.27030491428E+02  0.70405846028E+03  0.79779618958E+02 0.  0.
         11    1    3    3    0    0  0.17821747127E+02 -0.10605494294E+03  0.89597873411E+02  0.13997515677E+03  0.00000000000E+00 0. -1.
        -11    1    3    3    0    0  0.21300804294E+03 -0.34526900182E+03  0.25242902780E+03  0.47781118033E+03  0.00000000000E+00 0.  1.
          4    1    6    6  502    0 -0.32380970694E+03  0.26623055142E+03  0.22411369091E+02  0.41980197985E+03  0.00000000000E+00 0. -1.
          1    1    5    5  503    0  0.69200679538E+02 -0.27471115085E+01  0.69583278352E+02  0.98173893151E+02  0.00000000000E+00 0. -1.
         -2    1    5    5    0  503  0.23296499786E+03  0.18336052649E+01  0.64903888327E+02  0.24184409660E+03  0.00000000000E+00 0.  1.
         -3    1    6    6    0  502 -0.20918576053E+03  0.18600689958E+03 -0.49441860519E+02  0.28425648044E+03  0.00000000000E+00 0.  1.
<mgrwt>
<rscale>  0 0.15999226E+04</rscale>
<asrwt>0</asrwt>
<pdfrwt beam="1">  1        1 0.16241126E+00 0.15999226E+04</pdfrwt>
<pdfrwt beam="2">  1       -1 0.93259939E-01 0.15999226E+04</pdfrwt>
<totfact> 0.14675967E+01</totfact>
</mgrwt>
</event>
<event>
12    1  0.1701659E-007  0.1700466E+04  0.7818608E-02  0.8761099E-01
         -2   -1    0    0    0  501 -0.00000000000E+00  0.00000000000E+00  0.55967165894E+03  0.55967165894E+03  0.00000000000E+00 0.  1.
          2   -1    0    0  501    0  0.00000000000E+00 -0.00000000000E+00 -0.12916434332E+04  0.12916434332E+04  0.00000000000E+00 0. -1.
         23    2    1    2    0    0 -0.55039210124E+03  0.24892423930E+03 -0.39118310656E+03  0.72539589929E+03  0.90995856070E+02 0.  0.
        254    2    1    2    0    0  0.55039210124E+03 -0.24892423930E+03 -0.34078866772E+03  0.11259191929E+04  0.88693989131E+03 0.  0.
        -24    2    4    4    0    0  0.44739200771E+03 -0.13538166967E+03 -0.63022283877E+03  0.78858933914E+03  0.78768739105E+02 0.  0.
         24    2    4    4    0    0  0.10300009353E+03 -0.11354256963E+03  0.28943417104E+03  0.33732985373E+03  0.80736339175E+02 0.  0.
         11    1    3    3    0    0 -0.48688997670E+03  0.21972713173E+03 -0.30747873062E+03  0.61634814157E+03  0.00000000000E+00 0. -1.
        -11    1    3    3    0    0 -0.63502124542E+02  0.29197107568E+02 -0.83704375943E+02  0.10904775772E+03  0.00000000000E+00 0.  1.
          4    1    6    6  502    0  0.11540133282E+03 -0.11190351348E+03  0.26794986026E+03  0.31246918498E+03  0.00000000000E+00 0. -1.
          3    1    5    5  503    0  0.36425542264E+03 -0.12291392078E+03 -0.55886343162E+03  0.67832011620E+03  0.00000000000E+00 0. -1.
         -4    1    5    5    0  503  0.83136585065E+02 -0.12467748888E+02 -0.71359407149E+02  0.11026922294E+03  0.00000000000E+00 0.  1.
         -3    1    6    6    0  502 -0.12401239290E+02 -0.16390561487E+01  0.21484310781E+02  0.24860668750E+02  0.00000000000E+00 0.  1.
<mgrwt>
<rscale>  0 0.17004661E+04</rscale>
<asrwt>0</asrwt>
<pdfrwt beam="1">  1        2 0.19871437E+00 0.17004661E+04</pdfrwt>
<pdfrwt beam="2">  1       -2 0.86103333E-01 0.17004661E+04</pdfrwt>
<totfact> 0.18613388E+01</totfact>
</mgrwt>
</event>
<event>
12    1  0.1598876E-007  0.2669049E+04  0.7818608E-02  0.8345118E-01
          2   -1    0    0  501    0  0.00000000000E+00  0.00000000000E+00  0.20025931769E+04  0.20025931769E+04  0.00000000000E+00 0.  1.
         -2   -1    0    0    0  501 -0.00000000000E+00 -0.00000000000E+00 -0.88932444742E+03  0.88932444742E+03  0.00000000000E+00 0. -1.
         23    2    1    2    0    0 -0.73996444365E+03  0.49499760855E+03  0.13423627803E+04  0.16125418293E+04  0.76048057233E+02 0.  0.
        254    2    1    2    0    0  0.73996444365E+03 -0.49499760855E+03 -0.22909405083E+03  0.12793757950E+04  0.88980241086E+03 0.  0.
        -24    2    4    4    0    0  0.50781873878E+03 -0.50246843092E+03  0.23394897670E+03  0.75548929023E+03  0.75349508432E+02 0.  0.
         24    2    4    4    0    0  0.23214570487E+03  0.74708223683E+01 -0.46304302753E+03  0.52388650478E+03  0.78107509661E+02 0.  0.
         11    1    3    3    0    0 -0.24748544193E+03  0.15230186751E+03  0.50076899447E+03  0.57897710545E+03  0.00000000000E+00 0. -1.
        -11    1    3    3    0    0 -0.49247900172E+03  0.34269574104E+03  0.84159378585E+03  0.10335647239E+04  0.00000000000E+00 0.  1.
          4    1    6    6  502    0  0.10419642941E+03 -0.95913921660E+01 -0.13116245138E+03  0.16778700593E+03  0.00000000000E+00 0. -1.
          3    1    5    5  503    0  0.16451191215E+03 -0.18179163971E+03  0.11541901215E+03  0.27098693303E+03  0.00000000000E+00 0. -1.
         -4    1    5    5    0  503  0.34330682663E+03 -0.32067679121E+03  0.11852996455E+03  0.48450235719E+03  0.00000000000E+00 0.  1.
         -3    1    6    6    0  502  0.12794927546E+03  0.17062214534E+02 -0.33188057615E+03  0.35609949885E+03  0.00000000000E+00 0.  1.
<mgrwt>
<rscale>  0 0.26690486E+04</rscale>
<asrwt>0</asrwt>
<pdfrwt beam="1">  1        2 0.30809125E+00 0.26690486E+04</pdfrwt>
<pdfrwt beam="2">  1       -2 0.13681915E+00 0.26690486E+04</pdfrwt>
<totfact> 0.22327877E+00</totfact>
</mgrwt>
</event>
<event>
12    1  0.1750210E-007  0.1500812E+04  0.7818608E-02  0.8883913E-01
         -1   -1    0    0    0  501 -0.00000000000E+00  0.00000000000E+00  0.23001760407E+03  0.23001760407E+03  0.00000000000E+00 0.  1.
          1   -1    0    0  501    0  0.00000000000E+00 -0.00000000000E+00 -0.24481142002E+04  0.24481142002E+04  0.00000000000E+00 0. -1.
         23    2    1    2    0    0 -0.20761559547E+03 -0.85709077711E+02 -0.13690507910E+04  0.13921537259E+04  0.11550604600E+03 0.  0.
        254    2    1    2    0    0  0.20761559547E+03  0.85709077711E+02 -0.84904580510E+03  0.12859780784E+04  0.93936710469E+03 0.  0.
        -24    2    4    4    0    0  0.40932032700E+02 -0.39042795151E+03 -0.59050032882E+03  0.71381774590E+03  0.82071428636E+02 0.  0.
         24    2    4    4    0    0  0.16668356277E+03  0.47613702922E+03 -0.25854547627E+03  0.57216033246E+03  0.77664676938E+02 0.  0.
         11    1    3    3    0    0 -0.17557845185E+01 -0.21208138533E+02 -0.34351955117E+03  0.34417807884E+03  0.00000000000E+00 0.  1.
        -11    1    3    3    0    0 -0.20585981095E+03 -0.64500939179E+02 -0.10255312398E+04  0.10479756470E+04  0.00000000000E+00 0. -1.
          4    1    6    6  502    0  0.16823262895E+03  0.47137149745E+03 -0.24405296307E+03  0.55682596458E+03  0.00000000000E+00 0. -1.
          3    1    5    5  503    0  0.21178683970E+02 -0.31827845204E+03 -0.52541027170E+03  0.61465898130E+03  0.00000000000E+00 0. -1.
         -4    1    5    5    0  503  0.19753348730E+02 -0.72149499475E+02 -0.65090057124E+02  0.99158764600E+02  0.00000000000E+00 0.  1.
         -3    1    6    6    0  502 -0.15490661809E+01  0.47655317739E+01 -0.14492513209E+02  0.15334367879E+02  0.00000000000E+00 0.  1.
<mgrwt>
<rscale>  0 0.15008123E+04</rscale>
<asrwt>0</asrwt>
<pdfrwt beam="1">  1        1 0.37663295E+00 0.15008123E+04</pdfrwt>
<pdfrwt beam="2">  1       -1 0.35387324E-01 0.15008123E+04</pdfrwt>
<totfact> 0.10855690E+01</totfact>
</mgrwt>
</event>
<event>
12    1  0.1598876E-007  0.1550759E+04  0.7818608E-02  0.8851383E-01
          1   -1    0    0  501    0  0.00000000000E+00  0.00000000000E+00  0.31637191424E+03  0.31637191424E+03  0.00000000000E+00 0. -1.
         -1   -1    0    0    0  501 -0.00000000000E+00 -0.00000000000E+00 -0.19003363503E+04  0.19003363503E+04  0.00000000000E+00 0.  1.
         23    2    1    2    0    0 -0.25796980715E+03  0.27216921598E+03 -0.10041191130E+04  0.10755360855E+04  0.88871674134E+02 0.  0.
        254    2    1    2    0    0  0.25796980715E+03 -0.27216921598E+03 -0.57984532307E+03  0.11411721791E+04  0.90853114430E+03 0.  0.
        -24    2    4    4    0    0  0.44095906839E+03 -0.45841280860E+03 -0.58532148868E+03  0.86813763444E+03  0.80464303518E+02 0.  0.
         24    2    4    4    0    0 -0.18298926124E+03  0.18624359262E+03  0.54761656119E+01  0.27303454467E+03  0.79662592667E+02 0.  0.
         13    1    3    3    0    0 -0.24456135545E+03  0.21962527676E+03 -0.81480269197E+03  0.87860625175E+03  0.00000000000E+00 0.  1.
        -13    1    3    3    0    0 -0.13408451703E+02  0.52543939215E+02 -0.18931642106E+03  0.19692983372E+03  0.00000000000E+00 0. -1.
          4    1    6    6  502    0 -0.12607652106E+03  0.17119472208E+03 -0.75422291983E+01  0.21274352459E+03  0.00000000000E+00 0. -1.
          1    1    5    5  503    0  0.35524435465E+03 -0.41001641294E+03 -0.50315609996E+03  0.73991761117E+03  0.00000000000E+00 0. -1.
         -2    1    5    5    0  503  0.85714713743E+02 -0.48396395656E+02 -0.82165388717E+02  0.12822002327E+03  0.00000000000E+00 0.  1.
         -3    1    6    6    0  502 -0.56912740175E+02  0.15048870537E+02  0.13018394810E+02  0.60291020078E+02  0.00000000000E+00 0.  1.
<mgrwt>
<rscale>  0 0.15507586E+04</rscale>
<asrwt>0</asrwt>
<pdfrwt beam="1">  1        1 0.48672603E-01 0.15507586E+04</pdfrwt>
<pdfrwt beam="2">  1       -1 0.29235944E+00 0.15507586E+04</pdfrwt>
<totfact> 0.29220292E+00</totfact>
</mgrwt>
</event>
<event>
12    1  0.1598876E-007  0.1759265E+04  0.7818608E-02  0.8728267E-01
          2   -1    0    0  501    0  0.00000000000E+00  0.00000000000E+00  0.65622818919E+03  0.65622818919E+03  0.00000000000E+00 0. -1.
         -2   -1    0    0    0  501 -0.00000000000E+00 -0.00000000000E+00 -0.11790916584E+04  0.11790916584E+04  0.00000000000E+00 0.  1.
         23    2    1    2    0    0 -0.19033803551E+03 -0.41622641079E+03 -0.66598827004E+03  0.81294707843E+03  0.88710674051E+02 0.  0.
        254    2    1    2    0    0  0.19033803551E+03  0.41622641079E+03  0.14312480083E+03  0.10223727692E+04  0.90293320778E+03 0.  0.
        -24    2    4    4    0    0 -0.34239932017E+03  0.68707125072E+02  0.12757640455E+03  0.38014993617E+03  0.79248163929E+02 0.  0.
         24    2    4    4    0    0  0.53273735568E+03  0.34751928572E+03  0.15548396284E+02  0.64222283299E+03  0.87347985105E+02 0.  0.
         11    1    3    3    0    0 -0.61865835534E+02 -0.20975997134E+03 -0.26045509682E+03  0.34009334695E+03  0.00000000000E+00 0. -1.
        -11    1    3    3    0    0 -0.12847219998E+03 -0.20646643946E+03 -0.40553317322E+03  0.47285373148E+03  0.00000000000E+00 0.  1.
          2    1    6    6  502    0  0.41702560890E+03  0.31250223831E+03  0.10712197162E+02  0.52123196237E+03  0.00000000000E+00 0. -1.
          3    1    5    5  503    0 -0.30861158446E+03  0.82249182520E+02  0.12710434108E+03  0.34374634778E+03  0.00000000000E+00 0. -1.
         -4    1    5    5    0  503 -0.33787735705E+02 -0.13542057448E+02  0.47206347277E+00  0.36403588393E+02  0.00000000000E+00 0.  1.
         -1    1    6    6    0  502  0.11571174678E+03  0.35017047418E+02  0.48361991216E+01  0.12099087062E+03  0.00000000000E+00 0.  1.
<mgrwt>
<rscale>  0 0.17592648E+04</rscale>
<asrwt>0</asrwt>
<pdfrwt beam="1">  1        2 0.10095818E+00 0.17592648E+04</pdfrwt>
<pdfrwt beam="2">  1       -2 0.18139871E+00 0.17592648E+04</pdfrwt>
<totfact> 0.74572504E+00</totfact>
</mgrwt>
</event>
<event>
12    1  0.1598876E-007  0.1935353E+04  0.7818608E-02  0.8637456E-01
         -2   -1    0    0    0  501 -0.00000000000E+00  0.00000000000E+00  0.60254395260E+03  0.60254395260E+03  0.00000000000E+00 0. -1.
          2   -1    0    0  501    0  0.00000000000E+00 -0.00000000000E+00 -0.15540740913E+04  0.15540740913E+04  0.00000000000E+00 0.  1.
         23    2    1    2    0    0  0.92788746374E+02 -0.61697692057E+02  0.46181590730E+03  0.48381603589E+03  0.91584210930E+02 0.  0.
        254    2    1    2    0    0 -0.92788746374E+02  0.61697692057E+02 -0.14133460460E+04  0.16728020080E+04  0.88786437905E+03 0.  0.
        -24    2    4    4    0    0  0.11687438672E+02 -0.15786641247E+03  0.52569692623E+02  0.18466094108E+03  0.79231875950E+02 0.  0.
         24    2    4    4    0    0 -0.10447618505E+03  0.21956410453E+03 -0.14659157386E+04  0.14881410669E+04  0.80815921218E+02 0.  0.
         13    1    3    3    0    0  0.10608806243E+02 -0.21582909007E+02  0.16398678721E+02  0.29108167151E+02  0.00000000000E+00 0.  1.
        -13    1    3    3    0    0  0.82179940130E+02 -0.40114783050E+02  0.44541722858E+03  0.45470786874E+03  0.00000000000E+00 0. -1.
          4    1    6    6  502    0 -0.62303532112E+02  0.19983515127E+03 -0.12279582629E+04  0.12456714307E+04  0.00000000000E+00 0. -1.
          1    1    5    5  503    0 -0.21721002900E+02 -0.12332274575E+03  0.54497870832E+02  0.13656617265E+03  0.00000000000E+00 0. -1.
         -2    1    5    5    0  503  0.33408441572E+02 -0.34543666723E+02 -0.19281782090E+01  0.48094768428E+02  0.00000000000E+00 0.  1.
         -3    1    6    6    0  502 -0.42172652934E+02  0.19728953255E+02 -0.23795747566E+03  0.24246963619E+03  0.00000000000E+00 0.  1.
<mgrwt>
<rscale>  0 0.19353531E+04</rscale>
<asrwt>0</asrwt>
<pdfrwt beam="1">  1        2 0.23908832E+00 0.19353531E+04</pdfrwt>
<pdfrwt beam="2">  1       -2 0.92699070E-01 0.19353531E+04</pdfrwt>
<totfact> 0.10906831E+01</totfact>
</mgrwt>
</event>
<event>
12    1  0.1598876E-007  0.1606058E+04  0.7818608E-02  0.8816835E-01
          1   -1    0    0  501    0  0.00000000000E+00  0.00000000000E+00  0.24276381785E+04  0.24276381785E+04  0.00000000000E+00 0. -1.
         -1   -1    0    0    0  501 -0.00000000000E+00 -0.00000000000E+00 -0.26563083854E+03  0.26563083854E+03  0.00000000000E+00 0.  1.
         23    2    1    2    0    0 -0.18771918758E+03 -0.12143620472E+03  0.16108400933E+04  0.16287087952E+04  0.88889190859E+02 0.  0.
        254    2    1    2    0    0  0.18771918758E+03  0.12143620472E+03  0.55116724668E+03  0.10645602218E+04  0.88290310164E+03 0.  0.
        -24    2    4    4    0    0  0.49381358398E+03  0.25125413734E+03  0.41337274429E+03  0.69587104778E+03  0.79868593090E+02 0.  0.
         24    2    4    4    0    0 -0.30609439640E+03 -0.12981793261E+03  0.13779450238E+03  0.36868917405E+03  0.79986917911E+02 0.  0.
         13    1    3    3    0    0 -0.11534938846E+03 -0.32250262361E+02  0.10017084058E+04  0.10088435415E+04  0.00000000000E+00 0. -1.
        -13    1    3    3    0    0 -0.72369799120E+02 -0.89185942362E+02  0.60913168747E+03  0.61986525376E+03  0.00000000000E+00 0.  1.
          4    1    6    6  502    0 -0.59239788793E+02 -0.58770202323E+02  0.18538343170E+02  0.85480754704E+02  0.00000000000E+00 0. -1.
          1    1    5    5  503    0  0.22057099310E+03  0.15130313142E+03  0.22224096145E+03  0.34775745214E+03  0.00000000000E+00 0. -1.
         -2    1    5    5    0  503  0.27324259088E+03  0.99951005914E+02  0.19113178284E+03  0.34811359564E+03  0.00000000000E+00 0.  1.
         -3    1    6    6    0  502 -0.24685460761E+03 -0.71047730290E+02  0.11925615921E+03  0.28320841934E+03  0.00000000000E+00 0.  1.
<mgrwt>
<rscale>  0 0.16060580E+04</rscale>
<asrwt>0</asrwt>
<pdfrwt beam="1">  1        1 0.37348278E+00 0.16060580E+04</pdfrwt>
<pdfrwt beam="2">  1       -1 0.40866284E-01 0.16060580E+04</pdfrwt>
<totfact> 0.85533541E+00</totfact>
</mgrwt>
</event>
<event>
12    1  0.1598876E-007  0.2335396E+04  0.7818608E-02  0.8464094E-01
         -2   -1    0    0    0  501 -0.00000000000E+00  0.00000000000E+00  0.64640292625E+03  0.64640292625E+03  0.00000000000E+00 0.  1.
          2   -1    0    0  501    0  0.00000000000E+00 -0.00000000000E+00 -0.21093950850E+04  0.21093950850E+04  0.00000000000E+00 0. -1.
         23    2    1    2    0    0 -0.38670075396E+03 -0.84509351324E+03 -0.10428463156E+04  0.13997226802E+04  0.89300752174E+02 0.  0.
        254    2    1    2    0    0  0.38670075396E+03  0.84509351324E+03 -0.42014584315E+03  0.13560753310E+04  0.89369863749E+03 0.  0.
        -24    2    4    4    0    0 -0.15471185140E+03  0.57985960749E+03 -0.43867549384E+03  0.74817733373E+03  0.84618038554E+02 0.  0.
         24    2    4    4    0    0  0.54141260535E+03  0.26523390575E+03  0.18529650688E+02  0.60789799729E+03  0.75630636422E+02 0.  0.
         11    1    3    3    0    0 -0.13731854540E+03 -0.33065511637E+03 -0.46490799195E+03  0.58679521971E+03  0.00000000000E+00 0. -1.
        -11    1    3    3    0    0 -0.24938220855E+03 -0.51443839686E+03 -0.57793832367E+03  0.81292746052E+03  0.00000000000E+00 0.  1.
          2    1    6    6  502    0  0.22744809328E+02 -0.19222451525E+01  0.85787260491E+01  0.24384747659E+02  0.00000000000E+00 0. -1.
          3    1    5    5  503    0 -0.76720578212E+01  0.15044147148E+03 -0.13300633048E+03  0.20095318051E+03  0.00000000000E+00 0. -1.
         -4    1    5    5    0  503 -0.14703979358E+03  0.42941813601E+03 -0.30566916336E+03  0.54722415321E+03  0.00000000000E+00 0.  1.
         -1    1    6    6    0  502  0.51866779603E+03  0.26715615090E+03  0.99509246384E+01  0.58351324964E+03  0.00000000000E+00 0.  1.
<mgrwt>
<rscale>  0 0.23353965E+04</rscale>
<asrwt>0</asrwt>
<pdfrwt beam="1">  1        2 0.32452231E+00 0.23353965E+04</pdfrwt>
<pdfrwt beam="2">  1       -2 0.99446608E-01 0.23353965E+04</pdfrwt>
<totfact> 0.43917059E+00</totfact>
</mgrwt>
</event>
<event>
12    1  0.1598876E-007  0.1436275E+04  0.7818608E-02  0.8927971E-01
          1   -1    0    0  501    0  0.00000000000E+00  0.00000000000E+00  0.82049421069E+03  0.82049421069E+03  0.00000000000E+00 0. -1.
         -1   -1    0    0    0  501 -0.00000000000E+00 -0.00000000000E+00 -0.62854976910E+03  0.62854976910E+03  0.00000000000E+00 0.  1.
         23    2    1    2    0    0  0.11771496992E+03  0.26419370903E+03  0.37846813345E+03  0.48492603742E+03  0.90884562491E+02 0.  0.
        254    2    1    2    0    0 -0.11771496992E+03 -0.26419370903E+03 -0.18652369186E+03  0.96411794236E+03  0.90059823957E+03 0.  0.
        -24    2    4    4    0    0  0.15728490909E+03 -0.45644520030E+03  0.11781690266E+03  0.50363931306E+03  0.81798359447E+02 0.  0.
         24    2    4    4    0    0 -0.27499987902E+03  0.19225149127E+03 -0.30434059452E+03  0.46047862930E+03  0.82654710779E+02 0.  0.
         11    1    3    3    0    0  0.91440135378E+02  0.22283281459E+03  0.24871923594E+03  0.34623260959E+03  0.00000000000E+00 0. -1.
        -11    1    3    3    0    0  0.26274834547E+02  0.41360894433E+02  0.12974889750E+03  0.13869342783E+03  0.00000000000E+00 0.  1.
          4    1    6    6  502    0 -0.12504028061E+03  0.38595001328E+02 -0.11447037958E+03  0.17386234125E+03  0.00000000000E+00 0. -1.
          3    1    5    5  503    0 -0.52102581121E+00 -0.71605799998E+02  0.34304789431E+02  0.79400759689E+02  0.00000000000E+00 0. -1.
         -4    1    5    5    0  503  0.15780593490E+03 -0.38483940030E+03  0.83512113228E+02  0.42423855337E+03  0.00000000000E+00 0.  1.
         -3    1    6    6    0  502 -0.14995959840E+03  0.15365648994E+03 -0.18987021494E+03  0.28661628805E+03  0.00000000000E+00 0.  1.
<mgrwt>
<rscale>  0 0.14362750E+04</rscale>
<asrwt>0</asrwt>
<pdfrwt beam="1">  1        1 0.12622988E+00 0.14362750E+04</pdfrwt>
<pdfrwt beam="2">  1       -1 0.96699964E-01 0.14362750E+04</pdfrwt>
<totfact> 0.21236468E+01</totfact>
</mgrwt>
</event>
<event>
12    1  0.1598876E-007  0.1471801E+04  0.7818608E-02  0.8903425E-01
         -2   -1    0    0    0  501 -0.00000000000E+00  0.00000000000E+00  0.16242838352E+03  0.16242838352E+03  0.00000000000E+00 0.  1.
          2   -1    0    0  501    0  0.00000000000E+00 -0.00000000000E+00 -0.33340809694E+04  0.33340809694E+04  0.00000000000E+00 0. -1.
         23    2    1    2    0    0 -0.13207721777E+03  0.23597150762E+03 -0.12243808753E+03  0.31036854538E+03  0.90612387787E+02 0.  0.
        254    2    1    2    0    0  0.13207721777E+03 -0.23597150762E+03 -0.30492144984E+04  0.31861408076E+04  0.88354809981E+03 0.  0.
        -24    2    4    4    0    0  0.96456060390E+02  0.32874184920E+03 -0.11244723343E+04  0.11782163617E+04  0.79879843189E+02 0.  0.
         24    2    4    4    0    0  0.35621157377E+02 -0.56471335682E+03 -0.19247421641E+04  0.20079244459E+04  0.83415465905E+02 0.  0.
         11    1    3    3    0    0 -0.90403396149E+01  0.20796166420E+02 -0.45494715731E+02  0.50832838181E+02  0.00000000000E+00 0. -1.
        -11    1    3    3    0    0 -0.12303687815E+03  0.21517534120E+03 -0.76943371795E+02  0.25953570720E+03  0.00000000000E+00 0.  1.
          2    1    6    6  502    0  0.29349573329E+02 -0.22119916301E+03 -0.89415858005E+03  0.92158018287E+03  0.00000000000E+00 0. -1.
          1    1    5    5  503    0 -0.10103960816E+02  0.57614865464E+01 -0.41012820783E+02  0.42630226601E+02  0.00000000000E+00 0. -1.
         -2    1    5    5    0  503  0.10656002121E+03  0.32298036265E+03 -0.10834595135E+04  0.11355861351E+04  0.00000000000E+00 0.  1.
         -1    1    6    6    0  502  0.62715840483E+01 -0.34351419381E+03 -0.10305835840E+04  0.10863442630E+04  0.00000000000E+00 0.  1.
<mgrwt>
<rscale>  0 0.14718008E+04</rscale>
<asrwt>0</asrwt>
<pdfrwt beam="1">  1        2 0.51293554E+00 0.14718008E+04</pdfrwt>
<pdfrwt beam="2">  1       -2 0.24988982E-01 0.14718008E+04</pdfrwt>
<totfact> 0.14872963E+01</totfact>
</mgrwt>
</event>
<event>
12    1  0.1598876E-007  0.1891109E+04  0.7818608E-02  0.8659294E-01
          1   -1    0    0  501    0  0.00000000000E+00  0.00000000000E+00  0.46349223085E+03  0.46349223085E+03  0.00000000000E+00 0. -1.
         -1   -1    0    0    0  501 -0.00000000000E+00 -0.00000000000E+00 -0.19289939980E+04  0.19289939980E+04  0.00000000000E+00 0.  1.
         23    2    1    2    0    0 -0.16591475276E+03 -0.69917188303E+03 -0.67024069677E+03  0.98696598836E+03  0.92250980301E+02 0.  0.
        254    2    1    2    0    0  0.16591475276E+03  0.69917188303E+03 -0.79526107039E+03  0.14055202405E+04  0.90921831766E+03 0.  0.
        -24    2    4    4    0    0  0.27711280165E+03  0.69910585624E+03 -0.93990277933E+03  0.12063057958E+04  0.78841202688E+02 0.  0.
         24    2    4    4    0    0 -0.11119804889E+03  0.66026784491E-01  0.14464170894E+03  0.19921444473E+03  0.80001003656E+02 0.  0.
         13    1    3    3    0    0 -0.22204888434E+02 -0.21055642422E+03 -0.24198386424E+03  0.32153266616E+03  0.00000000000E+00 0. -1.
        -13    1    3    3    0    0 -0.14370986433E+03 -0.48861545881E+03 -0.42825683252E+03  0.66543332220E+03  0.00000000000E+00 0.  1.
          4    1    6    6  502    0 -0.70358391473E+02 -0.37986497840E+02  0.71959169495E+02  0.10757043898E+03  0.00000000000E+00 0. -1.
          3    1    5    5  503    0  0.75321682143E+02  0.12805332999E+03 -0.22085301924E+03  0.26617112396E+03  0.00000000000E+00 0. -1.
         -4    1    5    5    0  503  0.20179111951E+03  0.57105252626E+03 -0.71904976009E+03  0.94013467181E+03  0.00000000000E+00 0.  1.
         -3    1    6    6    0  502 -0.40839657417E+02  0.38052524625E+02  0.72682539445E+02  0.91644005742E+02  0.00000000000E+00 0.  1.
<mgrwt>
<rscale>  0 0.18911094E+04</rscale>
<asrwt>0</asrwt>
<pdfrwt beam="1">  1        1 0.71306497E-01 0.18911094E+04</pdfrwt>
<pdfrwt beam="2">  1       -1 0.29676831E+00 0.18911094E+04</pdfrwt>
<totfact> 0.15974715E+00</totfact>
</mgrwt>
</event>
<event>
12    1  0.1598876E-007  0.2388721E+04  0.7818608E-02  0.8443738E-01
         -2   -1    0    0    0  501 -0.00000000000E+00  0.00000000000E+00  0.36742006157E+03  0.36742006157E+03  0.00000000000E+00 0.  1.
          2   -1    0    0  501    0  0.00000000000E+00 -0.00000000000E+00 -0.38824703836E+04  0.38824703836E+04  0.00000000000E+00 0. -1.
         23    2    1    2    0    0 -0.95975992627E+03  0.27381156483E+02 -0.21149821461E+04  0.23247228023E+04  0.96425025379E+02 0.  0.
        254    2    1    2    0    0  0.95975992627E+03 -0.27381156483E+02 -0.14000681760E+04  0.19251676429E+04  0.90784949857E+03 0.  0.
        -24    2    4    4    0    0  0.32194473290E+03 -0.37618262223E+03 -0.24650631810E+03  0.55896536426E+03  0.80716400271E+02 0.  0.
         24    2    4    4    0    0  0.63781519337E+03  0.34880146575E+03 -0.11535618579E+04  0.13662022786E+04  0.85633070605E+02 0.  0.
         11    1    3    3    0    0 -0.34716021453E+03  0.50365690514E+02 -0.71575235218E+03  0.79709368771E+03  0.00000000000E+00 0.  1.
        -11    1    3    3    0    0 -0.61259971174E+03 -0.22984534031E+02 -0.13992297939E+04  0.15276291146E+04  0.00000000000E+00 0. -1.
          4    1    6    6  502    0  0.29050909604E+03  0.13194059873E+03 -0.57180590665E+03  0.65480214673E+03  0.00000000000E+00 0. -1.
          1    1    5    5  503    0  0.38699922064E+02 -0.27540067076E+02 -0.20171239794E+01  0.47541645443E+02  0.00000000000E+00 0. -1.
         -2    1    5    5    0  503  0.28324481083E+03 -0.34864255515E+03 -0.24448919412E+03  0.51142371882E+03  0.00000000000E+00 0.  1.
         -3    1    6    6    0  502  0.34730609733E+03  0.21686086701E+03 -0.58175595122E+03  0.71140013190E+03  0.00000000000E+00 0.  1.
<mgrwt>
<rscale>  0 0.23887214E+04</rscale>
<asrwt>0</asrwt>
<pdfrwt beam="1">  1        2 0.59730315E+00 0.23887214E+04</pdfrwt>
<pdfrwt beam="2">  1       -2 0.56526162E-01 0.23887214E+04</pdfrwt>
<totfact> 0.11257657E+00</totfact>
</mgrwt>
</event>
<event>
12    1  0.1598876E-007  0.1972263E+04  0.7818608E-02  0.8619699E-01
         -1   -1    0    0    0  501 -0.00000000000E+00  0.00000000000E+00  0.10234585907E+04  0.10234585907E+04  0.00000000000E+00 0.  1.
          1   -1    0    0  501    0  0.00000000000E+00 -0.00000000000E+00 -0.95016590389E+03  0.95016590389E+03  0.00000000000E+00 0. -1.
         23    2    1    2    0    0  0.15124515118E+03 -0.73350140805E+03  0.29404413550E+03  0.80978894963E+03  0.91633934532E+02 0.  0.
        254    2    1    2    0    0 -0.15124515118E+03  0.73350140805E+03 -0.22075144867E+03  0.11638355450E+04  0.86306579257E+03 0.  0.
        -24    2    4    4    0    0  0.77330166366E+02 -0.16819664958E+03 -0.90506442972E+02  0.22114892816E+03  0.80283028381E+02 0.  0.
         24    2    4    4    0    0 -0.22857531754E+03  0.90169805762E+03 -0.13024500570E+03  0.94268661682E+03  0.79926423097E+02 0.  0.
         13    1    3    3    0    0  0.10309451082E+03 -0.57934864638E+03  0.19302773631E+03  0.61930044341E+03  0.00000000000E+00 0.  1.
        -13    1    3    3    0    0  0.48150640361E+02 -0.15415276167E+03  0.10101639918E+03  0.19048850622E+03  0.00000000000E+00 0. -1.
          4    1    6    6  502    0 -0.20793778970E+03  0.82363301012E+03 -0.14142943007E+03  0.86116882401E+03  0.00000000000E+00 0. -1.
          3    1    5    5  503    0  0.91554831425E+02 -0.12465913052E+03 -0.80102588957E+02  0.17417982299E+03  0.00000000000E+00 0. -1.
         -4    1    5    5    0  503 -0.14224665059E+02 -0.43537519059E+02 -0.10403854015E+02  0.46969105167E+02  0.00000000000E+00 0.  1.
         -3    1    6    6    0  502 -0.20637527839E+02  0.78065047503E+02  0.11184424371E+02  0.81517792815E+02  0.00000000000E+00 0.  1.
<mgrwt>
<rscale>  0 0.19722631E+04</rscale>
<asrwt>0</asrwt>
<pdfrwt beam="1">  1        1 0.14617937E+00 0.19722631E+04</pdfrwt>
<pdfrwt beam="2">  1       -1 0.15745517E+00 0.19722631E+04</pdfrwt>
<totfact> 0.47084148E+00</totfact>
</mgrwt>
</event>
<event>
12    1  0.1598876E-007  0.1840604E+04  0.7818608E-02  0.8685000E-01
         -1   -1    0    0    0  501 -0.00000000000E+00  0.00000000000E+00  0.91861515292E+03  0.91861515292E+03  0.00000000000E+00 0.  1.
          1   -1    0    0  501    0  0.00000000000E+00 -0.00000000000E+00 -0.92199229767E+03  0.92199229767E+03  0.00000000000E+00 0. -1.
         23    2    1    2    0    0 -0.29093333213E+02  0.20513477301E+03 -0.66855864419E+03  0.70551398865E+03  0.88615068247E+02 0.  0.
        254    2    1    2    0    0  0.29093333213E+02 -0.20513477301E+03  0.66518149944E+03  0.11350934619E+04  0.89612724711E+03 0.  0.
        -24    2    4    4    0    0 -0.37360346128E+03  0.10967450264E+03  0.23343198118E+03  0.46121025414E+03  0.81341046666E+02 0.  0.
         24    2    4    4    0    0  0.40269679449E+03 -0.31480927565E+03  0.43174951826E+03  0.67388320781E+03  0.80257977284E+02 0.  0.
         13    1    3    3    0    0 -0.44842963168E+02  0.19298836775E+03 -0.64467066837E+03  0.67442988671E+03  0.00000000000E+00 0. -1.
        -13    1    3    3    0    0  0.15749629955E+02  0.12146405261E+02 -0.23887975824E+02  0.31084101941E+02  0.00000000000E+00 0.  1.
          2    1    6    6  502    0  0.97338360626E+02 -0.10131602004E+03  0.81015540305E+02  0.16218264437E+03  0.00000000000E+00 0. -1.
          3    1    5    5  503    0 -0.80811031139E+02 -0.98690006906E+01  0.52133985916E+02  0.96673535240E+02  0.00000000000E+00 0. -1.
         -4    1    5    5    0  503 -0.29279243014E+03  0.11954350333E+03  0.18129799526E+03  0.36453671890E+03  0.00000000000E+00 0.  1.
         -1    1    6    6    0  502  0.30535843387E+03 -0.21349325561E+03  0.35073397795E+03  0.51170056343E+03  0.00000000000E+00 0.  1.
<mgrwt>
<rscale>  0 0.18406044E+04</rscale>
<asrwt>0</asrwt>
<pdfrwt beam="1">  1        1 0.14184497E+00 0.18406044E+04</pdfrwt>
<pdfrwt beam="2">  1       -1 0.14132541E+00 0.18406044E+04</pdfrwt>
<totfact> 0.67143969E+00</totfact>
</mgrwt>
</event>
<event>
12    1  0.1598876E-007  0.1786784E+04  0.7818608E-02  0.8713359E-01
         -1   -1    0    0    0  501 -0.00000000000E+00  0.00000000000E+00  0.75415918703E+03  0.75415918703E+03  0.00000000000E+00 0.  1.
          1   -1    0    0  501    0  0.00000000000E+00 -0.00000000000E+00 -0.10583302194E+04  0.10583302194E+04  0.00000000000E+00 0. -1.
         23    2    1    2    0    0 -0.48705031397E+03  0.29120948049E+03 -0.47098662632E+03  0.74303591914E+03  0.90846051635E+02 0.  0.
        254    2    1    2    0    0  0.48705031397E+03 -0.29120948049E+03  0.16681559394E+03  0.10694534873E+04  0.89100075715E+03 0.  0.
        -24    2    4    4    0    0  0.27939963137E+02  0.14516206739E+03 -0.25463916147E+03  0.30443814247E+03  0.77387419447E+02 0.  0.
         24    2    4    4    0    0  0.45911035084E+03 -0.43637154788E+03  0.42145475541E+03  0.76501534483E+03  0.80136913630E+02 0.  0.
         13    1    3    3    0    0 -0.24060020739E+03  0.19472714964E+03 -0.23834604742E+03  0.39066092833E+03  0.00000000000E+00 0. -1.
        -13    1    3    3    0    0 -0.24645010658E+03  0.96482330856E+02 -0.23264057890E+03  0.35237499082E+03  0.00000000000E+00 0.  1.
          4    1    6    6  502    0  0.37681466363E+03 -0.31332026956E+03  0.31270496925E+03  0.58132889128E+03  0.00000000000E+00 0. -1.
          1    1    5    5  503    0  0.35476531465E+01  0.13615741708E+03 -0.18226132299E+03  0.22753157567E+03  0.00000000000E+00 0. -1.
         -2    1    5    5    0  503  0.24392309991E+02  0.90046503026E+01 -0.72377838476E+02  0.76906566795E+02  0.00000000000E+00 0.  1.
         -3    1    6    6    0  502  0.82295687209E+02 -0.12305127832E+03  0.10874978615E+03  0.18368645355E+03  0.00000000000E+00 0.  1.
<mgrwt>
<rscale>  0 0.17867842E+04</rscale>
<asrwt>0</asrwt>
<pdfrwt beam="1">  1        1 0.16282003E+00 0.17867842E+04</pdfrwt>
<pdfrwt beam="2">  1       -1 0.11602449E+00 0.17867842E+04</pdfrwt>
<totfact> 0.86574283E+00</totfact>
</mgrwt>
</event>
<event>
12    1  0.1598876E-007  0.1548185E+04  0.7818608E-02  0.8853028E-01
          2   -1    0    0  501    0  0.00000000000E+00  0.00000000000E+00  0.12610612453E+04  0.12610612453E+04  0.00000000000E+00 0. -1.
         -2   -1    0    0    0  501 -0.00000000000E+00 -0.00000000000E+00 -0.47517068728E+03  0.47517068728E+03  0.00000000000E+00 0.  1.
         23    2    1    2    0    0 -0.35671741751E+02  0.82372190019E+02 -0.29712040997E+03  0.32317541724E+03  0.90023116149E+02 0.  0.
        254    2    1    2    0    0  0.35671741751E+02 -0.82372190019E+02  0.10830109680E+04  0.14130565154E+04  0.90319339454E+03 0.  0.
        -24    2    4    4    0    0 -0.39782210184E+03  0.81473811865E+02  0.66881587717E+03  0.78655671885E+03  0.80351650147E+02 0.  0.
         24    2    4    4    0    0  0.43349384359E+03 -0.16384600188E+03  0.41419509084E+03  0.62649979651E+03  0.78625676385E+02 0.  0.
         13    1    3    3    0    0  0.92755245828E+01  0.19348232248E+02 -0.18892545040E+03  0.19013998857E+03  0.00000000000E+00 0. -1.
        -13    1    3    3    0    0 -0.44947266333E+02  0.63023957771E+02 -0.10819495958E+03  0.13303542867E+03  0.00000000000E+00 0.  1.
          2    1    6    6  502    0  0.42206905827E+03 -0.15288263274E+03  0.37749782810E+03  0.58653218118E+03  0.00000000000E+00 0. -1.
          3    1    5    5  503    0 -0.26692418293E+03  0.74040376181E+02  0.51221371218E+03  0.58231725347E+03  0.00000000000E+00 0. -1.
         -4    1    5    5    0  503 -0.13089791891E+03  0.74334356849E+01  0.15660216499E+03  0.20423946538E+03  0.00000000000E+00 0.  1.
         -1    1    6    6    0  502  0.11424785327E+02 -0.10963369140E+02  0.36697262739E+02  0.39967615331E+02  0.00000000000E+00 0.  1.
<mgrwt>
<rscale>  0 0.15481852E+04</rscale>
<asrwt>0</asrwt>
<pdfrwt beam="1">  1        2 0.19400942E+00 0.15481852E+04</pdfrwt>
<pdfrwt beam="2">  1       -2 0.73103183E-01 0.15481852E+04</pdfrwt>
<totfact> 0.28349414E+01</totfact>
</mgrwt>
</event>
<event>
12    1  0.1598876E-007  0.1485649E+04  0.7818608E-02  0.8894052E-01
         -2   -1    0    0    0  501 -0.00000000000E+00  0.00000000000E+00  0.28568196042E+03  0.28568196042E+03  0.00000000000E+00 0. -1.
          2   -1    0    0  501    0  0.00000000000E+00 -0.00000000000E+00 -0.19314783158E+04  0.19314783158E+04  0.00000000000E+00 0.  1.
         23    2    1    2    0    0  0.38706136637E+03  0.24921836149E+02 -0.84308877270E+03  0.93251400064E+03  0.91356901630E+02 0.  0.
        254    2    1    2    0    0 -0.38706136637E+03 -0.24921836149E+02 -0.80270758265E+03  0.12846462756E+04  0.92495350737E+03 0.  0.
        -24    2    4    4    0    0  0.34031537284E+02  0.31028982330E+03 -0.77541412874E+01  0.32166829605E+03  0.77281601958E+02 0.  0.
         24    2    4    4    0    0 -0.42109290366E+03 -0.33521165945E+03 -0.79495344136E+03  0.96297797950E+03  0.75428939598E+02 0.  0.
         11    1    3    3    0    0  0.35021821896E+03 -0.37367952049E+01 -0.71470559472E+03  0.79590882120E+03  0.00000000000E+00 0.  1.
        -11    1    3    3    0    0  0.36843147412E+02  0.28658631354E+02 -0.12838317798E+03  0.13660517944E+03  0.00000000000E+00 0. -1.
          2    1    6    6  502    0 -0.23677940546E+03 -0.19042131764E+03 -0.51401228161E+03  0.59710417073E+03  0.00000000000E+00 0. -1.
          3    1    5    5  503    0 -0.10163283456E+02  0.72426881668E+02  0.25511400133E+02  0.77458227810E+02  0.00000000000E+00 0. -1.
         -4    1    5    5    0  503  0.44194820740E+02  0.23786294164E+03 -0.33265541421E+02  0.24421006824E+03  0.00000000000E+00 0.  1.
         -1    1    6    6    0  502 -0.18431349820E+03 -0.14479034181E+03 -0.28094115976E+03  0.36587380877E+03  0.00000000000E+00 0.  1.
<mgrwt>
<rscale>  0 0.14856494E+04</rscale>
<asrwt>0</asrwt>
<pdfrwt beam="1">  1        2 0.29715050E+00 0.14856494E+04</pdfrwt>
<pdfrwt beam="2">  1       -2 0.43951073E-01 0.14856494E+04</pdfrwt>
<totfact> 0.34641530E+01</totfact>
</mgrwt>
</event>
<event>
12    1  0.1598876E-007  0.1363247E+04  0.7818608E-02  0.8980860E-01
          2   -1    0    0  501    0  0.00000000000E+00  0.00000000000E+00  0.50177136605E+03  0.50177136605E+03  0.00000000000E+00 0. -1.
         -2   -1    0    0    0  501 -0.00000000000E+00 -0.00000000000E+00 -0.92594124148E+03  0.92594124148E+03  0.00000000000E+00 0.  1.
         23    2    1    2    0    0  0.34224844206E+03 -0.75649414074E+02 -0.22719834740E+03  0.42634367700E+03  0.85399133003E+02 0.  0.
        254    2    1    2    0    0 -0.34224844206E+03  0.75649414074E+02 -0.19697152803E+03  0.10013689305E+04  0.91710693064E+03 0.  0.
        -24    2    4    4    0    0  0.26505492374E+03 -0.43197624819E+02 -0.24669972973E+03  0.37430248969E+03  0.84388682566E+02 0.  0.
         24    2    4    4    0    0 -0.60730336581E+03  0.11884703889E+03  0.49728201699E+02  0.62706644084E+03  0.88303060066E+02 0.  0.
         13    1    3    3    0    0  0.28315566804E+02 -0.33474215248E+02 -0.23478629240E+02  0.49734700571E+02  0.00000000000E+00 0. -1.
        -13    1    3    3    0    0  0.31393287526E+03 -0.42175198826E+02 -0.20371971816E+03  0.37660897643E+03  0.00000000000E+00 0.  1.
          2    1    6    6  502    0 -0.45931165442E+03  0.90269261515E+02 -0.79422592790E+00  0.46809867150E+03  0.00000000000E+00 0. -1.
          1    1    5    5  503    0  0.26063339395E+03 -0.45008314259E+02 -0.25325688127E+03  0.36618924384E+03  0.00000000000E+00 0. -1.
         -2    1    5    5    0  503  0.44215297917E+01  0.18106894397E+01  0.65571515337E+01  0.81132458475E+01  0.00000000000E+00 0.  1.
         -1    1    6    6    0  502 -0.14799171138E+03  0.28577777378E+02  0.50522427627E+02  0.15896776935E+03  0.00000000000E+00 0.  1.
<mgrwt>
<rscale>  0 0.13632473E+04</rscale>
<asrwt>0</asrwt>
<pdfrwt beam="1">  1        2 0.77195595E-01 0.13632473E+04</pdfrwt>
<pdfrwt beam="2">  1       -2 0.14245250E+00 0.13632473E+04</pdfrwt>
<totfact> 0.20526840E+01</totfact>
</mgrwt>
</event>
<event>
12    1  0.1598876E-007  0.1240810E+04  0.7818608E-02  0.9077867E-01
          1   -1    0    0  501    0  0.00000000000E+00  0.00000000000E+00  0.16187621948E+04  0.16187621948E+04  0.00000000000E+00 0. -1.
         -1   -1    0    0    0  501 -0.00000000000E+00 -0.00000000000E+00 -0.23777571988E+03  0.23777571988E+03  0.00000000000E+00 0.  1.
         23    2    1    2    0    0 -0.75427872502E+02  0.19819590670E+03  0.50072356851E+03  0.55134627183E+03  0.91036465283E+02 0.  0.
        254    2    1    2    0    0  0.75427872502E+02 -0.19819590670E+03  0.88026290637E+03  0.13051916428E+04  0.94004864702E+03 0.  0.
        -24    2    4    4    0    0  0.40023793896E+03  0.18829248528E+03  0.35922156047E+03  0.57524013624E+03  0.78845526463E+02 0.  0.
         24    2    4    4    0    0 -0.32481006645E+03 -0.38648839198E+03  0.52104134590E+03  0.72995150658E+03  0.80437935182E+02 0.  0.
         11    1    3    3    0    0 -0.48610662907E+02  0.19465553443E+03  0.46580139655E+03  0.50717325902E+03  0.00000000000E+00 0. -1.
        -11    1    3    3    0    0 -0.26817209595E+02  0.35403722684E+01  0.34922171962E+02  0.44173012811E+02  0.00000000000E+00 0.  1.
          2    1    6    6  502    0 -0.51517316536E+02 -0.10118682387E+03  0.87118922245E+02  0.14311713329E+03  0.00000000000E+00 0. -1.
          1    1    5    5  503    0  0.10840276589E+03  0.70443107165E+02  0.66309616625E+02  0.14529403380E+03  0.00000000000E+00 0. -1.
         -2    1    5    5    0  503  0.29183517306E+03  0.11784937812E+03  0.29291194385E+03  0.42994610244E+03  0.00000000000E+00 0.  1.
         -1    1    6    6    0  502 -0.27329274992E+03 -0.28530156810E+03  0.43392242365E+03  0.58683437328E+03  0.00000000000E+00 0.  1.
<mgrwt>
<rscale>  0 0.12408100E+04</rscale>
<asrwt>0</asrwt>
<pdfrwt beam="1">  1        1 0.24904033E+00 0.12408100E+04</pdfrwt>
<pdfrwt beam="2">  1       -1 0.36580881E-01 0.12408100E+04</pdfrwt>
<totfact> 0.38309271E+01</totfact>
</mgrwt>
</event>
<event>
12    1  0.1598876E-007  0.3231220E+04  0.7818608E-02  0.8180620E-01
          2   -1    0    0  501    0  0.00000000000E+00  0.00000000000E+00  0.31343039819E+04  0.31343039819E+04  0.00000000000E+00 0.  1.
         -2   -1    0    0    0  501 -0.00000000000E+00 -0.00000000000E+00 -0.83278301838E+03  0.83278301838E+03  0.00000000000E+00 0. -1.
         23    2    1    2    0    0  0.61989804157E+03  0.31803063902E+03  0.26783731485E+04  0.27695156947E+04  0.10543904086E+03 0.  0.
        254    2    1    2    0    0 -0.61989804157E+03 -0.31803063902E+03 -0.37685218499E+03  0.11975713056E+04  0.89818839520E+03 0.  0.
        -24    2    4    4    0    0 -0.81900230061E+03 -0.31031476782E+03 -0.42360641938E+03  0.97623738021E+03  0.80851718976E+02 0.  0.
         24    2    4    4    0    0  0.19910425904E+03 -0.77158712072E+01  0.46754234388E+02  0.22133392534E+03  0.84265695505E+02 0.  0.
         13    1    3    3    0    0  0.15659907104E+02  0.33068398463E+02  0.13999391462E+03  0.14469639871E+03  0.00000000000E+00 0. -1.
        -13    1    3    3    0    0  0.60423813446E+03  0.28496224056E+03  0.25383792339E+04  0.26248192960E+04  0.00000000000E+00 0.  1.
          2    1    6    6  502    0  0.46408685954E+01 -0.20910008279E+02  0.52704088571E+01  0.22057726924E+02  0.00000000000E+00 0. -1.
          3    1    5    5  503    0 -0.23390329402E+03 -0.57554171169E+02 -0.14017373254E+03  0.27869680455E+03  0.00000000000E+00 0. -1.
         -4    1    5    5    0  503 -0.58509900658E+03 -0.25276059665E+03 -0.28343268683E+03  0.69754057566E+03  0.00000000000E+00 0.  1.
         -1    1    6    6    0  502  0.19446339044E+03  0.13194137072E+02  0.41483825531E+02  0.19927619842E+03  0.00000000000E+00 0.  1.
<mgrwt>
<rscale>  0 0.32312197E+04</rscale>
<asrwt>0</asrwt>
<pdfrwt beam="1">  1        2 0.48220061E+00 0.32312197E+04</pdfrwt>
<pdfrwt beam="2">  1       -2 0.12812047E+00 0.32312197E+04</pdfrwt>
<totfact> 0.54088749E-01</totfact>
</mgrwt>
</event>
<event>
12    1  0.1598876E-007  0.1592022E+04  0.7818608E-02  0.8825464E-01
         -2   -1    0    0    0  501 -0.00000000000E+00  0.00000000000E+00  0.13756605165E+03  0.13756605165E+03  0.00000000000E+00 0.  1.
          2   -1    0    0  501    0  0.00000000000E+00 -0.00000000000E+00 -0.46060288747E+04  0.46060288747E+04  0.00000000000E+00 0. -1.
         23    2    1    2    0    0 -0.45857149100E+02  0.20063134507E+03 -0.50848339655E+02  0.23056783653E+03  0.90665091672E+02 0.  0.
        254    2    1    2    0    0  0.45857149100E+02 -0.20063134507E+03 -0.44176144834E+04  0.45130270898E+04  0.89985553001E+03 0.  0.
        -24    2    4    4    0    0 -0.21110481811E+02  0.30577691156E+03 -0.83218003907E+03  0.89052557388E+03  0.81037079323E+02 0.  0.
         24    2    4    4    0    0  0.66967630911E+02 -0.50640825663E+03 -0.35854344443E+04  0.36225015159E+04  0.79013242671E+02 0.  0.
         11    1    3    3    0    0  0.75485159962E+00 -0.40369459630E+01 -0.17562265847E+02  0.18036072614E+02  0.00000000000E+00 0. -1.
        -11    1    3    3    0    0 -0.46612000699E+02  0.20466829103E+03 -0.33286073808E+02  0.21253176391E+03  0.00000000000E+00 0.  1.
          4    1    6    6  502    0  0.50024725201E+02 -0.48865312250E+03 -0.34594176543E+04  0.34941171781E+04  0.00000000000E+00 0. -1.
          3    1    5    5  503    0  0.24245677851E+01  0.13084792936E+03 -0.25007589707E+03  0.28224991310E+03  0.00000000000E+00 0. -1.
         -4    1    5    5    0  503 -0.23535049596E+02  0.17492898220E+03 -0.58210414199E+03  0.60827566078E+03  0.00000000000E+00 0.  1.
         -3    1    6    6    0  502  0.16942905710E+02 -0.17755134132E+02 -0.12601679002E+03  0.12838433786E+03  0.00000000000E+00 0.  1.
<mgrwt>
<rscale>  0 0.15920216E+04</rscale>
<asrwt>0</asrwt>
<pdfrwt beam="1">  1        2 0.70861979E+00 0.15920216E+04</pdfrwt>
<pdfrwt beam="2">  1       -2 0.21164009E-01 0.15920216E+04</pdfrwt>
<totfact> 0.18494109E+00</totfact>
</mgrwt>
</event>
<event>
12    1  0.1598876E-007  0.1635845E+04  0.7818608E-02  0.8798825E-01
         -1   -1    0    0    0  501 -0.00000000000E+00  0.00000000000E+00  0.38284549809E+03  0.38284549809E+03  0.00000000000E+00 0.  1.
          1   -1    0    0  501    0  0.00000000000E+00 -0.00000000000E+00 -0.17474344637E+04  0.17474344637E+04  0.00000000000E+00 0. -1.
         23    2    1    2    0    0 -0.24168320231E+03 -0.15188548812E+03 -0.11016164325E+04  0.11417972617E+04  0.93071212911E+02 0.  0.
        254    2    1    2    0    0  0.24168320231E+03  0.15188548812E+03 -0.26297253307E+03  0.98848270007E+03  0.90910039237E+03 0.  0.
        -24    2    4    4    0    0 -0.10002737350E+02  0.17779640125E+03  0.30504964059E+03  0.36150439836E+03  0.76931994381E+02 0.  0.
         24    2    4    4    0    0  0.25168593966E+03 -0.25910913130E+02 -0.56802217366E+03  0.62697830171E+03  0.80221028371E+02 0.  0.
         11    1    3    3    0    0 -0.10188242952E+02 -0.39689736783E+02 -0.11094973284E+03  0.11827475943E+03  0.00000000000E+00 0.  1.
        -11    1    3    3    0    0 -0.23149495936E+03 -0.11219575134E+03 -0.99066669969E+03  0.10235225023E+04  0.00000000000E+00 0. -1.
          4    1    6    6  502    0  0.14930619956E+02 -0.15803493507E+02 -0.10055301670E+03  0.10287654245E+03  0.00000000000E+00 0. -1.
          3    1    5    5  503    0 -0.11866410839E+02  0.40923725188E+01  0.27537887378E+01  0.12850780966E+02  0.00000000000E+00 0. -1.
         -4    1    5    5    0  503  0.18636734892E+01  0.17370402873E+03  0.30229585185E+03  0.34865361740E+03  0.00000000000E+00 0.  1.
         -3    1    6    6    0  502  0.23675531970E+03 -0.10107419622E+02 -0.46746915696E+03  0.52410175925E+03  0.00000000000E+00 0.  1.
<mgrwt>
<rscale>  0 0.16358452E+04</rscale>
<asrwt>0</asrwt>
<pdfrwt beam="1">  1        1 0.26883607E+00 0.16358452E+04</pdfrwt>
<pdfrwt beam="2">  1       -1 0.58899308E-01 0.16358452E+04</pdfrwt>
<totfact> 0.12365725E+01</totfact>
</mgrwt>
</event>
<event>
12    1  0.1598876E-007  0.1174858E+04  0.7818608E-02  0.9135152E-01
         -1   -1    0    0    0  501 -0.00000000000E+00  0.00000000000E+00  0.38380182984E+03  0.38380182984E+03  0.00000000000E+00 0.  1.
          1   -1    0    0  501    0  0.00000000000E+00 -0.00000000000E+00 -0.89909147685E+03  0.89909147685E+03  0.00000000000E+00 0. -1.
         23    2    1    2    0    0  0.16410057027E+03 -0.14777704096E+00  0.65840096783E+02  0.19912780016E+03  0.91585716423E+02 0.  0.
        254    2    1    2    0    0 -0.16410057027E+03  0.14777704096E+00 -0.58112974379E+03  0.10837655065E+04  0.89994826241E+03 0.  0.
        -24    2    4    4    0    0 -0.29619648215E+03  0.23210944638E+03 -0.68562723063E+03  0.78604450150E+03  0.78575491272E+02 0.  0.
         24    2    4    4    0    0  0.13209591187E+03 -0.23196166934E+03  0.10449748684E+03  0.29772100502E+03  0.80389838286E+02 0.  0.
         11    1    3    3    0    0  0.16805292023E+03 -0.14579667532E+02  0.47079866304E+02  0.17513099244E+03  0.00000000000E+00 0. -1.
        -11    1    3    3    0    0 -0.39523499552E+01  0.14431890491E+02  0.18760230480E+02  0.23996807724E+02  0.00000000000E+00 0.  1.
          4    1    6    6  502    0  0.11589738120E+02  0.51251508580E+01  0.68618084148E+01  0.14410885321E+02  0.00000000000E+00 0. -1.
          1    1    5    5  503    0 -0.66945307194E+02  0.32382843386E+02 -0.85696277923E+02  0.11346442064E+03  0.00000000000E+00 0. -1.
         -2    1    5    5    0  503 -0.22925117495E+03  0.19972660300E+03 -0.59993095271E+03  0.67258008087E+03  0.00000000000E+00 0.  1.
         -3    1    6    6    0  502  0.12050617375E+03 -0.23708682020E+03  0.97635678423E+02  0.28331011970E+03  0.00000000000E+00 0.  1.
<mgrwt>
<rscale>  0 0.11748582E+04</rscale>
<asrwt>0</asrwt>
<pdfrwt beam="1">  1        1 0.13832177E+00 0.11748582E+04</pdfrwt>
<pdfrwt beam="2">  1       -1 0.59046436E-01 0.11748582E+04</pdfrwt>
<totfact> 0.52541742E+01</totfact>
</mgrwt>
</event>
<event>
12    1  0.1598876E-007  0.1659169E+04  0.7818608E-02  0.8785000E-01
         -2   -1    0    0    0  501 -0.00000000000E+00  0.00000000000E+00  0.16885970830E+04  0.16885970830E+04  0.00000000000E+00 0.  1.
          2   -1    0    0  501    0  0.00000000000E+00 -0.00000000000E+00 -0.40756359014E+03  0.40756359014E+03  0.00000000000E+00 0. -1.
         23    2    1    2    0    0  0.30395331276E+03  0.11267829295E+01 -0.16999881845E+03  0.36174284167E+03  0.97823306256E+02 0.  0.
        254    2    1    2    0    0 -0.30395331276E+03 -0.11267829295E+01  0.14510323113E+04  0.17344178315E+04  0.90017862652E+03 0.  0.
        -24    2    4    4    0    0 -0.49931041386E+03  0.26335718559E+03  0.11414648466E+04  0.12760837303E+04  0.82339505217E+02 0.  0.
         24    2    4    4    0    0  0.19535710110E+03 -0.26448396852E+03  0.30956746474E+03  0.45833410119E+03  0.78242996718E+02 0.  0.
         13    1    3    3    0    0  0.26709594471E+03  0.10253874836E+02 -0.18027748314E+03  0.32240557774E+03  0.00000000000E+00 0. -1.
        -13    1    3    3    0    0  0.36857368054E+02 -0.91270919060E+01  0.10278664681E+02  0.39337263938E+02  0.00000000000E+00 0.  1.
          4    1    6    6  502    0  0.20139740559E+03 -0.26015576275E+03  0.30813770008E+03  0.45076687776E+03  0.00000000000E+00 0. -1.
          1    1    5    5  503    0 -0.43180967676E+03  0.25702886631E+03  0.10154963492E+04  0.11330296864E+04  0.00000000000E+00 0. -1.
         -2    1    5    5    0  503 -0.67500737105E+02  0.63283192750E+01  0.12596849742E+03  0.14305404390E+03  0.00000000000E+00 0.  1.
         -3    1    6    6    0  502 -0.60403044928E+01 -0.43282057675E+01  0.14297646617E+01  0.75672234352E+01  0.00000000000E+00 0.  1.
<mgrwt>
<rscale>  0 0.16591693E+04</rscale>
<asrwt>0</asrwt>
<pdfrwt beam="1">  1        2 0.62702091E-01 0.16591693E+04</pdfrwt>
<pdfrwt beam="2">  1       -2 0.25978416E+00 0.16591693E+04</pdfrwt>
<totfact> 0.41611458E+00</totfact>
</mgrwt>
</event>
<event>
12    1  0.1915900E-007  0.1485606E+04  0.7818608E-02  0.8894081E-01
          1   -1    0    0  501    0  0.00000000000E+00  0.00000000000E+00  0.15362355694E+04  0.15362355694E+04  0.00000000000E+00 0. -1.
         -1   -1    0    0    0  501 -0.00000000000E+00 -0.00000000000E+00 -0.35916131253E+03  0.35916131253E+03  0.00000000000E+00 0.  1.
         23    2    1    2    0    0 -0.10089857973E+03  0.36283973452E+03  0.46533736700E+02  0.39098978576E+03  0.94204180281E+02 0.  0.
        254    2    1    2    0    0  0.10089857973E+03 -0.36283973452E+03  0.11305405201E+04  0.15044070961E+04  0.91830585696E+03 0.  0.
        -24    2    4    4    0    0 -0.12518364867E+03 -0.59768101091E+03  0.51396261731E+03  0.80228692597E+03  0.81321601647E+02 0.  0.
         24    2    4    4    0    0  0.22608222839E+03  0.23484127640E+03  0.61657790282E+03  0.70212017017E+03  0.80875361005E+02 0.  0.
         11    1    3    3    0    0 -0.93532417791E+02  0.36641521111E+03  0.51121135439E+02  0.38160423294E+03  0.00000000000E+00 0.  1.
        -11    1    3    3    0    0 -0.73661619347E+01 -0.35754765928E+01 -0.45873987392E+01  0.93855528184E+01  0.00000000000E+00 0. -1.
          4    1    6    6  502    0  0.13921692517E+01  0.54517328780E+00 -0.26034824464E+01  0.30022441586E+01  0.00000000000E+00 0. -1.
          1    1    5    5  503    0 -0.52368115496E+02 -0.10379731868E+03  0.11075545567E+03  0.16057108658E+03  0.00000000000E+00 0. -1.
         -2    1    5    5    0  503 -0.72815533169E+02 -0.49388369223E+03  0.40320716164E+03  0.64171583939E+03  0.00000000000E+00 0.  1.
         -3    1    6    6    0  502  0.22469005914E+03  0.23429610311E+03  0.61918138527E+03  0.69911792601E+03  0.00000000000E+00 0.  1.
<mgrwt>
<rscale>  0 0.14856061E+04</rscale>
<asrwt>0</asrwt>
<pdfrwt beam="1">  1        1 0.23634393E+00 0.14856061E+04</pdfrwt>
<pdfrwt beam="2">  1       -1 0.55255588E-01 0.14856061E+04</pdfrwt>
<totfact> 0.19798387E+01</totfact>
</mgrwt>
</event>
<event>
12    1  0.1598876E-007  0.1953654E+04  0.7818608E-02  0.8628601E-01
         -2   -1    0    0    0  501 -0.00000000000E+00  0.00000000000E+00  0.29007983765E+03  0.29007983765E+03  0.00000000000E+00 0.  1.
          2   -1    0    0  501    0  0.00000000000E+00 -0.00000000000E+00 -0.32894076652E+04  0.32894076652E+04  0.00000000000E+00 0. -1.
         23    2    1    2    0    0  0.13441621452E+03 -0.50111424832E+02  0.19730803956E+03  0.26043639232E+03  0.91201854950E+02 0.  0.
        254    2    1    2    0    0 -0.13441621452E+03  0.50111424832E+02 -0.31966358671E+04  0.33190511105E+04  0.88149902651E+03 0.  0.
        -24    2    4    4    0    0 -0.31788367288E+03  0.20199608895E+03 -0.29210143149E+04  0.29462384592E+04  0.78383553694E+02 0.  0.
         24    2    4    4    0    0  0.18346745836E+03 -0.15188466412E+03 -0.27562155221E+03  0.37281265127E+03  0.79327003194E+02 0.  0.
         13    1    3    3    0    0  0.33560091924E+02 -0.34036416276E+02  0.12899545026E+03  0.13756665145E+03  0.00000000000E+00 0.  1.
        -13    1    3    3    0    0  0.10085612260E+03 -0.16075008556E+02  0.68312589299E+02  0.12286974088E+03  0.00000000000E+00 0. -1.
          4    1    6    6  502    0  0.31656338405E+01 -0.30347402416E+02 -0.55921388172E+02  0.63703906679E+02  0.00000000000E+00 0. -1.
          3    1    5    5  503    0 -0.15258485062E+02 -0.40517163749E+01 -0.66849771789E+02  0.68688643604E+02  0.00000000000E+00 0. -1.
         -4    1    5    5    0  503 -0.30262518782E+03  0.20604780532E+03 -0.28541645431E+04  0.28775498156E+04  0.00000000000E+00 0.  1.
         -3    1    6    6    0  502  0.18030182452E+03 -0.12153726170E+03 -0.21970016404E+03  0.30910874459E+03  0.00000000000E+00 0.  1.
<mgrwt>
<rscale>  0 0.19536539E+04</rscale>
<asrwt>0</asrwt>
<pdfrwt beam="1">  1        2 0.50606268E+00 0.19536539E+04</pdfrwt>
<pdfrwt beam="2">  1       -2 0.44627671E-01 0.19536539E+04</pdfrwt>
<totfact> 0.50499473E+00</totfact>
</mgrwt>
</event>
<event>
12    1  0.1598876E-007  0.1528690E+04  0.7818608E-02  0.8865596E-01
         -1   -1    0    0    0  501 -0.00000000000E+00  0.00000000000E+00  0.56462883149E+03  0.56462883149E+03  0.00000000000E+00 0.  1.
          1   -1    0    0  501    0  0.00000000000E+00 -0.00000000000E+00 -0.10347028823E+04  0.10347028823E+04  0.00000000000E+00 0. -1.
         23    2    1    2    0    0  0.28665613552E+03 -0.16953597896E+03  0.22255739680E+03  0.41142678691E+03  0.93946888831E+02 0.  0.
        254    2    1    2    0    0 -0.28665613552E+03  0.16953597896E+03 -0.69263144766E+03  0.11879049269E+04  0.90579556466E+03 0.  0.
        -24    2    4    4    0    0 -0.23372499300E+03  0.46736794113E+03 -0.13046652108E+03  0.54445443926E+03  0.79680352419E+02 0.  0.
         24    2    4    4    0    0 -0.52931142522E+02 -0.29783196217E+03 -0.56216492657E+03  0.64345048767E+03  0.80582515905E+02 0.  0.
         13    1    3    3    0    0  0.12393193583E+03 -0.37152411105E+02  0.46236036125E+02  0.13739431359E+03  0.00000000000E+00 0. -1.
        -13    1    3    3    0    0  0.16272419969E+03 -0.13238356785E+03  0.17632136068E+03  0.27403247332E+03  0.00000000000E+00 0.  1.
          2    1    6    6  502    0 -0.58738458620E+02 -0.29466204822E+03 -0.51831819461E+03  0.59910740277E+03  0.00000000000E+00 0. -1.
          3    1    5    5  503    0 -0.20339402499E+03  0.44632878204E+03 -0.11170770429E+03  0.50304783299E+03  0.00000000000E+00 0. -1.
         -2    1    5    5    0  503 -0.30330968012E+02  0.21039159092E+02 -0.18758816790E+02  0.41406606275E+02  0.00000000000E+00 0.  1.
         -1    1    6    6    0  502  0.58073160984E+01 -0.31699139471E+01 -0.43846731960E+02  0.44343084898E+02  0.00000000000E+00 0.  1.
<mgrwt>
<rscale>  0 0.15286897E+04</rscale>
<asrwt>0</asrwt>
<pdfrwt beam="1">  1        1 0.15918506E+00 0.15286897E+04</pdfrwt>
<pdfrwt beam="2">  1       -1 0.86865974E-01 0.15286897E+04</pdfrwt>
<totfact> 0.17924208E+01</totfact>
</mgrwt>
</event>
<event>
12    1  0.1598876E-007  0.1942155E+04  0.7818608E-02  0.8634153E-01
         -2   -1    0    0    0  501 -0.00000000000E+00  0.00000000000E+00  0.27345499837E+03  0.27345499837E+03  0.00000000000E+00 0.  1.
          2   -1    0    0  501    0  0.00000000000E+00 -0.00000000000E+00 -0.34484337127E+04  0.34484337127E+04  0.00000000000E+00 0. -1.
         23    2    1    2    0    0  0.93626541228E+02 -0.22128904806E+03 -0.26182605400E+04  0.26311474948E+04  0.99569635505E+02 0.  0.
        254    2    1    2    0    0 -0.93626541228E+02  0.22128904806E+03 -0.55671817437E+03  0.10907412162E+04  0.90666780198E+03 0.  0.
        -24    2    4    4    0    0  0.25770884784E+03 -0.58847971939E+02 -0.57058420125E+03  0.63398964170E+03  0.80620103004E+02 0.  0.
         24    2    4    4    0    0 -0.35133538907E+03  0.28013702000E+03  0.13866026888E+02  0.45675157455E+03  0.80724398810E+02 0.  0.
         11    1    3    3    0    0  0.79533305579E+01 -0.10620610108E+03 -0.14900023333E+04  0.14938038508E+04  0.00000000000E+00 0.  1.
        -11    1    3    3    0    0  0.85673210671E+02 -0.11508294698E+03 -0.11282582067E+04  0.11373436441E+04  0.00000000000E+00 0. -1.
          4    1    6    6  502    0 -0.26740352612E+03  0.17524325038E+03 -0.12036677353E+02  0.31993706285E+03  0.00000000000E+00 0. -1.
          3    1    5    5  503    0  0.83034615719E+02  0.18352627340E+02 -0.19081508428E+03  0.20890658852E+03  0.00000000000E+00 0. -1.
         -4    1    5    5    0  503  0.17467423212E+03 -0.77200599279E+02 -0.37976911697E+03  0.42508305318E+03  0.00000000000E+00 0.  1.
         -3    1    6    6    0  502 -0.83931862951E+02  0.10489376962E+03  0.25902704241E+02  0.13681451170E+03  0.00000000000E+00 0.  1.
<mgrwt>
<rscale>  0 0.19421549E+04</rscale>
<asrwt>0</asrwt>
<pdfrwt beam="1">  1        2 0.53052826E+00 0.19421549E+04</pdfrwt>
<pdfrwt beam="2">  1       -2 0.42070000E-01 0.19421549E+04</pdfrwt>
<totfact> 0.44396039E+00</totfact>
</mgrwt>
</event>
<event>
12    1  0.1598876E-007  0.1631510E+04  0.7818608E-02  0.8801420E-01
         -2   -1    0    0    0  501 -0.00000000000E+00  0.00000000000E+00  0.24574904997E+03  0.24574904997E+03  0.00000000000E+00 0.  1.
          2   -1    0    0  501    0  0.00000000000E+00 -0.00000000000E+00 -0.27078702556E+04  0.27078702556E+04  0.00000000000E+00 0. -1.
         23    2    1    2    0    0 -0.15633165002E+03  0.51436020729E+01 -0.18360853518E+04  0.18450316671E+04  0.92012998562E+02 0.  0.
        254    2    1    2    0    0  0.15633165002E+03 -0.51436020729E+01 -0.62603585387E+03  0.11085876385E+04  0.90143198333E+03 0.  0.
        -24    2    4    4    0    0 -0.22022601383E+03  0.32924350575E+03 -0.25559484960E+03  0.47806900130E+03  0.79501318304E+02 0.  0.
         24    2    4    4    0    0  0.37655766385E+03 -0.33438710783E+03 -0.37044100428E+03  0.63051863725E+03  0.81956099145E+02 0.  0.
         13    1    3    3    0    0 -0.51753466848E+02 -0.92775673869E+01 -0.25168939612E+03  0.25712262971E+03  0.00000000000E+00 0.  1.
        -13    1    3    3    0    0 -0.10457818317E+03  0.14421169460E+02 -0.15843959557E+04  0.15879090374E+04  0.00000000000E+00 0. -1.
          2    1    6    6  502    0  0.33699995833E+03 -0.32347482805E+03 -0.32369257298E+03  0.56831489343E+03  0.00000000000E+00 0. -1.
          3    1    5    5  503    0 -0.12039567286E+03  0.21831447711E+03 -0.19696745077E+03  0.31773024033E+03  0.00000000000E+00 0. -1.
         -4    1    5    5    0  503 -0.99830340970E+02  0.11092902865E+03 -0.58627398825E+02  0.16033876097E+03  0.00000000000E+00 0.  1.
         -1    1    6    6    0  502  0.39557705523E+02 -0.10912279774E+02 -0.46748431303E+02  0.62203743822E+02  0.00000000000E+00 0.  1.
<mgrwt>
<rscale>  0 0.16315104E+04</rscale>
<asrwt>0</asrwt>
<pdfrwt beam="1">  1        2 0.41659541E+00 0.16315104E+04</pdfrwt>
<pdfrwt beam="2">  1       -2 0.37807548E-01 0.16315104E+04</pdfrwt>
<totfact> 0.16644226E+01</totfact>
</mgrwt>
</event>
<event>
12    1  0.1598876E-007  0.1221519E+04  0.7818608E-02  0.9094227E-01
         -2   -1    0    0    0  501 -0.00000000000E+00  0.00000000000E+00  0.13074150947E+04  0.13074150947E+04  0.00000000000E+00 0.  1.
          2   -1    0    0  501    0  0.00000000000E+00 -0.00000000000E+00 -0.28531659487E+03  0.28531659487E+03  0.00000000000E+00 0. -1.
         23    2    1    2    0    0  0.12630050653E+03 -0.11939995605E+03 -0.97336173753E+01  0.19521217249E+03  0.88345240543E+02 0.  0.
        254    2    1    2    0    0 -0.12630050653E+03  0.11939995605E+03  0.10318321172E+04  0.13975195171E+04  0.92637741504E+03 0.  0.
        -24    2    4    4    0    0 -0.24892337603E+03  0.36044216999E+03  0.10223074654E+04  0.11151187459E+04  0.80596889206E+02 0.  0.
         24    2    4    4    0    0  0.12262286950E+03 -0.24104221393E+03  0.95246518310E+01  0.28240077124E+03  0.80757411921E+02 0.  0.
         11    1    3    3    0    0  0.35652570601E+02  0.30137752930E+01 -0.22644533060E+02  0.42343399834E+02  0.00000000000E+00 0. -1.
        -11    1    3    3    0    0  0.90647935925E+02 -0.12241373135E+03  0.12910915685E+02  0.15286877266E+03  0.00000000000E+00 0.  1.
          2    1    6    6  502    0  0.56406788078E+02 -0.18752757289E+03  0.18955650384E+02  0.19674255518E+03  0.00000000000E+00 0. -1.
          1    1    5    5  503    0 -0.50682681427E+02  0.13017584422E+03  0.27628319604E+03  0.30959148733E+03  0.00000000000E+00 0. -1.
         -2    1    5    5    0  503 -0.19824069460E+03  0.23026632576E+03  0.74602426934E+03  0.80552725853E+03  0.00000000000E+00 0.  1.
         -1    1    6    6    0  502  0.66216081426E+02 -0.53514641044E+02 -0.94309985533E+01  0.85658216064E+02  0.00000000000E+00 0.  1.
<mgrwt>
<rscale>  0 0.12215191E+04</rscale>
<asrwt>0</asrwt>
<pdfrwt beam="1">  1        2 0.43894861E-01 0.12215191E+04</pdfrwt>
<pdfrwt beam="2">  1       -2 0.20114078E+00 0.12215191E+04</pdfrwt>
<totfact> 0.14948270E+01</totfact>
</mgrwt>
</event>
<event>
12    1  0.1598876E-007  0.1240395E+04  0.7818608E-02  0.9078216E-01
          1   -1    0    0  501    0  0.00000000000E+00  0.00000000000E+00  0.10567010824E+04  0.10567010824E+04  0.00000000000E+00 0. -1.
         -1   -1    0    0    0  501 -0.00000000000E+00 -0.00000000000E+00 -0.36400529183E+03  0.36400529183E+03  0.00000000000E+00 0.  1.
         23    2    1    2    0    0 -0.14196149504E+03  0.14614854940E+02  0.42599617343E+03  0.45805274193E+03  0.89291178491E+02 0.  0.
        254    2    1    2    0    0  0.14196149504E+03 -0.14614854940E+02  0.26669961714E+03  0.96265363228E+03  0.91389642187E+03 0.  0.
        -24    2    4    4    0    0  0.18482758321E+03 -0.43916361841E+03  0.77366054273E+02  0.48909977524E+03  0.78785560418E+02 0.  0.
         24    2    4    4    0    0 -0.42866088170E+02  0.42454876347E+03  0.18933356286E+03  0.47355385705E+03  0.79541834384E+02 0.  0.
         11    1    3    3    0    0  0.83315654632E+01 -0.35641912635E+01  0.43483188168E+01  0.10051184953E+02  0.00000000000E+00 0.  1.
        -11    1    3    3    0    0 -0.15029306051E+03  0.18179046203E+02  0.42164785461E+03  0.44800155698E+03  0.00000000000E+00 0. -1.
          4    1    6    6  502    0  0.16012492883E+02  0.18947640634E+03  0.10331444802E+03  0.21640606197E+03  0.00000000000E+00 0. -1.
          1    1    5    5  503    0  0.18782841428E+03 -0.39852329309E+03  0.59364144620E+02  0.44454969353E+03  0.00000000000E+00 0. -1.
         -2    1    5    5    0  503 -0.30008310692E+01 -0.40640325318E+02  0.18001909653E+02  0.44550081708E+02  0.00000000000E+00 0.  1.
         -3    1    6    6    0  502 -0.58878581053E+02  0.23507235713E+03  0.86019114842E+02  0.25714779507E+03  0.00000000000E+00 0.  1.
<mgrwt>
<rscale>  0 0.12403948E+04</rscale>
<asrwt>0</asrwt>
<pdfrwt beam="1">  1        1 0.16256940E+00 0.12403948E+04</pdfrwt>
<pdfrwt beam="2">  1       -1 0.56000815E-01 0.12403948E+04</pdfrwt>
<totfact> 0.43532715E+01</totfact>
</mgrwt>
</event>
<event>
12    1  0.1598876E-007  0.1666118E+04  0.7818608E-02  0.8780928E-01
          1   -1    0    0  501    0  0.00000000000E+00  0.00000000000E+00  0.78001488675E+03  0.78001488675E+03  0.00000000000E+00 0. -1.
         -1   -1    0    0    0  501 -0.00000000000E+00 -0.00000000000E+00 -0.88970983261E+03  0.88970983261E+03  0.00000000000E+00 0.  1.
         23    2    1    2    0    0  0.28758765641E+03 -0.59307322068E+02  0.46447066693E+03  0.55655929302E+03  0.88324558482E+02 0.  0.
        254    2    1    2    0    0 -0.28758765641E+03  0.59307322068E+02 -0.57416561280E+03  0.11131654263E+04  0.90732965174E+03 0.  0.
        -24    2    4    4    0    0  0.20848049830E+03  0.27542783536E+03 -0.54276725076E+02  0.35840818938E+03  0.78650217211E+02 0.  0.
         24    2    4    4    0    0 -0.49606815472E+03 -0.21612051329E+03 -0.51988888772E+03  0.75475723696E+03  0.81131626294E+02 0.  0.
         13    1    3    3    0    0  0.55373393214E+02  0.17884321768E+02  0.12707553089E+03  0.13976498915E+03  0.00000000000E+00 0.  1.
        -13    1    3    3    0    0  0.23221426320E+03 -0.77191643836E+02  0.33739513604E+03  0.41679430387E+03  0.00000000000E+00 0. -1.
          4    1    6    6  502    0 -0.14727601982E+03 -0.32392302644E+02 -0.17454796091E+03  0.23066529419E+03  0.00000000000E+00 0. -1.
          1    1    5    5  503    0 -0.22566518012E+01  0.59042032464E+01  0.84731765795E+01  0.10571036594E+02  0.00000000000E+00 0. -1.
         -2    1    5    5    0  503  0.21073715011E+03  0.26952363211E+03 -0.62749901656E+02  0.34783715279E+03  0.00000000000E+00 0.  1.
         -3    1    6    6    0  502 -0.34879213489E+03 -0.18372821065E+03 -0.34534092681E+03  0.52409194278E+03  0.00000000000E+00 0.  1.
<mgrwt>
<rscale>  0 0.16661175E+04</rscale>
<asrwt>0</asrwt>
<pdfrwt beam="1">  1        1 0.12000229E+00 0.16661175E+04</pdfrwt>
<pdfrwt beam="2">  1       -1 0.13687844E+00 0.16661175E+04</pdfrwt>
<totfact> 0.97683571E+00</totfact>
</mgrwt>
</event>
<event>
12    1  0.1598876E-007  0.2239771E+04  0.7818608E-02  0.8502054E-01
         -2   -1    0    0    0  501 -0.00000000000E+00  0.00000000000E+00  0.12391568376E+04  0.12391568376E+04  0.00000000000E+00 0.  1.
          2   -1    0    0  501    0  0.00000000000E+00 -0.00000000000E+00 -0.10120945736E+04  0.10120945736E+04  0.00000000000E+00 0. -1.
         23    2    1    2    0    0  0.16992817193E+03  0.49515847442E+03 -0.68812970241E+03  0.86937288133E+03  0.90715054083E+02 0.  0.
        254    2    1    2    0    0 -0.16992817193E+03 -0.49515847442E+03  0.91519196649E+03  0.13818785299E+04  0.89328295480E+03 0.  0.
        -24    2    4    4    0    0 -0.43180332294E+03 -0.56940176898E+03  0.48741234199E+03  0.86862235512E+03  0.79129769804E+02 0.  0.
         24    2    4    4    0    0  0.26187515100E+03  0.74243294565E+02  0.42777962450E+03  0.51325617473E+03  0.79660732260E+02 0.  0.
         13    1    3    3    0    0  0.11311138661E+03  0.42182194149E+03 -0.59338136364E+03  0.73676955612E+03  0.00000000000E+00 0. -1.
        -13    1    3    3    0    0  0.56816785326E+02  0.73336532924E+02 -0.94748338771E+02  0.13260332521E+03  0.00000000000E+00 0.  1.
          2    1    6    6  502    0  0.17756026021E+03  0.15720947335E+02  0.23617512958E+03  0.29589438322E+03  0.00000000000E+00 0. -1.
          1    1    5    5  503    0 -0.39850623535E+03 -0.48171878474E+03  0.42425245537E+03  0.75554639372E+03  0.00000000000E+00 0. -1.
         -2    1    5    5    0  503 -0.33297087589E+02 -0.87682984241E+02  0.63159886623E+02  0.11307596140E+03  0.00000000000E+00 0.  1.
         -3    1    6    6    0  502  0.84314890792E+02  0.58522347230E+02  0.19160449492E+03  0.21736179151E+03  0.00000000000E+00 0.  1.
<mgrwt>
<rscale>  0 0.22397713E+04</rscale>
<asrwt>0</asrwt>
<pdfrwt beam="1">  1        2 0.15570686E+00 0.22397713E+04</pdfrwt>
<pdfrwt beam="2">  1       -2 0.19063951E+00 0.22397713E+04</pdfrwt>
<totfact> 0.34589424E+00</totfact>
</mgrwt>
</event>
<event>
12    1  0.1598876E-007  0.1431636E+04  0.7818608E-02  0.8931232E-01
         -1   -1    0    0    0  501 -0.00000000000E+00  0.00000000000E+00  0.24574054156E+03  0.24574054156E+03  0.00000000000E+00 0.  1.
          1   -1    0    0  501    0  0.00000000000E+00 -0.00000000000E+00 -0.20851070068E+04  0.20851070068E+04  0.00000000000E+00 0. -1.
         23    2    1    2    0    0  0.18009187032E+03  0.36996904748E+03 -0.33587733468E+03  0.53881445317E+03  0.90538683133E+02 0.  0.
        254    2    1    2    0    0 -0.18009187032E+03 -0.36996904748E+03 -0.15034891306E+04  0.17920330952E+04  0.88407741218E+03 0.  0.
        -24    2    4    4    0    0 -0.29185817278E+03 -0.52855935587E+02 -0.66277778539E+02  0.31390971193E+03  0.78559661209E+02 0.  0.
         24    2    4    4    0    0  0.11176630246E+03 -0.31711311189E+03 -0.14372113520E+04  0.14781233833E+04  0.78865922300E+02 0.  0.
         13    1    3    3    0    0  0.14003669595E+03  0.31987358929E+03 -0.31786156948E+03  0.47219208665E+03  0.00000000000E+00 0. -1.
        -13    1    3    3    0    0  0.40055174375E+02  0.50095458185E+02 -0.18015765194E+02  0.66622366518E+02  0.00000000000E+00 0.  1.
          4    1    6    6  502    0  0.92078329296E+02 -0.17643519273E+03 -0.95023532677E+03  0.97085270366E+03  0.00000000000E+00 0. -1.
          1    1    5    5  503    0 -0.25852293322E+03 -0.19281075340E+02 -0.60848545030E+02  0.26628633517E+03  0.00000000000E+00 0. -1.
         -2    1    5    5    0  503 -0.33335239558E+02 -0.33574860247E+02 -0.54292335098E+01  0.47623376755E+02  0.00000000000E+00 0.  1.
         -3    1    6    6    0  502  0.19687973160E+02 -0.14067791916E+03 -0.48697602525E+03  0.50727067961E+03  0.00000000000E+00 0.  1.
<mgrwt>
<rscale>  0 0.14316359E+04</rscale>
<asrwt>0</asrwt>
<pdfrwt beam="1">  1        1 0.32078569E+00 0.14316359E+04</pdfrwt>
<pdfrwt beam="2">  1       -1 0.37806238E-01 0.14316359E+04</pdfrwt>
<totfact> 0.17148149E+01</totfact>
</mgrwt>
</event>
<event>
12    1  0.1598876E-007  0.3173878E+04  0.7818608E-02  0.8195750E-01
          2   -1    0    0  501    0  0.00000000000E+00  0.00000000000E+00  0.42172868515E+04  0.42172868515E+04  0.00000000000E+00 0. -1.
         -2   -1    0    0    0  501 -0.00000000000E+00 -0.00000000000E+00 -0.59715527847E+03  0.59715527847E+03  0.00000000000E+00 0.  1.
         23    2    1    2    0    0 -0.12399420063E+04 -0.69412039256E+03  0.11658937426E+04  0.18403930267E+04  0.92081351330E+02 0.  0.
        254    2    1    2    0    0  0.12399420063E+04  0.69412039256E+03  0.24542378305E+04  0.29740491033E+04  0.89578202820E+03 0.  0.
        -24    2    4    4    0    0  0.86422793674E+02 -0.18784843478E+03  0.25845580699E+03  0.34036880548E+03  0.79344727991E+02 0.  0.
         24    2    4    4    0    0  0.11535192126E+04  0.88196882733E+03  0.21957820235E+04  0.26336802978E+04  0.79609234975E+02 0.  0.
         11    1    3    3    0    0 -0.42548129965E+03 -0.18907467022E+03  0.38814263568E+03  0.60616686886E+03  0.00000000000E+00 0. -1.
        -11    1    3    3    0    0 -0.81446070665E+03 -0.50504572234E+03  0.77775110689E+03  0.12342261578E+04  0.00000000000E+00 0.  1.
          2    1    6    6  502    0  0.31161498025E+03  0.22763111701E+03  0.52310823946E+03  0.65004773020E+03  0.00000000000E+00 0. -1.
          3    1    5    5  503    0 -0.11316397659E+02 -0.18600781284E+02  0.50459804716E+02  0.54956726725E+02  0.00000000000E+00 0. -1.
         -4    1    5    5    0  503  0.97739191333E+02 -0.16924765349E+03  0.20799600228E+03  0.28541207875E+03  0.00000000000E+00 0.  1.
         -1    1    6    6    0  502  0.84190423237E+03  0.65433771032E+03  0.16726737840E+04  0.19836325676E+04  0.00000000000E+00 0.  1.
<mgrwt>
<rscale>  0 0.31738778E+04</rscale>
<asrwt>0</asrwt>
<pdfrwt beam="1">  1        2 0.64881334E+00 0.31738778E+04</pdfrwt>
<pdfrwt beam="2">  1       -2 0.91870045E-01 0.31738778E+04</pdfrwt>
<totfact> 0.19064060E-01</totfact>
</mgrwt>
</event>
<event>
12    1  0.1598876E-007  0.2463313E+04  0.7818608E-02  0.8416173E-01
          2   -1    0    0  501    0  0.00000000000E+00  0.00000000000E+00  0.43845900889E+04  0.43845900889E+04  0.00000000000E+00 0.  1.
         -2   -1    0    0    0  501 -0.00000000000E+00 -0.00000000000E+00 -0.34597938327E+03  0.34597938327E+03  0.00000000000E+00 0. -1.
         23    2    1    2    0    0 -0.47954975392E+03 -0.48638812733E+03  0.19244514770E+03  0.71630730990E+03  0.97568696055E+02 0.  0.
        254    2    1    2    0    0  0.47954975392E+03  0.48638812733E+03  0.38461655579E+04  0.40142621623E+04  0.92453763121E+03 0.  0.
        -24    2    4    4    0    0  0.45422721424E+03 -0.16204766813E+03  0.14301101866E+04  0.15113183535E+04  0.79285629472E+02 0.  0.
         24    2    4    4    0    0  0.25322539684E+02  0.64843579546E+03  0.24160553713E+04  0.25029438087E+04  0.79334358557E+02 0.  0.
         11    1    3    3    0    0 -0.32937865721E+03 -0.33185017608E+03  0.17814160008E+03  0.50034914696E+03  0.00000000000E+00 0. -1.
        -11    1    3    3    0    0 -0.15017109671E+03 -0.15453795125E+03  0.14303547622E+02  0.21595816294E+03  0.00000000000E+00 0.  1.
          2    1    6    6  502    0  0.23283274654E+02  0.64054976936E+03  0.24064440695E+04  0.24903451924E+04  0.00000000000E+00 0. -1.
          3    1    5    5  503    0  0.45236757034E+03 -0.16612187307E+03  0.14260454711E+04  0.15052702684E+04  0.00000000000E+00 0. -1.
         -4    1    5    5    0  503  0.18596438984E+01  0.40742049399E+01  0.40647155011E+01  0.60480851041E+01  0.00000000000E+00 0.  1.
         -1    1    6    6    0  502  0.20392650301E+01  0.78860260997E+01  0.96113018785E+01  0.12598616325E+02  0.00000000000E+00 0.  1.
<mgrwt>
<rscale>  0 0.24633130E+04</rscale>
<asrwt>0</asrwt>
<pdfrwt beam="1">  1        2 0.67455228E+00 0.24633130E+04</pdfrwt>
<pdfrwt beam="2">  1       -2 0.53227600E-01 0.24633130E+04</pdfrwt>
<totfact> 0.47507906E-01</totfact>
</mgrwt>
</event>
<event>
12    1  0.1598876E-007  0.2814774E+04  0.7818608E-02  0.8298696E-01
         -1   -1    0    0    0  501 -0.00000000000E+00  0.00000000000E+00  0.63691622336E+03  0.63691622336E+03  0.00000000000E+00 0.  1.
          1   -1    0    0  501    0  0.00000000000E+00 -0.00000000000E+00 -0.31098879403E+04  0.31098879403E+04  0.00000000000E+00 0. -1.
         23    2    1    2    0    0  0.10041291600E+04  0.18170231926E+03 -0.21453346621E+04  0.23773135157E+04  0.88699697413E+02 0.  0.
        254    2    1    2    0    0 -0.10041291600E+04 -0.18170231926E+03 -0.32763705481E+03  0.13694906480E+04  0.85256524237E+03 0.  0.
        -24    2    4    4    0    0 -0.28215449704E+03  0.30045356587E+03 -0.26234627832E+03  0.49512409667E+03  0.80242108034E+02 0.  0.
         24    2    4    4    0    0 -0.72197466297E+03 -0.48215588513E+03 -0.65290776482E+02  0.87436655135E+03  0.80822454079E+02 0.  0.
         11    1    3    3    0    0  0.10455325602E+03  0.47161579089E+02 -0.23780397319E+03  0.26401955903E+03  0.00000000000E+00 0.  1.
        -11    1    3    3    0    0  0.89957590400E+03  0.13454074018E+03 -0.19075306890E+04  0.21132939566E+04  0.00000000000E+00 0. -1.
          2    1    6    6  502    0 -0.36492422278E+03 -0.29074502444E+03 -0.44707493736E+02  0.46872285799E+03  0.00000000000E+00 0. -1.
          3    1    5    5  503    0 -0.20795518064E+03  0.26257522227E+03 -0.19192383506E+03  0.38603868067E+03  0.00000000000E+00 0. -1.
         -4    1    5    5    0  503 -0.74199316405E+02  0.37878343600E+02 -0.70422443262E+02  0.10908541600E+03  0.00000000000E+00 0.  1.
         -1    1    6    6    0  502 -0.35705044019E+03 -0.19141086070E+03 -0.20583282747E+02  0.40564369336E+03  0.00000000000E+00 0.  1.
<mgrwt>
<rscale>  0 0.28147739E+04</rscale>
<asrwt>0</asrwt>
<pdfrwt beam="1">  1        1 0.47844431E+00 0.28147739E+04</pdfrwt>
<pdfrwt beam="2">  1       -1 0.97987108E-01 0.28147739E+04</pdfrwt>
<totfact> 0.42810039E-01</totfact>
</mgrwt>
</event>
<event>
12    1  0.1598876E-007  0.1836559E+04  0.7818608E-02  0.8687096E-01
         -1   -1    0    0    0  501 -0.00000000000E+00  0.00000000000E+00  0.50862147115E+03  0.50862147115E+03  0.00000000000E+00 0.  1.
          1   -1    0    0  501    0  0.00000000000E+00 -0.00000000000E+00 -0.16578877084E+04  0.16578877084E+04  0.00000000000E+00 0. -1.
         23    2    1    2    0    0 -0.47172708810E+03 -0.50731146417E+03 -0.53119412537E+03  0.87811522967E+03  0.95014685354E+02 0.  0.
        254    2    1    2    0    0  0.47172708810E+03  0.50731146417E+03 -0.61807211188E+03  0.12883939499E+04  0.89333894311E+03 0.  0.
        -24    2    4    4    0    0 -0.49926923751E+02 -0.16283095767E+03  0.61472173351E+02  0.19785408729E+03  0.79754581481E+02 0.  0.
         24    2    4    4    0    0  0.52165401185E+03  0.67014242184E+03 -0.67954428523E+03  0.10905398626E+04  0.79265267842E+02 0.  0.
         13    1    3    3    0    0 -0.49264495121E+02 -0.10085369799E+03 -0.70892848160E+02  0.13275637385E+03  0.00000000000E+00 0.  1.
        -13    1    3    3    0    0 -0.42246259298E+03 -0.40645776618E+03 -0.46030127721E+03  0.74535885583E+03  0.00000000000E+00 0. -1.
          2    1    6    6  502    0  0.21110450052E+03  0.21025692457E+03 -0.23091826793E+03  0.37695666984E+03  0.00000000000E+00 0. -1.
          3    1    5    5  503    0 -0.57821099550E+02 -0.12547938821E+03  0.16936176529E+02  0.13919479334E+03  0.00000000000E+00 0. -1.
         -4    1    5    5    0  503  0.78941757993E+01 -0.37351569468E+02  0.44535996822E+02  0.58659293946E+02  0.00000000000E+00 0.  1.
         -1    1    6    6    0  502  0.31054951133E+03  0.45988549727E+03 -0.44862601730E+03  0.71358319276E+03  0.00000000000E+00 0.  1.
<mgrwt>
<rscale>  0 0.18365590E+04</rscale>
<asrwt>0</asrwt>
<pdfrwt beam="1">  1        1 0.25505965E+00 0.18365590E+04</pdfrwt>
<pdfrwt beam="2">  1       -1 0.78249456E-01 0.18365590E+04</pdfrwt>
<totfact> 0.78319581E+00</totfact>
</mgrwt>
</event>
<event>
12    1  0.1598876E-007  0.1484434E+04  0.7818608E-02  0.8894871E-01
         -1   -1    0    0    0  501 -0.00000000000E+00  0.00000000000E+00  0.48670136334E+03  0.48670136334E+03  0.00000000000E+00 0.  1.
          1   -1    0    0  501    0  0.00000000000E+00 -0.00000000000E+00 -0.11318772094E+04  0.11318772094E+04  0.00000000000E+00 0. -1.
         23    2    1    2    0    0  0.37997896913E+03 -0.20772121168E+03 -0.38714603956E+03  0.58851406130E+03  0.94523148689E+02 0.  0.
        254    2    1    2    0    0 -0.37997896913E+03  0.20772121168E+03 -0.25802980649E+03  0.10300645114E+04  0.89828803727E+03 0.  0.
        -24    2    4    4    0    0 -0.32137529733E+03 -0.23494022709E+03 -0.38329001831E+03  0.55916284603E+03  0.85281054199E+02 0.  0.
         24    2    4    4    0    0 -0.58603671796E+02  0.44266143877E+03  0.12526021182E+03  0.47090166539E+03  0.81698947827E+02 0.  0.
         11    1    3    3    0    0  0.23486394820E+03 -0.79943925524E+02 -0.24364134935E+03  0.34772577199E+03  0.00000000000E+00 0.  1.
        -11    1    3    3    0    0  0.14511502093E+03 -0.12777728616E+03 -0.14350469021E+03  0.24078828931E+03  0.00000000000E+00 0. -1.
          4    1    6    6  502    0 -0.79096099428E+02  0.37378941346E+03  0.10677637666E+03  0.39670633115E+03  0.00000000000E+00 0. -1.
          3    1    5    5  503    0 -0.17318763506E+03 -0.74233951335E+02 -0.17128759675E+03  0.25464500245E+03  0.00000000000E+00 0. -1.
         -4    1    5    5    0  503 -0.14818766227E+03 -0.16070627576E+03 -0.21200242156E+03  0.30451784359E+03  0.00000000000E+00 0.  1.
         -1    1    6    6    0  502  0.20492427633E+02  0.68872025310E+02  0.18483835161E+02  0.74195334239E+02  0.00000000000E+00 0.  1.
<mgrwt>
<rscale>  0 0.14844341E+04</rscale>
<asrwt>0</asrwt>
<pdfrwt beam="1">  1        1 0.17413496E+00 0.14844341E+04</pdfrwt>
<pdfrwt beam="2">  1       -1 0.74877132E-01 0.14844341E+04</pdfrwt>
<totfact> 0.20853256E+01</totfact>
</mgrwt>
</event>
<event>
12    1  0.1684346E-007  0.2181779E+04  0.7818608E-02  0.8526051E-01
         -1   -1    0    0    0  501 -0.00000000000E+00  0.00000000000E+00  0.70039374538E+03  0.70039374538E+03  0.00000000000E+00 0.  1.
          1   -1    0    0  501    0  0.00000000000E+00 -0.00000000000E+00 -0.16991013662E+04  0.16991013662E+04  0.00000000000E+00 0. -1.
         23    2    1    2    0    0  0.44683094240E+03 -0.58080111683E+03 -0.99029022584E+03  0.12352161886E+04  0.89980402475E+02 0.  0.
        254    2    1    2    0    0 -0.44683094240E+03  0.58080111683E+03 -0.84173949502E+01  0.11642789229E+04  0.90470256408E+03 0.  0.
        -24    2    4    4    0    0 -0.18046853324E+03 -0.14698312481E+03  0.24287168716E+03  0.34570175023E+03  0.79687597661E+02 0.  0.
         24    2    4    4    0    0 -0.26636240916E+03  0.72778424164E+03 -0.25128908211E+03  0.81857717270E+03  0.79394895783E+02 0.  0.
         13    1    3    3    0    0  0.31897638363E+03 -0.44919393748E+03 -0.68539757066E+03  0.87936963596E+03  0.00000000000E+00 0. -1.
        -13    1    3    3    0    0  0.12785455876E+03 -0.13160717935E+03 -0.30489265519E+03  0.35584655266E+03  0.00000000000E+00 0.  1.
          2    1    6    6  502    0 -0.66618172077E+01  0.13847755949E+01  0.11404363870E+01  0.68991308953E+01  0.00000000000E+00 0. -1.
          3    1    5    5  503    0 -0.75746800644E+01 -0.41325859397E+02  0.28763623965E+02  0.50917074706E+02  0.00000000000E+00 0. -1.
         -4    1    5    5    0  503 -0.17289385317E+03 -0.10565726542E+03  0.21410806320E+03  0.29478467553E+03  0.00000000000E+00 0.  1.
         -1    1    6    6    0  502 -0.25970059195E+03  0.72639946605E+03 -0.25242951850E+03  0.81167804180E+03  0.00000000000E+00 0.  1.
<mgrwt>
<rscale>  0 0.21817791E+04</rscale>
<asrwt>0</asrwt>
<pdfrwt beam="1">  1        1 0.26140021E+00 0.21817791E+04</pdfrwt>
<pdfrwt beam="2">  1       -1 0.10775288E+00 0.21817791E+04</pdfrwt>
<totfact> 0.34918850E+00</totfact>
</mgrwt>
</event>
<event>
12    1  0.1598876E-007  0.2364902E+04  0.7818608E-02  0.8452762E-01
          1   -1    0    0  501    0  0.00000000000E+00  0.00000000000E+00  0.35376356662E+04  0.35376356662E+04  0.00000000000E+00 0.  1.
         -1   -1    0    0    0  501 -0.00000000000E+00 -0.00000000000E+00 -0.39523290062E+03  0.39523290062E+03  0.00000000000E+00 0. -1.
         23    2    1    2    0    0  0.55177766497E+03  0.19237678961E+03  0.27153882350E+04  0.27792000534E+04  0.95667389926E+02 0.  0.
        254    2    1    2    0    0 -0.55177766497E+03 -0.19237678961E+03  0.42701453065E+03  0.11536685134E+04  0.89841093537E+03 0.  0.
        -24    2    4    4    0    0 -0.20172844033E+03 -0.42977802654E+03 -0.81229664742E+02  0.48759730314E+03  0.75824507009E+02 0.  0.
         24    2    4    4    0    0 -0.35004922464E+03  0.23740123693E+03  0.50824419539E+03  0.66607121030E+03  0.80280060259E+02 0.  0.
         13    1    3    3    0    0  0.10501185106E+03  0.59763079853E+01  0.59787572264E+03  0.60705731594E+03  0.00000000000E+00 0. -1.
        -13    1    3    3    0    0  0.44676581390E+03  0.18640048162E+03  0.21175125123E+04  0.21721427375E+04  0.00000000000E+00 0.  1.
          4    1    6    6  502    0 -0.28290638216E+03  0.19417412569E+03  0.35776858629E+03  0.49571965212E+03  0.00000000000E+00 0. -1.
          3    1    5    5  503    0 -0.54835984763E+02 -0.19062153125E+03 -0.13119083793E+02  0.19878547170E+03  0.00000000000E+00 0. -1.
         -4    1    5    5    0  503 -0.14689245556E+03 -0.23915649529E+03 -0.68110580950E+02  0.28881183144E+03  0.00000000000E+00 0.  1.
         -3    1    6    6    0  502 -0.67142842473E+02  0.43227111241E+02  0.15047560910E+03  0.17035155818E+03  0.00000000000E+00 0.  1.
<mgrwt>
<rscale>  0 0.23649017E+04</rscale>
<asrwt>0</asrwt>
<pdfrwt beam="1">  1        1 0.54425162E+00 0.23649017E+04</pdfrwt>
<pdfrwt beam="2">  1       -1 0.60805064E-01 0.23649017E+04</pdfrwt>
<totfact> 0.57629166E-01</totfact>
</mgrwt>
</event>
<event>
12    1  0.1598876E-007  0.4299804E+04  0.7818608E-02  0.7946654E-01
         -1   -1    0    0    0  501 -0.00000000000E+00  0.00000000000E+00  0.15059119958E+04  0.15059119958E+04  0.00000000000E+00 0.  1.
          1   -1    0    0  501    0  0.00000000000E+00 -0.00000000000E+00 -0.30692879631E+04  0.30692879631E+04  0.00000000000E+00 0. -1.
         23    2    1    2    0    0  0.44035936355E+03  0.11259116762E+04 -0.25141172479E+04  0.27909837984E+04  0.84920874313E+02 0.  0.
        254    2    1    2    0    0 -0.44035936355E+03 -0.11259116762E+04  0.95074128053E+03  0.17842161605E+04  0.90439197979E+03 0.  0.
        -24    2    4    4    0    0  0.19761625229E+03 -0.63851249273E+03  0.25675035170E+03  0.72016952767E+03  0.77285308737E+02 0.  0.
         24    2    4    4    0    0 -0.63797561584E+03 -0.48739918350E+03  0.69399092884E+03  0.10640466328E+04  0.77465973348E+02 0.  0.
         13    1    3    3    0    0  0.15631375668E+03  0.31186559613E+03 -0.67586341995E+03  0.76058234466E+03  0.00000000000E+00 0.  1.
        -13    1    3    3    0    0  0.28404560686E+03  0.81404608010E+03 -0.18382538279E+04  0.20304014537E+04  0.00000000000E+00 0. -1.
          2    1    6    6  502    0 -0.56160042289E+03 -0.45645149137E+03  0.61168096557E+03  0.94757406180E+03  0.00000000000E+00 0. -1.
          3    1    5    5  503    0  0.18449107109E+03 -0.61870837759E+03  0.26033820100E+03  0.69614150193E+03  0.00000000000E+00 0. -1.
         -4    1    5    5    0  503  0.13125181207E+02 -0.19804115136E+02 -0.35878493086E+01  0.24028025734E+02  0.00000000000E+00 0.  1.
         -1    1    6    6    0  502 -0.76375192954E+02 -0.30947692135E+02  0.82309963270E+02  0.11647257102E+03  0.00000000000E+00 0.  1.
<mgrwt>
<rscale>  0 0.42998035E+04</rscale>
<asrwt>0</asrwt>
<pdfrwt beam="1">  1        1 0.47219815E+00 0.42998035E+04</pdfrwt>
<pdfrwt beam="2">  1       -1 0.23167877E+00 0.42998035E+04</pdfrwt>
<totfact> 0.37345444E-02</totfact>
</mgrwt>
</event>
<event>
12    1  0.2055639E-007  0.1642420E+04  0.7818608E-02  0.8794904E-01
          2   -1    0    0  501    0  0.00000000000E+00  0.00000000000E+00  0.16584115780E+04  0.16584115780E+04  0.00000000000E+00 0. -1.
         -2   -1    0    0    0  501 -0.00000000000E+00 -0.00000000000E+00 -0.40664547156E+03  0.40664547156E+03  0.00000000000E+00 0.  1.
         23    2    1    2    0    0 -0.15947184986E+03 -0.36366824664E+03  0.95585288502E+03  0.10390267500E+04  0.90752327691E+02 0.  0.
        254    2    1    2    0    0  0.15947184986E+03  0.36366824664E+03  0.29591322143E+03  0.10260302995E+04  0.89860318073E+03 0.  0.
        -24    2    4    4    0    0  0.72889971664E+02  0.16780332741E+03  0.60783153215E+03  0.63973371748E+03  0.79555974902E+02 0.  0.
         24    2    4    4    0    0  0.86581878199E+02  0.19586491923E+03 -0.31191831073E+03  0.38629658204E+03  0.77926430135E+02 0.  0.
         11    1    3    3    0    0 -0.39669102746E+01 -0.30704270845E+02  0.15250791522E+03  0.15561861337E+03  0.00000000000E+00 0.  1.
        -11    1    3    3    0    0 -0.15550493959E+03 -0.33296397580E+03  0.80334496981E+03  0.88340813667E+03  0.00000000000E+00 0. -1.
          2    1    6    6  502    0  0.75742667448E+02  0.19771434723E+03 -0.30957664876E+03  0.37505415106E+03  0.00000000000E+00 0. -1.
          1    1    5    5  503    0  0.82091675666E+02  0.13870903422E+03  0.56212785159E+03  0.58477941219E+03  0.00000000000E+00 0. -1.
         -4    1    5    5    0  503 -0.92017040025E+01  0.29094293195E+02  0.45703680562E+02  0.54954305291E+02  0.00000000000E+00 0.  1.
         -1    1    6    6    0  502  0.10839210751E+02 -0.18494280006E+01 -0.23416619736E+01  0.11242430984E+02  0.00000000000E+00 0.  1.
<mgrwt>
<rscale>  0 0.16424196E+04</rscale>
<asrwt>0</asrwt>
<pdfrwt beam="1">  1        2 0.25514024E+00 0.16424196E+04</pdfrwt>
<pdfrwt beam="2">  1       -2 0.62560842E-01 0.16424196E+04</pdfrwt>
<totfact> 0.23427481E+01</totfact>
</mgrwt>
</event>
<event>
12    1  0.1598876E-007  0.2399792E+04  0.7818608E-02  0.8439581E-01
          2   -1    0    0  501    0  0.00000000000E+00  0.00000000000E+00  0.12044433289E+04  0.12044433289E+04  0.00000000000E+00 0. -1.
         -2   -1    0    0    0  501 -0.00000000000E+00 -0.00000000000E+00 -0.11953662751E+04  0.11953662751E+04  0.00000000000E+00 0.  1.
         23    2    1    2    0    0  0.28099366749E+03  0.21834112822E+03  0.96561407199E+03  0.10332888286E+04  0.92978372523E+02 0.  0.
        254    2    1    2    0    0 -0.28099366749E+03 -0.21834112822E+03 -0.95653701825E+03  0.13665207754E+04  0.90872750200E+03 0.  0.
        -24    2    4    4    0    0 -0.99669008756E+02  0.34958896523E+03 -0.32328514666E+03  0.49301011414E+03  0.79995816646E+02 0.  0.
         24    2    4    4    0    0 -0.18132465874E+03 -0.56793009345E+03 -0.63325187159E+03  0.87351066126E+03  0.81177087656E+02 0.  0.
         11    1    3    3    0    0  0.22139894016E+03  0.11780056722E+03  0.67153788827E+03  0.71683861484E+03  0.00000000000E+00 0. -1.
        -11    1    3    3    0    0  0.59594727331E+02  0.10054056101E+03  0.29407618372E+03  0.31645021372E+03  0.00000000000E+00 0.  1.
          2    1    6    6  502    0 -0.14455786815E+03 -0.37013828413E+03 -0.46138725040E+03  0.60891503632E+03  0.00000000000E+00 0. -1.
          3    1    5    5  503    0 -0.76939739534E+01  0.33779352387E+02 -0.44745572053E+01  0.34932270826E+02  0.00000000000E+00 0. -1.
         -4    1    5    5    0  503 -0.91975034802E+02  0.31580961284E+03 -0.31881058945E+03  0.45807784331E+03  0.00000000000E+00 0.  1.
         -1    1    6    6    0  502 -0.36766790587E+02 -0.19779180932E+03 -0.17186462119E+03  0.26459562494E+03  0.00000000000E+00 0.  1.
<mgrwt>
<rscale>  0 0.23997924E+04</rscale>
<asrwt>0</asrwt>
<pdfrwt beam="1">  1        2 0.18529898E+00 0.23997924E+04</pdfrwt>
<pdfrwt beam="2">  1       -2 0.18390250E+00 0.23997924E+04</pdfrwt>
<totfact> 0.28857300E+00</totfact>
</mgrwt>
</event>
<event>
12    1  0.1598876E-007  0.1228988E+04  0.7818608E-02  0.9087855E-01
         -2   -1    0    0    0  501 -0.00000000000E+00  0.00000000000E+00  0.10290482382E+04  0.10290482382E+04  0.00000000000E+00 0.  1.
          2   -1    0    0  501    0  0.00000000000E+00 -0.00000000000E+00 -0.36694374312E+03  0.36694374312E+03  0.00000000000E+00 0. -1.
         23    2    1    2    0    0 -0.39141485078E+02 -0.25433493499E+03  0.66914345461E+02  0.28037894168E+03  0.88974750903E+02 0.  0.
        254    2    1    2    0    0  0.39141485078E+02  0.25433493499E+03  0.59519014966E+03  0.11156130397E+04  0.90781210890E+03 0.  0.
        -24    2    4    4    0    0 -0.12679962899E+03  0.49179811503E+03  0.81930128019E+02  0.52061608743E+03  0.79906399916E+02 0.  0.
         24    2    4    4    0    0  0.16594111407E+03 -0.23746318005E+03  0.51326002164E+03  0.59499695226E+03  0.81610711166E+02 0.  0.
         11    1    3    3    0    0 -0.20443259208E+01 -0.85214573471E+02  0.65054401203E+02  0.10722769193E+03  0.00000000000E+00 0.  1.
        -11    1    3    3    0    0 -0.37097159157E+02 -0.16912036151E+03  0.18599442579E+01  0.17315124975E+03  0.00000000000E+00 0. -1.
          4    1    6    6  502    0  0.24693496548E+02 -0.91268540935E+02  0.12490804052E+03  0.15665801583E+03  0.00000000000E+00 0. -1.
          3    1    5    5  503    0 -0.53563293010E+02  0.10749154479E+03 -0.36064764573E+01  0.12015184240E+03  0.00000000000E+00 0. -1.
         -4    1    5    5    0  503 -0.73236335980E+02  0.38430657024E+03  0.85536604476E+02  0.40046424503E+03  0.00000000000E+00 0.  1.
         -3    1    6    6    0  502  0.14124761752E+03 -0.14619463911E+03  0.38835198112E+03  0.43833893644E+03  0.00000000000E+00 0.  1.
<mgrwt>
<rscale>  0 0.12289879E+04</rscale>
<asrwt>0</asrwt>
<pdfrwt beam="1">  1        2 0.56452884E-01 0.12289879E+04</pdfrwt>
<pdfrwt beam="2">  1       -2 0.15831511E+00 0.12289879E+04</pdfrwt>
<totfact> 0.22349483E+01</totfact>
</mgrwt>
</event>
<event>
12    1  0.1598876E-007  0.1136203E+04  0.7818608E-02  0.9170607E-01
         -3   -1    0    0    0  501 -0.00000000000E+00  0.00000000000E+00  0.29959481477E+03  0.29959481477E+03  0.00000000000E+00 0.  1.
          3   -1    0    0  501    0  0.00000000000E+00 -0.00000000000E+00 -0.10772520405E+04  0.10772520405E+04  0.00000000000E+00 0. -1.
         23    2    1    2    0    0 -0.10771207178E+03  0.12997291027E+03 -0.32493617672E+02  0.19429793763E+03  0.90559403516E+02 0.  0.
        254    2    1    2    0    0  0.10771207178E+03 -0.12997291027E+03 -0.74516360805E+03  0.11825489176E+04  0.90258422987E+03 0.  0.
        -24    2    4    4    0    0  0.41690286287E+03  0.13546524575E+03 -0.58903527607E+03  0.73887735854E+03  0.82573389316E+02 0.  0.
         24    2    4    4    0    0 -0.30919079109E+03 -0.26543815602E+03 -0.15612833198E+03  0.44367155910E+03  0.80075191766E+02 0.  0.
         11    1    3    3    0    0 -0.10247874301E+03  0.11457899385E+03 -0.57791407868E+02  0.16422571487E+03  0.00000000000E+00 0. -1.
        -11    1    3    3    0    0 -0.52333287675E+01  0.15393916418E+02  0.25297790195E+02  0.30072222755E+02  0.00000000000E+00 0.  1.
          4    1    6    6  502    0 -0.13785986100E+03 -0.12680171730E+03 -0.11404166450E+03  0.21929322385E+03  0.00000000000E+00 0. -1.
          1    1    5    5  503    0  0.16942284461E+03  0.79350869505E+02 -0.19527907105E+03  0.27043405177E+03  0.00000000000E+00 0. -1.
         -2    1    5    5    0  503  0.24748001827E+03  0.56114376246E+02 -0.39375620502E+03  0.46844330677E+03  0.00000000000E+00 0.  1.
         -3    1    6    6    0  502 -0.17133093009E+03 -0.13863643872E+03 -0.42086667480E+02  0.22437833525E+03  0.00000000000E+00 0.  1.
<mgrwt>
<rscale>  0 0.11362027E+04</rscale>
<asrwt>0</asrwt>
<pdfrwt beam="1">  1        3 0.16573109E+00 0.11362027E+04</pdfrwt>
<pdfrwt beam="2">  1       -3 0.46091509E-01 0.11362027E+04</pdfrwt>
<totfact> 0.30259107E+00</totfact>
</mgrwt>
</event>
<event>
12    1  0.1598876E-007  0.2308919E+04  0.7818608E-02  0.8474413E-01
          2   -1    0    0  501    0  0.00000000000E+00  0.00000000000E+00  0.12856271178E+04  0.12856271178E+04  0.00000000000E+00 0. -1.
         -2   -1    0    0    0  501 -0.00000000000E+00 -0.00000000000E+00 -0.10366747635E+04  0.10366747635E+04  0.00000000000E+00 0.  1.
         23    2    1    2    0    0  0.63375394457E+03  0.20250795007E+01  0.85246930900E+03  0.10660252917E+04  0.89765452720E+02 0.  0.
        254    2    1    2    0    0 -0.63375394457E+03 -0.20250795007E+01 -0.60351695465E+03  0.12562765897E+04  0.90130460555E+03 0.  0.
        -24    2    4    4    0    0 -0.63504522925E+03  0.35345503769E+03 -0.33658694248E+03  0.80489979801E+03  0.79749659084E+02 0.  0.
         24    2    4    4    0    0  0.12912846815E+01 -0.35548011719E+03 -0.26693001217E+03  0.45137679166E+03  0.78240625713E+02 0.  0.
         13    1    3    3    0    0  0.17961418112E+03 -0.24707101353E+02  0.19234541869E+03  0.26432641753E+03  0.00000000000E+00 0.  1.
        -13    1    3    3    0    0  0.45413976346E+03  0.26732180854E+02  0.66012389031E+03  0.80169887415E+03  0.00000000000E+00 0. -1.
          4    1    6    6  502    0  0.26195397145E+02 -0.27954512808E+03 -0.23175583034E+03  0.36406378887E+03  0.00000000000E+00 0. -1.
          3    1    5    5  503    0 -0.55107625355E+03  0.28743930276E+03 -0.31129564989E+03  0.69513406738E+03  0.00000000000E+00 0. -1.
         -4    1    5    5    0  503 -0.83968975706E+02  0.66015734931E+02 -0.25291292588E+02  0.10976573063E+03  0.00000000000E+00 0.  1.
         -3    1    6    6    0  502 -0.24904112463E+02 -0.75934989112E+02 -0.35174181832E+02  0.87313002792E+02  0.00000000000E+00 0.  1.
<mgrwt>
<rscale>  0 0.23089194E+04</rscale>
<asrwt>0</asrwt>
<pdfrwt beam="1">  1        2 0.19778879E+00 0.23089194E+04</pdfrwt>
<pdfrwt beam="2">  1       -2 0.15948843E+00 0.23089194E+04</pdfrwt>
<totfact> 0.38803434E+00</totfact>
</mgrwt>
</event>
<event>
12    1  0.1598876E-007  0.1667189E+04  0.7818608E-02  0.8780302E-01
          2   -1    0    0  501    0  0.00000000000E+00  0.00000000000E+00  0.18146770999E+04  0.18146770999E+04  0.00000000000E+00 0. -1.
         -2   -1    0    0    0  501 -0.00000000000E+00 -0.00000000000E+00 -0.38292216350E+03  0.38292216350E+03  0.00000000000E+00 0.  1.
         23    2    1    2    0    0 -0.28035249405E+02  0.16384985498E+03  0.12383175901E+04  0.12527575728E+04  0.91314468697E+02 0.  0.
        254    2    1    2    0    0  0.28035249405E+02 -0.16384985498E+03  0.19343734637E+03  0.94484169062E+03  0.90976648827E+03 0.  0.
        -24    2    4    4    0    0 -0.29028205228E+03  0.17941903609E+03  0.29597863440E+03  0.45890849391E+03  0.80862805868E+02 0.  0.
         24    2    4    4    0    0  0.31831730168E+03 -0.34326889107E+03 -0.10254128804E+03  0.48593319671E+03  0.80354961199E+02 0.  0.
         13    1    3    3    0    0  0.46359429699E+01  0.13214176918E+03  0.69010428613E+03  0.70265700371E+03  0.00000000000E+00 0. -1.
        -13    1    3    3    0    0 -0.32671192375E+02  0.31708085799E+02  0.54821330393E+03  0.55010056910E+03  0.00000000000E+00 0.  1.
          2    1    6    6  502    0  0.20454718221E+03 -0.23885422640E+03 -0.10486827804E+03  0.33149396217E+03  0.00000000000E+00 0. -1.
          1    1    5    5  503    0 -0.21683293676E+03  0.12060233814E+03  0.25649749147E+03  0.35686469363E+03  0.00000000000E+00 0. -1.
         -2    1    5    5    0  503 -0.73449115520E+02  0.58816697945E+02  0.39481142928E+02  0.10204380028E+03  0.00000000000E+00 0.  1.
         -1    1    6    6    0  502  0.11377011948E+03 -0.10441466467E+03  0.23269899986E+01  0.15443923454E+03  0.00000000000E+00 0.  1.
<mgrwt>
<rscale>  0 0.16671893E+04</rscale>
<asrwt>0</asrwt>
<pdfrwt beam="1">  1        2 0.27918109E+00 0.16671893E+04</pdfrwt>
<pdfrwt beam="2">  1       -2 0.58911103E-01 0.16671893E+04</pdfrwt>
<totfact> 0.21747650E+01</totfact>
</mgrwt>
</event>
<event>
12    1  0.1771074E-007  0.1519829E+04  0.7818608E-02  0.8871373E-01
         -2   -1    0    0    0  501 -0.00000000000E+00  0.00000000000E+00  0.31611115666E+03  0.31611115666E+03  0.00000000000E+00 0.  1.
          2   -1    0    0  501    0  0.00000000000E+00 -0.00000000000E+00 -0.18267932738E+04  0.18267932738E+04  0.00000000000E+00 0. -1.
         23    2    1    2    0    0  0.47189566106E+02  0.40695122315E+03 -0.87243274341E+03  0.96831088452E+03  0.93010344149E+02 0.  0.
        254    2    1    2    0    0 -0.47189566106E+02 -0.40695122315E+03 -0.63824937377E+03  0.11745935460E+04  0.89692339805E+03 0.  0.
        -24    2    4    4    0    0  0.92138297959E+02 -0.62493957835E+03 -0.21374071425E+03  0.67156751129E+03  0.79239426775E+02 0.  0.
         24    2    4    4    0    0 -0.13932786407E+03  0.21798835521E+03 -0.42450865952E+03  0.50302603469E+03  0.76788103610E+02 0.  0.
         13    1    3    3    0    0 -0.20657647963E+01  0.40138344440E+01  0.14544912746E+01  0.47427624867E+01  0.00000000000E+00 0.  1.
        -13    1    3    3    0    0  0.49255330902E+02  0.40293738870E+03 -0.87388723469E+03  0.96356812203E+03  0.00000000000E+00 0. -1.
          2    1    6    6  502    0 -0.15184496438E+02  0.72434563849E+02 -0.80126372561E+02  0.10907598522E+03  0.00000000000E+00 0. -1.
          3    1    5    5  503    0  0.23458669514E+02 -0.36498318001E+03 -0.14958297259E+03  0.39514313426E+03  0.00000000000E+00 0. -1.
         -4    1    5    5    0  503  0.68679628445E+02 -0.25995639834E+03 -0.64157741657E+02  0.27642437703E+03  0.00000000000E+00 0.  1.
         -1    1    6    6    0  502 -0.12414336763E+03  0.14555379136E+03 -0.34438228696E+03  0.39395004946E+03  0.00000000000E+00 0.  1.
<mgrwt>
<rscale>  0 0.15198286E+04</rscale>
<asrwt>0</asrwt>
<pdfrwt beam="1">  1        2 0.28104512E+00 0.15198286E+04</pdfrwt>
<pdfrwt beam="2">  1       -2 0.48632486E-01 0.15198286E+04</pdfrwt>
<totfact> 0.32211720E+01</totfact>
</mgrwt>
</event>
<event>
12    1  0.1598876E-007  0.1221641E+04  0.7818608E-02  0.9094122E-01
         -2   -1    0    0    0  501 -0.00000000000E+00  0.00000000000E+00  0.37638458487E+03  0.37638458487E+03  0.00000000000E+00 0. -1.
          2   -1    0    0  501    0  0.00000000000E+00 -0.00000000000E+00 -0.99127757045E+03  0.99127757045E+03  0.00000000000E+00 0.  1.
         23    2    1    2    0    0 -0.58231069634E+02 -0.22456658562E+03 -0.77849663670E+02  0.26178564952E+03  0.93006168133E+02 0.  0.
        254    2    1    2    0    0  0.58231069634E+02  0.22456658562E+03 -0.53704332190E+03  0.11058765058E+04  0.93847019539E+03 0.  0.
        -24    2    4    4    0    0  0.46480139076E+02  0.58694057948E+03 -0.30340033870E+03  0.66739890783E+03  0.81913915025E+02 0.  0.
         24    2    4    4    0    0  0.11750930558E+02 -0.36237399386E+03 -0.23364298320E+03  0.43847759797E+03  0.78870555520E+02 0.  0.
         13    1    3    3    0    0 -0.50533164917E+01  0.65094015792E+01  0.60941814623E+01  0.10249261641E+02  0.00000000000E+00 0.  1.
        -13    1    3    3    0    0 -0.53177753142E+02 -0.23107598720E+03 -0.83943845132E+02  0.25153638788E+03  0.00000000000E+00 0. -1.
          2    1    6    6  502    0 -0.28099486562E+02 -0.13552748455E+03 -0.64380155043E+02  0.15265020333E+03  0.00000000000E+00 0. -1.
          3    1    5    5  503    0  0.46808122987E+02  0.30130123343E+03 -0.19469955802E+03  0.36177527768E+03  0.00000000000E+00 0. -1.
         -4    1    5    5    0  503 -0.32798391075E+00  0.28563934605E+03 -0.10870078068E+03  0.30562363015E+03  0.00000000000E+00 0.  1.
         -1    1    6    6    0  502  0.39850417120E+02 -0.22684650931E+03 -0.16926282816E+03  0.28582739464E+03  0.00000000000E+00 0.  1.
<mgrwt>
<rscale>  0 0.12216409E+04</rscale>
<asrwt>0</asrwt>
<pdfrwt beam="1">  1        2 0.15250424E+00 0.12216409E+04</pdfrwt>
<pdfrwt beam="2">  1       -2 0.57905320E-01 0.12216409E+04</pdfrwt>
<totfact> 0.70194055E+01</totfact>
</mgrwt>
</event>
<event>
12    1  0.1598876E-007  0.1571461E+04  0.7818608E-02  0.8838275E-01
          2   -1    0    0  501    0  0.00000000000E+00  0.00000000000E+00  0.57453575409E+03  0.57453575409E+03  0.00000000000E+00 0. -1.
         -2   -1    0    0    0  501 -0.00000000000E+00 -0.00000000000E+00 -0.10745585660E+04  0.10745585660E+04  0.00000000000E+00 0.  1.
         23    2    1    2    0    0 -0.33215105828E+02 -0.34345921594E+03 -0.58961012080E+03  0.68828287885E+03  0.83819750131E+02 0.  0.
        254    2    1    2    0    0  0.33215105828E+02  0.34345921594E+03  0.89587308888E+02  0.96081144123E+03  0.89222489509E+03 0.  0.
        -24    2    4    4    0    0 -0.18921309345E+03  0.56180845991E+03  0.18250729753E+03  0.62588960628E+03  0.83657308360E+02 0.  0.
         24    2    4    4    0    0  0.22242819927E+03 -0.21834924397E+03 -0.92919988641E+02  0.33492183495E+03  0.79923807876E+02 0.  0.
         13    1    3    3    0    0 -0.61303358527E+02 -0.21296199132E+03 -0.36846697221E+03  0.42997537269E+03  0.00000000000E+00 0.  1.
        -13    1    3    3    0    0  0.28088252699E+02 -0.13049722461E+03 -0.22114314859E+03  0.25830750616E+03  0.00000000000E+00 0. -1.
          2    1    6    6  502    0  0.92427242599E+01  0.26739678922E+01  0.71042625234E+01  0.11960292724E+02  0.00000000000E+00 0. -1.
          1    1    5    5  503    0 -0.89608029787E+02  0.16954558327E+03  0.33814182300E+02  0.19472725216E+03  0.00000000000E+00 0. -1.
         -2    1    5    5    0  503 -0.99605063659E+02  0.39226287663E+03  0.14869311523E+03  0.43116235412E+03  0.00000000000E+00 0.  1.
         -1    1    6    6    0  502  0.21318547501E+03 -0.22102321186E+03 -0.10002425116E+03  0.32296154223E+03  0.00000000000E+00 0.  1.
<mgrwt>
<rscale>  0 0.15714609E+04</rscale>
<asrwt>0</asrwt>
<pdfrwt beam="1">  1        2 0.88390116E-01 0.15714609E+04</pdfrwt>
<pdfrwt beam="2">  1       -2 0.16531670E+00 0.15714609E+04</pdfrwt>
<totfact> 0.11555208E+01</totfact>
</mgrwt>
</event>
<event>
12    1  0.1598876E-007  0.1165608E+04  0.7818608E-02  0.9143504E-01
         -2   -1    0    0    0  501 -0.00000000000E+00  0.00000000000E+00  0.44355506868E+03  0.44355506868E+03  0.00000000000E+00 0.  1.
          2   -1    0    0  501    0  0.00000000000E+00 -0.00000000000E+00 -0.76576834238E+03  0.76576834238E+03  0.00000000000E+00 0. -1.
         23    2    1    2    0    0  0.89728958195E+02  0.19889944982E+03 -0.35811880509E+02  0.23662724234E+03  0.84247753398E+02 0.  0.
        254    2    1    2    0    0 -0.89728958195E+02 -0.19889944982E+03 -0.28640139319E+03  0.97269616872E+03  0.90360378571E+03 0.  0.
        -24    2    4    4    0    0 -0.39514458318E+03 -0.38939429514E+03 -0.16111728259E+03  0.58356323177E+03  0.82583945313E+02 0.  0.
         24    2    4    4    0    0  0.30541562498E+03  0.19049484531E+03 -0.12528411061E+03  0.38913293695E+03  0.78494230217E+02 0.  0.
         13    1    3    3    0    0  0.85942546280E+02  0.98785027067E+02 -0.22087423450E+01  0.13095602841E+03  0.00000000000E+00 0.  1.
        -13    1    3    3    0    0  0.37864119145E+01  0.10011442276E+03 -0.33603138164E+02  0.10567121393E+03  0.00000000000E+00 0. -1.
          4    1    6    6  502    0  0.15752206505E+02  0.42657577091E+01  0.10010686054E+02  0.19145300569E+02  0.00000000000E+00 0. -1.
          1    1    5    5  503    0 -0.16487835367E+02  0.11191905275E+01 -0.86312570290E+01  0.18644031228E+02  0.00000000000E+00 0. -1.
         -2    1    5    5    0  503 -0.37865674781E+03 -0.39051348567E+03 -0.15248602556E+03  0.56491920054E+03  0.00000000000E+00 0.  1.
         -3    1    6    6    0  502  0.28966341848E+03  0.18622908761E+03 -0.13529479666E+03  0.36998763638E+03  0.00000000000E+00 0.  1.
<mgrwt>
<rscale>  0 0.11656079E+04</rscale>
<asrwt>0</asrwt>
<pdfrwt beam="1">  1        2 0.11781051E+00 0.11656079E+04</pdfrwt>
<pdfrwt beam="2">  1       -2 0.68239243E-01 0.11656079E+04</pdfrwt>
<totfact> 0.70956169E+01</totfact>
</mgrwt>
</event>
<event>
12    1  0.1598876E-007  0.1199441E+04  0.7818608E-02  0.9113346E-01
         -1   -1    0    0    0  501 -0.00000000000E+00  0.00000000000E+00  0.64428348817E+03  0.64428348817E+03  0.00000000000E+00 0.  1.
          1   -1    0    0  501    0  0.00000000000E+00 -0.00000000000E+00 -0.55823980650E+03  0.55823980650E+03  0.00000000000E+00 0. -1.
         23    2    1    2    0    0  0.21475012046E+03  0.11139494242E+03  0.80682308924E+01  0.25838524522E+03  0.90395747475E+02 0.  0.
        254    2    1    2    0    0 -0.21475012046E+03 -0.11139494242E+03  0.77975450777E+02  0.94413804944E+03  0.90927995582E+03 0.  0.
        -24    2    4    4    0    0  0.31631751765E+03 -0.17927915135E+03 -0.82146589727E+02  0.37963108789E+03  0.71929928457E+02 0.  0.
         24    2    4    4    0    0 -0.53106763812E+03  0.67884208938E+02  0.16012204050E+03  0.56450696155E+03  0.79924587622E+02 0.  0.
         13    1    3    3    0    0  0.17077536450E+03  0.66298011093E+02 -0.28735602252E+02  0.18543296965E+03  0.00000000000E+00 0.  1.
        -13    1    3    3    0    0  0.43974755961E+02  0.45096931323E+02  0.36803833145E+02  0.72952275569E+02  0.00000000000E+00 0. -1.
          4    1    6    6  502    0 -0.21185029323E+03 -0.86744514975E+00  0.34518002304E+02  0.21464573531E+03  0.00000000000E+00 0. -1.
          3    1    5    5  503    0  0.10671545841E+03 -0.30271188324E+02 -0.45892126505E+01  0.11102069527E+03  0.00000000000E+00 0. -1.
         -4    1    5    5    0  503  0.20960205924E+03 -0.14900796303E+03 -0.77557377076E+02  0.26861039262E+03  0.00000000000E+00 0.  1.
         -3    1    6    6    0  502 -0.31921734489E+03  0.68751654088E+02  0.12560403820E+03  0.34986122624E+03  0.00000000000E+00 0.  1.
<mgrwt>
<rscale>  0 0.11994410E+04</rscale>
<asrwt>0</asrwt>
<pdfrwt beam="1">  1        1 0.85883047E-01 0.11994410E+04</pdfrwt>
<pdfrwt beam="2">  1       -1 0.99120537E-01 0.11994410E+04</pdfrwt>
<totfact> 0.36581626E+01</totfact>
</mgrwt>
</event>
<event>
12    1  0.1598876E-007  0.1845816E+04  0.7818608E-02  0.8682307E-01
         -1   -1    0    0    0  501 -0.00000000000E+00  0.00000000000E+00  0.56253803100E+03  0.56253803100E+03  0.00000000000E+00 0.  1.
          1   -1    0    0  501    0  0.00000000000E+00 -0.00000000000E+00 -0.15141369202E+04  0.15141369202E+04  0.00000000000E+00 0. -1.
         23    2    1    2    0    0  0.48937447843E+03  0.48224209881E+02 -0.92450880038E+03  0.10513335589E+04  0.93663095603E+02 0.  0.
        254    2    1    2    0    0 -0.48937447843E+03 -0.48224209881E+02 -0.27090088841E+02  0.10253413924E+04  0.89932093460E+03 0.  0.
        -24    2    4    4    0    0 -0.45781999156E+03  0.25116314741E+03  0.27147777061E+03  0.59378761879E+03  0.78749507927E+02 0.  0.
         24    2    4    4    0    0 -0.31554486865E+02 -0.29938735729E+03 -0.29856785946E+03  0.43155377357E+03  0.80420255137E+02 0.  0.
         13    1    3    3    0    0  0.46078213756E+03  0.21723734284E+02 -0.86186870949E+03  0.97755295065E+03  0.00000000000E+00 0. -1.
        -13    1    3    3    0    0  0.28592340868E+02  0.26500475597E+02 -0.62640090896E+02  0.73780608229E+02  0.00000000000E+00 0.  1.
          2    1    6    6  502    0 -0.27392280900E+01 -0.20879480381E+03 -0.24688000559E+03  0.32334580658E+03  0.00000000000E+00 0. -1.
          3    1    5    5  503    0 -0.37713366576E+03  0.23724858673E+03  0.23989698660E+03  0.50603088634E+03  0.00000000000E+00 0. -1.
         -4    1    5    5    0  503 -0.80686325805E+02  0.13914560679E+02  0.31580784019E+02  0.87756732448E+02  0.00000000000E+00 0.  1.
         -1    1    6    6    0  502 -0.28815258775E+02 -0.90592553475E+02 -0.51687853862E+02  0.10820796699E+03  0.00000000000E+00 0.  1.
<mgrwt>
<rscale>  0 0.18458165E+04</rscale>
<asrwt>0</asrwt>
<pdfrwt beam="1">  1        1 0.23294413E+00 0.18458165E+04</pdfrwt>
<pdfrwt beam="2">  1       -1 0.86544315E-01 0.18458165E+04</pdfrwt>
<totfact> 0.79133458E+00</totfact>
</mgrwt>
</event>
<event>
12    1  0.1598876E-007  0.1502738E+04  0.7818608E-02  0.8882634E-01
         -1   -1    0    0    0  501 -0.00000000000E+00  0.00000000000E+00  0.95798495198E+03  0.95798495198E+03  0.00000000000E+00 0.  1.
          1   -1    0    0  501    0  0.00000000000E+00 -0.00000000000E+00 -0.58931564389E+03  0.58931564389E+03  0.00000000000E+00 0. -1.
         23    2    1    2    0    0 -0.87695409392E+02  0.14173877086E+03  0.59664876980E+03  0.62716464938E+03  0.97802755220E+02 0.  0.
        254    2    1    2    0    0  0.87695409392E+02 -0.14173877086E+03 -0.22797946172E+03  0.92013594650E+03  0.87572550555E+03 0.  0.
        -24    2    4    4    0    0 -0.10443608597E+02  0.30690976174E+03  0.11888955881E+03  0.33899209724E+03  0.80487539333E+02 0.  0.
         24    2    4    4    0    0  0.98139017989E+02 -0.44864853260E+03 -0.34686902052E+03  0.58114384926E+03  0.80580912588E+02 0.  0.
         11    1    3    3    0    0 -0.10738011787E+03  0.13003085567E+03  0.49397082127E+03  0.52196329890E+03  0.00000000000E+00 0.  1.
        -11    1    3    3    0    0  0.19684708478E+02  0.11707915191E+02  0.10267794854E+03  0.10520135047E+03  0.00000000000E+00 0. -1.
          2    1    6    6  502    0  0.72137997422E+02 -0.18924155378E+03 -0.18480737996E+03  0.27417152302E+03  0.00000000000E+00 0. -1.
          3    1    5    5  503    0  0.40126434384E+00  0.30139438944E+03  0.12385526210E+03  0.32585098580E+03  0.00000000000E+00 0. -1.
         -2    1    5    5    0  503 -0.10844872941E+02  0.55153723007E+01 -0.49657032912E+01  0.13141111441E+02  0.00000000000E+00 0.  1.
         -1    1    6    6    0  502  0.26001020567E+02 -0.25940697882E+03 -0.16206164057E+03  0.30697232624E+03  0.00000000000E+00 0.  1.
<mgrwt>
<rscale>  0 0.15027382E+04</rscale>
<asrwt>0</asrwt>
<pdfrwt beam="1">  1        1 0.90663945E-01 0.15027382E+04</pdfrwt>
<pdfrwt beam="2">  1       -1 0.14738230E+00 0.15027382E+04</pdfrwt>
<totfact> 0.12436811E+01</totfact>
</mgrwt>
</event>
<event>
12    1  0.1598876E-007  0.2506182E+04  0.7818608E-02  0.8400787E-01
         -2   -1    0    0    0  501 -0.00000000000E+00  0.00000000000E+00  0.10359490827E+04  0.10359490827E+04  0.00000000000E+00 0.  1.
          2   -1    0    0  501    0  0.00000000000E+00 -0.00000000000E+00 -0.15157469702E+04  0.15157469702E+04  0.00000000000E+00 0. -1.
         23    2    1    2    0    0 -0.10114306302E+03  0.56562801424E+03 -0.11547519389E+04  0.12952135415E+04  0.11815713286E+03 0.  0.
        254    2    1    2    0    0  0.10114306302E+03 -0.56562801424E+03  0.67495405134E+03  0.12564825114E+04  0.89051690622E+03 0.  0.
        -24    2    4    4    0    0  0.26357714776E+03  0.14844846501E+03  0.28403569489E+03  0.42240091850E+03  0.78970883197E+02 0.  0.
         24    2    4    4    0    0 -0.16243408474E+03 -0.71407647924E+03  0.39091835645E+03  0.83408159287E+03  0.81147347825E+02 0.  0.
         13    1    3    3    0    0  0.19224677044E+02  0.26129742996E+02 -0.45699374069E+02  0.56042702172E+02  0.00000000000E+00 0.  1.
        -13    1    3    3    0    0 -0.12036774006E+03  0.53949827124E+03 -0.11090525648E+04  0.12391708393E+04  0.00000000000E+00 0. -1.
          4    1    6    6  502    0 -0.76628989292E+02 -0.39431796611E+03  0.25747532042E+03  0.47712912406E+03  0.00000000000E+00 0. -1.
          1    1    5    5  503    0  0.17902811342E+03  0.13114472293E+03  0.17087153277E+03  0.28008406677E+03  0.00000000000E+00 0. -1.
         -2    1    5    5    0  503  0.84549034338E+02  0.17303742079E+02  0.11316416212E+03  0.14231685173E+03  0.00000000000E+00 0.  1.
         -3    1    6    6    0  502 -0.85805095449E+02 -0.31975851313E+03  0.13344303603E+03  0.35695246881E+03  0.00000000000E+00 0.  1.
<mgrwt>
<rscale>  0 0.25061817E+04</rscale>
<asrwt>0</asrwt>
<pdfrwt beam="1">  1        2 0.23319184E+00 0.25061817E+04</pdfrwt>
<pdfrwt beam="2">  1       -2 0.15937678E+00 0.25061817E+04</pdfrwt>
<totfact> 0.28228373E+00</totfact>
</mgrwt>
</event>
<event>
12    1  0.1598876E-007  0.3306979E+04  0.7818608E-02  0.8161122E-01
         -2   -1    0    0    0  501 -0.00000000000E+00  0.00000000000E+00  0.24307394665E+04  0.24307394665E+04  0.00000000000E+00 0.  1.
          2   -1    0    0  501    0  0.00000000000E+00 -0.00000000000E+00 -0.11247718733E+04  0.11247718733E+04  0.00000000000E+00 0. -1.
         23    2    1    2    0    0  0.40884740137E+03 -0.12136275670E+04 -0.29551908364E+03  0.13165964349E+04  0.77759722969E+02 0.  0.
        254    2    1    2    0    0 -0.40884740137E+03  0.12136275670E+04  0.16014866768E+04  0.22389149049E+04  0.89885054724E+03 0.  0.
        -24    2    4    4    0    0 -0.98250797989E+02  0.12265533478E+04  0.11510540192E+04  0.16869179256E+04  0.81733702379E+02 0.  0.
         24    2    4    4    0    0 -0.31059660338E+03 -0.12925780795E+02  0.45043265755E+03  0.55199697928E+03  0.71928855870E+02 0.  0.
         11    1    3    3    0    0  0.36072079043E+03 -0.97586377182E+03 -0.23692481195E+03  0.10670346556E+04  0.00000000000E+00 0. -1.
        -11    1    3    3    0    0  0.48126610934E+02 -0.23776379522E+03 -0.58594271696E+02  0.24956177927E+03  0.00000000000E+00 0.  1.
          4    1    6    6  502    0 -0.97935827272E+02 -0.26991983910E+02  0.10493700956E+03  0.14605399492E+03  0.00000000000E+00 0. -1.
          3    1    5    5  503    0 -0.14540702674E+01  0.40628857177E+02  0.60477908497E+02  0.72872462371E+02  0.00000000000E+00 0. -1.
         -4    1    5    5    0  503 -0.96796727722E+02  0.11859244907E+04  0.10905761107E+04  0.16140454632E+04  0.00000000000E+00 0.  1.
         -3    1    6    6    0  502 -0.21266077611E+03  0.14066203115E+02  0.34549564800E+03  0.40594298436E+03  0.00000000000E+00 0.  1.
<mgrwt>
<rscale>  0 0.33069789E+04</rscale>
<asrwt>0</asrwt>
<pdfrwt beam="1">  1        2 0.17304183E+00 0.33069789E+04</pdfrwt>
<pdfrwt beam="2">  1       -2 0.37395992E+00 0.33069789E+04</pdfrwt>
<totfact> 0.19214820E-01</totfact>
</mgrwt>
</event>
<event>
12    1  0.1598876E-007  0.1625988E+04  0.7818608E-02  0.8804740E-01
         -2   -1    0    0    0  501 -0.00000000000E+00  0.00000000000E+00  0.11234415930E+04  0.11234415930E+04  0.00000000000E+00 0. -1.
          2   -1    0    0  501    0  0.00000000000E+00 -0.00000000000E+00 -0.58833437771E+03  0.58833437771E+03  0.00000000000E+00 0.  1.
         23    2    1    2    0    0 -0.32977737853E+03 -0.67598381665E+02  0.68814911804E+03  0.77153077048E+03  0.91585263768E+02 0.  0.
        254    2    1    2    0    0  0.32977737853E+03  0.67598381665E+02 -0.15304190278E+03  0.94024520020E+03  0.86447472601E+03 0.  0.
        -24    2    4    4    0    0 -0.50117308250E+02  0.39096761137E+03  0.26120275435E+02  0.40265905974E+03  0.78004050402E+02 0.  0.
         24    2    4    4    0    0  0.37989468678E+03 -0.32336922970E+03 -0.17916217821E+03  0.53758614046E+03  0.89510561107E+02 0.  0.
         11    1    3    3    0    0 -0.23054550254E+03 -0.13757093817E+02  0.52017781900E+03  0.56914448934E+03  0.00000000000E+00 0. -1.
        -11    1    3    3    0    0 -0.99231875984E+02 -0.53841287848E+02  0.16797129904E+03  0.20238628113E+03  0.00000000000E+00 0.  1.
          2    1    6    6  502    0  0.16953447811E+02 -0.29936880973E+02 -0.35070254936E+02  0.49127986081E+02  0.00000000000E+00 0. -1.
          3    1    5    5  503    0 -0.33985618903E+02  0.49985886941E+02  0.44621495312E+01  0.60609586403E+02  0.00000000000E+00 0. -1.
         -4    1    5    5    0  503 -0.16131689347E+02  0.34098172443E+03  0.21658125903E+02  0.34204947334E+03  0.00000000000E+00 0.  1.
         -1    1    6    6    0  502  0.36294123897E+03 -0.29343234873E+03 -0.14409192328E+03  0.48845815438E+03  0.00000000000E+00 0.  1.
<mgrwt>
<rscale>  0 0.16259881E+04</rscale>
<asrwt>0</asrwt>
<pdfrwt beam="1">  1        2 0.90512981E-01 0.16259881E+04</pdfrwt>
<pdfrwt beam="2">  1       -2 0.17283717E+00 0.16259881E+04</pdfrwt>
<totfact> 0.98816492E+00</totfact>
</mgrwt>
</event>
<event>
12    1  0.1598876E-007  0.2504214E+04  0.7818608E-02  0.8401486E-01
          2   -1    0    0  501    0  0.00000000000E+00  0.00000000000E+00  0.31684502856E+04  0.31684502856E+04  0.00000000000E+00 0. -1.
         -2   -1    0    0    0  501 -0.00000000000E+00 -0.00000000000E+00 -0.49480729311E+03  0.49480729311E+03  0.00000000000E+00 0.  1.
         23    2    1    2    0    0 -0.28932818765E+03 -0.43978060894E+03  0.25673868675E+04  0.26222553709E+04  0.87350549075E+02 0.  0.
        254    2    1    2    0    0  0.28932818765E+03  0.43978060894E+03  0.10625612496E+03  0.10410022078E+04  0.89178329679E+03 0.  0.
        -24    2    4    4    0    0  0.28560126416E+03  0.56357823192E+03 -0.22780259513E+03  0.67639613651E+03  0.80182327013E+02 0.  0.
         24    2    4    4    0    0  0.37269234885E+01 -0.12379762298E+03  0.33405872009E+03  0.36460607130E+03  0.77476559989E+02 0.  0.
         13    1    3    3    0    0 -0.27843366696E+03 -0.37036864993E+03  0.22280037479E+04  0.22756754919E+04  0.00000000000E+00 0.  1.
        -13    1    3    3    0    0 -0.10894520684E+02 -0.69411959010E+02  0.33938311966E+03  0.34657987903E+03  0.00000000000E+00 0. -1.
          4    1    6    6  502    0  0.32572359918E+02 -0.10735488091E+03  0.24190705069E+03  0.26665530232E+03  0.00000000000E+00 0. -1.
          3    1    5    5  503    0  0.78073794939E+02  0.22916135214E+03 -0.66630534567E+02  0.25109773178E+03  0.00000000000E+00 0. -1.
         -4    1    5    5    0  503  0.20752746922E+03  0.33441687978E+03 -0.16117206056E+03  0.42529840473E+03  0.00000000000E+00 0.  1.
         -3    1    6    6    0  502 -0.28845436430E+02 -0.16442742074E+02  0.92151669407E+02  0.97950768982E+02  0.00000000000E+00 0.  1.
<mgrwt>
<rscale>  0 0.25042143E+04</rscale>
<asrwt>0</asrwt>
<pdfrwt beam="1">  1        2 0.48745388E+00 0.25042143E+04</pdfrwt>
<pdfrwt beam="2">  1       -2 0.76124201E-01 0.25042143E+04</pdfrwt>
<totfact> 0.18733983E+00</totfact>
</mgrwt>
</event>
<event>
12    1  0.1598876E-007  0.2260589E+04  0.7818608E-02  0.8493625E-01
         -1   -1    0    0    0  501 -0.00000000000E+00  0.00000000000E+00  0.68232310744E+03  0.68232310744E+03  0.00000000000E+00 0.  1.
          1   -1    0    0  501    0  0.00000000000E+00 -0.00000000000E+00 -0.18723759702E+04  0.18723759702E+04  0.00000000000E+00 0. -1.
         23    2    1    2    0    0 -0.45969810754E+03  0.39850750641E+03  0.32050432411E+03  0.69384143940E+03  0.92532905071E+02 0.  0.
        254    2    1    2    0    0  0.45969810754E+03 -0.39850750641E+03 -0.15105571869E+04  0.18608576383E+04  0.90048739706E+03 0.  0.
        -24    2    4    4    0    0  0.44874650303E+03 -0.27868062968E+03 -0.24519786355E+03  0.58775335520E+03  0.79345427839E+02 0.  0.
         24    2    4    4    0    0  0.10951604504E+02 -0.11982687674E+03 -0.12653593234E+04  0.12731042831E+04  0.71985278696E+02 0.  0.
         13    1    3    3    0    0 -0.42257388752E+03  0.32772288269E+03  0.26751181714E+03  0.59794109289E+03  0.00000000000E+00 0.  1.
        -13    1    3    3    0    0 -0.37124220018E+02  0.70784623722E+02  0.52992506968E+02  0.95900346517E+02  0.00000000000E+00 0. -1.
          4    1    6    6  502    0  0.27734364021E+02 -0.10763794944E+03 -0.85132744130E+03  0.85855316400E+03  0.00000000000E+00 0. -1.
          1    1    5    5  503    0  0.42037931306E+03 -0.24273644465E+03 -0.20543373493E+03  0.52710792809E+03  0.00000000000E+00 0. -1.
         -2    1    5    5    0  503  0.28367189971E+02 -0.35944185023E+02 -0.39764128623E+02  0.60645427106E+02  0.00000000000E+00 0.  1.
         -3    1    6    6    0  502 -0.16782759517E+02 -0.12188927299E+02 -0.41403188207E+03  0.41455111908E+03  0.00000000000E+00 0.  1.
<mgrwt>
<rscale>  0 0.22605888E+04</rscale>
<asrwt>0</asrwt>
<pdfrwt beam="1">  1        1 0.28805783E+00 0.22605888E+04</pdfrwt>
<pdfrwt beam="2">  1       -1 0.10497279E+00 0.22605888E+04</pdfrwt>
<totfact> 0.28102313E+00</totfact>
</mgrwt>
</event>
<event>
12    1  0.1598876E-007  0.3288044E+04  0.7818608E-02  0.8165944E-01
          1   -1    0    0  501    0  0.00000000000E+00  0.00000000000E+00  0.23298324287E+04  0.23298324287E+04  0.00000000000E+00 0. -1.
         -1   -1    0    0    0  501 -0.00000000000E+00 -0.00000000000E+00 -0.11600871476E+04  0.11600871476E+04  0.00000000000E+00 0.  1.
         23    2    1    2    0    0  0.75616745174E+02 -0.52305323769E+03 -0.96994213030E+03  0.11083279940E+04  0.91107763796E+02 0.  0.
        254    2    1    2    0    0 -0.75616745174E+02  0.52305323769E+03  0.21396874115E+04  0.23815915823E+04  0.90244870456E+03 0.  0.
        -24    2    4    4    0    0  0.11410132214E+03  0.66131283567E+03  0.94489072020E+03  0.11616378381E+04  0.78931713301E+02 0.  0.
         24    2    4    4    0    0 -0.18971806732E+03 -0.13825959797E+03  0.11947966913E+04  0.12199537442E+04  0.75095559547E+02 0.  0.
         13    1    3    3    0    0  0.74494969355E+02 -0.42528440671E+03 -0.85177862422E+03  0.95495714654E+03  0.00000000000E+00 0.  1.
        -13    1    3    3    0    0  0.11217758190E+01 -0.97768830986E+02 -0.11816350608E+03  0.15337084750E+03  0.00000000000E+00 0. -1.
          2    1    6    6  502    0 -0.54002250261E+02 -0.16397803823E+02  0.43104787493E+03  0.43472681248E+03  0.00000000000E+00 0. -1.
          1    1    5    5  503    0  0.93158062565E+02  0.32139785986E+03  0.44543687415E+03  0.55712567505E+03  0.00000000000E+00 0. -1.
         -2    1    5    5    0  503  0.20943259578E+02  0.33991497580E+03  0.49945384605E+03  0.60451216302E+03  0.00000000000E+00 0.  1.
         -1    1    6    6    0  502 -0.13571581706E+03 -0.12186179415E+03  0.76374881632E+03  0.78522693173E+03  0.00000000000E+00 0.  1.
<mgrwt>
<rscale>  0 0.32880442E+04</rscale>
<asrwt>0</asrwt>
<pdfrwt beam="1">  1        1 0.35843576E+00 0.32880442E+04</pdfrwt>
<pdfrwt beam="2">  1       -1 0.17847495E+00 0.32880442E+04</pdfrwt>
<totfact> 0.31467117E-01</totfact>
</mgrwt>
</event>
<event>
12    1  0.1598876E-007  0.1920426E+04  0.7818608E-02  0.8644755E-01
         -2   -1    0    0    0  501 -0.00000000000E+00  0.00000000000E+00  0.22128373378E+03  0.22128373378E+03  0.00000000000E+00 0.  1.
          2   -1    0    0  501    0  0.00000000000E+00 -0.00000000000E+00 -0.41666371585E+04  0.41666371585E+04  0.00000000000E+00 0. -1.
         23    2    1    2    0    0  0.97434466495E+02  0.43849094857E+03 -0.18588691163E+03  0.49560666364E+03  0.96458456803E+02 0.  0.
        254    2    1    2    0    0 -0.97434466495E+02 -0.43849094857E+03 -0.37594665130E+04  0.38923142286E+04  0.90263713870E+03 0.  0.
        -24    2    4    4    0    0 -0.20041261752E+03 -0.59371044373E+03 -0.15522836061E+04  0.16759128435E+04  0.80263049564E+02 0.  0.
         24    2    4    4    0    0  0.10297815103E+03  0.15521949516E+03 -0.22071829070E+04  0.22164013851E+04  0.77981559828E+02 0.  0.
         11    1    3    3    0    0  0.85747064111E+02  0.18731361475E+03 -0.60981588553E+02  0.21484343931E+03  0.00000000000E+00 0. -1.
        -11    1    3    3    0    0  0.11687402384E+02  0.25117733382E+03 -0.12490532308E+03  0.28076322433E+03  0.00000000000E+00 0.  1.
          2    1    6    6  502    0  0.86604523920E+00  0.14476688578E+02 -0.45938152008E+02  0.48173004437E+02  0.00000000000E+00 0. -1.
          3    1    5    5  503    0 -0.10533823764E+03 -0.28884232059E+03 -0.86624374714E+03  0.91918673834E+03  0.00000000000E+00 0. -1.
         -4    1    5    5    0  503 -0.95074379886E+02 -0.30486812314E+03 -0.68603985892E+03  0.75672610517E+03  0.00000000000E+00 0.  1.
         -1    1    6    6    0  502  0.10211210579E+03  0.14074280658E+03 -0.21612447550E+04  0.21682283806E+04  0.00000000000E+00 0.  1.
<mgrwt>
<rscale>  0 0.19204260E+04</rscale>
<asrwt>0</asrwt>
<pdfrwt beam="1">  1        2 0.64102103E+00 0.19204260E+04</pdfrwt>
<pdfrwt beam="2">  1       -2 0.34043655E-01 0.19204260E+04</pdfrwt>
<totfact> 0.19034060E+00</totfact>
</mgrwt>
</event>
<event>
12    1  0.1598876E-007  0.2133421E+04  0.7818608E-02  0.8546662E-01
         -1   -1    0    0    0  501 -0.00000000000E+00  0.00000000000E+00  0.86623460203E+03  0.86623460203E+03  0.00000000000E+00 0.  1.
          1   -1    0    0  501    0  0.00000000000E+00 -0.00000000000E+00 -0.13135831305E+04  0.13135831305E+04  0.00000000000E+00 0. -1.
         23    2    1    2    0    0  0.52784998498E+03  0.52313992817E+03  0.28004330051E+03  0.79903420882E+03  0.87922838988E+02 0.  0.
        254    2    1    2    0    0 -0.52784998498E+03 -0.52313992817E+03 -0.72739182900E+03  0.13807835237E+04  0.90838498192E+03 0.  0.
        -24    2    4    4    0    0 -0.52651694178E+03  0.36350973450E+02 -0.11407065117E+03  0.54671349980E+03  0.85685787318E+02 0.  0.
         24    2    4    4    0    0 -0.13330432004E+01 -0.55949090162E+03 -0.61332117783E+03  0.83407002392E+03  0.80486592821E+02 0.  0.
         13    1    3    3    0    0  0.14659253404E+03  0.17149618701E+03  0.47158145143E+02  0.23048688433E+03  0.00000000000E+00 0. -1.
        -13    1    3    3    0    0  0.38125745094E+03  0.35164374116E+03  0.23288515537E+03  0.56854732449E+03  0.00000000000E+00 0.  1.
          2    1    6    6  502    0 -0.12962005473E+02 -0.14163203077E+02 -0.28480570859E+02  0.34347530097E+02  0.00000000000E+00 0. -1.
          1    1    5    5  503    0 -0.25761321276E+03  0.29748543478E+02 -0.13951563582E+02  0.25970019129E+03  0.00000000000E+00 0. -1.
         -2    1    5    5    0  503 -0.26890372902E+03  0.66024299720E+01 -0.10011908758E+03  0.28701330851E+03  0.00000000000E+00 0.  1.
         -1    1    6    6    0  502  0.11628962272E+02 -0.54532769854E+03 -0.58484060697E+03  0.79972249382E+03  0.00000000000E+00 0.  1.
<mgrwt>
<rscale>  0 0.21334209E+04</rscale>
<asrwt>0</asrwt>
<pdfrwt beam="1">  1        1 0.20208971E+00 0.21334209E+04</pdfrwt>
<pdfrwt beam="2">  1       -1 0.13326686E+00 0.21334209E+04</pdfrwt>
<totfact> 0.38625130E+00</totfact>
</mgrwt>
</event>
<event>
12    1  0.1598876E-007  0.2985968E+04  0.7818608E-02  0.8247749E-01
          2   -1    0    0  501    0  0.00000000000E+00  0.00000000000E+00  0.35827153468E+04  0.35827153468E+04  0.00000000000E+00 0. -1.
         -2   -1    0    0    0  501 -0.00000000000E+00 -0.00000000000E+00 -0.62215406004E+03  0.62215406004E+03  0.00000000000E+00 0.  1.
         23    2    1    2    0    0  0.17799841223E+03 -0.12124199374E+04  0.21301499016E+04  0.24591618948E+04  0.91066361503E+02 0.  0.
        254    2    1    2    0    0 -0.17799841223E+03  0.12124199374E+04  0.83041138515E+03  0.17457075120E+04  0.92534648094E+03 0.  0.
        -24    2    4    4    0    0 -0.28430815395E+03  0.13195741948E+04  0.80401925312E+03  0.15732494333E+04  0.80991593753E+02 0.  0.
         24    2    4    4    0    0  0.10630974173E+03 -0.10715425740E+03  0.26392132025E+02  0.17245807870E+03  0.79129313221E+02 0.  0.
         13    1    3    3    0    0  0.43905593625E+02 -0.12738411708E+03  0.20757761584E+03  0.24747299051E+03  0.00000000000E+00 0.  1.
        -13    1    3    3    0    0  0.13409281860E+03 -0.10850358203E+04  0.19225722858E+04  0.22116889043E+04  0.00000000000E+00 0. -1.
          2    1    6    6  502    0  0.46042682488E+02  0.15850776911E+01  0.86472780994E+01  0.46874476002E+02  0.00000000000E+00 0. -1.
          1    1    5    5  503    0 -0.31437540649E+02  0.64113200483E+02  0.48655523846E+02  0.86407068223E+02  0.00000000000E+00 0. -1.
         -2    1    5    5    0  503 -0.25287061330E+03  0.12554609943E+04  0.75536372927E+03  0.14868423651E+04  0.00000000000E+00 0.  1.
         -1    1    6    6    0  502  0.60267059238E+02 -0.10873933509E+03  0.17744853926E+02  0.12558360270E+03  0.00000000000E+00 0.  1.
<mgrwt>
<rscale>  0 0.29859678E+04</rscale>
<asrwt>0</asrwt>
<pdfrwt beam="1">  1        2 0.55118696E+00 0.29859678E+04</pdfrwt>
<pdfrwt beam="2">  1       -2 0.95716011E-01 0.29859678E+04</pdfrwt>
<totfact> 0.55711402E-01</totfact>
</mgrwt>
</event>
<event>
12    1  0.1598876E-007  0.2198386E+04  0.7818608E-02  0.8519100E-01
         -1   -1    0    0    0  501 -0.00000000000E+00  0.00000000000E+00  0.38785744298E+03  0.38785744298E+03  0.00000000000E+00 0.  1.
          1   -1    0    0  501    0  0.00000000000E+00 -0.00000000000E+00 -0.31151281427E+04  0.31151281427E+04  0.00000000000E+00 0. -1.
         23    2    1    2    0    0 -0.16776873748E+03 -0.25553386447E+03 -0.25054085775E+04  0.25265518759E+04  0.11379075671E+03 0.  0.
        254    2    1    2    0    0  0.16776873748E+03  0.25553386447E+03 -0.22186212225E+03  0.97643370981E+03  0.90041994824E+03 0.  0.
        -24    2    4    4    0    0 -0.22322431847E+03 -0.19550662246E+03  0.57545716998E+02  0.31257768519E+03  0.79632681459E+02 0.  0.
         24    2    4    4    0    0  0.39099305595E+03  0.45104048692E+03 -0.27940783925E+03  0.66385602461E+03  0.79517231706E+02 0.  0.
         11    1    3    3    0    0  0.45158835952E+01 -0.78539809868E+02 -0.54680943981E+03  0.55243955181E+03  0.00000000000E+00 0.  1.
        -11    1    3    3    0    0 -0.17228462108E+03 -0.17699405460E+03 -0.19585991377E+04  0.19741123241E+04  0.00000000000E+00 0. -1.
          4    1    6    6  502    0  0.20302944893E+03  0.25369601096E+03 -0.19309895786E+03  0.37798125699E+03  0.00000000000E+00 0. -1.
          3    1    5    5  503    0 -0.18803383969E+03 -0.15156906679E+03  0.76237365647E+02  0.25326279395E+03  0.00000000000E+00 0. -1.
         -4    1    5    5    0  503 -0.35190478777E+02 -0.43937555664E+02 -0.18691648650E+02  0.59314891246E+02  0.00000000000E+00 0.  1.
         -3    1    6    6    0  502  0.18796360702E+03  0.19734447596E+03 -0.86308881389E+02  0.28587476762E+03  0.00000000000E+00 0.  1.
<mgrwt>
<rscale>  0 0.21983864E+04</rscale>
<asrwt>0</asrwt>
<pdfrwt beam="1">  1        1 0.47925047E+00 0.21983864E+04</pdfrwt>
<pdfrwt beam="2">  1       -1 0.59670377E-01 0.21983864E+04</pdfrwt>
<totfact> 0.12785352E+00</totfact>
</mgrwt>
</event>
<event>
12    1  0.1598876E-007  0.2051792E+04  0.7818608E-02  0.8582782E-01
         -1   -1    0    0    0  501 -0.00000000000E+00  0.00000000000E+00  0.54876568411E+03  0.54876568411E+03  0.00000000000E+00 0. -1.
          1   -1    0    0  501    0  0.00000000000E+00 -0.00000000000E+00 -0.19178716541E+04  0.19178716541E+04  0.00000000000E+00 0.  1.
         23    2    1    2    0    0  0.40072105219E+03 -0.48403917327E+03 -0.12065746605E+04  0.13635351636E+04  0.92382076114E+02 0.  0.
        254    2    1    2    0    0 -0.40072105219E+03  0.48403917327E+03 -0.16253130947E+03  0.11031021746E+04  0.89193424544E+03 0.  0.
        -24    2    4    4    0    0 -0.63640728102E+03  0.22960403817E+03  0.58784719887E+02  0.68400753315E+03  0.81721603238E+02 0.  0.
         24    2    4    4    0    0  0.23568622882E+03  0.25443513510E+03 -0.22131602936E+03  0.41909464149E+03  0.79839196137E+02 0.  0.
         11    1    3    3    0    0  0.11720452355E+03 -0.81469825347E+02 -0.27549802496E+03  0.31027954257E+03  0.00000000000E+00 0. -1.
        -11    1    3    3    0    0  0.28351652864E+03 -0.40256934793E+03 -0.93107663555E+03  0.10532556210E+04  0.00000000000E+00 0.  1.
          4    1    6    6  502    0  0.74380170991E+01 -0.55838489184E+01 -0.10106587746E+02  0.13734867418E+02  0.00000000000E+00 0. -1.
          1    1    5    5  503    0 -0.20771356421E+03  0.76206893099E+02  0.57869039123E+02  0.22869464577E+03  0.00000000000E+00 0. -1.
         -2    1    5    5    0  503 -0.42869371681E+03  0.15339714507E+03  0.91568076330E+00  0.45531288738E+03  0.00000000000E+00 0.  1.
         -3    1    6    6    0  502  0.22824821173E+03  0.26001898402E+03 -0.21120944161E+03  0.40535977407E+03  0.00000000000E+00 0.  1.
<mgrwt>
<rscale>  0 0.20517916E+04</rscale>
<asrwt>0</asrwt>
<pdfrwt beam="1">  1        1 0.29505718E+00 0.20517916E+04</pdfrwt>
<pdfrwt beam="2">  1       -1 0.84425489E-01 0.20517916E+04</pdfrwt>
<totfact> 0.43468764E+00</totfact>
</mgrwt>
</event>
<event>
12    1  0.1598876E-007  0.2258391E+04  0.7818608E-02  0.8494510E-01
         -2   -1    0    0    0  501 -0.00000000000E+00  0.00000000000E+00  0.14680870924E+04  0.14680870924E+04  0.00000000000E+00 0.  1.
          2   -1    0    0  501    0  0.00000000000E+00 -0.00000000000E+00 -0.86853302421E+03  0.86853302421E+03  0.00000000000E+00 0. -1.
         23    2    1    2    0    0 -0.53577120064E+03  0.57277349567E+03 -0.29207099767E+03  0.84177431807E+03  0.90323186954E+02 0.  0.
        254    2    1    2    0    0  0.53577120064E+03 -0.57277349567E+03  0.89162506582E+03  0.14948457985E+04  0.90799143527E+03 0.  0.
        -24    2    4    4    0    0  0.18945028382E+03  0.11135780479E+03 -0.86612645471E+02  0.24934227409E+03  0.79861433533E+02 0.  0.
         24    2    4    4    0    0  0.34632091682E+03 -0.68413130046E+03  0.97823771129E+03  0.12455035244E+04  0.79725753887E+02 0.  0.
         11    1    3    3    0    0 -0.33001670117E+03  0.37626400383E+03 -0.14271112251E+03  0.52043451856E+03  0.00000000000E+00 0. -1.
        -11    1    3    3    0    0 -0.20575449948E+03  0.19650949184E+03 -0.14935987515E+03  0.32133979950E+03  0.00000000000E+00 0.  1.
          2    1    6    6  502    0  0.13589857157E+03 -0.23139057191E+03  0.39841878979E+03  0.48036189543E+03  0.00000000000E+00 0. -1.
          1    1    5    5  503    0  0.67689577500E+02  0.49750884454E+01 -0.45578327529E+01  0.68025026619E+02  0.00000000000E+00 0. -1.
         -2    1    5    5    0  503  0.12176070632E+03  0.10638271635E+03 -0.82054812718E+02  0.18131724747E+03  0.00000000000E+00 0.  1.
         -1    1    6    6    0  502  0.21042234525E+03 -0.45274072855E+03  0.57981892149E+03  0.76514162897E+03  0.00000000000E+00 0.  1.
<mgrwt>
<rscale>  0 0.22583907E+04</rscale>
<asrwt>0</asrwt>
<pdfrwt beam="1">  1        2 0.13362047E+00 0.22583907E+04</pdfrwt>
<pdfrwt beam="2">  1       -2 0.22585955E+00 0.22583907E+04</pdfrwt>
<totfact> 0.25433357E+00</totfact>
</mgrwt>
</event>
<event>
12    1  0.1598876E-007  0.2116901E+04  0.7818608E-02  0.8553835E-01
         -1   -1    0    0    0  501 -0.00000000000E+00  0.00000000000E+00  0.58847220544E+03  0.58847220544E+03  0.00000000000E+00 0.  1.
          1   -1    0    0  501    0  0.00000000000E+00 -0.00000000000E+00 -0.19037736376E+04  0.19037736376E+04  0.00000000000E+00 0. -1.
         23    2    1    2    0    0  0.17914318213E+03 -0.53053115982E+03  0.24343515646E+03  0.61723681696E+03  0.90360508897E+02 0.  0.
        254    2    1    2    0    0 -0.17914318213E+03  0.53053115982E+03 -0.15587365886E+04  0.18750090261E+04  0.87888765149E+03 0.  0.
        -24    2    4    4    0    0 -0.13627758985E+03  0.74259631975E+03 -0.14081115304E+04  0.15997678106E+04  0.80362243123E+02 0.  0.
         24    2    4    4    0    0 -0.42865592280E+02 -0.21206515993E+03 -0.15062505822E+03  0.27524121551E+03  0.79124759033E+02 0.  0.
         11    1    3    3    0    0  0.13736192289E+03 -0.26857785752E+03  0.13909394633E+03  0.33218893617E+03  0.00000000000E+00 0. -1.
        -11    1    3    3    0    0  0.41781259234E+02 -0.26195330230E+03  0.10434121013E+03  0.28504788079E+03  0.00000000000E+00 0.  1.
          2    1    6    6  502    0 -0.44177180736E+02 -0.20531873748E+03 -0.11596601035E+03  0.23990732130E+03  0.00000000000E+00 0. -1.
          3    1    5    5  503    0 -0.96597044047E+02  0.30645961916E+03 -0.59720727598E+03  0.67816297273E+03  0.00000000000E+00 0. -1.
         -4    1    5    5    0  503 -0.39680545800E+02  0.43613670059E+03 -0.81090425441E+03  0.92160483785E+03  0.00000000000E+00 0.  1.
         -1    1    6    6    0  502  0.13115884562E+01 -0.67464224504E+01 -0.34659047877E+02  0.35333894208E+02  0.00000000000E+00 0.  1.
<mgrwt>
<rscale>  0 0.21169014E+04</rscale>
<asrwt>0</asrwt>
<pdfrwt beam="1">  1        1 0.29288825E+00 0.21169014E+04</pdfrwt>
<pdfrwt beam="2">  1       -1 0.90534185E-01 0.21169014E+04</pdfrwt>
<totfact> 0.37916519E+00</totfact>
</mgrwt>
</event>
<event>
12    1  0.1598876E-007  0.1348154E+04  0.7818608E-02  0.8992226E-01
         -2   -1    0    0    0  501 -0.00000000000E+00  0.00000000000E+00  0.53546891593E+03  0.53546891593E+03  0.00000000000E+00 0.  1.
          2   -1    0    0  501    0  0.00000000000E+00 -0.00000000000E+00 -0.84856467563E+03  0.84856467563E+03  0.00000000000E+00 0. -1.
         23    2    1    2    0    0 -0.11321987729E+03 -0.34057643694E+03 -0.58350753696E+02  0.37457825349E+03  0.89961144474E+02 0.  0.
        254    2    1    2    0    0  0.11321987729E+03  0.34057643694E+03 -0.25474500600E+03  0.10094553381E+04  0.90845693980E+03 0.  0.
        -24    2    4    4    0    0  0.34128794922E+03  0.49688924022E+03 -0.35565396096E+03  0.70443610515E+03  0.79775340529E+02 0.  0.
         24    2    4    4    0    0 -0.22806807192E+03 -0.15631280329E+03  0.10090895497E+03  0.30501923292E+03  0.80033601429E+02 0.  0.
         13    1    3    3    0    0 -0.36133566681E+02 -0.92360555606E+02  0.23802121060E+02  0.10199337155E+03  0.00000000000E+00 0. -1.
        -13    1    3    3    0    0 -0.77086310614E+02 -0.24821588133E+03 -0.82152874757E+02  0.27258488194E+03  0.00000000000E+00 0.  1.
          2    1    6    6  502    0 -0.16516768807E+03 -0.71296061567E+02  0.45210359651E+02  0.18549250712E+03  0.00000000000E+00 0. -1.
          3    1    5    5  503    0  0.10768816813E+03  0.15212948627E+03 -0.68459878614E+02  0.19856202338E+03  0.00000000000E+00 0. -1.
         -4    1    5    5    0  503  0.23359978109E+03  0.34475975395E+03 -0.28719408235E+03  0.50587408177E+03  0.00000000000E+00 0.  1.
         -1    1    6    6    0  502 -0.62900383857E+02 -0.85016741718E+02  0.55698595317E+02  0.11952672581E+03  0.00000000000E+00 0.  1.
<mgrwt>
<rscale>  0 0.13481543E+04</rscale>
<asrwt>0</asrwt>
<pdfrwt beam="1">  1        2 0.13054841E+00 0.13481543E+04</pdfrwt>
<pdfrwt beam="2">  1       -2 0.82379833E-01 0.13481543E+04</pdfrwt>
<totfact> 0.40220977E+01</totfact>
</mgrwt>
</event>
<event>
12    1  0.1598876E-007  0.1174761E+04  0.7818608E-02  0.9135240E-01
         -1   -1    0    0    0  501 -0.00000000000E+00  0.00000000000E+00  0.23555971261E+03  0.23555971261E+03  0.00000000000E+00 0.  1.
          1   -1    0    0  501    0  0.00000000000E+00 -0.00000000000E+00 -0.14646635485E+04  0.14646635485E+04  0.00000000000E+00 0. -1.
         23    2    1    2    0    0  0.12075321857E+03 -0.19228801703E+03 -0.29732696989E+03  0.38536973936E+03  0.92468847221E+02 0.  0.
        254    2    1    2    0    0 -0.12075321857E+03  0.19228801703E+03 -0.93177686597E+03  0.13148535217E+04  0.89948631691E+03 0.  0.
        -24    2    4    4    0    0  0.23171947527E+03 -0.24448640697E+03 -0.46487346165E+03  0.58016364918E+03  0.83755633053E+02 0.  0.
         24    2    4    4    0    0 -0.35247269384E+03  0.43677442400E+03 -0.46690340432E+03  0.73468987253E+03  0.82228477248E+02 0.  0.
         11    1    3    3    0    0  0.12930466842E+03 -0.15370041856E+03 -0.21605652880E+03  0.29499820267E+03  0.00000000000E+00 0. -1.
        -11    1    3    3    0    0 -0.85514498455E+01 -0.38587598466E+02 -0.81270441093E+02  0.90371536699E+02  0.00000000000E+00 0.  1.
          4    1    6    6  502    0 -0.42964908675E+02  0.24141542364E+02 -0.60375159914E+02  0.77935597642E+02  0.00000000000E+00 0. -1.
          1    1    5    5  503    0  0.20630087610E+03 -0.18985372392E+03 -0.33392344287E+03  0.43601531356E+03  0.00000000000E+00 0. -1.
         -2    1    5    5    0  503  0.25418599169E+02 -0.54632683054E+02 -0.13095001878E+03  0.14414833562E+03  0.00000000000E+00 0.  1.
         -3    1    6    6    0  502 -0.30950778516E+03  0.41263288164E+03 -0.40652824440E+03  0.65675427489E+03  0.00000000000E+00 0.  1.
<mgrwt>
<rscale>  0 0.11747608E+04</rscale>
<asrwt>0</asrwt>
<pdfrwt beam="1">  1        1 0.22533285E+00 0.11747608E+04</pdfrwt>
<pdfrwt beam="2">  1       -1 0.36239956E-01 0.11747608E+04</pdfrwt>
<totfact> 0.50008877E+01</totfact>
</mgrwt>
</event>
<event>
12    1  0.1598876E-007  0.1039374E+04  0.7818608E-02  0.9266384E-01
         -2   -1    0    0    0  501 -0.00000000000E+00  0.00000000000E+00  0.51551459318E+03  0.51551459318E+03  0.00000000000E+00 0. -1.
          2   -1    0    0  501    0  0.00000000000E+00 -0.00000000000E+00 -0.52389288931E+03  0.52389288931E+03  0.00000000000E+00 0.  1.
         23    2    1    2    0    0 -0.73525013312E+02  0.23923530566E+02 -0.79943617561E+02  0.14302000907E+03  0.89919286636E+02 0.  0.
        254    2    1    2    0    0  0.73525013312E+02 -0.23923530566E+02  0.71565321434E+02  0.89638747342E+03  0.89017450221E+03 0.  0.
        -24    2    4    4    0    0  0.45671782415E+03  0.11587157060E+03  0.33266740159E+02  0.47918637357E+03  0.80594744535E+02 0.  0.
         24    2    4    4    0    0 -0.38319281083E+03 -0.13979510117E+03  0.38298581275E+02  0.41720109985E+03  0.78807206566E+02 0.  0.
         13    1    3    3    0    0 -0.32834636709E+02  0.65561345200E+01 -0.91382431646E+02  0.97323404591E+02  0.00000000000E+00 0.  1.
        -13    1    3    3    0    0 -0.40690376603E+02  0.17367396046E+02  0.11438814085E+02  0.45696604482E+02  0.00000000000E+00 0. -1.
          4    1    6    6  502    0 -0.35794478325E+03 -0.12594392706E+03  0.55748843992E+02  0.38352871369E+03  0.00000000000E+00 0. -1.
          1    1    5    5  503    0  0.43534741513E+03  0.11405638471E+03  0.48838154478E+02  0.45268244508E+03  0.00000000000E+00 0. -1.
         -2    1    5    5    0  503  0.21370409014E+02  0.18151858966E+01 -0.15571414318E+02  0.26503928485E+02  0.00000000000E+00 0.  1.
         -3    1    6    6    0  502 -0.25248027584E+02 -0.13851174106E+02 -0.17450262717E+02  0.33672386163E+02  0.00000000000E+00 0.  1.
<mgrwt>
<rscale>  0 0.10393737E+04</rscale>
<asrwt>0</asrwt>
<pdfrwt beam="1">  1        2 0.80598906E-01 0.10393737E+04</pdfrwt>
<pdfrwt beam="2">  1       -2 0.79309937E-01 0.10393737E+04</pdfrwt>
<totfact> 0.81936079E+01</totfact>
</mgrwt>
</event>
<event>
12    1  0.1598876E-007  0.1635717E+04  0.7818608E-02  0.8798901E-01
          2   -1    0    0  501    0  0.00000000000E+00  0.00000000000E+00  0.29204123377E+04  0.29204123377E+04  0.00000000000E+00 0. -1.
         -2   -1    0    0    0  501 -0.00000000000E+00 -0.00000000000E+00 -0.22904051453E+03  0.22904051453E+03  0.00000000000E+00 0.  1.
         23    2    1    2    0    0  0.18763228327E+03  0.22378017138E+03  0.13299377658E+02  0.30592697273E+03  0.90172059784E+02 0.  0.
        254    2    1    2    0    0 -0.18763228327E+03 -0.22378017138E+03  0.26780724455E+04  0.28435258795E+04  0.91010107414E+03 0.  0.
        -24    2    4    4    0    0 -0.23413766067E+03 -0.11866947308E+03  0.26894357451E+04  0.27033082481E+04  0.76863312869E+02 0.  0.
         24    2    4    4    0    0  0.46505377394E+02 -0.10511069830E+03 -0.11363299646E+02  0.14021763141E+03  0.79503777000E+02 0.  0.
         13    1    3    3    0    0  0.19453056740E+03  0.22568090458E+03  0.10186326323E+02  0.29812375549E+03  0.00000000000E+00 0.  1.
        -13    1    3    3    0    0 -0.68982841276E+01 -0.19007331971E+01  0.31130513350E+01  0.78032172344E+01  0.00000000000E+00 0. -1.
          2    1    6    6  502    0  0.44166842897E+02 -0.69585285934E+02  0.28091466156E+02  0.87074407841E+02  0.00000000000E+00 0. -1.
          3    1    5    5  503    0  0.40975992035E+01  0.23827530573E+01  0.21147371687E+02  0.21672082517E+02  0.00000000000E+00 0. -1.
         -4    1    5    5    0  503 -0.23823525987E+03 -0.12105222614E+03  0.26682883734E+04  0.26816361655E+04  0.00000000000E+00 0.  1.
         -1    1    6    6    0  502  0.23385344971E+01 -0.35525412362E+02 -0.39454765802E+02  0.53143223572E+02  0.00000000000E+00 0.  1.
<mgrwt>
<rscale>  0 0.16357173E+04</rscale>
<asrwt>0</asrwt>
<pdfrwt beam="1">  1        2 0.44929418E+00 0.16357173E+04</pdfrwt>
<pdfrwt beam="2">  1       -2 0.35237004E-01 0.16357173E+04</pdfrwt>
<totfact> 0.14182728E+01</totfact>
</mgrwt>
</event>
<event>
12    1  0.1598876E-007  0.1123994E+04  0.7818608E-02  0.9182116E-01
         -1   -1    0    0    0  501 -0.00000000000E+00  0.00000000000E+00  0.15377137082E+03  0.15377137082E+03  0.00000000000E+00 0.  1.
          1   -1    0    0  501    0  0.00000000000E+00 -0.00000000000E+00 -0.20539619415E+04  0.20539619415E+04  0.00000000000E+00 0. -1.
         23    2    1    2    0    0  0.15698550574E+02 -0.17163448997E+02  0.10692909090E+02  0.94752608994E+02  0.91228779093E+02 0.  0.
        254    2    1    2    0    0 -0.15698550574E+02  0.17163448997E+02 -0.19108834797E+04  0.21129807033E+04  0.90148252942E+03 0.  0.
        -24    2    4    4    0    0 -0.43614734429E+03  0.40166890243E+02 -0.12403040715E+04  0.13176803669E+04  0.78035084513E+02 0.  0.
         24    2    4    4    0    0  0.42044879371E+03 -0.23003441246E+02 -0.67057940823E+03  0.79530033642E+03  0.74293579310E+02 0.  0.
         11    1    3    3    0    0 -0.57935883635E+01  0.20216013547E+02 -0.29217674044E+02  0.35998963130E+02  0.00000000000E+00 0. -1.
        -11    1    3    3    0    0  0.21492138938E+02 -0.37379462544E+02  0.39910583135E+02  0.58753645864E+02  0.00000000000E+00 0.  1.
          4    1    6    6  502    0  0.12554068140E+03 -0.41102679941E+02 -0.20360264728E+03  0.24270132048E+03  0.00000000000E+00 0. -1.
          3    1    5    5  503    0 -0.23257539961E+02 -0.96339614692E+01 -0.38940818679E+02  0.46369318929E+02  0.00000000000E+00 0. -1.
         -4    1    5    5    0  503 -0.41288980433E+03  0.49800851712E+02 -0.12013632528E+04  0.12713110479E+04  0.00000000000E+00 0.  1.
         -3    1    6    6    0  502  0.29490811232E+03  0.18099238695E+02 -0.46697676095E+03  0.55259901594E+03  0.00000000000E+00 0.  1.
<mgrwt>
<rscale>  0 0.11239938E+04</rscale>
<asrwt>0</asrwt>
<pdfrwt beam="1">  1        1 0.31599415E+00 0.11239938E+04</pdfrwt>
<pdfrwt beam="2">  1       -1 0.23657133E-01 0.11239938E+04</pdfrwt>
<totfact> 0.42084373E+01</totfact>
</mgrwt>
</event>
<event>
12    1  0.1598876E-007  0.1748818E+04  0.7818608E-02  0.8734001E-01
         -2   -1    0    0    0  501 -0.00000000000E+00  0.00000000000E+00  0.35742013730E+03  0.35742013730E+03  0.00000000000E+00 0.  1.
          2   -1    0    0  501    0  0.00000000000E+00 -0.00000000000E+00 -0.21391954503E+04  0.21391954503E+04  0.00000000000E+00 0. -1.
         23    2    1    2    0    0 -0.14895907226E+03  0.56408655899E+03 -0.10234963981E+04  0.11817990270E+04  0.93389571356E+02 0.  0.
        254    2    1    2    0    0  0.14895907226E+03 -0.56408655899E+03 -0.75827891495E+03  0.13148165606E+04  0.90187206634E+03 0.  0.
        -24    2    4    4    0    0  0.42629960993E+02  0.23504121740E+03 -0.27071612847E+03  0.36959270392E+03  0.79056037886E+02 0.  0.
         24    2    4    4    0    0  0.10632911127E+03 -0.79912777639E+03 -0.48756278648E+03  0.94522385672E+03  0.76286208854E+02 0.  0.
         13    1    3    3    0    0 -0.12892714212E+03  0.49022956438E+03 -0.81583698657E+03  0.96048801264E+03  0.00000000000E+00 0.  1.
        -13    1    3    3    0    0 -0.20031930138E+02  0.73856994608E+02 -0.20765941152E+03  0.22131101434E+03  0.00000000000E+00 0. -1.
          4    1    6    6  502    0  0.95238523012E+02 -0.77326685208E+03 -0.45520875041E+03  0.90234528161E+03  0.00000000000E+00 0. -1.
          3    1    5    5  503    0 -0.21207405393E+02  0.67984362269E+02 -0.96417426508E+02  0.11986637431E+03  0.00000000000E+00 0. -1.
         -4    1    5    5    0  503  0.63837366386E+02  0.16705685513E+03 -0.17429870197E+03  0.24972632961E+03  0.00000000000E+00 0.  1.
         -3    1    6    6    0  502  0.11090588258E+02 -0.25860924309E+02 -0.32354036067E+02  0.42878575114E+02  0.00000000000E+00 0.  1.
<mgrwt>
<rscale>  0 0.17488185E+04</rscale>
<asrwt>0</asrwt>
<pdfrwt beam="1">  1        2 0.32910699E+00 0.17488185E+04</pdfrwt>
<pdfrwt beam="2">  1       -2 0.54987714E-01 0.17488185E+04</pdfrwt>
<totfact> 0.16475208E+01</totfact>
</mgrwt>
</event>
<event>
12    1  0.1598876E-007  0.1494932E+04  0.7818608E-02  0.8887830E-01
          2   -1    0    0  501    0  0.00000000000E+00  0.00000000000E+00  0.27784610229E+04  0.27784610229E+04  0.00000000000E+00 0. -1.
         -2   -1    0    0    0  501 -0.00000000000E+00 -0.00000000000E+00 -0.20108440781E+03  0.20108440781E+03  0.00000000000E+00 0.  1.
         23    2    1    2    0    0  0.29088260676E+03 -0.15605928507E+03  0.14778293403E+04  0.15169727092E+04  0.90881516497E+02 0.  0.
        254    2    1    2    0    0 -0.29088260676E+03  0.15605928507E+03  0.10995472748E+04  0.14625727215E+04  0.90617192897E+03 0.  0.
        -24    2    4    4    0    0 -0.31883670617E+03 -0.15629899595E+03  0.10782254396E+04  0.11380407566E+04  0.80501203796E+02 0.  0.
         24    2    4    4    0    0  0.27954099415E+02  0.31235828102E+03  0.21321835175E+02  0.32453196487E+03  0.80729475263E+02 0.  0.
         11    1    3    3    0    0 -0.44476477674E+01  0.42414229780E+01  0.20334259396E+02  0.21242724513E+02  0.00000000000E+00 0.  1.
        -11    1    3    3    0    0  0.29533025452E+03 -0.16030070804E+03  0.14574950809E+04  0.14957299847E+04  0.00000000000E+00 0. -1.
          2    1    6    6  502    0 -0.67865382253E+01  0.23209147600E+03 -0.78772890451E+01  0.23232426050E+03  0.00000000000E+00 0. -1.
          1    1    5    5  503    0 -0.12268155339E+03 -0.99717109018E+02  0.52806896038E+03  0.55122689728E+03  0.00000000000E+00 0. -1.
         -2    1    5    5    0  503 -0.19615515279E+03 -0.56581886932E+02  0.55015647922E+03  0.58681385934E+03  0.00000000000E+00 0.  1.
         -1    1    6    6    0  502  0.34740637641E+02  0.80266805016E+02  0.29199124220E+02  0.92207704377E+02  0.00000000000E+00 0.  1.
<mgrwt>
<rscale>  0 0.14949317E+04</rscale>
<asrwt>0</asrwt>
<pdfrwt beam="1">  1        2 0.42745551E+00 0.14949317E+04</pdfrwt>
<pdfrwt beam="2">  1       -2 0.30936065E-01 0.14949317E+04</pdfrwt>
<totfact> 0.22411109E+01</totfact>
</mgrwt>
</event>
<event>
12    1  0.1598876E-007  0.2850957E+04  0.7818608E-02  0.8287621E-01
         -2   -1    0    0    0  501 -0.00000000000E+00  0.00000000000E+00  0.11561737240E+04  0.11561737240E+04  0.00000000000E+00 0.  1.
          2   -1    0    0  501    0  0.00000000000E+00 -0.00000000000E+00 -0.17575112203E+04  0.17575112203E+04  0.00000000000E+00 0. -1.
         23    2    1    2    0    0  0.58644592997E+03 -0.10224787039E+04  0.23909404993E+03  0.12062569129E+04  0.92240156688E+02 0.  0.
        254    2    1    2    0    0 -0.58644592997E+03  0.10224787039E+04 -0.84043154624E+03  0.17074280315E+04  0.90531970593E+03 0.  0.
        -24    2    4    4    0    0 -0.37920811132E+03  0.11022797898E+04 -0.88664580512E+03  0.14666770804E+04  0.78621546683E+02 0.  0.
         24    2    4    4    0    0 -0.20723781866E+03 -0.79801085927E+02  0.46214258879E+02  0.24075095108E+03  0.80681695101E+02 0.  0.
         13    1    3    3    0    0  0.51190842532E+03 -0.84747410271E+03  0.17430057810E+03  0.10053075560E+04  0.00000000000E+00 0.  1.
        -13    1    3    3    0    0  0.74537504651E+02 -0.17500460120E+03  0.64793471830E+02  0.20094935689E+03  0.00000000000E+00 0. -1.
          4    1    6    6  502    0 -0.15033029816E+03 -0.91965667096E+02  0.21533560486E+02  0.17754035230E+03  0.00000000000E+00 0. -1.
          3    1    5    5  503    0 -0.19880459975E+03  0.68909839238E+03 -0.52869890521E+03  0.89101200645E+03  0.00000000000E+00 0. -1.
         -4    1    5    5    0  503 -0.18040351157E+03  0.41318139745E+03 -0.35794689991E+03  0.57566507393E+03  0.00000000000E+00 0.  1.
         -3    1    6    6    0  502 -0.56907520496E+02  0.12164581169E+02  0.24680698392E+02  0.63210598773E+02  0.00000000000E+00 0.  1.
<mgrwt>
<rscale>  0 0.28509565E+04</rscale>
<asrwt>0</asrwt>
<pdfrwt beam="1">  1        2 0.27038634E+00 0.28509565E+04</pdfrwt>
<pdfrwt beam="2">  1       -2 0.17787288E+00 0.28509565E+04</pdfrwt>
<totfact> 0.14812233E+00</totfact>
</mgrwt>
</event>
<event>
12    1  0.1598876E-007  0.2894310E+04  0.7818608E-02  0.8274572E-01
         -2   -1    0    0    0  501 -0.00000000000E+00  0.00000000000E+00  0.10227480766E+04  0.10227480766E+04  0.00000000000E+00 0. -1.
          2   -1    0    0  501    0  0.00000000000E+00 -0.00000000000E+00 -0.20476770204E+04  0.20476770204E+04  0.00000000000E+00 0.  1.
         23    2    1    2    0    0 -0.65860098683E+03  0.10827694308E+04 -0.13779835428E+03  0.12779535279E+04  0.89621052103E+02 0.  0.
        254    2    1    2    0    0  0.65860098683E+03 -0.10827694308E+04 -0.88713058952E+03  0.17924715691E+04  0.90543290366E+03 0.  0.
        -24    2    4    4    0    0  0.17404877530E+03 -0.95469503488E+03 -0.83365415583E+03  0.12818583776E+04  0.80287376304E+02 0.  0.
         24    2    4    4    0    0  0.48455221153E+03 -0.12807439588E+03 -0.53476433688E+02  0.51061319150E+03  0.81683571181E+02 0.  0.
         11    1    3    3    0    0 -0.59911158699E+03  0.93495544062E+03 -0.13477638091E+03  0.11185888621E+04  0.00000000000E+00 0.  1.
        -11    1    3    3    0    0 -0.59489399832E+02  0.14781399013E+03 -0.30219733667E+01  0.15936466577E+03  0.00000000000E+00 0. -1.
          2    1    6    6  502    0  0.31081868544E+03 -0.62104675985E+02  0.97224680846E+00  0.31696402203E+03  0.00000000000E+00 0. -1.
          3    1    5    5  503    0  0.13960508683E+03 -0.55646424814E+03 -0.47512638353E+03  0.74490745737E+03  0.00000000000E+00 0. -1.
         -4    1    5    5    0  503  0.34443688471E+02 -0.39823078674E+03 -0.35852777230E+03  0.53695092019E+03  0.00000000000E+00 0.  1.
         -1    1    6    6    0  502  0.17373352609E+03 -0.65969719892E+02 -0.54448680497E+02  0.19364916947E+03  0.00000000000E+00 0.  1.
<mgrwt>
<rscale>  0 0.28943101E+04</rscale>
<asrwt>0</asrwt>
<pdfrwt beam="1">  1        2 0.31502723E+00 0.28943101E+04</pdfrwt>
<pdfrwt beam="2">  1       -2 0.15734586E+00 0.28943101E+04</pdfrwt>
<totfact> 0.14306022E+00</totfact>
</mgrwt>
</event>
<event>
12    1  0.1598876E-007  0.2236130E+04  0.7818608E-02  0.8503539E-01
          2   -1    0    0  501    0  0.00000000000E+00  0.00000000000E+00  0.20455741828E+04  0.20455741828E+04  0.00000000000E+00 0. -1.
         -2   -1    0    0    0  501 -0.00000000000E+00 -0.00000000000E+00 -0.61110918611E+03  0.61110918611E+03  0.00000000000E+00 0.  1.
         23    2    1    2    0    0  0.42358866200E+03 -0.79695796792E+03  0.30596394648E+03  0.95740337214E+03  0.91858169064E+02 0.  0.
        254    2    1    2    0    0 -0.42358866200E+03  0.79695796792E+03  0.11285010502E+04  0.16992799968E+04  0.89413004082E+03 0.  0.
        -24    2    4    4    0    0 -0.32359723973E+03  0.46101961938E+03  0.12039755410E+04  0.13314808901E+04  0.77653037607E+02 0.  0.
         24    2    4    4    0    0 -0.99991422273E+02  0.33593834854E+03 -0.75474490770E+02  0.36779910673E+03  0.82017837100E+02 0.  0.
         11    1    3    3    0    0  0.19063428645E+03 -0.30546505794E+03  0.82617100305E+02  0.36942647179E+03  0.00000000000E+00 0. -1.
        -11    1    3    3    0    0  0.23295437555E+03 -0.49149290998E+03  0.22334684618E+03  0.58797690035E+03  0.00000000000E+00 0.  1.
          2    1    6    6  502    0 -0.38281353737E+01  0.80082598721E+02  0.11432233853E+02  0.80985018425E+02  0.00000000000E+00 0. -1.
          1    1    5    5  503    0 -0.14037614057E+03  0.14500733021E+03  0.47522034218E+03  0.51630123017E+03  0.00000000000E+00 0. -1.
         -2    1    5    5    0  503 -0.18322109916E+03  0.31601228917E+03  0.72875519883E+03  0.81517965989E+03  0.00000000000E+00 0.  1.
         -1    1    6    6    0  502 -0.96163286900E+02  0.25585574982E+03 -0.86906724623E+02  0.28681408830E+03  0.00000000000E+00 0.  1.
<mgrwt>
<rscale>  0 0.22361298E+04</rscale>
<asrwt>0</asrwt>
<pdfrwt beam="1">  1        2 0.31470372E+00 0.22361298E+04</pdfrwt>
<pdfrwt beam="2">  1       -2 0.94016799E-01 0.22361298E+04</pdfrwt>
<totfact> 0.54837657E+00</totfact>
</mgrwt>
</event>
<event>
12    1  0.1598876E-007  0.1044815E+04  0.7818608E-02  0.9260713E-01
         -1   -1    0    0    0  501 -0.00000000000E+00  0.00000000000E+00  0.77647485570E+03  0.77647485570E+03  0.00000000000E+00 0.  1.
          1   -1    0    0  501    0  0.00000000000E+00 -0.00000000000E+00 -0.35147283827E+03  0.35147283827E+03  0.00000000000E+00 0. -1.
         23    2    1    2    0    0 -0.41275978596E+02 -0.79722809556E+02  0.79789019989E+01  0.12929580426E+03  0.92705497943E+02 0.  0.
        254    2    1    2    0    0  0.41275978596E+02  0.79722809556E+02  0.41702311544E+03  0.99865188971E+03  0.90296062220E+03 0.  0.
        -24    2    4    4    0    0 -0.39627270847E+03 -0.10813492299E+03  0.24120821316E+03  0.48472009866E+03  0.89704798630E+02 0.  0.
         24    2    4    4    0    0  0.43754868706E+03  0.18785773255E+03  0.17581490228E+03  0.51393179105E+03  0.80471266701E+02 0.  0.
         13    1    3    3    0    0 -0.64935341666E+02 -0.68645921507E+02 -0.13530195932E+02  0.95456415913E+02  0.00000000000E+00 0. -1.
        -13    1    3    3    0    0  0.23659363070E+02 -0.11076888049E+02  0.21509097931E+02  0.33839388345E+02  0.00000000000E+00 0.  1.
          4    1    6    6  502    0  0.38272876040E+03  0.14084688328E+03  0.12846899493E+03  0.42757856731E+03  0.00000000000E+00 0. -1.
          3    1    5    5  503    0 -0.31993348010E+03 -0.70036516953E+02  0.22635326187E+03  0.39811850566E+03  0.00000000000E+00 0. -1.
         -4    1    5    5    0  503 -0.76339228371E+02 -0.38098406039E+02  0.14854951297E+02  0.86601592993E+02  0.00000000000E+00 0.  1.
         -3    1    6    6    0  502  0.54819926669E+02  0.47010849266E+02  0.47345907348E+02  0.86353223745E+02  0.00000000000E+00 0.  1.
<mgrwt>
<rscale>  0 0.10448154E+04</rscale>
<asrwt>0</asrwt>
<pdfrwt beam="1">  1        1 0.54072745E-01 0.10448154E+04</pdfrwt>
<pdfrwt beam="2">  1       -1 0.11945767E+00 0.10448154E+04</pdfrwt>
<totfact> 0.44600690E+01</totfact>
</mgrwt>
</event>
<event>
12    1  0.1598876E-007  0.2062354E+04  0.7818608E-02  0.8578010E-01
         -2   -1    0    0    0  501 -0.00000000000E+00  0.00000000000E+00  0.45114490076E+03  0.45114490076E+03  0.00000000000E+00 0.  1.
          2   -1    0    0  501    0  0.00000000000E+00 -0.00000000000E+00 -0.23569511173E+04  0.23569511173E+04  0.00000000000E+00 0. -1.
         23    2    1    2    0    0 -0.60754027208E+03 -0.11182804262E+03 -0.15426687800E+04  0.16643083157E+04  0.92111407925E+02 0.  0.
        254    2    1    2    0    0  0.60754027208E+03  0.11182804262E+03 -0.36313743652E+03  0.11437877024E+04  0.89149919631E+03 0.  0.
        -24    2    4    4    0    0  0.26981049475E+03 -0.37194940919E+03 -0.27637059875E+03  0.54204320452E+03  0.79284687286E+02 0.  0.
         24    2    4    4    0    0  0.33772977734E+03  0.48377745181E+03 -0.86766837767E+02  0.60174449787E+03  0.80411014187E+02 0.  0.
         13    1    3    3    0    0 -0.53707544244E+03 -0.71638300626E+02 -0.12983359552E+04  0.14068611622E+04  0.00000000000E+00 0. -1.
        -13    1    3    3    0    0 -0.70464829642E+02 -0.40189741993E+02 -0.24433282479E+03  0.25744715351E+03  0.00000000000E+00 0.  1.
          2    1    6    6  502    0 -0.10408376100E+01 -0.24548634237E+01  0.58695828266E+00  0.27302412687E+01  0.00000000000E+00 0. -1.
          1    1    5    5  503    0  0.43495464210E+01 -0.13698107454E+02 -0.28436419828E+02  0.31861994202E+02  0.00000000000E+00 0. -1.
         -2    1    5    5    0  503  0.26546094832E+03 -0.35825130174E+03 -0.24793417892E+03  0.51018121031E+03  0.00000000000E+00 0.  1.
         -1    1    6    6    0  502  0.33877061495E+03  0.48623231523E+03 -0.87353796050E+02  0.59901425660E+03  0.00000000000E+00 0.  1.
<mgrwt>
<rscale>  0 0.20623545E+04</rscale>
<asrwt>0</asrwt>
<pdfrwt beam="1">  1        2 0.36260786E+00 0.20623545E+04</pdfrwt>
<pdfrwt beam="2">  1       -2 0.69406908E-01 0.20623545E+04</pdfrwt>
<totfact> 0.73665906E+00</totfact>
</mgrwt>
</event>
<event>
12    1  0.1598876E-007  0.2245701E+04  0.7818608E-02  0.8499644E-01
          2   -1    0    0  501    0  0.00000000000E+00  0.00000000000E+00  0.14603457958E+04  0.14603457958E+04  0.00000000000E+00 0. -1.
         -2   -1    0    0    0  501 -0.00000000000E+00 -0.00000000000E+00 -0.86335253447E+03  0.86335253447E+03  0.00000000000E+00 0.  1.
         23    2    1    2    0    0 -0.83479196710E+03 -0.31235949251E+03 -0.54412852670E+02  0.89757293145E+03  0.90721154319E+02 0.  0.
        254    2    1    2    0    0  0.83479196710E+03  0.31235949251E+03  0.65140611404E+03  0.14261253989E+04  0.90280543142E+03 0.  0.
        -24    2    4    4    0    0  0.62947796348E+03 -0.20248349190E+03  0.16869097790E+03  0.68699324258E+03  0.79126470407E+02 0.  0.
         24    2    4    4    0    0  0.20531400361E+03  0.51484298441E+03  0.48271513614E+03  0.73913215629E+03  0.78008352952E+02 0.  0.
         13    1    3    3    0    0 -0.54834520858E+03 -0.20133261512E+03  0.74948173597E+01  0.58418615352E+03  0.00000000000E+00 0.  1.
        -13    1    3    3    0    0 -0.28644675852E+03 -0.11102687739E+03 -0.61907670030E+02  0.31338677792E+03  0.00000000000E+00 0. -1.
          4    1    6    6  502    0  0.29138436838E+01  0.43830534614E+02  0.61772392268E+02  0.75798645740E+02  0.00000000000E+00 0. -1.
          3    1    5    5  503    0  0.24082147139E+03 -0.54832489943E+02  0.30450535927E+02  0.24885501436E+03  0.00000000000E+00 0. -1.
         -4    1    5    5    0  503  0.38865649209E+03 -0.14765100196E+03  0.13824044197E+03  0.43813822821E+03  0.00000000000E+00 0.  1.
         -3    1    6    6    0  502  0.20240015993E+03  0.47101244980E+03  0.42094274387E+03  0.66333351055E+03  0.00000000000E+00 0.  1.
<mgrwt>
<rscale>  0 0.22457010E+04</rscale>
<asrwt>0</asrwt>
<pdfrwt beam="1">  1        2 0.22466858E+00 0.22457010E+04</pdfrwt>
<pdfrwt beam="2">  1       -2 0.13282347E+00 0.22457010E+04</pdfrwt>
<totfact> 0.50068454E+00</totfact>
</mgrwt>
</event>
<event>
12    1  0.1598876E-007  0.1520585E+04  0.7818608E-02  0.8870878E-01
         -1   -1    0    0    0  501 -0.00000000000E+00  0.00000000000E+00  0.10354225546E+04  0.10354225546E+04  0.00000000000E+00 0.  1.
          1   -1    0    0  501    0  0.00000000000E+00 -0.00000000000E+00 -0.55826964040E+03  0.55826964040E+03  0.00000000000E+00 0. -1.
         23    2    1    2    0    0  0.36098806784E+03 -0.28314183953E+03 -0.32347410093E+02  0.46888357092E+03  0.91234651999E+02 0.  0.
        254    2    1    2    0    0 -0.36098806784E+03  0.28314183953E+03  0.50950032428E+03  0.11248086241E+04  0.89169623410E+03 0.  0.
        -24    2    4    4    0    0  0.32362425477E+02 -0.20955368266E+03  0.42853189973E+03  0.48394930086E+03  0.74881668113E+02 0.  0.
         24    2    4    4    0    0 -0.39335049331E+03  0.49269552219E+03  0.80968424549E+02  0.64085932320E+03  0.81678015288E+02 0.  0.
         13    1    3    3    0    0  0.32526740104E+03 -0.26902260301E+03 -0.52756112648E+02  0.42538835260E+03  0.00000000000E+00 0. -1.
        -13    1    3    3    0    0  0.35720666793E+02 -0.14119236521E+02  0.20408702556E+02  0.43495218313E+02  0.00000000000E+00 0.  1.
          4    1    6    6  502    0 -0.14271646304E+03  0.24264221921E+03  0.28240349625E+02  0.28291474460E+03  0.00000000000E+00 0. -1.
          3    1    5    5  503    0  0.55635119440E+02 -0.17083328236E+03  0.33915807524E+03  0.38380656180E+03  0.00000000000E+00 0. -1.
         -4    1    5    5    0  503 -0.23272693963E+02 -0.38720400298E+02  0.89373824483E+02  0.10014273906E+03  0.00000000000E+00 0.  1.
         -3    1    6    6    0  502 -0.25063403027E+03  0.25005330298E+03  0.52728074925E+02  0.35794457859E+03  0.00000000000E+00 0.  1.
<mgrwt>
<rscale>  0 0.15205854E+04</rscale>
<asrwt>0</asrwt>
<pdfrwt beam="1">  1        1 0.85887637E-01 0.15205854E+04</pdfrwt>
<pdfrwt beam="2">  1       -1 0.15929578E+00 0.15205854E+04</pdfrwt>
<totfact> 0.10851325E+01</totfact>
</mgrwt>
</event>
<event>
12    1  0.1598876E-007  0.4652693E+04  0.7818608E-02  0.7884437E-01
         -1   -1    0    0    0  501 -0.00000000000E+00  0.00000000000E+00  0.23161553393E+04  0.23161553393E+04  0.00000000000E+00 0.  1.
          1   -1    0    0  501    0  0.00000000000E+00 -0.00000000000E+00 -0.23365828691E+04  0.23365828691E+04  0.00000000000E+00 0. -1.
         23    2    1    2    0    0  0.56190052138E+03  0.48920814119E+03 -0.21195851266E+04  0.22484655631E+04  0.88879008521E+02 0.  0.
        254    2    1    2    0    0 -0.56190052138E+03 -0.48920814119E+03  0.20991575967E+04  0.24042726453E+04  0.90499035128E+03 0.  0.
        -24    2    4    4    0    0 -0.21711855185E+03 -0.68356550350E+03  0.99900268049E+03  0.12322971759E+04  0.78407339870E+02 0.  0.
         24    2    4    4    0    0 -0.34478196953E+03  0.19435736231E+03  0.11001549162E+04  0.11719754694E+04  0.80847204526E+02 0.  0.
         11    1    3    3    0    0  0.26967204122E+03  0.23013206418E+03 -0.87667230613E+03  0.94564163884E+03  0.00000000000E+00 0. -1.
        -11    1    3    3    0    0  0.29222848016E+03  0.25907607701E+03 -0.12429128204E+04  0.13028239242E+04  0.00000000000E+00 0.  1.
          4    1    6    6  502    0 -0.18640296181E+03  0.11886124481E+03  0.72225273804E+03  0.75532978049E+03  0.00000000000E+00 0. -1.
          1    1    5    5  503    0 -0.16282066227E+03 -0.48727791690E+03  0.65396037046E+03  0.83163363478E+03  0.00000000000E+00 0. -1.
         -2    1    5    5    0  503 -0.54297889583E+02 -0.19628758661E+03  0.34504231003E+03  0.40066354112E+03  0.00000000000E+00 0.  1.
         -3    1    6    6    0  502 -0.15837900772E+03  0.75496117495E+02  0.37790217819E+03  0.41664568896E+03  0.00000000000E+00 0.  1.
<mgrwt>
<rscale>  0 0.46526934E+04</rscale>
<asrwt>0</asrwt>
<pdfrwt beam="1">  1        1 0.35947429E+00 0.46526934E+04</pdfrwt>
<pdfrwt beam="2">  1       -1 0.35633159E+00 0.46526934E+04</pdfrwt>
<totfact> 0.18387157E-02</totfact>
</mgrwt>
</event>
<event>
12    1  0.1598876E-007  0.1651061E+04  0.7818608E-02  0.8789779E-01
          2   -1    0    0  501    0  0.00000000000E+00  0.00000000000E+00  0.37217731353E+04  0.37217731353E+04  0.00000000000E+00 0. -1.
         -2   -1    0    0    0  501 -0.00000000000E+00 -0.00000000000E+00 -0.18311184437E+03  0.18311184437E+03  0.00000000000E+00 0.  1.
         23    2    1    2    0    0 -0.22733912056E+03  0.27675787856E+03  0.20012255021E+03  0.41994358973E+03  0.89585625954E+02 0.  0.
        254    2    1    2    0    0  0.22733912056E+03 -0.27675787856E+03  0.33385387407E+04  0.34849413899E+04  0.93311176660E+03 0.  0.
        -24    2    4    4    0    0  0.85614004067E+02 -0.60865751219E+03  0.18433528584E+04  0.19447841641E+04  0.80261819006E+02 0.  0.
         24    2    4    4    0    0  0.14172511649E+03  0.33189963363E+03  0.14951858823E+04  0.15401572258E+04  0.79120680779E+02 0.  0.
         11    1    3    3    0    0 -0.79989384965E+00  0.50022694418E+01  0.24385391434E+02  0.24906020259E+02  0.00000000000E+00 0. -1.
        -11    1    3    3    0    0 -0.22653922671E+03  0.27175560911E+03  0.17573715877E+03  0.39503756947E+03  0.00000000000E+00 0.  1.
          4    1    6    6  502    0  0.14932245668E+03  0.32707095052E+03  0.14380133269E+04  0.14822803146E+04  0.00000000000E+00 0. -1.
          1    1    5    5  503    0  0.96281009039E+02 -0.52840406315E+03  0.15477438846E+04  0.16382893575E+04  0.00000000000E+00 0. -1.
         -2    1    5    5    0  503 -0.10667004972E+02 -0.80253449040E+02  0.29560897381E+03  0.30649480661E+03  0.00000000000E+00 0.  1.
         -3    1    6    6    0  502 -0.75973401917E+01  0.48286831199E+01  0.57172555433E+02  0.57876911229E+02  0.00000000000E+00 0.  1.
<mgrwt>
<rscale>  0 0.16510612E+04</rscale>
<asrwt>0</asrwt>
<pdfrwt beam="1">  1        2 0.57258043E+00 0.16510612E+04</pdfrwt>
<pdfrwt beam="2">  1       -2 0.28171056E-01 0.16510612E+04</pdfrwt>
<totfact> 0.62793694E+00</totfact>
</mgrwt>
</event>
<event>
12    1  0.1598876E-007  0.1488197E+04  0.7818608E-02  0.8892340E-01
          1   -1    0    0  501    0  0.00000000000E+00  0.00000000000E+00  0.15287055171E+04  0.15287055171E+04  0.00000000000E+00 0. -1.
         -1   -1    0    0    0  501 -0.00000000000E+00 -0.00000000000E+00 -0.36219023924E+03  0.36219023924E+03  0.00000000000E+00 0.  1.
         23    2    1    2    0    0 -0.21417398720E+03  0.21197778901E+03  0.82045204150E+03  0.87845902743E+03  0.87997901422E+02 0.  0.
        254    2    1    2    0    0  0.21417398720E+03 -0.21197778901E+03  0.34606323640E+03  0.10124367289E+04  0.90247619730E+03 0.  0.
        -24    2    4    4    0    0 -0.17867398591E+03 -0.35760718564E+03  0.41384038184E+03  0.58060379122E+03  0.77650552342E+02 0.  0.
         24    2    4    4    0    0  0.39284797311E+03  0.14562939663E+03 -0.67777145444E+02  0.43183293771E+03  0.79677434146E+02 0.  0.
         13    1    3    3    0    0 -0.21531228170E+03  0.19494387438E+03  0.71681025404E+03  0.77342060556E+03  0.00000000000E+00 0. -1.
        -13    1    3    3    0    0  0.11382944996E+01  0.17033914626E+02  0.10364178746E+03  0.10503842187E+03  0.00000000000E+00 0.  1.
          2    1    6    6  502    0  0.19887692265E+02 -0.23636078249E+01  0.11108847813E+02  0.22902258520E+02  0.00000000000E+00 0. -1.
          3    1    5    5  503    0 -0.42251233917E+02 -0.39900999557E+02  0.35630533165E+02  0.68167378025E+02  0.00000000000E+00 0. -1.
         -4    1    5    5    0  503 -0.13642275199E+03 -0.31770618608E+03  0.37820984868E+03  0.51243641320E+03  0.00000000000E+00 0.  1.
         -1    1    6    6    0  502  0.37296028084E+03  0.14799300445E+03 -0.78885993256E+02  0.40893067919E+03  0.00000000000E+00 0.  1.
<mgrwt>
<rscale>  0 0.14881965E+04</rscale>
<asrwt>0</asrwt>
<pdfrwt beam="1">  1        1 0.23518546E+00 0.14881965E+04</pdfrwt>
<pdfrwt beam="2">  1       -1 0.55721576E-01 0.14881965E+04</pdfrwt>
<totfact> 0.19708057E+01</totfact>
</mgrwt>
</event>
<event>
12    1  0.1598876E-007  0.1003016E+04  0.7818608E-02  0.9305243E-01
          1   -1    0    0  501    0  0.00000000000E+00  0.00000000000E+00  0.67555461304E+03  0.67555461304E+03  0.00000000000E+00 0. -1.
         -1   -1    0    0    0  501 -0.00000000000E+00 -0.00000000000E+00 -0.37230207493E+03  0.37230207493E+03  0.00000000000E+00 0.  1.
         23    2    1    2    0    0 -0.34912318816E+00  0.76284332137E+02  0.26171231078E+02  0.12076677122E+03  0.89890257965E+02 0.  0.
        254    2    1    2    0    0  0.34912318816E+00 -0.76284332137E+02  0.27708130702E+03  0.92708991676E+03  0.88142058169E+03 0.  0.
        -24    2    4    4    0    0  0.37211880516E+03  0.18443155028E+03  0.15252731841E+03  0.44959160941E+03  0.79878848855E+02 0.  0.
         24    2    4    4    0    0 -0.37176968198E+03 -0.26071588242E+03  0.12455398861E+03  0.47749830735E+03  0.79406987470E+02 0.  0.
         11    1    3    3    0    0  0.28452344237E+02  0.44374207593E+02  0.49109108851E+02  0.72043811422E+02  0.00000000000E+00 0. -1.
        -11    1    3    3    0    0 -0.28801467425E+02  0.31910124544E+02 -0.22937877773E+02  0.48722959793E+02  0.00000000000E+00 0.  1.
          2    1    6    6  502    0 -0.35113491311E+02 -0.30504961440E+02 -0.10859397865E+02  0.47764384917E+02  0.00000000000E+00 0. -1.
          3    1    5    5  503    0  0.15610156753E+03  0.10082197337E+03  0.32302890015E+02  0.18861666522E+03  0.00000000000E+00 0. -1.
         -4    1    5    5    0  503  0.21601723764E+03  0.83609576915E+02  0.12022442840E+03  0.26097494419E+03  0.00000000000E+00 0.  1.
         -1    1    6    6    0  502 -0.33665619066E+03 -0.23021092098E+03  0.13541338647E+03  0.42973392243E+03  0.00000000000E+00 0.  1.
<mgrwt>
<rscale>  0 0.10030162E+04</rscale>
<asrwt>0</asrwt>
<pdfrwt beam="1">  1        1 0.10393148E+00 0.10030162E+04</pdfrwt>
<pdfrwt beam="2">  1       -1 0.57277243E-01 0.10030162E+04</pdfrwt>
<totfact> 0.88964033E+01</totfact>
</mgrwt>
</event>
<event>
12    1  0.1598876E-007  0.1259519E+04  0.7818608E-02  0.9062298E-01
          2   -1    0    0  501    0  0.00000000000E+00  0.00000000000E+00  0.11866715567E+04  0.11866715567E+04  0.00000000000E+00 0. -1.
         -2   -1    0    0    0  501 -0.00000000000E+00 -0.00000000000E+00 -0.33420947251E+03  0.33420947251E+03  0.00000000000E+00 0.  1.
         23    2    1    2    0    0 -0.57596341456E+02 -0.10528899057E+03 -0.11732667643E+03  0.19234353451E+03  0.93954117435E+02 0.  0.
        254    2    1    2    0    0  0.57596341456E+02  0.10528899057E+03  0.96978876066E+03  0.13285374947E+04  0.90006584456E+03 0.  0.
        -24    2    4    4    0    0  0.41418177868E+03  0.21478120205E+03  0.30708447356E+03  0.56375218302E+03  0.76407718278E+02 0.  0.
         24    2    4    4    0    0 -0.35658543722E+03 -0.10949221148E+03  0.66270428709E+03  0.76478531171E+03  0.81104145802E+02 0.  0.
         11    1    3    3    0    0 -0.19347083408E+02 -0.98144888226E+02 -0.11632250542E+03  0.15341986178E+03  0.00000000000E+00 0.  1.
        -11    1    3    3    0    0 -0.38249258048E+02 -0.71441023436E+01 -0.10041710063E+01  0.38923672732E+02  0.00000000000E+00 0. -1.
          4    1    6    6  502    0 -0.18592273548E+02 -0.28325274164E+02  0.51362875865E+02  0.61531608213E+02  0.00000000000E+00 0. -1.
          3    1    5    5  503    0  0.14015828349E+03  0.33357677804E+02  0.97831420053E+02  0.17414955024E+03  0.00000000000E+00 0. -1.
         -4    1    5    5    0  503  0.27402349519E+03  0.18142352425E+03  0.20925305351E+03  0.38960263278E+03  0.00000000000E+00 0.  1.
         -3    1    6    6    0  502 -0.33799316367E+03 -0.81166937317E+02  0.61134141123E+03  0.70325370350E+03  0.00000000000E+00 0.  1.
<mgrwt>
<rscale>  0 0.12595188E+04</rscale>
<asrwt>0</asrwt>
<pdfrwt beam="1">  1        2 0.18256485E+00 0.12595188E+04</pdfrwt>
<pdfrwt beam="2">  1       -2 0.51416842E-01 0.12595188E+04</pdfrwt>
<totfact> 0.67750896E+01</totfact>
</mgrwt>
</event>
<event>
12    1  0.1598876E-007  0.1997205E+04  0.7818608E-02  0.8607928E-01
         -2   -1    0    0    0  501 -0.00000000000E+00  0.00000000000E+00  0.35991597158E+03  0.35991597158E+03  0.00000000000E+00 0.  1.
          2   -1    0    0  501    0  0.00000000000E+00 -0.00000000000E+00 -0.27706669571E+04  0.27706669571E+04  0.00000000000E+00 0. -1.
         23    2    1    2    0    0 -0.48664363026E+03 -0.28323671989E+01 -0.18782970632E+04  0.19426160832E+04  0.94484622054E+02 0.  0.
        254    2    1    2    0    0  0.48664363026E+03  0.28323671989E+01 -0.53245392231E+03  0.11879668455E+04  0.94388982483E+03 0.  0.
        -24    2    4    4    0    0  0.45007577961E+03  0.41357894365E+03 -0.44107066540E+03  0.75794996248E+03  0.79555412936E+02 0.  0.
         24    2    4    4    0    0  0.36567850653E+02 -0.41074657645E+03 -0.91383256913E+02  0.43001688300E+03  0.80707262721E+02 0.  0.
         13    1    3    3    0    0 -0.71260213602E+02 -0.25392774068E+02 -0.20912885784E+03  0.22239085008E+03  0.00000000000E+00 0.  1.
        -13    1    3    3    0    0 -0.41538341666E+03  0.22560406869E+02 -0.16691682054E+04  0.17202252331E+04  0.00000000000E+00 0. -1.
          2    1    6    6  502    0 -0.11705455282E+02 -0.27194678478E+03 -0.44836180750E+02  0.27586655205E+03  0.00000000000E+00 0. -1.
          3    1    5    5  503    0  0.36196076970E+03  0.30408874840E+03 -0.30675833793E+03  0.56354790710E+03  0.00000000000E+00 0. -1.
         -4    1    5    5    0  503  0.88115009911E+02  0.10949019525E+03 -0.13431232746E+03  0.19440205538E+03  0.00000000000E+00 0.  1.
         -1    1    6    6    0  502  0.48273305934E+02 -0.13879979167E+03 -0.46547076163E+02  0.15415033096E+03  0.00000000000E+00 0.  1.
<mgrwt>
<rscale>  0 0.19972053E+04</rscale>
<asrwt>0</asrwt>
<pdfrwt beam="1">  1        2 0.42625648E+00 0.19972053E+04</pdfrwt>
<pdfrwt beam="2">  1       -2 0.55371685E-01 0.19972053E+04</pdfrwt>
<totfact> 0.68717071E+00</totfact>
</mgrwt>
</event>
<event>
12    1  0.1598876E-007  0.1880865E+04  0.7818608E-02  0.8664440E-01
         -1   -1    0    0    0  501 -0.00000000000E+00  0.00000000000E+00  0.12949959645E+04  0.12949959645E+04  0.00000000000E+00 0.  1.
          1   -1    0    0  501    0  0.00000000000E+00 -0.00000000000E+00 -0.68294705530E+03  0.68294705530E+03  0.00000000000E+00 0. -1.
         23    2    1    2    0    0 -0.24991908104E+03  0.38710042479E+03 -0.33231015763E+03  0.57687848446E+03  0.10026195205E+03 0.  0.
        254    2    1    2    0    0  0.24991908104E+03 -0.38710042479E+03  0.94435906678E+03  0.14010645353E+04  0.92674780773E+03 0.  0.
        -24    2    4    4    0    0  0.43959200166E+03 -0.47213287066E+03  0.97922279530E+03  0.11752774162E+04  0.79051545345E+02 0.  0.
         24    2    4    4    0    0 -0.18967292062E+03  0.85032445877E+02 -0.34863728520E+02  0.22578711905E+03  0.80981540466E+02 0.  0.
         11    1    3    3    0    0 -0.13436604916E+03  0.28511595528E+03 -0.19626490069E+03  0.37130210660E+03  0.00000000000E+00 0. -1.
        -11    1    3    3    0    0 -0.11555303188E+03  0.10198446950E+03 -0.13604525694E+03  0.20557637785E+03  0.00000000000E+00 0.  1.
          4    1    6    6  502    0 -0.29114113793E+02  0.92401388648E+01  0.23880671321E+02  0.38772390317E+02  0.00000000000E+00 0. -1.
          3    1    5    5  503    0  0.20673485554E+03 -0.23979333095E+03  0.41234883614E+03  0.51987662453E+03  0.00000000000E+00 0. -1.
         -4    1    5    5    0  503  0.23285714612E+03 -0.23233953971E+03  0.56687395916E+03  0.65540079172E+03  0.00000000000E+00 0.  1.
         -3    1    6    6    0  502 -0.16055880682E+03  0.75792307012E+02 -0.58744399841E+02  0.18701472874E+03  0.00000000000E+00 0.  1.
<mgrwt>
<rscale>  0 0.18808654E+04</rscale>
<asrwt>0</asrwt>
<pdfrwt beam="1">  1        1 0.10506878E+00 0.18808654E+04</pdfrwt>
<pdfrwt beam="2">  1       -1 0.19923015E+00 0.18808654E+04</pdfrwt>
<totfact> 0.40376081E+00</totfact>
</mgrwt>
</event>
<event>
12    1  0.1598876E-007  0.1693523E+04  0.7818608E-02  0.8765067E-01
          1   -1    0    0  501    0  0.00000000000E+00  0.00000000000E+00  0.82800345288E+03  0.82800345288E+03  0.00000000000E+00 0. -1.
         -1   -1    0    0    0  501 -0.00000000000E+00 -0.00000000000E+00 -0.86594484578E+03  0.86594484578E+03  0.00000000000E+00 0.  1.
         23    2    1    2    0    0  0.60489284973E+03 -0.15705530451E+02 -0.78091284788E+02  0.61672176590E+03  0.90030352864E+02 0.  0.
        254    2    1    2    0    0 -0.60489284973E+03  0.15705530451E+02  0.40149891882E+02  0.10772265328E+04  0.89031621671E+03 0.  0.
        -24    2    4    4    0    0 -0.61569777722E+03 -0.33812944195E+03 -0.28516969123E+02  0.70794792647E+03  0.83437261856E+02 0.  0.
         24    2    4    4    0    0  0.10804927498E+02  0.35383497240E+03  0.68666861005E+02  0.36927860630E+03  0.79596589852E+02 0.  0.
         11    1    3    3    0    0  0.11865548493E+03  0.74066617187E+01 -0.50460028716E+02  0.12915183793E+03  0.00000000000E+00 0. -1.
        -11    1    3    3    0    0  0.48623736479E+03 -0.23112192170E+02 -0.27631256071E+02  0.48756992797E+03  0.00000000000E+00 0.  1.
          4    1    6    6  502    0 -0.12044514507E+02  0.16840028346E+03  0.69144315321E+02  0.18244084559E+03  0.00000000000E+00 0. -1.
          1    1    5    5  503    0 -0.56739076845E+03 -0.33419203030E+03 -0.32651239930E+02  0.65930471006E+03  0.00000000000E+00 0. -1.
         -2    1    5    5    0  503 -0.48307008771E+02 -0.39374116511E+01  0.41342708065E+01  0.48643216403E+02  0.00000000000E+00 0.  1.
         -3    1    6    6    0  502  0.22849442005E+02  0.18543468894E+03 -0.47745431619E+00  0.18683776071E+03  0.00000000000E+00 0.  1.
<mgrwt>
<rscale>  0 0.16935233E+04</rscale>
<asrwt>0</asrwt>
<pdfrwt beam="1">  1        1 0.12738515E+00 0.16935233E+04</pdfrwt>
<pdfrwt beam="2">  1       -1 0.13322228E+00 0.16935233E+04</pdfrwt>
<totfact> 0.94891910E+00</totfact>
</mgrwt>
</event>
<event>
12    1  0.1598876E-007  0.2266931E+04  0.7818608E-02  0.8491075E-01
          1   -1    0    0  501    0  0.00000000000E+00  0.00000000000E+00  0.12195797211E+04  0.12195797211E+04  0.00000000000E+00 0. -1.
         -1   -1    0    0    0  501 -0.00000000000E+00 -0.00000000000E+00 -0.10534321303E+04  0.10534321303E+04  0.00000000000E+00 0.  1.
         23    2    1    2    0    0 -0.72989911089E+03 -0.29952401613E+03  0.59489924131E+03  0.99200719398E+03  0.87782784642E+02 0.  0.
        254    2    1    2    0    0  0.72989911089E+03  0.29952401613E+03 -0.42875165053E+03  0.12810046574E+04  0.91360692105E+03 0.  0.
        -24    2    4    4    0    0  0.37240690812E+03 -0.16369150619E+03 -0.53919897252E+03  0.68019069746E+03  0.80262310747E+02 0.  0.
         24    2    4    4    0    0  0.35749220277E+03  0.46321552233E+03  0.11044732199E+03  0.60081395996E+03  0.80059405377E+02 0.  0.
         13    1    3    3    0    0 -0.35208163224E+03 -0.14339477352E+03  0.34158099722E+03  0.51107838390E+03  0.00000000000E+00 0. -1.
        -13    1    3    3    0    0 -0.37781747865E+03 -0.15612924261E+03  0.25331824410E+03  0.48092881008E+03  0.00000000000E+00 0.  1.
          2    1    6    6  502    0  0.28915077367E+03  0.38360009492E+03  0.12095124362E+03  0.49536492212E+03  0.00000000000E+00 0. -1.
          3    1    5    5  503    0  0.35865605901E+03 -0.13783663854E+03 -0.51268907980E+03  0.64068962855E+03  0.00000000000E+00 0. -1.
         -4    1    5    5    0  503  0.13750849107E+02 -0.25854867654E+02 -0.26509892724E+02  0.39501068907E+02  0.00000000000E+00 0.  1.
         -1    1    6    6    0  502  0.68341429097E+02  0.79615427408E+02 -0.10503921628E+02  0.10544903784E+03  0.00000000000E+00 0.  1.
<mgrwt>
<rscale>  0 0.22669314E+04</rscale>
<asrwt>0</asrwt>
<pdfrwt beam="1">  1        1 0.18762765E+00 0.22669314E+04</pdfrwt>
<pdfrwt beam="2">  1       -1 0.16206648E+00 0.22669314E+04</pdfrwt>
<totfact> 0.26424051E+00</totfact>
</mgrwt>
</event>
<event>
12    1  0.1598876E-007  0.1680413E+04  0.7818608E-02  0.8772615E-01
         -1   -1    0    0    0  501 -0.00000000000E+00  0.00000000000E+00  0.54004479017E+03  0.54004479017E+03  0.00000000000E+00 0.  1.
          1   -1    0    0  501    0  0.00000000000E+00 -0.00000000000E+00 -0.13072010570E+04  0.13072010570E+04  0.00000000000E+00 0. -1.
         23    2    1    2    0    0 -0.43837483671E+03  0.34911010791E+03 -0.46656868446E+02  0.56806555795E+03  0.80444079011E+02 0.  0.
        254    2    1    2    0    0  0.43837483671E+03 -0.34911010791E+03 -0.72049939835E+03  0.12791802892E+04  0.89617658099E+03 0.  0.
        -24    2    4    4    0    0  0.12222732516E+03 -0.60623381822E+03 -0.31336228248E+03  0.69761195601E+03  0.77508449344E+02 0.  0.
         24    2    4    4    0    0  0.31614751155E+03  0.25712371031E+03 -0.40713711587E+03  0.58156833318E+03  0.79995272174E+02 0.  0.
         13    1    3    3    0    0 -0.17760591462E+03  0.92772818685E+02 -0.11231225691E+02  0.20069080005E+03  0.00000000000E+00 0. -1.
        -13    1    3    3    0    0 -0.26076892210E+03  0.25633728923E+03 -0.35425642755E+02  0.36737475790E+03  0.00000000000E+00 0.  1.
          4    1    6    6  502    0  0.48877800724E+02  0.77218696929E+01 -0.42309158379E+02  0.65105541684E+02  0.00000000000E+00 0. -1.
          3    1    5    5  503    0 -0.56988846154E+01 -0.10167636200E+03 -0.37605551318E+02  0.10855753021E+03  0.00000000000E+00 0. -1.
         -4    1    5    5    0  503  0.12792620978E+03 -0.50455745622E+03 -0.27575673116E+03  0.58905442580E+03  0.00000000000E+00 0.  1.
         -3    1    6    6    0  502  0.26726971083E+03  0.24940184062E+03 -0.36482795749E+03  0.51646279149E+03  0.00000000000E+00 0.  1.
<mgrwt>
<rscale>  0 0.16804132E+04</rscale>
<asrwt>0</asrwt>
<pdfrwt beam="1">  1        1 0.20110785E+00 0.16804132E+04</pdfrwt>
<pdfrwt beam="2">  1       -1 0.83083815E-01 0.16804132E+04</pdfrwt>
<totfact> 0.12255810E+01</totfact>
</mgrwt>
</event>
<event>
12    1  0.1598876E-007  0.2522505E+04  0.7818608E-02  0.8395012E-01
         -2   -1    0    0    0  501 -0.00000000000E+00  0.00000000000E+00  0.75088736873E+03  0.75088736873E+03  0.00000000000E+00 0.  1.
          2   -1    0    0  501    0  0.00000000000E+00 -0.00000000000E+00 -0.21185032948E+04  0.21185032948E+04  0.00000000000E+00 0. -1.
         23    2    1    2    0    0  0.28314376122E+03  0.10142123353E+04 -0.11104875020E+04  0.15330557245E+04  0.90996217552E+02 0.  0.
        254    2    1    2    0    0 -0.28314376122E+03 -0.10142123353E+04 -0.25712842410E+03  0.13363349391E+04  0.78158748215E+03 0.  0.
        -24    2    4    4    0    0 -0.36834341415E+03 -0.50405638357E+03 -0.45510415156E+03  0.77674181908E+03  0.80363898475E+02 0.  0.
         24    2    4    4    0    0  0.85199652937E+02 -0.51015595176E+03  0.19797572746E+03  0.55959311999E+03  0.80199721335E+02 0.  0.
         11    1    3    3    0    0  0.65083981339E+01  0.71510869614E+01 -0.16149343133E+01  0.98033312621E+01  0.00000000000E+00 0.  1.
        -11    1    3    3    0    0  0.27663536308E+03  0.10070612484E+04 -0.11088725677E+04  0.15232523932E+04  0.00000000000E+00 0. -1.
          2    1    6    6  502    0  0.34865313702E+02 -0.16335276687E+03  0.25347859092E+02  0.16894445982E+03  0.00000000000E+00 0. -1.
          1    1    5    5  503    0 -0.97564152550E+02 -0.11700464577E+03 -0.71770726955E+02  0.16840394367E+03  0.00000000000E+00 0. -1.
         -2    1    5    5    0  503 -0.27077926160E+03 -0.38705173780E+03 -0.38333342460E+03  0.60833787541E+03  0.00000000000E+00 0.  1.
         -1    1    6    6    0  502  0.50334339235E+02 -0.34680318489E+03  0.17262786837E+03  0.39064866017E+03  0.00000000000E+00 0.  1.
<mgrwt>
<rscale>  0 0.25225046E+04</rscale>
<asrwt>0</asrwt>
<pdfrwt beam="1">  1        2 0.32592358E+00 0.25225046E+04</pdfrwt>
<pdfrwt beam="2">  1       -2 0.11552114E+00 0.25225046E+04</pdfrwt>
<totfact> 0.29784108E+00</totfact>
</mgrwt>
</event>
<event>
12    1  0.1598876E-007  0.1327310E+04  0.7818608E-02  0.9008184E-01
          1   -1    0    0  501    0  0.00000000000E+00  0.00000000000E+00  0.30612332946E+04  0.30612332946E+04  0.00000000000E+00 0. -1.
         -1   -1    0    0    0  501 -0.00000000000E+00 -0.00000000000E+00 -0.14387589137E+03  0.14387589137E+03  0.00000000000E+00 0.  1.
         23    2    1    2    0    0  0.13915995033E+03  0.30619126920E+03  0.55102925414E+03  0.65191380333E+03  0.90773250173E+02 0.  0.
        254    2    1    2    0    0 -0.13915995033E+03 -0.30619126920E+03  0.23663281491E+04  0.25531953827E+04  0.89787480624E+03 0.  0.
        -24    2    4    4    0    0  0.19334196277E+03 -0.49274653300E+03  0.16916458515E+04  0.17742628277E+04  0.78502448636E+02 0.  0.
         24    2    4    4    0    0 -0.33250191310E+03  0.18655526380E+03  0.67468229758E+03  0.77893255496E+03  0.78608738911E+02 0.  0.
         13    1    3    3    0    0  0.94581783986E+02  0.24569076994E+03  0.35494992528E+03  0.44192659769E+03  0.00000000000E+00 0. -1.
        -13    1    3    3    0    0  0.44578166344E+02  0.60500499268E+02  0.19607932886E+03  0.20998720564E+03  0.00000000000E+00 0.  1.
          2    1    6    6  502    0 -0.16764574781E+03  0.13449588764E+03  0.34000284392E+03  0.40223895190E+03  0.00000000000E+00 0. -1.
          3    1    5    5  503    0  0.18855620172E+03 -0.46803881471E+03  0.16516348575E+04  0.17269949264E+04  0.00000000000E+00 0. -1.
         -4    1    5    5    0  503  0.47857610534E+01 -0.24707718296E+02  0.40010994087E+02  0.47267901372E+02  0.00000000000E+00 0.  1.
         -1    1    6    6    0  502 -0.16485616529E+03  0.52059376156E+02  0.33467945366E+03  0.37669360306E+03  0.00000000000E+00 0.  1.
<mgrwt>
<rscale>  0 0.13273096E+04</rscale>
<asrwt>0</asrwt>
<pdfrwt beam="1">  1        1 0.47095892E+00 0.13273096E+04</pdfrwt>
<pdfrwt beam="2">  1       -1 0.22134755E-01 0.13273096E+04</pdfrwt>
<totfact> 0.92058951E+00</totfact>
</mgrwt>
</event>
<event>
12    1  0.2253102E-007  0.1589659E+04  0.7818608E-02  0.8826926E-01
         -1   -1    0    0    0  501 -0.00000000000E+00  0.00000000000E+00  0.13268424526E+04  0.13268424526E+04  0.00000000000E+00 0.  1.
          1   -1    0    0  501    0  0.00000000000E+00 -0.00000000000E+00 -0.47613319066E+03  0.47613319066E+03  0.00000000000E+00 0. -1.
         23    2    1    2    0    0  0.77489660054E+02  0.36247242294E+03 -0.14607609383E+03  0.40862535275E+03  0.90805004882E+02 0.  0.
        254    2    1    2    0    0 -0.77489660054E+02 -0.36247242294E+03  0.99678535576E+03  0.13943502905E+04  0.90179863735E+03 0.  0.
        -24    2    4    4    0    0  0.19993283772E+02 -0.93095984902E+01  0.10160925016E+04  0.10194804710E+04  0.80062843600E+02 0.  0.
         24    2    4    4    0    0 -0.97482943826E+02 -0.35316282445E+03 -0.19307145851E+02  0.37486981948E+03  0.76991627862E+02 0.  0.
         11    1    3    3    0    0  0.57408954462E+02  0.35502218080E+03 -0.13249498692E+03  0.38326421496E+03  0.00000000000E+00 0. -1.
        -11    1    3    3    0    0  0.20080705593E+02  0.74502421478E+01 -0.13581106909E+02  0.25361137791E+02  0.00000000000E+00 0.  1.
          4    1    6    6  502    0 -0.37779002081E+02 -0.10054904565E+03  0.28044626822E+02  0.11101290318E+03  0.00000000000E+00 0. -1.
          3    1    5    5  503    0  0.12678744152E+02  0.14314712499E+02  0.58042346262E+02  0.61111173338E+02  0.00000000000E+00 0. -1.
         -4    1    5    5    0  503  0.73145396193E+01 -0.23624310989E+02  0.95805015535E+03  0.95836929768E+03  0.00000000000E+00 0.  1.
         -3    1    6    6    0  502 -0.59703941745E+02 -0.25261377880E+03 -0.47351772673E+02  0.26385691630E+03  0.00000000000E+00 0.  1.
<mgrwt>
<rscale>  0 0.15896587E+04</rscale>
<asrwt>0</asrwt>
<pdfrwt beam="1">  1        1 0.73251261E-01 0.15896587E+04</pdfrwt>
<pdfrwt beam="2">  1       -1 0.20412961E+00 0.15896587E+04</pdfrwt>
<totfact> 0.64174808E+00</totfact>
</mgrwt>
</event>
<event>
12    1  0.1598876E-007  0.2338613E+04  0.7818608E-02  0.8462850E-01
         -2   -1    0    0    0  501 -0.00000000000E+00  0.00000000000E+00  0.94402630004E+03  0.94402630004E+03  0.00000000000E+00 0.  1.
          2   -1    0    0  501    0  0.00000000000E+00 -0.00000000000E+00 -0.14483472021E+04  0.14483472021E+04  0.00000000000E+00 0. -1.
         23    2    1    2    0    0 -0.91808517752E+02  0.13482627518E+03  0.75538925618E+03  0.77804624143E+03  0.90200316260E+02 0.  0.
        254    2    1    2    0    0  0.91808517752E+02 -0.13482627518E+03 -0.12597101583E+04  0.16143272607E+04  0.99628103138E+03 0.  0.
        -24    2    4    4    0    0  0.26620844844E+03 -0.27286248160E+03 -0.62968968199E+02  0.39430804037E+03  0.78694776561E+02 0.  0.
         24    2    4    4    0    0 -0.17439993069E+03  0.13803620642E+03 -0.11967411901E+04  0.12200192204E+04  0.82389877626E+02 0.  0.
         13    1    3    3    0    0 -0.23975484804E+02  0.97336429963E+02  0.53786929957E+03  0.54713123461E+03  0.00000000000E+00 0.  1.
        -13    1    3    3    0    0 -0.67833032948E+02  0.37489845216E+02  0.21751995661E+03  0.23091500682E+03  0.00000000000E+00 0. -1.
          4    1    6    6  502    0 -0.89213974692E+02  0.31620101615E+02 -0.35937612052E+03  0.37163175336E+03  0.00000000000E+00 0. -1.
          1    1    5    5  503    0  0.18572061449E+02 -0.33528236869E+02 -0.29361002510E+02  0.48281804051E+02  0.00000000000E+00 0. -1.
         -2    1    5    5    0  503  0.24763638699E+03 -0.23933424473E+03 -0.33607965689E+02  0.34602623632E+03  0.00000000000E+00 0.  1.
         -3    1    6    6    0  502 -0.85185955996E+02  0.10641610481E+03 -0.83736506955E+03  0.84838746700E+03  0.00000000000E+00 0.  1.
<mgrwt>
<rscale>  0 0.23386131E+04</rscale>
<asrwt>0</asrwt>
<pdfrwt beam="1">  1        2 0.22282265E+00 0.23386131E+04</pdfrwt>
<pdfrwt beam="2">  1       -2 0.14523482E+00 0.23386131E+04</pdfrwt>
<totfact> 0.40050637E+00</totfact>
</mgrwt>
</event>
<event>
12    1  0.1598876E-007  0.1828923E+04  0.7818608E-02  0.8691068E-01
          1   -1    0    0  501    0  0.00000000000E+00  0.00000000000E+00  0.19206184813E+04  0.19206184813E+04  0.00000000000E+00 0. -1.
         -1   -1    0    0    0  501 -0.00000000000E+00 -0.00000000000E+00 -0.43540128006E+03  0.43540128006E+03  0.00000000000E+00 0.  1.
         23    2    1    2    0    0  0.74175763561E+02  0.66279919877E+03  0.83992783423E+03  0.10763032030E+04  0.90249633524E+02 0.  0.
        254    2    1    2    0    0 -0.74175763561E+02 -0.66279919877E+03  0.64528936705E+03  0.12797165584E+04  0.88117607818E+03 0.  0.
        -24    2    4    4    0    0 -0.19557889036E+03 -0.28440378496E+03 -0.15207566235E+03  0.38523722849E+03  0.78384308908E+02 0.  0.
         24    2    4    4    0    0  0.12140312680E+03 -0.37839541381E+03  0.79736502940E+03  0.89447932988E+03  0.79877863581E+02 0.  0.
         13    1    3    3    0    0  0.57790807505E+02  0.30334679908E+03  0.32716265961E+03  0.44988272227E+03  0.00000000000E+00 0.  1.
        -13    1    3    3    0    0  0.16384956056E+02  0.35945239969E+03  0.51276517462E+03  0.62642048077E+03  0.00000000000E+00 0. -1.
          4    1    6    6  502    0  0.13293478587E+03 -0.35729143310E+03  0.75393368667E+03  0.84483420229E+03  0.00000000000E+00 0. -1.
          3    1    5    5  503    0 -0.18042986210E+03 -0.22302863537E+03 -0.10157624417E+03  0.30432620773E+03  0.00000000000E+00 0. -1.
         -4    1    5    5    0  503 -0.15149028262E+02 -0.61375149589E+02 -0.50499418173E+02  0.80911020758E+02  0.00000000000E+00 0.  1.
         -3    1    6    6    0  502 -0.11531659067E+02 -0.21103980709E+02  0.43431342728E+02  0.49645127594E+02  0.00000000000E+00 0.  1.
<mgrwt>
<rscale>  0 0.18289229E+04</rscale>
<asrwt>0</asrwt>
<pdfrwt beam="1">  1        1 0.29547976E+00 0.18289229E+04</pdfrwt>
<pdfrwt beam="2">  1       -1 0.66984813E-01 0.18289229E+04</pdfrwt>
<totfact> 0.71695167E+00</totfact>
</mgrwt>
</event>
<event>
12    1  0.2294182E-007  0.2007996E+04  0.7818608E-02  0.8602891E-01
          1   -1    0    0  501    0  0.00000000000E+00  0.00000000000E+00  0.15150820502E+04  0.15150820502E+04  0.00000000000E+00 0. -1.
         -1   -1    0    0    0  501 -0.00000000000E+00 -0.00000000000E+00 -0.66531842948E+03  0.66531842948E+03  0.00000000000E+00 0.  1.
         23    2    1    2    0    0 -0.19560083989E+03 -0.66001256191E+03  0.75634296955E+03  0.10268121435E+04  0.91718155353E+02 0.  0.
        254    2    1    2    0    0  0.19560083989E+03  0.66001256191E+03  0.93420651180E+02  0.11535883362E+04  0.92095730675E+03 0.  0.
        -24    2    4    4    0    0  0.19499144882E+03  0.36636149184E+03 -0.39456958018E+03  0.57854381366E+03  0.82373435677E+02 0.  0.
         24    2    4    4    0    0  0.60939107535E+00  0.29365107007E+03  0.48799023136E+03  0.57504452251E+03  0.79438118421E+02 0.  0.
         11    1    3    3    0    0 -0.23536777257E+02 -0.16099836245E+03  0.22676108507E+03  0.27909683319E+03  0.00000000000E+00 0.  1.
        -11    1    3    3    0    0 -0.17206406263E+03 -0.49901419945E+03  0.52958188448E+03  0.74771531031E+03  0.00000000000E+00 0. -1.
          4    1    6    6  502    0 -0.18692003484E+01  0.45904313577E+02  0.31664841529E+02  0.55797509836E+02  0.00000000000E+00 0. -1.
          3    1    5    5  503    0 -0.50161551904E+01  0.32519909529E+02 -0.20632744639E+02  0.38838337761E+02  0.00000000000E+00 0. -1.
         -4    1    5    5    0  503  0.20000760401E+03  0.33384158231E+03 -0.37393683554E+03  0.53970547590E+03  0.00000000000E+00 0.  1.
         -3    1    6    6    0  502  0.24785914238E+01  0.24774675649E+03  0.45632538983E+03  0.51924701268E+03  0.00000000000E+00 0.  1.
<mgrwt>
<rscale>  0 0.20079960E+04</rscale>
<asrwt>0</asrwt>
<pdfrwt beam="1">  1        1 0.23308955E+00 0.20079960E+04</pdfrwt>
<pdfrwt beam="2">  1       -1 0.10235668E+00 0.20079960E+04</pdfrwt>
<totfact> 0.53473382E+00</totfact>
</mgrwt>
</event>
<event>
12    1  0.1598876E-007  0.1947173E+04  0.7818608E-02  0.8631725E-01
         -1   -1    0    0    0  501 -0.00000000000E+00  0.00000000000E+00  0.38394106907E+03  0.38394106907E+03  0.00000000000E+00 0.  1.
          1   -1    0    0  501    0  0.00000000000E+00 -0.00000000000E+00 -0.24687921243E+04  0.24687921243E+04  0.00000000000E+00 0. -1.
         23    2    1    2    0    0  0.52608838937E+03 -0.48649003466E+03 -0.11576477986E+04  0.13645143137E+04  0.91155577374E+02 0.  0.
        254    2    1    2    0    0 -0.52608838937E+03  0.48649003466E+03 -0.92720325661E+03  0.14882188797E+04  0.91741376030E+03 0.  0.
        -24    2    4    4    0    0 -0.39459614125E+03 -0.21247722673E+02 -0.86413863466E+03  0.95414861260E+03  0.86639567163E+02 0.  0.
         24    2    4    4    0    0 -0.13149224813E+03  0.50773775734E+03 -0.63064621943E+02  0.53407026711E+03  0.78524277311E+02 0.  0.
         11    1    3    3    0    0  0.23371031220E+03 -0.25917473567E+03 -0.49980565947E+03  0.60958818138E+03  0.00000000000E+00 0.  1.
        -11    1    3    3    0    0  0.29237807717E+03 -0.22731529900E+03 -0.65784213914E+03  0.75492613228E+03  0.00000000000E+00 0. -1.
          2    1    6    6  502    0 -0.85098862248E+02  0.43957263714E+03 -0.57764590871E+02  0.45144508818E+03  0.00000000000E+00 0. -1.
          1    1    5    5  503    0 -0.36003955402E+03 -0.25893976392E+02 -0.71455175488E+03  0.80055180274E+03  0.00000000000E+00 0. -1.
         -2    1    5    5    0  503 -0.34556587227E+02  0.46462537188E+01 -0.14958687978E+03  0.15359680985E+03  0.00000000000E+00 0.  1.
         -1    1    6    6    0  502 -0.46393385879E+02  0.68165120196E+02 -0.53000310720E+01  0.82625178935E+02  0.00000000000E+00 0.  1.
<mgrwt>
<rscale>  0 0.19471730E+04</rscale>
<asrwt>0</asrwt>
<pdfrwt beam="1">  1        1 0.37981417E+00 0.19471730E+04</pdfrwt>
<pdfrwt beam="2">  1       -1 0.59067857E-01 0.19471730E+04</pdfrwt>
<totfact> 0.38571332E+00</totfact>
</mgrwt>
</event>
<event>
12    1  0.1598876E-007  0.2755330E+04  0.7818608E-02  0.8317272E-01
          2   -1    0    0  501    0  0.00000000000E+00  0.00000000000E+00  0.14744167061E+04  0.14744167061E+04  0.00000000000E+00 0. -1.
         -2   -1    0    0    0  501 -0.00000000000E+00 -0.00000000000E+00 -0.12872623136E+04  0.12872623136E+04  0.00000000000E+00 0.  1.
         23    2    1    2    0    0 -0.12106962943E+03 -0.61413998048E+03  0.11311303845E+04  0.12958918269E+04  0.89743576842E+02 0.  0.
        254    2    1    2    0    0  0.12106962943E+03  0.61413998048E+03 -0.94397599199E+03  0.14657871927E+04  0.93038467860E+03 0.  0.
        -24    2    4    4    0    0 -0.26642495502E+03  0.45287226177E+03 -0.13116848026E+03  0.54750726627E+03  0.80520148194E+02 0.  0.
         24    2    4    4    0    0  0.38749458445E+03  0.16126771871E+03 -0.81280751173E+03  0.91827992647E+03  0.80141388580E+02 0.  0.
         13    1    3    3    0    0 -0.63284433843E+02 -0.48203224858E+03  0.82715136533E+03  0.95944743963E+03  0.00000000000E+00 0. -1.
        -13    1    3    3    0    0 -0.57785195584E+02 -0.13210773190E+03  0.30397901915E+03  0.33644438729E+03  0.00000000000E+00 0.  1.
          2    1    6    6  502    0  0.70875368737E+02  0.64434044715E+02 -0.16595653830E+03  0.19161585691E+03  0.00000000000E+00 0. -1.
          3    1    5    5  503    0 -0.15768200831E+03  0.23921827305E+03 -0.32829786281E+02  0.28838653362E+03  0.00000000000E+00 0. -1.
         -4    1    5    5    0  503 -0.10874294671E+03  0.21365398872E+03 -0.98338693980E+02  0.25912073265E+03  0.00000000000E+00 0.  1.
         -1    1    6    6    0  502  0.31661921571E+03  0.96833673992E+02 -0.64685097342E+03  0.72666406957E+03  0.00000000000E+00 0.  1.
<mgrwt>
<rscale>  0 0.27553302E+04</rscale>
<asrwt>0</asrwt>
<pdfrwt beam="1">  1        2 0.22683334E+00 0.27553302E+04</pdfrwt>
<pdfrwt beam="2">  1       -2 0.19804036E+00 0.27553302E+04</pdfrwt>
<totfact> 0.15705981E+00</totfact>
</mgrwt>
</event>
<event>
12    1  0.1598876E-007  0.2467005E+04  0.7818608E-02  0.8414835E-01
          1   -1    0    0  501    0  0.00000000000E+00  0.00000000000E+00  0.18980901105E+04  0.18980901105E+04  0.00000000000E+00 0. -1.
         -1   -1    0    0    0  501 -0.00000000000E+00 -0.00000000000E+00 -0.80161043012E+03  0.80161043012E+03  0.00000000000E+00 0.  1.
         23    2    1    2    0    0  0.44351390535E+03  0.87306641691E+03  0.93728037302E+03  0.13586712910E+04  0.92431741742E+02 0.  0.
        254    2    1    2    0    0 -0.44351390535E+03 -0.87306641691E+03  0.15919930736E+03  0.13410292496E+04  0.90225577093E+03 0.  0.
        -24    2    4    4    0    0  0.24583346711E+03 -0.44039169468E+03  0.10525596615E+03  0.52135672867E+03  0.79718767068E+02 0.  0.
         24    2    4    4    0    0 -0.68934737246E+03 -0.43267472223E+03  0.53943341210E+02  0.81967252091E+03  0.80906997807E+02 0.  0.
         13    1    3    3    0    0  0.34040707048E+03  0.73624218368E+03  0.74806458530E+03  0.11034174869E+04  0.00000000000E+00 0. -1.
        -13    1    3    3    0    0  0.10310683488E+03  0.13682423323E+03  0.18921578772E+03  0.25525380413E+03  0.00000000000E+00 0.  1.
          4    1    6    6  502    0 -0.20749489356E+03 -0.13274410025E+03  0.53651881644E+02  0.25209849545E+03  0.00000000000E+00 0. -1.
          1    1    5    5  503    0  0.13719214210E+02 -0.11676990344E+02 -0.97115955419E+01  0.20466656542E+02  0.00000000000E+00 0. -1.
         -2    1    5    5    0  503  0.23211425290E+03 -0.42871470434E+03  0.11496756169E+03  0.50089007213E+03  0.00000000000E+00 0.  1.
         -3    1    6    6    0  502 -0.48185247890E+03 -0.29993062198E+03  0.29145956644E+00  0.56757402546E+03  0.00000000000E+00 0.  1.
<mgrwt>
<rscale>  0 0.24670053E+04</rscale>
<asrwt>0</asrwt>
<pdfrwt beam="1">  1        1 0.29201386E+00 0.24670053E+04</pdfrwt>
<pdfrwt beam="2">  1       -1 0.12332468E+00 0.24670053E+04</pdfrwt>
<totfact> 0.18015654E+00</totfact>
</mgrwt>
</event>
<event>
12    1  0.1598876E-007  0.1884723E+04  0.7818608E-02  0.8662498E-01
          1   -1    0    0  501    0  0.00000000000E+00  0.00000000000E+00  0.18826852672E+04  0.18826852672E+04  0.00000000000E+00 0. -1.
         -1   -1    0    0    0  501 -0.00000000000E+00 -0.00000000000E+00 -0.47169094041E+03  0.47169094041E+03  0.00000000000E+00 0.  1.
         23    2    1    2    0    0  0.58515550227E+03  0.57480656557E+02 -0.73037073936E+01  0.59451333649E+03  0.87645738137E+02 0.  0.
        254    2    1    2    0    0 -0.58515550227E+03 -0.57480656557E+02  0.14182980342E+04  0.17598628711E+04  0.86013779341E+03 0.  0.
        -24    2    4    4    0    0 -0.32102932607E+03 -0.41736846664E+03  0.10442279431E+04  0.11720273572E+04  0.77329579533E+02 0.  0.
         24    2    4    4    0    0 -0.26412617620E+03  0.35988781008E+03  0.37407009112E+03  0.58783551389E+03  0.79625909860E+02 0.  0.
         13    1    3    3    0    0  0.46957128914E+03  0.22633040719E+02  0.20747755569E+02  0.47057403188E+03  0.00000000000E+00 0.  1.
        -13    1    3    3    0    0  0.11558421312E+03  0.34847615839E+02 -0.28051462962E+02  0.12393930461E+03  0.00000000000E+00 0. -1.
          4    1    6    6  502    0 -0.13445344310E+03  0.20158197559E+03  0.25181281777E+03  0.34946060784E+03  0.00000000000E+00 0. -1.
          3    1    5    5  503    0 -0.18753807230E+03 -0.23950006360E+03  0.51757843144E+03  0.60034843359E+03  0.00000000000E+00 0. -1.
         -4    1    5    5    0  503 -0.13349125377E+03 -0.17786840304E+03  0.52664951162E+03  0.57167892363E+03  0.00000000000E+00 0.  1.
         -3    1    6    6    0  502 -0.12967273310E+03  0.15830583450E+03  0.12225727335E+03  0.23837490604E+03  0.00000000000E+00 0.  1.
<mgrwt>
<rscale>  0 0.18847234E+04</rscale>
<asrwt>0</asrwt>
<pdfrwt beam="1">  1        1 0.28964388E+00 0.18847234E+04</pdfrwt>
<pdfrwt beam="2">  1       -1 0.72567838E-01 0.18847234E+04</pdfrwt>
<totfact> 0.64223175E+00</totfact>
</mgrwt>
</event>
<event>
12    1  0.1598876E-007  0.1477353E+04  0.7818608E-02  0.8899654E-01
         -1   -1    0    0    0  501 -0.00000000000E+00  0.00000000000E+00  0.14521827503E+04  0.14521827503E+04  0.00000000000E+00 0.  1.
          1   -1    0    0  501    0  0.00000000000E+00 -0.00000000000E+00 -0.37574010400E+03  0.37574010400E+03  0.00000000000E+00 0. -1.
         23    2    1    2    0    0 -0.18337306829E+03  0.75371864389E+02 -0.16874391593E+03  0.27599716248E+03  0.91615088365E+02 0.  0.
        254    2    1    2    0    0  0.18337306829E+03 -0.75371864389E+02  0.12451865623E+04  0.15519256919E+04  0.90480781279E+03 0.  0.
        -24    2    4    4    0    0 -0.11750381028E+03  0.22713622088E+03  0.37469420545E+02  0.26848111219E+03  0.72664584636E+02 0.  0.
         24    2    4    4    0    0  0.30087687857E+03 -0.30250808527E+03  0.12077171417E+04  0.12834445797E+04  0.81309636464E+02 0.  0.
         11    1    3    3    0    0 -0.13219483833E+03  0.92000293921E+02 -0.10359436125E+03  0.19149757452E+03  0.00000000000E+00 0. -1.
        -11    1    3    3    0    0 -0.51178229959E+02 -0.16628429531E+02 -0.65149554681E+02  0.84499587961E+02  0.00000000000E+00 0.  1.
          4    1    6    6  502    0  0.13135865951E+01 -0.26083953192E+02  0.57986676934E+02  0.63596798863E+02  0.00000000000E+00 0. -1.
          3    1    5    5  503    0 -0.80538512287E+01  0.10719798266E+02  0.21626100585E+02  0.25445369343E+02  0.00000000000E+00 0. -1.
         -4    1    5    5    0  503 -0.10944995905E+03  0.21641642261E+03  0.15843319959E+02  0.24303574284E+03  0.00000000000E+00 0.  1.
         -3    1    6    6    0  502  0.29956329197E+03 -0.27642413207E+03  0.11497304648E+04  0.12198477808E+04  0.00000000000E+00 0.  1.
<mgrwt>
<rscale>  0 0.14773534E+04</rscale>
<asrwt>0</asrwt>
<pdfrwt beam="1">  1        1 0.57806171E-01 0.14773534E+04</pdfrwt>
<pdfrwt beam="2">  1       -1 0.22341273E+00 0.14773534E+04</pdfrwt>
<totfact> 0.65986342E+00</totfact>
</mgrwt>
</event>
<event>
12    1  0.1598876E-007  0.1166036E+04  0.7818608E-02  0.9143116E-01
         -2   -1    0    0    0  501 -0.00000000000E+00  0.00000000000E+00  0.91414203246E+03  0.91414203246E+03  0.00000000000E+00 0.  1.
          2   -1    0    0  501    0  0.00000000000E+00 -0.00000000000E+00 -0.37183498039E+03  0.37183498039E+03  0.00000000000E+00 0. -1.
         23    2    1    2    0    0  0.27111510853E+02  0.62044325057E+02  0.32918464114E+03  0.34780449828E+03  0.89559526400E+02 0.  0.
        254    2    1    2    0    0 -0.27111510853E+02 -0.62044325057E+02  0.21312241093E+03  0.93817251457E+03  0.91113224768E+03 0.  0.
        -24    2    4    4    0    0 -0.23239428010E+03  0.42296513517E+02 -0.28785745168E+03  0.38110403107E+03  0.81131211837E+02 0.  0.
         24    2    4    4    0    0  0.20528276925E+03 -0.10434083857E+03  0.50097986261E+03  0.55706848350E+03  0.79476075795E+02 0.  0.
         13    1    3    3    0    0  0.56844469370E+02  0.58442654928E+02  0.22131385974E+03  0.23585305197E+03  0.00000000000E+00 0.  1.
        -13    1    3    3    0    0 -0.29732958518E+02  0.36016701298E+01  0.10787078140E+03  0.11195144631E+03  0.00000000000E+00 0. -1.
          4    1    6    6  502    0  0.76097755800E+02 -0.77413966471E+02  0.27076234215E+03  0.29171224960E+03  0.00000000000E+00 0. -1.
          1    1    5    5  503    0 -0.87177310391E+01  0.37106378525E+01  0.48965983089E+01  0.10665099284E+02  0.00000000000E+00 0. -1.
         -2    1    5    5    0  503 -0.22367654906E+03  0.38585875664E+02 -0.29275404999E+03  0.37043893179E+03  0.00000000000E+00 0.  1.
         -3    1    6    6    0  502  0.12918501345E+03 -0.26926872104E+02  0.23021752046E+03  0.26535623389E+03  0.00000000000E+00 0.  1.
<mgrwt>
<rscale>  0 0.11660360E+04</rscale>
<asrwt>0</asrwt>
<pdfrwt beam="1">  1        2 0.57205382E-01 0.11660360E+04</pdfrwt>
<pdfrwt beam="2">  1       -2 0.14063723E+00 0.11660360E+04</pdfrwt>
<totfact> 0.30276047E+01</totfact>
</mgrwt>
</event>
<event>
12    1  0.1598876E-007  0.2605399E+04  0.7818608E-02  0.8366370E-01
          2   -1    0    0  501    0  0.00000000000E+00  0.00000000000E+00  0.12061361636E+04  0.12061361636E+04  0.00000000000E+00 0. -1.
         -2   -1    0    0    0  501 -0.00000000000E+00 -0.00000000000E+00 -0.14069937384E+04  0.14069937384E+04  0.00000000000E+00 0.  1.
         23    2    1    2    0    0 -0.93941645428E+03 -0.38691038120E+03  0.44523205523E+03  0.11135514421E+04  0.97787082834E+02 0.  0.
        254    2    1    2    0    0  0.93941645428E+03  0.38691038120E+03 -0.64608963006E+03  0.14995784599E+04  0.89392439814E+03 0.  0.
        -24    2    4    4    0    0  0.88585035154E+03  0.58157338813E+03 -0.32418207203E+03  0.11110410547E+04  0.79748092156E+02 0.  0.
         24    2    4    4    0    0  0.53566102733E+02 -0.19466300693E+03 -0.32190755803E+03  0.38853740521E+03  0.81079132329E+02 0.  0.
         13    1    3    3    0    0 -0.91746543046E+03 -0.37646222636E+03  0.44959272934E+03  0.10888527202E+04  0.00000000000E+00 0. -1.
        -13    1    3    3    0    0 -0.21951023818E+02 -0.10448154839E+02 -0.43606741122E+01  0.24698721928E+02  0.00000000000E+00 0.  1.
          4    1    6    6  502    0 -0.19285412993E+02 -0.26907495230E+02 -0.34029294804E+02  0.47475608039E+02  0.00000000000E+00 0. -1.
          1    1    5    5  503    0  0.49685546729E+03  0.27964461701E+03 -0.18251973478E+03  0.59864841166E+03  0.00000000000E+00 0. -1.
         -2    1    5    5    0  503  0.38899488426E+03  0.30192877112E+03 -0.14166233725E+03  0.51239264300E+03  0.00000000000E+00 0.  1.
         -3    1    6    6    0  502  0.72851515726E+02 -0.16775551170E+03 -0.28787826323E+03  0.34106179717E+03  0.00000000000E+00 0.  1.
<mgrwt>
<rscale>  0 0.26053990E+04</rscale>
<asrwt>0</asrwt>
<pdfrwt beam="1">  1        2 0.18555941E+00 0.26053990E+04</pdfrwt>
<pdfrwt beam="2">  1       -2 0.21646058E+00 0.26053990E+04</pdfrwt>
<totfact> 0.17284909E+00</totfact>
</mgrwt>
</event>
<event>
12    1  0.1598876E-007  0.2078659E+04  0.7818608E-02  0.8570703E-01
         -2   -1    0    0    0  501 -0.00000000000E+00  0.00000000000E+00  0.42205812119E+03  0.42205812119E+03  0.00000000000E+00 0.  1.
          2   -1    0    0  501    0  0.00000000000E+00 -0.00000000000E+00 -0.25593776940E+04  0.25593776940E+04  0.00000000000E+00 0. -1.
         23    2    1    2    0    0 -0.21450780666E+01  0.78756505118E+03 -0.48106154085E+03  0.92709162531E+03  0.88404549821E+02 0.  0.
        254    2    1    2    0    0  0.21450780666E+01 -0.78756505118E+03 -0.16562580320E+04  0.20543441899E+04  0.92567600752E+03 0.  0.
        -24    2    4    4    0    0  0.30398710333E+03 -0.13350120426E+03 -0.10656040877E+04  0.11190309497E+04  0.80544795574E+02 0.  0.
         24    2    4    4    0    0 -0.30184202526E+03 -0.65406384692E+03 -0.59065394425E+03  0.93531324019E+03  0.83848979490E+02 0.  0.
         13    1    3    3    0    0  0.33576843668E+01  0.58805030599E+03 -0.40240276677E+03  0.71256046980E+03  0.00000000000E+00 0.  1.
        -13    1    3    3    0    0 -0.55027624335E+01  0.19951474520E+03 -0.78658774080E+02  0.21453115551E+03  0.00000000000E+00 0. -1.
          2    1    6    6  502    0 -0.12700021852E+03 -0.25873645384E+03 -0.18481172744E+03  0.34238718236E+03  0.00000000000E+00 0. -1.
          1    1    5    5  503    0  0.27721583411E+03 -0.14410095284E+03 -0.98998225138E+03  0.10381129810E+04  0.00000000000E+00 0. -1.
         -2    1    5    5    0  503  0.26771269221E+02  0.10599748588E+02 -0.75621836340E+02  0.80917968692E+02  0.00000000000E+00 0.  1.
         -1    1    6    6    0  502 -0.17484180674E+03 -0.39532739309E+03 -0.40584221681E+03  0.59292605783E+03  0.00000000000E+00 0.  1.
<mgrwt>
<rscale>  0 0.20786593E+04</rscale>
<asrwt>0</asrwt>
<pdfrwt beam="1">  1        2 0.39375042E+00 0.20786593E+04</pdfrwt>
<pdfrwt beam="2">  1       -2 0.64932018E-01 0.20786593E+04</pdfrwt>
<totfact> 0.64966029E+00</totfact>
</mgrwt>
</event>
<event>
12    1  0.1598876E-007  0.1323746E+04  0.7818608E-02  0.9010943E-01
          1   -1    0    0  501    0  0.00000000000E+00  0.00000000000E+00  0.71245903713E+03  0.71245903713E+03  0.00000000000E+00 0. -1.
         -1   -1    0    0    0  501 -0.00000000000E+00 -0.00000000000E+00 -0.61487864603E+03  0.61487864603E+03  0.00000000000E+00 0.  1.
         23    2    1    2    0    0 -0.21951109547E+03 -0.26136944042E+03  0.10426924852E+03  0.36828310308E+03  0.90891486963E+02 0.  0.
        254    2    1    2    0    0  0.21951109547E+03  0.26136944042E+03 -0.66888574221E+01  0.95905458008E+03  0.89623760317E+03 0.  0.
        -24    2    4    4    0    0  0.65415257651E+02  0.23781609735E+02 -0.43048829728E+03  0.44324256501E+03  0.79366721294E+02 0.  0.
         24    2    4    4    0    0  0.15409583782E+03  0.23758783069E+03  0.42379943986E+03  0.51581201507E+03  0.79136370561E+02 0.  0.
         11    1    3    3    0    0 -0.63216864336E+02 -0.35237535846E+02  0.50326363626E+02  0.88152134091E+02  0.00000000000E+00 0. -1.
        -11    1    3    3    0    0 -0.15629423113E+03 -0.22613190458E+03  0.53942884895E+02  0.28013096898E+03  0.00000000000E+00 0.  1.
          2    1    6    6  502    0  0.23930173440E+02  0.86453355875E+02  0.17747301227E+03  0.19885549032E+03  0.00000000000E+00 0. -1.
          3    1    5    5  503    0  0.14202955323E+02 -0.28711285928E+02 -0.14359641500E+03  0.14712577028E+03  0.00000000000E+00 0. -1.
         -4    1    5    5    0  503  0.51212302328E+02  0.52492895663E+02 -0.28689188228E+03  0.29611679473E+03  0.00000000000E+00 0.  1.
         -1    1    6    6    0  502  0.13016566438E+03  0.15113447481E+03  0.24632642758E+03  0.31695652476E+03  0.00000000000E+00 0.  1.
<mgrwt>
<rscale>  0 0.13237460E+04</rscale>
<asrwt>0</asrwt>
<pdfrwt beam="1">  1        1 0.10960908E+00 0.13237460E+04</pdfrwt>
<pdfrwt beam="2">  1       -1 0.94596715E-01 0.13237460E+04</pdfrwt>
<totfact> 0.28131331E+01</totfact>
</mgrwt>
</event>
<event>
12    1  0.1598876E-007  0.1207231E+04  0.7818608E-02  0.9106551E-01
         -2   -1    0    0    0  501 -0.00000000000E+00  0.00000000000E+00  0.20179822054E+03  0.20179822054E+03  0.00000000000E+00 0.  1.
          2   -1    0    0  501    0  0.00000000000E+00 -0.00000000000E+00 -0.18055247545E+04  0.18055247545E+04  0.00000000000E+00 0. -1.
         23    2    1    2    0    0  0.17773507526E+03  0.45694017085E+02 -0.72924565622E+03  0.75739640716E+03  0.90401273705E+02 0.  0.
        254    2    1    2    0    0 -0.17773507526E+03 -0.45694017085E+02 -0.87448087775E+03  0.12499265679E+04  0.87402626928E+03 0.  0.
        -24    2    4    4    0    0  0.34354066667E+03  0.36452932128E+02 -0.28762512252E+03  0.45657575431E+03  0.79901204060E+02 0.  0.
         24    2    4    4    0    0 -0.52127574193E+03 -0.82146949213E+02 -0.58685575523E+03  0.79335081357E+03  0.80804180342E+02 0.  0.
         11    1    3    3    0    0  0.45639660193E+01  0.54930358494E+01 -0.36728510567E+00  0.71510927149E+01  0.00000000000E+00 0.  1.
        -11    1    3    3    0    0  0.17317110924E+03  0.40200981236E+02 -0.72887837111E+03  0.75024531444E+03  0.00000000000E+00 0. -1.
          2    1    6    6  502    0 -0.95685537095E+02  0.14035139752E+02 -0.90027172463E+02  0.13212720741E+03  0.00000000000E+00 0. -1.
          3    1    5    5  503    0  0.11891137527E+02 -0.13877663626E+02 -0.83581754957E+01  0.20095964695E+02  0.00000000000E+00 0. -1.
         -4    1    5    5    0  503  0.33164952914E+03  0.50330595754E+02 -0.27926694702E+03  0.43647978962E+03  0.00000000000E+00 0.  1.
         -1    1    6    6    0  502 -0.42559020483E+03 -0.96182088965E+02 -0.49682858277E+03  0.66122360616E+03  0.00000000000E+00 0.  1.
<mgrwt>
<rscale>  0 0.12072310E+04</rscale>
<asrwt>0</asrwt>
<pdfrwt beam="1">  1        2 0.27777305E+00 0.12072310E+04</pdfrwt>
<pdfrwt beam="2">  1       -2 0.31045879E-01 0.12072310E+04</pdfrwt>
<totfact> 0.81286994E+01</totfact>
</mgrwt>
</event>
<event>
12    1  0.1598876E-007  0.1670795E+04  0.7818608E-02  0.8778199E-01
         -1   -1    0    0    0  501 -0.00000000000E+00  0.00000000000E+00  0.67115899155E+03  0.67115899155E+03  0.00000000000E+00 0.  1.
          1   -1    0    0  501    0  0.00000000000E+00 -0.00000000000E+00 -0.10398267224E+04  0.10398267224E+04  0.00000000000E+00 0. -1.
         23    2    1    2    0    0 -0.23128843338E+03  0.28349227600E+03 -0.60295142854E+03  0.71121689692E+03  0.91743333980E+02 0.  0.
        254    2    1    2    0    0  0.23128843338E+03 -0.28349227600E+03  0.23428369766E+03  0.99976881705E+03  0.90043690872E+03 0.  0.
        -24    2    4    4    0    0 -0.10434030111E+03 -0.26470342619E+03 -0.26200775876E+03  0.39494153921E+03  0.79849555222E+02 0.  0.
         24    2    4    4    0    0  0.33562873449E+03 -0.18788849807E+02  0.49629145642E+03  0.60482727784E+03  0.80691746916E+02 0.  0.
         13    1    3    3    0    0 -0.29922721067E+02  0.13321859159E+02 -0.10485338659E+03  0.10985023371E+03  0.00000000000E+00 0. -1.
        -13    1    3    3    0    0 -0.20136571231E+03  0.27017041684E+03 -0.49809804195E+03  0.60136666321E+03  0.00000000000E+00 0.  1.
          4    1    6    6  502    0  0.10653613842E+03 -0.37963824092E+02  0.12938803649E+03  0.17185012282E+03  0.00000000000E+00 0. -1.
          3    1    5    5  503    0 -0.11611949147E+03 -0.21585863593E+03 -0.21240697896E+03  0.32433842158E+03  0.00000000000E+00 0. -1.
         -4    1    5    5    0  503  0.11779190365E+02 -0.48844790261E+02 -0.49600779802E+02  0.70603117624E+02  0.00000000000E+00 0.  1.
         -3    1    6    6    0  502  0.22909259607E+03  0.19174974286E+02  0.36690341993E+03  0.43297715502E+03  0.00000000000E+00 0.  1.
<mgrwt>
<rscale>  0 0.16707951E+04</rscale>
<asrwt>0</asrwt>
<pdfrwt beam="1">  1        1 0.15997334E+00 0.16707951E+04</pdfrwt>
<pdfrwt beam="2">  1       -1 0.10325523E+00 0.16707951E+04</pdfrwt>
<totfact> 0.11901076E+01</totfact>
</mgrwt>
</event>
<event>
12    1  0.1598876E-007  0.2635636E+04  0.7818608E-02  0.8356196E-01
         -1   -1    0    0    0  501 -0.00000000000E+00  0.00000000000E+00  0.54778951643E+03  0.54778951643E+03  0.00000000000E+00 0.  1.
          1   -1    0    0  501    0  0.00000000000E+00 -0.00000000000E+00 -0.31702754715E+04  0.31702754715E+04  0.00000000000E+00 0. -1.
         23    2    1    2    0    0 -0.68907986221E+03  0.24274196963E+03 -0.24606425178E+04  0.25684283250E+04  0.91146802772E+02 0.  0.
        254    2    1    2    0    0  0.68907986221E+03 -0.24274196963E+03 -0.16184343721E+03  0.11496366629E+04  0.87276367834E+03 0.  0.
        -24    2    4    4    0    0  0.57608230852E+03 -0.43707420174E+03 -0.38467805653E+03  0.82284092326E+03  0.78646638819E+02 0.  0.
         24    2    4    4    0    0  0.11299755369E+03  0.19433223211E+03  0.22283461932E+03  0.32679573965E+03  0.81281758784E+02 0.  0.
         11    1    3    3    0    0 -0.42025008167E+03  0.16989746015E+03 -0.16572728583E+04  0.17181468519E+04  0.00000000000E+00 0. -1.
        -11    1    3    3    0    0 -0.26882978055E+03  0.72844509484E+02 -0.80336965958E+03  0.85028147305E+03  0.00000000000E+00 0.  1.
          4    1    6    6  502    0  0.11973686482E+03  0.19679804207E+03  0.20824008634E+03  0.31053231670E+03  0.00000000000E+00 0. -1.
          1    1    5    5  503    0  0.44995891539E+03 -0.37976058530E+03 -0.31533949069E+03  0.66792224254E+03  0.00000000000E+00 0. -1.
         -2    1    5    5    0  503  0.12612339313E+03 -0.57313616440E+02 -0.69338565840E+02  0.15491868072E+03  0.00000000000E+00 0.  1.
         -3    1    6    6    0  502 -0.67393111260E+01 -0.24658099547E+01  0.14594532985E+02  0.16263422955E+02  0.00000000000E+00 0.  1.
<mgrwt>
<rscale>  0 0.26356355E+04</rscale>
<asrwt>0</asrwt>
<pdfrwt beam="1">  1        1 0.48773469E+00 0.26356355E+04</pdfrwt>
<pdfrwt beam="2">  1       -1 0.84275309E-01 0.26356355E+04</pdfrwt>
<totfact> 0.54783680E-01</totfact>
</mgrwt>
</event>
<event>
12    1  0.1598876E-007  0.2323261E+04  0.7818608E-02  0.8468806E-01
          2   -1    0    0  501    0  0.00000000000E+00  0.00000000000E+00  0.56639187756E+03  0.56639187756E+03  0.00000000000E+00 0. -1.
         -2   -1    0    0    0  501 -0.00000000000E+00 -0.00000000000E+00 -0.23824239987E+04  0.23824239987E+04  0.00000000000E+00 0.  1.
         23    2    1    2    0    0  0.47382051873E+03  0.63525922657E+03 -0.15172341673E+04  0.17144471466E+04  0.96277365726E+02 0.  0.
        254    2    1    2    0    0 -0.47382051873E+03 -0.63525922657E+03 -0.29879795382E+03  0.12343687296E+04  0.89795644361E+03 0.  0.
        -24    2    4    4    0    0 -0.12057848266E+03  0.15697286255E+03 -0.29403321164E+03  0.36321557355E+03  0.79311873425E+02 0.  0.
         24    2    4    4    0    0 -0.35324203607E+03 -0.79223208912E+03 -0.47647421790E+01  0.87115315609E+03  0.80458060630E+02 0.  0.
         13    1    3    3    0    0  0.40421990778E+02  0.18475359260E+02 -0.89273320004E+02  0.99724630371E+02  0.00000000000E+00 0. -1.
        -13    1    3    3    0    0  0.43339852795E+03  0.61678386731E+03 -0.14279608473E+04  0.16147225163E+04  0.00000000000E+00 0.  1.
          2    1    6    6  502    0 -0.54132619420E+02 -0.82901850204E+02 -0.20795987850E+02  0.10117079798E+03  0.00000000000E+00 0. -1.
          3    1    5    5  503    0  0.10930556365E+02  0.22851600571E+02 -0.37973965119E+02  0.45647505277E+02  0.00000000000E+00 0. -1.
         -4    1    5    5    0  503 -0.13150903902E+03  0.13412126198E+03 -0.25605924652E+03  0.31756806828E+03  0.00000000000E+00 0.  1.
         -1    1    6    6    0  502 -0.29910941665E+03 -0.70933023892E+03  0.16031245671E+02  0.76998235812E+03  0.00000000000E+00 0.  1.
<mgrwt>
<rscale>  0 0.23232612E+04</rscale>
<asrwt>0</asrwt>
<pdfrwt beam="1">  1        2 0.87137213E-01 0.23232612E+04</pdfrwt>
<pdfrwt beam="2">  1       -2 0.36652677E+00 0.23232612E+04</pdfrwt>
<totfact> 0.58843115E-01</totfact>
</mgrwt>
</event>
<event>
12    1  0.1598876E-007  0.1960919E+04  0.7818608E-02  0.8625113E-01
         -1   -1    0    0    0  501 -0.00000000000E+00  0.00000000000E+00  0.38878659735E+03  0.38878659735E+03  0.00000000000E+00 0.  1.
          1   -1    0    0  501    0  0.00000000000E+00 -0.00000000000E+00 -0.24725676333E+04  0.24725676333E+04  0.00000000000E+00 0. -1.
         23    2    1    2    0    0  0.57463786827E+03  0.37235002818E+03 -0.13776192921E+04  0.15410120813E+04  0.89610812015E+02 0.  0.
        254    2    1    2    0    0 -0.57463786827E+03 -0.37235002818E+03 -0.70616174388E+03  0.13203421494E+04  0.88078701158E+03 0.  0.
        -24    2    4    4    0    0  0.86211064978E+02 -0.29811308901E+03  0.33018515291E+02  0.32234495533E+03  0.80698737960E+02 0.  0.
         24    2    4    4    0    0 -0.66084893324E+03 -0.74236939170E+02 -0.73918025918E+03  0.99799719405E+03  0.85898242564E+02 0.  0.
         11    1    3    3    0    0  0.17976696822E+03  0.15501023986E+03 -0.41488229367E+03  0.47798708657E+03  0.00000000000E+00 0.  1.
        -11    1    3    3    0    0  0.39487090004E+03  0.21733978832E+03 -0.96273699839E+03  0.10630249947E+04  0.00000000000E+00 0. -1.
          4    1    6    6  502    0 -0.19356575973E+03  0.16122012929E+02 -0.19966785276E+03  0.27855856488E+03  0.00000000000E+00 0. -1.
          3    1    5    5  503    0  0.36856242029E+02 -0.19932372771E+03 -0.12072938976E+02  0.20306178090E+03  0.00000000000E+00 0. -1.
         -4    1    5    5    0  503  0.49354822949E+02 -0.98789361299E+02  0.45091454267E+02  0.11928317443E+03  0.00000000000E+00 0.  1.
         -3    1    6    6    0  502 -0.46728317351E+03 -0.90358952100E+02 -0.53951240641E+03  0.71943862917E+03  0.00000000000E+00 0.  1.
<mgrwt>
<rscale>  0 0.19609193E+04</rscale>
<asrwt>0</asrwt>
<pdfrwt beam="1">  1        1 0.38039502E+00 0.19609193E+04</pdfrwt>
<pdfrwt beam="2">  1       -1 0.59813323E-01 0.19609193E+04</pdfrwt>
<totfact> 0.37355115E+00</totfact>
</mgrwt>
</event>
<event>
12    1  0.1598876E-007  0.1864473E+04  0.7818608E-02  0.8672745E-01
         -2   -1    0    0    0  501 -0.00000000000E+00  0.00000000000E+00  0.45671013760E+03  0.45671013760E+03  0.00000000000E+00 0.  1.
          2   -1    0    0  501    0  0.00000000000E+00 -0.00000000000E+00 -0.19028814773E+04  0.19028814773E+04  0.00000000000E+00 0. -1.
         23    2    1    2    0    0 -0.21950272499E+03 -0.19998775971E+03 -0.13781855751E+04  0.14127321448E+04  0.90774904866E+02 0.  0.
        254    2    1    2    0    0  0.21950272499E+03  0.19998775971E+03 -0.67985764599E+02  0.94685947005E+03  0.89651784227E+03 0.  0.
        -24    2    4    4    0    0  0.31891330930E+03  0.11520927636E+02  0.34440518512E+03  0.47574773989E+03  0.76697782574E+02 0.  0.
         24    2    4    4    0    0 -0.99410584310E+02  0.18846683207E+03 -0.41239094972E+03  0.47111173015E+03  0.80484506632E+02 0.  0.
         11    1    3    3    0    0 -0.15858427991E+03 -0.18013240051E+03 -0.11893704726E+04  0.12133419867E+04  0.00000000000E+00 0. -1.
        -11    1    3    3    0    0 -0.60918445083E+02 -0.19855359198E+02 -0.18881510243E+03  0.19939015810E+03  0.00000000000E+00 0.  1.
          4    1    6    6  502    0 -0.47729013167E+02  0.16345294576E+03 -0.30304502604E+03  0.34760784224E+03  0.00000000000E+00 0. -1.
          1    1    5    5  503    0  0.17246508281E+03 -0.45660229805E+01  0.23825658809E+03  0.29416195390E+03  0.00000000000E+00 0. -1.
         -2    1    5    5    0  503  0.14644822649E+03  0.16086950616E+02  0.10614859703E+03  0.18158578600E+03  0.00000000000E+00 0.  1.
         -3    1    6    6    0  502 -0.51681571144E+02  0.25013886314E+02 -0.10934592368E+03  0.12350388791E+03  0.00000000000E+00 0.  1.
<mgrwt>
<rscale>  0 0.18644734E+04</rscale>
<asrwt>0</asrwt>
<pdfrwt beam="1">  1        2 0.29275099E+00 0.18644734E+04</pdfrwt>
<pdfrwt beam="2">  1       -2 0.70263099E-01 0.18644734E+04</pdfrwt>
<totfact> 0.13099780E+01</totfact>
</mgrwt>
</event>
<event>
12    1  0.1598876E-007  0.3334759E+04  0.7818608E-02  0.8154107E-01
          1   -1    0    0  501    0  0.00000000000E+00  0.00000000000E+00  0.26678020440E+04  0.26678020440E+04  0.00000000000E+00 0. -1.
         -1   -1    0    0    0  501 -0.00000000000E+00 -0.00000000000E+00 -0.10421143011E+04  0.10421143011E+04  0.00000000000E+00 0.  1.
         23    2    1    2    0    0  0.25220252701E+03 -0.92209883526E+02 -0.93860836158E+03  0.98045347117E+03  0.90523894300E+02 0.  0.
        254    2    1    2    0    0 -0.25220252701E+03  0.92209883526E+02  0.25642961045E+04  0.27294628739E+04  0.89568090916E+03 0.  0.
        -24    2    4    4    0    0 -0.13854948025E+03  0.38645612718E+02  0.25741285637E+04  0.25793709834E+04  0.79544740384E+02 0.  0.
         24    2    4    4    0    0 -0.11365304676E+03  0.53564270808E+02 -0.98324592044E+01  0.15009189046E+03  0.81515349369E+02 0.  0.
         11    1    3    3    0    0  0.20214796823E+02  0.11013532600E+02 -0.35354156804E+02  0.42188295939E+02  0.00000000000E+00 0. -1.
        -11    1    3    3    0    0  0.23198773019E+03 -0.10322341613E+03 -0.90325420478E+03  0.93826517523E+03  0.00000000000E+00 0.  1.
          2    1    6    6  502    0 -0.45754875866E+02 -0.11945308265E+01 -0.36865962826E+02  0.58771036953E+02  0.00000000000E+00 0. -1.
          1    1    5    5  503    0 -0.14785084716E+03  0.29644087448E+02  0.24238123178E+04  0.24284984654E+04  0.00000000000E+00 0. -1.
         -2    1    5    5    0  503  0.93013669099E+01  0.90015252698E+01  0.15031624594E+03  0.15087251797E+03  0.00000000000E+00 0.  1.
         -1    1    6    6    0  502 -0.67898170894E+02  0.54758801634E+02  0.27033503622E+02  0.91320853507E+02  0.00000000000E+00 0.  1.
<mgrwt>
<rscale>  0 0.33347592E+04</rscale>
<asrwt>0</asrwt>
<pdfrwt beam="1">  1        1 0.41043108E+00 0.33347592E+04</pdfrwt>
<pdfrwt beam="2">  1       -1 0.16032528E+00 0.33347592E+04</pdfrwt>
<totfact> 0.24845555E-01</totfact>
</mgrwt>
</event>
<event>
12    1  0.1598876E-007  0.2010311E+04  0.7818608E-02  0.8601815E-01
          2   -1    0    0  501    0  0.00000000000E+00  0.00000000000E+00  0.10050003835E+04  0.10050003835E+04  0.00000000000E+00 0. -1.
         -2   -1    0    0    0  501 -0.00000000000E+00 -0.00000000000E+00 -0.10053106700E+04  0.10053106700E+04  0.00000000000E+00 0.  1.
         23    2    1    2    0    0 -0.23568008165E+03  0.35990123277E+03 -0.70720294503E+03  0.83297106522E+03  0.92902054805E+02 0.  0.
        254    2    1    2    0    0  0.23568008165E+03 -0.35990123277E+03  0.70689265853E+03  0.11773399882E+04  0.83747132426E+03 0.  0.
        -24    2    4    4    0    0  0.38508740828E+03  0.11675002029E+03  0.18232105151E+03  0.44859963322E+03  0.77960155534E+02 0.  0.
         24    2    4    4    0    0 -0.14940732663E+03 -0.47665125306E+03  0.52457160702E+03  0.72874035501E+03  0.79800800956E+02 0.  0.
         11    1    3    3    0    0 -0.12163757531E+03  0.23075180262E+03 -0.49597005040E+03  0.56038235610E+03  0.00000000000E+00 0.  1.
        -11    1    3    3    0    0 -0.11404250634E+03  0.12914943015E+03 -0.21123289464E+03  0.27258870911E+03  0.00000000000E+00 0. -1.
          4    1    6    6  502    0 -0.10869664485E+03 -0.26632679293E+03  0.34513898486E+03  0.44929482537E+03  0.00000000000E+00 0. -1.
          1    1    5    5  503    0  0.36373559389E+03  0.10414620166E+03  0.14802005155E+03  0.40627570595E+03  0.00000000000E+00 0. -1.
         -2    1    5    5    0  503  0.21351814387E+02  0.12603818629E+02  0.34300999956E+02  0.42323927271E+02  0.00000000000E+00 0.  1.
         -3    1    6    6    0  502 -0.40710681777E+02 -0.21032446013E+03  0.17943262216E+03  0.27944552964E+03  0.00000000000E+00 0.  1.
<mgrwt>
<rscale>  0 0.20103110E+04</rscale>
<asrwt>0</asrwt>
<pdfrwt beam="1">  1        2 0.15461544E+00 0.20103110E+04</pdfrwt>
<pdfrwt beam="2">  1       -2 0.15466318E+00 0.20103110E+04</pdfrwt>
<totfact> 0.64080869E+00</totfact>
</mgrwt>
</event>
<event>
12    1  0.1598876E-007  0.1353746E+04  0.7818608E-02  0.8987997E-01
          2   -1    0    0  501    0  0.00000000000E+00  0.00000000000E+00  0.39338751943E+03  0.39338751943E+03  0.00000000000E+00 0. -1.
         -2   -1    0    0    0  501 -0.00000000000E+00 -0.00000000000E+00 -0.11646452495E+04  0.11646452495E+04  0.00000000000E+00 0.  1.
         23    2    1    2    0    0 -0.23014974734E+03  0.29816981883E+03 -0.20024887008E+03  0.43617775633E+03  0.90979547659E+02 0.  0.
        254    2    1    2    0    0  0.23014974734E+03 -0.29816981883E+03 -0.57100886002E+03  0.11218550126E+04  0.88917568798E+03 0.  0.
        -24    2    4    4    0    0 -0.48603273563E+02 -0.44103827654E+03  0.16260302567E+02  0.45148923061E+03  0.81860175593E+02 0.  0.
         24    2    4    4    0    0  0.27875302091E+03  0.14286845771E+03 -0.58726916259E+03  0.67036578202E+03  0.79941037661E+02 0.  0.
         13    1    3    3    0    0 -0.23691598407E+03  0.29136200761E+03 -0.18618046695E+03  0.41914695425E+03  0.00000000000E+00 0. -1.
        -13    1    3    3    0    0  0.67662367241E+01  0.68078112206E+01 -0.14068403133E+02  0.17030802088E+02  0.00000000000E+00 0.  1.
          2    1    6    6  502    0  0.13279471520E+03  0.24471589656E+02 -0.23134498674E+03  0.26786899406E+03  0.00000000000E+00 0. -1.
          3    1    5    5  503    0 -0.33526433892E+02 -0.41888076851E+03  0.30155209943E+02  0.42130090990E+03  0.00000000000E+00 0. -1.
         -4    1    5    5    0  503 -0.15076839671E+02 -0.22157508029E+02 -0.13894907376E+02  0.30188320713E+02  0.00000000000E+00 0.  1.
         -1    1    6    6    0  502  0.14595830571E+03  0.11839686806E+03 -0.35592417585E+03  0.40249678797E+03  0.00000000000E+00 0.  1.
<mgrwt>
<rscale>  0 0.13537458E+04</rscale>
<asrwt>0</asrwt>
<pdfrwt beam="1">  1        2 0.60521158E-01 0.13537458E+04</pdfrwt>
<pdfrwt beam="2">  1       -2 0.17917619E+00 0.13537458E+04</pdfrwt>
<totfact> 0.14520510E+01</totfact>
</mgrwt>
</event>
<event>
12    1  0.1598876E-007  0.1947001E+04  0.7818608E-02  0.8631808E-01
         -1   -1    0    0    0  501 -0.00000000000E+00  0.00000000000E+00  0.31579537431E+03  0.31579537431E+03  0.00000000000E+00 0.  1.
          1   -1    0    0  501    0  0.00000000000E+00 -0.00000000000E+00 -0.30010045397E+04  0.30010045397E+04  0.00000000000E+00 0. -1.
         23    2    1    2    0    0  0.15013941666E+03 -0.23737348013E+03 -0.22751304167E+04  0.22942651396E+04  0.92445140651E+02 0.  0.
        254    2    1    2    0    0 -0.15013941666E+03  0.23737348013E+03 -0.41007874866E+03  0.10225347744E+04  0.89360213256E+03 0.  0.
        -24    2    4    4    0    0 -0.44391788795E+03  0.38191660380E+03 -0.33287453058E+03  0.67721103032E+03  0.69899520623E+02 0.  0.
         24    2    4    4    0    0  0.29377847129E+03 -0.14454312367E+03 -0.77204218084E+02  0.34532374411E+03  0.78035198212E+02 0.  0.
         13    1    3    3    0    0  0.19365354157E+02 -0.10177750972E+03 -0.98894949433E+03  0.99436149401E+03  0.00000000000E+00 0. -1.
        -13    1    3    3    0    0  0.13077406250E+03 -0.13559597041E+03 -0.12861809224E+04  0.12999036456E+04  0.00000000000E+00 0.  1.
          2    1    6    6  502    0  0.35456774127E+02 -0.18257170211E+02  0.16125867727E+02  0.43018027681E+02  0.00000000000E+00 0. -1.
          3    1    5    5  503    0 -0.70371907927E+02  0.42220824230E+02 -0.70568343229E+02  0.10823444225E+03  0.00000000000E+00 0. -1.
         -4    1    5    5    0  503 -0.37354598002E+03  0.33969577957E+03 -0.26230618735E+03  0.56897658807E+03  0.00000000000E+00 0.  1.
         -1    1    6    6    0  502  0.25832169716E+03 -0.12628595346E+03 -0.93330085810E+02  0.30230571643E+03  0.00000000000E+00 0.  1.
<mgrwt>
<rscale>  0 0.19470011E+04</rscale>
<asrwt>0</asrwt>
<pdfrwt beam="1">  1        1 0.46169301E+00 0.19470011E+04</pdfrwt>
<pdfrwt beam="2">  1       -1 0.48583903E-01 0.19470011E+04</pdfrwt>
<totfact> 0.23625670E+00</totfact>
</mgrwt>
</event>
<event>
12    1  0.1598876E-007  0.1635268E+04  0.7818608E-02  0.8799170E-01
         -3   -1    0    0    0  501 -0.00000000000E+00  0.00000000000E+00  0.19020285989E+04  0.19020285989E+04  0.00000000000E+00 0.  1.
          3   -1    0    0  501    0  0.00000000000E+00 -0.00000000000E+00 -0.35148024446E+03  0.35148024446E+03  0.00000000000E+00 0. -1.
         23    2    1    2    0    0 -0.14204827432E+03 -0.32437358332E+03  0.11312438148E+04  0.11890442552E+04  0.93368831095E+02 0.  0.
        254    2    1    2    0    0  0.14204827432E+03  0.32437358332E+03  0.41930453964E+03  0.10644645881E+04  0.91207051733E+03 0.  0.
        -24    2    4    4    0    0  0.44024620184E+03  0.18739830703E+02 -0.16795350935E+02  0.44858840707E+03  0.82350322708E+02 0.  0.
         24    2    4    4    0    0 -0.29819792753E+03  0.30563375262E+03  0.43609989057E+03  0.61587618104E+03  0.82379372989E+02 0.  0.
         11    1    3    3    0    0 -0.78681069135E+02 -0.14374796041E+03  0.66806666479E+03  0.68787153987E+03  0.00000000000E+00 0. -1.
        -11    1    3    3    0    0 -0.63367205182E+02 -0.18062562291E+03  0.46317714999E+03  0.50117271536E+03  0.00000000000E+00 0.  1.
          4    1    6    6  502    0 -0.89624205424E+00  0.23173907145E+02  0.36826822805E+02  0.43520662910E+02  0.00000000000E+00 0. -1.
          3    1    5    5  503    0  0.20194547689E+01 -0.34315187718E+01 -0.88777310299E+01  0.97297290242E+01  0.00000000000E+00 0. -1.
         -4    1    5    5    0  503  0.43822674708E+03  0.22171349475E+02 -0.79176199047E+01  0.43885867804E+03  0.00000000000E+00 0.  1.
         -3    1    6    6    0  502 -0.29730168547E+03  0.28245984547E+03  0.39927306777E+03  0.57235551813E+03  0.00000000000E+00 0.  1.
<mgrwt>
<rscale>  0 0.16352681E+04</rscale>
<asrwt>0</asrwt>
<pdfrwt beam="1">  1        3 0.54073885E-01 0.16352681E+04</pdfrwt>
<pdfrwt beam="2">  1       -3 0.29261978E+00 0.16352681E+04</pdfrwt>
<totfact> 0.35436531E-01</totfact>
</mgrwt>
</event>
<event>
12    1  0.1598876E-007  0.3376191E+04  0.7818608E-02  0.8143775E-01
         -2   -1    0    0    0  501 -0.00000000000E+00  0.00000000000E+00  0.10721398107E+04  0.10721398107E+04  0.00000000000E+00 0.  1.
          2   -1    0    0  501    0  0.00000000000E+00 -0.00000000000E+00 -0.26579245270E+04  0.26579245270E+04  0.00000000000E+00 0. -1.
         23    2    1    2    0    0  0.16426528313E+03 -0.15353640715E+04 -0.67879858583E+03  0.16892804871E+04  0.92601990131E+02 0.  0.
        254    2    1    2    0    0 -0.16426528313E+03  0.15353640715E+04 -0.90698613057E+03  0.20407838506E+04  0.97869758783E+03 0.  0.
        -24    2    4    4    0    0 -0.53799698494E+03  0.75434273513E+03 -0.28831909058E+03  0.97365362492E+03  0.79998534214E+02 0.  0.
         24    2    4    4    0    0  0.37373170181E+03  0.78102133641E+03 -0.61866703999E+03  0.10671302257E+04  0.79676215633E+02 0.  0.
         11    1    3    3    0    0  0.14715944953E+03 -0.13390358142E+04 -0.62482576498E+03  0.14849511951E+04  0.00000000000E+00 0. -1.
        -11    1    3    3    0    0  0.17105833599E+02 -0.19632825737E+03 -0.53972820844E+02  0.20432929202E+03  0.00000000000E+00 0.  1.
          2    1    6    6  502    0  0.43179604108E+01  0.51764751974E+02 -0.33945833555E+02  0.62052831884E+02  0.00000000000E+00 0. -1.
          1    1    5    5  503    0 -0.28392799059E+03  0.46376470766E+03 -0.15814401745E+03  0.56630586980E+03  0.00000000000E+00 0. -1.
         -4    1    5    5    0  503 -0.25406899435E+03  0.29057802747E+03 -0.13017507313E+03  0.40734775512E+03  0.00000000000E+00 0.  1.
         -1    1    6    6    0  502  0.36941374140E+03  0.72925658443E+03 -0.58472120643E+03  0.10050773938E+04  0.00000000000E+00 0.  1.
<mgrwt>
<rscale>  0 0.33761912E+04</rscale>
<asrwt>0</asrwt>
<pdfrwt beam="1">  1        2 0.40891147E+00 0.33761912E+04</pdfrwt>
<pdfrwt beam="2">  1       -2 0.16494459E+00 0.33761912E+04</pdfrwt>
<totfact> 0.54089683E-01</totfact>
</mgrwt>
</event>
<event>
12    1  0.1598876E-007  0.1853358E+04  0.7818608E-02  0.8678428E-01
         -2   -1    0    0    0  501 -0.00000000000E+00  0.00000000000E+00  0.93404982681E+03  0.93404982681E+03  0.00000000000E+00 0.  1.
          2   -1    0    0  501    0  0.00000000000E+00 -0.00000000000E+00 -0.91936681819E+03  0.91936681819E+03  0.00000000000E+00 0. -1.
         23    2    1    2    0    0  0.15500727051E+03  0.59781238663E+03 -0.10783567549E+03  0.63377479241E+03  0.92924975457E+02 0.  0.
        254    2    1    2    0    0 -0.15500727051E+03 -0.59781238663E+03  0.12251868411E+03  0.12196418526E+04  0.10445613994E+04 0.  0.
        -24    2    4    4    0    0 -0.38042846147E+03  0.87712548683E+02  0.26637659249E+03  0.47928365956E+03  0.79605475969E+02 0.  0.
         24    2    4    4    0    0  0.22542119096E+03 -0.68552493531E+03 -0.14385790838E+03  0.74035819304E+03  0.81706829161E+02 0.  0.
         11    1    3    3    0    0  0.92537882136E+02  0.32757412819E+03 -0.10561142997E+03  0.35640123909E+03  0.00000000000E+00 0. -1.
        -11    1    3    3    0    0  0.62469388376E+02  0.27023825844E+03 -0.22242455245E+01  0.27737355331E+03  0.00000000000E+00 0.  1.
          4    1    6    6  502    0  0.15509995221E+03 -0.53760860690E+03 -0.13882652302E+03  0.57649962089E+03  0.00000000000E+00 0. -1.
          1    1    5    5  503    0 -0.22827724733E+03  0.34291798759E+02  0.19802564766E+03  0.30413909029E+03  0.00000000000E+00 0. -1.
         -2    1    5    5    0  503 -0.15215121414E+03  0.53420749924E+02  0.68350944829E+02  0.17514456927E+03  0.00000000000E+00 0.  1.
         -3    1    6    6    0  502  0.70321238742E+02 -0.14791632841E+03 -0.50313853590E+01  0.16385857215E+03  0.00000000000E+00 0.  1.
<mgrwt>
<rscale>  0 0.18533585E+04</rscale>
<asrwt>0</asrwt>
<pdfrwt beam="1">  1        2 0.14144105E+00 0.18533585E+04</pdfrwt>
<pdfrwt beam="2">  1       -2 0.14369997E+00 0.18533585E+04</pdfrwt>
<totfact> 0.89727309E+00</totfact>
</mgrwt>
</event>
<event>
12    1  0.1598876E-007  0.1362030E+04  0.7818608E-02  0.8981771E-01
         -2   -1    0    0    0  501 -0.00000000000E+00  0.00000000000E+00  0.37915548147E+03  0.37915548147E+03  0.00000000000E+00 0.  1.
          2   -1    0    0  501    0  0.00000000000E+00 -0.00000000000E+00 -0.12231964570E+04  0.12231964570E+04  0.00000000000E+00 0. -1.
         23    2    1    2    0    0  0.25752215213E+03  0.20608196784E+03 -0.27470295163E+02  0.34237894528E+03  0.87642961762E+02 0.  0.
        254    2    1    2    0    0 -0.25752215213E+03 -0.20608196784E+03 -0.81657068037E+03  0.12599729932E+04  0.90108647267E+03 0.  0.
        -24    2    4    4    0    0  0.56088353339E+02  0.21714587959E+03 -0.66449372932E+03  0.70606317514E+03  0.81701007249E+02 0.  0.
         24    2    4    4    0    0 -0.31361050547E+03 -0.42322784743E+03 -0.15207695105E+03  0.55390981805E+03  0.78837348432E+02 0.  0.
         13    1    3    3    0    0  0.50659648035E+02  0.86173330438E+02  0.95933705362E+01  0.10042049381E+03  0.00000000000E+00 0. -1.
        -13    1    3    3    0    0  0.20686250410E+03  0.11990863741E+03 -0.37063665700E+02  0.24195845147E+03  0.00000000000E+00 0.  1.
          4    1    6    6  502    0 -0.27105314380E+03 -0.40071759934E+03 -0.14631042357E+03  0.50542174590E+03  0.00000000000E+00 0. -1.
          1    1    5    5  503    0  0.30222590490E+02  0.20569318363E+03 -0.54606954120E+03  0.58430731178E+03  0.00000000000E+00 0. -1.
         -2    1    5    5    0  503  0.25865762848E+02  0.11452695955E+02 -0.11842418812E+03  0.12175586336E+03  0.00000000000E+00 0.  1.
         -3    1    6    6    0  502 -0.42557361672E+02 -0.22510248093E+02 -0.57665274819E+01  0.48488072151E+02  0.00000000000E+00 0.  1.
<mgrwt>
<rscale>  0 0.13620303E+04</rscale>
<asrwt>0</asrwt>
<pdfrwt beam="1">  1        2 0.18818407E+00 0.13620303E+04</pdfrwt>
<pdfrwt beam="2">  1       -2 0.58331612E-01 0.13620303E+04</pdfrwt>
<totfact> 0.49216141E+01</totfact>
</mgrwt>
</event>
<event>
12    1  0.1598876E-007  0.1330691E+04  0.7818608E-02  0.9005575E-01
          1   -1    0    0  501    0  0.00000000000E+00  0.00000000000E+00  0.36111394042E+03  0.36111394042E+03  0.00000000000E+00 0. -1.
         -1   -1    0    0    0  501 -0.00000000000E+00 -0.00000000000E+00 -0.12258857228E+04  0.12258857228E+04  0.00000000000E+00 0.  1.
         23    2    1    2    0    0 -0.29517984660E+03  0.10303517174E+03 -0.43916876518E+03  0.54696364516E+03  0.92480464797E+02 0.  0.
        254    2    1    2    0    0  0.29517984660E+03 -0.10303517174E+03 -0.42560301720E+03  0.10400360180E+04  0.89598526893E+03 0.  0.
        -24    2    4    4    0    0  0.14180015869E+03  0.25291118612E+03 -0.54934525939E+03  0.62509065611E+03  0.69905373670E+02 0.  0.
         24    2    4    4    0    0  0.15337968790E+03 -0.35594635786E+03  0.12374224219E+03  0.41494536194E+03  0.81513020801E+02 0.  0.
         13    1    3    3    0    0 -0.46561545758E+01  0.13081390958E+02 -0.14518646658E+01  0.13961034197E+02  0.00000000000E+00 0. -1.
        -13    1    3    3    0    0 -0.29052369202E+03  0.89953780782E+02 -0.43771690051E+03  0.53300261097E+03  0.00000000000E+00 0.  1.
          4    1    6    6  502    0  0.99016810914E+01 -0.65867349684E+02  0.49308996183E+02  0.82872963911E+02  0.00000000000E+00 0. -1.
          1    1    5    5  503    0  0.80625009048E+02  0.79021104349E+02 -0.23428732571E+03  0.26006783347E+03  0.00000000000E+00 0. -1.
         -2    1    5    5    0  503  0.61175149645E+02  0.17389008177E+03 -0.31505793368E+03  0.36502282264E+03  0.00000000000E+00 0.  1.
         -3    1    6    6    0  502  0.14347800681E+03 -0.29007900818E+03  0.74433246008E+02  0.33207239803E+03  0.00000000000E+00 0.  1.
<mgrwt>
<rscale>  0 0.13306907E+04</rscale>
<asrwt>0</asrwt>
<pdfrwt beam="1">  1        1 0.55555990E-01 0.13306907E+04</pdfrwt>
<pdfrwt beam="2">  1       -1 0.18859781E+00 0.13306907E+04</pdfrwt>
<totfact> 0.12176376E+01</totfact>
</mgrwt>
</event>
<event>
12    1  0.1598876E-007  0.1674538E+04  0.7818608E-02  0.8776021E-01
         -2   -1    0    0    0  501 -0.00000000000E+00  0.00000000000E+00  0.32253747845E+03  0.32253747845E+03  0.00000000000E+00 0.  1.
          2   -1    0    0  501    0  0.00000000000E+00 -0.00000000000E+00 -0.21734521055E+04  0.21734521055E+04  0.00000000000E+00 0. -1.
         23    2    1    2    0    0 -0.15110723835E+03 -0.45315994553E+03 -0.14570408551E+03  0.50760826458E+03  0.90824754411E+02 0.  0.
        254    2    1    2    0    0  0.15110723835E+03  0.45315994553E+03 -0.17052105416E+04  0.19883813194E+04  0.90428421780E+03 0.  0.
        -24    2    4    4    0    0  0.21055477857E+03  0.12337334705E+01 -0.14342585124E+04  0.14519333287E+04  0.81719481505E+02 0.  0.
         24    2    4    4    0    0 -0.59447540223E+02  0.45192621206E+03 -0.27095202914E+03  0.53644799070E+03  0.81179636841E+02 0.  0.
         13    1    3    3    0    0 -0.61157181036E+02 -0.19364673910E+03 -0.10908309825E+03  0.23051764072E+03  0.00000000000E+00 0.  1.
        -13    1    3    3    0    0 -0.89950057314E+02 -0.25951320643E+03 -0.36620987258E+02  0.27709062386E+03  0.00000000000E+00 0. -1.
          4    1    6    6  502    0 -0.77949294438E+02  0.34635859453E+03 -0.22113234645E+03  0.41825815372E+03  0.00000000000E+00 0. -1.
          1    1    5    5  503    0  0.31770961599E+02 -0.18593800226E+02 -0.12288556731E+03  0.12828088735E+03  0.00000000000E+00 0. -1.
         -2    1    5    5    0  503  0.17878381697E+03  0.19827533696E+02 -0.13113729451E+04  0.13236524414E+04  0.00000000000E+00 0.  1.
         -3    1    6    6    0  502  0.18501754215E+02  0.10556761753E+03 -0.49819682695E+02  0.11818983698E+03  0.00000000000E+00 0.  1.
<mgrwt>
<rscale>  0 0.16745385E+04</rscale>
<asrwt>0</asrwt>
<pdfrwt beam="1">  1        2 0.33437726E+00 0.16745385E+04</pdfrwt>
<pdfrwt beam="2">  1       -2 0.49621148E-01 0.16745385E+04</pdfrwt>
<totfact> 0.19594697E+01</totfact>
</mgrwt>
</event>
<event>
12    1  0.1598876E-007  0.2192240E+04  0.7818608E-02  0.8521665E-01
         -2   -1    0    0    0  501 -0.00000000000E+00  0.00000000000E+00  0.69463038678E+03  0.69463038678E+03  0.00000000000E+00 0.  1.
          2   -1    0    0  501    0  0.00000000000E+00 -0.00000000000E+00 -0.17296666072E+04  0.17296666072E+04  0.00000000000E+00 0. -1.
         23    2    1    2    0    0 -0.33137227732E+03 -0.50696402021E+03  0.31710359761E+03  0.69025226624E+03  0.95254372443E+02 0.  0.
        254    2    1    2    0    0  0.33137227732E+03  0.50696402021E+03 -0.13521398180E+04  0.17340447277E+04  0.90100439864E+03 0.  0.
        -24    2    4    4    0    0 -0.11315130194E+03  0.56024340042E+01 -0.92393780317E+03  0.93484158458E+03  0.86215542295E+02 0.  0.
         24    2    4    4    0    0  0.44452357925E+03  0.50136158621E+03 -0.42820201485E+03  0.79920314316E+03  0.80025282736E+02 0.  0.
         11    1    3    3    0    0 -0.31604486381E+03 -0.49358613129E+03  0.32281715218E+03  0.66912072056E+03  0.00000000000E+00 0.  1.
        -11    1    3    3    0    0 -0.15327413505E+02 -0.13377888925E+02 -0.57135545766E+01  0.21131545678E+02  0.00000000000E+00 0. -1.
          4    1    6    6  502    0  0.11093274459E+03  0.97546771732E+02 -0.12817147648E+03  0.19557447145E+03  0.00000000000E+00 0. -1.
          3    1    5    5  503    0 -0.11617901207E+03 -0.16284828914E+02 -0.83496213817E+03  0.84316340686E+03  0.00000000000E+00 0. -1.
         -4    1    5    5    0  503  0.30277101322E+01  0.21887262919E+02 -0.88975665005E+02  0.91678177719E+02  0.00000000000E+00 0.  1.
         -1    1    6    6    0  502  0.33359083466E+03  0.40381481448E+03 -0.30003053837E+03  0.60362867171E+03  0.00000000000E+00 0.  1.
<mgrwt>
<rscale>  0 0.21922399E+04</rscale>
<asrwt>0</asrwt>
<pdfrwt beam="1">  1        2 0.26610255E+00 0.21922399E+04</pdfrwt>
<pdfrwt beam="2">  1       -2 0.10686621E+00 0.21922399E+04</pdfrwt>
<totfact> 0.60843550E+00</totfact>
</mgrwt>
</event>
<event>
12    1  0.1598876E-007  0.1038980E+04  0.7818608E-02  0.9266796E-01
         -1   -1    0    0    0  501 -0.00000000000E+00  0.00000000000E+00  0.20669490088E+03  0.20669490088E+03  0.00000000000E+00 0.  1.
          1   -1    0    0  501    0  0.00000000000E+00 -0.00000000000E+00 -0.13056440846E+04  0.13056440846E+04  0.00000000000E+00 0. -1.
         23    2    1    2    0    0  0.11630000839E+02 -0.87033352155E+01 -0.27907944751E+03  0.29401138787E+03  0.91358377909E+02 0.  0.
        254    2    1    2    0    0 -0.11630000839E+02  0.87033352155E+01 -0.81986973622E+03  0.12183275976E+04  0.90106866875E+03 0.  0.
        -24    2    4    4    0    0  0.25643183427E+03 -0.17019712324E+03  0.16449041169E+02  0.31836339414E+03  0.79751698355E+02 0.  0.
         24    2    4    4    0    0 -0.26806183511E+03  0.17890045845E+03 -0.83631877739E+03  0.89996420348E+03  0.81510420508E+02 0.  0.
         13    1    3    3    0    0  0.22494819029E+02 -0.44640435487E+02 -0.11017603075E+03  0.12098571451E+03  0.00000000000E+00 0. -1.
        -13    1    3    3    0    0 -0.10864818190E+02  0.35937100272E+02 -0.16890341675E+03  0.17302567336E+03  0.00000000000E+00 0.  1.
          4    1    6    6  502    0 -0.19694429148E+03  0.14602870690E+03 -0.53292764602E+03  0.58662024605E+03  0.00000000000E+00 0. -1.
          1    1    5    5  503    0  0.25175771904E+03 -0.14153063741E+03  0.12880443226E+02  0.28909994161E+03  0.00000000000E+00 0. -1.
         -2    1    5    5    0  503  0.46741152325E+01 -0.28666485832E+02  0.35685979428E+01  0.29263452538E+02  0.00000000000E+00 0.  1.
         -3    1    6    6    0  502 -0.71117543625E+02  0.32871751558E+02 -0.30339113138E+03  0.31334395743E+03  0.00000000000E+00 0.  1.
<mgrwt>
<rscale>  0 0.10389802E+04</rscale>
<asrwt>0</asrwt>
<pdfrwt beam="1">  1        1 0.20086832E+00 0.10389802E+04</pdfrwt>
<pdfrwt beam="2">  1       -1 0.31799215E-01 0.10389802E+04</pdfrwt>
<totfact> 0.82472144E+01</totfact>
</mgrwt>
</event>
<event>
12    1  0.1598876E-007  0.3621733E+04  0.7818608E-02  0.8085532E-01
         -1   -1    0    0    0  501 -0.00000000000E+00  0.00000000000E+00  0.21212728793E+04  0.21212728793E+04  0.00000000000E+00 0.  1.
          1   -1    0    0  501    0  0.00000000000E+00 -0.00000000000E+00 -0.15458817180E+04  0.15458817180E+04  0.00000000000E+00 0. -1.
         23    2    1    2    0    0 -0.94286261766E+03 -0.11854810647E+04 -0.41949865657E+03  0.15743492204E+04  0.90780363865E+02 0.  0.
        254    2    1    2    0    0  0.94286261766E+03  0.11854810647E+04  0.99488981786E+03  0.20928053769E+04  0.10467441547E+04 0.  0.
        -24    2    4    4    0    0  0.76439107853E+03  0.42546248915E+03  0.96849948948E+03  0.13075105243E+04  0.79249349485E+02 0.  0.
         24    2    4    4    0    0  0.17847153913E+03  0.76001857556E+03  0.26390328385E+02  0.78529485260E+03  0.80692196751E+02 0.  0.
         11    1    3    3    0    0 -0.89645355258E+03 -0.10993296146E+04 -0.37761254719E+03  0.14679052453E+04  0.00000000000E+00 0. -1.
        -11    1    3    3    0    0 -0.46409065078E+02 -0.86151450116E+02 -0.41886109386E+02  0.10644397511E+03  0.00000000000E+00 0.  1.
          4    1    6    6  502    0  0.13753457382E+03  0.55782346648E+03 -0.15719644863E+02  0.57474332183E+03  0.00000000000E+00 0. -1.
          3    1    5    5  503    0  0.63064854155E+03  0.37865626962E+03  0.78699836567E+03  0.10772486162E+04  0.00000000000E+00 0. -1.
         -4    1    5    5    0  503  0.13374253698E+03  0.46806219531E+02  0.18150112381E+03  0.23026190812E+03  0.00000000000E+00 0.  1.
         -3    1    6    6    0  502  0.40936965313E+02  0.20219510908E+03  0.42109973247E+02  0.21055153078E+03  0.00000000000E+00 0.  1.
<mgrwt>
<rscale>  0 0.36217327E+04</rscale>
<asrwt>0</asrwt>
<pdfrwt beam="1">  1        1 0.23782796E+00 0.36217327E+04</pdfrwt>
<pdfrwt beam="2">  1       -1 0.32634967E+00 0.36217327E+04</pdfrwt>
<totfact> 0.10919459E-01</totfact>
</mgrwt>
</event>
<event>
12    1  0.1598876E-007  0.2211264E+04  0.7818608E-02  0.8513755E-01
          2   -1    0    0  501    0  0.00000000000E+00  0.00000000000E+00  0.13706331288E+04  0.13706331288E+04  0.00000000000E+00 0.  1.
         -2   -1    0    0    0  501 -0.00000000000E+00 -0.00000000000E+00 -0.89186641075E+03  0.89186641075E+03  0.00000000000E+00 0. -1.
         23    2    1    2    0    0  0.42766262041E+03 -0.51757857710E+03  0.84043950174E+03  0.10794180610E+04  0.89565026206E+02 0.  0.
        254    2    1    2    0    0 -0.42766262041E+03  0.51757857710E+03 -0.36167278366E+03  0.11830814786E+04  0.90448420781E+03 0.  0.
        -24    2    4    4    0    0 -0.56899679142E+03  0.61060665251E+03 -0.75114389439E+02  0.84144226421E+03  0.76059711857E+02 0.  0.
         24    2    4    4    0    0  0.14133417101E+03 -0.93028075406E+02 -0.28655839422E+03  0.34163921439E+03  0.77279161455E+02 0.  0.
         11    1    3    3    0    0  0.33112943351E+03 -0.44492092569E+03  0.71970293424E+03  0.90861083275E+03  0.00000000000E+00 0. -1.
        -11    1    3    3    0    0  0.96533186898E+02 -0.72657651409E+02  0.12073656750E+03  0.17080722822E+03  0.00000000000E+00 0.  1.
          2    1    6    6  502    0  0.70601575805E+02 -0.21133680829E+01 -0.11654059902E+03  0.13627457596E+03  0.00000000000E+00 0. -1.
          1    1    5    5  503    0 -0.49179814790E+03  0.49501601934E+03 -0.79995992018E+02  0.70235720002E+03  0.00000000000E+00 0. -1.
         -2    1    5    5    0  503 -0.77198643517E+02  0.11559063316E+03  0.48816025788E+01  0.13908506419E+03  0.00000000000E+00 0.  1.
         -1    1    6    6    0  502  0.70732595208E+02 -0.90914707324E+02 -0.17001779520E+03  0.20536463843E+03  0.00000000000E+00 0.  1.
<mgrwt>
<rscale>  0 0.22112636E+04</rscale>
<asrwt>0</asrwt>
<pdfrwt beam="1">  1        2 0.21086664E+00 0.22112636E+04</pdfrwt>
<pdfrwt beam="2">  1       -2 0.13721022E+00 0.22112636E+04</pdfrwt>
<totfact> 0.51994499E+00</totfact>
</mgrwt>
</event>
<event>
12    1  0.1598876E-007  0.1496764E+04  0.7818608E-02  0.8886607E-01
         -1   -1    0    0    0  501 -0.00000000000E+00  0.00000000000E+00  0.16852119302E+04  0.16852119302E+04  0.00000000000E+00 0.  1.
          1   -1    0    0  501    0  0.00000000000E+00 -0.00000000000E+00 -0.33234740803E+03  0.33234740803E+03  0.00000000000E+00 0. -1.
         23    2    1    2    0    0 -0.12213979639E+03  0.49715601619E+02 -0.17544748092E+03  0.23880679513E+03  0.94112145495E+02 0.  0.
        254    2    1    2    0    0  0.12213979639E+03 -0.49715601619E+02  0.15283120031E+04  0.17787525431E+04  0.90046280318E+03 0.  0.
        -24    2    4    4    0    0 -0.13977463207E+03 -0.40387325634E+03  0.97091458202E+03  0.10637615580E+04  0.79138939987E+02 0.  0.
         24    2    4    4    0    0  0.26191442846E+03  0.35415765472E+03  0.55739742106E+03  0.71499098506E+03  0.80581706807E+02 0.  0.
         13    1    3    3    0    0 -0.11222171225E+03  0.39006487203E+02 -0.82314241596E+02  0.14453668432E+03  0.00000000000E+00 0.  1.
        -13    1    3    3    0    0 -0.99180841443E+01  0.10709114416E+02 -0.93133239328E+02  0.94270110812E+02  0.00000000000E+00 0. -1.
          4    1    6    6  502    0  0.22708890374E+03  0.29606357191E+03  0.41998559200E+03  0.56179258299E+03  0.00000000000E+00 0. -1.
          3    1    5    5  503    0 -0.99935426966E+02 -0.36235665860E+03  0.81293992428E+03  0.89563427697E+03  0.00000000000E+00 0. -1.
         -2    1    5    5    0  503 -0.39839205103E+02 -0.41516597741E+02  0.15797465774E+03  0.16812728107E+03  0.00000000000E+00 0.  1.
         -3    1    6    6    0  502  0.34825524719E+02  0.58094082815E+02  0.13741182906E+03  0.15319840207E+03  0.00000000000E+00 0.  1.
<mgrwt>
<rscale>  0 0.14967643E+04</rscale>
<asrwt>0</asrwt>
<pdfrwt beam="1">  1        1 0.51130371E-01 0.14967643E+04</pdfrwt>
<pdfrwt beam="2">  1       -1 0.25926337E+00 0.14967643E+04</pdfrwt>
<totfact> 0.45046937E+00</totfact>
</mgrwt>
</event>
<event>
12    1  0.1598876E-007  0.1459240E+04  0.7818608E-02  0.8912019E-01
         -2   -1    0    0    0  501 -0.00000000000E+00  0.00000000000E+00  0.22321699859E+03  0.22321699859E+03  0.00000000000E+00 0.  1.
          2   -1    0    0  501    0  0.00000000000E+00 -0.00000000000E+00 -0.23848789798E+04  0.23848789798E+04  0.00000000000E+00 0. -1.
         23    2    1    2    0    0 -0.10786186837E+03  0.36106429260E+03 -0.10808909497E+04  0.11482645297E+04  0.90468662331E+02 0.  0.
        254    2    1    2    0    0  0.10786186837E+03 -0.36106429260E+03 -0.10807710315E+04  0.14598314487E+04  0.90611270276E+03 0.  0.
        -24    2    4    4    0    0 -0.29366898479E+03 -0.29796201128E+03 -0.16899471984E+03  0.45835670574E+03  0.80677268008E+02 0.  0.
         24    2    4    4    0    0  0.40153085316E+03 -0.63102281326E+02 -0.91177631163E+03  0.10014747430E+04  0.80041828880E+02 0.  0.
         11    1    3    3    0    0 -0.10815807224E+02  0.14080164424E+03 -0.49795928270E+03  0.51759591569E+03  0.00000000000E+00 0.  1.
        -11    1    3    3    0    0 -0.97046061147E+02  0.22026264836E+03 -0.58293166703E+03  0.63066861399E+03  0.00000000000E+00 0. -1.
          4    1    6    6  502    0  0.68282960143E+02 -0.30774571040E+02 -0.23066934623E+03  0.24252419294E+03  0.00000000000E+00 0. -1.
          1    1    5    5  503    0 -0.83672282003E+02 -0.13550877445E+03 -0.80860774433E+02  0.17861171174E+03  0.00000000000E+00 0. -1.
         -2    1    5    5    0  503 -0.20999670279E+03 -0.16245323683E+03 -0.88133945403E+02  0.27974499401E+03  0.00000000000E+00 0.  1.
         -3    1    6    6    0  502  0.33324789302E+03 -0.32327710285E+02 -0.68110696540E+03  0.75895055002E+03  0.00000000000E+00 0.  1.
<mgrwt>
<rscale>  0 0.14592403E+04</rscale>
<asrwt>0</asrwt>
<pdfrwt beam="1">  1        2 0.36690447E+00 0.14592403E+04</pdfrwt>
<pdfrwt beam="2">  1       -2 0.34341075E-01 0.14592403E+04</pdfrwt>
<totfact> 0.31296981E+01</totfact>
</mgrwt>
</event>
<event>
12    1  0.1598876E-007  0.2184948E+04  0.7818608E-02  0.8524719E-01
         -1   -1    0    0    0  501 -0.00000000000E+00  0.00000000000E+00  0.10293248223E+04  0.10293248223E+04  0.00000000000E+00 0.  1.
          1   -1    0    0  501    0  0.00000000000E+00 -0.00000000000E+00 -0.11594969161E+04  0.11594969161E+04  0.00000000000E+00 0. -1.
         23    2    1    2    0    0 -0.22083979562E+03 -0.12927388493E+03  0.81381716670E+03  0.85793813808E+03  0.90980851281E+02 0.  0.
        254    2    1    2    0    0  0.22083979562E+03  0.12927388493E+03 -0.94398926053E+03  0.13308836004E+04  0.90258156477E+03 0.  0.
        -24    2    4    4    0    0  0.23364471866E+03  0.41373566516E+03 -0.91542442068E+03  0.10343409787E+04  0.78053412064E+02 0.  0.
         24    2    4    4    0    0 -0.12804923046E+02 -0.28446178023E+03 -0.28564839851E+02  0.29654262162E+03  0.77711684434E+02 0.  0.
         11    1    3    3    0    0 -0.12768604098E+03 -0.75087016370E+02  0.32178005937E+03  0.35423747924E+03  0.00000000000E+00 0. -1.
        -11    1    3    3    0    0 -0.93153754642E+02 -0.54186868563E+02  0.49203710733E+03  0.50370065884E+03  0.00000000000E+00 0.  1.
          4    1    6    6  502    0 -0.42193782324E+02 -0.10334345991E+03 -0.13485397012E+02  0.11243683518E+03  0.00000000000E+00 0. -1.
          3    1    5    5  503    0  0.23698912409E+03  0.38293947316E+03 -0.84885016649E+03  0.96091263400E+03  0.00000000000E+00 0. -1.
         -4    1    5    5    0  503 -0.33444054233E+01  0.30796192001E+02 -0.66574254195E+02  0.73428344739E+02  0.00000000000E+00 0.  1.
         -3    1    6    6    0  502  0.29388859278E+02 -0.18111832032E+03 -0.15079442839E+02  0.18410578644E+03  0.00000000000E+00 0.  1.
<mgrwt>
<rscale>  0 0.21849476E+04</rscale>
<asrwt>0</asrwt>
<pdfrwt beam="1">  1        1 0.17838414E+00 0.21849476E+04</pdfrwt>
<pdfrwt beam="2">  1       -1 0.15835766E+00 0.21849476E+04</pdfrwt>
<totfact> 0.31428071E+00</totfact>
</mgrwt>
</event>
<event>
12    1  0.1598876E-007  0.4305914E+04  0.7818608E-02  0.7945525E-01
          2   -1    0    0  501    0  0.00000000000E+00  0.00000000000E+00  0.21841400302E+04  0.21841400302E+04  0.00000000000E+00 0.  1.
         -2   -1    0    0    0  501 -0.00000000000E+00 -0.00000000000E+00 -0.21222192982E+04  0.21222192982E+04  0.00000000000E+00 0. -1.
         23    2    1    2    0    0  0.14554582191E+04  0.48160075681E+03 -0.13405283510E+04  0.20386014509E+04  0.92637460926E+02 0.  0.
        254    2    1    2    0    0 -0.14554582191E+04 -0.48160075681E+03  0.14024490830E+04  0.22677578776E+04  0.90860576954E+03 0.  0.
        -24    2    4    4    0    0 -0.45354074834E+03 -0.24236700903E+03  0.10573454045E+04  0.11784922780E+04  0.80148408022E+02 0.  0.
         24    2    4    4    0    0 -0.10019174708E+04 -0.23923374778E+03  0.34510367847E+03  0.10892655996E+04  0.79571309409E+02 0.  0.
         11    1    3    3    0    0  0.11915128605E+04  0.41531618720E+03 -0.11404237173E+04  0.17008105971E+04  0.00000000000E+00 0.  1.
        -11    1    3    3    0    0  0.26394535858E+03  0.66284569610E+02 -0.20010463371E+03  0.33779085381E+03  0.00000000000E+00 0. -1.
          4    1    6    6  502    0 -0.27587593257E+03 -0.47433942835E+02  0.12623958108E+03  0.30707318498E+03  0.00000000000E+00 0. -1.
          1    1    5    5  503    0 -0.78513688757E+02 -0.74290542068E+02  0.25680306359E+03  0.27862393550E+03  0.00000000000E+00 0. -1.
         -2    1    5    5    0  503 -0.37502705958E+03 -0.16807646697E+03  0.80054234095E+03  0.89986834249E+03  0.00000000000E+00 0.  1.
         -3    1    6    6    0  502 -0.72604153819E+03 -0.19179980494E+03  0.21886409739E+03  0.78219241462E+03  0.00000000000E+00 0.  1.
<mgrwt>
<rscale>  0 0.43059141E+04</rscale>
<asrwt>0</asrwt>
<pdfrwt beam="1">  1        2 0.33602154E+00 0.43059141E+04</pdfrwt>
<pdfrwt beam="2">  1       -2 0.32649528E+00 0.43059141E+04</pdfrwt>
<totfact> 0.88543508E-02</totfact>
</mgrwt>
</event>
<event>
12    1  0.1598876E-007  0.2030076E+04  0.7818608E-02  0.8592687E-01
         -2   -1    0    0    0  501 -0.00000000000E+00  0.00000000000E+00  0.80174615915E+03  0.80174615915E+03  0.00000000000E+00 0.  1.
          2   -1    0    0  501    0  0.00000000000E+00 -0.00000000000E+00 -0.12850728631E+04  0.12850728631E+04  0.00000000000E+00 0. -1.
         23    2    1    2    0    0 -0.20218261940E+03 -0.16449104714E+03  0.60860380667E+03  0.66810239068E+03  0.89594055462E+02 0.  0.
        254    2    1    2    0    0  0.20218261940E+03  0.16449104714E+03 -0.10919305106E+04  0.14187166316E+04  0.86747306846E+03 0.  0.
        -24    2    4    4    0    0 -0.10055612559E+03  0.35371912012E+02  0.10821809189E+03  0.17174683117E+03  0.80144320144E+02 0.  0.
         24    2    4    4    0    0  0.30273874499E+03  0.12911913512E+03 -0.12001486025E+04  0.12469698004E+04  0.79085499409E+02 0.  0.
         13    1    3    3    0    0 -0.43417464689E+02 -0.53393688880E+01  0.52857140683E+02  0.68610949719E+02  0.00000000000E+00 0. -1.
        -13    1    3    3    0    0 -0.15876515471E+03 -0.15915167825E+03  0.55574666598E+03  0.59949144097E+03  0.00000000000E+00 0.  1.
          4    1    6    6  502    0  0.31480285731E+02  0.11427363304E+02 -0.56182999490E+02  0.65407357793E+02  0.00000000000E+00 0. -1.
          3    1    5    5  503    0 -0.20806013798E+02 -0.24557991232E+02  0.37755274101E+02  0.49612960665E+02  0.00000000000E+00 0. -1.
         -4    1    5    5    0  503 -0.79750111792E+02  0.59929903243E+02  0.70462817793E+02  0.12213387051E+03  0.00000000000E+00 0.  1.
         -3    1    6    6    0  502  0.27125845926E+03  0.11769177182E+03 -0.11439656031E+04  0.11815624426E+04  0.00000000000E+00 0.  1.
<mgrwt>
<rscale>  0 0.20300761E+04</rscale>
<asrwt>0</asrwt>
<pdfrwt beam="1">  1        2 0.19770352E+00 0.20300761E+04</pdfrwt>
<pdfrwt beam="2">  1       -2 0.12334556E+00 0.20300761E+04</pdfrwt>
<totfact> 0.77515500E+00</totfact>
</mgrwt>
</event>
<event>
12    1  0.1598876E-007  0.1515163E+04  0.7818608E-02  0.8874432E-01
          2   -1    0    0  501    0  0.00000000000E+00  0.00000000000E+00  0.31427242490E+03  0.31427242490E+03  0.00000000000E+00 0. -1.
         -2   -1    0    0    0  501 -0.00000000000E+00 -0.00000000000E+00 -0.18262181534E+04  0.18262181534E+04  0.00000000000E+00 0.  1.
         23    2    1    2    0    0 -0.22379406508E+02  0.13885563546E+03 -0.11466816758E+04  0.11589328647E+04  0.92004314365E+02 0.  0.
        254    2    1    2    0    0  0.22379406508E+02 -0.13885563546E+03 -0.36526405272E+03  0.98155771366E+03  0.90014220637E+03 0.  0.
        -24    2    4    4    0    0 -0.25178509145E+03 -0.36041239046E+02  0.20452276075E+03  0.33605710180E+03  0.80063180140E+02 0.  0.
         24    2    4    4    0    0  0.27416449796E+03 -0.10281439641E+03 -0.56978681347E+03  0.64550061186E+03  0.79227867865E+02 0.  0.
         13    1    3    3    0    0 -0.38049789148E+01  0.95708760325E+02 -0.42216028525E+03  0.43289022986E+03  0.00000000000E+00 0.  1.
        -13    1    3    3    0    0 -0.18574427593E+02  0.43146875134E+02 -0.72452139056E+03  0.72604263482E+03  0.00000000000E+00 0. -1.
          4    1    6    6  502    0  0.27398296807E+03 -0.10788465472E+03 -0.56855206573E+03  0.64027901494E+03  0.00000000000E+00 0. -1.
          1    1    5    5  503    0 -0.18279615392E+03  0.87640467737E+01  0.12484820185E+03  0.22153626319E+03  0.00000000000E+00 0. -1.
         -2    1    5    5    0  503 -0.68988937538E+02 -0.44805285820E+02  0.79674558903E+02  0.11452083861E+03  0.00000000000E+00 0.  1.
         -3    1    6    6    0  502  0.18152988881E+00  0.50702583086E+01 -0.12347477406E+01  0.52215969204E+01  0.00000000000E+00 0.  1.
<mgrwt>
<rscale>  0 0.15151634E+04</rscale>
<asrwt>0</asrwt>
<pdfrwt beam="1">  1        2 0.48349604E-01 0.15151634E+04</pdfrwt>
<pdfrwt beam="2">  1       -2 0.28095664E+00 0.15151634E+04</pdfrwt>
<totfact> 0.41896800E+00</totfact>
</mgrwt>
</event>
<event>
12    1  0.1598876E-007  0.1550998E+04  0.7818608E-02  0.8851231E-01
         -2   -1    0    0    0  501 -0.00000000000E+00  0.00000000000E+00  0.69751521637E+03  0.69751521637E+03  0.00000000000E+00 0.  1.
          2   -1    0    0  501    0  0.00000000000E+00 -0.00000000000E+00 -0.86220103310E+03  0.86220103310E+03  0.00000000000E+00 0. -1.
         23    2    1    2    0    0  0.31975625983E+03 -0.32686904772E+03 -0.26994453345E+03  0.53890173104E+03  0.91965126644E+02 0.  0.
        254    2    1    2    0    0 -0.31975625983E+03  0.32686904772E+03  0.10525871672E+03  0.10208145184E+04  0.90658449332E+03 0.  0.
        -24    2    4    4    0    0  0.42802125191E+02  0.45494400359E+03  0.32941985418E+03  0.56856558378E+03  0.77092894648E+02 0.  0.
         24    2    4    4    0    0 -0.36255838502E+03 -0.12807495587E+03 -0.22416113745E+03  0.45224893465E+03  0.80181709133E+02 0.  0.
         13    1    3    3    0    0  0.25102905874E+03 -0.19572705096E+03 -0.18086042808E+03  0.36610812782E+03  0.00000000000E+00 0. -1.
        -13    1    3    3    0    0  0.68727201084E+02 -0.13114199676E+03 -0.89084105379E+02  0.17279360322E+03  0.00000000000E+00 0.  1.
          4    1    6    6  502    0 -0.22454819898E+03 -0.67559218268E+02 -0.17877655351E+03  0.29486810225E+03  0.00000000000E+00 0. -1.
          1    1    5    5  503    0 -0.11046530780E+02  0.19140716658E+03  0.16764112236E+03  0.25468073184E+03  0.00000000000E+00 0. -1.
         -2    1    5    5    0  503  0.53848655971E+02  0.26353683701E+03  0.16177873181E+03  0.31388485194E+03  0.00000000000E+00 0.  1.
         -3    1    6    6    0  502 -0.13801018603E+03 -0.60515737602E+02 -0.45384583941E+02  0.15738083240E+03  0.00000000000E+00 0.  1.
<mgrwt>
<rscale>  0 0.15509975E+04</rscale>
<asrwt>0</asrwt>
<pdfrwt beam="1">  1        2 0.13264631E+00 0.15509975E+04</pdfrwt>
<pdfrwt beam="2">  1       -2 0.10731003E+00 0.15509975E+04</pdfrwt>
<totfact> 0.20899589E+01</totfact>
</mgrwt>
</event>
<event>
12    1  0.1598876E-007  0.1819130E+04  0.7818608E-02  0.8696192E-01
          2   -1    0    0  501    0  0.00000000000E+00  0.00000000000E+00  0.74420026400E+03  0.74420026400E+03  0.00000000000E+00 0.  1.
         -2   -1    0    0    0  501 -0.00000000000E+00 -0.00000000000E+00 -0.11116747417E+04  0.11116747417E+04  0.00000000000E+00 0. -1.
         23    2    1    2    0    0 -0.16633116641E+03 -0.27536547390E+03 -0.75542468434E+03  0.82597127377E+03  0.89832567898E+02 0.  0.
        254    2    1    2    0    0  0.16633116641E+03  0.27536547390E+03  0.38795020668E+03  0.10299037319E+04  0.89816709635E+03 0.  0.
        -24    2    4    4    0    0 -0.26251971403E+03 -0.45296044624E+02 -0.10581736738E+03  0.29719889887E+03  0.78495466984E+02 0.  0.
         24    2    4    4    0    0  0.42885088043E+03  0.32066151852E+03  0.49376757406E+03  0.73270483302E+03  0.79454817502E+02 0.  0.
         13    1    3    3    0    0 -0.43450432345E+01 -0.76269273301E+02 -0.20059567396E+03  0.21464972831E+03  0.00000000000E+00 0.  1.
        -13    1    3    3    0    0 -0.16198612317E+03 -0.19909620060E+03 -0.55482901037E+03  0.61132154546E+03  0.00000000000E+00 0. -1.
          4    1    6    6  502    0  0.10855692795E+03  0.92253429604E+02  0.17969982450E+03  0.22931927264E+03  0.00000000000E+00 0. -1.
          1    1    5    5  503    0 -0.22928365636E+03 -0.31102858189E+02 -0.11711509406E+03  0.25933439440E+03  0.00000000000E+00 0. -1.
         -2    1    5    5    0  503 -0.33236057664E+02 -0.14193186436E+02  0.11297726681E+02  0.37864504465E+02  0.00000000000E+00 0.  1.
         -3    1    6    6    0  502  0.32029395249E+03  0.22840808892E+03  0.31406774956E+03  0.50338556038E+03  0.00000000000E+00 0.  1.
<mgrwt>
<rscale>  0 0.18191302E+04</rscale>
<asrwt>0</asrwt>
<pdfrwt beam="1">  1        2 0.11449235E+00 0.18191302E+04</pdfrwt>
<pdfrwt beam="2">  1       -2 0.17102688E+00 0.18191302E+04</pdfrwt>
<totfact> 0.74788475E+00</totfact>
</mgrwt>
</event>
<event>
12    1  0.1598876E-007  0.1102816E+04  0.7818608E-02  0.9202451E-01
         -1   -1    0    0    0  501 -0.00000000000E+00  0.00000000000E+00  0.38343057887E+03  0.38343057887E+03  0.00000000000E+00 0.  1.
          1   -1    0    0  501    0  0.00000000000E+00 -0.00000000000E+00 -0.79297545066E+03  0.79297545066E+03  0.00000000000E+00 0. -1.
         23    2    1    2    0    0 -0.81416443367E+02  0.14603155709E+03 -0.97232501441E+02  0.21443483694E+03  0.92597446181E+02 0.  0.
        254    2    1    2    0    0  0.81416443367E+02 -0.14603155709E+03 -0.31231237035E+03  0.96197119259E+03  0.89436888686E+03 0.  0.
        -24    2    4    4    0    0  0.45881491421E+03 -0.13369024384E+03 -0.31171044525E+03  0.57615247686E+03  0.80025421616E+02 0.  0.
         24    2    4    4    0    0 -0.37739847085E+03 -0.12341313244E+02 -0.60192509392E+00  0.38581871573E+03  0.79207356240E+02 0.  0.
         11    1    3    3    0    0 -0.37185518489E+02  0.15133952511E+02 -0.58480124185E+02  0.70934647589E+02  0.00000000000E+00 0. -1.
        -11    1    3    3    0    0 -0.44230924878E+02  0.13089760458E+03 -0.38752377255E+02  0.14350018935E+03  0.00000000000E+00 0.  1.
          2    1    6    6  502    0 -0.23471532135E+03 -0.43284403656E+02  0.14045449296E+02  0.23908596012E+03  0.00000000000E+00 0. -1.
          3    1    5    5  503    0  0.19831394469E+03 -0.28113439497E+02 -0.16248133223E+03  0.25791271675E+03  0.00000000000E+00 0. -1.
         -4    1    5    5    0  503  0.26050096952E+03 -0.10557680435E+03 -0.14922911303E+03  0.31823976011E+03  0.00000000000E+00 0.  1.
         -1    1    6    6    0  502 -0.14268314949E+03  0.30943090412E+02 -0.14647374390E+02  0.14673275561E+03  0.00000000000E+00 0.  1.
<mgrwt>
<rscale>  0 0.11028165E+04</rscale>
<asrwt>0</asrwt>
<pdfrwt beam="1">  1        1 0.12199622E+00 0.11028165E+04</pdfrwt>
<pdfrwt beam="2">  1       -1 0.58989320E-01 0.11028165E+04</pdfrwt>
<totfact> 0.65080659E+01</totfact>
</mgrwt>
</event>
<event>
12    1  0.1598876E-007  0.1424769E+04  0.7818608E-02  0.8936082E-01
         -3   -1    0    0    0  501 -0.00000000000E+00  0.00000000000E+00  0.60467825701E+03  0.60467825701E+03  0.00000000000E+00 0.  1.
          3   -1    0    0  501    0  0.00000000000E+00 -0.00000000000E+00 -0.83927578771E+03  0.83927578771E+03  0.00000000000E+00 0. -1.
         23    2    1    2    0    0  0.12357426479E+03  0.30280475849E+03  0.21257713559E+03  0.39994755966E+03  0.88361140912E+02 0.  0.
        254    2    1    2    0    0 -0.12357426479E+03 -0.30280475849E+03 -0.44717466630E+03  0.10440064851E+04  0.88488588981E+03 0.  0.
        -24    2    4    4    0    0  0.11314139340E+03 -0.19229895840E+03  0.22007583746E+03  0.32310463933E+03  0.78634403548E+02 0.  0.
         24    2    4    4    0    0 -0.23671565819E+03 -0.11050580009E+03 -0.66725050375E+03  0.72090184572E+03  0.78932893815E+02 0.  0.
         11    1    3    3    0    0  0.18910759100E+02  0.63747437947E+02  0.89282306473E+02  0.11132242768E+03  0.00000000000E+00 0.  1.
        -11    1    3    3    0    0  0.10466350569E+03  0.23905732054E+03  0.12329482912E+03  0.28862513199E+03  0.00000000000E+00 0. -1.
          4    1    6    6  502    0 -0.60456812237E+02 -0.16756085411E+02 -0.25848547329E+03  0.26598972244E+03  0.00000000000E+00 0. -1.
          3    1    5    5  503    0  0.50731358157E+02 -0.14096595565E+03  0.10692109598E+03  0.18405757827E+03  0.00000000000E+00 0. -1.
         -4    1    5    5    0  503  0.62410035244E+02 -0.51333002750E+02  0.11315474148E+03  0.13904706106E+03  0.00000000000E+00 0.  1.
         -3    1    6    6    0  502 -0.17625884595E+03 -0.93749714676E+02 -0.40876503047E+03  0.45491212328E+03  0.00000000000E+00 0.  1.
<mgrwt>
<rscale>  0 0.14247692E+04</rscale>
<asrwt>0</asrwt>
<pdfrwt beam="1">  1        3 0.12911935E+00 0.14247692E+04</pdfrwt>
<pdfrwt beam="2">  1       -3 0.93027424E-01 0.14247692E+04</pdfrwt>
<totfact> 0.12442509E+00</totfact>
</mgrwt>
</event>
<event>
12    1  0.1598876E-007  0.1324615E+04  0.7818608E-02  0.9010270E-01
          1   -1    0    0  501    0  0.00000000000E+00  0.00000000000E+00  0.45722835321E+03  0.45722835321E+03  0.00000000000E+00 0. -1.
         -1   -1    0    0    0  501 -0.00000000000E+00 -0.00000000000E+00 -0.95936997933E+03  0.95936997933E+03  0.00000000000E+00 0.  1.
         23    2    1    2    0    0  0.99036050816E+02 -0.32886444231E+03 -0.73494610089E+02  0.36307745662E+03  0.91999027284E+02 0.  0.
        254    2    1    2    0    0 -0.99036050816E+02  0.32886444231E+03 -0.42864701603E+03  0.10535208759E+04  0.89900389925E+03 0.  0.
        -24    2    4    4    0    0 -0.20454640428E+03  0.28639296047E+03  0.19697905047E+03  0.41266707002E+03  0.87368215290E+02 0.  0.
         24    2    4    4    0    0  0.10551035346E+03  0.42471481837E+02 -0.62562606650E+03  0.64085380590E+03  0.79682896512E+02 0.  0.
         13    1    3    3    0    0 -0.95513115749E+01 -0.47554818795E+02 -0.33381094521E+02  0.58881115944E+02  0.00000000000E+00 0. -1.
        -13    1    3    3    0    0  0.10858736239E+03 -0.28130962351E+03 -0.40113515567E+02  0.30419634068E+03  0.00000000000E+00 0.  1.
          4    1    6    6  502    0  0.52017826921E+02  0.24349423400E+02 -0.49784998644E+03  0.50115203056E+03  0.00000000000E+00 0. -1.
          3    1    5    5  503    0 -0.19255027680E+03  0.21986870521E+03  0.13910251537E+03  0.32367787445E+03  0.00000000000E+00 0. -1.
         -4    1    5    5    0  503 -0.11996127475E+02  0.66524255257E+02  0.57876535099E+02  0.88989195564E+02  0.00000000000E+00 0.  1.
         -3    1    6    6    0  502  0.53492526541E+02  0.18122058436E+02 -0.12777608007E+03  0.13970177535E+03  0.00000000000E+00 0.  1.
<mgrwt>
<rscale>  0 0.13246149E+04</rscale>
<asrwt>0</asrwt>
<pdfrwt beam="1">  1        1 0.70342824E-01 0.13246149E+04</pdfrwt>
<pdfrwt beam="2">  1       -1 0.14759538E+00 0.13246149E+04</pdfrwt>
<totfact> 0.17908794E+01</totfact>
</mgrwt>
</event>
<event>
12    1  0.1598876E-007  0.2216450E+04  0.7818608E-02  0.8511612E-01
         -2   -1    0    0    0  501 -0.00000000000E+00  0.00000000000E+00  0.92539558327E+03  0.92539558327E+03  0.00000000000E+00 0.  1.
          2   -1    0    0  501    0  0.00000000000E+00 -0.00000000000E+00 -0.13271761969E+04  0.13271761969E+04  0.00000000000E+00 0. -1.
         23    2    1    2    0    0  0.16845039345E+03 -0.23492577877E+03 -0.10552643961E+04  0.10978818506E+04  0.90531517264E+02 0.  0.
        254    2    1    2    0    0 -0.16845039345E+03  0.23492577877E+03  0.65348378249E+03  0.11546899296E+04  0.90702928445E+03 0.  0.
        -24    2    4    4    0    0 -0.19463166716E+03  0.54337107187E+03  0.23674431377E+03  0.62948484253E+03  0.84081444266E+02 0.  0.
         24    2    4    4    0    0  0.26181273701E+02 -0.30844529310E+03  0.41673946872E+03  0.52520508703E+03  0.79653253014E+02 0.  0.
         13    1    3    3    0    0  0.60939111631E+02 -0.11432015590E+03 -0.32312800559E+03  0.34812983406E+03  0.00000000000E+00 0.  1.
        -13    1    3    3    0    0  0.10751128182E+03 -0.12060562287E+03 -0.73213639052E+03  0.74975201655E+03  0.00000000000E+00 0. -1.
          2    1    6    6  502    0  0.78451920532E+01 -0.94987786400E+01  0.51057677127E+02  0.52522949533E+02  0.00000000000E+00 0. -1.
          1    1    5    5  503    0 -0.34241089347E+02  0.32254692688E+02  0.11916686640E+02  0.48526537282E+02  0.00000000000E+00 0. -1.
         -2    1    5    5    0  503 -0.16039057781E+03  0.51111637918E+03  0.22482762713E+03  0.58095830525E+03  0.00000000000E+00 0.  1.
         -3    1    6    6    0  502  0.18336081648E+02 -0.29894651446E+03  0.36568179160E+03  0.47268213749E+03  0.00000000000E+00 0.  1.
<mgrwt>
<rscale>  0 0.22164503E+04</rscale>
<asrwt>0</asrwt>
<pdfrwt beam="1">  1        2 0.20418095E+00 0.22164503E+04</pdfrwt>
<pdfrwt beam="2">  1       -2 0.14236855E+00 0.22164503E+04</pdfrwt>
<totfact> 0.50029431E+00</totfact>
</mgrwt>
</event>
<event>
12    1  0.1598876E-007  0.1517400E+04  0.7818608E-02  0.8872964E-01
          2   -1    0    0  501    0  0.00000000000E+00  0.00000000000E+00  0.18316030579E+04  0.18316030579E+04  0.00000000000E+00 0. -1.
         -2   -1    0    0    0  501 -0.00000000000E+00 -0.00000000000E+00 -0.31427422169E+03  0.31427422169E+03  0.00000000000E+00 0.  1.
         23    2    1    2    0    0 -0.35576128565E+02  0.29778097026E+03 -0.48172976859E+02  0.31675660669E+03  0.89860697812E+02 0.  0.
        254    2    1    2    0    0  0.35576128565E+02 -0.29778097026E+03  0.15655018130E+04  0.18291206728E+04  0.89718857664E+03 0.  0.
        -24    2    4    4    0    0 -0.30698970152E+03  0.16869762310E+03  0.52209622196E+03  0.63336468355E+03  0.76581933243E+02 0.  0.
         24    2    4    4    0    0  0.34256583008E+03 -0.46647859336E+03  0.10434055911E+04  0.11957559893E+04  0.78635440300E+02 0.  0.
         11    1    3    3    0    0 -0.42707319603E+02  0.30125979701E+03 -0.50618958829E+02  0.30845365849E+03  0.00000000000E+00 0.  1.
        -11    1    3    3    0    0  0.71311910384E+01 -0.34788267453E+01  0.24459819700E+01  0.83029482081E+01  0.00000000000E+00 0. -1.
          2    1    6    6  502    0  0.10996561012E+03 -0.21137927035E+03  0.45233826913E+03  0.51125682496E+03  0.00000000000E+00 0. -1.
          3    1    5    5  503    0 -0.51678991899E+01  0.12873369910E+02  0.51253484060E+01  0.14788510106E+02  0.00000000000E+00 0. -1.
         -4    1    5    5    0  503 -0.30182180233E+03  0.15582425319E+03  0.51697087356E+03  0.61857617344E+03  0.00000000000E+00 0.  1.
         -1    1    6    6    0  502  0.23260021996E+03 -0.25509932301E+03  0.59106732193E+03  0.68449916434E+03  0.00000000000E+00 0.  1.
<mgrwt>
<rscale>  0 0.15173999E+04</rscale>
<asrwt>0</asrwt>
<pdfrwt beam="1">  1        2 0.28178508E+00 0.15173999E+04</pdfrwt>
<pdfrwt beam="2">  1       -2 0.48349881E-01 0.15173999E+04</pdfrwt>
<totfact> 0.32401741E+01</totfact>
</mgrwt>
</event>
<event>
12    1  0.1598876E-007  0.1454854E+04  0.7818608E-02  0.8915042E-01
         -1   -1    0    0    0  501 -0.00000000000E+00  0.00000000000E+00  0.10880053800E+04  0.10880053800E+04  0.00000000000E+00 0.  1.
          1   -1    0    0  501    0  0.00000000000E+00 -0.00000000000E+00 -0.48634876842E+03  0.48634876842E+03  0.00000000000E+00 0. -1.
         23    2    1    2    0    0  0.13391367356E+03 -0.13023845193E+03  0.61835931740E+03  0.65487899207E+03  0.10771871944E+03 0.  0.
        254    2    1    2    0    0 -0.13391367356E+03  0.13023845193E+03 -0.16702705777E+02  0.91947515638E+03  0.90014479752E+03 0.  0.
        -24    2    4    4    0    0  0.36097333396E+03  0.14146966685E+03 -0.10601099902E+03  0.41008242482E+03  0.81325572628E+02 0.  0.
         24    2    4    4    0    0 -0.49488700752E+03 -0.11231214917E+02  0.89308293241E+02  0.50939273156E+03  0.80409535051E+02 0.  0.
         13    1    3    3    0    0  0.91702147183E+02 -0.12342278353E+03  0.56978052620E+03  0.59016295658E+03  0.00000000000E+00 0.  1.
        -13    1    3    3    0    0  0.42211526374E+02 -0.68156684075E+01  0.48578791202E+02  0.64716035488E+02  0.00000000000E+00 0. -1.
          2    1    6    6  502    0 -0.47491233928E+03 -0.20293412300E+02  0.70592558804E+02  0.48055890580E+03  0.00000000000E+00 0. -1.
          1    1    5    5  503    0  0.30143710280E+03  0.12505053863E+03 -0.11827435255E+03  0.34711782816E+03  0.00000000000E+00 0. -1.
         -2    1    5    5    0  503  0.59536231161E+02  0.16419128217E+02  0.12263353533E+02  0.62964596657E+02  0.00000000000E+00 0.  1.
         -1    1    6    6    0  502 -0.19974668237E+02  0.90621973830E+01  0.18715734437E+02  0.28833825762E+02  0.00000000000E+00 0.  1.
<mgrwt>
<rscale>  0 0.14548540E+04</rscale>
<asrwt>0</asrwt>
<pdfrwt beam="1">  1        1 0.74822888E-01 0.14548540E+04</pdfrwt>
<pdfrwt beam="2">  1       -1 0.16738544E+00 0.14548540E+04</pdfrwt>
<totfact> 0.11499972E+01</totfact>
</mgrwt>
</event>
<event>
12    1  0.1598876E-007  0.1913659E+04  0.7818608E-02  0.8648087E-01
          2   -1    0    0  501    0  0.00000000000E+00  0.00000000000E+00  0.92114724653E+03  0.92114724653E+03  0.00000000000E+00 0. -1.
         -2   -1    0    0    0  501 -0.00000000000E+00 -0.00000000000E+00 -0.99389360997E+03  0.99389360997E+03  0.00000000000E+00 0.  1.
         23    2    1    2    0    0 -0.41525110135E+03  0.22374035484E+03 -0.59333025337E+03  0.76354939196E+03  0.92052489578E+02 0.  0.
        254    2    1    2    0    0  0.41525110135E+03 -0.22374035484E+03  0.52058388994E+03  0.11514914645E+04  0.91237699604E+03 0.  0.
        -24    2    4    4    0    0 -0.22079670059E+03 -0.43758853224E+01  0.39904722623E+03  0.46306238321E+03  0.80110864503E+02 0.  0.
         24    2    4    4    0    0  0.63604780194E+03 -0.21936446951E+03  0.12153666370E+03  0.68842908134E+03  0.80534853101E+02 0.  0.
         11    1    3    3    0    0 -0.34120769862E+03  0.20115358070E+03 -0.53938765126E+03  0.66919690299E+03  0.00000000000E+00 0. -1.
        -11    1    3    3    0    0 -0.74043402726E+02  0.22586774135E+02 -0.53942602109E+02  0.94352488973E+02  0.00000000000E+00 0.  1.
          2    1    6    6  502    0  0.63607694278E+03 -0.22087444734E+03  0.12482818477E+03  0.68480761848E+03  0.00000000000E+00 0. -1.
          3    1    5    5  503    0 -0.19155574582E+03 -0.16404137590E+02  0.38073776692E+03  0.42652543494E+03  0.00000000000E+00 0. -1.
         -4    1    5    5    0  503 -0.29240954773E+02  0.12028252268E+02  0.18309459312E+02  0.36536948271E+02  0.00000000000E+00 0.  1.
         -1    1    6    6    0  502 -0.29140835127E-01  0.15099778261E+01 -0.32915210705E+01  0.36214628510E+01  0.00000000000E+00 0.  1.
<mgrwt>
<rscale>  0 0.19136587E+04</rscale>
<asrwt>0</asrwt>
<pdfrwt beam="1">  1        2 0.14171496E+00 0.19136587E+04</pdfrwt>
<pdfrwt beam="2">  1       -2 0.15290671E+00 0.19136587E+04</pdfrwt>
<totfact> 0.75559251E+00</totfact>
</mgrwt>
</event>
<event>
12    1  0.1598876E-007  0.1311086E+04  0.7818608E-02  0.9020820E-01
          1   -1    0    0  501    0  0.00000000000E+00  0.00000000000E+00  0.16223860521E+04  0.16223860521E+04  0.00000000000E+00 0. -1.
         -1   -1    0    0    0  501 -0.00000000000E+00 -0.00000000000E+00 -0.26487927047E+03  0.26487927047E+03  0.00000000000E+00 0.  1.
         23    2    1    2    0    0  0.13368772710E+03 -0.17103029001E+03 -0.14518448858E+02  0.23518864300E+03  0.89326054207E+02 0.  0.
        254    2    1    2    0    0 -0.13368772710E+03  0.17103029001E+03  0.13720252304E+04  0.16520766795E+04  0.89430439649E+03 0.  0.
        -24    2    4    4    0    0 -0.46319396317E+02 -0.32889406307E+03  0.86698339610E+03  0.93179114508E+03  0.79105864197E+02 0.  0.
         24    2    4    4    0    0 -0.87368330782E+02  0.49992435308E+03  0.50504183434E+03  0.72028553444E+03  0.78653751722E+02 0.  0.
         13    1    3    3    0    0  0.13589002628E+03 -0.11331115741E+03 -0.89533614687E+01  0.17716004153E+03  0.00000000000E+00 0.  1.
        -13    1    3    3    0    0 -0.22022991786E+01 -0.57719132606E+02 -0.55650873897E+01  0.58028601467E+02  0.00000000000E+00 0. -1.
          2    1    6    6  502    0 -0.81935414413E+02  0.44089132753E+03  0.40636533609E+03  0.60517052242E+03  0.00000000000E+00 0. -1.
          1    1    5    5  503    0 -0.31415418264E+02 -0.10405781198E+03  0.37931339936E+03  0.39458029813E+03  0.00000000000E+00 0. -1.
         -4    1    5    5    0  503 -0.14903978054E+02 -0.22483625109E+03  0.48766999674E+03  0.53721084696E+03  0.00000000000E+00 0.  1.
         -1    1    6    6    0  502 -0.54329163693E+01  0.59033025554E+02  0.98676498251E+02  0.11511501202E+03  0.00000000000E+00 0.  1.
<mgrwt>
<rscale>  0 0.13110857E+04</rscale>
<asrwt>0</asrwt>
<pdfrwt beam="1">  1        1 0.24959785E+00 0.13110857E+04</pdfrwt>
<pdfrwt beam="2">  1       -1 0.40750658E-01 0.13110857E+04</pdfrwt>
<totfact> 0.31125968E+01</totfact>
</mgrwt>
</event>
<event>
12    1  0.1598876E-007  0.1239408E+04  0.7818608E-02  0.9079045E-01
          1   -1    0    0  501    0  0.00000000000E+00  0.00000000000E+00  0.32604365132E+03  0.32604365132E+03  0.00000000000E+00 0. -1.
         -1   -1    0    0    0  501 -0.00000000000E+00 -0.00000000000E+00 -0.11778584351E+04  0.11778584351E+04  0.00000000000E+00 0.  1.
         23    2    1    2    0    0  0.17241447886E+03  0.15432153870E+03 -0.65596052858E+01  0.24791506063E+03  0.88752233979E+02 0.  0.
        254    2    1    2    0    0 -0.17241447886E+03 -0.15432153870E+03 -0.84525517847E+03  0.12559870258E+04  0.89972507043E+03 0.  0.
        -24    2    4    4    0    0 -0.42753798574E+03 -0.32414432559E+03 -0.75328263192E+03  0.92820605541E+03  0.79205332428E+02 0.  0.
         24    2    4    4    0    0  0.25512350687E+03  0.16982278689E+03 -0.91972546551E+02  0.32778097037E+03  0.71088905676E+02 0.  0.
         13    1    3    3    0    0  0.43193081437E+02  0.53362653214E+02 -0.41538949977E+02  0.80241506761E+02  0.00000000000E+00 0.  1.
        -13    1    3    3    0    0  0.12922139743E+03  0.10095888548E+03  0.34979344691E+02  0.16767355387E+03  0.00000000000E+00 0. -1.
          4    1    6    6  502    0  0.59934530841E+01  0.19454064522E+02 -0.18846213378E+02  0.27740978083E+02  0.00000000000E+00 0. -1.
          3    1    5    5  503    0 -0.28974288912E+03 -0.18850123204E+03 -0.43256444808E+03  0.55371080721E+03  0.00000000000E+00 0. -1.
         -4    1    5    5    0  503 -0.13779509662E+03 -0.13564309355E+03 -0.32071818384E+03  0.37449524820E+03  0.00000000000E+00 0.  1.
         -3    1    6    6    0  502  0.24913005379E+03  0.15036872237E+03 -0.73126333173E+02  0.30003999228E+03  0.00000000000E+00 0.  1.
<mgrwt>
<rscale>  0 0.12394084E+04</rscale>
<asrwt>0</asrwt>
<pdfrwt beam="1">  1        1 0.50160562E-01 0.12394084E+04</pdfrwt>
<pdfrwt beam="2">  1       -1 0.18120899E+00 0.12394084E+04</pdfrwt>
<totfact> 0.15827765E+01</totfact>
</mgrwt>
</event>
<event>
12    1  0.1598876E-007  0.1881133E+04  0.7818608E-02  0.8664305E-01
          2   -1    0    0  501    0  0.00000000000E+00  0.00000000000E+00  0.12107001000E+04  0.12107001000E+04  0.00000000000E+00 0. -1.
         -2   -1    0    0    0  501 -0.00000000000E+00 -0.00000000000E+00 -0.73070565501E+03  0.73070565501E+03  0.00000000000E+00 0.  1.
         23    2    1    2    0    0 -0.62140983126E+03 -0.30145684215E+03 -0.42911746418E+02  0.69797373545E+03  0.91101653795E+02 0.  0.
        254    2    1    2    0    0  0.62140983126E+03  0.30145684215E+03  0.52290619143E+03  0.12434320196E+04  0.89200106291E+03 0.  0.
        -24    2    4    4    0    0  0.80122433226E+03  0.39964364251E+03  0.35415345215E+03  0.96616228528E+03  0.79808660034E+02 0.  0.
         24    2    4    4    0    0 -0.17981450100E+03 -0.98186800360E+02  0.16875273928E+03  0.27726973431E+03  0.80169295983E+02 0.  0.
         11    1    3    3    0    0 -0.54104495504E+03 -0.29186619650E+03 -0.49702110186E+02  0.61675426208E+03  0.00000000000E+00 0.  1.
        -11    1    3    3    0    0 -0.80364876221E+02 -0.95906456483E+01  0.67903637677E+01  0.81219473368E+02  0.00000000000E+00 0. -1.
          4    1    6    6  502    0 -0.98139101751E+02 -0.33832083731E+02  0.12986036753E+03  0.16625164131E+03  0.00000000000E+00 0. -1.
          1    1    5    5  503    0  0.18929220540E+03  0.72135929196E+02  0.51715051371E+02  0.20906835687E+03  0.00000000000E+00 0. -1.
         -2    1    5    5    0  503  0.61193212686E+03  0.32750771332E+03  0.30243840078E+03  0.75709392841E+03  0.00000000000E+00 0.  1.
         -3    1    6    6    0  502 -0.81675399245E+02 -0.64354716628E+02  0.38892371746E+02  0.11101809300E+03  0.00000000000E+00 0.  1.
<mgrwt>
<rscale>  0 0.18811331E+04</rscale>
<asrwt>0</asrwt>
<pdfrwt beam="1">  1        2 0.18626155E+00 0.18811331E+04</pdfrwt>
<pdfrwt beam="2">  1       -2 0.11241625E+00 0.18811331E+04</pdfrwt>
<totfact> 0.10912688E+01</totfact>
</mgrwt>
</event>
<event>
12    1  0.1598876E-007  0.2092162E+04  0.7818608E-02  0.8564704E-01
          1   -1    0    0  501    0  0.00000000000E+00  0.00000000000E+00  0.11272292870E+04  0.11272292870E+04  0.00000000000E+00 0. -1.
         -1   -1    0    0    0  501 -0.00000000000E+00 -0.00000000000E+00 -0.97077429022E+03  0.97077429022E+03  0.00000000000E+00 0.  1.
         23    2    1    2    0    0  0.24297293208E+03 -0.43645705376E+03 -0.62927755793E+03  0.80844412140E+03  0.89783333737E+02 0.  0.
        254    2    1    2    0    0 -0.24297293208E+03  0.43645705376E+03  0.78573255468E+03  0.12895594558E+04  0.89222045315E+03 0.  0.
        -24    2    4    4    0    0 -0.94669438695E+02  0.69325639737E+03  0.63140402018E+03  0.94584212683E+03  0.79872129450E+02 0.  0.
         24    2    4    4    0    0 -0.14830349338E+03 -0.25679934361E+03  0.15432853449E+03  0.34371732895E+03  0.79902920047E+02 0.  0.
         11    1    3    3    0    0  0.48805116439E+02 -0.34112172939E+02 -0.56904514685E+02  0.82363241345E+02  0.00000000000E+00 0. -1.
        -11    1    3    3    0    0  0.19416781564E+03 -0.40234488082E+03 -0.57237304325E+03  0.72608088006E+03  0.00000000000E+00 0.  1.
          2    1    6    6  502    0 -0.10164750673E+03 -0.23336285157E+03  0.13429398898E+03  0.28779386997E+03  0.00000000000E+00 0. -1.
          1    1    5    5  503    0 -0.75958091584E+02  0.37608918655E+03  0.30296510469E+03  0.48887683784E+03  0.00000000000E+00 0. -1.
         -2    1    5    5    0  503 -0.18711347112E+02  0.31716721082E+03  0.32843891549E+03  0.45696528898E+03  0.00000000000E+00 0.  1.
         -1    1    6    6    0  502 -0.46655986657E+02 -0.23436492040E+02  0.20034545518E+02  0.55923458979E+02  0.00000000000E+00 0.  1.
<mgrwt>
<rscale>  0 0.20921618E+04</rscale>
<asrwt>0</asrwt>
<pdfrwt beam="1">  1        1 0.17341989E+00 0.20921618E+04</pdfrwt>
<pdfrwt beam="2">  1       -1 0.14934989E+00 0.20921618E+04</pdfrwt>
<totfact> 0.39299686E+00</totfact>
</mgrwt>
</event>
<event>
12    1  0.1598876E-007  0.1500465E+04  0.7818608E-02  0.8884143E-01
          2   -1    0    0  501    0  0.00000000000E+00  0.00000000000E+00  0.17249028031E+04  0.17249028031E+04  0.00000000000E+00 0. -1.
         -2   -1    0    0    0  501 -0.00000000000E+00 -0.00000000000E+00 -0.32630773713E+03  0.32630773713E+03  0.00000000000E+00 0.  1.
         23    2    1    2    0    0  0.22583520789E+03 -0.22799994887E+03  0.92427878100E+03  0.98341287429E+03  0.99116590499E+02 0.  0.
        254    2    1    2    0    0 -0.22583520789E+03  0.22799994887E+03  0.47431628501E+03  0.10677976660E+04  0.90123825898E+03 0.  0.
        -24    2    4    4    0    0  0.17374967732E+03  0.90488524165E+02 -0.18575321612E+03  0.28012659082E+03  0.74763134055E+02 0.  0.
         24    2    4    4    0    0 -0.39958488521E+03  0.13751142470E+03  0.66006950113E+03  0.78767107516E+03  0.78463392213E+02 0.  0.
         11    1    3    3    0    0  0.16805537397E+03 -0.15367784254E+03  0.50936716059E+03  0.55795554688E+03  0.00000000000E+00 0. -1.
        -11    1    3    3    0    0  0.57779833916E+02 -0.74322106329E+02  0.41491162041E+03  0.42545732741E+03  0.00000000000E+00 0.  1.
          4    1    6    6  502    0 -0.33448640205E+03  0.14342177487E+03  0.57272602939E+03  0.67857649783E+03  0.00000000000E+00 0. -1.
          1    1    5    5  503    0  0.11827205284E+03  0.49703736158E+02 -0.71885114278E+02  0.14705852415E+03  0.00000000000E+00 0. -1.
         -2    1    5    5    0  503  0.55477624479E+02  0.40784788007E+02 -0.11386810184E+03  0.13306806667E+03  0.00000000000E+00 0.  1.
         -3    1    6    6    0  502 -0.65098483151E+02 -0.59103501699E+01  0.87343471740E+02  0.10909457733E+03  0.00000000000E+00 0.  1.
<mgrwt>
<rscale>  0 0.15004654E+04</rscale>
<asrwt>0</asrwt>
<pdfrwt beam="1">  1        2 0.26536966E+00 0.15004654E+04</pdfrwt>
<pdfrwt beam="2">  1       -2 0.50201191E-01 0.15004654E+04</pdfrwt>
<totfact> 0.34442335E+01</totfact>
</mgrwt>
</event>
<event>
12    1  0.1598876E-007  0.1960384E+04  0.7818608E-02  0.8625370E-01
         -3   -1    0    0    0  501 -0.00000000000E+00  0.00000000000E+00  0.57389646763E+03  0.57389646763E+03  0.00000000000E+00 0.  1.
          3   -1    0    0  501    0  0.00000000000E+00 -0.00000000000E+00 -0.16741275356E+04  0.16741275356E+04  0.00000000000E+00 0. -1.
         23    2    1    2    0    0 -0.75968283354E+03  0.50832639631E+02 -0.57838739026E+03  0.96048560121E+03  0.91096937868E+02 0.  0.
        254    2    1    2    0    0  0.75968283354E+03 -0.50832639631E+02 -0.52184367768E+03  0.12875384020E+04  0.89762595095E+03 0.  0.
        -24    2    4    4    0    0  0.40073998616E+03  0.25488101460E+03  0.11130202504E+03  0.49407771711E+03  0.78535225560E+02 0.  0.
         24    2    4    4    0    0  0.35894284738E+03 -0.30571365423E+03 -0.63314570272E+03  0.79346068487E+03  0.80034814267E+02 0.  0.
         11    1    3    3    0    0 -0.74115885498E+03  0.48250595629E+02 -0.57904082666E+03  0.94177112253E+03  0.00000000000E+00 0. -1.
        -11    1    3    3    0    0 -0.18523978567E+02  0.25820440025E+01  0.65343640232E+00  0.18714478681E+02  0.00000000000E+00 0.  1.
          4    1    6    6  502    0  0.12233866217E+03 -0.57995306084E+02 -0.16716125426E+03  0.21511180515E+03  0.00000000000E+00 0. -1.
          1    1    5    5  503    0  0.22035170085E+03  0.13985201268E+03  0.20906792589E+02  0.26182160242E+03  0.00000000000E+00 0. -1.
         -2    1    5    5    0  503  0.18038828531E+03  0.11502900192E+03  0.90395232449E+02  0.23225611469E+03  0.00000000000E+00 0.  1.
         -3    1    6    6    0  502  0.23660418521E+03 -0.24771834815E+03 -0.46598444846E+03  0.57834887972E+03  0.00000000000E+00 0.  1.
<mgrwt>
<rscale>  0 0.19603835E+04</rscale>
<asrwt>0</asrwt>
<pdfrwt beam="1">  1        3 0.25755808E+00 0.19603835E+04</pdfrwt>
<pdfrwt beam="2">  1       -3 0.88291764E-01 0.19603835E+04</pdfrwt>
<totfact> 0.18979020E-01</totfact>
</mgrwt>
</event>
<event>
12    1  0.1598876E-007  0.1308099E+04  0.7818608E-02  0.9023168E-01
         -2   -1    0    0    0  501 -0.00000000000E+00  0.00000000000E+00  0.26362739293E+03  0.26362739293E+03  0.00000000000E+00 0. -1.
          2   -1    0    0  501    0  0.00000000000E+00 -0.00000000000E+00 -0.16226706470E+04  0.16226706470E+04  0.00000000000E+00 0.  1.
         23    2    1    2    0    0  0.78674304624E+02  0.67673794119E+02 -0.79563735290E+03  0.80752395072E+03  0.91031560608E+02 0.  0.
        254    2    1    2    0    0 -0.78674304624E+02 -0.67673794119E+02 -0.56340590118E+03  0.10787740892E+04  0.91408858295E+03 0.  0.
        -24    2    4    4    0    0 -0.89309977651E+02  0.16164314345E+03 -0.74558779345E+03  0.77217675453E+03  0.79063294637E+02 0.  0.
         24    2    4    4    0    0  0.10635673027E+02 -0.22931693757E+03  0.18218189227E+03  0.30659733470E+03  0.90068353901E+02 0.  0.
         13    1    3    3    0    0  0.42872468325E+02  0.14135621833E+02 -0.59703818773E+03  0.59874240033E+03  0.00000000000E+00 0.  1.
        -13    1    3    3    0    0  0.35801836299E+02  0.53538172286E+02 -0.19859916517E+03  0.20878155039E+03  0.00000000000E+00 0. -1.
          2    1    6    6  502    0  0.68024502490E+01 -0.21261227470E+03  0.19224714952E+03  0.28672150108E+03  0.00000000000E+00 0. -1.
          3    1    5    5  503    0 -0.70695747111E+02  0.14048224720E+03 -0.48020937199E+03  0.50530603735E+03  0.00000000000E+00 0. -1.
         -4    1    5    5    0  503 -0.18614230540E+02  0.21160896248E+02 -0.26537842146E+03  0.26687071718E+03  0.00000000000E+00 0.  1.
         -1    1    6    6    0  502  0.38332227784E+01 -0.16704662867E+02 -0.10065257250E+02  0.19875833614E+02  0.00000000000E+00 0.  1.
<mgrwt>
<rscale>  0 0.13080985E+04</rscale>
<asrwt>0</asrwt>
<pdfrwt beam="1">  1        2 0.24964164E+00 0.13080985E+04</pdfrwt>
<pdfrwt beam="2">  1       -2 0.40558061E-01 0.13080985E+04</pdfrwt>
<totfact> 0.61051502E+01</totfact>
</mgrwt>
</event>
<event>
12    1  0.1598876E-007  0.2677150E+04  0.7818608E-02  0.8342457E-01
          1   -1    0    0  501    0  0.00000000000E+00  0.00000000000E+00  0.37874588247E+04  0.37874588247E+04  0.00000000000E+00 0. -1.
         -1   -1    0    0    0  501 -0.00000000000E+00 -0.00000000000E+00 -0.47308299790E+03  0.47308299790E+03  0.00000000000E+00 0.  1.
         23    2    1    2    0    0  0.11349523909E+04  0.31274266842E+03  0.16976840191E+04  0.20679927010E+04  0.92400629509E+02 0.  0.
        254    2    1    2    0    0 -0.11349523909E+04 -0.31274266842E+03  0.16166918077E+04  0.21925491216E+04  0.89869591264E+03 0.  0.
        -24    2    4    4    0    0 -0.74588597825E+03 -0.14287061938E+03  0.15851974439E+04  0.17594792243E+04  0.78474824150E+02 0.  0.
         24    2    4    4    0    0 -0.38906641264E+03 -0.16987204904E+03  0.31494363796E+02  0.43306989736E+03  0.79551584262E+02 0.  0.
         13    1    3    3    0    0  0.75256388921E+02  0.44350030365E+02  0.11259541552E+03  0.14250676076E+03  0.00000000000E+00 0.  1.
        -13    1    3    3    0    0  0.10596960020E+04  0.26839263805E+03  0.15850886036E+04  0.19254859402E+04  0.00000000000E+00 0. -1.
          2    1    6    6  502    0 -0.35416647434E+03 -0.17384207026E+03  0.16493977341E+02  0.39487594030E+03  0.00000000000E+00 0. -1.
          3    1    5    5  503    0 -0.62833089968E+03 -0.13476099893E+03  0.12783072336E+04  0.14307444320E+04  0.00000000000E+00 0. -1.
         -4    1    5    5    0  503 -0.11755507858E+03 -0.81096204505E+01  0.30689021031E+03  0.32873479224E+03  0.00000000000E+00 0.  1.
         -1    1    6    6    0  502 -0.34899938300E+02  0.39700212277E+01  0.15000386455E+02  0.38193957057E+02  0.00000000000E+00 0.  1.
<mgrwt>
<rscale>  0 0.26771495E+04</rscale>
<asrwt>0</asrwt>
<pdfrwt beam="1">  1        1 0.58268595E+00 0.26771495E+04</pdfrwt>
<pdfrwt beam="2">  1       -1 0.72782002E-01 0.26771495E+04</pdfrwt>
<totfact> 0.24330742E-01</totfact>
</mgrwt>
</event>
<event>
12    1  0.1598876E-007  0.4641530E+04  0.7818608E-02  0.7886317E-01
         -2   -1    0    0    0  501 -0.00000000000E+00  0.00000000000E+00  0.24304867107E+04  0.24304867107E+04  0.00000000000E+00 0.  1.
          2   -1    0    0  501    0  0.00000000000E+00 -0.00000000000E+00 -0.22159969359E+04  0.22159969359E+04  0.00000000000E+00 0. -1.
         23    2    1    2    0    0 -0.14054774320E+04 -0.39984670300E+03 -0.15868227479E+04  0.21590164537E+04  0.90007869416E+02 0.  0.
        254    2    1    2    0    0  0.14054774320E+04  0.39984670300E+03  0.18013125227E+04  0.24874671929E+04  0.89862229734E+03 0.  0.
        -24    2    4    4    0    0  0.12915601440E+04  0.26473207212E+02  0.11933270600E+04  0.17605642334E+04  0.82027506201E+02 0.  0.
         24    2    4    4    0    0  0.11391728798E+03  0.37337349579E+03  0.60798546278E+03  0.72690295942E+03  0.79728750180E+02 0.  0.
         13    1    3    3    0    0 -0.12680968117E+04 -0.34502008291E+03 -0.13913647063E+04  0.19138976272E+04  0.00000000000E+00 0. -1.
        -13    1    3    3    0    0 -0.13738062026E+03 -0.54826620086E+02 -0.19545804157E+03  0.24511882651E+03  0.00000000000E+00 0.  1.
          2    1    6    6  502    0  0.36862977214E+02  0.34971877166E+02  0.65526126755E+02  0.82919144768E+02  0.00000000000E+00 0. -1.
          1    1    5    5  503    0  0.20298151620E+03 -0.10187871339E+02  0.22458049128E+03  0.30288889994E+03  0.00000000000E+00 0. -1.
         -2    1    5    5    0  503  0.10885786278E+04  0.36661078551E+02  0.96874656869E+03  0.14576753335E+04  0.00000000000E+00 0.  1.
         -1    1    6    6    0  502  0.77054310762E+02  0.33840161862E+03  0.54245933603E+03  0.64398381465E+03  0.00000000000E+00 0.  1.
<mgrwt>
<rscale>  0 0.46415304E+04</rscale>
<asrwt>0</asrwt>
<pdfrwt beam="1">  1        2 0.34092261E+00 0.46415304E+04</pdfrwt>
<pdfrwt beam="2">  1       -2 0.37392103E+00 0.46415304E+04</pdfrwt>
<totfact> 0.41516305E-02</totfact>
</mgrwt>
</event>
<event>
12    1  0.1598876E-007  0.1712838E+04  0.7818608E-02  0.8754076E-01
          2   -1    0    0  501    0  0.00000000000E+00  0.00000000000E+00  0.10407583399E+04  0.10407583399E+04  0.00000000000E+00 0.  1.
         -2   -1    0    0    0  501 -0.00000000000E+00 -0.00000000000E+00 -0.70473024749E+03  0.70473024749E+03  0.00000000000E+00 0. -1.
         23    2    1    2    0    0  0.27613541398E+03  0.53779427306E+03  0.10697258465E+03  0.62059796478E+03  0.90693180761E+02 0.  0.
        254    2    1    2    0    0 -0.27613541398E+03 -0.53779427306E+03  0.22905550777E+03  0.11248906226E+04  0.92056452258E+03 0.  0.
        -24    2    4    4    0    0 -0.47923750782E+03 -0.40417409353E+03  0.45878857945E+03  0.78102722769E+03  0.80568498629E+02 0.  0.
         24    2    4    4    0    0  0.20310209384E+03 -0.13362017952E+03 -0.22973307168E+03  0.34386339493E+03  0.79749214701E+02 0.  0.
         13    1    3    3    0    0  0.27980258230E+03  0.50179921188E+03  0.10700834108E+03  0.58441656305E+03  0.00000000000E+00 0.  1.
        -13    1    3    3    0    0 -0.36671683219E+01  0.35995061175E+02 -0.35756436061E-01  0.36181401728E+02  0.00000000000E+00 0. -1.
          4    1    6    6  502    0  0.16487608373E+03 -0.97394344349E+02 -0.13116350981E+03  0.23210697448E+03  0.00000000000E+00 0. -1.
          1    1    5    5  503    0 -0.10255776439E+03 -0.51117567041E+02  0.65242801416E+02  0.13186251868E+03  0.00000000000E+00 0. -1.
         -2    1    5    5    0  503 -0.37667974344E+03 -0.35305652649E+03  0.39354577804E+03  0.64916470901E+03  0.00000000000E+00 0.  1.
         -3    1    6    6    0  502  0.38226010118E+02 -0.36225835174E+02 -0.98569561870E+02  0.11175642045E+03  0.00000000000E+00 0.  1.
<mgrwt>
<rscale>  0 0.17128384E+04</rscale>
<asrwt>0</asrwt>
<pdfrwt beam="1">  1        2 0.16011667E+00 0.17128384E+04</pdfrwt>
<pdfrwt beam="2">  1       -2 0.10842004E+00 0.17128384E+04</pdfrwt>
<totfact> 0.15348005E+01</totfact>
</mgrwt>
</event>
<event>
12    1  0.1598876E-007  0.1953359E+04  0.7818608E-02  0.8628743E-01
          1   -1    0    0  501    0  0.00000000000E+00  0.00000000000E+00  0.88056393934E+03  0.88056393934E+03  0.00000000000E+00 0. -1.
         -1   -1    0    0    0  501 -0.00000000000E+00 -0.00000000000E+00 -0.10832860435E+04  0.10832860435E+04  0.00000000000E+00 0.  1.
         23    2    1    2    0    0 -0.59923267889E+03  0.20344610023E+03 -0.51307004308E+03  0.81968188918E+03  0.90373730692E+02 0.  0.
        254    2    1    2    0    0  0.59923267889E+03 -0.20344610023E+03  0.31034793889E+03  0.11441680937E+04  0.90129610245E+03 0.  0.
        -24    2    4    4    0    0  0.12548126713E+03 -0.48477140872E+03  0.69794228409E+00  0.50700661983E+03  0.79412582872E+02 0.  0.
         24    2    4    4    0    0  0.47375141176E+03  0.28132530849E+03  0.30964999661E+03  0.63716147385E+03  0.80667800402E+02 0.  0.
         11    1    3    3    0    0 -0.96031166864E+02  0.57275705633E+02 -0.12442480411E+03  0.16728425910E+03  0.00000000000E+00 0. -1.
        -11    1    3    3    0    0 -0.50320151203E+03  0.14617039459E+03 -0.38864523897E+03  0.65239763008E+03  0.00000000000E+00 0.  1.
          4    1    6    6  502    0  0.46228803735E+03  0.26057563896E+03  0.28271366670E+03  0.60127939465E+03  0.00000000000E+00 0. -1.
          3    1    5    5  503    0  0.17757317215E+02 -0.90842535021E+02  0.30683142096E+02  0.97514838320E+02  0.00000000000E+00 0. -1.
         -4    1    5    5    0  503  0.10772394992E+03 -0.39392887370E+03 -0.29985199812E+02  0.40949178151E+03  0.00000000000E+00 0.  1.
         -3    1    6    6    0  502  0.11463374406E+02  0.20749669537E+02  0.26936329911E+02  0.35882079201E+02  0.00000000000E+00 0.  1.
<mgrwt>
<rscale>  0 0.19533588E+04</rscale>
<asrwt>0</asrwt>
<pdfrwt beam="1">  1        1 0.13547138E+00 0.19533588E+04</pdfrwt>
<pdfrwt beam="2">  1       -1 0.16665939E+00 0.19533588E+04</pdfrwt>
<totfact> 0.45805301E+00</totfact>
</mgrwt>
</event>
<event>
12    1  0.1598876E-007  0.2845103E+04  0.7818608E-02  0.8289401E-01
          2   -1    0    0  501    0  0.00000000000E+00  0.00000000000E+00  0.86967007232E+03  0.86967007232E+03  0.00000000000E+00 0. -1.
         -2   -1    0    0    0  501 -0.00000000000E+00 -0.00000000000E+00 -0.23269208418E+04  0.23269208418E+04  0.00000000000E+00 0.  1.
         23    2    1    2    0    0 -0.24607323341E+03 -0.78043721662E+03 -0.17725319487E+04  0.19544096466E+04  0.90627104786E+02 0.  0.
        254    2    1    2    0    0  0.24607323341E+03  0.78043721662E+03  0.31528117930E+03  0.12421812675E+04  0.87976007751E+03 0.  0.
        -24    2    4    4    0    0 -0.10485725777E+03  0.53481145042E+03  0.52243620920E+03  0.75944882528E+03  0.82489960214E+02 0.  0.
         24    2    4    4    0    0  0.35093049118E+03  0.24562576619E+03 -0.20715502990E+03  0.48273244220E+03  0.81444322596E+02 0.  0.
         11    1    3    3    0    0 -0.28761209781E+02 -0.92244171675E+02 -0.14749112914E+03  0.17632307725E+03  0.00000000000E+00 0. -1.
        -11    1    3    3    0    0 -0.21731202363E+03 -0.68819304494E+03 -0.16250408196E+04  0.17780865693E+04  0.00000000000E+00 0.  1.
          4    1    6    6  502    0  0.26994173172E+03  0.22627898261E+03 -0.17667271629E+03  0.39406086481E+03  0.00000000000E+00 0. -1.
          3    1    5    5  503    0 -0.80259719760E+02  0.39912976682E+03  0.33786058668E+03  0.52905195341E+03  0.00000000000E+00 0. -1.
         -4    1    5    5    0  503 -0.24597538010E+02  0.13568168361E+03  0.18457562251E+03  0.23039687187E+03  0.00000000000E+00 0.  1.
         -3    1    6    6    0  502  0.80988759460E+02  0.19346783586E+02 -0.30482313610E+02  0.88671577391E+02  0.00000000000E+00 0.  1.
<mgrwt>
<rscale>  0 0.28451035E+04</rscale>
<asrwt>0</asrwt>
<pdfrwt beam="1">  1        2 0.13379540E+00 0.28451035E+04</pdfrwt>
<pdfrwt beam="2">  1       -2 0.35798782E+00 0.28451035E+04</pdfrwt>
<totfact> 0.36922425E-01</totfact>
</mgrwt>
</event>
<event>
12    1  0.1598876E-007  0.5608970E+04  0.7818608E-02  0.7740870E-01
         -2   -1    0    0    0  501 -0.00000000000E+00  0.00000000000E+00  0.25244106563E+04  0.25244106563E+04  0.00000000000E+00 0. -1.
          2   -1    0    0  501    0  0.00000000000E+00 -0.00000000000E+00 -0.31156327347E+04  0.31156327347E+04  0.00000000000E+00 0.  1.
         23    2    1    2    0    0 -0.17289435506E+03  0.19874318925E+04 -0.21666137578E+04  0.29465901343E+04  0.91652925897E+02 0.  0.
        254    2    1    2    0    0  0.17289435506E+03 -0.19874318925E+04  0.15753916794E+04  0.26934532566E+04  0.89053552233E+03 0.  0.
        -24    2    4    4    0    0  0.18950978933E+03 -0.18130950841E+04  0.98734709417E+03  0.20747087448E+04  0.79588614101E+02 0.  0.
         24    2    4    4    0    0 -0.16615434272E+02 -0.17433680844E+03  0.58804458525E+03  0.61874451175E+03  0.79868273646E+02 0.  0.
         13    1    3    3    0    0 -0.12274708010E+03  0.17082020438E+04 -0.18301474075E+04  0.25064837126E+04  0.00000000000E+00 0. -1.
        -13    1    3    3    0    0 -0.50147274964E+02  0.27922984867E+03 -0.33646635032E+03  0.44010642176E+03  0.00000000000E+00 0.  1.
          2    1    6    6  502    0 -0.54006982638E+01 -0.12720544886E+03  0.28902532059E+03  0.31582594843E+03  0.00000000000E+00 0. -1.
          3    1    5    5  503    0  0.19541743624E+03 -0.17939872786E+04  0.97883444274E+03  0.20529722834E+04  0.00000000000E+00 0. -1.
         -4    1    5    5    0  503 -0.59076469047E+01 -0.19107805500E+02  0.85126514290E+01  0.21736461472E+02  0.00000000000E+00 0.  1.
         -1    1    6    6    0  502 -0.11214736008E+02 -0.47131359585E+02  0.29901926467E+03  0.30291856332E+03  0.00000000000E+00 0.  1.
<mgrwt>
<rscale>  0 0.56089701E+04</rscale>
<asrwt>0</asrwt>
<pdfrwt beam="1">  1        2 0.47932811E+00 0.56089701E+04</pdfrwt>
<pdfrwt beam="2">  1       -2 0.38837087E+00 0.56089701E+04</pdfrwt>
<totfact> 0.90172910E-03</totfact>
</mgrwt>
</event>
<event>
12    1  0.1598876E-007  0.1159683E+04  0.7818608E-02  0.9148897E-01
         -2   -1    0    0    0  501 -0.00000000000E+00  0.00000000000E+00  0.51531167711E+03  0.51531167711E+03  0.00000000000E+00 0. -1.
          2   -1    0    0  501    0  0.00000000000E+00 -0.00000000000E+00 -0.65245216800E+03  0.65245216800E+03  0.00000000000E+00 0.  1.
         23    2    1    2    0    0  0.20680083593E+03 -0.50508458163E+02  0.15957243165E+02  0.23177177947E+03  0.90254274476E+02 0.  0.
        254    2    1    2    0    0 -0.20680083593E+03  0.50508458163E+02 -0.15309773405E+03  0.93599206564E+03  0.89851240431E+03 0.  0.
        -24    2    4    4    0    0  0.34029390602E+03  0.10974821462E+03 -0.40970411890E+02  0.36891915820E+03  0.81105841659E+02 0.  0.
         24    2    4    4    0    0 -0.54709474194E+03 -0.59239756458E+02 -0.11212732216E+03  0.56707290745E+03  0.78594787208E+02 0.  0.
         11    1    3    3    0    0  0.20326024749E+03 -0.67105283749E+02  0.12249974804E+02  0.21440128078E+03  0.00000000000E+00 0. -1.
        -11    1    3    3    0    0  0.35405884395E+01  0.16596825586E+02  0.37072683609E+01  0.17370498690E+02  0.00000000000E+00 0.  1.
          4    1    6    6  502    0 -0.43946095502E+03 -0.33707320124E+02 -0.60107884669E+02  0.44483150991E+03  0.00000000000E+00 0. -1.
          1    1    5    5  503    0  0.23419009951E+03  0.51130471972E+02 -0.57693638774E+02  0.24655199012E+03  0.00000000000E+00 0. -1.
         -2    1    5    5    0  503  0.10610380650E+03  0.58617742648E+02  0.16723226884E+02  0.12236716808E+03  0.00000000000E+00 0.  1.
         -3    1    6    6    0  502 -0.10763378693E+03 -0.25532436333E+02 -0.52019437489E+02  0.12224139753E+03  0.00000000000E+00 0.  1.
<mgrwt>
<rscale>  0 0.11596831E+04</rscale>
<asrwt>0</asrwt>
<pdfrwt beam="1">  1        2 0.10037726E+00 0.11596831E+04</pdfrwt>
<pdfrwt beam="2">  1       -2 0.79278719E-01 0.11596831E+04</pdfrwt>
<totfact> 0.62492791E+01</totfact>
</mgrwt>
</event>
<event>
12    1  0.1598876E-007  0.1956975E+04  0.7818608E-02  0.8627005E-01
          4   -1    0    0  501    0  0.00000000000E+00  0.00000000000E+00  0.81824813129E+03  0.81824813129E+03  0.00000000000E+00 0. -1.
         -4   -1    0    0    0  501 -0.00000000000E+00 -0.00000000000E+00 -0.11701072844E+04  0.11701072844E+04  0.00000000000E+00 0.  1.
         23    2    1    2    0    0 -0.61711814710E+03  0.27267626962E+03  0.23551083754E+03  0.72030106025E+03  0.90449473768E+02 0.  0.
        254    2    1    2    0    0  0.61711814710E+03 -0.27267626962E+03 -0.58736999068E+03  0.12680543555E+04  0.89876091759E+03 0.  0.
        -24    2    4    4    0    0  0.69411352818E+03  0.71669059785E+01 -0.65712368897E+03  0.95908175116E+03  0.78621296369E+02 0.  0.
         24    2    4    4    0    0 -0.76995381078E+02 -0.27984317560E+03  0.69753698292E+02  0.30897260432E+03  0.79737068901E+02 0.  0.
         11    1    3    3    0    0 -0.36293839194E+03  0.18320897806E+03  0.99979583880E+02  0.41867137850E+03  0.00000000000E+00 0. -1.
        -11    1    3    3    0    0 -0.25417975516E+03  0.89467291565E+02  0.13553125365E+03  0.30162968175E+03  0.00000000000E+00 0.  1.
          2    1    6    6  502    0 -0.71128302803E+02 -0.11892315550E+03  0.17457391506E+02  0.13966643438E+03  0.00000000000E+00 0. -1.
          1    1    5    5  503    0  0.30525014233E+03  0.35905097735E+01 -0.34306634729E+03  0.45922223356E+03  0.00000000000E+00 0. -1.
         -2    1    5    5    0  503  0.38886338585E+03  0.35763962050E+01 -0.31405734169E+03  0.49985951760E+03  0.00000000000E+00 0.  1.
         -1    1    6    6    0  502 -0.58670782752E+01 -0.16092002010E+03  0.52296306786E+02  0.16930616994E+03  0.00000000000E+00 0.  1.
<mgrwt>
<rscale>  0 0.19569753E+04</rscale>
<asrwt>0</asrwt>
<pdfrwt beam="1">  1        4 0.12588433E+00 0.19569753E+04</pdfrwt>
<pdfrwt beam="2">  1       -4 0.18001651E+00 0.19569753E+04</pdfrwt>
<totfact> 0.15731236E-01</totfact>
</mgrwt>
</event>
<event>
12    1  0.1598876E-007  0.1311620E+04  0.7818608E-02  0.9020400E-01
          3   -1    0    0  501    0  0.00000000000E+00  0.00000000000E+00  0.20129801798E+03  0.20129801798E+03  0.00000000000E+00 0. -1.
         -3   -1    0    0    0  501 -0.00000000000E+00 -0.00000000000E+00 -0.21365688571E+04  0.21365688571E+04  0.00000000000E+00 0.  1.
         23    2    1    2    0    0  0.11487442488E+03 -0.21506008219E+03 -0.10115034665E+03  0.27936659678E+03  0.91473112576E+02 0.  0.
        254    2    1    2    0    0 -0.11487442488E+03  0.21506008219E+03 -0.18341204925E+04  0.20585002783E+04  0.90220753844E+03 0.  0.
        -24    2    4    4    0    0  0.20971875833E+03  0.44645652444E+03 -0.12509374461E+04  0.13475652436E+04  0.88216811675E+02 0.  0.
         24    2    4    4    0    0 -0.32459318321E+03 -0.23139644225E+03 -0.58318304633E+03  0.71093503468E+03  0.80131828441E+02 0.  0.
         11    1    3    3    0    0  0.29463113327E+02 -0.98167237348E+02  0.46047596209E+00  0.10249435874E+03  0.00000000000E+00 0.  1.
        -11    1    3    3    0    0  0.85411311556E+02 -0.11689284484E+03 -0.10161082261E+03  0.17687223803E+03  0.00000000000E+00 0. -1.
          2    1    6    6  502    0 -0.25704636594E+03 -0.20622838833E+03 -0.51685992567E+03  0.61298218993E+03  0.00000000000E+00 0. -1.
          3    1    5    5  503    0  0.21471546663E+03  0.41148386142E+03 -0.11309472982E+04  0.12224825116E+04  0.00000000000E+00 0. -1.
         -4    1    5    5    0  503 -0.49967082990E+01  0.34972663020E+02 -0.11999014797E+03  0.12508273207E+03  0.00000000000E+00 0.  1.
         -1    1    6    6    0  502 -0.67546817269E+02 -0.25168053918E+02 -0.66323120659E+02  0.97952844753E+02  0.00000000000E+00 0.  1.
<mgrwt>
<rscale>  0 0.13116205E+04</rscale>
<asrwt>0</asrwt>
<pdfrwt beam="1">  1        3 0.30968926E-01 0.13116205E+04</pdfrwt>
<pdfrwt beam="2">  1       -3 0.32870290E+00 0.13116205E+04</pdfrwt>
<totfact> 0.69564083E-01</totfact>
</mgrwt>
</event>
<event>
12    1  0.1598876E-007  0.1511101E+04  0.7818608E-02  0.8877105E-01
         -4   -1    0    0    0  501 -0.00000000000E+00  0.00000000000E+00  0.43403311937E+03  0.43403311937E+03  0.00000000000E+00 0.  1.
          4   -1    0    0  501    0  0.00000000000E+00 -0.00000000000E+00 -0.13152364537E+04  0.13152364537E+04  0.00000000000E+00 0. -1.
         23    2    1    2    0    0  0.43537807703E+03  0.74423013690E+02 -0.58719706658E+02  0.45478716324E+03  0.91052210138E+02 0.  0.
        254    2    1    2    0    0 -0.43537807703E+03 -0.74423013690E+02 -0.82248362766E+03  0.12944824098E+04  0.89672322186E+03 0.  0.
        -24    2    4    4    0    0 -0.65926626575E+03  0.77117567802E+02 -0.37739322582E+03  0.76778281552E+03  0.80533697858E+02 0.  0.
         24    2    4    4    0    0  0.22388818872E+03 -0.15154058149E+03 -0.44509040184E+03  0.52669959429E+03  0.78844961340E+02 0.  0.
         11    1    3    3    0    0  0.31316972899E+03  0.60521790557E+02 -0.82618316788E+02  0.32949044380E+03  0.00000000000E+00 0. -1.
        -11    1    3    3    0    0  0.12220834804E+03  0.13901223132E+02  0.23898610130E+02  0.12529671944E+03  0.00000000000E+00 0.  1.
          4    1    6    6  502    0  0.17332810346E+03 -0.82707454747E+02 -0.34730601024E+03  0.39686851635E+03  0.00000000000E+00 0. -1.
          1    1    5    5  503    0 -0.60272879591E+03  0.92332438326E+02 -0.33745891302E+03  0.69691161460E+03  0.00000000000E+00 0. -1.
         -2    1    5    5    0  503 -0.56537469846E+02 -0.15214870524E+02 -0.39934312803E+02  0.70871200926E+02  0.00000000000E+00 0.  1.
         -3    1    6    6    0  502  0.50560085261E+02 -0.68833126745E+02 -0.97784391598E+02  0.12983107794E+03  0.00000000000E+00 0.  1.
<mgrwt>
<rscale>  0 0.15111005E+04</rscale>
<asrwt>0</asrwt>
<pdfrwt beam="1">  1        4 0.20234407E+00 0.15111005E+04</pdfrwt>
<pdfrwt beam="2">  1       -4 0.66774327E-01 0.15111005E+04</pdfrwt>
<totfact> 0.50945028E-01</totfact>
</mgrwt>
</event>
<event>
12    1  0.1598876E-007  0.1557288E+04  0.7818608E-02  0.8847226E-01
          2   -1    0    0  501    0  0.00000000000E+00  0.00000000000E+00  0.45294934006E+03  0.45294934006E+03  0.00000000000E+00 0. -1.
         -2   -1    0    0    0  501 -0.00000000000E+00 -0.00000000000E+00 -0.13385304904E+04  0.13385304904E+04  0.00000000000E+00 0.  1.
         23    2    1    2    0    0 -0.35055364115E+03  0.36305020542E+03 -0.41141781926E+03  0.65709102999E+03  0.88378123474E+02 0.  0.
        254    2    1    2    0    0  0.35055364115E+03 -0.36305020542E+03 -0.47416333108E+03  0.11343888005E+04  0.89850641573E+03 0.  0.
        -24    2    4    4    0    0 -0.19511491399E+03  0.16259791818E+03 -0.15421236253E+03  0.30803016088E+03  0.81198612011E+02 0.  0.
         24    2    4    4    0    0  0.54566855514E+03 -0.52564812360E+03 -0.31995096855E+03  0.82635863959E+03  0.80248719818E+02 0.  0.
         13    1    3    3    0    0 -0.11098594418E+03  0.15519976228E+03 -0.11384202309E+03  0.22218202501E+03  0.00000000000E+00 0. -1.
        -13    1    3    3    0    0 -0.23956769697E+03  0.20785044314E+03 -0.29757579616E+03  0.43490900498E+03  0.00000000000E+00 0.  1.
          4    1    6    6  502    0  0.13914702132E+03 -0.13111726096E+03 -0.43807172108E+02  0.19614458441E+03  0.00000000000E+00 0. -1.
          1    1    5    5  503    0 -0.94551599270E+02  0.75132755256E+02 -0.12039515959E+03  0.17052838558E+03  0.00000000000E+00 0. -1.
         -2    1    5    5    0  503 -0.10056331472E+03  0.87465162927E+02 -0.33817202939E+02  0.13750177529E+03  0.00000000000E+00 0.  1.
         -3    1    6    6    0  502  0.40652153383E+03 -0.39453086264E+03 -0.27614379644E+03  0.63021405519E+03  0.00000000000E+00 0.  1.
<mgrwt>
<rscale>  0 0.15572880E+04</rscale>
<asrwt>0</asrwt>
<pdfrwt beam="1">  1        2 0.69684516E-01 0.15572880E+04</pdfrwt>
<pdfrwt beam="2">  1       -2 0.20592776E+00 0.15572880E+04</pdfrwt>
<totfact> 0.80718655E+00</totfact>
</mgrwt>
</event>
<event>
12    1  0.1598876E-007  0.1719439E+04  0.7818608E-02  0.8750355E-01
          1   -1    0    0  501    0  0.00000000000E+00  0.00000000000E+00  0.83844206538E+03  0.83844206538E+03  0.00000000000E+00 0. -1.
         -1   -1    0    0    0  501 -0.00000000000E+00 -0.00000000000E+00 -0.88153683973E+03  0.88153683973E+03  0.00000000000E+00 0.  1.
         23    2    1    2    0    0  0.25852860564E+03  0.31583998605E+03 -0.48469695116E+03  0.64029541462E+03  0.91951872206E+02 0.  0.
        254    2    1    2    0    0 -0.25852860564E+03 -0.31583998605E+03  0.44160217681E+03  0.10796834905E+04  0.89672293400E+03 0.  0.
        -24    2    4    4    0    0 -0.18277268469E+03  0.26703748143E+03  0.34517326165E+03  0.47872880455E+03  0.72950784729E+02 0.  0.
         24    2    4    4    0    0 -0.75755920948E+02 -0.58287746747E+03  0.96428915160E+02  0.60095468594E+03  0.79767770627E+02 0.  0.
         11    1    3    3    0    0  0.12221379524E+02  0.28954543695E+02 -0.82430695908E+02  0.88218747134E+02  0.00000000000E+00 0.  1.
        -11    1    3    3    0    0  0.24630722611E+03  0.28688544235E+03 -0.40226625526E+03  0.55207666749E+03  0.00000000000E+00 0. -1.
          2    1    6    6  502    0 -0.92512933520E+02 -0.46667754233E+03  0.76190522629E+02  0.48182109452E+03  0.00000000000E+00 0. -1.
          1    1    5    5  503    0 -0.16393174791E+03  0.18608895163E+03  0.27078690824E+03  0.36718968609E+03  0.00000000000E+00 0. -1.
         -2    1    5    5    0  503 -0.18840936780E+02  0.80948529792E+02  0.74386353409E+02  0.11153911846E+03  0.00000000000E+00 0.  1.
         -1    1    6    6    0  502  0.16757012572E+02 -0.11619992514E+03  0.20238392531E+02  0.11913359142E+03  0.00000000000E+00 0.  1.
<mgrwt>
<rscale>  0 0.17194389E+04</rscale>
<asrwt>0</asrwt>
<pdfrwt beam="1">  1        1 0.12899109E+00 0.17194389E+04</pdfrwt>
<pdfrwt beam="2">  1       -1 0.13562105E+00 0.17194389E+04</pdfrwt>
<totfact> 0.88613093E+00</totfact>
</mgrwt>
</event>
<event>
12    1  0.1598876E-007  0.1389509E+04  0.7818608E-02  0.8961448E-01
         -1   -1    0    0    0  501 -0.00000000000E+00  0.00000000000E+00  0.25976734880E+03  0.25976734880E+03  0.00000000000E+00 0.  1.
          1   -1    0    0  501    0  0.00000000000E+00 -0.00000000000E+00 -0.18581384469E+04  0.18581384469E+04  0.00000000000E+00 0. -1.
         23    2    1    2    0    0  0.16320012936E+03 -0.44051938883E+02 -0.99849004824E+03  0.10168058045E+04  0.91306145234E+02 0.  0.
        254    2    1    2    0    0 -0.16320012936E+03  0.44051938883E+02 -0.59988104983E+03  0.11010999911E+04  0.90773843203E+03 0.  0.
        -24    2    4    4    0    0 -0.31793233030E+03  0.25977087289E+02 -0.78243281919E+03  0.84871342045E+03  0.79734420408E+02 0.  0.
         24    2    4    4    0    0  0.15473220095E+03  0.18074851594E+02  0.18255176936E+03  0.25238657068E+03  0.78135000435E+02 0.  0.
         11    1    3    3    0    0  0.79559883567E+02  0.20206848733E+02 -0.33057878235E+03  0.34061770822E+03  0.00000000000E+00 0. -1.
        -11    1    3    3    0    0  0.83640245790E+02 -0.64258787616E+02 -0.66791126589E+03  0.67618809632E+03  0.00000000000E+00 0.  1.
          2    1    6    6  502    0  0.16163545405E+03  0.22898825279E+02  0.16116065527E+03  0.22939732564E+03  0.00000000000E+00 0. -1.
          3    1    5    5  503    0 -0.27085537490E+03  0.47795347974E+02 -0.68847809768E+03  0.74138324798E+03  0.00000000000E+00 0. -1.
         -4    1    5    5    0  503 -0.47076955402E+02 -0.21818260685E+02 -0.93954721507E+02  0.10733017247E+03  0.00000000000E+00 0.  1.
         -1    1    6    6    0  502 -0.69032531004E+01 -0.48239736844E+01  0.21391114087E+02  0.22989245037E+02  0.00000000000E+00 0.  1.
<mgrwt>
<rscale>  0 0.13895088E+04</rscale>
<asrwt>0</asrwt>
<pdfrwt beam="1">  1        1 0.28586744E+00 0.13895088E+04</pdfrwt>
<pdfrwt beam="2">  1       -1 0.39964209E-01 0.13895088E+04</pdfrwt>
<totfact> 0.22157063E+01</totfact>
</mgrwt>
</event>
<event>
12    1  0.1598876E-007  0.1363843E+04  0.7818608E-02  0.8980415E-01
         -2   -1    0    0    0  501 -0.00000000000E+00  0.00000000000E+00  0.21760042515E+03  0.21760042515E+03  0.00000000000E+00 0. -1.
          2   -1    0    0  501    0  0.00000000000E+00 -0.00000000000E+00 -0.21370225778E+04  0.21370225778E+04  0.00000000000E+00 0.  1.
         23    2    1    2    0    0  0.24872508630E+03  0.17536592986E+03 -0.18408767066E+03  0.36768241497E+03  0.93191790845E+02 0.  0.
        254    2    1    2    0    0 -0.24872508630E+03 -0.17536592986E+03 -0.17353344820E+04  0.19869405880E+04  0.91865649611E+03 0.  0.
        -24    2    4    4    0    0 -0.40401081324E+03 -0.40998866294E+03 -0.69274054559E+03  0.90408417166E+03  0.78506591943E+02 0.  0.
         24    2    4    4    0    0  0.15528572694E+03  0.23462273308E+03 -0.10425939364E+04  0.10828564163E+04  0.80090063616E+02 0.  0.
         11    1    3    3    0    0  0.21017945899E+03  0.10703538506E+03 -0.16213477154E+03  0.28621611202E+03  0.00000000000E+00 0.  1.
        -11    1    3    3    0    0  0.38545627312E+02  0.68330544799E+02 -0.21952899117E+02  0.81466302954E+02  0.00000000000E+00 0. -1.
          4    1    6    6  502    0  0.57019448535E+02  0.33190395923E+02 -0.30046254794E+03  0.30762080977E+03  0.00000000000E+00 0. -1.
          3    1    5    5  503    0 -0.16302107861E+03 -0.15217782447E+03 -0.21183776641E+03  0.30758608813E+03  0.00000000000E+00 0. -1.
         -4    1    5    5    0  503 -0.24098973464E+03 -0.25781083846E+03 -0.48090277918E+03  0.59649808353E+03  0.00000000000E+00 0.  1.
         -3    1    6    6    0  502  0.98266278405E+02  0.20143233716E+03 -0.74213138843E+03  0.77523560652E+03  0.00000000000E+00 0.  1.
<mgrwt>
<rscale>  0 0.13638431E+04</rscale>
<asrwt>0</asrwt>
<pdfrwt beam="1">  1        2 0.32877269E+00 0.13638431E+04</pdfrwt>
<pdfrwt beam="2">  1       -2 0.33476990E-01 0.13638431E+04</pdfrwt>
<totfact> 0.45652175E+01</totfact>
</mgrwt>
</event>
<event>
12    1  0.1598876E-007  0.2623925E+04  0.7818608E-02  0.8360120E-01
          1   -1    0    0  501    0  0.00000000000E+00  0.00000000000E+00  0.14342809719E+04  0.14342809719E+04  0.00000000000E+00 0. -1.
         -1   -1    0    0    0  501 -0.00000000000E+00 -0.00000000000E+00 -0.12000752708E+04  0.12000752708E+04  0.00000000000E+00 0.  1.
         23    2    1    2    0    0 -0.16252990291E+03 -0.42020690680E+03 -0.96386041638E+03  0.10677993427E+04  0.90436277083E+02 0.  0.
        254    2    1    2    0    0  0.16252990291E+03  0.42020690680E+03  0.11980661175E+04  0.15665569000E+04  0.90318784586E+03 0.  0.
        -24    2    4    4    0    0 -0.12198088527E+03 -0.21001527663E+03  0.11696131801E+03  0.28071365373E+03  0.78322746982E+02 0.  0.
         24    2    4    4    0    0  0.28451078818E+03  0.63022218343E+03  0.10811047995E+04  0.12858432462E+04  0.80491472725E+02 0.  0.
         13    1    3    3    0    0 -0.19449997024E+02 -0.78362445461E+02 -0.10542478399E+03  0.13279066354E+03  0.00000000000E+00 0. -1.
        -13    1    3    3    0    0 -0.14307990589E+03 -0.34184446134E+03 -0.85843563238E+03  0.93500867919E+03  0.00000000000E+00 0.  1.
          4    1    6    6  502    0  0.38822850329E+02  0.69140193314E+02  0.83070696108E+02  0.11484041358E+03  0.00000000000E+00 0. -1.
          3    1    5    5  503    0 -0.38691758570E+02 -0.96954790032E+02  0.89765051074E+02  0.13767733251E+03  0.00000000000E+00 0. -1.
         -4    1    5    5    0  503 -0.83289126698E+02 -0.11306048660E+03  0.27196266931E+02  0.14303632123E+03  0.00000000000E+00 0.  1.
         -3    1    6    6    0  502  0.24568793785E+03  0.56108199011E+03  0.99803410343E+03  0.11710028326E+04  0.00000000000E+00 0.  1.
<mgrwt>
<rscale>  0 0.26239246E+04</rscale>
<asrwt>0</asrwt>
<pdfrwt beam="1">  1        1 0.22065861E+00 0.26239246E+04</pdfrwt>
<pdfrwt beam="2">  1       -1 0.18462696E+00 0.26239246E+04</pdfrwt>
<totfact> 0.12321379E+00</totfact>
</mgrwt>
</event>
<event>
12    1  0.1598876E-007  0.1197995E+04  0.7818608E-02  0.9114613E-01
         -2   -1    0    0    0  501 -0.00000000000E+00  0.00000000000E+00  0.89348636089E+03  0.89348636089E+03  0.00000000000E+00 0.  1.
          2   -1    0    0  501    0  0.00000000000E+00 -0.00000000000E+00 -0.40157087180E+03  0.40157087180E+03  0.00000000000E+00 0. -1.
         23    2    1    2    0    0 -0.75537677630E+02  0.46351045815E+02 -0.14251445951E+03  0.19241637241E+03  0.94124008698E+02 0.  0.
        254    2    1    2    0    0  0.75537677630E+02 -0.46351045815E+02  0.63442994859E+03  0.11026408603E+04  0.89747487257E+03 0.  0.
        -24    2    4    4    0    0  0.22856912877E+03  0.35794965927E+03  0.17266825279E+03  0.46520127496E+03  0.78905611355E+02 0.  0.
         24    2    4    4    0    0 -0.15303145114E+03 -0.40430070509E+03  0.46176169580E+03  0.63743958532E+03  0.78915626149E+02 0.  0.
         13    1    3    3    0    0 -0.36501123060E+02  0.32335194063E+02 -0.14284454503E+03  0.15093859945E+03  0.00000000000E+00 0. -1.
        -13    1    3    3    0    0 -0.39036554570E+02  0.14015851752E+02  0.33008552425E+00  0.41477772957E+02  0.00000000000E+00 0.  1.
          2    1    6    6  502    0 -0.50452939112E+02 -0.12556156380E+03  0.94227003159E+02  0.16489370362E+03  0.00000000000E+00 0. -1.
          3    1    5    5  503    0 -0.52778731860E+01  0.22046743540E+02  0.82343485032E+01  0.24118858625E+02  0.00000000000E+00 0. -1.
         -4    1    5    5    0  503  0.23384700196E+03  0.33590291573E+03  0.16443390429E+03  0.44108241634E+03  0.00000000000E+00 0.  1.
         -1    1    6    6    0  502 -0.10257851203E+03 -0.27873914128E+03  0.36753469264E+03  0.47254588170E+03  0.00000000000E+00 0.  1.
<mgrwt>
<rscale>  0 0.11979952E+04</rscale>
<asrwt>0</asrwt>
<pdfrwt beam="1">  1        2 0.61780134E-01 0.11979952E+04</pdfrwt>
<pdfrwt beam="2">  1       -2 0.13745944E+00 0.11979952E+04</pdfrwt>
<totfact> 0.29401318E+01</totfact>
</mgrwt>
</event>
<event>
12    1  0.1598876E-007  0.1928374E+04  0.7818608E-02  0.8640860E-01
          2   -1    0    0  501    0  0.00000000000E+00  0.00000000000E+00  0.94058219134E+03  0.94058219134E+03  0.00000000000E+00 0. -1.
         -2   -1    0    0    0  501 -0.00000000000E+00 -0.00000000000E+00 -0.98838419014E+03  0.98838419014E+03  0.00000000000E+00 0.  1.
         23    2    1    2    0    0  0.45556775366E+03  0.44700444788E+03  0.37820117295E+03  0.74757651845E+03  0.92084575848E+02 0.  0.
        254    2    1    2    0    0 -0.45556775366E+03 -0.44700444788E+03 -0.42600317175E+03  0.11813898630E+04  0.89824737770E+03 0.  0.
        -24    2    4    4    0    0 -0.52817512099E+03  0.64633574698E+02 -0.59779047092E+02  0.54268727755E+03  0.88258083664E+02 0.  0.
         24    2    4    4    0    0  0.72607367325E+02 -0.51163802258E+03 -0.36622412466E+03  0.63870258549E+03  0.82313955618E+02 0.  0.
         13    1    3    3    0    0  0.42245680926E+01  0.54393304516E+01  0.21048629485E+02  0.22146740043E+02  0.00000000000E+00 0.  1.
        -13    1    3    3    0    0  0.45134318557E+03  0.44156511743E+03  0.35715254346E+03  0.72542977840E+03  0.00000000000E+00 0. -1.
          2    1    6    6  502    0  0.26620117696E+02 -0.35021770067E+03 -0.28462251074E+03  0.45207415559E+03  0.00000000000E+00 0. -1.
          3    1    5    5  503    0 -0.31819810545E+02  0.19468101758E+02  0.11896243913E+02  0.39153900807E+02  0.00000000000E+00 0. -1.
         -4    1    5    5    0  503 -0.49635531044E+03  0.45165472940E+02 -0.71675291005E+02  0.50353337674E+03  0.00000000000E+00 0.  1.
         -1    1    6    6    0  502  0.45987249629E+02 -0.16142032191E+03 -0.81601613916E+02  0.18662842990E+03  0.00000000000E+00 0.  1.
<mgrwt>
<rscale>  0 0.19283740E+04</rscale>
<asrwt>0</asrwt>
<pdfrwt beam="1">  1        2 0.14470495E+00 0.19283740E+04</pdfrwt>
<pdfrwt beam="2">  1       -2 0.15205911E+00 0.19283740E+04</pdfrwt>
<totfact> 0.74350109E+00</totfact>
</mgrwt>
</event>
<event>
12    1  0.1598876E-007  0.1364245E+04  0.7818608E-02  0.8980114E-01
         -1   -1    0    0    0  501 -0.00000000000E+00  0.00000000000E+00  0.67778310162E+03  0.67778310162E+03  0.00000000000E+00 0.  1.
          1   -1    0    0  501    0  0.00000000000E+00 -0.00000000000E+00 -0.68648981094E+03  0.68648981094E+03  0.00000000000E+00 0. -1.
         23    2    1    2    0    0  0.13916236529E+03  0.92976123678E+02 -0.32734785830E+03  0.37887202914E+03  0.91524153332E+02 0.  0.
        254    2    1    2    0    0 -0.13916236529E+03 -0.92976123678E+02  0.31864114898E+03  0.98540088342E+03  0.91731782700E+03 0.  0.
        -24    2    4    4    0    0  0.96906613620E+02  0.76453574500E+02 -0.27931434731E+03  0.31585252020E+03  0.80686238510E+02 0.  0.
         24    2    4    4    0    0 -0.23606897891E+03 -0.16942969818E+03  0.59795549629E+03  0.66954836323E+03  0.79430785798E+02 0.  0.
         13    1    3    3    0    0  0.96249091415E+02  0.10430924661E+03 -0.21050599047E+03  0.25388398640E+03  0.00000000000E+00 0. -1.
        -13    1    3    3    0    0  0.42913273877E+02 -0.11333122930E+02 -0.11684186783E+03  0.12498804274E+03  0.00000000000E+00 0.  1.
          2    1    6    6  502    0 -0.14019797612E+03 -0.76774766363E+02  0.40124832544E+03  0.43191440810E+03  0.00000000000E+00 0. -1.
          1    1    5    5  503    0 -0.11286138748E+02  0.61710495435E+00 -0.73214688138E+01  0.13467058029E+02  0.00000000000E+00 0. -1.
         -2    1    5    5    0  503  0.10819275237E+03  0.75836469546E+02 -0.27199287849E+03  0.30238546217E+03  0.00000000000E+00 0.  1.
         -1    1    6    6    0  502 -0.95871002797E+02 -0.92654931814E+02  0.19670717085E+03  0.23763395513E+03  0.00000000000E+00 0.  1.
<mgrwt>
<rscale>  0 0.13642451E+04</rscale>
<asrwt>0</asrwt>
<pdfrwt beam="1">  1        1 0.10561382E+00 0.13642451E+04</pdfrwt>
<pdfrwt beam="2">  1       -1 0.10427432E+00 0.13642451E+04</pdfrwt>
<totfact> 0.23751336E+01</totfact>
</mgrwt>
</event>
<event>
12    1  0.1598876E-007  0.1596714E+04  0.7818608E-02  0.8822569E-01
         -2   -1    0    0    0  501 -0.00000000000E+00  0.00000000000E+00  0.79669971831E+03  0.79669971831E+03  0.00000000000E+00 0.  1.
          2   -1    0    0  501    0  0.00000000000E+00 -0.00000000000E+00 -0.80001744061E+03  0.80001744061E+03  0.00000000000E+00 0. -1.
         23    2    1    2    0    0  0.35345490545E+03  0.23428966333E+03 -0.35696765743E+03  0.56104528397E+03  0.86740334788E+02 0.  0.
        254    2    1    2    0    0 -0.35345490545E+03 -0.23428966333E+03  0.35364993512E+03  0.10356718750E+04  0.87619971435E+03 0.  0.
        -24    2    4    4    0    0 -0.53257954008E+03  0.16220827826E+02  0.45085093264E+03  0.70253513597E+03  0.79906020027E+02 0.  0.
         24    2    4    4    0    0  0.17912463462E+03 -0.25051049116E+03 -0.97200997524E+02  0.33313673899E+03  0.81797995279E+02 0.  0.
         11    1    3    3    0    0  0.29230498457E+03  0.22457724194E+03 -0.32467415200E+03  0.49121323941E+03  0.00000000000E+00 0. -1.
        -11    1    3    3    0    0  0.61149920887E+02  0.97124213963E+01 -0.32293505430E+02  0.69832044555E+02  0.00000000000E+00 0.  1.
          2    1    6    6  502    0  0.17938285774E+03 -0.24624729388E+03 -0.79404482172E+02  0.31483489512E+03  0.00000000000E+00 0. -1.
          1    1    5    5  503    0 -0.47877217593E+03  0.35157198563E+02  0.41903556061E+03  0.63722023360E+03  0.00000000000E+00 0. -1.
         -2    1    5    5    0  503 -0.53807364149E+02 -0.18936370737E+02  0.31815372032E+02  0.65314902364E+02  0.00000000000E+00 0.  1.
         -1    1    6    6    0  502 -0.25822311689E+00 -0.42631972773E+01 -0.17796515352E+02  0.18301843866E+02  0.00000000000E+00 0.  1.
<mgrwt>
<rscale>  0 0.15967137E+04</rscale>
<asrwt>0</asrwt>
<pdfrwt beam="1">  1        2 0.12307961E+00 0.15967137E+04</pdfrwt>
<pdfrwt beam="2">  1       -2 0.12256919E+00 0.15967137E+04</pdfrwt>
<totfact> 0.16639198E+01</totfact>
</mgrwt>
</event>
<event>
12    1  0.1598876E-007  0.1410948E+04  0.7818608E-02  0.8945932E-01
         -2   -1    0    0    0  501 -0.00000000000E+00  0.00000000000E+00  0.40070048153E+03  0.40070048153E+03  0.00000000000E+00 0.  1.
          2   -1    0    0  501    0  0.00000000000E+00 -0.00000000000E+00 -0.12420590476E+04  0.12420590476E+04  0.00000000000E+00 0. -1.
         23    2    1    2    0    0 -0.27703573416E+03  0.24371045265E+03 -0.52329638892E+02  0.38383321726E+03  0.91901930524E+02 0.  0.
        254    2    1    2    0    0  0.27703573416E+03 -0.24371045265E+03 -0.78902892723E+03  0.12589263119E+04  0.90894731866E+03 0.  0.
        -24    2    4    4    0    0  0.29434892429E+03 -0.51186297220E+03 -0.24184498010E+03  0.64394437989E+03  0.86777753229E+02 0.  0.
         24    2    4    4    0    0 -0.17313190126E+02  0.26815251955E+03 -0.54718394712E+03  0.61498193202E+03  0.81160239183E+02 0.  0.
         13    1    3    3    0    0 -0.15850428568E+03  0.13979128814E+03  0.16167531365E+02  0.21195896275E+03  0.00000000000E+00 0.  1.
        -13    1    3    3    0    0 -0.11853144848E+03  0.10391916451E+03 -0.68497170257E+02  0.17187425451E+03  0.00000000000E+00 0. -1.
          2    1    6    6  502    0 -0.32014193062E+02  0.24267430494E+03 -0.52085391545E+03  0.57550371682E+03  0.00000000000E+00 0. -1.
          1    1    5    5  503    0  0.29296194639E+03 -0.47429813790E+03 -0.21391651632E+03  0.59711447948E+03  0.00000000000E+00 0. -1.
         -2    1    5    5    0  503  0.13869779001E+01 -0.37564834298E+02 -0.27928463781E+02  0.46829900414E+02  0.00000000000E+00 0.  1.
         -1    1    6    6    0  502  0.14701002936E+02  0.25478214618E+02 -0.26330031677E+02  0.39478215202E+02  0.00000000000E+00 0.  1.
<mgrwt>
<rscale>  0 0.14109481E+04</rscale>
<asrwt>0</asrwt>
<pdfrwt beam="1">  1        2 0.19108600E+00 0.14109481E+04</pdfrwt>
<pdfrwt beam="2">  1       -2 0.61646230E-01 0.14109481E+04</pdfrwt>
<totfact> 0.42520749E+01</totfact>
</mgrwt>
</event>
<event>
12    1  0.1598876E-007  0.2433284E+04  0.7818608E-02  0.8427146E-01
          2   -1    0    0  501    0  0.00000000000E+00  0.00000000000E+00  0.34859292274E+04  0.34859292274E+04  0.00000000000E+00 0. -1.
         -2   -1    0    0    0  501 -0.00000000000E+00 -0.00000000000E+00 -0.42462658724E+03  0.42462658724E+03  0.00000000000E+00 0.  1.
         23    2    1    2    0    0 -0.33610352697E+03  0.51261154227E+03 -0.41936080599E+02  0.62113901648E+03  0.91207833179E+02 0.  0.
        254    2    1    2    0    0  0.33610352697E+03 -0.51261154227E+03  0.31032387207E+04  0.32894167981E+04  0.90246115695E+03 0.  0.
        -24    2    4    4    0    0 -0.27721060692E+03 -0.34188610249E+03  0.11843455048E+04  0.12661765613E+04  0.82443811362E+02 0.  0.
         24    2    4    4    0    0  0.61331413389E+03 -0.17072543978E+03  0.19188932160E+04  0.20232402368E+04  0.77771968262E+02 0.  0.
         13    1    3    3    0    0 -0.31482207219E+02  0.35609866711E+02  0.20440313338E+02  0.51739717702E+02  0.00000000000E+00 0. -1.
        -13    1    3    3    0    0 -0.30462131975E+03  0.47700167556E+03 -0.62376393937E+02  0.56939929878E+03  0.00000000000E+00 0.  1.
          4    1    6    6  502    0  0.47957740314E+03 -0.10986288746E+03  0.13995187484E+04  0.14834814009E+04  0.00000000000E+00 0. -1.
          1    1    5    5  503    0 -0.11206072514E+03 -0.20312885679E+03  0.62783388544E+03  0.66932378285E+03  0.00000000000E+00 0. -1.
         -2    1    5    5    0  503 -0.16514988178E+03 -0.13875724570E+03  0.55651161933E+03  0.59685277844E+03  0.00000000000E+00 0.  1.
         -3    1    6    6    0  502  0.13373673075E+03 -0.60862552325E+02  0.51937446760E+03  0.53975883598E+03  0.00000000000E+00 0.  1.
<mgrwt>
<rscale>  0 0.24332844E+04</rscale>
<asrwt>0</asrwt>
<pdfrwt beam="1">  1        2 0.53629679E+00 0.24332844E+04</pdfrwt>
<pdfrwt beam="2">  1       -2 0.65327170E-01 0.24332844E+04</pdfrwt>
<totfact> 0.16133342E+00</totfact>
</mgrwt>
</event>
<event>
12    1  0.1598876E-007  0.1151155E+04  0.7818608E-02  0.9156719E-01
          1   -1    0    0  501    0  0.00000000000E+00  0.00000000000E+00  0.69138180677E+03  0.69138180677E+03  0.00000000000E+00 0. -1.
         -1   -1    0    0    0  501 -0.00000000000E+00 -0.00000000000E+00 -0.47917001448E+03  0.47917001448E+03  0.00000000000E+00 0.  1.
         23    2    1    2    0    0 -0.17556656236E+03  0.55129509879E+02  0.14564301480E+03  0.25169111233E+03  0.90959593156E+02 0.  0.
        254    2    1    2    0    0  0.17556656236E+03 -0.55129509879E+02  0.66568777481E+02  0.91886070892E+03  0.89778099756E+03 0.  0.
        -24    2    4    4    0    0  0.48941245487E+03  0.16593025434E+03  0.12572779978E+02  0.52315520039E+03  0.80472906093E+02 0.  0.
         24    2    4    4    0    0 -0.31384589251E+03 -0.22105976422E+03  0.53995997503E+02  0.39570550853E+03  0.79376433116E+02 0.  0.
         13    1    3    3    0    0 -0.14159839227E+03  0.14374122865E+01  0.10466206070E+03  0.17608610904E+03  0.00000000000E+00 0. -1.
        -13    1    3    3    0    0 -0.33968170089E+02  0.53692097592E+02  0.40980954104E+02  0.75605003289E+02  0.00000000000E+00 0.  1.
          4    1    6    6  502    0 -0.20726786205E+03 -0.18318291332E+03  0.57561846706E+02  0.28254081576E+03  0.00000000000E+00 0. -1.
          1    1    5    5  503    0  0.42878447661E+03  0.16194911916E+03 -0.96766603449E+01  0.45845095957E+03  0.00000000000E+00 0. -1.
         -2    1    5    5    0  503  0.60627978262E+02  0.39811351745E+01  0.22249440323E+02  0.64704240820E+02  0.00000000000E+00 0.  1.
         -3    1    6    6    0  502 -0.10657803045E+03 -0.37876850894E+02 -0.35658492032E+01  0.11316469277E+03  0.00000000000E+00 0.  1.
<mgrwt>
<rscale>  0 0.11511550E+04</rscale>
<asrwt>0</asrwt>
<pdfrwt beam="1">  1        1 0.10636643E+00 0.11511550E+04</pdfrwt>
<pdfrwt beam="2">  1       -1 0.73718464E-01 0.11511550E+04</pdfrwt>
<totfact> 0.51123104E+01</totfact>
</mgrwt>
</event>
<event>
12    1  0.1598876E-007  0.1526848E+04  0.7818608E-02  0.8866793E-01
          2   -1    0    0  501    0  0.00000000000E+00  0.00000000000E+00  0.38753347703E+03  0.38753347703E+03  0.00000000000E+00 0. -1.
         -2   -1    0    0    0  501 -0.00000000000E+00 -0.00000000000E+00 -0.15039128226E+04  0.15039128226E+04  0.00000000000E+00 0.  1.
         23    2    1    2    0    0 -0.97117745424E+02 -0.22023070362E+03  0.16540528286E+03  0.30619100256E+03  0.91981537033E+02 0.  0.
        254    2    1    2    0    0  0.97117745424E+02  0.22023070362E+03 -0.12817846285E+04  0.15852552971E+04  0.90118205928E+03 0.  0.
        -24    2    4    4    0    0 -0.61186852408E+02  0.25965735612E+03  0.11990849397E+02  0.27875476022E+03  0.79966632939E+02 0.  0.
         24    2    4    4    0    0  0.15830459783E+03 -0.39426652494E+02 -0.12937754779E+04  0.13065005369E+04  0.80460295611E+02 0.  0.
         13    1    3    3    0    0  0.58719321130E+00 -0.18003434212E+02 -0.10554315765E+02  0.20877308748E+02  0.00000000000E+00 0.  1.
        -13    1    3    3    0    0 -0.97704938635E+02 -0.20222726941E+03  0.17595959862E+03  0.28531369381E+03  0.00000000000E+00 0. -1.
          2    1    6    6  502    0  0.25409887922E+01  0.60383434803E+01 -0.25876328302E+03  0.25884619923E+03  0.00000000000E+00 0. -1.
          1    1    5    5  503    0  0.75474561281E+01 -0.12401408051E+01  0.44513797434E+01  0.88496793638E+01  0.00000000000E+00 0. -1.
         -2    1    5    5    0  503 -0.68734308536E+02  0.26089749692E+03  0.75394696539E+01  0.26990508086E+03  0.00000000000E+00 0.  1.
         -1    1    6    6    0  502  0.15576360904E+03 -0.45464995974E+02 -0.10350121948E+04  0.10476543377E+04  0.00000000000E+00 0.  1.
<mgrwt>
<rscale>  0 0.15268485E+04</rscale>
<asrwt>0</asrwt>
<pdfrwt beam="1">  1        2 0.59620535E-01 0.15268485E+04</pdfrwt>
<pdfrwt beam="2">  1       -2 0.23137120E+00 0.15268485E+04</pdfrwt>
<totfact> 0.66595088E+00</totfact>
</mgrwt>
</event>
<event>
12    1  0.1598876E-007  0.2809325E+04  0.7818608E-02  0.8300379E-01
          2   -1    0    0  501    0  0.00000000000E+00  0.00000000000E+00  0.22232321554E+04  0.22232321554E+04  0.00000000000E+00 0. -1.
         -2   -1    0    0    0  501 -0.00000000000E+00 -0.00000000000E+00 -0.88748110164E+03  0.88748110164E+03  0.00000000000E+00 0.  1.
         23    2    1    2    0    0 -0.15754084564E+03 -0.96364313484E+03  0.14061303888E+04  0.17145098690E+04  0.94415100960E+02 0.  0.
        254    2    1    2    0    0  0.15754084564E+03  0.96364313484E+03 -0.70379335008E+02  0.13962033881E+04  0.99549155729E+03 0.  0.
        -24    2    4    4    0    0 -0.23302407111E+03  0.87887527038E+03  0.16204254759E+03  0.92703148277E+03  0.80047637114E+02 0.  0.
         24    2    4    4    0    0  0.39056491676E+03  0.84767864455E+02 -0.23242188260E+03  0.46917190528E+03  0.79848607691E+02 0.  0.
         11    1    3    3    0    0 -0.29935985012E+02 -0.12701844548E+03  0.13811970011E+03  0.19001815769E+03  0.00000000000E+00 0.  1.
        -11    1    3    3    0    0 -0.12760486063E+03 -0.83662468936E+03  0.12680106886E+04  0.15244917113E+04  0.00000000000E+00 0. -1.
          4    1    6    6  502    0  0.23745978583E+03  0.71874990785E+02 -0.18115511822E+03  0.30719756029E+03  0.00000000000E+00 0. -1.
          3    1    5    5  503    0 -0.73156225837E+02  0.41280785254E+03  0.93791722407E+02  0.42960335624E+03  0.00000000000E+00 0. -1.
         -4    1    5    5    0  503 -0.15986784528E+03  0.46606741784E+03  0.68250825182E+02  0.49742812653E+03  0.00000000000E+00 0.  1.
         -3    1    6    6    0  502  0.15310513093E+03  0.12892873670E+02 -0.51266764374E+02  0.16197434500E+03  0.00000000000E+00 0.  1.
<mgrwt>
<rscale>  0 0.28093248E+04</rscale>
<asrwt>0</asrwt>
<pdfrwt beam="1">  1        2 0.34203571E+00 0.28093248E+04</pdfrwt>
<pdfrwt beam="2">  1       -2 0.13653555E+00 0.28093248E+04</pdfrwt>
<totfact> 0.16695553E+00</totfact>
</mgrwt>
</event>
<event>
12    1  0.1598876E-007  0.1443209E+04  0.7818608E-02  0.8923122E-01
         -1   -1    0    0    0  501 -0.00000000000E+00  0.00000000000E+00  0.46023808638E+03  0.46023808638E+03  0.00000000000E+00 0.  1.
          1   -1    0    0  501    0  0.00000000000E+00 -0.00000000000E+00 -0.11313990634E+04  0.11313990634E+04  0.00000000000E+00 0. -1.
         23    2    1    2    0    0 -0.16505351569E+03 -0.11921559540E+03  0.21764978237E+03  0.31225770680E+03  0.93158072446E+02 0.  0.
        254    2    1    2    0    0  0.16505351569E+03  0.11921559540E+03 -0.88881075939E+03  0.12793794430E+04  0.89742530156E+03 0.  0.
        -24    2    4    4    0    0 -0.35319073067E+03  0.15606718710E+03 -0.40179839460E+03  0.56293233780E+03  0.79688191866E+02 0.  0.
         24    2    4    4    0    0  0.51824424636E+03 -0.36851591700E+02 -0.48701236479E+03  0.71644710517E+03  0.78614708304E+02 0.  0.
         11    1    3    3    0    0 -0.83625191520E+02 -0.74729300923E+02  0.18009072031E+03  0.21215633061E+03  0.00000000000E+00 0.  1.
        -11    1    3    3    0    0 -0.81428324170E+02 -0.44486294477E+02  0.37559062060E+02  0.10010137620E+03  0.00000000000E+00 0. -1.
          2    1    6    6  502    0  0.36114095738E+03  0.72439401966E+01 -0.35634312734E+03  0.50740091660E+03  0.00000000000E+00 0. -1.
          1    1    5    5  503    0 -0.14637295517E+02 -0.93223684587E+01 -0.20742182390E+02  0.27044317407E+02  0.00000000000E+00 0. -1.
         -2    1    5    5    0  503 -0.33855343515E+03  0.16538955556E+03 -0.38105621221E+03  0.53588802040E+03  0.00000000000E+00 0.  1.
         -1    1    6    6    0  502  0.15710328898E+03 -0.44095531897E+02 -0.13066923745E+03  0.20904618858E+03  0.00000000000E+00 0.  1.
<mgrwt>
<rscale>  0 0.14432088E+04</rscale>
<asrwt>0</asrwt>
<pdfrwt beam="1">  1        1 0.17406139E+00 0.14432088E+04</pdfrwt>
<pdfrwt beam="2">  1       -1 0.70805861E-01 0.14432088E+04</pdfrwt>
<totfact> 0.23519014E+01</totfact>
</mgrwt>
</event>
<event>
12    1  0.1598876E-007  0.2502043E+04  0.7818608E-02  0.8402258E-01
          2   -1    0    0  501    0  0.00000000000E+00  0.00000000000E+00  0.18893144277E+04  0.18893144277E+04  0.00000000000E+00 0.  1.
         -2   -1    0    0    0  501 -0.00000000000E+00 -0.00000000000E+00 -0.82837188989E+03  0.82837188989E+03  0.00000000000E+00 0. -1.
         23    2    1    2    0    0 -0.37089975575E+03  0.46907778798E+02 -0.64243936627E+03  0.74906691976E+03  0.92768218802E+02 0.  0.
        254    2    1    2    0    0  0.37089975575E+03 -0.46907778798E+02  0.17033819041E+04  0.19686193979E+04  0.91333753557E+03 0.  0.
        -24    2    4    4    0    0  0.56653139231E+02 -0.16803294621E+03  0.15936333532E+04  0.16054603212E+04  0.79943288235E+02 0.  0.
         24    2    4    4    0    0  0.31424661652E+03  0.12112516741E+03  0.10974855089E+03  0.36315907665E+03  0.80109477324E+02 0.  0.
         11    1    3    3    0    0 -0.30149043573E+02  0.29087126633E+02 -0.97437572514E+02  0.10606180416E+03  0.00000000000E+00 0.  1.
        -11    1    3    3    0    0 -0.34075071217E+03  0.17820652164E+02 -0.54500179376E+03  0.64300511560E+03  0.00000000000E+00 0. -1.
          2    1    6    6  502    0  0.31284061320E+03  0.12837132918E+03  0.10394578427E+03  0.35376994430E+03  0.00000000000E+00 0. -1.
          1    1    5    5  503    0 -0.20176856484E+02 -0.28964214236E+02  0.25511934601E+03  0.25754982422E+03  0.00000000000E+00 0. -1.
         -2    1    5    5    0  503  0.76829995715E+02 -0.13906873197E+03  0.13385140072E+04  0.13479104970E+04  0.00000000000E+00 0.  1.
         -1    1    6    6    0  502  0.14060033140E+01 -0.72461617695E+01  0.58027666276E+01  0.93891323478E+01  0.00000000000E+00 0.  1.
<mgrwt>
<rscale>  0 0.25020431E+04</rscale>
<asrwt>0</asrwt>
<pdfrwt beam="1">  1        2 0.29066376E+00 0.25020431E+04</pdfrwt>
<pdfrwt beam="2">  1       -2 0.12744183E+00 0.25020431E+04</pdfrwt>
<totfact> 0.31351117E+00</totfact>
</mgrwt>
</event>
<event>
12    1  0.1598876E-007  0.2673396E+04  0.7818608E-02  0.8343689E-01
         -1   -1    0    0    0  501 -0.00000000000E+00  0.00000000000E+00  0.11680847489E+04  0.11680847489E+04  0.00000000000E+00 0.  1.
          1   -1    0    0  501    0  0.00000000000E+00 -0.00000000000E+00 -0.15296501089E+04  0.15296501089E+04  0.00000000000E+00 0. -1.
         23    2    1    2    0    0  0.12834670328E+03  0.11119579787E+04 -0.55213566027E+03  0.12525109985E+04  0.10491230369E+03 0.  0.
        254    2    1    2    0    0 -0.12834670328E+03 -0.11119579787E+04  0.19057030023E+03  0.14452238593E+04  0.89410935651E+03 0.  0.
        -24    2    4    4    0    0  0.10204781871E+03 -0.60997039467E+03  0.50742803974E+03  0.80406228648E+03  0.80964840211E+02 0.  0.
         24    2    4    4    0    0 -0.23039452199E+03 -0.50198758405E+03 -0.31685773951E+03  0.64116157279E+03  0.74941077120E+02 0.  0.
         13    1    3    3    0    0  0.12960097122E+03  0.10982068126E+04 -0.52965352005E+03  0.12261270188E+04  0.00000000000E+00 0. -1.
        -13    1    3    3    0    0 -0.12542679404E+01  0.13751166133E+02 -0.22482140220E+02  0.26383979740E+02  0.00000000000E+00 0.  1.
          4    1    6    6  502    0 -0.90088374113E+02 -0.16339026220E+03 -0.70070355278E+02  0.19930415856E+03  0.00000000000E+00 0. -1.
          3    1    5    5  503    0  0.45716255204E+01 -0.18719233952E+03  0.12008612062E+03  0.22244673093E+03  0.00000000000E+00 0. -1.
         -4    1    5    5    0  503  0.97476193189E+02 -0.42277805515E+03  0.38734191912E+03  0.58161555555E+03  0.00000000000E+00 0.  1.
         -3    1    6    6    0  502 -0.14030614787E+03 -0.33859732185E+03 -0.24678738423E+03  0.44185741423E+03  0.00000000000E+00 0.  1.
<mgrwt>
<rscale>  0 0.26733956E+04</rscale>
<asrwt>0</asrwt>
<pdfrwt beam="1">  1        1 0.23533078E+00 0.26733956E+04</pdfrwt>
<pdfrwt beam="2">  1       -1 0.17970535E+00 0.26733956E+04</pdfrwt>
<totfact> 0.11420012E+00</totfact>
</mgrwt>
</event>
<event>
12    1  0.1598876E-007  0.2254706E+04  0.7818608E-02  0.8495997E-01
         -1   -1    0    0    0  501 -0.00000000000E+00  0.00000000000E+00  0.12474311680E+04  0.12474311680E+04  0.00000000000E+00 0.  1.
          1   -1    0    0  501    0  0.00000000000E+00 -0.00000000000E+00 -0.10188339743E+04  0.10188339743E+04  0.00000000000E+00 0. -1.
         23    2    1    2    0    0 -0.88485071463E+03  0.20068039668E+03  0.36260263955E+03  0.98130434951E+03  0.90797265197E+02 0.  0.
        254    2    1    2    0    0  0.88485071463E+03 -0.20068039668E+03 -0.13400544583E+03  0.12849607928E+04  0.89996298303E+03 0.  0.
        -24    2    4    4    0    0  0.12478208719E+03 -0.25301622377E+03 -0.37968835664E+03  0.48042805071E+03  0.84024311803E+02 0.  0.
         24    2    4    4    0    0  0.76006862743E+03  0.52335827083E+02  0.24568291081E+03  0.80453274212E+03  0.80433098135E+02 0.  0.
         11    1    3    3    0    0 -0.22607091773E+03  0.34606458315E+02  0.13075233357E+03  0.26344228881E+03  0.00000000000E+00 0.  1.
        -11    1    3    3    0    0 -0.65877979690E+03  0.16607393837E+03  0.23185030598E+03  0.71786206070E+03  0.00000000000E+00 0. -1.
          2    1    6    6  502    0  0.65716779169E+03  0.48966946006E+02  0.18272769129E+03  0.68385428082E+03  0.00000000000E+00 0. -1.
          1    1    5    5  503    0  0.62466160533E+02 -0.17591849804E+03 -0.29953313645E+03  0.35294396013E+03  0.00000000000E+00 0. -1.
         -2    1    5    5    0  503  0.62315926662E+02 -0.77097725724E+02 -0.80155220190E+02  0.12748409058E+03  0.00000000000E+00 0.  1.
         -1    1    6    6    0  502  0.10290083574E+03  0.33688810773E+01  0.62955219519E+02  0.12067846130E+03  0.00000000000E+00 0.  1.
<mgrwt>
<rscale>  0 0.22547064E+04</rscale>
<asrwt>0</asrwt>
<pdfrwt beam="1">  1        1 0.15674369E+00 0.22547064E+04</pdfrwt>
<pdfrwt beam="2">  1       -1 0.19191249E+00 0.22547064E+04</pdfrwt>
<totfact> 0.22740846E+00</totfact>
</mgrwt>
</event>
<event>
12    1  0.1598876E-007  0.2003314E+04  0.7818608E-02  0.8605073E-01
          2   -1    0    0  501    0  0.00000000000E+00  0.00000000000E+00  0.15850460345E+04  0.15850460345E+04  0.00000000000E+00 0.  1.
         -2   -1    0    0    0  501 -0.00000000000E+00 -0.00000000000E+00 -0.63298892763E+03  0.63298892763E+03  0.00000000000E+00 0. -1.
         23    2    1    2    0    0  0.29566989872E+03 -0.60161672609E+03  0.84809973666E+03  0.10848948027E+04  0.91434104271E+02 0.  0.
        254    2    1    2    0    0 -0.29566989872E+03  0.60161672609E+03  0.10395737018E+03  0.11331401594E+04  0.90765418081E+03 0.  0.
        -24    2    4    4    0    0 -0.33193730476E+03  0.49438497310E+03  0.45609085319E+03  0.75446315461E+03  0.81221360339E+02 0.  0.
         24    2    4    4    0    0  0.36267406039E+02  0.10723175299E+03 -0.35213348302E+03  0.37867700481E+03  0.81143764526E+02 0.  0.
         13    1    3    3    0    0  0.26274364805E+03 -0.57746736340E+03  0.77934080446E+03  0.10049253056E+04  0.00000000000E+00 0. -1.
        -13    1    3    3    0    0  0.32926250669E+02 -0.24149362693E+02  0.68758932199E+02  0.79969497053E+02  0.00000000000E+00 0.  1.
          2    1    6    6  502    0  0.34604357056E+02  0.11949331469E+03 -0.29392228680E+03  0.31916519932E+03  0.00000000000E+00 0. -1.
          1    1    5    5  503    0 -0.32475973981E+03  0.44396704496E+03  0.41713480709E+03  0.69034561843E+03  0.00000000000E+00 0. -1.
         -2    1    5    5    0  503 -0.71775649559E+01  0.50417928142E+02  0.38956046101E+02  0.64117536171E+02  0.00000000000E+00 0.  1.
         -1    1    6    6    0  502  0.16630489828E+01 -0.12261561699E+02 -0.58211196219E+02  0.59511805488E+02  0.00000000000E+00 0.  1.
<mgrwt>
<rscale>  0 0.20033138E+04</rscale>
<asrwt>0</asrwt>
<pdfrwt beam="1">  1        2 0.24385323E+00 0.20033138E+04</pdfrwt>
<pdfrwt beam="2">  1       -2 0.97382912E-01 0.20033138E+04</pdfrwt>
<totfact> 0.92867346E+00</totfact>
</mgrwt>
</event>
<event>
12    1  0.1598876E-007  0.2078959E+04  0.7818608E-02  0.8570569E-01
          1   -1    0    0  501    0  0.00000000000E+00  0.00000000000E+00  0.90797481768E+03  0.90797481768E+03  0.00000000000E+00 0.  1.
         -1   -1    0    0    0  501 -0.00000000000E+00 -0.00000000000E+00 -0.11900307411E+04  0.11900307411E+04  0.00000000000E+00 0. -1.
         23    2    1    2    0    0  0.45007514925E+03 -0.29079629137E+03  0.53926953665E+03  0.76558447524E+03  0.90431369116E+02 0.  0.
        254    2    1    2    0    0 -0.45007514925E+03  0.29079629137E+03 -0.82132546004E+03  0.13324210835E+04  0.90202012696E+03 0.  0.
        -24    2    4    4    0    0 -0.62449277331E+03  0.13808405829E+03 -0.87001061931E+03  0.10826994969E+04  0.79128324758E+02 0.  0.
         24    2    4    4    0    0  0.17441762406E+03  0.15271223307E+03  0.48685159274E+02  0.24972158663E+03  0.79044875748E+02 0.  0.
         13    1    3    3    0    0  0.43834988186E+03 -0.25881221653E+03  0.49895726279E+03  0.71280623766E+03  0.00000000000E+00 0.  1.
        -13    1    3    3    0    0  0.11725267395E+02 -0.31984074836E+02  0.40312273862E+02  0.52778237584E+02  0.00000000000E+00 0. -1.
          2    1    6    6  502    0  0.51874557484E+01  0.13983831120E+02  0.25671342310E+02  0.29689645433E+02  0.00000000000E+00 0. -1.
          1    1    5    5  503    0 -0.49856841765E+02  0.22435139902E+02 -0.11068842654E+03  0.12345431520E+03  0.00000000000E+00 0. -1.
         -2    1    5    5    0  503 -0.57463593154E+03  0.11564891839E+03 -0.75932219277E+03  0.95924518168E+03  0.00000000000E+00 0.  1.
         -1    1    6    6    0  502  0.16923016831E+03  0.13872840195E+03  0.23013816964E+02  0.22003194119E+03  0.00000000000E+00 0.  1.
<mgrwt>
<rscale>  0 0.20789593E+04</rscale>
<asrwt>0</asrwt>
<pdfrwt beam="1">  1        1 0.13968843E+00 0.20789593E+04</pdfrwt>
<pdfrwt beam="2">  1       -1 0.18308165E+00 0.20789593E+04</pdfrwt>
<totfact> 0.32665328E+00</totfact>
</mgrwt>
</event>
<event>
12    1  0.1598876E-007  0.1398490E+04  0.7818608E-02  0.8954913E-01
          1   -1    0    0  501    0  0.00000000000E+00  0.00000000000E+00  0.92938455985E+03  0.92938455985E+03  0.00000000000E+00 0. -1.
         -1   -1    0    0    0  501 -0.00000000000E+00 -0.00000000000E+00 -0.52609355466E+03  0.52609355466E+03  0.00000000000E+00 0.  1.
         23    2    1    2    0    0  0.18763850734E+03  0.14459334704E+03  0.45307781640E+03  0.51848958100E+03  0.86235099846E+02 0.  0.
        254    2    1    2    0    0 -0.18763850734E+03 -0.14459334704E+03 -0.49786811200E+02  0.93698853351E+03  0.90518138509E+03 0.  0.
        -24    2    4    4    0    0  0.13780584361E+03  0.12803257648E+02 -0.39697738136E+03  0.42912419777E+03  0.86035817308E+02 0.  0.
         24    2    4    4    0    0 -0.32544435095E+03 -0.15739660469E+03  0.34719057016E+03  0.50786433574E+03  0.81836268119E+02 0.  0.
         13    1    3    3    0    0  0.84285692749E+02  0.11447456654E+03  0.22275511112E+03  0.26425053248E+03  0.00000000000E+00 0.  1.
        -13    1    3    3    0    0  0.10335281459E+03  0.30118780495E+02  0.23032270528E+03  0.25423904851E+03  0.00000000000E+00 0. -1.
          2    1    6    6  502    0 -0.16242124169E+03 -0.78364998776E+02  0.22927987578E+03  0.29170360681E+03  0.00000000000E+00 0. -1.
          1    1    5    5  503    0 -0.42460050397E+01 -0.10035428313E+02 -0.83478572455E+02  0.84186759288E+02  0.00000000000E+00 0. -1.
         -4    1    5    5    0  503  0.14205184865E+03  0.22838685962E+02 -0.31349880890E+03  0.34493743848E+03  0.00000000000E+00 0.  1.
         -1    1    6    6    0  502 -0.16302310926E+03 -0.79031605911E+02  0.11791069437E+03  0.21616072893E+03  0.00000000000E+00 0.  1.
<mgrwt>
<rscale>  0 0.13984895E+04</rscale>
<asrwt>0</asrwt>
<pdfrwt beam="1">  1        1 0.14298224E+00 0.13984895E+04</pdfrwt>
<pdfrwt beam="2">  1       -1 0.80937470E-01 0.13984895E+04</pdfrwt>
<totfact> 0.25558506E+01</totfact>
</mgrwt>
</event>
<event>
12    1  0.1598876E-007  0.1286229E+04  0.7818608E-02  0.9040557E-01
          2   -1    0    0  501    0  0.00000000000E+00  0.00000000000E+00  0.11225414971E+04  0.11225414971E+04  0.00000000000E+00 0.  1.
         -2   -1    0    0    0  501 -0.00000000000E+00 -0.00000000000E+00 -0.36844652839E+03  0.36844652839E+03  0.00000000000E+00 0. -1.
         23    2    1    2    0    0 -0.67886873125E+02 -0.29657206000E+03  0.22628527726E+03  0.39980580898E+03  0.12679133989E+03 0.  0.
        254    2    1    2    0    0  0.67886873125E+02  0.29657206000E+03  0.52780969143E+03  0.10911822165E+04  0.90528003674E+03 0.  0.
        -24    2    4    4    0    0 -0.37487464407E+03 -0.36440643480E+02  0.29002280755E+03  0.48208794516E+03  0.80228665067E+02 0.  0.
         24    2    4    4    0    0  0.44276151720E+03  0.33301270348E+03  0.23778688387E+03  0.60909427134E+03  0.86706444078E+02 0.  0.
         13    1    3    3    0    0 -0.11244876644E+02 -0.11434858182E+03  0.16166568325E+03  0.19833768819E+03  0.00000000000E+00 0.  1.
        -13    1    3    3    0    0 -0.56641996481E+02 -0.18222347818E+03  0.64619594011E+02  0.20146812079E+03  0.00000000000E+00 0. -1.
          2    1    6    6  502    0  0.25067121951E+03  0.18264204678E+03  0.17924324679E+03  0.35822104777E+03  0.00000000000E+00 0. -1.
          1    1    5    5  503    0 -0.20281844029E+03 -0.18362637906E+02  0.10626752414E+03  0.22970697176E+03  0.00000000000E+00 0. -1.
         -4    1    5    5    0  503 -0.17205620379E+03 -0.18078005574E+02  0.18375528342E+03  0.25238097339E+03  0.00000000000E+00 0.  1.
         -3    1    6    6    0  502  0.19209029769E+03  0.15037065670E+03  0.58543637080E+02  0.25087322357E+03  0.00000000000E+00 0.  1.
<mgrwt>
<rscale>  0 0.12862294E+04</rscale>
<asrwt>0</asrwt>
<pdfrwt beam="1">  1        2 0.17269869E+00 0.12862294E+04</pdfrwt>
<pdfrwt beam="2">  1       -2 0.56684082E-01 0.12862294E+04</pdfrwt>
<totfact> 0.60432565E+01</totfact>
</mgrwt>
</event>
<event>
12    1  0.1598876E-007  0.2558949E+04  0.7818608E-02  0.8382280E-01
         -1   -1    0    0    0  501 -0.00000000000E+00  0.00000000000E+00  0.99585953222E+03  0.99585953222E+03  0.00000000000E+00 0.  1.
          1   -1    0    0  501    0  0.00000000000E+00 -0.00000000000E+00 -0.16438618460E+04  0.16438618460E+04  0.00000000000E+00 0. -1.
         23    2    1    2    0    0 -0.43744671561E+01  0.55013389426E+03  0.72180163169E+03  0.91222271849E+03  0.92120871952E+02 0.  0.
        254    2    1    2    0    0  0.43744671561E+01 -0.55013389426E+03 -0.13698039455E+04  0.17274986598E+04  0.89734181491E+03 0.  0.
        -24    2    4    4    0    0  0.33775067259E+03 -0.49305930243E+02 -0.88117459238E+03  0.94824465490E+03  0.78693530235E+02 0.  0.
         24    2    4    4    0    0 -0.33337620543E+03 -0.50082796402E+03 -0.48862935314E+03  0.77925400487E+03  0.80683427514E+02 0.  0.
         11    1    3    3    0    0  0.13083562880E+02  0.58201468206E+02  0.12580847227E+03  0.13923491737E+03  0.00000000000E+00 0. -1.
        -11    1    3    3    0    0 -0.17458030036E+02  0.49193242605E+03  0.59599315942E+03  0.77298780112E+03  0.00000000000E+00 0.  1.
          2    1    6    6  502    0 -0.31985744041E+03 -0.49593439046E+03 -0.48630325334E+03  0.76468984303E+03  0.00000000000E+00 0. -1.
          1    1    5    5  503    0  0.33052767408E+03 -0.45994663313E+02 -0.87868026518E+03  0.93991651799E+03  0.00000000000E+00 0. -1.
         -2    1    5    5    0  503  0.72229985110E+01 -0.33112669309E+01 -0.24943272044E+01  0.83281369093E+01  0.00000000000E+00 0.  1.
         -1    1    6    6    0  502 -0.13518765020E+02 -0.48935735562E+01 -0.23260997938E+01  0.14564161839E+02  0.00000000000E+00 0.  1.
<mgrwt>
<rscale>  0 0.25589494E+04</rscale>
<asrwt>0</asrwt>
<pdfrwt beam="1">  1        1 0.25290182E+00 0.25589494E+04</pdfrwt>
<pdfrwt beam="2">  1       -1 0.15320916E+00 0.25589494E+04</pdfrwt>
<totfact> 0.15160231E+00</totfact>
</mgrwt>
</event>
<event>
12    1  0.1598876E-007  0.1921579E+04  0.7818608E-02  0.8644189E-01
         -1   -1    0    0    0  501 -0.00000000000E+00  0.00000000000E+00  0.31832720670E+03  0.31832720670E+03  0.00000000000E+00 0.  1.
          1   -1    0    0  501    0  0.00000000000E+00 -0.00000000000E+00 -0.28998988239E+04  0.28998988239E+04  0.00000000000E+00 0. -1.
         23    2    1    2    0    0 -0.20113230349E+03  0.31709364241E+03 -0.21136812587E+04  0.21489414795E+04  0.96428406912E+02 0.  0.
        254    2    1    2    0    0  0.20113230349E+03 -0.31709364241E+03 -0.46789035854E+03  0.10692845511E+04  0.88512455732E+03 0.  0.
        -24    2    4    4    0    0 -0.21204317184E+03  0.16638104490E+03 -0.29000059899E+03  0.40426775290E+03  0.81774750334E+02 0.  0.
         24    2    4    4    0    0  0.41317547533E+03 -0.48347468731E+03 -0.17788975955E+03  0.66501679817E+03  0.78363439284E+02 0.  0.
         13    1    3    3    0    0  0.32961792769E+01 -0.49984322782E+01 -0.42559375826E+02  0.42978478263E+02  0.00000000000E+00 0.  1.
        -13    1    3    3    0    0 -0.20442848277E+03  0.32209207469E+03 -0.20711218828E+04  0.21059630013E+04  0.00000000000E+00 0. -1.
          4    1    6    6  502    0  0.33091774296E+01 -0.36693100520E+01  0.59643873879E+01  0.77452184238E+01  0.00000000000E+00 0. -1.
          1    1    5    5  503    0 -0.56450514232E+02  0.91622459447E+02 -0.91965571967E+02  0.14155918218E+03  0.00000000000E+00 0. -1.
         -2    1    5    5    0  503 -0.15559265761E+03  0.74758585452E+02 -0.19803502702E+03  0.26270857072E+03  0.00000000000E+00 0.  1.
         -3    1    6    6    0  502  0.40986629790E+03 -0.47980537725E+03 -0.18385414694E+03  0.65727157975E+03  0.00000000000E+00 0.  1.
<mgrwt>
<rscale>  0 0.19215792E+04</rscale>
<asrwt>0</asrwt>
<pdfrwt beam="1">  1        1 0.44613827E+00 0.19215792E+04</pdfrwt>
<pdfrwt beam="2">  1       -1 0.48973418E-01 0.19215792E+04</pdfrwt>
<totfact> 0.27607121E+00</totfact>
</mgrwt>
</event>
<event>
12    1  0.1598876E-007  0.1582290E+04  0.7818608E-02  0.8831502E-01
         -1   -1    0    0    0  501 -0.00000000000E+00  0.00000000000E+00  0.18665657838E+03  0.18665657838E+03  0.00000000000E+00 0.  1.
          1   -1    0    0  501    0  0.00000000000E+00 -0.00000000000E+00 -0.33532727859E+04  0.33532727859E+04  0.00000000000E+00 0. -1.
         23    2    1    2    0    0  0.87172608051E+02 -0.26399917863E+02 -0.22534899591E+04  0.22572308585E+04  0.92618214850E+02 0.  0.
        254    2    1    2    0    0 -0.87172608051E+02  0.26399917863E+02 -0.91312624843E+03  0.12826985058E+04  0.89622535773E+03 0.  0.
        -24    2    4    4    0    0 -0.30054122820E+03  0.37195448631E+03 -0.50328843923E+03  0.69877151288E+03  0.79417909889E+02 0.  0.
         24    2    4    4    0    0  0.21336862015E+03 -0.34555456845E+03 -0.40983780920E+03  0.58392699288E+03  0.89830814973E+02 0.  0.
         11    1    3    3    0    0  0.30705958409E+02  0.25005142047E+01 -0.16733059384E+04  0.16735895172E+04  0.00000000000E+00 0. -1.
        -11    1    3    3    0    0  0.56466649642E+02 -0.28900432067E+02 -0.58018402071E+03  0.58364134139E+03  0.00000000000E+00 0.  1.
          4    1    6    6  502    0  0.46049382869E+02 -0.15037675163E+03 -0.13119263957E+03  0.20480532651E+03  0.00000000000E+00 0. -1.
          3    1    5    5  503    0 -0.72346118641E+02  0.14735809677E+03 -0.18428967991E+03  0.24680165252E+03  0.00000000000E+00 0. -1.
         -4    1    5    5    0  503 -0.22819510956E+03  0.22459638954E+03 -0.31899875932E+03  0.45196986036E+03  0.00000000000E+00 0.  1.
         -3    1    6    6    0  502  0.16731923728E+03 -0.19517781682E+03 -0.27864516964E+03  0.37912166636E+03  0.00000000000E+00 0.  1.
<mgrwt>
<rscale>  0 0.15822900E+04</rscale>
<asrwt>0</asrwt>
<pdfrwt beam="1">  1        1 0.51588809E+00 0.15822900E+04</pdfrwt>
<pdfrwt beam="2">  1       -1 0.28716398E-01 0.15822900E+04</pdfrwt>
<totfact> 0.34707198E+00</totfact>
</mgrwt>
</event>
<event>
12    1  0.1598876E-007  0.1381342E+04  0.7818608E-02  0.8967436E-01
         -2   -1    0    0    0  501 -0.00000000000E+00  0.00000000000E+00  0.35528506453E+03  0.35528506453E+03  0.00000000000E+00 0.  1.
          2   -1    0    0  501    0  0.00000000000E+00 -0.00000000000E+00 -0.13426578280E+04  0.13426578280E+04  0.00000000000E+00 0. -1.
         23    2    1    2    0    0 -0.33410788185E+03  0.91394716689E+02 -0.84932814839E+02  0.37823500035E+03  0.12596452478E+03 0.  0.
        254    2    1    2    0    0  0.33410788185E+03 -0.91394716689E+02 -0.90243994861E+03  0.13197078922E+04  0.89847091708E+03 0.  0.
        -24    2    4    4    0    0  0.59941637538E+03  0.47205719895E+01 -0.81177181179E+03  0.10123908399E+04  0.81482902195E+02 0.  0.
         24    2    4    4    0    0 -0.26530849354E+03 -0.96115288679E+02 -0.90668136814E+02  0.30731705229E+03  0.81217695939E+02 0.  0.
         11    1    3    3    0    0 -0.88818538434E+02  0.74371445909E+02 -0.61726096634E+02  0.13126292600E+03  0.00000000000E+00 0. -1.
        -11    1    3    3    0    0 -0.24528934341E+03  0.17023270780E+02 -0.23206718205E+02  0.24697207435E+03  0.00000000000E+00 0.  1.
          4    1    6    6  502    0 -0.16321688481E+03 -0.16316880619E+02 -0.52800040820E+02  0.17231899602E+03  0.00000000000E+00 0. -1.
          3    1    5    5  503    0  0.35411735509E+03 -0.35733441733E+02 -0.45927909189E+03  0.58104497612E+03  0.00000000000E+00 0. -1.
         -4    1    5    5    0  503  0.24529902030E+03  0.40454013722E+02 -0.35249271991E+03  0.43134586375E+03  0.00000000000E+00 0.  1.
         -3    1    6    6    0  502 -0.10209160873E+03 -0.79798408059E+02 -0.37868095993E+02  0.13499805627E+03  0.00000000000E+00 0.  1.
<mgrwt>
<rscale>  0 0.13813418E+04</rscale>
<asrwt>0</asrwt>
<pdfrwt beam="1">  1        2 0.20656274E+00 0.13813418E+04</pdfrwt>
<pdfrwt beam="2">  1       -2 0.54659241E-01 0.13813418E+04</pdfrwt>
<totfact> 0.47918553E+01</totfact>
</mgrwt>
</event>
<event>
12    1  0.1598876E-007  0.1450340E+04  0.7818608E-02  0.8918165E-01
         -2   -1    0    0    0  501 -0.00000000000E+00  0.00000000000E+00  0.28010790576E+03  0.28010790576E+03  0.00000000000E+00 0. -1.
          2   -1    0    0  501    0  0.00000000000E+00 -0.00000000000E+00 -0.18773891485E+04  0.18773891485E+04  0.00000000000E+00 0.  1.
         23    2    1    2    0    0  0.31010977692E+01  0.82950959995E+02 -0.11443583762E+04  0.11509446359E+04  0.90702718285E+02 0.  0.
        254    2    1    2    0    0 -0.31010977692E+01 -0.82950959995E+02 -0.45292286661E+03  0.10065524185E+04  0.89505204844E+03 0.  0.
        -24    2    4    4    0    0  0.22096612968E+03 -0.37307281402E+03 -0.28633046287E+02  0.44034330251E+03  0.71225119887E+02 0.  0.
         24    2    4    4    0    0 -0.22406722744E+03  0.29012185403E+03 -0.42428982033E+03  0.56620911594E+03  0.78702596811E+02 0.  0.
         11    1    3    3    0    0 -0.94286998527E+01 -0.10220175805E+02 -0.45421309968E+03  0.45442589307E+03  0.00000000000E+00 0.  1.
        -11    1    3    3    0    0  0.12529797622E+02  0.93171135799E+02 -0.69014527650E+03  0.69651874278E+03  0.00000000000E+00 0. -1.
          4    1    6    6  502    0 -0.51859830080E+02  0.10955424568E+03 -0.10065395951E+03  0.15755251279E+03  0.00000000000E+00 0. -1.
          1    1    5    5  503    0  0.31715737855E+02 -0.16629284723E+02 -0.88619533430E+00  0.35821871535E+02  0.00000000000E+00 0. -1.
         -2    1    5    5    0  503  0.18925039182E+03 -0.35644352930E+03 -0.27746850952E+02  0.40452143098E+03  0.00000000000E+00 0.  1.
         -3    1    6    6    0  502 -0.17220739736E+03  0.18056760835E+03 -0.32363586082E+03  0.40865660316E+03  0.00000000000E+00 0.  1.
<mgrwt>
<rscale>  0 0.14503400E+04</rscale>
<asrwt>0</asrwt>
<pdfrwt beam="1">  1        2 0.28882910E+00 0.14503400E+04</pdfrwt>
<pdfrwt beam="2">  1       -2 0.43093524E-01 0.14503400E+04</pdfrwt>
<totfact> 0.38705050E+01</totfact>
</mgrwt>
</event>
<event>
12    1  0.1598876E-007  0.1917688E+04  0.7818608E-02  0.8646102E-01
         -1   -1    0    0    0  501 -0.00000000000E+00  0.00000000000E+00  0.12698531287E+04  0.12698531287E+04  0.00000000000E+00 0.  1.
          1   -1    0    0  501    0  0.00000000000E+00 -0.00000000000E+00 -0.72400633929E+03  0.72400633929E+03  0.00000000000E+00 0. -1.
         23    2    1    2    0    0  0.39961904316E+03  0.40265662886E+03  0.68236281457E+03  0.89202344475E+03  0.90879452346E+02 0.  0.
        254    2    1    2    0    0 -0.39961904316E+03 -0.40265662886E+03 -0.13651602512E+03  0.11018360233E+04  0.93465408395E+03 0.  0.
        -24    2    4    4    0    0 -0.12522388694E+02 -0.50382021242E+03 -0.37121073841E+03  0.63118996957E+03  0.81312660286E+02 0.  0.
         24    2    4    4    0    0 -0.38709665447E+03  0.10116358356E+03  0.23469471329E+03  0.47064605370E+03  0.79675647954E+02 0.  0.
         13    1    3    3    0    0 -0.29395616106E+01  0.62935971866E+01  0.11627858678E+01  0.70429013186E+01  0.00000000000E+00 0. -1.
        -13    1    3    3    0    0  0.40255860477E+03  0.39636303167E+03  0.68120002870E+03  0.88498054343E+03  0.00000000000E+00 0.  1.
          2    1    6    6  502    0 -0.10033438655E+03  0.40340794222E+02  0.10277744490E+03  0.14918971809E+03  0.00000000000E+00 0. -1.
          3    1    5    5  503    0 -0.24044986355E+02 -0.10762086070E+03 -0.11442186539E+03  0.15891121516E+03  0.00000000000E+00 0. -1.
         -4    1    5    5    0  503  0.11522597661E+02 -0.39619935172E+03 -0.25678887302E+03  0.47227875441E+03  0.00000000000E+00 0.  1.
         -3    1    6    6    0  502 -0.28676226792E+03  0.60822789334E+02  0.13191726839E+03  0.32145633561E+03  0.00000000000E+00 0.  1.
<mgrwt>
<rscale>  0 0.19176879E+04</rscale>
<asrwt>0</asrwt>
<pdfrwt beam="1">  1        1 0.11138559E+00 0.19176879E+04</pdfrwt>
<pdfrwt beam="2">  1       -1 0.19536202E+00 0.19176879E+04</pdfrwt>
<totfact> 0.39167251E+00</totfact>
</mgrwt>
</event>
<event>
12    1  0.1598876E-007  0.1323827E+04  0.7818608E-02  0.9010880E-01
         -2   -1    0    0    0  501 -0.00000000000E+00  0.00000000000E+00  0.24595313596E+03  0.24595313596E+03  0.00000000000E+00 0. -1.
          2   -1    0    0  501    0  0.00000000000E+00 -0.00000000000E+00 -0.17813546519E+04  0.17813546519E+04  0.00000000000E+00 0.  1.
         23    2    1    2    0    0 -0.33741340199E+03  0.59538891441E+02 -0.50609543514E+03  0.61786010492E+03  0.90696396555E+02 0.  0.
        254    2    1    2    0    0  0.33741340199E+03 -0.59538891441E+02 -0.10293060808E+04  0.14094476829E+04  0.89982169319E+03 0.  0.
        -24    2    4    4    0    0 -0.86054073299E+02 -0.33283630391E+03 -0.13073154155E+03  0.37615879547E+03  0.78863139178E+02 0.  0.
         24    2    4    4    0    0  0.42346747529E+03  0.27329741247E+03 -0.89857453925E+03  0.10332888875E+04  0.78952796620E+02 0.  0.
         11    1    3    3    0    0 -0.30912161050E+03  0.31140695055E+02 -0.47283250639E+03  0.56577070626E+03  0.00000000000E+00 0. -1.
        -11    1    3    3    0    0 -0.28291791491E+02  0.28398196385E+02 -0.33262928754E+02  0.52089398662E+02  0.00000000000E+00 0.  1.
          4    1    6    6  502    0  0.13396209899E+03  0.44678796966E+02 -0.24296633904E+03  0.28102434195E+03  0.00000000000E+00 0. -1.
          3    1    5    5  503    0 -0.92165207842E+02 -0.20872274688E+03 -0.77434979143E+02  0.24094768436E+03  0.00000000000E+00 0. -1.
         -4    1    5    5    0  503  0.61111345434E+01 -0.12411355703E+03 -0.53296562408E+02  0.13521111111E+03  0.00000000000E+00 0.  1.
         -3    1    6    6    0  502  0.28950537630E+03  0.22861861550E+03 -0.65560820021E+03  0.75226454552E+03  0.00000000000E+00 0.  1.
<mgrwt>
<rscale>  0 0.13238274E+04</rscale>
<asrwt>0</asrwt>
<pdfrwt beam="1">  1        2 0.27405457E+00 0.13238274E+04</pdfrwt>
<pdfrwt beam="2">  1       -2 0.37838943E-01 0.13238274E+04</pdfrwt>
<totfact> 0.56998374E+01</totfact>
</mgrwt>
</event>
<event>
12    1  0.1598876E-007  0.1334208E+04  0.7818608E-02  0.9002870E-01
          1   -1    0    0  501    0  0.00000000000E+00  0.00000000000E+00  0.70523455294E+03  0.70523455294E+03  0.00000000000E+00 0. -1.
         -1   -1    0    0    0  501 -0.00000000000E+00 -0.00000000000E+00 -0.63103475540E+03  0.63103475540E+03  0.00000000000E+00 0.  1.
         23    2    1    2    0    0 -0.11205464763E+03  0.16405376601E+03 -0.26891605428E+03  0.34961230018E+03  0.10219116394E+03 0.  0.
        254    2    1    2    0    0  0.11205464763E+03 -0.16405376601E+03  0.34311585182E+03  0.98665700816E+03  0.90348972423E+03 0.  0.
        -24    2    4    4    0    0 -0.22272042298E+02  0.30225518119E+02  0.61312851250E+03  0.61982182348E+03  0.82721788010E+02 0.  0.
         24    2    4    4    0    0  0.13432668993E+03 -0.19427928413E+03 -0.27001266068E+03  0.36683518468E+03  0.76636257230E+02 0.  0.
         13    1    3    3    0    0  0.19207161388E+00  0.52193804243E+02 -0.12535045640E+03  0.13578279350E+03  0.00000000000E+00 0. -1.
        -13    1    3    3    0    0 -0.11224671925E+03  0.11185996177E+03 -0.14356559788E+03  0.21382950667E+03  0.00000000000E+00 0.  1.
          2    1    6    6  502    0  0.69337297766E+02 -0.58506314966E+02 -0.61245965584E+02  0.10946103440E+03  0.00000000000E+00 0. -1.
          3    1    5    5  503    0 -0.38478415906E+02 -0.90339892040E+01  0.16426089384E+03  0.16894923113E+03  0.00000000000E+00 0. -1.
         -4    1    5    5    0  503  0.16206373609E+02  0.39259507323E+02  0.44886761866E+03  0.45087259236E+03  0.00000000000E+00 0.  1.
         -3    1    6    6    0  502  0.64989392165E+02 -0.13577296917E+03 -0.20876669509E+03  0.25737415028E+03  0.00000000000E+00 0.  1.
<mgrwt>
<rscale>  0 0.13342077E+04</rscale>
<asrwt>0</asrwt>
<pdfrwt beam="1">  1        1 0.10849762E+00 0.13342077E+04</pdfrwt>
<pdfrwt beam="2">  1       -1 0.97082270E-01 0.13342077E+04</pdfrwt>
<totfact> 0.26928346E+01</totfact>
</mgrwt>
</event>
<event>
12    1  0.1598876E-007  0.1356563E+04  0.7818608E-02  0.8985875E-01
         -1   -1    0    0    0  501 -0.00000000000E+00  0.00000000000E+00  0.12888329494E+04  0.12888329494E+04  0.00000000000E+00 0.  1.
          1   -1    0    0  501    0  0.00000000000E+00 -0.00000000000E+00 -0.35696304346E+03  0.35696304346E+03  0.00000000000E+00 0. -1.
         23    2    1    2    0    0  0.19216708242E+03  0.29313028393E+02 -0.11476187513E+03  0.24541765998E+03  0.96291737186E+02 0.  0.
        254    2    1    2    0    0 -0.19216708242E+03 -0.29313028393E+02  0.10466317810E+04  0.14003783328E+04  0.90985380630E+03 0.  0.
        -24    2    4    4    0    0 -0.14546832435E+03 -0.40709744161E+03  0.23136500505E+03  0.49696443017E+03  0.80959983568E+02 0.  0.
         24    2    4    4    0    0 -0.46698758065E+02  0.37778441322E+03  0.81526677599E+03  0.90341390268E+03  0.81209153666E+02 0.  0.
         13    1    3    3    0    0  0.14015665434E+03  0.11014494408E+02 -0.12641288457E+03  0.18906460332E+03  0.00000000000E+00 0. -1.
        -13    1    3    3    0    0  0.52010428080E+02  0.18298533986E+02  0.11651009436E+02  0.56353056669E+02  0.00000000000E+00 0.  1.
          2    1    6    6  502    0  0.11316514336E+01  0.37087701557E+02  0.14917588503E+03  0.15372125070E+03  0.00000000000E+00 0. -1.
          3    1    5    5  503    0 -0.89170124399E+02 -0.13434714401E+03  0.80395171458E+02  0.18017727321E+03  0.00000000000E+00 0. -1.
         -4    1    5    5    0  503 -0.56298199954E+02 -0.27275029761E+03  0.15096983359E+03  0.31678715696E+03  0.00000000000E+00 0.  1.
         -1    1    6    6    0  502 -0.47830409498E+02  0.34069671166E+03  0.66609089096E+03  0.74969265198E+03  0.00000000000E+00 0.  1.
<mgrwt>
<rscale>  0 0.13565629E+04</rscale>
<asrwt>0</asrwt>
<pdfrwt beam="1">  1        1 0.54917392E-01 0.13565629E+04</pdfrwt>
<pdfrwt beam="2">  1       -1 0.19828199E+00 0.13565629E+04</pdfrwt>
<totfact> 0.10559452E+01</totfact>
</mgrwt>
</event>
<event>
12    1  0.1598876E-007  0.1779231E+04  0.7818608E-02  0.8717423E-01
          2   -1    0    0  501    0  0.00000000000E+00  0.00000000000E+00  0.12643861668E+04  0.12643861668E+04  0.00000000000E+00 0. -1.
         -2   -1    0    0    0  501 -0.00000000000E+00 -0.00000000000E+00 -0.62592916225E+03  0.62592916225E+03  0.00000000000E+00 0.  1.
         23    2    1    2    0    0 -0.99955371578E+02 -0.26091889197E+03  0.87604300134E+03  0.92400355404E+03  0.90892701462E+02 0.  0.
        254    2    1    2    0    0  0.99955371578E+02  0.26091889197E+03 -0.23758599678E+03  0.96631177502E+03  0.89400312985E+03 0.  0.
        -24    2    4    4    0    0  0.64636077473E+01  0.36575079688E+03  0.25196537642E+03  0.45100884329E+03  0.78147310707E+02 0.  0.
         24    2    4    4    0    0  0.93491763830E+02 -0.10483190490E+03 -0.48955137320E+03  0.51530293172E+03  0.78397233687E+02 0.  0.
         13    1    3    3    0    0 -0.59707713847E+02 -0.10154715411E+03  0.49849803597E+03  0.51222761294E+03  0.00000000000E+00 0.  1.
        -13    1    3    3    0    0 -0.40247657731E+02 -0.15937173787E+03  0.37754496537E+03  0.41177594109E+03  0.00000000000E+00 0. -1.
          2    1    6    6  502    0  0.10300952561E+03 -0.10639508759E+03 -0.47708580421E+03  0.49954153141E+03  0.00000000000E+00 0. -1.
          1    1    5    5  503    0 -0.12321770192E+02  0.27965056061E+03  0.15496173741E+03  0.31995218726E+03  0.00000000000E+00 0. -1.
         -2    1    5    5    0  503  0.18785377939E+02  0.86100236269E+02  0.97003639008E+02  0.13105665603E+03  0.00000000000E+00 0.  1.
         -1    1    6    6    0  502 -0.95177617808E+01  0.15631826852E+01 -0.12465568993E+02  0.15761400310E+02  0.00000000000E+00 0.  1.
<mgrwt>
<rscale>  0 0.17792315E+04</rscale>
<asrwt>0</asrwt>
<pdfrwt beam="1">  1        2 0.19452095E+00 0.17792315E+04</pdfrwt>
<pdfrwt beam="2">  1       -2 0.96296795E-01 0.17792315E+04</pdfrwt>
<totfact> 0.14811548E+01</totfact>
</mgrwt>
</event>
<event>
12    1  0.1598876E-007  0.2571208E+04  0.7818608E-02  0.8378047E-01
         -2   -1    0    0    0  501 -0.00000000000E+00  0.00000000000E+00  0.13964301571E+04  0.13964301571E+04  0.00000000000E+00 0.  1.
          2   -1    0    0  501    0  0.00000000000E+00 -0.00000000000E+00 -0.11835737337E+04  0.11835737337E+04  0.00000000000E+00 0. -1.
         23    2    1    2    0    0  0.25266935848E+02 -0.24771378609E+02 -0.10316286060E+04  0.10360695802E+04  0.89053663841E+02 0.  0.
        254    2    1    2    0    0 -0.25266935848E+02  0.24771378609E+02  0.12444850294E+04  0.15439343106E+04  0.91309261728E+03 0.  0.
        -24    2    4    4    0    0  0.36630739554E+03 -0.11656927465E+03  0.95045256663E+03  0.10281496542E+04  0.77214805892E+02 0.  0.
         24    2    4    4    0    0 -0.39157433139E+03  0.14134065326E+03  0.29403246279E+03  0.51578465637E+03  0.79190184386E+02 0.  0.
         13    1    3    3    0    0 -0.34130006037E+01  0.31920550893E+02 -0.37774671567E+03  0.37910836359E+03  0.00000000000E+00 0.  1.
        -13    1    3    3    0    0  0.28679936452E+02 -0.56691929502E+02 -0.65388189034E+03  0.65696121661E+03  0.00000000000E+00 0. -1.
          4    1    6    6  502    0 -0.36618390904E+02  0.40821814247E+02  0.39461064096E+02  0.67561103088E+02  0.00000000000E+00 0. -1.
          1    1    5    5  503    0  0.67710918993E+01 -0.97066954256E+01  0.94391716333E+01  0.15138215969E+02  0.00000000000E+00 0. -1.
         -2    1    5    5    0  503  0.35953630364E+03 -0.10686257923E+03  0.94101339500E+03  0.10130114383E+04  0.00000000000E+00 0.  1.
         -3    1    6    6    0  502 -0.35495594048E+03  0.10051883902E+03  0.25457139869E+03  0.44822355328E+03  0.00000000000E+00 0.  1.
<mgrwt>
<rscale>  0 0.25712083E+04</rscale>
<asrwt>0</asrwt>
<pdfrwt beam="1">  1        2 0.18208827E+00 0.25712083E+04</pdfrwt>
<pdfrwt beam="2">  1       -2 0.21483541E+00 0.25712083E+04</pdfrwt>
<totfact> 0.18314168E+00</totfact>
</mgrwt>
</event>
<event>
12    1  0.1598876E-007  0.1628459E+04  0.7818608E-02  0.8803253E-01
         -2   -1    0    0    0  501 -0.00000000000E+00  0.00000000000E+00  0.31163753720E+03  0.31163753720E+03  0.00000000000E+00 0. -1.
          2   -1    0    0  501    0  0.00000000000E+00 -0.00000000000E+00 -0.21273733620E+04  0.21273733620E+04  0.00000000000E+00 0.  1.
         23    2    1    2    0    0 -0.29513076507E+03  0.28091398044E+03 -0.13258234858E+04  0.13895471645E+04  0.83776930778E+02 0.  0.
        254    2    1    2    0    0  0.29513076507E+03 -0.28091398044E+03 -0.48991233908E+03  0.10494637347E+04  0.83387361009E+03 0.  0.
        -24    2    4    4    0    0  0.24350214109E+03 -0.39277959918E+03  0.65873446187E+02  0.47358288599E+03  0.79826892321E+02 0.  0.
         24    2    4    4    0    0  0.51628623979E+02  0.11186561874E+03 -0.55578578527E+03  0.57588084873E+03  0.86956778718E+02 0.  0.
         11    1    3    3    0    0 -0.98118218683E+02  0.70812489847E+02 -0.28537053331E+03  0.30996440899E+03  0.00000000000E+00 0.  1.
        -11    1    3    3    0    0 -0.19701254639E+03  0.21010149059E+03 -0.10404529524E+04  0.10795827555E+04  0.00000000000E+00 0. -1.
          2    1    6    6  502    0  0.42539549276E+02  0.93924097988E+02 -0.54145529129E+03  0.55118525189E+03  0.00000000000E+00 0. -1.
          3    1    5    5  503    0  0.15861473146E+03 -0.31070532627E+03  0.29808402745E+02  0.35012136993E+03  0.00000000000E+00 0. -1.
         -4    1    5    5    0  503  0.84887409636E+02 -0.82074272912E+02  0.36065043442E+02  0.12346151606E+03  0.00000000000E+00 0.  1.
         -1    1    6    6    0  502  0.90890747030E+01  0.17941520750E+02 -0.14330493972E+02  0.24695596840E+02  0.00000000000E+00 0.  1.
<mgrwt>
<rscale>  0 0.16284587E+04</rscale>
<asrwt>0</asrwt>
<pdfrwt beam="1">  1        2 0.32728822E+00 0.16284587E+04</pdfrwt>
<pdfrwt beam="2">  1       -2 0.47944235E-01 0.16284587E+04</pdfrwt>
<totfact> 0.22381355E+01</totfact>
</mgrwt>
</event>
<event>
12    1  0.1598876E-007  0.1559583E+04  0.7818608E-02  0.8845770E-01
         -2   -1    0    0    0  501 -0.00000000000E+00  0.00000000000E+00  0.17270222530E+04  0.17270222530E+04  0.00000000000E+00 0. -1.
          2   -1    0    0  501    0  0.00000000000E+00 -0.00000000000E+00 -0.35209422917E+03  0.35209422917E+03  0.00000000000E+00 0.  1.
         23    2    1    2    0    0 -0.23690730535E+03  0.45234610478E+03  0.46658763423E+03  0.69707318006E+03  0.86399815396E+02 0.  0.
        254    2    1    2    0    0  0.23690730535E+03 -0.45234610478E+03  0.90834038958E+03  0.13820433021E+04  0.90786527396E+03 0.  0.
        -24    2    4    4    0    0 -0.20027957421E+03  0.16595923669E+03  0.31957852403E+03  0.41977075103E+03  0.80141589147E+02 0.  0.
         24    2    4    4    0    0  0.43718687956E+03 -0.61830534147E+03  0.58876186555E+03  0.96227255105E+03  0.76772815742E+02 0.  0.
         11    1    3    3    0    0 -0.15241830386E+03  0.24962448585E+03  0.21431336745E+03  0.36259335730E+03  0.00000000000E+00 0.  1.
        -11    1    3    3    0    0 -0.84489001489E+02  0.20272161893E+03  0.25227426678E+03  0.33447982276E+03  0.00000000000E+00 0. -1.
          4    1    6    6  502    0  0.19380002390E+03 -0.33060595533E+03  0.27128668219E+03  0.46952658167E+03  0.00000000000E+00 0. -1.
          1    1    5    5  503    0 -0.89418167696E+01  0.43518556268E+02  0.42563798808E+02  0.61526399177E+02  0.00000000000E+00 0. -1.
         -2    1    5    5    0  503 -0.19133775744E+03  0.12244068042E+03  0.27701472522E+03  0.35824435185E+03  0.00000000000E+00 0.  1.
         -3    1    6    6    0  502  0.24338685566E+03 -0.28769938614E+03  0.31747518336E+03  0.49274596938E+03  0.00000000000E+00 0.  1.
<mgrwt>
<rscale>  0 0.15595827E+04</rscale>
<asrwt>0</asrwt>
<pdfrwt beam="1">  1        2 0.54168344E-01 0.15595827E+04</pdfrwt>
<pdfrwt beam="2">  1       -2 0.26569573E+00 0.15595827E+04</pdfrwt>
<totfact> 0.45519188E+00</totfact>
</mgrwt>
</event>
<event>
12    1  0.1598876E-007  0.1964576E+04  0.7818608E-02  0.8623364E-01
          1   -1    0    0  501    0  0.00000000000E+00  0.00000000000E+00  0.83416667026E+03  0.83416667026E+03  0.00000000000E+00 0. -1.
         -1   -1    0    0    0  501 -0.00000000000E+00 -0.00000000000E+00 -0.11567106679E+04  0.11567106679E+04  0.00000000000E+00 0.  1.
         23    2    1    2    0    0  0.73996328913E+03 -0.18500061885E+03 -0.23160077061E+02  0.76746955094E+03  0.81867113121E+02 0.  0.
        254    2    1    2    0    0 -0.73996328913E+03  0.18500061885E+03 -0.29938392059E+03  0.12234077872E+04  0.90847398627E+03 0.  0.
        -24    2    4    4    0    0 -0.44230410416E+03 -0.32350068150E+03 -0.29763626421E+03  0.62867374660E+03  0.79735327244E+02 0.  0.
         24    2    4    4    0    0 -0.29765918497E+03  0.50850130035E+03 -0.17476563897E+01  0.59473404063E+03  0.80814367103E+02 0.  0.
         13    1    3    3    0    0  0.24679670963E+03 -0.84038842500E+02  0.24296999239E+02  0.26184248529E+03  0.00000000000E+00 0. -1.
        -13    1    3    3    0    0  0.49316657951E+03 -0.10096177635E+03 -0.47457076299E+02  0.50562706565E+03  0.00000000000E+00 0.  1.
          2    1    6    6  502    0 -0.17647726493E+03  0.22846426837E+03 -0.17306246244E+02  0.28920520935E+03  0.00000000000E+00 0. -1.
          3    1    5    5  503    0 -0.30887185922E+03 -0.26901541932E+03 -0.22290142192E+03  0.46632195439E+03  0.00000000000E+00 0. -1.
         -4    1    5    5    0  503 -0.13343224494E+03 -0.54485262182E+02 -0.74734842283E+02  0.16235179221E+03  0.00000000000E+00 0.  1.
         -1    1    6    6    0  502 -0.12118192005E+03  0.28003703198E+03  0.15558589855E+02  0.30552883128E+03  0.00000000000E+00 0.  1.
<mgrwt>
<rscale>  0 0.19645758E+04</rscale>
<asrwt>0</asrwt>
<pdfrwt beam="1">  1        1 0.12833333E+00 0.19645758E+04</pdfrwt>
<pdfrwt beam="2">  1       -1 0.17795549E+00 0.19645758E+04</pdfrwt>
<totfact> 0.41380775E+00</totfact>
</mgrwt>
</event>
<event>
12    1  0.1598876E-007  0.2075868E+04  0.7818608E-02  0.8571949E-01
          2   -1    0    0  501    0  0.00000000000E+00  0.00000000000E+00  0.14268377479E+04  0.14268377479E+04  0.00000000000E+00 0. -1.
         -2   -1    0    0    0  501 -0.00000000000E+00 -0.00000000000E+00 -0.75503096997E+03  0.75503096997E+03  0.00000000000E+00 0.  1.
         23    2    1    2    0    0  0.68215092343E+03  0.42896579285E+03  0.52283308791E+03  0.96492066047E+03  0.91519994672E+02 0.  0.
        254    2    1    2    0    0 -0.68215092343E+03 -0.42896579285E+03  0.14897368997E+03  0.12169480574E+04  0.89968209953E+03 0.  0.
        -24    2    4    4    0    0 -0.59157391091E+02 -0.31021142191E+03 -0.29380550214E+03  0.43856164538E+03  0.79271183332E+02 0.  0.
         24    2    4    4    0    0 -0.62299353234E+03 -0.11875437093E+03  0.44277919211E+03  0.77838641197E+03  0.87226437665E+02 0.  0.
         11    1    3    3    0    0  0.55607262530E+03  0.34528356592E+03  0.46506567904E+03  0.80294681725E+03  0.00000000000E+00 0.  1.
        -11    1    3    3    0    0  0.12607829812E+03  0.83682226931E+02  0.57767408874E+02  0.16197384323E+03  0.00000000000E+00 0. -1.
          2    1    6    6  502    0 -0.16829108226E+03 -0.30928924543E+02  0.74180018189E+02  0.18649708266E+03  0.00000000000E+00 0. -1.
          1    1    5    5  503    0 -0.14330212578E+02 -0.54927198935E+02 -0.16788175671E+02  0.59196241585E+02  0.00000000000E+00 0. -1.
         -2    1    5    5    0  503 -0.44827178513E+02 -0.25528422298E+03 -0.27701732647E+03  0.37936540380E+03  0.00000000000E+00 0.  1.
         -1    1    6    6    0  502 -0.45470245008E+03 -0.87825446391E+02  0.36859917392E+03  0.59188932931E+03  0.00000000000E+00 0.  1.
<mgrwt>
<rscale>  0 0.20758677E+04</rscale>
<asrwt>0</asrwt>
<pdfrwt beam="1">  1        2 0.21951350E+00 0.20758677E+04</pdfrwt>
<pdfrwt beam="2">  1       -2 0.11615861E+00 0.20758677E+04</pdfrwt>
<totfact> 0.74221501E+00</totfact>
</mgrwt>
</event>
<event>
12    1  0.1598876E-007  0.1924059E+04  0.7818608E-02  0.8642972E-01
         -1   -1    0    0    0  501 -0.00000000000E+00  0.00000000000E+00  0.23189623099E+04  0.23189623099E+04  0.00000000000E+00 0.  1.
          1   -1    0    0  501    0  0.00000000000E+00 -0.00000000000E+00 -0.39910142413E+03  0.39910142413E+03  0.00000000000E+00 0. -1.
         23    2    1    2    0    0 -0.81412171037E+02  0.59239778115E+03  0.11374718519E+03  0.61558965801E+03  0.91919161236E+02 0.  0.
        254    2    1    2    0    0  0.81412171037E+02 -0.59239778115E+03  0.18061137006E+04  0.21024740760E+04  0.89486729084E+03 0.  0.
        -24    2    4    4    0    0  0.20645578548E+03 -0.78160962921E+03  0.15572014046E+04  0.17562963129E+04  0.78504270113E+02 0.  0.
         24    2    4    4    0    0 -0.12504361444E+03  0.18921184805E+03  0.24891229595E+03  0.34617776309E+03  0.80278786892E+02 0.  0.
         13    1    3    3    0    0  0.12412137641E+02  0.16969080679E+03  0.10570846946E+02  0.17047220852E+03  0.00000000000E+00 0.  1.
        -13    1    3    3    0    0 -0.93824308678E+02  0.42270697436E+03  0.10317633824E+03  0.44511744949E+03  0.00000000000E+00 0. -1.
          4    1    6    6  502    0 -0.51808201358E+02  0.11395022571E+03  0.18459491538E+03  0.22303368905E+03  0.00000000000E+00 0. -1.
          1    1    5    5  503    0  0.18919758821E+03 -0.61877832059E+03  0.12828064749E+04  0.14367584311E+04  0.00000000000E+00 0. -1.
         -2    1    5    5    0  503  0.17258197270E+02 -0.16283130862E+03  0.27439492971E+03  0.31953788178E+03  0.00000000000E+00 0.  1.
         -3    1    6    6    0  502 -0.73235413083E+02  0.75261622344E+02  0.64317380572E+02  0.12314407404E+03  0.00000000000E+00 0.  1.
<mgrwt>
<rscale>  0 0.19240594E+04</rscale>
<asrwt>0</asrwt>
<pdfrwt beam="1">  1        1 0.61400221E-01 0.19240594E+04</pdfrwt>
<pdfrwt beam="2">  1       -1 0.35676342E+00 0.19240594E+04</pdfrwt>
<totfact> 0.78875754E-01</totfact>
</mgrwt>
</event>
<event>
12    1  0.1598876E-007  0.1719592E+04  0.7818608E-02  0.8750269E-01
         -2   -1    0    0    0  501 -0.00000000000E+00  0.00000000000E+00  0.26232468733E+03  0.26232468733E+03  0.00000000000E+00 0.  1.
          2   -1    0    0  501    0  0.00000000000E+00 -0.00000000000E+00 -0.28180695138E+04  0.28180695138E+04  0.00000000000E+00 0. -1.
         23    2    1    2    0    0 -0.27023681499E+03  0.28988864032E+03 -0.17844288668E+04  0.18301877637E+04  0.91309965679E+02 0.  0.
        254    2    1    2    0    0  0.27023681499E+03 -0.28988864032E+03 -0.77131595975E+03  0.12502064375E+04  0.90056896828E+03 0.  0.
        -24    2    4    4    0    0  0.32059518690E+03  0.51366195816E+02  0.66333812569E+02  0.34081825599E+03  0.79606211991E+02 0.  0.
         24    2    4    4    0    0 -0.50358371906E+02 -0.34125483613E+03 -0.83764977232E+03  0.90938818151E+03  0.79617176560E+02 0.  0.
         13    1    3    3    0    0 -0.14104293748E+03  0.88424233154E+02 -0.67300349845E+03  0.69328613440E+03  0.00000000000E+00 0.  1.
        -13    1    3    3    0    0 -0.12919387751E+03  0.20146440716E+03 -0.11114253683E+04  0.11369016293E+04  0.00000000000E+00 0. -1.
          2    1    6    6  502    0  0.27838778098E+01 -0.22379618213E+03 -0.56796797572E+03  0.61047530872E+03  0.00000000000E+00 0. -1.
          3    1    5    5  503    0  0.94745019051E+02  0.15671155405E+02  0.57633610223E+02  0.11199927131E+03  0.00000000000E+00 0. -1.
         -4    1    5    5    0  503  0.22585016785E+03  0.35695040410E+02  0.87002023466E+01  0.22881898468E+03  0.00000000000E+00 0.  1.
         -1    1    6    6    0  502 -0.53142249715E+02 -0.11745865400E+03 -0.26968179660E+03  0.29891287279E+03  0.00000000000E+00 0.  1.
<mgrwt>
<rscale>  0 0.17195920E+04</rscale>
<asrwt>0</asrwt>
<pdfrwt beam="1">  1        2 0.43354916E+00 0.17195920E+04</pdfrwt>
<pdfrwt beam="2">  1       -2 0.40357644E-01 0.17195920E+04</pdfrwt>
<totfact> 0.12491849E+01</totfact>
</mgrwt>
</event>
<event>
12    1  0.1598876E-007  0.1728557E+04  0.7818608E-02  0.8745243E-01
         -1   -1    0    0    0  501 -0.00000000000E+00  0.00000000000E+00  0.10001836631E+04  0.10001836631E+04  0.00000000000E+00 0.  1.
          1   -1    0    0  501    0  0.00000000000E+00 -0.00000000000E+00 -0.74684031502E+03  0.74684031502E+03  0.00000000000E+00 0. -1.
         23    2    1    2    0    0 -0.25574075789E+03 -0.28976248431E+03 -0.38908468657E+03  0.55644560295E+03  0.94229417701E+02 0.  0.
        254    2    1    2    0    0  0.25574075789E+03  0.28976248431E+03  0.64242803463E+03  0.11905783752E+04  0.92487699460E+03 0.  0.
        -24    2    4    4    0    0 -0.24302905023E+02 -0.18326688562E+03 -0.12943019758E+03  0.23970642888E+03  0.80806023572E+02 0.  0.
         24    2    4    4    0    0  0.28004366291E+03  0.47302936993E+03  0.77185823221E+03  0.95087194627E+03  0.78810466407E+02 0.  0.
         13    1    3    3    0    0 -0.76420340346E+02 -0.13238218627E+03 -0.10491606628E+03  0.18539820016E+03  0.00000000000E+00 0.  1.
        -13    1    3    3    0    0 -0.17932041754E+03 -0.15738029805E+03 -0.28416862028E+03  0.37104740279E+03  0.00000000000E+00 0. -1.
          4    1    6    6  502    0  0.15920891419E+03  0.20863924903E+03  0.40850906646E+03  0.48554862988E+03  0.00000000000E+00 0. -1.
          3    1    5    5  503    0 -0.53394028046E+02 -0.10093747659E+03 -0.79259267724E+02  0.13900117960E+03  0.00000000000E+00 0. -1.
         -2    1    5    5    0  503  0.29091123023E+02 -0.82329409029E+02 -0.50170929860E+02  0.10070524928E+03  0.00000000000E+00 0.  1.
         -3    1    6    6    0  502  0.12083474872E+03  0.26439012089E+03  0.36334916575E+03  0.46532331639E+03  0.00000000000E+00 0.  1.
<mgrwt>
<rscale>  0 0.17285572E+04</rscale>
<asrwt>0</asrwt>
<pdfrwt beam="1">  1        1 0.11489851E+00 0.17285572E+04</pdfrwt>
<pdfrwt beam="2">  1       -1 0.15387441E+00 0.17285572E+04</pdfrwt>
<totfact> 0.76201787E+00</totfact>
</mgrwt>
</event>
<event>
12    1  0.1598876E-007  0.1814956E+04  0.7818608E-02  0.8698386E-01
          2   -1    0    0  501    0  0.00000000000E+00  0.00000000000E+00  0.20336154237E+04  0.20336154237E+04  0.00000000000E+00 0.  1.
         -2   -1    0    0    0  501 -0.00000000000E+00 -0.00000000000E+00 -0.40495164029E+03  0.40495164029E+03  0.00000000000E+00 0. -1.
         23    2    1    2    0    0  0.33701153801E+03  0.23303149786E+03  0.13610270384E+04  0.14241935336E+04  0.89733862509E+02 0.  0.
        254    2    1    2    0    0 -0.33701153801E+03 -0.23303149786E+03  0.26763674497E+03  0.10143735304E+04  0.88850648625E+03 0.  0.
        -24    2    4    4    0    0  0.84184285425E+02  0.11609703623E+03  0.41166014638E+03  0.44312888397E+03  0.79584018212E+02 0.  0.
         24    2    4    4    0    0 -0.42119582343E+03 -0.34912853409E+03 -0.14402340141E+03  0.57124464640E+03  0.79253081319E+02 0.  0.
         13    1    3    3    0    0  0.20286330621E+01  0.21290755454E+02  0.45564556277E+02  0.50334286611E+02  0.00000000000E+00 0. -1.
        -13    1    3    3    0    0  0.33498290495E+03  0.21174074241E+03  0.13154624822E+04  0.13738592470E+04  0.00000000000E+00 0.  1.
          2    1    6    6  502    0 -0.37366029423E+03 -0.32612490116E+03 -0.10877151263E+03  0.50775063624E+03  0.00000000000E+00 0. -1.
          1    1    5    5  503    0  0.61973170202E+02  0.12128571854E+03  0.30457894321E+03  0.33364536861E+03  0.00000000000E+00 0. -1.
         -2    1    5    5    0  503  0.22211115223E+02 -0.51886823062E+01  0.10708120316E+03  0.10948351535E+03  0.00000000000E+00 0.  1.
         -1    1    6    6    0  502 -0.47535529201E+02 -0.23003632927E+02 -0.35251888773E+02  0.63494010161E+02  0.00000000000E+00 0.  1.
<mgrwt>
<rscale>  0 0.18149555E+04</rscale>
<asrwt>0</asrwt>
<pdfrwt beam="1">  1        2 0.31286390E+00 0.18149555E+04</pdfrwt>
<pdfrwt beam="2">  1       -2 0.62300254E-01 0.18149555E+04</pdfrwt>
<totfact> 0.14427455E+01</totfact>
</mgrwt>
</event>
<event>
12    1  0.1598876E-007  0.1678143E+04  0.7818608E-02  0.8773929E-01
         -2   -1    0    0    0  501 -0.00000000000E+00  0.00000000000E+00  0.62484142893E+03  0.62484142893E+03  0.00000000000E+00 0.  1.
          2   -1    0    0  501    0  0.00000000000E+00 -0.00000000000E+00 -0.11267518769E+04  0.11267518769E+04  0.00000000000E+00 0. -1.
         23    2    1    2    0    0  0.13976177323E+03  0.56015330653E+03 -0.31979629611E+03  0.66621271031E+03  0.90909979144E+02 0.  0.
        254    2    1    2    0    0 -0.13976177323E+03 -0.56015330653E+03 -0.18211415188E+03  0.10853805955E+04  0.90087756814E+03 0.  0.
        -24    2    4    4    0    0 -0.50818805620E+03 -0.42495898141E+03 -0.14713213242E+03  0.68345863793E+03  0.81379414024E+02 0.  0.
         24    2    4    4    0    0  0.36842628297E+03 -0.13519432512E+03 -0.34982019461E+02  0.40192195760E+03  0.79385683790E+02 0.  0.
         11    1    3    3    0    0  0.48464084209E+02  0.28154941956E+03 -0.20373571878E+03  0.35089469391E+03  0.00000000000E+00 0.  1.
        -11    1    3    3    0    0  0.91297689024E+02  0.27860388697E+03 -0.11606057733E+03  0.31531801640E+03  0.00000000000E+00 0. -1.
          4    1    6    6  502    0  0.26232328933E+02 -0.24703059213E+02  0.14699721843E+02  0.38916038313E+02  0.00000000000E+00 0. -1.
          3    1    5    5  503    0 -0.14805373186E+03 -0.13443891304E+03 -0.74353759932E+01  0.20012249667E+03  0.00000000000E+00 0. -1.
         -4    1    5    5    0  503 -0.36013432435E+03 -0.29052006837E+03 -0.13969675643E+03  0.48333614127E+03  0.00000000000E+00 0.  1.
         -3    1    6    6    0  502  0.34219395404E+03 -0.11049126591E+03 -0.49681741303E+02  0.36300591929E+03  0.00000000000E+00 0.  1.
<mgrwt>
<rscale>  0 0.16781433E+04</rscale>
<asrwt>0</asrwt>
<pdfrwt beam="1">  1        2 0.17334644E+00 0.16781433E+04</pdfrwt>
<pdfrwt beam="2">  1       -2 0.96129451E-01 0.16781433E+04</pdfrwt>
<totfact> 0.18128994E+01</totfact>
</mgrwt>
</event>
<event>
12    1  0.1598876E-007  0.2941504E+04  0.7818608E-02  0.8260635E-01
         -1   -1    0    0    0  501 -0.00000000000E+00  0.00000000000E+00  0.12936730812E+04  0.12936730812E+04  0.00000000000E+00 0.  1.
          1   -1    0    0  501    0  0.00000000000E+00 -0.00000000000E+00 -0.16720700522E+04  0.16720700522E+04  0.00000000000E+00 0. -1.
         23    2    1    2    0    0 -0.43944731369E+03 -0.11097306494E+03  0.10932640554E+04  0.11869912424E+04  0.91065647051E+02 0.  0.
        254    2    1    2    0    0  0.43944731369E+03  0.11097306494E+03 -0.14716610263E+04  0.17787518910E+04  0.89036124733E+03 0.  0.
        -24    2    4    4    0    0 -0.16114661956E+03 -0.22114518929E+03 -0.27050167194E+03  0.39321020697E+03  0.81053590909E+02 0.  0.
         24    2    4    4    0    0  0.60059393326E+03  0.33211825424E+03 -0.12011593544E+04  0.13855416840E+04  0.76982830226E+02 0.  0.
         11    1    3    3    0    0 -0.19897217861E+03 -0.95963253499E+02  0.49672221654E+03  0.54362839724E+03  0.00000000000E+00 0. -1.
        -11    1    3    3    0    0 -0.24047513509E+03 -0.15009811443E+02  0.59654183881E+03  0.64336284513E+03  0.00000000000E+00 0.  1.
          4    1    6    6  502    0  0.45046404899E+03  0.23395431294E+03 -0.94701271647E+03  0.10744698996E+04  0.00000000000E+00 0. -1.
          1    1    5    5  503    0 -0.63707124907E+01 -0.45226689525E+02 -0.18987378839E+02  0.49462713009E+02  0.00000000000E+00 0. -1.
         -2    1    5    5    0  503 -0.15477590707E+03 -0.17591849977E+03 -0.25151429310E+03  0.34374749396E+03  0.00000000000E+00 0.  1.
         -3    1    6    6    0  502  0.15012988427E+03  0.98163941298E+02 -0.25414663790E+03  0.31107178445E+03  0.00000000000E+00 0.  1.
<mgrwt>
<rscale>  0 0.29415044E+04</rscale>
<asrwt>0</asrwt>
<pdfrwt beam="1">  1        1 0.25724155E+00 0.29415044E+04</pdfrwt>
<pdfrwt beam="2">  1       -1 0.19902663E+00 0.29415044E+04</pdfrwt>
<totfact> 0.65112964E-01</totfact>
</mgrwt>
</event>
<event>
12    1  0.1598876E-007  0.4151069E+04  0.7818608E-02  0.7974746E-01
         -2   -1    0    0    0  501 -0.00000000000E+00  0.00000000000E+00  0.12724406587E+04  0.12724406587E+04  0.00000000000E+00 0.  1.
          2   -1    0    0  501    0  0.00000000000E+00 -0.00000000000E+00 -0.33854960601E+04  0.33854960601E+04  0.00000000000E+00 0. -1.
         23    2    1    2    0    0  0.14327385678E+04 -0.13096477811E+04 -0.14317121364E+04  0.24137249201E+04  0.91385087325E+02 0.  0.
        254    2    1    2    0    0 -0.14327385678E+04  0.13096477811E+04 -0.68134326505E+03  0.22442117987E+04  0.89685051052E+03 0.  0.
        -24    2    4    4    0    0 -0.36299579924E+03  0.88886915655E+03 -0.14918299941E+03  0.97486708153E+03  0.79094447256E+02 0.  0.
         24    2    4    4    0    0 -0.10697427686E+04  0.42077862456E+03 -0.53216026564E+03  0.12693447172E+04  0.81469140353E+02 0.  0.
         13    1    3    3    0    0  0.13860498923E+04 -0.12804017512E+04 -0.14045425426E+04  0.23522973244E+04  0.00000000000E+00 0. -1.
        -13    1    3    3    0    0  0.46688675543E+02 -0.29246029962E+02 -0.27169593780E+02  0.61427595742E+02  0.00000000000E+00 0.  1.
          2    1    6    6  502    0 -0.59989762989E+03  0.20200057629E+03 -0.26459444253E+03  0.68606968901E+03  0.00000000000E+00 0. -1.
          3    1    5    5  503    0 -0.35039412419E+03  0.88179253809E+03 -0.14547616787E+03  0.95994658076E+03  0.00000000000E+00 0. -1.
         -4    1    5    5    0  503 -0.12601675050E+02  0.70766184670E+01 -0.37068315462E+01  0.14920500766E+02  0.00000000000E+00 0.  1.
         -1    1    6    6    0  502 -0.46984513870E+03  0.21877804827E+03 -0.26756582311E+03  0.58327502815E+03  0.00000000000E+00 0.  1.
<mgrwt>
<rscale>  0 0.41510687E+04</rscale>
<asrwt>0</asrwt>
<pdfrwt beam="1">  1        2 0.52084554E+00 0.41510687E+04</pdfrwt>
<pdfrwt beam="2">  1       -2 0.19576010E+00 0.41510687E+04</pdfrwt>
<totfact> 0.10767251E-01</totfact>
</mgrwt>
</event>
<event>
12    1  0.1598876E-007  0.2320685E+04  0.7818608E-02  0.8469810E-01
          2   -1    0    0  501    0  0.00000000000E+00  0.00000000000E+00  0.72993974710E+03  0.72993974710E+03  0.00000000000E+00 0. -1.
         -2   -1    0    0    0  501 -0.00000000000E+00 -0.00000000000E+00 -0.18445279515E+04  0.18445279515E+04  0.00000000000E+00 0.  1.
         23    2    1    2    0    0 -0.87115865497E+03 -0.32306982616E+03 -0.11639267919E+03  0.94104842955E+03  0.93452534917E+02 0.  0.
        254    2    1    2    0    0  0.87115865497E+03  0.32306982616E+03 -0.99819552518E+03  0.16334192690E+04  0.89909548283E+03 0.  0.
        -24    2    4    4    0    0  0.70670624012E+02 -0.27192067270E+03 -0.21230185932E+03  0.36119292523E+03  0.80330943148E+02 0.  0.
         24    2    4    4    0    0  0.80048803096E+03  0.59499049886E+03 -0.78589366586E+03  0.12722263438E+04  0.78334120204E+02 0.  0.
         11    1    3    3    0    0 -0.18029288602E+03 -0.10721744219E+03 -0.16947320914E+02  0.21044789461E+03  0.00000000000E+00 0.  1.
        -11    1    3    3    0    0 -0.69086576895E+03 -0.21585238397E+03 -0.99445358278E+02  0.73060053494E+03  0.00000000000E+00 0. -1.
          2    1    6    6  502    0  0.79863286090E+03  0.58960411581E+03 -0.78649216883E+03  0.12664980819E+04  0.00000000000E+00 0. -1.
          3    1    5    5  503    0  0.52864843081E+01 -0.16867332521E+03 -0.13944320280E+03  0.21891332613E+03  0.00000000000E+00 0. -1.
         -4    1    5    5    0  503  0.65384139704E+02 -0.10324734749E+03 -0.72858656524E+02  0.14227959910E+03  0.00000000000E+00 0.  1.
         -1    1    6    6    0  502  0.18551700559E+01  0.53863830481E+01  0.59850297469E+00  0.57282618732E+01  0.00000000000E+00 0.  1.
<mgrwt>
<rscale>  0 0.23206846E+04</rscale>
<asrwt>0</asrwt>
<pdfrwt beam="1">  1        2 0.11229842E+00 0.23206846E+04</pdfrwt>
<pdfrwt beam="2">  1       -2 0.28377353E+00 0.23206846E+04</pdfrwt>
<totfact> 0.14041282E+00</totfact>
</mgrwt>
</event>
<event>
12    1  0.1598876E-007  0.2537415E+04  0.7818608E-02  0.8389776E-01
         -1   -1    0    0    0  501 -0.00000000000E+00  0.00000000000E+00  0.10755342258E+04  0.10755342258E+04  0.00000000000E+00 0.  1.
          1   -1    0    0  501    0  0.00000000000E+00 -0.00000000000E+00 -0.14965754879E+04  0.14965754879E+04  0.00000000000E+00 0. -1.
         23    2    1    2    0    0  0.23201478220E+02  0.10807551568E+04 -0.42737846416E+03  0.11659700236E+04  0.90905041602E+02 0.  0.
        254    2    1    2    0    0 -0.23201478220E+02 -0.10807551568E+04  0.63372020325E+01  0.14061396901E+04  0.89923225607E+03 0.  0.
        -24    2    4    4    0    0 -0.19347807559E+03 -0.32999433333E+03 -0.37713254543E+03  0.54232354767E+03  0.74537559471E+02 0.  0.
         24    2    4    4    0    0  0.17027659737E+03 -0.75076082351E+03  0.38346974746E+03  0.86381614245E+03  0.80581306774E+02 0.  0.
         11    1    3    3    0    0  0.36575220451E+02  0.74582896651E+03 -0.33396071177E+03  0.81800265956E+03  0.00000000000E+00 0. -1.
        -11    1    3    3    0    0 -0.13373742231E+02  0.33492619033E+03 -0.93417752386E+02  0.34796736401E+03  0.00000000000E+00 0.  1.
          4    1    6    6  502    0  0.60392457094E+02 -0.33874910892E+03  0.13046261751E+03  0.36799280188E+03  0.00000000000E+00 0. -1.
          3    1    5    5  503    0 -0.77889708182E+02 -0.17929287912E+03 -0.15096931671E+03  0.24699084545E+03  0.00000000000E+00 0. -1.
         -2    1    5    5    0  503 -0.11558836741E+03 -0.15070145421E+03 -0.22616322872E+03  0.29533270223E+03  0.00000000000E+00 0.  1.
         -3    1    6    6    0  502  0.10988414028E+03 -0.41201171460E+03  0.25300712995E+03  0.49582334057E+03  0.00000000000E+00 0.  1.
<mgrwt>
<rscale>  0 0.25374146E+04</rscale>
<asrwt>0</asrwt>
<pdfrwt beam="1">  1        1 0.23024238E+00 0.25374146E+04</pdfrwt>
<pdfrwt beam="2">  1       -1 0.16546680E+00 0.25374146E+04</pdfrwt>
<totfact> 0.15485308E+00</totfact>
</mgrwt>
</event>
<event>
12    1  0.1598876E-007  0.1621387E+04  0.7818608E-02  0.8807516E-01
          2   -1    0    0  501    0  0.00000000000E+00  0.00000000000E+00  0.15747756878E+04  0.15747756878E+04  0.00000000000E+00 0. -1.
         -2   -1    0    0    0  501 -0.00000000000E+00 -0.00000000000E+00 -0.41734454221E+03  0.41734454221E+03  0.00000000000E+00 0.  1.
         23    2    1    2    0    0 -0.26506865591E+03  0.18576241038E+03 -0.15423993268E+03  0.36984570140E+03  0.90701822213E+02 0.  0.
        254    2    1    2    0    0  0.26506865591E+03 -0.18576241038E+03  0.13116710783E+04  0.16222745286E+04  0.89806712621E+03 0.  0.
        -24    2    4    4    0    0  0.95014696896E+02 -0.51475654598E+03  0.50692512002E+03  0.73277253393E+03  0.77333142413E+02 0.  0.
         24    2    4    4    0    0  0.17005395901E+03  0.32899413560E+03  0.80474595825E+03  0.88950199469E+03  0.80263634316E+02 0.  0.
         11    1    3    3    0    0 -0.10174700587E+03  0.12421595097E+03 -0.59352978597E+02  0.17118654079E+03  0.00000000000E+00 0. -1.
        -11    1    3    3    0    0 -0.16332165004E+03  0.61546459406E+02 -0.94886954086E+02  0.19865916061E+03  0.00000000000E+00 0.  1.
          2    1    6    6  502    0  0.68949139988E+02  0.19935550644E+03  0.39064337237E+03  0.44395815819E+03  0.00000000000E+00 0. -1.
          3    1    5    5  503    0  0.10549414520E+03 -0.39370767495E+03  0.38691187519E+03  0.56199247962E+03  0.00000000000E+00 0. -1.
         -4    1    5    5    0  503 -0.10479448307E+02 -0.12104887104E+03  0.12001324483E+03  0.17078005431E+03  0.00000000000E+00 0.  1.
         -1    1    6    6    0  502  0.10110481902E+03  0.12963862917E+03  0.41410258588E+03  0.44554383649E+03  0.00000000000E+00 0.  1.
<mgrwt>
<rscale>  0 0.16213871E+04</rscale>
<asrwt>0</asrwt>
<pdfrwt beam="1">  1        2 0.24227318E+00 0.16213871E+04</pdfrwt>
<pdfrwt beam="2">  1       -2 0.64206854E-01 0.16213871E+04</pdfrwt>
<totfact> 0.24720767E+01</totfact>
</mgrwt>
</event>
<event>
12    1  0.1598876E-007  0.1598410E+04  0.7818608E-02  0.8821525E-01
          1   -1    0    0  501    0  0.00000000000E+00  0.00000000000E+00  0.14781044027E+04  0.14781044027E+04  0.00000000000E+00 0. -1.
         -1   -1    0    0    0  501 -0.00000000000E+00 -0.00000000000E+00 -0.43212682111E+03  0.43212682111E+03  0.00000000000E+00 0.  1.
         23    2    1    2    0    0 -0.14218992229E+03 -0.52603689975E+03  0.15499302668E+03  0.57636300698E+03  0.10601265773E+03 0.  0.
        254    2    1    2    0    0  0.14218992229E+03  0.52603689975E+03  0.89098455494E+03  0.13338682168E+04  0.82970967746E+03 0.  0.
        -24    2    4    4    0    0  0.21859314794E+03  0.21942098528E+03  0.94989343298E+03  0.10023160431E+04  0.80071113182E+02 0.  0.
         24    2    4    4    0    0 -0.76403225650E+02  0.30661591447E+03 -0.58908878050E+02  0.33155217372E+03  0.81276171717E+02 0.  0.
         13    1    3    3    0    0 -0.98026232708E+02 -0.44721212258E+03  0.94084237370E+02  0.46739669297E+03  0.00000000000E+00 0. -1.
        -13    1    3    3    0    0 -0.44163689585E+02 -0.78824777174E+02  0.60908789309E+02  0.10896631401E+03  0.00000000000E+00 0.  1.
          2    1    6    6  502    0  0.74048068020E+01  0.46038078582E+02  0.13252551456E+02  0.48476447512E+02  0.00000000000E+00 0. -1.
          3    1    5    5  503    0  0.35487986517E+02  0.58745249049E+02  0.13009499230E+03  0.14708877760E+03  0.00000000000E+00 0. -1.
         -2    1    5    5    0  503  0.18310516143E+03  0.16067573623E+03  0.81979844068E+03  0.85522726553E+03  0.00000000000E+00 0.  1.
         -1    1    6    6    0  502 -0.83808032452E+02  0.26057783589E+03 -0.72161429505E+02  0.28307572621E+03  0.00000000000E+00 0.  1.
<mgrwt>
<rscale>  0 0.15984099E+04</rscale>
<asrwt>0</asrwt>
<pdfrwt beam="1">  1        1 0.22740067E+00 0.15984099E+04</pdfrwt>
<pdfrwt beam="2">  1       -1 0.66481050E-01 0.15984099E+04</pdfrwt>
<totfact> 0.14905098E+01</totfact>
</mgrwt>
</event>
<event>
12    1  0.1598876E-007  0.1904145E+04  0.7818608E-02  0.8652796E-01
         -1   -1    0    0    0  501 -0.00000000000E+00  0.00000000000E+00  0.63987390766E+03  0.63987390766E+03  0.00000000000E+00 0.  1.
          1   -1    0    0  501    0  0.00000000000E+00 -0.00000000000E+00 -0.14165948987E+04  0.14165948987E+04  0.00000000000E+00 0. -1.
         23    2    1    2    0    0  0.57560827105E+03 -0.20317620135E+03  0.14202602345E+03  0.63020008666E+03  0.66146106375E+02 0.  0.
        254    2    1    2    0    0 -0.57560827105E+03  0.20317620135E+03 -0.91874701447E+03  0.14262687197E+04  0.90417970205E+03 0.  0.
        -24    2    4    4    0    0 -0.31944210599E+03  0.45618418193E+03 -0.89336079432E+03  0.10558487537E+04  0.81091398852E+02 0.  0.
         24    2    4    4    0    0 -0.25616616506E+03 -0.25300798058E+03 -0.25386220142E+02  0.37041996595E+03  0.83260726880E+02 0.  0.
         11    1    3    3    0    0  0.50928216884E+03 -0.19272860058E+03  0.14320595928E+03  0.56304581319E+03  0.00000000000E+00 0.  1.
        -11    1    3    3    0    0  0.66326102210E+02 -0.10447600774E+02 -0.11799358250E+01  0.67154273467E+02  0.00000000000E+00 0. -1.
          4    1    6    6  502    0 -0.13235667078E+03 -0.15588217461E+03 -0.51571388317E+02  0.21089606150E+03  0.00000000000E+00 0. -1.
          3    1    5    5  503    0 -0.54276352831E+02  0.66390570233E+02 -0.89541692614E+02  0.12398122845E+03  0.00000000000E+00 0. -1.
         -4    1    5    5    0  503 -0.26516575316E+03  0.38979361170E+03 -0.80381910171E+03  0.93186752527E+03  0.00000000000E+00 0.  1.
         -3    1    6    6    0  502 -0.12380949428E+03 -0.97125805966E+02  0.26185168176E+02  0.15952390445E+03  0.00000000000E+00 0.  1.
<mgrwt>
<rscale>  0 0.19041451E+04</rscale>
<asrwt>0</asrwt>
<pdfrwt beam="1">  1        1 0.21793768E+00 0.19041451E+04</pdfrwt>
<pdfrwt beam="2">  1       -1 0.98442139E-01 0.19041451E+04</pdfrwt>
<totfact> 0.69107830E+00</totfact>
</mgrwt>
</event>
<event>
12    1  0.1598876E-007  0.1810026E+04  0.7818608E-02  0.8700986E-01
         -1   -1    0    0    0  501 -0.00000000000E+00  0.00000000000E+00  0.10770477669E+04  0.10770477669E+04  0.00000000000E+00 0.  1.
          1   -1    0    0  501    0  0.00000000000E+00 -0.00000000000E+00 -0.76045714667E+03  0.76045714667E+03  0.00000000000E+00 0. -1.
         23    2    1    2    0    0  0.48171221641E+03 -0.90168785415E+01 -0.36112960640E+03  0.60937674186E+03  0.93794761931E+02 0.  0.
        254    2    1    2    0    0 -0.48171221641E+03  0.90168785415E+01  0.67772022666E+03  0.12281281717E+04  0.90380647102E+03 0.  0.
        -24    2    4    4    0    0  0.11531183584E+03 -0.16165413852E+03 -0.92671650234E+02  0.23529938629E+03  0.85725646357E+02 0.  0.
         24    2    4    4    0    0 -0.59702405226E+03  0.17067101706E+03  0.77039187690E+03  0.99282878545E+03  0.81480293317E+02 0.  0.
         13    1    3    3    0    0  0.39508904854E+03  0.25160685962E+02 -0.27083690854E+03  0.47966764266E+03  0.00000000000E+00 0. -1.
        -13    1    3    3    0    0  0.86623167876E+02 -0.34177564503E+02 -0.90292697858E+02  0.12970909920E+03  0.00000000000E+00 0.  1.
          2    1    6    6  502    0 -0.45821647546E+03  0.13273475840E+03  0.64299682519E+03  0.80064085061E+03  0.00000000000E+00 0. -1.
          1    1    5    5  503    0  0.11801544879E+03 -0.14878072929E+03 -0.10523260642E+03  0.21711115359E+03  0.00000000000E+00 0. -1.
         -2    1    5    5    0  503 -0.27036129483E+01 -0.12873409235E+02  0.12560956184E+02  0.18188232695E+02  0.00000000000E+00 0.  1.
         -1    1    6    6    0  502 -0.13880757680E+03  0.37936258664E+02  0.12739505170E+03  0.19218793484E+03  0.00000000000E+00 0.  1.
<mgrwt>
<rscale>  0 0.18100262E+04</rscale>
<asrwt>0</asrwt>
<pdfrwt beam="1">  1        1 0.11699341E+00 0.18100262E+04</pdfrwt>
<pdfrwt beam="2">  1       -1 0.16569966E+00 0.18100262E+04</pdfrwt>
<totfact> 0.59829267E+00</totfact>
</mgrwt>
</event>
<event>
12    1  0.1598876E-007  0.3018363E+04  0.7818608E-02  0.8238507E-01
          1   -1    0    0  501    0  0.00000000000E+00  0.00000000000E+00  0.21947679214E+04  0.21947679214E+04  0.00000000000E+00 0. -1.
         -1   -1    0    0    0  501 -0.00000000000E+00 -0.00000000000E+00 -0.10377535257E+04  0.10377535257E+04  0.00000000000E+00 0.  1.
         23    2    1    2    0    0 -0.27289903754E+03 -0.13013565583E+04  0.90279913131E+03  0.16096569469E+04  0.89142799025E+02 0.  0.
        254    2    1    2    0    0  0.27289903754E+03  0.13013565583E+04  0.25421526446E+03  0.16228645002E+04  0.89502011643E+03 0.  0.
        -24    2    4    4    0    0  0.25608992866E+03  0.21148029146E+03  0.39269161415E+03  0.52114329509E+03  0.84128859197E+02 0.  0.
         24    2    4    4    0    0  0.16809108884E+02  0.10898762669E+04 -0.13847634969E+03  0.11017212051E+04  0.80629344569E+02 0.  0.
         13    1    3    3    0    0 -0.33522167186E+02 -0.77575653317E+02  0.41530495548E+02  0.94162092908E+02  0.00000000000E+00 0.  1.
        -13    1    3    3    0    0 -0.23937687036E+03 -0.12237809050E+04  0.86126863576E+03  0.15154948540E+04  0.00000000000E+00 0. -1.
          2    1    6    6  502    0 -0.67717791282E+01  0.19619342001E+03 -0.54824865773E+02  0.20382217974E+03  0.00000000000E+00 0. -1.
          1    1    5    5  503    0  0.34531770714E+01  0.13343842526E+02  0.48631835344E+02  0.50547383455E+02  0.00000000000E+00 0. -1.
         -2    1    5    5    0  503  0.25263675159E+03  0.19813644893E+03  0.34405977881E+03  0.47059591163E+03  0.00000000000E+00 0.  1.
         -1    1    6    6    0  502  0.23580888012E+02  0.89368284685E+03 -0.83651483921E+02  0.89789902539E+03  0.00000000000E+00 0.  1.
<mgrwt>
<rscale>  0 0.30183626E+04</rscale>
<asrwt>0</asrwt>
<pdfrwt beam="1">  1        1 0.33765660E+00 0.30183626E+04</pdfrwt>
<pdfrwt beam="2">  1       -1 0.15965439E+00 0.30183626E+04</pdfrwt>
<totfact> 0.54867513E-01</totfact>
</mgrwt>
</event>
<event>
12    1  0.1598876E-007  0.1067164E+04  0.7818608E-02  0.9237800E-01
         -1   -1    0    0    0  501 -0.00000000000E+00  0.00000000000E+00  0.18956290364E+03  0.18956290364E+03  0.00000000000E+00 0.  1.
          1   -1    0    0  501    0  0.00000000000E+00 -0.00000000000E+00 -0.15019287760E+04  0.15019287760E+04  0.00000000000E+00 0. -1.
         23    2    1    2    0    0  0.38640639891E+02 -0.27939196070E+02 -0.19784641820E+01  0.10227181217E+03  0.90453919293E+02 0.  0.
        254    2    1    2    0    0 -0.38640639891E+02  0.27939196070E+02 -0.13103874082E+04  0.15892198675E+04  0.89790363063E+03 0.  0.
        -24    2    4    4    0    0  0.88275728673E+02 -0.33934808319E+03 -0.10629507469E+04  0.11221520664E+04  0.80070243337E+02 0.  0.
         24    2    4    4    0    0 -0.12691636856E+03  0.36728727926E+03 -0.24743666123E+03  0.46706780106E+03  0.76939712431E+02 0.  0.
         13    1    3    3    0    0  0.44053641738E+02 -0.25761066676E+02  0.36888591577E+02  0.62969231337E+02  0.00000000000E+00 0.  1.
        -13    1    3    3    0    0 -0.54130018467E+01 -0.21781293942E+01 -0.38867055759E+02  0.39302580831E+02  0.00000000000E+00 0. -1.
          4    1    6    6  502    0 -0.25810188512E+02  0.16179191678E+02 -0.24079546743E+02  0.38829842206E+02  0.00000000000E+00 0. -1.
          3    1    5    5  503    0 -0.14559492700E+02 -0.30405727417E+02 -0.11498401911E+03  0.11982408663E+03  0.00000000000E+00 0. -1.
         -4    1    5    5    0  503  0.10283522137E+03 -0.30894235577E+03 -0.94796672783E+03  0.10023279798E+04  0.00000000000E+00 0.  1.
         -3    1    6    6    0  502 -0.10110618005E+03  0.35110808758E+03 -0.22335711449E+03  0.42823795885E+03  0.00000000000E+00 0.  1.
<mgrwt>
<rscale>  0 0.10671644E+04</rscale>
<asrwt>0</asrwt>
<pdfrwt beam="1">  1        1 0.23106596E+00 0.10671644E+04</pdfrwt>
<pdfrwt beam="2">  1       -1 0.29163525E-01 0.10671644E+04</pdfrwt>
<totfact> 0.69815488E+01</totfact>
</mgrwt>
</event>
<event>
12    1  0.1598876E-007  0.1603301E+04  0.7818608E-02  0.8818523E-01
          1   -1    0    0  501    0  0.00000000000E+00  0.00000000000E+00  0.12157534132E+04  0.12157534132E+04  0.00000000000E+00 0. -1.
         -1   -1    0    0    0  501 -0.00000000000E+00 -0.00000000000E+00 -0.52859699129E+03  0.52859699129E+03  0.00000000000E+00 0.  1.
         23    2    1    2    0    0 -0.25927884075E+03  0.42624896220E+03  0.52315559749E+03  0.72753685162E+03  0.81880377612E+02 0.  0.
        254    2    1    2    0    0  0.25927884075E+03 -0.42624896220E+03  0.16400082442E+03  0.10168135529E+04  0.87068928778E+03 0.  0.
        -24    2    4    4    0    0  0.47391394619E+03 -0.55343712481E+03  0.62871336238E+02  0.73571694921E+03  0.80246775194E+02 0.  0.
         24    2    4    4    0    0 -0.21463510543E+03  0.12718816261E+03  0.10112948819E+03  0.28109660366E+03  0.80889245381E+02 0.  0.
         13    1    3    3    0    0 -0.79960542515E+02  0.18487117365E+03  0.25227429955E+03  0.32282094328E+03  0.00000000000E+00 0. -1.
        -13    1    3    3    0    0 -0.17931829824E+03  0.24137778855E+03  0.27088129793E+03  0.40471590834E+03  0.00000000000E+00 0.  1.
          4    1    6    6  502    0 -0.20030264764E+03  0.12750894975E+03  0.71165062956E+02  0.24787930350E+03  0.00000000000E+00 0. -1.
          1    1    5    5  503    0  0.33518293759E+03 -0.35372998817E+03  0.70770962074E+02  0.49242363394E+03  0.00000000000E+00 0. -1.
         -2    1    5    5    0  503  0.13873100859E+03 -0.19970713664E+03 -0.78996258363E+01  0.24329331528E+03  0.00000000000E+00 0.  1.
         -3    1    6    6    0  502 -0.14332457797E+02 -0.32078714617E+00  0.29964425229E+02  0.33217300165E+02  0.00000000000E+00 0.  1.
<mgrwt>
<rscale>  0 0.16033011E+04</rscale>
<asrwt>0</asrwt>
<pdfrwt beam="1">  1        1 0.18703899E+00 0.16033011E+04</pdfrwt>
<pdfrwt beam="2">  1       -1 0.81322614E-01 0.16033011E+04</pdfrwt>
<totfact> 0.15036173E+01</totfact>
</mgrwt>
</event>
<event>
12    1  0.1598876E-007  0.1790893E+04  0.7818608E-02  0.8711157E-01
         -2   -1    0    0    0  501 -0.00000000000E+00  0.00000000000E+00  0.52906734858E+03  0.52906734858E+03  0.00000000000E+00 0.  1.
          2   -1    0    0  501    0  0.00000000000E+00 -0.00000000000E+00 -0.15155432816E+04  0.15155432816E+04  0.00000000000E+00 0. -1.
         23    2    1    2    0    0 -0.28781871284E+02  0.42843428957E+03  0.20896306245E+03  0.48703305122E+03  0.95662400781E+02 0.  0.
        254    2    1    2    0    0  0.28781871284E+02 -0.42843428957E+03 -0.11954389955E+04  0.15575775789E+04  0.90143728898E+03 0.  0.
        -24    2    4    4    0    0  0.34491792965E+03 -0.52951376719E+03 -0.62236027323E+03  0.89054447546E+03  0.79899594681E+02 0.  0.
         24    2    4    4    0    0 -0.31613605837E+03  0.10107947762E+03 -0.57307872223E+03  0.66703310348E+03  0.79717445238E+02 0.  0.
         11    1    3    3    0    0 -0.44984580450E+02  0.36361003037E+03  0.20560532056E+03  0.42013023517E+03  0.00000000000E+00 0.  1.
        -11    1    3    3    0    0  0.16202709166E+02  0.64824259200E+02  0.33577418913E+01  0.66902816052E+02  0.00000000000E+00 0. -1.
          2    1    6    6  502    0 -0.13245268720E+03  0.22156100373E+02 -0.29913138392E+03  0.32789356806E+03  0.00000000000E+00 0. -1.
          3    1    5    5  503    0  0.28029549536E+03 -0.44375595931E+03 -0.47271938169E+03  0.70636288830E+03  0.00000000000E+00 0. -1.
         -2    1    5    5    0  503  0.64622434293E+02 -0.85757807883E+02 -0.14964089154E+03  0.18418158716E+03  0.00000000000E+00 0.  1.
         -1    1    6    6    0  502 -0.18368337117E+03  0.78923377251E+02 -0.27394733831E+03  0.33913953542E+03  0.00000000000E+00 0.  1.
<mgrwt>
<rscale>  0 0.17908930E+04</rscale>
<asrwt>0</asrwt>
<pdfrwt beam="1">  1        2 0.23316051E+00 0.17908930E+04</pdfrwt>
<pdfrwt beam="2">  1       -2 0.81394976E-01 0.17908930E+04</pdfrwt>
<totfact> 0.15624186E+01</totfact>
</mgrwt>
</event>
<event>
12    1  0.1598876E-007  0.1826925E+04  0.7818608E-02  0.8692111E-01
         -1   -1    0    0    0  501 -0.00000000000E+00  0.00000000000E+00  0.59389068163E+03  0.59389068163E+03  0.00000000000E+00 0.  1.
          1   -1    0    0  501    0  0.00000000000E+00 -0.00000000000E+00 -0.14049954285E+04  0.14049954285E+04  0.00000000000E+00 0. -1.
         23    2    1    2    0    0 -0.29384714816E+03  0.21734202221E+03  0.32765084167E+03  0.49906496620E+03  0.90150237610E+02 0.  0.
        254    2    1    2    0    0  0.29384714816E+03 -0.21734202221E+03 -0.11387555886E+04  0.14998211440E+04  0.90504998328E+03 0.  0.
        -24    2    4    4    0    0 -0.26203016568E+03 -0.26429068827E+03 -0.27718483517E+03  0.47034038977E+03  0.76676422506E+02 0.  0.
         24    2    4    4    0    0  0.55587731384E+03  0.46948666060E+02 -0.86157075343E+03  0.10294807542E+04  0.79515374748E+02 0.  0.
         11    1    3    3    0    0 -0.13133827254E+03  0.43965968609E+02  0.11091733512E+03  0.17744126763E+03  0.00000000000E+00 0. -1.
        -11    1    3    3    0    0 -0.16250887562E+03  0.17337605360E+03  0.21673350656E+03  0.32162369857E+03  0.00000000000E+00 0.  1.
          4    1    6    6  502    0  0.14418641291E+03  0.24273270304E+02 -0.28924487546E+03  0.32410108191E+03  0.00000000000E+00 0. -1.
          3    1    5    5  503    0 -0.22456115693E+03 -0.25284639567E+03 -0.22981816818E+03  0.40887088846E+03  0.00000000000E+00 0. -1.
         -4    1    5    5    0  503 -0.37469008744E+02 -0.11444292603E+02 -0.47366666984E+02  0.61469501305E+02  0.00000000000E+00 0.  1.
         -3    1    6    6    0  502  0.41169090094E+03  0.22675395756E+02 -0.57232587797E+03  0.70537967229E+03  0.00000000000E+00 0.  1.
<mgrwt>
<rscale>  0 0.18269249E+04</rscale>
<asrwt>0</asrwt>
<pdfrwt beam="1">  1        1 0.21615314E+00 0.18269249E+04</pdfrwt>
<pdfrwt beam="2">  1       -1 0.91367799E-01 0.18269249E+04</pdfrwt>
<totfact> 0.83817806E+00</totfact>
</mgrwt>
</event>
<event>
12    1  0.1598876E-007  0.2232240E+04  0.7818608E-02  0.8505128E-01
          1   -1    0    0  501    0  0.00000000000E+00  0.00000000000E+00  0.75340479950E+03  0.75340479950E+03  0.00000000000E+00 0. -1.
         -1   -1    0    0    0  501 -0.00000000000E+00 -0.00000000000E+00 -0.16534590791E+04  0.16534590791E+04  0.00000000000E+00 0.  1.
         23    2    1    2    0    0 -0.32576869594E+03 -0.56708268424E+03 -0.11003354728E+04  0.12848306603E+04  0.11110202001E+03 0.  0.
        254    2    1    2    0    0  0.32576869594E+03  0.56708268424E+03  0.20028119322E+03  0.11220332183E+04  0.88945937098E+03 0.  0.
        -24    2    4    4    0    0 -0.80708985141E+02  0.32928461309E+03  0.46113400141E+03  0.57788826378E+03  0.79799633230E+02 0.  0.
         24    2    4    4    0    0  0.40647768108E+03  0.23779807114E+03 -0.26085280819E+03  0.54414495453E+03  0.79230777762E+02 0.  0.
         11    1    3    3    0    0 -0.72844686970E+02 -0.18909307580E+03 -0.26368696847E+03  0.33255579543E+03  0.00000000000E+00 0. -1.
        -11    1    3    3    0    0 -0.25292400897E+03 -0.37798960844E+03 -0.83664850436E+03  0.95227486486E+03  0.00000000000E+00 0.  1.
          4    1    6    6  502    0  0.39627870971E+03  0.22961922276E+03 -0.23407687996E+03  0.51434792598E+03  0.00000000000E+00 0. -1.
          3    1    5    5  503    0 -0.87701425712E+02  0.19557434227E+03  0.27837662013E+03  0.35133232994E+03  0.00000000000E+00 0. -1.
         -4    1    5    5    0  503  0.69924405708E+01  0.13371027083E+03  0.18275738127E+03  0.22655593384E+03  0.00000000000E+00 0.  1.
         -3    1    6    6    0  502  0.10198971370E+02  0.81788483852E+01 -0.26775928225E+02  0.29797028547E+02  0.00000000000E+00 0.  1.
<mgrwt>
<rscale>  0 0.22322401E+04</rscale>
<asrwt>0</asrwt>
<pdfrwt beam="1">  1        1 0.11590843E+00 0.22322401E+04</pdfrwt>
<pdfrwt beam="2">  1       -1 0.25437832E+00 0.22322401E+04</pdfrwt>
<totfact> 0.14432930E+00</totfact>
</mgrwt>
</event>
<event>
12    1  0.1598876E-007  0.2035206E+04  0.7818608E-02  0.8590336E-01
         -2   -1    0    0    0  501 -0.00000000000E+00  0.00000000000E+00  0.65400213597E+03  0.65400213597E+03  0.00000000000E+00 0.  1.
          2   -1    0    0  501    0  0.00000000000E+00 -0.00000000000E+00 -0.15833516604E+04  0.15833516604E+04  0.00000000000E+00 0. -1.
         23    2    1    2    0    0 -0.58593015293E+03 -0.49563056512E+03 -0.73060357962E+02  0.77604261148E+03  0.89109582694E+02 0.  0.
        254    2    1    2    0    0  0.58593015293E+03  0.49563056512E+03 -0.85628916645E+03  0.14613111849E+04  0.90179567601E+03 0.  0.
        -24    2    4    4    0    0  0.88933057492E+02  0.80993028319E+02 -0.79320557594E+03  0.80618443921E+03  0.79305138421E+02 0.  0.
         24    2    4    4    0    0  0.49699709544E+03  0.41463753680E+03 -0.63083590519E+02  0.65512674567E+03  0.79253477515E+02 0.  0.
         13    1    3    3    0    0 -0.81776944618E+02 -0.35296519740E+02 -0.19984419479E+02  0.91283569160E+02  0.00000000000E+00 0. -1.
        -13    1    3    3    0    0 -0.50415320831E+03 -0.46033404538E+03 -0.53075938484E+02  0.68475904232E+03  0.00000000000E+00 0.  1.
          4    1    6    6  502    0  0.11708597060E+03  0.57378610202E+02 -0.18937645684E+02  0.13175759501E+03  0.00000000000E+00 0. -1.
          3    1    5    5  503    0  0.10773309198E+02  0.54386962568E+02 -0.21139834681E+03  0.21854808835E+03  0.00000000000E+00 0. -1.
         -4    1    5    5    0  503  0.78159748294E+02  0.26606065751E+02 -0.58180722912E+03  0.58763635086E+03  0.00000000000E+00 0.  1.
         -3    1    6    6    0  502  0.37991112484E+03  0.35725892660E+03 -0.44145944835E+02  0.52336915066E+03  0.00000000000E+00 0.  1.
<mgrwt>
<rscale>  0 0.20352055E+04</rscale>
<asrwt>0</asrwt>
<pdfrwt beam="1">  1        2 0.24359256E+00 0.20352055E+04</pdfrwt>
<pdfrwt beam="2">  1       -2 0.10061571E+00 0.20352055E+04</pdfrwt>
<totfact> 0.85934561E+00</totfact>
</mgrwt>
</event>
<event>
12    1  0.1598876E-007  0.1546575E+04  0.7818608E-02  0.8854058E-01
          1   -1    0    0  501    0  0.00000000000E+00  0.00000000000E+00  0.12698838862E+04  0.12698838862E+04  0.00000000000E+00 0. -1.
         -1   -1    0    0    0  501 -0.00000000000E+00 -0.00000000000E+00 -0.47088851493E+03  0.47088851493E+03  0.00000000000E+00 0.  1.
         23    2    1    2    0    0 -0.11470522951E+03  0.45972840460E+03  0.52093163113E+03  0.70902793236E+03  0.82724536106E+02 0.  0.
        254    2    1    2    0    0  0.11470522951E+03 -0.45972840460E+03  0.27806374010E+03  0.10317444687E+04  0.87330962981E+03 0.  0.
        -24    2    4    4    0    0 -0.11404599277E+02 -0.28937239935E+03  0.58114725647E+03  0.65372362129E+03  0.75868234080E+02 0.  0.
         24    2    4    4    0    0  0.12610982879E+03 -0.17035600525E+03 -0.30308351637E+03  0.37802084744E+03  0.78200292581E+02 0.  0.
         13    1    3    3    0    0 -0.11427235477E+03  0.34743454656E+03  0.43019371213E+03  0.56465526224E+03  0.00000000000E+00 0. -1.
        -13    1    3    3    0    0 -0.43287473992E+00  0.11229385804E+03  0.90737918993E+02  0.14437267012E+03  0.00000000000E+00 0.  1.
          2    1    6    6  502    0  0.76764601670E+02 -0.12069247593E+03 -0.25725127805E+03  0.29434282372E+03  0.00000000000E+00 0. -1.
          1    1    5    5  503    0  0.24025594564E+02 -0.21831230031E+03  0.41283444713E+03  0.46762139643E+03  0.00000000000E+00 0. -1.
         -2    1    5    5    0  503 -0.35430193841E+02 -0.71060099040E+02  0.16831280934E+03  0.18610222486E+03  0.00000000000E+00 0.  1.
         -1    1    6    6    0  502  0.49345227121E+02 -0.49663529319E+02 -0.45832238316E+02  0.83678023716E+02  0.00000000000E+00 0.  1.
<mgrwt>
<rscale>  0 0.15465752E+04</rscale>
<asrwt>0</asrwt>
<pdfrwt beam="1">  1        1 0.19536675E+00 0.15465752E+04</pdfrwt>
<pdfrwt beam="2">  1       -1 0.72444387E-01 0.15465752E+04</pdfrwt>
<totfact> 0.17610160E+01</totfact>
</mgrwt>
</event>
<event>
12    1  0.1598876E-007  0.1601292E+04  0.7818608E-02  0.8819755E-01
         -2   -1    0    0    0  501 -0.00000000000E+00  0.00000000000E+00  0.53356245864E+03  0.53356245864E+03  0.00000000000E+00 0.  1.
          2   -1    0    0  501    0  0.00000000000E+00 -0.00000000000E+00 -0.12014225912E+04  0.12014225912E+04  0.00000000000E+00 0. -1.
         23    2    1    2    0    0  0.51959551582E+03 -0.87506387483E+02 -0.27864295648E+03  0.60307705769E+03  0.91777842650E+02 0.  0.
        254    2    1    2    0    0 -0.51959551582E+03  0.87506387483E+02 -0.38921717603E+03  0.11319079921E+04  0.92308657479E+03 0.  0.
        -24    2    4    4    0    0 -0.67685581858E+03  0.26011797783E+03 -0.76070290084E+02  0.73336299773E+03  0.78990099781E+02 0.  0.
         24    2    4    4    0    0  0.15726030276E+03 -0.17261159035E+03 -0.31314688595E+03  0.39854499438E+03  0.79066911014E+02 0.  0.
         13    1    3    3    0    0  0.48924736796E+03 -0.59838813053E+02 -0.24754073785E+03  0.55156149929E+03  0.00000000000E+00 0.  1.
        -13    1    3    3    0    0  0.30348147862E+02 -0.27667574429E+02 -0.31102218627E+02  0.51515558398E+02  0.00000000000E+00 0. -1.
          2    1    6    6  502    0  0.94942825519E+01 -0.21654006231E+01  0.29817120062E+01  0.10184349146E+02  0.00000000000E+00 0. -1.
          3    1    5    5  503    0 -0.56028830088E+02 -0.35098603807E+00 -0.22580843372E+01  0.56075412947E+02  0.00000000000E+00 0. -1.
         -4    1    5    5    0  503 -0.62082698849E+03  0.26046896387E+03 -0.73812205747E+02  0.67728758478E+03  0.00000000000E+00 0.  1.
         -1    1    6    6    0  502  0.14776602020E+03 -0.17044618973E+03 -0.31612859795E+03  0.38836064523E+03  0.00000000000E+00 0.  1.
<mgrwt>
<rscale>  0 0.16012920E+04</rscale>
<asrwt>0</asrwt>
<pdfrwt beam="1">  1        2 0.18483424E+00 0.16012920E+04</pdfrwt>
<pdfrwt beam="2">  1       -2 0.82086533E-01 0.16012920E+04</pdfrwt>
<totfact> 0.23643432E+01</totfact>
</mgrwt>
</event>
<event>
12    1  0.1598876E-007  0.1605913E+04  0.7818608E-02  0.8816924E-01
         -1   -1    0    0    0  501 -0.00000000000E+00  0.00000000000E+00  0.78924229387E+03  0.78924229387E+03  0.00000000000E+00 0.  1.
          1   -1    0    0  501    0  0.00000000000E+00 -0.00000000000E+00 -0.81690850653E+03  0.81690850653E+03  0.00000000000E+00 0. -1.
         23    2    1    2    0    0  0.33832666747E+03 -0.17609854013E+03 -0.40546155777E+03  0.56408347818E+03  0.91189175723E+02 0.  0.
        254    2    1    2    0    0 -0.33832666747E+03  0.17609854013E+03  0.37779534511E+03  0.10420673222E+04  0.89314016341E+03 0.  0.
        -24    2    4    4    0    0 -0.50073551553E+03  0.42095892003E+03  0.20002102235E+03  0.68976870614E+03  0.88487229091E+02 0.  0.
         24    2    4    4    0    0  0.16240884806E+03 -0.24486037990E+03  0.17777432275E+03  0.35229861609E+03  0.78596218061E+02 0.  0.
         13    1    3    3    0    0  0.12215585746E+03 -0.95055294428E+02 -0.21428367925E+03  0.26433890690E+03  0.00000000000E+00 0. -1.
        -13    1    3    3    0    0  0.21617081001E+03 -0.81043245703E+02 -0.19117787853E+03  0.29974457128E+03  0.00000000000E+00 0.  1.
          2    1    6    6  502    0  0.10959975274E+03 -0.17086926803E+03  0.16270061065E+03  0.26015361090E+03  0.00000000000E+00 0. -1.
          3    1    5    5  503    0 -0.43549565090E+03  0.40007122992E+03  0.18513343581E+03  0.61966752378E+03  0.00000000000E+00 0. -1.
         -4    1    5    5    0  503 -0.65239864632E+02  0.20887690104E+02  0.14887586539E+02  0.70101182359E+02  0.00000000000E+00 0.  1.
         -1    1    6    6    0  502  0.52809095323E+02 -0.73991111868E+02  0.15073712100E+02  0.92145005186E+02  0.00000000000E+00 0.  1.
<mgrwt>
<rscale>  0 0.16059125E+04</rscale>
<asrwt>0</asrwt>
<pdfrwt beam="1">  1        1 0.12567823E+00 0.16059125E+04</pdfrwt>
<pdfrwt beam="2">  1       -1 0.12142189E+00 0.16059125E+04</pdfrwt>
<totfact> 0.12331621E+01</totfact>
</mgrwt>
</event>
<event>
12    1  0.1598876E-007  0.2199557E+04  0.7818608E-02  0.8518613E-01
         -1   -1    0    0    0  501 -0.00000000000E+00  0.00000000000E+00  0.56022578370E+03  0.56022578370E+03  0.00000000000E+00 0.  1.
          1   -1    0    0  501    0  0.00000000000E+00 -0.00000000000E+00 -0.21589727683E+04  0.21589727683E+04  0.00000000000E+00 0. -1.
         23    2    1    2    0    0 -0.40057576879E+01 -0.54981484106E+03  0.21192705592E+03  0.59612139565E+03  0.90195541866E+02 0.  0.
        254    2    1    2    0    0  0.40057576879E+01  0.54981484106E+03 -0.18106740405E+04  0.21230771564E+04  0.96260257910E+03 0.  0.
        -24    2    4    4    0    0 -0.44211646492E+03  0.81890982430E+02 -0.74031976310E+03  0.87008758060E+03  0.82498149794E+02 0.  0.
         24    2    4    4    0    0  0.44612222261E+03  0.46792385863E+03 -0.10703542775E+04  0.12529895758E+04  0.79666949146E+02 0.  0.
         11    1    3    3    0    0  0.30048910896E+02 -0.98125685041E+02  0.56985991045E+02  0.11738394390E+03  0.00000000000E+00 0. -1.
        -11    1    3    3    0    0 -0.34054668584E+02 -0.45168915602E+03  0.15494106488E+03  0.47873745174E+03  0.00000000000E+00 0.  1.
          4    1    6    6  502    0  0.13349162151E+03  0.12975809937E+03 -0.37952725503E+03  0.42272699781E+03  0.00000000000E+00 0. -1.
          1    1    5    5  503    0 -0.27790347476E+03  0.47139876389E+02 -0.38539544378E+03  0.47747477139E+03  0.00000000000E+00 0. -1.
         -2    1    5    5    0  503 -0.16421299016E+03  0.34751106041E+02 -0.35492431932E+03  0.39261280920E+03  0.00000000000E+00 0.  1.
         -3    1    6    6    0  502  0.31263060110E+03  0.33816575926E+03 -0.69082702242E+03  0.83026257797E+03  0.00000000000E+00 0.  1.
<mgrwt>
<rscale>  0 0.21995565E+04</rscale>
<asrwt>0</asrwt>
<pdfrwt beam="1">  1        1 0.33214965E+00 0.21995565E+04</pdfrwt>
<pdfrwt beam="2">  1       -1 0.86188583E-01 0.21995565E+04</pdfrwt>
<totfact> 0.28135337E+00</totfact>
</mgrwt>
</event>
<event>
12    1  0.1598876E-007  0.1657655E+04  0.7818608E-02  0.8785891E-01
         -2   -1    0    0    0  501 -0.00000000000E+00  0.00000000000E+00  0.41095478458E+03  0.41095478458E+03  0.00000000000E+00 0. -1.
          2   -1    0    0  501    0  0.00000000000E+00 -0.00000000000E+00 -0.16716064331E+04  0.16716064331E+04  0.00000000000E+00 0.  1.
         23    2    1    2    0    0 -0.11594232876E+03 -0.53793852445E+03 -0.65100716127E+03  0.85732073595E+03  0.91476994897E+02 0.  0.
        254    2    1    2    0    0  0.11594232876E+03  0.53793852445E+03 -0.60964448721E+03  0.12252404817E+04  0.90924548804E+03 0.  0.
        -24    2    4    4    0    0  0.19363074366E+03  0.76751755245E+03 -0.38079434876E+03  0.88221255409E+03  0.81967044195E+02 0.  0.
         24    2    4    4    0    0 -0.77688414896E+02 -0.22957902800E+03 -0.22885013845E+03  0.34302792761E+03  0.80955255203E+02 0.  0.
         11    1    3    3    0    0 -0.11020114740E+02 -0.15379901623E+03 -0.13081108368E+03  0.20220563774E+03  0.00000000000E+00 0. -1.
        -11    1    3    3    0    0 -0.10492221402E+03 -0.38413950822E+03 -0.52019607758E+03  0.65511509821E+03  0.00000000000E+00 0.  1.
          4    1    6    6  502    0 -0.15034927415E+02 -0.67825599525E+02 -0.11873271868E+03  0.13756387417E+03  0.00000000000E+00 0. -1.
          1    1    5    5  503    0  0.10540690973E+01 -0.20036098532E+01  0.71686519536E-01  0.22650944932E+01  0.00000000000E+00 0. -1.
         -2    1    5    5    0  503  0.19257667456E+03  0.76952116230E+03 -0.38086603528E+03  0.87994745959E+03  0.00000000000E+00 0.  1.
         -3    1    6    6    0  502 -0.62653487481E+02 -0.16175342848E+03 -0.11011741978E+03  0.20546405344E+03  0.00000000000E+00 0.  1.
<mgrwt>
<rscale>  0 0.16576546E+04</rscale>
<asrwt>0</asrwt>
<pdfrwt beam="1">  1        2 0.25717021E+00 0.16576546E+04</pdfrwt>
<pdfrwt beam="2">  1       -2 0.63223814E-01 0.16576546E+04</pdfrwt>
<totfact> 0.22494206E+01</totfact>
</mgrwt>
</event>
<event>
12    1  0.1598876E-007  0.1443575E+04  0.7818608E-02  0.8922867E-01
          2   -1    0    0  501    0  0.00000000000E+00  0.00000000000E+00  0.11700723349E+04  0.11700723349E+04  0.00000000000E+00 0. -1.
         -2   -1    0    0    0  501 -0.00000000000E+00 -0.00000000000E+00 -0.44525189780E+03  0.44525189780E+03  0.00000000000E+00 0.  1.
         23    2    1    2    0    0  0.24041470956E+03  0.36084392244E+03  0.15011773992E+03  0.46481252749E+03  0.74214425418E+02 0.  0.
        254    2    1    2    0    0 -0.24041470956E+03 -0.36084392244E+03  0.57470269714E+03  0.11505117052E+04  0.89743324247E+03 0.  0.
        -24    2    4    4    0    0 -0.13848786097E+03  0.28699724951E+03  0.12417433500E+03  0.35090921081E+03  0.78560167392E+02 0.  0.
         24    2    4    4    0    0 -0.10192684858E+03 -0.64784117195E+03  0.45052836215E+03  0.79960249435E+03  0.79379325639E+02 0.  0.
         11    1    3    3    0    0  0.41752199751E+02  0.22577436941E+02  0.12490924372E+02  0.49081666990E+02  0.00000000000E+00 0. -1.
        -11    1    3    3    0    0  0.19866250981E+03  0.33826648550E+03  0.13762681555E+03  0.41573086050E+03  0.00000000000E+00 0.  1.
          4    1    6    6  502    0 -0.10929285317E+03 -0.53050042634E+03  0.38939969285E+03  0.66708901272E+03  0.00000000000E+00 0. -1.
          3    1    5    5  503    0 -0.12930714191E+03  0.26550472062E+03  0.13552090427E+03  0.32492923708E+03  0.00000000000E+00 0. -1.
         -4    1    5    5    0  503 -0.91807190667E+01  0.21492528892E+02 -0.11346569275E+02  0.25979973731E+02  0.00000000000E+00 0.  1.
         -3    1    6    6    0  502  0.73660045884E+01 -0.11734074561E+03  0.61128669296E+02  0.13251348163E+03  0.00000000000E+00 0.  1.
<mgrwt>
<rscale>  0 0.14435746E+04</rscale>
<asrwt>0</asrwt>
<pdfrwt beam="1">  1        2 0.18001113E+00 0.14435746E+04</pdfrwt>
<pdfrwt beam="2">  1       -2 0.68500292E-01 0.14435746E+04</pdfrwt>
<totfact> 0.37332623E+01</totfact>
</mgrwt>
</event>
<event>
12    1  0.1598876E-007  0.1869351E+04  0.7818608E-02  0.8670265E-01
         -2   -1    0    0    0  501 -0.00000000000E+00  0.00000000000E+00  0.42753369905E+03  0.42753369905E+03  0.00000000000E+00 0. -1.
          2   -1    0    0  501    0  0.00000000000E+00 -0.00000000000E+00 -0.20433906335E+04  0.20433906335E+04  0.00000000000E+00 0.  1.
         23    2    1    2    0    0 -0.25535127201E+02  0.63339538989E+03 -0.10687218891E+04  0.12461164980E+04  0.93798121686E+02 0.  0.
        254    2    1    2    0    0  0.25535127201E+02 -0.63339538989E+03 -0.54713504540E+03  0.12248078346E+04  0.89384322517E+03 0.  0.
        -24    2    4    4    0    0 -0.28699215648E+03  0.26511337774E+02 -0.35938229397E+03  0.46669756052E+03  0.74723696811E+02 0.  0.
         24    2    4    4    0    0  0.31252728368E+03 -0.65990672767E+03 -0.18775275142E+03  0.75811027410E+03  0.79560667165E+02 0.  0.
         11    1    3    3    0    0 -0.37033561341E+02  0.14612716881E+03 -0.20653075978E+03  0.25569432701E+03  0.00000000000E+00 0. -1.
        -11    1    3    3    0    0  0.11498434140E+02  0.48726822108E+03 -0.86219112930E+03  0.99042217094E+03  0.00000000000E+00 0.  1.
          2    1    6    6  502    0  0.67455287630E+02 -0.22756771679E+03 -0.53069198467E+02  0.24321517506E+03  0.00000000000E+00 0. -1.
          1    1    5    5  503    0 -0.36832591263E+02  0.13211700063E+02 -0.17519122262E+02  0.42873166929E+02  0.00000000000E+00 0. -1.
         -2    1    5    5    0  503 -0.25015956522E+03  0.13299637711E+02 -0.34186317171E+03  0.42382439359E+03  0.00000000000E+00 0.  1.
         -1    1    6    6    0  502  0.24507199605E+03 -0.43233901088E+03 -0.13468355296E+03  0.51489509904E+03  0.00000000000E+00 0.  1.
<mgrwt>
<rscale>  0 0.18693511E+04</rscale>
<asrwt>0</asrwt>
<pdfrwt beam="1">  1        2 0.31436779E+00 0.18693511E+04</pdfrwt>
<pdfrwt beam="2">  1       -2 0.65774415E-01 0.18693511E+04</pdfrwt>
<totfact> 0.12626204E+01</totfact>
</mgrwt>
</event>
<event>
12    1  0.1598876E-007  0.1289061E+04  0.7818608E-02  0.9038285E-01
          2   -1    0    0  501    0  0.00000000000E+00  0.00000000000E+00  0.81346561919E+03  0.81346561919E+03  0.00000000000E+00 0. -1.
         -2   -1    0    0    0  501 -0.00000000000E+00 -0.00000000000E+00 -0.51067852802E+03  0.51067852802E+03  0.00000000000E+00 0.  1.
         23    2    1    2    0    0  0.11984773087E+03  0.51008645181E+02  0.37533200283E+03  0.40641654526E+03  0.85644237608E+02 0.  0.
        254    2    1    2    0    0 -0.11984773087E+03 -0.51008645181E+02 -0.72544911658E+02  0.91772760195E+03  0.90553620949E+03 0.  0.
        -24    2    4    4    0    0  0.83401304091E+02  0.32341403302E+03  0.20832159573E+03  0.40124252680E+03  0.77751294441E+02 0.  0.
         24    2    4    4    0    0 -0.20324903496E+03 -0.37442267821E+03 -0.28086650739E+03  0.51648507515E+03  0.79801790175E+02 0.  0.
         13    1    3    3    0    0  0.40533418606E+02  0.12407966578E+02  0.35403425324E+02  0.55229685706E+02  0.00000000000E+00 0.  1.
        -13    1    3    3    0    0  0.79314312259E+02  0.38600678603E+02  0.33992857750E+03  0.35118685955E+03  0.00000000000E+00 0. -1.
          2    1    6    6  502    0 -0.31361279735E+02 -0.17607393948E+02 -0.12536537817E+02  0.38088252371E+02  0.00000000000E+00 0. -1.
          3    1    5    5  503    0  0.60047371907E+02  0.12138583711E+03  0.53359680603E+02  0.14555914207E+03  0.00000000000E+00 0. -1.
         -4    1    5    5    0  503  0.23353932183E+02  0.20202819591E+03  0.15496191513E+03  0.25568338474E+03  0.00000000000E+00 0.  1.
         -1    1    6    6    0  502 -0.17188775522E+03 -0.35681528426E+03 -0.26832996957E+03  0.47839682278E+03  0.00000000000E+00 0.  1.
<mgrwt>
<rscale>  0 0.12890608E+04</rscale>
<asrwt>0</asrwt>
<pdfrwt beam="1">  1        2 0.12514856E+00 0.12890608E+04</pdfrwt>
<pdfrwt beam="2">  1       -2 0.78565927E-01 0.12890608E+04</pdfrwt>
<totfact> 0.47588662E+01</totfact>
</mgrwt>
</event>
<event>
12    1  0.1598876E-007  0.1309678E+04  0.7818608E-02  0.9021925E-01
         -2   -1    0    0    0  501 -0.00000000000E+00  0.00000000000E+00  0.90317042682E+03  0.90317042682E+03  0.00000000000E+00 0. -1.
          2   -1    0    0  501    0  0.00000000000E+00 -0.00000000000E+00 -0.47478777051E+03  0.47478777051E+03  0.00000000000E+00 0.  1.
         23    2    1    2    0    0 -0.24079970956E+03 -0.93392110705E+02  0.34726446635E+03  0.44218304012E+03  0.90700853977E+02 0.  0.
        254    2    1    2    0    0  0.24079970956E+03  0.93392110705E+02  0.81118189961E+02  0.93577515721E+03  0.89576135083E+03 0.  0.
        -24    2    4    4    0    0 -0.15006462873E+03 -0.18902937662E+03  0.30556869175E+03  0.39772698977E+03  0.81012560759E+02 0.  0.
         24    2    4    4    0    0  0.39086433829E+03  0.28242148732E+03 -0.22445050178E+03  0.53804816744E+03  0.81123210487E+02 0.  0.
         13    1    3    3    0    0 -0.16516333135E+03 -0.10192435516E+03  0.27948000910E+03  0.34025957104E+03  0.00000000000E+00 0. -1.
        -13    1    3    3    0    0 -0.75636378212E+02  0.85322444528E+01  0.67784457244E+02  0.10192346907E+03  0.00000000000E+00 0.  1.
          2    1    6    6  502    0  0.29919766185E+03  0.22012226931E+03 -0.20881329826E+03  0.42611741085E+03  0.00000000000E+00 0. -1.
          3    1    5    5  503    0 -0.14731668913E+03 -0.18706520588E+03  0.31078435742E+03  0.39151310957E+03  0.00000000000E+00 0. -1.
         -4    1    5    5    0  503 -0.27479395964E+01 -0.19641707391E+01 -0.52156656781E+01  0.62138802035E+01  0.00000000000E+00 0.  1.
         -1    1    6    6    0  502  0.91666676446E+02  0.62299218013E+02 -0.15637203526E+02  0.11193075659E+03  0.00000000000E+00 0.  1.
<mgrwt>
<rscale>  0 0.13096782E+04</rscale>
<asrwt>0</asrwt>
<pdfrwt beam="1">  1        2 0.73044272E-01 0.13096782E+04</pdfrwt>
<pdfrwt beam="2">  1       -2 0.13894930E+00 0.13096782E+04</pdfrwt>
<totfact> 0.23441022E+01</totfact>
</mgrwt>
</event>
<event>
12    1  0.1598876E-007  0.3521099E+04  0.7818608E-02  0.8108808E-01
          2   -1    0    0  501    0  0.00000000000E+00  0.00000000000E+00  0.23298659438E+04  0.23298659438E+04  0.00000000000E+00 0. -1.
         -2   -1    0    0    0  501 -0.00000000000E+00 -0.00000000000E+00 -0.13303490089E+04  0.13303490089E+04  0.00000000000E+00 0.  1.
         23    2    1    2    0    0  0.43588268345E+03  0.51773759669E+02 -0.11777370297E+04  0.12623205481E+04  0.11710857886E+03 0.  0.
        254    2    1    2    0    0 -0.43588268345E+03 -0.51773759669E+02  0.21772539646E+04  0.23978944046E+04  0.90376352738E+03 0.  0.
        -24    2    4    4    0    0 -0.41460453365E+03 -0.40279033176E+02  0.30381413856E+03  0.52259211138E+03  0.85323878500E+02 0.  0.
         24    2    4    4    0    0 -0.21278149794E+02 -0.11494726492E+02  0.18734398260E+04  0.18753022932E+04  0.79981378274E+02 0.  0.
         11    1    3    3    0    0  0.29980552200E+03  0.26690052374E+02 -0.94261809604E+03  0.98950724348E+03  0.00000000000E+00 0.  1.
        -11    1    3    3    0    0  0.13607716145E+03  0.25083707295E+02 -0.23511893362E+03  0.27281330464E+03  0.00000000000E+00 0. -1.
          2    1    6    6  502    0 -0.75757289058E+00  0.17930448702E+02  0.15078091604E+04  0.15079159589E+04  0.00000000000E+00 0. -1.
          1    1    5    5  503    0 -0.17677302043E+03 -0.54615012666E+02  0.15760738513E+03  0.24304647335E+03  0.00000000000E+00 0. -1.
         -2    1    5    5    0  503 -0.23783151322E+03  0.14335979490E+02  0.14620675343E+03  0.27954563802E+03  0.00000000000E+00 0.  1.
         -1    1    6    6    0  502 -0.20520576904E+02 -0.29425175195E+02  0.36563066561E+03  0.36738633432E+03  0.00000000000E+00 0.  1.
<mgrwt>
<rscale>  0 0.35210992E+04</rscale>
<asrwt>0</asrwt>
<pdfrwt beam="1">  1        2 0.35844091E+00 0.35210992E+04</pdfrwt>
<pdfrwt beam="2">  1       -2 0.20466908E+00 0.35210992E+04</pdfrwt>
<totfact> 0.44335962E-01</totfact>
</mgrwt>
</event>
<event>
12    1  0.1598876E-007  0.1405866E+04  0.7818608E-02  0.8949584E-01
          2   -1    0    0  501    0  0.00000000000E+00  0.00000000000E+00  0.23411342929E+04  0.23411342929E+04  0.00000000000E+00 0.  1.
         -2   -1    0    0    0  501 -0.00000000000E+00 -0.00000000000E+00 -0.21105772406E+03  0.21105772406E+03  0.00000000000E+00 0. -1.
         23    2    1    2    0    0  0.76036830242E+01 -0.30648170773E+03  0.14775101691E+03  0.35257819304E+03  0.92152949174E+02 0.  0.
        254    2    1    2    0    0 -0.76036830242E+01  0.30648170773E+03  0.19823255519E+04  0.21996138239E+04  0.90260596462E+03 0.  0.
        -24    2    4    4    0    0 -0.40725397307E+03  0.13673913019E+03  0.14114501795E+04  0.14775050386E+04  0.79222103860E+02 0.  0.
         24    2    4    4    0    0  0.39965029005E+03  0.16974257754E+03  0.57087537247E+03  0.72210878530E+03  0.83722816168E+02 0.  0.
         11    1    3    3    0    0  0.21251370750E+02 -0.13295567598E+02  0.21685941758E+02  0.33146235781E+02  0.00000000000E+00 0.  1.
        -11    1    3    3    0    0 -0.13647687726E+02 -0.29318614013E+03  0.12606507516E+03  0.31943195726E+03  0.00000000000E+00 0. -1.
          2    1    6    6  502    0  0.77480627853E+02  0.60756248211E+02  0.92044852267E+02  0.13478436192E+03  0.00000000000E+00 0. -1.
          3    1    5    5  503    0 -0.55635776131E+01  0.16243343332E+02  0.67023271910E+02  0.69187560847E+02  0.00000000000E+00 0. -1.
         -4    1    5    5    0  503 -0.40169039546E+03  0.12049578686E+03  0.13444269076E+04  0.14083174778E+04  0.00000000000E+00 0.  1.
         -1    1    6    6    0  502  0.32216966220E+03  0.10898632933E+03  0.47883052020E+03  0.58732442338E+03  0.00000000000E+00 0.  1.
<mgrwt>
<rscale>  0 0.14058655E+04</rscale>
<asrwt>0</asrwt>
<pdfrwt beam="1">  1        2 0.36017449E+00 0.14058655E+04</pdfrwt>
<pdfrwt beam="2">  1       -2 0.32470421E-01 0.14058655E+04</pdfrwt>
<totfact> 0.37021430E+01</totfact>
</mgrwt>
</event>
<event>
12    1  0.1598876E-007  0.1413440E+04  0.7818608E-02  0.8944147E-01
          1   -1    0    0  501    0  0.00000000000E+00  0.00000000000E+00  0.62690787493E+03  0.62690787493E+03  0.00000000000E+00 0. -1.
         -1   -1    0    0    0  501 -0.00000000000E+00 -0.00000000000E+00 -0.79669276338E+03  0.79669276338E+03  0.00000000000E+00 0.  1.
         23    2    1    2    0    0 -0.17777030465E+03  0.35630269375E+03  0.82012475567E+01  0.40863995576E+03  0.91462900620E+02 0.  0.
        254    2    1    2    0    0  0.17777030465E+03 -0.35630269375E+03 -0.17798613601E+03  0.10149606825E+04  0.91646725621E+03 0.  0.
        -24    2    4    4    0    0 -0.26356461615E+03 -0.46086112308E+03 -0.12713281530E+03  0.55150444184E+03  0.78326974831E+02 0.  0.
         24    2    4    4    0    0  0.44133492081E+03  0.10455842933E+03 -0.50853320714E+02  0.46345624070E+03  0.80601794965E+02 0.  0.
         13    1    3    3    0    0 -0.46595627481E+02  0.12860222689E+03  0.43417791531E+02  0.14350884949E+03  0.00000000000E+00 0.  1.
        -13    1    3    3    0    0 -0.13117467717E+03  0.22770046686E+03 -0.35216543974E+02  0.26513110627E+03  0.00000000000E+00 0. -1.
          4    1    6    6  502    0  0.29802762416E+03  0.10499623962E+03 -0.18386506052E+02  0.31651656940E+03  0.00000000000E+00 0. -1.
          1    1    5    5  503    0 -0.16429796898E+03 -0.34675160680E+03 -0.71244345963E+02  0.39026434152E+03  0.00000000000E+00 0. -1.
         -2    1    5    5    0  503 -0.99266647172E+02 -0.11410951629E+03 -0.55888469332E+02  0.16124010032E+03  0.00000000000E+00 0.  1.
         -3    1    6    6    0  502  0.14330729664E+03 -0.43781028763E+00 -0.32466814662E+02  0.14693967131E+03  0.00000000000E+00 0.  1.
<mgrwt>
<rscale>  0 0.14134397E+04</rscale>
<asrwt>0</asrwt>
<pdfrwt beam="1">  1        1 0.96447366E-01 0.14134397E+04</pdfrwt>
<pdfrwt beam="2">  1       -1 0.12256812E+00 0.14134397E+04</pdfrwt>
<totfact> 0.18393898E+01</totfact>
</mgrwt>
</event>
<event>
12    1  0.1598876E-007  0.3206466E+04  0.7818608E-02  0.8187112E-01
          2   -1    0    0  501    0  0.00000000000E+00  0.00000000000E+00  0.17611060933E+04  0.17611060933E+04  0.00000000000E+00 0. -1.
         -2   -1    0    0    0  501 -0.00000000000E+00 -0.00000000000E+00 -0.14595122096E+04  0.14595122096E+04  0.00000000000E+00 0.  1.
         23    2    1    2    0    0 -0.43288333432E+03 -0.74655065661E+03  0.13425139021E+04  0.15985148054E+04  0.90444135241E+02 0.  0.
        254    2    1    2    0    0  0.43288333432E+03  0.74655065661E+03 -0.10409200185E+04  0.16221034976E+04  0.89609118283E+03 0.  0.
        -24    2    4    4    0    0 -0.15849953939E+03  0.17679044200E+03 -0.67413798012E+03  0.71908861100E+03  0.79053462081E+02 0.  0.
         24    2    4    4    0    0  0.59138287371E+03  0.56976021461E+03 -0.36678203836E+03  0.90301488657E+03  0.80909926679E+02 0.  0.
         13    1    3    3    0    0 -0.42866165482E+03 -0.73763624278E+03  0.13005418670E+04  0.15553993664E+04  0.00000000000E+00 0. -1.
        -13    1    3    3    0    0 -0.42216794945E+01 -0.89144138352E+01  0.41972035101E+02  0.43115439024E+02  0.00000000000E+00 0.  1.
          2    1    6    6  502    0  0.51749303433E+03  0.53206195122E+03 -0.33029932478E+03  0.81239559604E+03  0.00000000000E+00 0. -1.
          3    1    5    5  503    0 -0.12341555158E+03  0.11815189077E+03 -0.56550355860E+03  0.59074998303E+03  0.00000000000E+00 0. -1.
         -4    1    5    5    0  503 -0.35083987805E+02  0.58638551226E+02 -0.10863442152E+03  0.12833862797E+03  0.00000000000E+00 0.  1.
         -1    1    6    6    0  502  0.73889839374E+02  0.37698263390E+02 -0.36482713577E+02  0.90619290525E+02  0.00000000000E+00 0.  1.
<mgrwt>
<rscale>  0 0.32064659E+04</rscale>
<asrwt>0</asrwt>
<pdfrwt beam="1">  1        2 0.27093940E+00 0.32064659E+04</pdfrwt>
<pdfrwt beam="2">  1       -2 0.22454034E+00 0.32064659E+04</pdfrwt>
<totfact> 0.70619673E-01</totfact>
</mgrwt>
</event>
<event>
12    1  0.1598876E-007  0.1521830E+04  0.7818608E-02  0.8870064E-01
          1   -1    0    0  501    0  0.00000000000E+00  0.00000000000E+00  0.12984744095E+04  0.12984744095E+04  0.00000000000E+00 0. -1.
         -1   -1    0    0    0  501 -0.00000000000E+00 -0.00000000000E+00 -0.44590171505E+03  0.44590171505E+03  0.00000000000E+00 0.  1.
         23    2    1    2    0    0  0.34180486862E+03  0.32046261864E+03  0.10323195267E+03  0.48874646134E+03  0.93217000966E+02 0.  0.
        254    2    1    2    0    0 -0.34180486862E+03 -0.32046261864E+03  0.74934074178E+03  0.12556296632E+04  0.89194587598E+03 0.  0.
        -24    2    4    4    0    0 -0.17334484532E+02  0.80351232262E+01 -0.18977329111E+03  0.20609845910E+03  0.78087292607E+02 0.  0.
         24    2    4    4    0    0 -0.32447038408E+03 -0.32849774187E+03  0.93911403289E+03  0.10495312041E+04  0.79929875908E+02 0.  0.
         13    1    3    3    0    0 -0.26612015926E+01  0.13686971517E+02 -0.52409042328E+01  0.14895712819E+02  0.00000000000E+00 0. -1.
        -13    1    3    3    0    0  0.34446607021E+03  0.30677564712E+03  0.10847285690E+03  0.47385074852E+03  0.00000000000E+00 0.  1.
          2    1    6    6  502    0  0.44066424548E+01 -0.44080191943E+01  0.73445569660E+01  0.96328421542E+01  0.00000000000E+00 0. -1.
          1    1    5    5  503    0 -0.34471251719E+01 -0.18832174232E+02 -0.63087133460E+01  0.20157711237E+02  0.00000000000E+00 0. -1.
         -2    1    5    5    0  503 -0.13887359360E+02  0.26867297458E+02 -0.18346457776E+03  0.18594074787E+03  0.00000000000E+00 0.  1.
         -1    1    6    6    0  502 -0.32887702654E+03 -0.32408972267E+03  0.93176947593E+03  0.10398983620E+04  0.00000000000E+00 0.  1.
<mgrwt>
<rscale>  0 0.15218304E+04</rscale>
<asrwt>0</asrwt>
<pdfrwt beam="1">  1        1 0.19976529E+00 0.15218304E+04</pdfrwt>
<pdfrwt beam="2">  1       -1 0.68600264E-01 0.15218304E+04</pdfrwt>
<totfact> 0.18831974E+01</totfact>
</mgrwt>
</event>
<event>
12    1  0.1598876E-007  0.1545289E+04  0.7818608E-02  0.8854883E-01
          1   -1    0    0  501    0  0.00000000000E+00  0.00000000000E+00  0.53788242828E+03  0.53788242828E+03  0.00000000000E+00 0. -1.
         -1   -1    0    0    0  501 -0.00000000000E+00 -0.00000000000E+00 -0.11098697958E+04  0.11098697958E+04  0.00000000000E+00 0.  1.
         23    2    1    2    0    0  0.28548473545E+03 -0.39217684674E+03 -0.32411043701E+03  0.59049796367E+03  0.91302006678E+02 0.  0.
        254    2    1    2    0    0 -0.28548473545E+03  0.39217684674E+03 -0.24787693047E+03  0.10572542604E+04  0.90611223649E+03 0.  0.
        -24    2    4    4    0    0 -0.29582990931E+03 -0.15718243691E+03 -0.35175790921E+03  0.49224232032E+03  0.79669451533E+02 0.  0.
         24    2    4    4    0    0  0.10345173852E+02  0.54935928365E+03  0.10388097874E+03  0.56501194005E+03  0.80898637157E+02 0.  0.
         13    1    3    3    0    0 -0.50595522470E+01 -0.37896723460E+01  0.12491050870E+01  0.64436751120E+01  0.00000000000E+00 0. -1.
        -13    1    3    3    0    0  0.29054428770E+03 -0.38838717439E+03 -0.32535954210E+03  0.58405428856E+03  0.00000000000E+00 0.  1.
          4    1    6    6  502    0  0.12616675722E+02  0.50861480162E+03  0.11718093496E+03  0.52209153264E+03  0.00000000000E+00 0. -1.
          3    1    5    5  503    0 -0.26521978886E+03 -0.10862989272E+03 -0.28470344402E+03  0.40397777294E+03  0.00000000000E+00 0. -1.
         -4    1    5    5    0  503 -0.30610120444E+02 -0.48552544196E+02 -0.67054465192E+02  0.88264547377E+02  0.00000000000E+00 0.  1.
         -3    1    6    6    0  502 -0.22715018703E+01  0.40744482034E+02 -0.13299956217E+02  0.42920407411E+02  0.00000000000E+00 0.  1.
<mgrwt>
<rscale>  0 0.15452889E+04</rscale>
<asrwt>0</asrwt>
<pdfrwt beam="1">  1        1 0.82751142E-01 0.15452889E+04</pdfrwt>
<pdfrwt beam="2">  1       -1 0.17074920E+00 0.15452889E+04</pdfrwt>
<totfact> 0.93729304E+00</totfact>
</mgrwt>
</event>
<event>
12    1  0.1598876E-007  0.2914035E+04  0.7818608E-02  0.8268714E-01
          2   -1    0    0  501    0  0.00000000000E+00  0.00000000000E+00  0.18894804687E+04  0.18894804687E+04  0.00000000000E+00 0.  1.
         -2   -1    0    0    0  501 -0.00000000000E+00 -0.00000000000E+00 -0.11235360799E+04  0.11235360799E+04  0.00000000000E+00 0. -1.
         23    2    1    2    0    0  0.88353239982E+03 -0.73906857258E+03 -0.29001062726E+03  0.11914047637E+04  0.92126492030E+02 0.  0.
        254    2    1    2    0    0 -0.88353239982E+03  0.73906857258E+03  0.10559550161E+04  0.18216117848E+04  0.93614990364E+03 0.  0.
        -24    2    4    4    0    0 -0.87810785480E+03  0.35164922187E+03  0.34790699866E+03  0.10106422060E+04  0.75018724112E+02 0.  0.
         24    2    4    4    0    0 -0.54245450213E+01  0.38741935071E+03  0.70804801739E+03  0.81096957878E+03  0.78844681363E+02 0.  0.
         13    1    3    3    0    0  0.34875182085E+03 -0.30481047494E+03 -0.16218137938E+03  0.49075458021E+03  0.00000000000E+00 0.  1.
        -13    1    3    3    0    0  0.53478057898E+03 -0.43425809764E+03 -0.12782924788E+03  0.70065018350E+03  0.00000000000E+00 0. -1.
          2    1    6    6  502    0  0.32773111668E+02  0.26794090806E+03  0.48759436630E+03  0.55732815568E+03  0.00000000000E+00 0. -1.
          3    1    5    5  503    0 -0.72901772798E+03  0.27602133719E+03  0.31207818694E+03  0.83967101954E+03  0.00000000000E+00 0. -1.
         -4    1    5    5    0  503 -0.14909012682E+03  0.75627884676E+02  0.35828811715E+02  0.17097118648E+03  0.00000000000E+00 0.  1.
         -1    1    6    6    0  502 -0.38197656689E+02  0.11947844265E+03  0.22045365109E+03  0.25364142310E+03  0.00000000000E+00 0.  1.
<mgrwt>
<rscale>  0 0.29140346E+04</rscale>
<asrwt>0</asrwt>
<pdfrwt beam="1">  1        2 0.29068930E+00 0.29140346E+04</pdfrwt>
<pdfrwt beam="2">  1       -2 0.17285170E+00 0.29140346E+04</pdfrwt>
<totfact> 0.13499618E+00</totfact>
</mgrwt>
</event>
<event>
12    1  0.1598876E-007  0.1335040E+04  0.7818608E-02  0.9002231E-01
         -2   -1    0    0    0  501 -0.00000000000E+00  0.00000000000E+00  0.63756603432E+03  0.63756603432E+03  0.00000000000E+00 0.  1.
          2   -1    0    0  501    0  0.00000000000E+00 -0.00000000000E+00 -0.69888110053E+03  0.69888110053E+03  0.00000000000E+00 0. -1.
         23    2    1    2    0    0 -0.17073109091E+03 -0.29779047775E+03  0.85312803891E+02  0.36537531420E+03  0.91610980112E+02 0.  0.
        254    2    1    2    0    0  0.17073109091E+03  0.29779047775E+03 -0.14662787010E+03  0.97107182064E+03  0.89646666113E+03 0.  0.
        -24    2    4    4    0    0 -0.17468292412E+03  0.40622289304E+03  0.17313310174E+03  0.48136102186E+03  0.78754045172E+02 0.  0.
         24    2    4    4    0    0  0.34541401504E+03 -0.10843241529E+03 -0.31976097184E+03  0.48971079879E+03  0.80629751741E+02 0.  0.
         13    1    3    3    0    0 -0.69035482994E+02 -0.62513242680E+02 -0.58860246972E+01  0.93319069376E+02  0.00000000000E+00 0. -1.
        -13    1    3    3    0    0 -0.10169560792E+03 -0.23527723507E+03  0.91198828588E+02  0.27205624483E+03  0.00000000000E+00 0.  1.
          2    1    6    6  502    0  0.12865296509E+03 -0.26675154302E+00 -0.11120716595E+03  0.17005496271E+03  0.00000000000E+00 0. -1.
          1    1    5    5  503    0 -0.32135547073E+02  0.21683236454E+02  0.10341906103E+02  0.40122451952E+02  0.00000000000E+00 0. -1.
         -2    1    5    5    0  503 -0.14254737705E+03  0.38453965659E+03  0.16279119564E+03  0.44123856990E+03  0.00000000000E+00 0.  1.
         -1    1    6    6    0  502  0.21676104995E+03 -0.10816566375E+03 -0.20855380589E+03  0.31965583608E+03  0.00000000000E+00 0.  1.
<mgrwt>
<rscale>  0 0.13350399E+04</rscale>
<asrwt>0</asrwt>
<pdfrwt beam="1">  1        2 0.10752017E+00 0.13350399E+04</pdfrwt>
<pdfrwt beam="2">  1       -2 0.98087082E-01 0.13350399E+04</pdfrwt>
<totfact> 0.34717946E+01</totfact>
</mgrwt>
</event>
<event>
12    1  0.1598876E-007  0.1455936E+04  0.7818608E-02  0.8914295E-01
          2   -1    0    0  501    0  0.00000000000E+00  0.00000000000E+00  0.21560961513E+04  0.21560961513E+04  0.00000000000E+00 0.  1.
         -2   -1    0    0    0  501 -0.00000000000E+00 -0.00000000000E+00 -0.24578564977E+03  0.24578564977E+03  0.00000000000E+00 0. -1.
         23    2    1    2    0    0  0.12190767353E+03  0.22239612927E+03  0.11999203423E+04  0.12298571967E+04  0.91751715028E+02 0.  0.
        254    2    1    2    0    0 -0.12190767353E+03 -0.22239612927E+03  0.71039015925E+03  0.11720246044E+04  0.89703175850E+03 0.  0.
        -24    2    4    4    0    0 -0.44534442270E+02  0.18765252561E+03 -0.11850325513E+03  0.24041797015E+03  0.80999950482E+02 0.  0.
         24    2    4    4    0    0 -0.77373231261E+02 -0.41004865488E+03  0.82889341437E+03  0.93160663424E+03  0.81854213630E+02 0.  0.
         13    1    3    3    0    0 -0.15236313588E+02  0.18751091006E+02  0.10299233548E+03  0.10578832560E+03  0.00000000000E+00 0. -1.
        -13    1    3    3    0    0  0.13714398712E+03  0.20364503826E+03  0.10969280068E+04  0.11240688711E+04  0.00000000000E+00 0.  1.
          2    1    6    6  502    0 -0.62620427480E+02 -0.39703223293E+03  0.81041688490E+03  0.90461673611E+03  0.00000000000E+00 0. -1.
          1    1    5    5  503    0 -0.50168000968E+02  0.57943358954E+02 -0.63028785249E+02  0.99231491665E+02  0.00000000000E+00 0. -1.
         -2    1    5    5    0  503  0.56335586982E+01  0.12970916665E+03 -0.55474469877E+02  0.14118647848E+03  0.00000000000E+00 0.  1.
         -1    1    6    6    0  502 -0.14752803781E+02 -0.13016421942E+02  0.18476529477E+02  0.26989898130E+02  0.00000000000E+00 0.  1.
<mgrwt>
<rscale>  0 0.14559361E+04</rscale>
<asrwt>0</asrwt>
<pdfrwt beam="1">  1        2 0.33170709E+00 0.14559361E+04</pdfrwt>
<pdfrwt beam="2">  1       -2 0.37813178E-01 0.14559361E+04</pdfrwt>
<totfact> 0.35004793E+01</totfact>
</mgrwt>
</event>
<event>
12    1  0.1598876E-007  0.1399941E+04  0.7818608E-02  0.8953861E-01
         -2   -1    0    0    0  501 -0.00000000000E+00  0.00000000000E+00  0.27518582040E+03  0.27518582040E+03  0.00000000000E+00 0.  1.
          2   -1    0    0  501    0  0.00000000000E+00 -0.00000000000E+00 -0.17804657761E+04  0.17804657761E+04  0.00000000000E+00 0. -1.
         23    2    1    2    0    0  0.40449314677E+03  0.76871304291E+02 -0.71605379912E+03  0.83116960966E+03  0.92660528663E+02 0.  0.
        254    2    1    2    0    0 -0.40449314677E+03 -0.76871304291E+02 -0.78922615661E+03  0.12244819869E+04  0.84080574848E+03 0.  0.
        -24    2    4    4    0    0  0.39130404282E+02 -0.24714678380E+03 -0.68301813957E+03  0.73145700765E+03  0.76830031752E+02 0.  0.
         24    2    4    4    0    0 -0.44362355105E+03  0.17027547951E+03 -0.10620801704E+03  0.49302497922E+03  0.77446066892E+02 0.  0.
         11    1    3    3    0    0  0.21014926680E+03  0.34221356515E+02 -0.46009797596E+03  0.50697530814E+03  0.00000000000E+00 0.  1.
        -11    1    3    3    0    0  0.19434387997E+03  0.42649947777E+02 -0.25595582316E+03  0.32419430152E+03  0.00000000000E+00 0. -1.
          2    1    6    6  502    0 -0.38147639401E+03  0.16518341306E+03 -0.11163876008E+03  0.43043351622E+03  0.00000000000E+00 0. -1.
          1    1    5    5  503    0  0.28559056982E+02 -0.54475877587E+02 -0.24887839972E+03  0.25636633714E+03  0.00000000000E+00 0. -1.
         -2    1    5    5    0  503  0.10571347300E+02 -0.19267090621E+03 -0.43413973986E+03  0.47509067051E+03  0.00000000000E+00 0.  1.
         -1    1    6    6    0  502 -0.62147157044E+02  0.50920664451E+01  0.54307430439E+01  0.62591462991E+02  0.00000000000E+00 0.  1.
<mgrwt>
<rscale>  0 0.13999413E+04</rscale>
<asrwt>0</asrwt>
<pdfrwt beam="1">  1        2 0.27391781E+00 0.13999413E+04</pdfrwt>
<pdfrwt beam="2">  1       -2 0.42336280E-01 0.13999413E+04</pdfrwt>
<totfact> 0.45537493E+01</totfact>
</mgrwt>
</event>
<event>
12    1  0.1598876E-007  0.1955673E+04  0.7818608E-02  0.8627630E-01
         -2   -1    0    0    0  501 -0.00000000000E+00  0.00000000000E+00  0.42547893971E+03  0.42547893971E+03  0.00000000000E+00 0. -1.
          2   -1    0    0  501    0  0.00000000000E+00 -0.00000000000E+00 -0.22472654647E+04  0.22472654647E+04  0.00000000000E+00 0.  1.
         23    2    1    2    0    0 -0.40043815923E+03  0.24530628301E+03  0.10798280212E+03  0.49058612747E+03  0.92133441621E+02 0.  0.
        254    2    1    2    0    0  0.40043815923E+03 -0.24530628301E+03 -0.19297693271E+04  0.21821582769E+04  0.90403495393E+03 0.  0.
        -24    2    4    4    0    0  0.40782839300E+03 -0.55738623633E+03 -0.12549647578E+04  0.14346168886E+04  0.78648960679E+02 0.  0.
         24    2    4    4    0    0 -0.73902337783E+01  0.31207995332E+03 -0.67480456928E+03  0.74754138836E+03  0.77513919875E+02 0.  0.
         11    1    3    3    0    0 -0.88562844930E+02  0.89805928495E+02  0.56903172228E+02  0.13837070971E+03  0.00000000000E+00 0.  1.
        -11    1    3    3    0    0 -0.31187531430E+03  0.15550035451E+03  0.51079629892E+02  0.35221541776E+03  0.00000000000E+00 0. -1.
          4    1    6    6  502    0  0.31931049818E+01  0.24187668206E+03 -0.58516296527E+03  0.63319050937E+03  0.00000000000E+00 0. -1.
          1    1    5    5  503    0  0.30719730507E+03 -0.42426179799E+03 -0.10170543897E+04  0.11440139374E+04  0.00000000000E+00 0. -1.
         -2    1    5    5    0  503  0.10063108793E+03 -0.13312443834E+03 -0.23791036815E+03  0.29060295115E+03  0.00000000000E+00 0.  1.
         -3    1    6    6    0  502 -0.10583338760E+02  0.70203271262E+02 -0.89641604014E+02  0.11435087899E+03  0.00000000000E+00 0.  1.
<mgrwt>
<rscale>  0 0.19556729E+04</rscale>
<asrwt>0</asrwt>
<pdfrwt beam="1">  1        2 0.34573314E+00 0.19556729E+04</pdfrwt>
<pdfrwt beam="2">  1       -2 0.65458300E-01 0.19556729E+04</pdfrwt>
<totfact> 0.97382180E+00</totfact>
</mgrwt>
</event>
<event>
12    1  0.1598876E-007  0.1456591E+04  0.7818608E-02  0.8913844E-01
          2   -1    0    0  501    0  0.00000000000E+00  0.00000000000E+00  0.27984742861E+04  0.27984742861E+04  0.00000000000E+00 0. -1.
         -2   -1    0    0    0  501 -0.00000000000E+00 -0.00000000000E+00 -0.18953693534E+03  0.18953693534E+03  0.00000000000E+00 0.  1.
         23    2    1    2    0    0 -0.31993939942E+03  0.31417575942E+03  0.73467788006E+03  0.86608114789E+03  0.96318950217E+02 0.  0.
        254    2    1    2    0    0  0.31993939942E+03 -0.31417575942E+03  0.18742594707E+04  0.21219300736E+04  0.88807153229E+03 0.  0.
        -24    2    4    4    0    0 -0.12681253531E+03  0.29455114804E+02 -0.10097981716E+02  0.15348154400E+03  0.80657251450E+02 0.  0.
         24    2    4    4    0    0  0.44675193473E+03 -0.34363087422E+03  0.18843574525E+04  0.19684485296E+04  0.79480413653E+02 0.  0.
         11    1    3    3    0    0 -0.16696224622E+03  0.20897349636E+03  0.36634172055E+03  0.45359957017E+03  0.00000000000E+00 0.  1.
        -11    1    3    3    0    0 -0.15297715320E+03  0.10520226306E+03  0.36833615951E+03  0.41248157772E+03  0.00000000000E+00 0. -1.
          4    1    6    6  502    0  0.24761029694E+03 -0.16332486666E+03  0.11035517347E+04  0.11427214457E+04  0.00000000000E+00 0. -1.
          3    1    5    5  503    0 -0.36959354564E+02 -0.24340640632E+02 -0.19447000681E+02  0.48338871643E+02  0.00000000000E+00 0. -1.
         -4    1    5    5    0  503 -0.89853180749E+02  0.53795755437E+02  0.93490189648E+01  0.10514267235E+03  0.00000000000E+00 0.  1.
         -3    1    6    6    0  502  0.19914163779E+03 -0.18030600756E+03  0.78080571771E+03  0.82572708389E+03  0.00000000000E+00 0.  1.
<mgrwt>
<rscale>  0 0.14565909E+04</rscale>
<asrwt>0</asrwt>
<pdfrwt beam="1">  1        2 0.43053447E+00 0.14565909E+04</pdfrwt>
<pdfrwt beam="2">  1       -2 0.29159531E-01 0.14565909E+04</pdfrwt>
<totfact> 0.24428477E+01</totfact>
</mgrwt>
</event>
<event>
12    1  0.1598876E-007  0.1643803E+04  0.7818608E-02  0.8794081E-01
          2   -1    0    0  501    0  0.00000000000E+00  0.00000000000E+00  0.21209077538E+04  0.21209077538E+04  0.00000000000E+00 0. -1.
         -2   -1    0    0    0  501 -0.00000000000E+00 -0.00000000000E+00 -0.31850623180E+03  0.31850623180E+03  0.00000000000E+00 0.  1.
         23    2    1    2    0    0 -0.45499427987E+03  0.14929854959E+03  0.16941023458E+03  0.51658263871E+03  0.94063507337E+02 0.  0.
        254    2    1    2    0    0  0.45499427987E+03 -0.14929854959E+03  0.16329912874E+04  0.19228313469E+04  0.89515919933E+03 0.  0.
        -24    2    4    4    0    0  0.70295620371E+03 -0.20877848244E+03  0.10667392956E+04  0.12968664972E+04  0.78702653079E+02 0.  0.
         24    2    4    4    0    0 -0.24796192384E+03  0.59479932842E+02  0.56625199179E+03  0.62596484971E+03  0.78534685171E+02 0.  0.
         11    1    3    3    0    0 -0.27416228848E+02  0.35139530564E+02  0.24772171391E+02  0.50991143231E+02  0.00000000000E+00 0. -1.
        -11    1    3    3    0    0 -0.42757805102E+03  0.11415901903E+03  0.14463806318E+03  0.46559149548E+03  0.00000000000E+00 0.  1.
          2    1    6    6  502    0 -0.41285042135E+02  0.21912459104E+02  0.18348591844E+03  0.18934543257E+03  0.00000000000E+00 0. -1.
          1    1    5    5  503    0  0.11020050061E+03 -0.19694290824E+02  0.12124663422E+03  0.16502351874E+03  0.00000000000E+00 0. -1.
         -2    1    5    5    0  503  0.59275570310E+03 -0.18908419161E+03  0.94549266140E+03  0.11318429784E+04  0.00000000000E+00 0.  1.
         -3    1    6    6    0  502 -0.20667688171E+03  0.37567473739E+02  0.38276607335E+03  0.43661941714E+03  0.00000000000E+00 0.  1.
<mgrwt>
<rscale>  0 0.16438033E+04</rscale>
<asrwt>0</asrwt>
<pdfrwt beam="1">  1        2 0.32629349E+00 0.16438033E+04</pdfrwt>
<pdfrwt beam="2">  1       -2 0.49000960E-01 0.16438033E+04</pdfrwt>
<totfact> 0.21564655E+01</totfact>
</mgrwt>
</event>
<event>
12    1  0.1598876E-007  0.1757316E+04  0.7818608E-02  0.8729334E-01
         -2   -1    0    0    0  501 -0.00000000000E+00  0.00000000000E+00  0.57063329334E+03  0.57063329334E+03  0.00000000000E+00 0. -1.
          2   -1    0    0  501    0  0.00000000000E+00 -0.00000000000E+00 -0.13529522572E+04  0.13529522572E+04  0.00000000000E+00 0.  1.
         23    2    1    2    0    0 -0.54150374101E+03 -0.62649894648E+02 -0.30197168140E+02  0.55362438115E+03  0.91851922246E+02 0.  0.
        254    2    1    2    0    0  0.54150374101E+03  0.62649894648E+02 -0.75212179571E+03  0.13699611694E+04  0.10069533749E+04 0.  0.
        -24    2    4    4    0    0  0.10303282101E+03  0.48814751360E+03 -0.20247614789E+03  0.54428442925E+03  0.79656714864E+02 0.  0.
         24    2    4    4    0    0  0.43847092000E+03 -0.42549761895E+03 -0.54964564782E+03  0.82567674012E+03  0.79540993191E+02 0.  0.
         13    1    3    3    0    0 -0.52247337853E+03 -0.75195234670E+02 -0.38754631709E+02  0.52927750384E+03  0.00000000000E+00 0.  1.
        -13    1    3    3    0    0 -0.19030362473E+02  0.12545340021E+02  0.85574635698E+01  0.24346877312E+02  0.00000000000E+00 0. -1.
          2    1    6    6  502    0  0.10484349764E+03 -0.90919077689E+02 -0.17071598697E+03  0.22000542242E+03  0.00000000000E+00 0. -1.
          1    1    5    5  503    0 -0.13490348406E+01  0.52585637762E+02  0.35334050246E+00  0.52604125726E+02  0.00000000000E+00 0. -1.
         -2    1    5    5    0  503  0.10438185585E+03  0.43556187583E+03 -0.20282948839E+03  0.49168030352E+03  0.00000000000E+00 0.  1.
         -1    1    6    6    0  502  0.33362742235E+03 -0.33457854126E+03 -0.37892966085E+03  0.60567131770E+03  0.00000000000E+00 0.  1.
<mgrwt>
<rscale>  0 0.17573157E+04</rscale>
<asrwt>0</asrwt>
<pdfrwt beam="1">  1        2 0.20814650E+00 0.17573157E+04</pdfrwt>
<pdfrwt beam="2">  1       -2 0.87789738E-01 0.17573157E+04</pdfrwt>
<totfact> 0.16328190E+01</totfact>
</mgrwt>
</event>
<event>
12    1  0.1598876E-007  0.2892680E+04  0.7818608E-02  0.8275059E-01
          2   -1    0    0  501    0  0.00000000000E+00  0.00000000000E+00  0.21144576117E+04  0.21144576117E+04  0.00000000000E+00 0. -1.
         -2   -1    0    0    0  501 -0.00000000000E+00 -0.00000000000E+00 -0.98933119327E+03  0.98933119327E+03  0.00000000000E+00 0.  1.
         23    2    1    2    0    0 -0.89821073648E+03  0.75582984362E+02 -0.50494035647E+03  0.10371138405E+04  0.90249875020E+02 0.  0.
        254    2    1    2    0    0  0.89821073648E+03 -0.75582984362E+02  0.16300667749E+04  0.20666749645E+04  0.89528342071E+03 0.  0.
        -24    2    4    4    0    0  0.65363011461E+03 -0.75113641886E+02  0.32804725638E+03  0.73947076027E+03  0.79546319500E+02 0.  0.
         24    2    4    4    0    0  0.24458062187E+03 -0.46934247619E+00  0.13020195186E+04  0.13272042042E+04  0.79976697211E+02 0.  0.
         13    1    3    3    0    0 -0.61276389641E+01  0.76452407502E+01 -0.12481598218E+02  0.15867827812E+02  0.00000000000E+00 0. -1.
        -13    1    3    3    0    0 -0.89208309752E+03  0.67937743612E+02 -0.49245875825E+03  0.10212460127E+04  0.00000000000E+00 0.  1.
          4    1    6    6  502    0  0.25722770707E+02 -0.26491548217E+02  0.18592804192E+03  0.18955922513E+03  0.00000000000E+00 0. -1.
          3    1    5    5  503    0  0.14590086809E+03  0.14645514008E+02  0.61001127997E+02  0.15881653569E+03  0.00000000000E+00 0. -1.
         -4    1    5    5    0  503  0.50772924652E+03 -0.89759155894E+02  0.26704612838E+03  0.58065422458E+03  0.00000000000E+00 0.  1.
         -3    1    6    6    0  502  0.21885785116E+03  0.26022205741E+02  0.11160914766E+04  0.11376449791E+04  0.00000000000E+00 0.  1.
<mgrwt>
<rscale>  0 0.28926796E+04</rscale>
<asrwt>0</asrwt>
<pdfrwt beam="1">  1        2 0.32530117E+00 0.28926796E+04</pdfrwt>
<pdfrwt beam="2">  1       -2 0.15220480E+00 0.28926796E+04</pdfrwt>
<totfact> 0.14355146E+00</totfact>
</mgrwt>
</event>
<event>
12    1  0.1598876E-007  0.1440668E+04  0.7818608E-02  0.8924896E-01
          1   -1    0    0  501    0  0.00000000000E+00  0.00000000000E+00  0.61496938052E+03  0.61496938052E+03  0.00000000000E+00 0. -1.
         -1   -1    0    0    0  501 -0.00000000000E+00 -0.00000000000E+00 -0.84375109299E+03  0.84375109299E+03  0.00000000000E+00 0.  1.
         23    2    1    2    0    0  0.39176533987E+03  0.12657029341E+03 -0.20051896258E+03  0.46628740349E+03  0.87840580591E+02 0.  0.
        254    2    1    2    0    0 -0.39176533987E+03 -0.12657029341E+03 -0.28262749886E+02  0.99243307003E+03  0.90256550718E+03 0.  0.
        -24    2    4    4    0    0 -0.63311539881E+03 -0.27810160639E+03 -0.32397515873E+02  0.69674680200E+03  0.78936020773E+02 0.  0.
         24    2    4    4    0    0  0.24135005894E+03  0.15153131298E+03  0.41347659863E+01  0.29568626802E+03  0.78750765336E+02 0.  0.
         11    1    3    3    0    0  0.19271213071E+03  0.35646542287E+02 -0.55238808509E+02  0.20361720769E+03  0.00000000000E+00 0. -1.
        -11    1    3    3    0    0  0.19905320916E+03  0.90923751121E+02 -0.14528015408E+03  0.26267019580E+03  0.00000000000E+00 0.  1.
          2    1    6    6  502    0  0.45269659824E+02  0.48583102536E+01  0.21201356204E+02  0.50223926409E+02  0.00000000000E+00 0. -1.
          1    1    5    5  503    0 -0.89002413391E+02 -0.36412350467E+02  0.22765162779E+02  0.98820754360E+02  0.00000000000E+00 0. -1.
         -2    1    5    5    0  503 -0.54411298542E+03 -0.24168925593E+03 -0.55162678652E+02  0.59792604764E+03  0.00000000000E+00 0.  1.
         -1    1    6    6    0  502  0.19608039912E+03  0.14667300273E+03 -0.17066590218E+02  0.24546234161E+03  0.00000000000E+00 0.  1.
<mgrwt>
<rscale>  0 0.14406680E+04</rscale>
<asrwt>0</asrwt>
<pdfrwt beam="1">  1        1 0.94610674E-01 0.14406680E+04</pdfrwt>
<pdfrwt beam="2">  1       -1 0.12980786E+00 0.14406680E+04</pdfrwt>
<totfact> 0.16353078E+01</totfact>
</mgrwt>
</event>
<event>
12    1  0.2701402E-007  0.1264789E+04  0.7818608E-02  0.9057963E-01
         -1   -1    0    0    0  501 -0.00000000000E+00  0.00000000000E+00  0.35564947975E+03  0.35564947975E+03  0.00000000000E+00 0. -1.
          1   -1    0    0  501    0  0.00000000000E+00 -0.00000000000E+00 -0.11244865555E+04  0.11244865555E+04  0.00000000000E+00 0.  1.
         23    2    1    2    0    0 -0.80065605078E+02 -0.37840313541E+02 -0.52669825306E+03  0.54191520593E+03  0.91753202643E+02 0.  0.
        254    2    1    2    0    0  0.80065605078E+02  0.37840313541E+02 -0.24213882268E+03  0.93822082931E+03  0.90210017440E+03 0.  0.
        -24    2    4    4    0    0  0.39154274201E+03 -0.12087239758E+03 -0.36922710535E+03  0.55748390952E+03  0.80893749696E+02 0.  0.
         24    2    4    4    0    0 -0.31147713693E+03  0.15871271112E+03  0.12708828267E+03  0.38073691978E+03  0.81249239952E+02 0.  0.
         13    1    3    3    0    0 -0.79731707463E+02 -0.51312834746E+02 -0.51618994287E+03  0.52482588475E+03  0.00000000000E+00 0.  1.
        -13    1    3    3    0    0 -0.33389761459E+00  0.13472521204E+02 -0.10508310186E+02  0.17089321174E+02  0.00000000000E+00 0. -1.
          2    1    6    6  502    0 -0.29763208071E+03  0.16232081908E+03  0.13437918809E+03  0.36467885868E+03  0.00000000000E+00 0. -1.
          3    1    5    5  503    0  0.31975171466E+03 -0.11970474636E+03 -0.33353750167E+03  0.47730247260E+03  0.00000000000E+00 0. -1.
         -4    1    5    5    0  503  0.71791027346E+02 -0.11676512270E+01 -0.35689603676E+02  0.80181436925E+02  0.00000000000E+00 0.  1.
         -1    1    6    6    0  502 -0.13845056216E+02 -0.36081079536E+01 -0.72909054195E+01  0.16058061106E+02  0.00000000000E+00 0.  1.
<mgrwt>
<rscale>  0 0.12647894E+04</rscale>
<asrwt>0</asrwt>
<pdfrwt beam="1">  1        1 0.17299793E+00 0.12647894E+04</pdfrwt>
<pdfrwt beam="2">  1       -1 0.54715305E-01 0.12647894E+04</pdfrwt>
<totfact> 0.40397917E+01</totfact>
</mgrwt>
</event>
<event>
12    1  0.1598876E-007  0.1929766E+04  0.7818608E-02  0.8640180E-01
         -1   -1    0    0    0  501 -0.00000000000E+00  0.00000000000E+00  0.86522005706E+03  0.86522005706E+03  0.00000000000E+00 0.  1.
          1   -1    0    0  501    0  0.00000000000E+00 -0.00000000000E+00 -0.10760256782E+04  0.10760256782E+04  0.00000000000E+00 0. -1.
         23    2    1    2    0    0  0.13550145805E+03 -0.44379271096E+03 -0.68026023400E+03  0.82977670355E+03  0.10228771360E+03 0.  0.
        254    2    1    2    0    0 -0.13550145805E+03  0.44379271096E+03  0.46945461283E+03  0.11114690317E+04  0.89423887164E+03 0.  0.
        -24    2    4    4    0    0 -0.36631597224E+03  0.60504926384E+03  0.37146638757E+03  0.80284984340E+03  0.79426637637E+02 0.  0.
         24    2    4    4    0    0  0.23081451420E+03 -0.16125655287E+03  0.97988225266E+02  0.30861918834E+03  0.79781547433E+02 0.  0.
         13    1    3    3    0    0  0.90398765328E+02 -0.38553998282E+03 -0.52198872145E+03  0.65519862671E+03  0.00000000000E+00 0. -1.
        -13    1    3    3    0    0  0.45102692721E+02 -0.58252728142E+02 -0.15827151255E+03  0.17457807683E+03  0.00000000000E+00 0.  1.
          4    1    6    6  502    0  0.73267426197E+02 -0.14656288570E+02  0.44131602498E+02  0.86778573826E+02  0.00000000000E+00 0. -1.
          1    1    5    5  503    0 -0.65137998552E+02  0.10671664140E+03  0.10148279791E+03  0.16102844059E+03  0.00000000000E+00 0. -1.
         -2    1    5    5    0  503 -0.30117797369E+03  0.49833262243E+03  0.26998358965E+03  0.64182140281E+03  0.00000000000E+00 0.  1.
         -3    1    6    6    0  502  0.15754708800E+03 -0.14660026430E+03  0.53856622768E+02  0.22184061451E+03  0.00000000000E+00 0.  1.
<mgrwt>
<rscale>  0 0.19297658E+04</rscale>
<asrwt>0</asrwt>
<pdfrwt beam="1">  1        1 0.16554241E+00 0.19297658E+04</pdfrwt>
<pdfrwt beam="2">  1       -1 0.13311078E+00 0.19297658E+04</pdfrwt>
<totfact> 0.58926423E+00</totfact>
</mgrwt>
</event>
<event>
12    1  0.1598876E-007  0.1933563E+04  0.7818608E-02  0.8638328E-01
         -2   -1    0    0    0  501 -0.00000000000E+00  0.00000000000E+00  0.79401749234E+03  0.79401749234E+03  0.00000000000E+00 0.  1.
          2   -1    0    0  501    0  0.00000000000E+00 -0.00000000000E+00 -0.11771362292E+04  0.11771362292E+04  0.00000000000E+00 0. -1.
         23    2    1    2    0    0 -0.51906132989E+03  0.55910239625E+03 -0.30582628027E+03  0.82490738086E+03  0.70159244615E+02 0.  0.
        254    2    1    2    0    0  0.51906132989E+03 -0.55910239625E+03 -0.77292456540E+02  0.11462463406E+04  0.85198966890E+03 0.  0.
        -24    2    4    4    0    0  0.50018551619E+03  0.68102632541E+02 -0.41064000535E+02  0.51277659796E+03  0.80187705475E+02 0.  0.
         24    2    4    4    0    0  0.18875813702E+02 -0.62720502879E+03 -0.36228456005E+02  0.63346974268E+03  0.78923820115E+02 0.  0.
         13    1    3    3    0    0 -0.99863699568E+02  0.14812460115E+03 -0.59802867788E+02  0.18838800108E+03  0.00000000000E+00 0.  1.
        -13    1    3    3    0    0 -0.41919763033E+03  0.41097779510E+03 -0.24602341249E+03  0.63651937978E+03  0.00000000000E+00 0. -1.
          4    1    6    6  502    0  0.21101164030E+01 -0.17566383808E+01 -0.65397277300E+01  0.70927010664E+01  0.00000000000E+00 0. -1.
          1    1    5    5  503    0  0.24042644503E+03  0.72856839338E+02 -0.25362109814E+02  0.25249996262E+03  0.00000000000E+00 0. -1.
         -2    1    5    5    0  503  0.25975907116E+03 -0.47542067968E+01 -0.15701890721E+02  0.26027663534E+03  0.00000000000E+00 0.  1.
         -3    1    6    6    0  502  0.16765697299E+02 -0.62544839041E+03 -0.29688728275E+02  0.62637704161E+03  0.00000000000E+00 0.  1.
<mgrwt>
<rscale>  0 0.19335633E+04</rscale>
<asrwt>0</asrwt>
<pdfrwt beam="1">  1        2 0.18109788E+00 0.19335633E+04</pdfrwt>
<pdfrwt beam="2">  1       -2 0.12215654E+00 0.19335633E+04</pdfrwt>
<totfact> 0.92762329E+00</totfact>
</mgrwt>
</event>
<event>
12    1  0.1598876E-007  0.1490732E+04  0.7818608E-02  0.8890639E-01
          1   -1    0    0  501    0  0.00000000000E+00  0.00000000000E+00  0.15765863847E+04  0.15765863847E+04  0.00000000000E+00 0. -1.
         -1   -1    0    0    0  501 -0.00000000000E+00 -0.00000000000E+00 -0.35238831136E+03  0.35238831136E+03  0.00000000000E+00 0.  1.
         23    2    1    2    0    0 -0.36063917133E+03 -0.27175487906E+03  0.32791763638E+03  0.56768906367E+03  0.10406522264E+03 0.  0.
        254    2    1    2    0    0  0.36063917133E+03  0.27175487906E+03  0.89628043699E+03  0.13612856324E+04  0.91971116398E+03 0.  0.
        -24    2    4    4    0    0 -0.38350639366E+02  0.43007969690E+03  0.80247336283E+03  0.91442255894E+03  0.75932871815E+02 0.  0.
         24    2    4    4    0    0  0.39898981069E+03 -0.15832481784E+03  0.93807074161E+02  0.44686307349E+03  0.81407753366E+02 0.  0.
         11    1    3    3    0    0 -0.11760777308E+03 -0.72648426383E+02  0.16002555589E+03  0.21146527063E+03  0.00000000000E+00 0. -1.
        -11    1    3    3    0    0 -0.24303139824E+03 -0.19910645268E+03  0.16789208050E+03  0.35622379304E+03  0.00000000000E+00 0.  1.
          4    1    6    6  502    0  0.19401129925E+03 -0.73912944609E+02  0.39126856485E+01  0.20765070847E+03  0.00000000000E+00 0. -1.
          3    1    5    5  503    0  0.18849534927E+02  0.20699716802E+03  0.36500420603E+03  0.42003714473E+03  0.00000000000E+00 0. -1.
         -4    1    5    5    0  503 -0.57200174293E+02  0.22308252888E+03  0.43746915680E+03  0.49438541421E+03  0.00000000000E+00 0.  1.
         -1    1    6    6    0  502  0.20497851144E+03 -0.84411873228E+02  0.89894388513E+02  0.23921236503E+03  0.00000000000E+00 0.  1.
<mgrwt>
<rscale>  0 0.14907322E+04</rscale>
<asrwt>0</asrwt>
<pdfrwt beam="1">  1        1 0.24255175E+00 0.14907322E+04</pdfrwt>
<pdfrwt beam="2">  1       -1 0.54213587E-01 0.14907322E+04</pdfrwt>
<totfact> 0.19260691E+01</totfact>
</mgrwt>
</event>
<event>
12    1  0.1598876E-007  0.1203537E+04  0.7818608E-02  0.9109766E-01
         -1   -1    0    0    0  501 -0.00000000000E+00  0.00000000000E+00  0.10094657123E+03  0.10094657123E+03  0.00000000000E+00 0.  1.
          1   -1    0    0  501    0  0.00000000000E+00 -0.00000000000E+00 -0.35872977264E+04  0.35872977264E+04  0.00000000000E+00 0. -1.
         23    2    1    2    0    0 -0.99951349983E+02  0.67646251948E+02 -0.92883000065E+02  0.17826985276E+03  0.92663913875E+02 0.  0.
        254    2    1    2    0    0  0.99951349983E+02 -0.67646251948E+02 -0.33934681551E+04  0.35099744449E+04  0.88866652696E+03 0.  0.
        -24    2    4    4    0    0  0.37312520210E+03 -0.12857964484E+03 -0.75652506918E+03  0.85711200766E+03  0.80967103575E+02 0.  0.
         24    2    4    4    0    0 -0.27317385212E+03  0.60933392895E+02 -0.26369430860E+04  0.26528624372E+04  0.76638374846E+02 0.  0.
         11    1    3    3    0    0  0.42693129158E+01  0.44701553206E+02 -0.20791287611E+02  0.49484679774E+02  0.00000000000E+00 0. -1.
        -11    1    3    3    0    0 -0.10422066290E+03  0.22944698742E+02 -0.72091712455E+02  0.12878517298E+03  0.00000000000E+00 0.  1.
          4    1    6    6  502    0 -0.31193382595E+01 -0.73827023480E+01 -0.29083367879E+02  0.30167480046E+02  0.00000000000E+00 0. -1.
          1    1    5    5  503    0  0.96128412481E+01  0.20736936610E+01 -0.28917497470E+01  0.10250323842E+02  0.00000000000E+00 0. -1.
         -2    1    5    5    0  503  0.36351236085E+03 -0.13065333850E+03 -0.75363331944E+03  0.84686168382E+03  0.00000000000E+00 0.  1.
         -3    1    6    6    0  502 -0.27005451386E+03  0.68316095243E+02 -0.26078597181E+04  0.26226949572E+04  0.00000000000E+00 0.  1.
<mgrwt>
<rscale>  0 0.12035371E+04</rscale>
<asrwt>0</asrwt>
<pdfrwt beam="1">  1        1 0.55189195E+00 0.12035371E+04</pdfrwt>
<pdfrwt beam="2">  1       -1 0.15530242E-01 0.12035371E+04</pdfrwt>
<totfact> 0.67115406E+00</totfact>
</mgrwt>
</event>
<event>
12    1  0.1598876E-007  0.1673046E+04  0.7818608E-02  0.8776888E-01
         -1   -1    0    0    0  501 -0.00000000000E+00  0.00000000000E+00  0.82078669582E+03  0.82078669582E+03  0.00000000000E+00 0.  1.
          1   -1    0    0  501    0  0.00000000000E+00 -0.00000000000E+00 -0.85256147944E+03  0.85256147944E+03  0.00000000000E+00 0. -1.
         23    2    1    2    0    0  0.57604215428E+03 -0.10399043997E+03  0.64587073315E+02  0.59605416891E+03  0.92035358018E+02 0.  0.
        254    2    1    2    0    0 -0.57604215428E+03  0.10399043997E+03 -0.96361856941E+02  0.10772940063E+04  0.89924312259E+03 0.  0.
        -24    2    4    4    0    0 -0.33691753350E+03  0.45165605141E+03  0.14148242906E+03  0.58632353583E+03  0.79065781385E+02 0.  0.
         24    2    4    4    0    0 -0.23912462079E+03 -0.34766561144E+03 -0.23784428600E+03  0.49097047052E+03  0.80188134365E+02 0.  0.
         13    1    3    3    0    0  0.46013458644E+02 -0.35982421715E+01 -0.19469076561E+02  0.50092221605E+02  0.00000000000E+00 0.  1.
        -13    1    3    3    0    0  0.53002869564E+03 -0.10039219780E+03  0.84056149876E+02  0.54596194731E+03  0.00000000000E+00 0. -1.
          4    1    6    6  502    0 -0.21121680528E+03 -0.31765811569E+03 -0.23867415493E+03  0.44998285471E+03  0.00000000000E+00 0. -1.
          3    1    5    5  503    0 -0.15638442460E+03  0.23189255376E+03  0.10851946067E+03  0.30001119661E+03  0.00000000000E+00 0. -1.
         -4    1    5    5    0  503 -0.18053310889E+03  0.21976349765E+03  0.32962968394E+02  0.28631233922E+03  0.00000000000E+00 0.  1.
         -3    1    6    6    0  502 -0.27907815509E+02 -0.30007495744E+02  0.82986893012E+00  0.40987615810E+02  0.00000000000E+00 0.  1.
<mgrwt>
<rscale>  0 0.16730465E+04</rscale>
<asrwt>0</asrwt>
<pdfrwt beam="1">  1        1 0.13116330E+00 0.16730465E+04</pdfrwt>
<pdfrwt beam="2">  1       -1 0.12627488E+00 0.16730465E+04</pdfrwt>
<totfact> 0.10372773E+01</totfact>
</mgrwt>
</event>
<event>
12    1  0.1598876E-007  0.1460984E+04  0.7818608E-02  0.8910821E-01
          1   -1    0    0  501    0  0.00000000000E+00  0.00000000000E+00  0.98418333326E+03  0.98418333326E+03  0.00000000000E+00 0. -1.
         -1   -1    0    0    0  501 -0.00000000000E+00 -0.00000000000E+00 -0.54219423036E+03  0.54219423036E+03  0.00000000000E+00 0.  1.
         23    2    1    2    0    0 -0.64922365651E+02  0.16525410551E+02 -0.34054515854E+03  0.35922982412E+03  0.92666384281E+02 0.  0.
        254    2    1    2    0    0  0.64922365651E+02 -0.16525410551E+02  0.78253426144E+03  0.11671477395E+04  0.86335738413E+03 0.  0.
        -24    2    4    4    0    0  0.40644402876E+02  0.26724779263E+02  0.96102792869E+03  0.96551577001E+03  0.79245448460E+02 0.  0.
         24    2    4    4    0    0  0.24277962775E+02 -0.43250189814E+02 -0.17849366725E+03  0.20163196949E+03  0.79595624721E+02 0.  0.
         11    1    3    3    0    0 -0.20015011004E+02  0.45710572155E+02 -0.24179961031E+03  0.24689493437E+03  0.00000000000E+00 0.  1.
        -11    1    3    3    0    0 -0.44907354648E+02 -0.29185161604E+02 -0.98745548230E+02  0.11233488975E+03  0.00000000000E+00 0. -1.
          2    1    6    6  502    0  0.29368507930E+02  0.54064673070E+01 -0.20459066319E+02  0.36198239480E+02  0.00000000000E+00 0. -1.
          1    1    5    5  503    0  0.70836059417E+01 -0.16041416703E+02  0.61445553938E+03  0.61470571366E+03  0.00000000000E+00 0. -1.
         -2    1    5    5    0  503  0.33560796934E+02  0.42766195966E+02  0.34657238931E+03  0.35081005636E+03  0.00000000000E+00 0.  1.
         -1    1    6    6    0  502 -0.50905451546E+01 -0.48656657121E+02 -0.15803460093E+03  0.16543373001E+03  0.00000000000E+00 0.  1.
<mgrwt>
<rscale>  0 0.14609839E+04</rscale>
<asrwt>0</asrwt>
<pdfrwt beam="1">  1        1 0.15141282E+00 0.14609839E+04</pdfrwt>
<pdfrwt beam="2">  1       -1 0.83414497E-01 0.14609839E+04</pdfrwt>
<totfact> 0.21552048E+01</totfact>
</mgrwt>
</event>
<event>
12    1  0.1598876E-007  0.2065485E+04  0.7818608E-02  0.8576602E-01
          2   -1    0    0  501    0  0.00000000000E+00  0.00000000000E+00  0.71506248166E+03  0.71506248166E+03  0.00000000000E+00 0. -1.
         -2   -1    0    0    0  501 -0.00000000000E+00 -0.00000000000E+00 -0.14915580289E+04  0.14915580289E+04  0.00000000000E+00 0.  1.
         23    2    1    2    0    0 -0.17304344943E+03 -0.52941404689E+03  0.34810254201E+03  0.66321564256E+03  0.91958362023E+02 0.  0.
        254    2    1    2    0    0  0.17304344943E+03  0.52941404689E+03 -0.11245980893E+04  0.15434048680E+04  0.89841775128E+03 0.  0.
        -24    2    4    4    0    0 -0.23491241763E+03 -0.11926997572E+03 -0.20448625328E+03  0.34335104306E+03  0.81646432373E+02 0.  0.
         24    2    4    4    0    0  0.40795586706E+03  0.64868402261E+03 -0.92011183601E+03  0.12000538250E+04  0.79400512808E+02 0.  0.
         13    1    3    3    0    0  0.37286721286E+01 -0.14860174333E+02 -0.31085187269E+01  0.15632999256E+02  0.00000000000E+00 0.  1.
        -13    1    3    3    0    0 -0.17677212155E+03 -0.51455387256E+03  0.35121106074E+03  0.64758264330E+03  0.00000000000E+00 0. -1.
          4    1    6    6  502    0  0.33461386444E+03  0.54609526845E+03 -0.72114327123E+03  0.96448644269E+03  0.00000000000E+00 0. -1.
          1    1    5    5  503    0 -0.17753455139E+03 -0.62674344238E+02 -0.10589211839E+03  0.21600863663E+03  0.00000000000E+00 0. -1.
         -2    1    5    5    0  503 -0.57377866238E+02 -0.56595631483E+02 -0.98594134898E+02  0.12734240642E+03  0.00000000000E+00 0.  1.
         -3    1    6    6    0  502  0.73342002618E+02  0.10258875416E+03 -0.19896856479E+03  0.23556738230E+03  0.00000000000E+00 0.  1.
<mgrwt>
<rscale>  0 0.20654851E+04</rscale>
<asrwt>0</asrwt>
<pdfrwt beam="1">  1        2 0.11000961E+00 0.20654851E+04</pdfrwt>
<pdfrwt beam="2">  1       -2 0.22947047E+00 0.20654851E+04</pdfrwt>
<totfact> 0.31736345E+00</totfact>
</mgrwt>
</event>
<event>
12    1  0.1598876E-007  0.1340250E+04  0.7818608E-02  0.8998242E-01
         -1   -1    0    0    0  501 -0.00000000000E+00  0.00000000000E+00  0.33944744140E+03  0.33944744140E+03  0.00000000000E+00 0.  1.
          1   -1    0    0  501    0  0.00000000000E+00 -0.00000000000E+00 -0.13229366200E+04  0.13229366200E+04  0.00000000000E+00 0. -1.
         23    2    1    2    0    0 -0.23579377401E+03 -0.24638327940E+03 -0.16324145364E+03  0.38234669650E+03  0.56901668813E+02 0.  0.
        254    2    1    2    0    0  0.23579377401E+03  0.24638327940E+03 -0.82024772492E+03  0.12800373649E+04  0.92162134359E+03 0.  0.
        -24    2    4    4    0    0  0.38154256723E+03  0.27463431102E+03 -0.36884340207E+02  0.47845755252E+03  0.81008886030E+02 0.  0.
         24    2    4    4    0    0 -0.14574879322E+03 -0.28251031624E+02 -0.78336338471E+03  0.80157981233E+03  0.82650901486E+02 0.  0.
         13    1    3    3    0    0 -0.20908600794E+02 -0.72222129624E+01 -0.21917262684E+02  0.31139947829E+02  0.00000000000E+00 0. -1.
        -13    1    3    3    0    0 -0.21488517321E+03 -0.23916106644E+03 -0.14132419095E+03  0.35120674867E+03  0.00000000000E+00 0.  1.
          2    1    6    6  502    0 -0.15237026696E+03 -0.31118982164E+02 -0.66278103373E+03  0.68078174768E+03  0.00000000000E+00 0. -1.
          1    1    5    5  503    0  0.32446955900E+03  0.22955871135E+03 -0.12403960816E+01  0.39746601774E+03  0.00000000000E+00 0. -1.
         -2    1    5    5    0  503  0.57073008234E+02  0.45075599673E+02 -0.35643944125E+02  0.80991534789E+02  0.00000000000E+00 0.  1.
         -1    1    6    6    0  502  0.66214737378E+01  0.28679505405E+01 -0.12058235098E+03  0.12079806465E+03  0.00000000000E+00 0.  1.
<mgrwt>
<rscale>  0 0.13402499E+04</rscale>
<asrwt>0</asrwt>
<pdfrwt beam="1">  1        1 0.20352871E+00 0.13402499E+04</pdfrwt>
<pdfrwt beam="2">  1       -1 0.52222684E-01 0.13402499E+04</pdfrwt>
<totfact> 0.31507537E+01</totfact>
</mgrwt>
</event>
<event>
12    1  0.1598876E-007  0.2560198E+04  0.7818608E-02  0.8381848E-01
         -3   -1    0    0    0  501 -0.00000000000E+00  0.00000000000E+00  0.32586951887E+04  0.32586951887E+04  0.00000000000E+00 0.  1.
          3   -1    0    0  501    0  0.00000000000E+00 -0.00000000000E+00 -0.50285561002E+03  0.50285561002E+03  0.00000000000E+00 0. -1.
         23    2    1    2    0    0 -0.17867687002E+03 -0.10720726846E+04  0.79897363943E+03  0.13519376631E+04  0.90062774660E+02 0.  0.
        254    2    1    2    0    0  0.17867687002E+03  0.10720726846E+04  0.19568659392E+04  0.24096131356E+04  0.89198985089E+03 0.  0.
        -24    2    4    4    0    0  0.20754104629E+03  0.53025702465E+03  0.17175363002E+04  0.18112542788E+04  0.80407224043E+02 0.  0.
         24    2    4    4    0    0 -0.28864176270E+02  0.54181565999E+03  0.23932963899E+03  0.59835885681E+03  0.79732649156E+02 0.  0.
         11    1    3    3    0    0 -0.15793740360E+03 -0.99012266689E+03  0.76357699523E+03  0.12602924052E+04  0.00000000000E+00 0. -1.
        -11    1    3    3    0    0 -0.20739466422E+02 -0.81950017746E+02  0.35396644203E+02  0.91645257907E+02  0.00000000000E+00 0.  1.
          4    1    6    6  502    0 -0.18634080639E+02  0.28864492578E+03  0.17066759682E+03  0.33584304480E+03  0.00000000000E+00 0. -1.
          1    1    5    5  503    0  0.57463557718E+02  0.11901963868E+03  0.50886150639E+03  0.52574496435E+03  0.00000000000E+00 0. -1.
         -2    1    5    5    0  503  0.15007748857E+03  0.41123738597E+03  0.12086747939E+04  0.12855093144E+04  0.00000000000E+00 0.  1.
         -3    1    6    6    0  502 -0.10230095631E+02  0.25317073421E+03  0.68662042167E+02  0.26251581201E+03  0.00000000000E+00 0.  1.
<mgrwt>
<rscale>  0 0.25601978E+04</rscale>
<asrwt>0</asrwt>
<pdfrwt beam="1">  1        3 0.77362404E-01 0.25601978E+04</pdfrwt>
<pdfrwt beam="2">  1       -3 0.50133771E+00 0.25601978E+04</pdfrwt>
<totfact> 0.10828498E-02</totfact>
</mgrwt>
</event>
<event>
12    1  0.1598876E-007  0.1315008E+04  0.7818608E-02  0.9017748E-01
          2   -1    0    0  501    0  0.00000000000E+00  0.00000000000E+00  0.37917555416E+04  0.37917555416E+04  0.00000000000E+00 0.  1.
         -2   -1    0    0    0  501 -0.00000000000E+00 -0.00000000000E+00 -0.11401353103E+03  0.11401353103E+03  0.00000000000E+00 0. -1.
         23    2    1    2    0    0  0.29631658014E+03  0.15248599076E+03  0.81275264306E+03  0.88322795839E+03  0.92028662006E+02 0.  0.
        254    2    1    2    0    0 -0.29631658014E+03 -0.15248599076E+03  0.28649893675E+04  0.30225411142E+04  0.90362338300E+03 0.  0.
        -24    2    4    4    0    0 -0.32981670436E+03 -0.33242740450E+03  0.68783712829E+03  0.83612916077E+03  0.81884190775E+02 0.  0.
         24    2    4    4    0    0  0.33500124217E+02  0.17994141374E+03  0.21771522392E+04  0.21864119535E+04  0.83091436712E+02 0.  0.
         11    1    3    3    0    0  0.13409048561E+03  0.94101639870E+02  0.49930918273E+03  0.52549503986E+03  0.00000000000E+00 0.  1.
        -11    1    3    3    0    0  0.16222609453E+03  0.58384350894E+02  0.31344346033E+03  0.35773291853E+03  0.00000000000E+00 0. -1.
          2    1    6    6  502    0  0.60021972980E+02  0.12550193737E+03  0.16271023700E+04  0.16330387307E+04  0.00000000000E+00 0. -1.
          1    1    5    5  503    0 -0.32878067581E+03 -0.33352811224E+03  0.68973067317E+03  0.83370626479E+03  0.00000000000E+00 0. -1.
         -2    1    5    5    0  503 -0.10360285548E+01  0.11007077399E+01 -0.18935448836E+01  0.24228959782E+01  0.00000000000E+00 0.  1.
         -1    1    6    6    0  502 -0.26521848763E+02  0.54439476367E+02  0.55004986922E+03  0.55337322277E+03  0.00000000000E+00 0.  1.
<mgrwt>
<rscale>  0 0.13150079E+04</rscale>
<asrwt>0</asrwt>
<pdfrwt beam="1">  1        2 0.58334691E+00 0.13150079E+04</pdfrwt>
<pdfrwt beam="2">  1       -2 0.17540546E-01 0.13150079E+04</pdfrwt>
<totfact> 0.13469061E+01</totfact>
</mgrwt>
</event>
<event>
12    1  0.1598876E-007  0.2307399E+04  0.7818608E-02  0.8475009E-01
         -2   -1    0    0    0  501 -0.00000000000E+00  0.00000000000E+00  0.78163021552E+03  0.78163021552E+03  0.00000000000E+00 0.  1.
          2   -1    0    0  501    0  0.00000000000E+00 -0.00000000000E+00 -0.17028805786E+04  0.17028805786E+04  0.00000000000E+00 0. -1.
         23    2    1    2    0    0 -0.28759367155E+03  0.35041643481E+03 -0.13200230265E+04  0.13987741151E+04  0.92770884057E+02 0.  0.
        254    2    1    2    0    0  0.28759367155E+03 -0.35041643481E+03  0.39877266345E+03  0.10857366790E+04  0.90238722355E+03 0.  0.
        -24    2    4    4    0    0  0.40975291478E+02  0.29745635669E+03  0.10016897019E+03  0.32668060347E+03  0.80790689146E+02 0.  0.
         24    2    4    4    0    0  0.24661838007E+03 -0.64787279150E+03  0.29860369326E+03  0.75905607549E+03  0.80263196767E+02 0.  0.
         11    1    3    3    0    0 -0.16728561962E+03  0.13156426511E+03 -0.62540455005E+03  0.66062431503E+03  0.00000000000E+00 0.  1.
        -11    1    3    3    0    0 -0.12030805193E+03  0.21885216970E+03 -0.69461847646E+03  0.73814980009E+03  0.00000000000E+00 0. -1.
          4    1    6    6  502    0  0.22836003760E+03 -0.51499670794E+03  0.25088850821E+03  0.61669681328E+03  0.00000000000E+00 0. -1.
          1    1    5    5  503    0  0.50415707830E+00 -0.51906831076E+01  0.39365214057E+01  0.65340313942E+01  0.00000000000E+00 0. -1.
         -2    1    5    5    0  503  0.40471134399E+02  0.30264703979E+03  0.96232448787E+02  0.32014657208E+03  0.00000000000E+00 0.  1.
         -3    1    6    6    0  502  0.18258342475E+02 -0.13287608356E+03  0.47715185049E+02  0.14235926221E+03  0.00000000000E+00 0.  1.
<mgrwt>
<rscale>  0 0.23073993E+04</rscale>
<asrwt>0</asrwt>
<pdfrwt beam="1">  1        2 0.26198163E+00 0.23073993E+04</pdfrwt>
<pdfrwt beam="2">  1       -2 0.12025080E+00 0.23073993E+04</pdfrwt>
<totfact> 0.46771127E+00</totfact>
</mgrwt>
</event>
<event>
12    1  0.1598876E-007  0.2482942E+04  0.7818608E-02  0.8409088E-01
          2   -1    0    0  501    0  0.00000000000E+00  0.00000000000E+00  0.85331414948E+03  0.85331414948E+03  0.00000000000E+00 0. -1.
         -2   -1    0    0    0  501 -0.00000000000E+00 -0.00000000000E+00 -0.18061927327E+04  0.18061927327E+04  0.00000000000E+00 0.  1.
         23    2    1    2    0    0 -0.66332829184E+03 -0.16994711981E+03 -0.12982150656E+04  0.14707228485E+04  0.93685081570E+02 0.  0.
        254    2    1    2    0    0  0.66332829184E+03  0.16994711981E+03  0.34533648234E+03  0.11887840336E+04  0.90833019675E+03 0.  0.
        -24    2    4    4    0    0  0.65488787542E+02  0.37759045899E+03 -0.10790686984E+03  0.40628709959E+03  0.81006041230E+02 0.  0.
         24    2    4    4    0    0  0.59783950430E+03 -0.20764333919E+03  0.45324335218E+03  0.78249693406E+03  0.79649772777E+02 0.  0.
         13    1    3    3    0    0 -0.53937221022E+03 -0.10898669090E+03 -0.10870167310E+04  0.12183619551E+04  0.00000000000E+00 0.  1.
        -13    1    3    3    0    0 -0.12395608162E+03 -0.60960428910E+02 -0.21119833451E+03  0.25236089349E+03  0.00000000000E+00 0. -1.
          4    1    6    6  502    0  0.19727506216E+02  0.63540302363E+01  0.86920756157E+01  0.22474438375E+02  0.00000000000E+00 0. -1.
          3    1    5    5  503    0  0.15135082354E+02  0.44987295152E+02  0.12348969022E+02  0.49045126964E+02  0.00000000000E+00 0. -1.
         -4    1    5    5    0  503  0.50353705188E+02  0.33260316384E+03 -0.12025583887E+03  0.35724197263E+03  0.00000000000E+00 0.  1.
         -3    1    6    6    0  502  0.57811199808E+03 -0.21399736943E+03  0.44455127656E+03  0.76002249568E+03  0.00000000000E+00 0.  1.
<mgrwt>
<rscale>  0 0.24829417E+04</rscale>
<asrwt>0</asrwt>
<pdfrwt beam="1">  1        2 0.13127910E+00 0.24829417E+04</pdfrwt>
<pdfrwt beam="2">  1       -2 0.27787580E+00 0.24829417E+04</pdfrwt>
<totfact> 0.12233980E+00</totfact>
</mgrwt>
</event>
<event>
12    1  0.1598876E-007  0.1509577E+04  0.7818608E-02  0.8878109E-01
         -1   -1    0    0    0  501 -0.00000000000E+00  0.00000000000E+00  0.42431254328E+03  0.42431254328E+03  0.00000000000E+00 0.  1.
          1   -1    0    0  501    0  0.00000000000E+00 -0.00000000000E+00 -0.13426551088E+04  0.13426551088E+04  0.00000000000E+00 0. -1.
         23    2    1    2    0    0  0.26369650343E+03 -0.89852978936E+02  0.16111540965E+03  0.33428602600E+03  0.90440965303E+02 0.  0.
        254    2    1    2    0    0 -0.26369650343E+03  0.89852978936E+02 -0.10794579752E+04  0.14326816261E+04  0.89985427587E+03 0.  0.
        -24    2    4    4    0    0 -0.66259315080E+02  0.35307814184E+03 -0.10247002915E+04  0.10892070901E+04  0.85480562364E+02 0.  0.
         24    2    4    4    0    0 -0.19743718835E+03 -0.26322516290E+03 -0.54757683625E+02  0.34347453599E+03  0.81898859725E+02 0.  0.
         11    1    3    3    0    0  0.24703116980E+03 -0.88538249439E+02  0.17252052831E+03  0.31404896618E+03  0.00000000000E+00 0.  1.
        -11    1    3    3    0    0  0.16665333631E+02 -0.13147294962E+01 -0.11405118659E+02  0.20237059823E+02  0.00000000000E+00 0. -1.
          2    1    6    6  502    0 -0.25948157619E+02 -0.69035827160E+02  0.14813766321E+02  0.75224331091E+02  0.00000000000E+00 0. -1.
          3    1    5    5  503    0 -0.58022796251E+02  0.26814841003E+03 -0.87372965032E+03  0.91579130621E+03  0.00000000000E+00 0. -1.
         -4    1    5    5    0  503 -0.82365188289E+01  0.84929731808E+02 -0.15097064122E+03  0.17341578387E+03  0.00000000000E+00 0.  1.
         -1    1    6    6    0  502 -0.17148903073E+03 -0.19418933574E+03 -0.69571449946E+02  0.26825020489E+03  0.00000000000E+00 0.  1.
<mgrwt>
<rscale>  0 0.15095766E+04</rscale>
<asrwt>0</asrwt>
<pdfrwt beam="1">  1        1 0.20656232E+00 0.15095766E+04</pdfrwt>
<pdfrwt beam="2">  1       -1 0.65278853E-01 0.15095766E+04</pdfrwt>
<totfact> 0.19393987E+01</totfact>
</mgrwt>
</event>
<event>
12    1  0.1598876E-007  0.1292235E+04  0.7818608E-02  0.9035746E-01
          1   -1    0    0  501    0  0.00000000000E+00  0.00000000000E+00  0.12754396478E+04  0.12754396478E+04  0.00000000000E+00 0. -1.
         -1   -1    0    0    0  501 -0.00000000000E+00 -0.00000000000E+00 -0.32731289636E+03  0.32731289636E+03  0.00000000000E+00 0.  1.
         23    2    1    2    0    0 -0.24245742345E+03  0.13280434836E+02  0.42342712293E+03  0.49608261710E+03  0.88574614988E+02 0.  0.
        254    2    1    2    0    0  0.24245742345E+03 -0.13280434836E+02  0.52469962847E+03  0.11066699270E+04  0.94363481025E+03 0.  0.
        -24    2    4    4    0    0  0.23672775029E+03  0.43275845131E+03  0.15946700774E+03  0.52457425679E+03  0.80178048036E+02 0.  0.
         24    2    4    4    0    0  0.57296731662E+01 -0.44603888615E+03  0.36523262073E+03  0.58209567024E+03  0.80355366691E+02 0.  0.
         11    1    3    3    0    0 -0.79502221783E+02  0.38282502366E+02  0.10221812886E+03  0.13503591790E+03  0.00000000000E+00 0.  1.
        -11    1    3    3    0    0 -0.16295520167E+03 -0.25002067531E+02  0.32120899406E+03  0.36104669920E+03  0.00000000000E+00 0. -1.
          2    1    6    6  502    0  0.31623569259E+02 -0.36002086674E+03  0.31350825223E+03  0.47843756002E+03  0.00000000000E+00 0. -1.
          3    1    5    5  503    0  0.20933495695E+03  0.31060968959E+03  0.11953411836E+03  0.39317668919E+03  0.00000000000E+00 0. -1.
         -4    1    5    5    0  503  0.27392793341E+02  0.12214876172E+03  0.39932889379E+02  0.13139756760E+03  0.00000000000E+00 0.  1.
         -1    1    6    6    0  502 -0.25893896093E+02 -0.86018019407E+02  0.51724368498E+02  0.10365811022E+03  0.00000000000E+00 0.  1.
<mgrwt>
<rscale>  0 0.12922350E+04</rscale>
<asrwt>0</asrwt>
<pdfrwt beam="1">  1        1 0.19622148E+00 0.12922350E+04</pdfrwt>
<pdfrwt beam="2">  1       -1 0.50355831E-01 0.12922350E+04</pdfrwt>
<totfact> 0.36664994E+01</totfact>
</mgrwt>
</event>
<event>
12    1  0.1598876E-007  0.1406725E+04  0.7818608E-02  0.8948965E-01
          1   -1    0    0  501    0  0.00000000000E+00  0.00000000000E+00  0.12011563526E+04  0.12011563526E+04  0.00000000000E+00 0. -1.
         -1   -1    0    0    0  501 -0.00000000000E+00 -0.00000000000E+00 -0.41186865950E+03  0.41186865950E+03  0.00000000000E+00 0.  1.
         23    2    1    2    0    0 -0.10369421741E+03  0.39649362736E+03  0.15285526973E+03  0.44676270961E+03  0.90953273484E+02 0.  0.
        254    2    1    2    0    0  0.10369421741E+03 -0.39649362736E+03  0.63643242333E+03  0.11662623024E+04  0.88722141621E+03 0.  0.
        -24    2    4    4    0    0  0.51813377393E+02 -0.67019031095E+03  0.51658399238E+03  0.85159911143E+03  0.80761045385E+02 0.  0.
         24    2    4    4    0    0  0.51880840019E+02  0.27369668359E+03  0.11984843095E+03  0.31466319101E+03  0.83951064368E+02 0.  0.
         11    1    3    3    0    0 -0.11794944163E+03  0.35987994251E+03  0.15009594601E+03  0.40737505669E+03  0.00000000000E+00 0.  1.
        -11    1    3    3    0    0  0.14255224221E+02  0.36613684843E+02  0.27593237224E+01  0.39387652924E+02  0.00000000000E+00 0. -1.
          2    1    6    6  502    0  0.40927039692E+02  0.27589276054E+03  0.11016994344E+03  0.29988206737E+03  0.00000000000E+00 0. -1.
          3    1    5    5  503    0  0.15262839922E+02 -0.37670394296E+03  0.24176420322E+03  0.44787134859E+03  0.00000000000E+00 0. -1.
         -4    1    5    5    0  503  0.36550537471E+02 -0.29348636798E+03  0.27481978915E+03  0.40372776285E+03  0.00000000000E+00 0.  1.
         -1    1    6    6    0  502  0.10953800327E+02 -0.21960769468E+01  0.96784875130E+01  0.14781123641E+02  0.00000000000E+00 0.  1.
<mgrwt>
<rscale>  0 0.14067248E+04</rscale>
<asrwt>0</asrwt>
<pdfrwt beam="1">  1        1 0.18479328E+00 0.14067248E+04</pdfrwt>
<pdfrwt beam="2">  1       -1 0.63364410E-01 0.14067248E+04</pdfrwt>
<totfact> 0.26254323E+01</totfact>
</mgrwt>
</event>
<event>
12    1  0.1598876E-007  0.1436125E+04  0.7818608E-02  0.8928076E-01
          2   -1    0    0  501    0  0.00000000000E+00  0.00000000000E+00  0.18567082263E+04  0.18567082263E+04  0.00000000000E+00 0. -1.
         -2   -1    0    0    0  501 -0.00000000000E+00 -0.00000000000E+00 -0.27770326366E+03  0.27770326366E+03  0.00000000000E+00 0.  1.
         23    2    1    2    0    0 -0.34085034424E+03  0.22491527095E+03  0.73258400292E+03  0.84362272959E+03  0.90852365274E+02 0.  0.
        254    2    1    2    0    0  0.34085034424E+03 -0.22491527095E+03  0.84642095971E+03  0.12907887604E+04  0.88483972929E+03 0.  0.
        -24    2    4    4    0    0  0.49323946107E+03 -0.43555245524E+03  0.75314047843E+03  0.10033141368E+04  0.80172125468E+02 0.  0.
         24    2    4    4    0    0 -0.15238911683E+03  0.21063718428E+03  0.93280481283E+02  0.28747462352E+03  0.79686539937E+02 0.  0.
         13    1    3    3    0    0 -0.73960657644E+02  0.11629474583E+02  0.10330179038E+03  0.12758010603E+03  0.00000000000E+00 0.  1.
        -13    1    3    3    0    0 -0.26688968660E+03  0.21328579637E+03  0.62928221254E+03  0.71604262356E+03  0.00000000000E+00 0. -1.
          4    1    6    6  502    0 -0.80683596104E+02  0.14804574651E+03  0.25258046327E+02  0.17048564351E+03  0.00000000000E+00 0. -1.
          1    1    5    5  503    0  0.98392830800E+02 -0.13296553707E+03  0.19122177325E+03  0.25283739788E+03  0.00000000000E+00 0. -1.
         -2    1    5    5    0  503  0.39484663027E+03 -0.30258691816E+03  0.56191870518E+03  0.75047673895E+03  0.00000000000E+00 0.  1.
         -3    1    6    6    0  502 -0.71705520726E+02  0.62591437775E+02  0.68022434956E+02  0.11698898001E+03  0.00000000000E+00 0.  1.
<mgrwt>
<rscale>  0 0.14361253E+04</rscale>
<asrwt>0</asrwt>
<pdfrwt beam="1">  1        2 0.28564741E+00 0.14361253E+04</pdfrwt>
<pdfrwt beam="2">  1       -2 0.42723580E-01 0.14361253E+04</pdfrwt>
<totfact> 0.40468783E+01</totfact>
</mgrwt>
</event>
<event>
12    1  0.1598876E-007  0.3973164E+04  0.7818608E-02  0.8009982E-01
          2   -1    0    0  501    0  0.00000000000E+00  0.00000000000E+00  0.29919410345E+04  0.29919410345E+04  0.00000000000E+00 0.  1.
         -2   -1    0    0    0  501 -0.00000000000E+00 -0.00000000000E+00 -0.13190460455E+04  0.13190460455E+04  0.00000000000E+00 0. -1.
         23    2    1    2    0    0  0.29737453389E+03 -0.38823413032E+03  0.27702013994E+04  0.28145034281E+04  0.90864735867E+02 0.  0.
        254    2    1    2    0    0 -0.29737453389E+03  0.38823413032E+03 -0.10973064104E+04  0.14964836518E+04  0.89231418708E+03 0.  0.
        -24    2    4    4    0    0  0.12338868930E+03  0.35534600045E+02  0.97313678659E+02  0.17930541772E+03  0.78695643600E+02 0.  0.
         24    2    4    4    0    0 -0.42076322320E+03  0.35269953027E+03 -0.11946200891E+04  0.13171782341E+04  0.80016838963E+02 0.  0.
         13    1    3    3    0    0  0.65378549258E+02 -0.10223304482E+03  0.49292045091E+03  0.50763817930E+03  0.00000000000E+00 0. -1.
        -13    1    3    3    0    0  0.23199598464E+03 -0.28600108549E+03  0.22772809485E+04  0.23068652488E+04  0.00000000000E+00 0.  1.
          2    1    6    6  502    0 -0.43007511272E+02  0.15246717436E+02 -0.67566672937E+02  0.81531366419E+02  0.00000000000E+00 0. -1.
          1    1    5    5  503    0  0.27576855626E+02  0.43659467756E+02  0.50995935264E+02  0.72575598546E+02  0.00000000000E+00 0. -1.
         -2    1    5    5    0  503  0.95811833675E+02 -0.81248677106E+01  0.46317743395E+02  0.10672981917E+03  0.00000000000E+00 0.  1.
         -1    1    6    6    0  502 -0.37775571192E+03  0.33745281284E+03 -0.11270534161E+04  0.12356468677E+04  0.00000000000E+00 0.  1.
<mgrwt>
<rscale>  0 0.39731640E+04</rscale>
<asrwt>0</asrwt>
<pdfrwt beam="1">  1        2 0.46029862E+00 0.39731640E+04</pdfrwt>
<pdfrwt beam="2">  1       -2 0.20293016E+00 0.39731640E+04</pdfrwt>
<totfact> 0.17710916E-01</totfact>
</mgrwt>
</event>
<event>
12    1  0.1598876E-007  0.1846076E+04  0.7818608E-02  0.8682174E-01
          1   -1    0    0  501    0  0.00000000000E+00  0.00000000000E+00  0.12366437041E+04  0.12366437041E+04  0.00000000000E+00 0. -1.
         -1   -1    0    0    0  501 -0.00000000000E+00 -0.00000000000E+00 -0.68896059896E+03  0.68896059896E+03  0.00000000000E+00 0.  1.
         23    2    1    2    0    0 -0.53041620402E+03 -0.44391650269E+03  0.29737110967E+03  0.75819999251E+03  0.89635043005E+02 0.  0.
        254    2    1    2    0    0  0.53041620402E+03  0.44391650269E+03  0.25031199551E+03  0.11674043106E+04  0.90651724662E+03 0.  0.
        -24    2    4    4    0    0 -0.11360732824E+03 -0.11114200869E+03  0.25771025748E+03  0.31346635365E+03  0.81162842089E+02 0.  0.
         24    2    4    4    0    0  0.64402353226E+03  0.55505851138E+03 -0.73982619724E+01  0.85393795693E+03  0.79366484397E+02 0.  0.
         11    1    3    3    0    0 -0.23554883673E+03 -0.18394966893E+03  0.17575945809E+03  0.34671619849E+03  0.00000000000E+00 0. -1.
        -11    1    3    3    0    0 -0.29486736729E+03 -0.25996683376E+03  0.12161165158E+03  0.41148379402E+03  0.00000000000E+00 0.  1.
          4    1    6    6  502    0  0.33566157725E+03  0.34124050180E+03 -0.23870740115E+01  0.47866425878E+03  0.00000000000E+00 0. -1.
          1    1    5    5  503    0 -0.85841786881E+02 -0.12148729681E+03  0.21154091586E+03  0.25860691163E+03  0.00000000000E+00 0. -1.
         -2    1    5    5    0  503 -0.27765541361E+02  0.10345288117E+02  0.46169341626E+02  0.54859442026E+02  0.00000000000E+00 0.  1.
         -3    1    6    6    0  502  0.30836195501E+03  0.21381800958E+03 -0.50111879610E+01  0.37527369815E+03  0.00000000000E+00 0.  1.
<mgrwt>
<rscale>  0 0.18460756E+04</rscale>
<asrwt>0</asrwt>
<pdfrwt beam="1">  1        1 0.19025288E+00 0.18460756E+04</pdfrwt>
<pdfrwt beam="2">  1       -1 0.10599394E+00 0.18460756E+04</pdfrwt>
<totfact> 0.78662246E+00</totfact>
</mgrwt>
</event>
<event>
12    1  0.1598876E-007  0.2855891E+04  0.7818608E-02  0.8286123E-01
         -2   -1    0    0    0  501 -0.00000000000E+00  0.00000000000E+00  0.20028288623E+04  0.20028288623E+04  0.00000000000E+00 0.  1.
          2   -1    0    0  501    0  0.00000000000E+00 -0.00000000000E+00 -0.10180741836E+04  0.10180741836E+04  0.00000000000E+00 0. -1.
         23    2    1    2    0    0  0.10801956459E+04  0.51517818202E+03  0.92742886250E+03  0.15164865701E+04  0.85883815071E+02 0.  0.
        254    2    1    2    0    0 -0.10801956459E+04 -0.51517818202E+03  0.57325816274E+02  0.15044164758E+04  0.90980849125E+03 0.  0.
        -24    2    4    4    0    0 -0.98812329829E+03 -0.26195483365E+03 -0.28197629752E+03  0.10635681036E+04  0.81599578541E+02 0.  0.
         24    2    4    4    0    0 -0.92072347632E+02 -0.25322334837E+03  0.33930211380E+03  0.44084837216E+03  0.81375558057E+02 0.  0.
         13    1    3    3    0    0  0.60516957090E+03  0.30759458748E+03  0.57483407359E+03  0.88953856125E+03  0.00000000000E+00 0.  1.
        -13    1    3    3    0    0  0.47502607502E+03  0.20758359454E+03  0.35259478891E+03  0.62694800888E+03  0.00000000000E+00 0. -1.
          4    1    6    6  502    0 -0.16954857835E+01 -0.10388146970E+03  0.96402424884E+02  0.14173094913E+03  0.00000000000E+00 0. -1.
          3    1    5    5  503    0 -0.33281294272E+03 -0.64942953795E+02 -0.61346202433E+02  0.34459454238E+03  0.00000000000E+00 0. -1.
         -4    1    5    5    0  503 -0.65531035557E+03 -0.19701187985E+03 -0.22063009509E+03  0.71897356125E+03  0.00000000000E+00 0.  1.
         -3    1    6    6    0  502 -0.90376861849E+02 -0.14934187867E+03  0.24289968891E+03  0.29911742303E+03  0.00000000000E+00 0.  1.
<mgrwt>
<rscale>  0 0.28558910E+04</rscale>
<asrwt>0</asrwt>
<pdfrwt beam="1">  1        2 0.15662680E+00 0.28558910E+04</pdfrwt>
<pdfrwt beam="2">  1       -2 0.30812752E+00 0.28558910E+04</pdfrwt>
<totfact> 0.60194398E-01</totfact>
</mgrwt>
</event>
<event>
12    1  0.2030143E-007  0.1455763E+04  0.7818608E-02  0.8914415E-01
         -1   -1    0    0    0  501 -0.00000000000E+00  0.00000000000E+00  0.70427198208E+03  0.70427198208E+03  0.00000000000E+00 0.  1.
          1   -1    0    0  501    0  0.00000000000E+00 -0.00000000000E+00 -0.75228287219E+03  0.75228287219E+03  0.00000000000E+00 0. -1.
         23    2    1    2    0    0  0.16936799497E+03  0.22234164369E+03  0.38289075483E+03  0.48275581171E+03  0.91249763656E+02 0.  0.
        254    2    1    2    0    0 -0.16936799497E+03 -0.22234164369E+03 -0.43090164494E+03  0.97379904256E+03  0.82733730935E+03 0.  0.
        -24    2    4    4    0    0 -0.44220360650E+03 -0.33341385357E+03 -0.33936380949E+03  0.65445012991E+03  0.80176991619E+02 0.  0.
         24    2    4    4    0    0  0.27283561153E+03  0.11107220987E+03 -0.91537835445E+02  0.31934891266E+03  0.82633201382E+02 0.  0.
         13    1    3    3    0    0  0.25170909806E+02 -0.23835115334E+01  0.20103341952E+02  0.32301705610E+02  0.00000000000E+00 0. -1.
        -13    1    3    3    0    0  0.14419708516E+03  0.22472515523E+03  0.36278741287E+03  0.45045410610E+03  0.00000000000E+00 0.  1.
          4    1    6    6  502    0  0.36570854818E+02  0.46928770226E+02 -0.50732867712E+01  0.59711599675E+02  0.00000000000E+00 0. -1.
          1    1    5    5  503    0 -0.77904403950E+02 -0.98135778024E+02 -0.89108455777E+02  0.15375319175E+03  0.00000000000E+00 0. -1.
         -2    1    5    5    0  503 -0.36429920255E+03 -0.23527807554E+03 -0.25025535372E+03  0.50069693815E+03  0.00000000000E+00 0.  1.
         -3    1    6    6    0  502  0.23626475672E+03  0.64143439648E+02 -0.86464548674E+02  0.25963731298E+03  0.00000000000E+00 0.  1.
<mgrwt>
<rscale>  0 0.14557634E+04</rscale>
<asrwt>0</asrwt>
<pdfrwt beam="1">  1        1 0.11573583E+00 0.14557634E+04</pdfrwt>
<pdfrwt beam="2">  1       -1 0.10834954E+00 0.14557634E+04</pdfrwt>
<totfact> 0.18723983E+01</totfact>
</mgrwt>
</event>
<event>
12    1  0.1598876E-007  0.1801344E+04  0.7818608E-02  0.8705585E-01
          2   -1    0    0  501    0  0.00000000000E+00  0.00000000000E+00  0.20018191308E+04  0.20018191308E+04  0.00000000000E+00 0. -1.
         -2   -1    0    0    0  501 -0.00000000000E+00 -0.00000000000E+00 -0.40523632153E+03  0.40523632153E+03  0.00000000000E+00 0.  1.
         23    2    1    2    0    0 -0.29121604317E+02  0.28981177070E+03  0.13981768063E+04  0.14311578798E+04  0.92062831916E+02 0.  0.
        254    2    1    2    0    0  0.29121604317E+02 -0.28981177070E+03  0.19840600302E+03  0.97589757257E+03  0.91003966937E+03 0.  0.
        -24    2    4    4    0    0  0.57856932898E+02 -0.27100572549E+03  0.54666813465E+03  0.61722097975E+03  0.72966844999E+02 0.  0.
         24    2    4    4    0    0 -0.28735328581E+02 -0.18806045212E+02 -0.34826213163E+03  0.35867659282E+03  0.78632051134E+02 0.  0.
         11    1    3    3    0    0 -0.45549417613E+02  0.28383284439E+03  0.13355548443E+04  0.13661414916E+04  0.00000000000E+00 0. -1.
        -11    1    3    3    0    0  0.16427813297E+02  0.59789263144E+01  0.62621961997E+02  0.65016388195E+02  0.00000000000E+00 0.  1.
          2    1    6    6  502    0  0.17953778839E+02 -0.23276664083E+02 -0.62221496105E+02  0.68816101626E+02  0.00000000000E+00 0. -1.
          1    1    5    5  503    0 -0.59016268114E+01 -0.27515688685E+02  0.10665024994E+03  0.11030058085E+03  0.00000000000E+00 0. -1.
         -2    1    5    5    0  503  0.63758559709E+02 -0.24349003680E+03  0.44001788471E+03  0.50692039890E+03  0.00000000000E+00 0.  1.
         -1    1    6    6    0  502 -0.46689107421E+02  0.44706188709E+01 -0.28604063552E+03  0.28986049119E+03  0.00000000000E+00 0.  1.
<mgrwt>
<rscale>  0 0.18013437E+04</rscale>
<asrwt>0</asrwt>
<pdfrwt beam="1">  1        2 0.30797217E+00 0.18013437E+04</pdfrwt>
<pdfrwt beam="2">  1       -2 0.62344051E-01 0.18013437E+04</pdfrwt>
<totfact> 0.15021490E+01</totfact>
</mgrwt>
</event>
<event>
12    1  0.1598876E-007  0.1389468E+04  0.7818608E-02  0.8961478E-01
         -2   -1    0    0    0  501 -0.00000000000E+00  0.00000000000E+00  0.18355659292E+03  0.18355659292E+03  0.00000000000E+00 0.  1.
          2   -1    0    0  501    0  0.00000000000E+00 -0.00000000000E+00 -0.26294624824E+04  0.26294624824E+04  0.00000000000E+00 0. -1.
         23    2    1    2    0    0 -0.19957314592E+03  0.35456469999E+03 -0.75377392880E+03  0.86126589770E+03  0.89767721083E+02 0.  0.
        254    2    1    2    0    0  0.19957314592E+03 -0.35456469999E+03 -0.16921319606E+04  0.19517531776E+04  0.88345024022E+03 0.  0.
        -24    2    4    4    0    0  0.25387637407E+03 -0.31039177302E+03 -0.17718953890E+04  0.18185126301E+04  0.81108876809E+02 0.  0.
         24    2    4    4    0    0 -0.54303228151E+02 -0.44172926971E+02  0.79763428392E+02  0.13324054754E+03  0.80565196796E+02 0.  0.
         11    1    3    3    0    0 -0.39994939740E+02  0.10709156401E+03 -0.29217516912E+03  0.31374277321E+03  0.00000000000E+00 0. -1.
        -11    1    3    3    0    0 -0.15957820618E+03  0.24747313598E+03 -0.46159875968E+03  0.54752312449E+03  0.00000000000E+00 0.  1.
          4    1    6    6  502    0 -0.36225703243E+02  0.34781436664E+01  0.73339546201E+02  0.81872389093E+02  0.00000000000E+00 0. -1.
          3    1    5    5  503    0  0.15896893103E+03 -0.15299466592E+03 -0.11014683180E+04  0.11233480959E+04  0.00000000000E+00 0. -1.
         -4    1    5    5    0  503  0.94907443038E+02 -0.15739710710E+03 -0.67042707099E+03  0.69516453419E+03  0.00000000000E+00 0.  1.
         -3    1    6    6    0  502 -0.18077524908E+02 -0.47651070638E+02  0.64238821909E+01  0.51368158446E+02  0.00000000000E+00 0.  1.
<mgrwt>
<rscale>  0 0.13894678E+04</rscale>
<asrwt>0</asrwt>
<pdfrwt beam="1">  1        2 0.40453269E+00 0.13894678E+04</pdfrwt>
<pdfrwt beam="2">  1       -2 0.28239476E-01 0.13894678E+04</pdfrwt>
<totfact> 0.32845730E+01</totfact>
</mgrwt>
</event>
<event>
12    1  0.1598876E-007  0.4635311E+04  0.7818608E-02  0.7887367E-01
         -2   -1    0    0    0  501 -0.00000000000E+00  0.00000000000E+00  0.12288357455E+04  0.12288357455E+04  0.00000000000E+00 0.  1.
          2   -1    0    0  501    0  0.00000000000E+00 -0.00000000000E+00 -0.43712333467E+04  0.43712333467E+04  0.00000000000E+00 0. -1.
         23    2    1    2    0    0  0.11909772370E+04  0.18331958935E+04 -0.98472764507E+03  0.23995747415E+04  0.96106410099E+02 0.  0.
        254    2    1    2    0    0 -0.11909772370E+04 -0.18331958935E+04 -0.21576699561E+04  0.32004943507E+04  0.89921659590E+03 0.  0.
        -24    2    4    4    0    0 -0.99414499545E+03 -0.18561284042E+04 -0.21053311589E+04  0.29788302594E+04  0.86449410686E+02 0.  0.
         24    2    4    4    0    0 -0.19683224159E+03  0.22932510678E+02 -0.52338797203E+02  0.22166409135E+03  0.84420307559E+02 0.  0.
         13    1    3    3    0    0  0.35252645241E+03  0.46743831556E+03 -0.27610157852E+03  0.64730638817E+03  0.00000000000E+00 0. -1.
        -13    1    3    3    0    0  0.83845078463E+03  0.13657575780E+04 -0.70862606654E+03  0.17522683534E+04  0.00000000000E+00 0.  1.
          2    1    6    6  502    0  0.28174170088E+01 -0.56188901630E+01 -0.15393275307E+02  0.16627167225E+02  0.00000000000E+00 0. -1.
          1    1    5    5  503    0 -0.39976543813E+03 -0.71944662973E+03 -0.76638454499E+03  0.11246159920E+04  0.00000000000E+00 0. -1.
         -2    1    5    5    0  503 -0.59437955732E+03 -0.11366817745E+04 -0.13389466139E+04  0.18542142674E+04  0.00000000000E+00 0.  1.
         -1    1    6    6    0  502 -0.19964965860E+03  0.28551400841E+02 -0.36945521896E+02  0.20503692413E+03  0.00000000000E+00 0.  1.
<mgrwt>
<rscale>  0 0.46353113E+04</rscale>
<asrwt>0</asrwt>
<pdfrwt beam="1">  1        2 0.67249744E+00 0.46353113E+04</pdfrwt>
<pdfrwt beam="2">  1       -2 0.18905165E+00 0.46353113E+04</pdfrwt>
<totfact> 0.19101917E-02</totfact>
</mgrwt>
</event>
<event>
12    1  0.1598876E-007  0.1934297E+04  0.7818608E-02  0.8637970E-01
          2   -1    0    0  501    0  0.00000000000E+00  0.00000000000E+00  0.28127817262E+04  0.28127817262E+04  0.00000000000E+00 0.  1.
         -2   -1    0    0    0  501 -0.00000000000E+00 -0.00000000000E+00 -0.33254496527E+03  0.33254496527E+03  0.00000000000E+00 0. -1.
         23    2    1    2    0    0 -0.27806331773E+03 -0.60959254636E+03  0.42743360790E+03  0.79996646930E+03  0.91239145018E+02 0.  0.
        254    2    1    2    0    0  0.27806331773E+03  0.60959254636E+03  0.20528031530E+04  0.23453602222E+04  0.91530951345E+03 0.  0.
        -24    2    4    4    0    0 -0.64943631236E+02  0.12803614450E+03 -0.42605292978E+02  0.16676586444E+03  0.73380603816E+02 0.  0.
         24    2    4    4    0    0  0.34300694897E+03  0.48155640186E+03  0.20954084460E+04  0.21785943577E+04  0.77372376968E+02 0.  0.
         13    1    3    3    0    0 -0.38134921076E+02 -0.49682790451E+02  0.15232229993E+02  0.64456750640E+02  0.00000000000E+00 0.  1.
        -13    1    3    3    0    0 -0.23992839666E+03 -0.55990975591E+03  0.41220137791E+03  0.73550971866E+03  0.00000000000E+00 0. -1.
          4    1    6    6  502    0  0.11800471339E+03  0.22173307996E+03  0.81222426900E+03  0.85017582552E+03  0.00000000000E+00 0. -1.
          1    1    5    5  503    0 -0.23772823401E+02  0.20405944348E+02  0.18446048759E+02  0.36356655677E+02  0.00000000000E+00 0. -1.
         -2    1    5    5    0  503 -0.41170807835E+02  0.10763020016E+03 -0.61051341737E+02  0.13040920877E+03  0.00000000000E+00 0.  1.
         -3    1    6    6    0  502  0.22500223558E+03  0.25982332190E+03  0.12831841770E+04  0.13284185322E+04  0.00000000000E+00 0.  1.
<mgrwt>
<rscale>  0 0.19342972E+04</rscale>
<asrwt>0</asrwt>
<pdfrwt beam="1">  1        2 0.43273563E+00 0.19342972E+04</pdfrwt>
<pdfrwt beam="2">  1       -2 0.51160766E-01 0.19342972E+04</pdfrwt>
<totfact> 0.76744606E+00</totfact>
</mgrwt>
</event>
<event>
12    1  0.1598876E-007  0.1776149E+04  0.7818608E-02  0.8719087E-01
          1   -1    0    0  501    0  0.00000000000E+00  0.00000000000E+00  0.15491752508E+04  0.15491752508E+04  0.00000000000E+00 0. -1.
         -1   -1    0    0    0  501 -0.00000000000E+00 -0.00000000000E+00 -0.50909436887E+03  0.50909436887E+03  0.00000000000E+00 0.  1.
         23    2    1    2    0    0 -0.61342127702E+03 -0.22420231458E+03  0.47629724125E+03  0.81315403540E+03  0.88363353826E+02 0.  0.
        254    2    1    2    0    0  0.61342127702E+03  0.22420231458E+03  0.56378364069E+03  0.12451155843E+04  0.89772405768E+03 0.  0.
        -24    2    4    4    0    0 -0.19909339273E+03  0.66414202676E+02  0.29577150733E+03  0.37148164661E+03  0.80428874612E+02 0.  0.
         24    2    4    4    0    0  0.81251466975E+03  0.15778811191E+03  0.26801213335E+03  0.87363393766E+03  0.79552351274E+02 0.  0.
         13    1    3    3    0    0 -0.33553232320E+03 -0.96683553488E+02  0.29906741200E+03  0.45975098298E+03  0.00000000000E+00 0.  1.
        -13    1    3    3    0    0 -0.27788895381E+03 -0.12751876110E+03  0.17722982925E+03  0.35340305242E+03  0.00000000000E+00 0. -1.
          4    1    6    6  502    0  0.68746057376E+01  0.50156904813E+01  0.11786257768E+02  0.14537304676E+02  0.00000000000E+00 0. -1.
          1    1    5    5  503    0 -0.58339887634E+02  0.26973695526E+02  0.36690630614E+02  0.74008952934E+02  0.00000000000E+00 0. -1.
         -2    1    5    5    0  503 -0.14075350510E+03  0.39440507150E+02  0.25908087672E+03  0.29747269368E+03  0.00000000000E+00 0.  1.
         -3    1    6    6    0  502  0.80564006401E+03  0.15277242143E+03  0.25622587558E+03  0.85909663299E+03  0.00000000000E+00 0.  1.
<mgrwt>
<rscale>  0 0.17761491E+04</rscale>
<asrwt>0</asrwt>
<pdfrwt beam="1">  1        1 0.23833465E+00 0.17761491E+04</pdfrwt>
<pdfrwt beam="2">  1       -1 0.78322211E-01 0.17761491E+04</pdfrwt>
<totfact> 0.93319568E+00</totfact>
</mgrwt>
</event>
<event>
12    1  0.1598876E-007  0.3169018E+04  0.7818608E-02  0.8197048E-01
          2   -1    0    0  501    0  0.00000000000E+00  0.00000000000E+00  0.11357827676E+04  0.11357827676E+04  0.00000000000E+00 0. -1.
         -2   -1    0    0    0  501 -0.00000000000E+00 -0.00000000000E+00 -0.22105191331E+04  0.22105191331E+04  0.00000000000E+00 0.  1.
         23    2    1    2    0    0  0.10520716550E+04  0.95656577812E+03 -0.82143709997E+03  0.16445929854E+04  0.89745881882E+02 0.  0.
        254    2    1    2    0    0 -0.10520716550E+04 -0.95656577812E+03 -0.25329926562E+03  0.17017089153E+04  0.89987769130E+03 0.  0.
        -24    2    4    4    0    0 -0.11455514148E+04 -0.98863334587E+03 -0.12613588919E+03  0.15205037336E+04  0.79607818333E+02 0.  0.
         24    2    4    4    0    0  0.93479759833E+02  0.32067567754E+02 -0.12716337643E+03  0.18120518169E+03  0.83054194163E+02 0.  0.
         11    1    3    3    0    0 -0.12347225538E+01  0.59547219318E+00 -0.34872687549E+01  0.37470215221E+01  0.00000000000E+00 0. -1.
        -11    1    3    3    0    0  0.10533063776E+04  0.95597030593E+03 -0.81794983121E+03  0.16408459639E+04  0.00000000000E+00 0.  1.
          4    1    6    6  502    0  0.67592912100E+02  0.58980708562E+02 -0.10363638775E+03  0.13706942261E+03  0.00000000000E+00 0. -1.
          3    1    5    5  503    0 -0.64642267194E+03 -0.50955067177E+03 -0.53179814500E+02  0.82482255702E+03  0.00000000000E+00 0. -1.
         -4    1    5    5    0  503 -0.49912874289E+03 -0.47908267410E+03 -0.72956074690E+02  0.69568117657E+03  0.00000000000E+00 0.  1.
         -3    1    6    6    0  502  0.25886847732E+02 -0.26913140808E+02 -0.23526988678E+02  0.44135759084E+02  0.00000000000E+00 0.  1.
<mgrwt>
<rscale>  0 0.31690185E+04</rscale>
<asrwt>0</asrwt>
<pdfrwt beam="1">  1        2 0.17473581E+00 0.31690185E+04</pdfrwt>
<pdfrwt beam="2">  1       -2 0.34007986E+00 0.31690185E+04</pdfrwt>
<totfact> 0.31392981E-01</totfact>
</mgrwt>
</event>
<event>
12    1  0.1598876E-007  0.2242316E+04  0.7818608E-02  0.8501019E-01
          1   -1    0    0  501    0  0.00000000000E+00  0.00000000000E+00  0.18962120269E+04  0.18962120269E+04  0.00000000000E+00 0. -1.
         -1   -1    0    0    0  501 -0.00000000000E+00 -0.00000000000E+00 -0.66289810497E+03  0.66289810497E+03  0.00000000000E+00 0.  1.
         23    2    1    2    0    0  0.63532652474E+02  0.31330878198E+03 -0.48828217244E+03  0.59083163053E+03  0.91998613695E+02 0.  0.
        254    2    1    2    0    0 -0.63532652474E+02 -0.31330878198E+03  0.17215960944E+04  0.19682785014E+04  0.89890397480E+03 0.  0.
        -24    2    4    4    0    0 -0.37204674805E+03 -0.34636735471E+03  0.14812958679E+04  0.15681245801E+04  0.79925737321E+02 0.  0.
         24    2    4    4    0    0  0.30851409557E+03  0.33058572735E+02  0.24030022652E+03  0.40015392123E+03  0.78135429967E+02 0.  0.
         11    1    3    3    0    0  0.57145479598E+02  0.27243764375E+03 -0.46854408856E+03  0.54499673255E+03  0.00000000000E+00 0.  1.
        -11    1    3    3    0    0  0.63871728766E+01  0.40871138231E+02 -0.19738083879E+02  0.45834897981E+02  0.00000000000E+00 0. -1.
          2    1    6    6  502    0  0.70549240958E+02 -0.24563104230E+02  0.65048440798E+02  0.99054738096E+02  0.00000000000E+00 0. -1.
          3    1    5    5  503    0 -0.12596803516E+03 -0.13895389329E+03  0.44217862582E+03  0.48031038660E+03  0.00000000000E+00 0. -1.
         -4    1    5    5    0  503 -0.24607871288E+03 -0.20741346142E+03  0.10391172421E+04  0.10878141935E+04  0.00000000000E+00 0.  1.
         -1    1    6    6    0  502  0.23796485461E+03  0.57621676965E+02  0.17525178572E+03  0.30109918314E+03  0.00000000000E+00 0.  1.
<mgrwt>
<rscale>  0 0.22423161E+04</rscale>
<asrwt>0</asrwt>
<pdfrwt beam="1">  1        1 0.29172492E+00 0.22423161E+04</pdfrwt>
<pdfrwt beam="2">  1       -1 0.10198432E+00 0.22423161E+04</pdfrwt>
<totfact> 0.28997533E+00</totfact>
</mgrwt>
</event>
<event>
12    1  0.1598876E-007  0.3123056E+04  0.7818608E-02  0.8209439E-01
         -2   -1    0    0    0  501 -0.00000000000E+00  0.00000000000E+00  0.65371231803E+03  0.65371231803E+03  0.00000000000E+00 0.  1.
          2   -1    0    0  501    0  0.00000000000E+00 -0.00000000000E+00 -0.37300358276E+04  0.37300358276E+04  0.00000000000E+00 0. -1.
         23    2    1    2    0    0  0.12780672576E+04 -0.57296596945E+03 -0.18951823904E+04  0.23583254573E+04  0.90756558251E+02 0.  0.
        254    2    1    2    0    0 -0.12780672576E+04  0.57296596945E+03 -0.11811411192E+04  0.20254226884E+04  0.86342156908E+03 0.  0.
        -24    2    4    4    0    0 -0.89153835521E+02  0.42219291403E+03 -0.25619877367E+03  0.50945034023E+03  0.87787097502E+02 0.  0.
         24    2    4    4    0    0 -0.11889134220E+04  0.15077305542E+03 -0.92494234557E+03  0.15159723481E+04  0.80038605042E+02 0.  0.
         11    1    3    3    0    0  0.55839291969E+03 -0.26753012079E+03 -0.90898686507E+03  0.10998327778E+04  0.00000000000E+00 0.  1.
        -11    1    3    3    0    0  0.71967433787E+03 -0.30543584866E+03 -0.98619552531E+03  0.12584926795E+04  0.00000000000E+00 0. -1.
          2    1    6    6  502    0 -0.73835239857E+03  0.95511881201E+02 -0.62305602198E+03  0.97081697062E+03  0.00000000000E+00 0. -1.
          1    1    5    5  503    0 -0.84535881901E+02  0.35022477621E+03 -0.17399707934E+03  0.40009835394E+03  0.00000000000E+00 0. -1.
         -2    1    5    5    0  503 -0.46179536198E+01  0.71968137815E+02 -0.82201694331E+02  0.10935198630E+03  0.00000000000E+00 0.  1.
         -1    1    6    6    0  502 -0.45056102347E+03  0.55261174220E+02 -0.30188632359E+03  0.54515537750E+03  0.00000000000E+00 0.  1.
<mgrwt>
<rscale>  0 0.31230564E+04</rscale>
<asrwt>0</asrwt>
<pdfrwt beam="1">  1        2 0.57385166E+00 0.31230564E+04</pdfrwt>
<pdfrwt beam="2">  1       -2 0.10057113E+00 0.31230564E+04</pdfrwt>
<totfact> 0.38243743E-01</totfact>
</mgrwt>
</event>
<event>
12    1  0.1598876E-007  0.1526069E+04  0.7818608E-02  0.8867300E-01
         -1   -1    0    0    0  501 -0.00000000000E+00  0.00000000000E+00  0.28560943693E+03  0.28560943693E+03  0.00000000000E+00 0.  1.
          1   -1    0    0  501    0  0.00000000000E+00 -0.00000000000E+00 -0.20385228263E+04  0.20385228263E+04  0.00000000000E+00 0. -1.
         23    2    1    2    0    0 -0.21273954195E+03  0.33846431163E+03 -0.10295601411E+04  0.11082201142E+04  0.91332001347E+02 0.  0.
        254    2    1    2    0    0  0.21273954195E+03 -0.33846431163E+03 -0.72335324831E+03  0.12159121490E+04  0.89184428541E+03 0.  0.
        -24    2    4    4    0    0 -0.84214435956E+02  0.97610057672E+02 -0.66156253344E+03  0.67886746036E+03  0.81094071927E+02 0.  0.
         24    2    4    4    0    0  0.29695397790E+03 -0.43607436930E+03 -0.61790714863E+02  0.53704468869E+03  0.79097311272E+02 0.  0.
         11    1    3    3    0    0 -0.17535091039E+03  0.32671685621E+03 -0.93744988463E+03  0.10081191061E+04  0.00000000000E+00 0. -1.
        -11    1    3    3    0    0 -0.37388631556E+02  0.11747455419E+02 -0.92110256433E+02  0.10010100808E+03  0.00000000000E+00 0.  1.
          2    1    6    6  502    0  0.15225526131E+03 -0.23017080277E+03  0.73085271303E+01  0.27606824810E+03  0.00000000000E+00 0. -1.
          3    1    5    5  503    0 -0.95924568925E+02  0.98580010021E+02 -0.56079495256E+03  0.57741711104E+03  0.00000000000E+00 0. -1.
         -4    1    5    5    0  503  0.11710132969E+02 -0.96995234906E+00 -0.10076758088E+03  0.10145034933E+03  0.00000000000E+00 0.  1.
         -1    1    6    6    0  502  0.14469871659E+03 -0.20590356653E+03 -0.69099241993E+02  0.26097644058E+03  0.00000000000E+00 0.  1.
<mgrwt>
<rscale>  0 0.15260686E+04</rscale>
<asrwt>0</asrwt>
<pdfrwt beam="1">  1        1 0.31361889E+00 0.15260686E+04</pdfrwt>
<pdfrwt beam="2">  1       -1 0.43939915E-01 0.15260686E+04</pdfrwt>
<totfact> 0.13877186E+01</totfact>
</mgrwt>
</event>
<event>
12    1  0.1598876E-007  0.1905573E+04  0.7818608E-02  0.8652087E-01
          1   -1    0    0  501    0  0.00000000000E+00  0.00000000000E+00  0.81026050235E+03  0.81026050235E+03  0.00000000000E+00 0. -1.
         -1   -1    0    0    0  501 -0.00000000000E+00 -0.00000000000E+00 -0.11203830846E+04  0.11203830846E+04  0.00000000000E+00 0.  1.
         23    2    1    2    0    0 -0.43972316851E+03  0.56807090208E+03 -0.29556720583E+03  0.78227032185E+03  0.92335630033E+02 0.  0.
        254    2    1    2    0    0  0.43972316851E+03 -0.56807090208E+03 -0.14555376387E+02  0.11483732651E+04  0.89581710310E+03 0.  0.
        -24    2    4    4    0    0 -0.20031964887E+03 -0.35442662670E+03  0.16428785961E+03  0.44601065902E+03  0.78669000953E+02 0.  0.
         24    2    4    4    0    0  0.64004281738E+03 -0.21364427538E+03 -0.17884323600E+03  0.70236260604E+03  0.77650774732E+02 0.  0.
         13    1    3    3    0    0 -0.86904219684E+02  0.10936812056E+03 -0.19324227607E+02  0.14102182443E+03  0.00000000000E+00 0. -1.
        -13    1    3    3    0    0 -0.35281894883E+03  0.45870278152E+03 -0.27624297822E+03  0.64124849742E+03  0.00000000000E+00 0.  1.
          2    1    6    6  502    0  0.63740384791E+03 -0.21776525545E+03 -0.17448374821E+03  0.69580884602E+03  0.00000000000E+00 0. -1.
          1    1    5    5  503    0 -0.16072958025E+03 -0.20861299122E+03  0.11116244843E+03  0.28585042944E+03  0.00000000000E+00 0. -1.
         -2    1    5    5    0  503 -0.39590068614E+02 -0.14581363548E+03  0.53125411182E+02  0.16016022958E+03  0.00000000000E+00 0.  1.
         -1    1    6    6    0  502  0.26389694769E+01  0.41209800702E+01 -0.43594877946E+01  0.65537600253E+01  0.00000000000E+00 0.  1.
<mgrwt>
<rscale>  0 0.19055730E+04</rscale>
<asrwt>0</asrwt>
<pdfrwt beam="1">  1        1 0.12465546E+00 0.19055730E+04</pdfrwt>
<pdfrwt beam="2">  1       -1 0.17236663E+00 0.19055730E+04</pdfrwt>
<totfact> 0.47886701E+00</totfact>
</mgrwt>
</event>
<event>
12    1  0.1598876E-007  0.1306958E+04  0.7818608E-02  0.9024065E-01
          1   -1    0    0  501    0  0.00000000000E+00  0.00000000000E+00  0.67078737215E+03  0.67078737215E+03  0.00000000000E+00 0. -1.
         -1   -1    0    0    0  501 -0.00000000000E+00 -0.00000000000E+00 -0.63661736547E+03  0.63661736547E+03  0.00000000000E+00 0.  1.
         23    2    1    2    0    0 -0.68627210119E+02 -0.19908123581E+03  0.26656381455E+03  0.35132294908E+03  0.89601980456E+02 0.  0.
        254    2    1    2    0    0  0.68627210119E+02  0.19908123581E+03 -0.23239380787E+03  0.95608178854E+03  0.90318462787E+03 0.  0.
        -24    2    4    4    0    0 -0.65802619321E+02 -0.18257482443E+03 -0.44498875266E+03  0.49198102210E+03  0.79792135491E+02 0.  0.
         24    2    4    4    0    0  0.13442982944E+03  0.38165606024E+03  0.21259494479E+03  0.46410076644E+03  0.80375266700E+02 0.  0.
         11    1    3    3    0    0 -0.61045617228E-01 -0.24298632123E+02 -0.11607706668E+01  0.24326418523E+02  0.00000000000E+00 0.  1.
        -11    1    3    3    0    0 -0.68566164502E+02 -0.17478260369E+03  0.26772458522E+03  0.32699653056E+03  0.00000000000E+00 0. -1.
          4    1    6    6  502    0  0.55501915462E+02  0.25331307598E+03  0.15898088430E+03  0.30417576934E+03  0.00000000000E+00 0. -1.
          3    1    5    5  503    0 -0.84083447446E+02 -0.13844639582E+03 -0.34956573996E+03  0.38527086212E+03  0.00000000000E+00 0. -1.
         -4    1    5    5    0  503  0.18280828126E+02 -0.44128428610E+02 -0.95423012708E+02  0.10671015998E+03  0.00000000000E+00 0.  1.
         -3    1    6    6    0  502  0.78927913978E+02  0.12834298426E+03  0.53614060488E+02  0.15992499710E+03  0.00000000000E+00 0.  1.
<mgrwt>
<rscale>  0 0.13069581E+04</rscale>
<asrwt>0</asrwt>
<pdfrwt beam="1">  1        1 0.10319806E+00 0.13069581E+04</pdfrwt>
<pdfrwt beam="2">  1       -1 0.97941133E-01 0.13069581E+04</pdfrwt>
<totfact> 0.28533884E+01</totfact>
</mgrwt>
</event>
<event>
12    1  0.1598876E-007  0.1310689E+04  0.7818608E-02  0.9021132E-01
          2   -1    0    0  501    0  0.00000000000E+00  0.00000000000E+00  0.64325568651E+03  0.64325568651E+03  0.00000000000E+00 0. -1.
         -2   -1    0    0    0  501 -0.00000000000E+00 -0.00000000000E+00 -0.66766006242E+03  0.66766006242E+03  0.00000000000E+00 0.  1.
         23    2    1    2    0    0  0.27202877580E+03  0.17051065547E+03 -0.11177728747E+03  0.35276236776E+03  0.94199721954E+02 0.  0.
        254    2    1    2    0    0 -0.27202877580E+03 -0.17051065547E+03  0.87372911568E+02  0.95815338117E+03  0.89852675958E+03 0.  0.
        -24    2    4    4    0    0 -0.40097621185E+03 -0.71801030134E+02  0.41303148442E+03  0.58558217768E+03  0.79838394887E+02 0.  0.
         24    2    4    4    0    0  0.12894743605E+03 -0.98709625341E+02 -0.32565857285E+03  0.37257120349E+03  0.79904719548E+02 0.  0.
         13    1    3    3    0    0  0.18591781251E+03  0.11757360246E+03 -0.28537139905E+02  0.22181828905E+03  0.00000000000E+00 0. -1.
        -13    1    3    3    0    0  0.86110963294E+02  0.52937053017E+02 -0.83240147569E+02  0.13094407871E+03  0.00000000000E+00 0.  1.
          4    1    6    6  502    0  0.12371933844E+03 -0.10873582160E+03 -0.27405908115E+03  0.31974729642E+03  0.00000000000E+00 0. -1.
          3    1    5    5  503    0 -0.40142573222E+03 -0.69399562831E+02  0.39517083857E+03  0.56755520389E+03  0.00000000000E+00 0. -1.
         -4    1    5    5    0  503  0.44952037166E+00 -0.24014673032E+01  0.17860645849E+02  0.18026973787E+02  0.00000000000E+00 0.  1.
         -3    1    6    6    0  502  0.52280976085E+01  0.10026196257E+02 -0.51599491695E+02  0.52823907079E+02  0.00000000000E+00 0.  1.
<mgrwt>
<rscale>  0 0.13106886E+04</rscale>
<asrwt>0</asrwt>
<pdfrwt beam="1">  1        2 0.98962413E-01 0.13106886E+04</pdfrwt>
<pdfrwt beam="2">  1       -2 0.10271693E+00 0.13106886E+04</pdfrwt>
<totfact> 0.34573863E+01</totfact>
</mgrwt>
</event>
<event>
12    1  0.1598876E-007  0.1394061E+04  0.7818608E-02  0.8958129E-01
          1   -1    0    0  501    0  0.00000000000E+00  0.00000000000E+00  0.11344984624E+04  0.11344984624E+04  0.00000000000E+00 0. -1.
         -1   -1    0    0    0  501 -0.00000000000E+00 -0.00000000000E+00 -0.42825217402E+03  0.42825217402E+03  0.00000000000E+00 0.  1.
         23    2    1    2    0    0 -0.10902760607E+03 -0.18919830895E+03 -0.13799772493E+03  0.27445629875E+03  0.92735477785E+02 0.  0.
        254    2    1    2    0    0  0.10902760607E+03  0.18919830895E+03  0.84424401333E+03  0.12882943377E+04  0.94829917614E+03 0.  0.
        -24    2    4    4    0    0 -0.27792357748E+03  0.14844905884E+03  0.82878745553E+03  0.89019708155E+03  0.79268906647E+02 0.  0.
         24    2    4    4    0    0  0.38695118356E+03  0.40749250117E+02  0.15456557803E+02  0.39809725614E+03  0.82769561602E+02 0.  0.
         11    1    3    3    0    0 -0.11261092725E+03 -0.19429878312E+03 -0.11836394042E+03  0.25385677153E+03  0.00000000000E+00 0.  1.
        -11    1    3    3    0    0  0.35833211773E+01  0.51004741711E+01 -0.19633784511E+02  0.20599527219E+02  0.00000000000E+00 0. -1.
          2    1    6    6  502    0  0.34896124433E+03  0.19597208684E+02  0.33306445534E+02  0.35109446015E+03  0.00000000000E+00 0. -1.
          3    1    5    5  503    0 -0.10477915645E+03  0.89853915706E+02  0.28835606041E+03  0.31968987374E+03  0.00000000000E+00 0. -1.
         -4    1    5    5    0  503 -0.17314442103E+03  0.58595143129E+02  0.54043139512E+03  0.57050720781E+03  0.00000000000E+00 0.  1.
         -1    1    6    6    0  502  0.37989939224E+02  0.21152041432E+02 -0.17849887731E+02  0.47002795991E+02  0.00000000000E+00 0.  1.
<mgrwt>
<rscale>  0 0.13940609E+04</rscale>
<asrwt>0</asrwt>
<pdfrwt beam="1">  1        1 0.17453822E+00 0.13940609E+04</pdfrwt>
<pdfrwt beam="2">  1       -1 0.65884950E-01 0.13940609E+04</pdfrwt>
<totfact> 0.27210035E+01</totfact>
</mgrwt>
</event>
<event>
12    1  0.1598876E-007  0.2626465E+04  0.7818608E-02  0.8359267E-01
         -2   -1    0    0    0  501 -0.00000000000E+00  0.00000000000E+00  0.89085061873E+03  0.89085061873E+03  0.00000000000E+00 0. -1.
          2   -1    0    0  501    0  0.00000000000E+00 -0.00000000000E+00 -0.19358802412E+04  0.19358802412E+04  0.00000000000E+00 0.  1.
         23    2    1    2    0    0 -0.57712923964E+03 -0.94330511763E+03 -0.86831166716E+02  0.11128030513E+04  0.88815963148E+02 0.  0.
        254    2    1    2    0    0  0.57712923964E+03  0.94330511763E+03 -0.95819845579E+03  0.17139278087E+04  0.89246935432E+03 0.  0.
        -24    2    4    4    0    0 -0.48703040369E+02  0.19181828161E+03 -0.65152753794E+03  0.68572713248E+03  0.81039053686E+02 0.  0.
         24    2    4    4    0    0  0.62583228001E+03  0.75148683602E+03 -0.30667091785E+03  0.10282006762E+04  0.82164902579E+02 0.  0.
         13    1    3    3    0    0 -0.36389875720E+03 -0.62200630115E+03 -0.16488634424E+02  0.72082315392E+03  0.00000000000E+00 0. -1.
        -13    1    3    3    0    0 -0.21323048244E+03 -0.32129881648E+03 -0.70342532292E+02  0.39197989740E+03  0.00000000000E+00 0.  1.
          2    1    6    6  502    0  0.45825458248E+03  0.59358644656E+03 -0.21234988046E+03  0.77938091049E+03  0.00000000000E+00 0. -1.
          3    1    5    5  503    0 -0.46760799379E+02  0.19997729696E+03 -0.62968431993E+03  0.66232909827E+03  0.00000000000E+00 0. -1.
         -4    1    5    5    0  503 -0.19422409898E+01 -0.81590153484E+01 -0.21843218013E+02  0.23398034206E+02  0.00000000000E+00 0.  1.
         -1    1    6    6    0  502  0.16757769753E+03  0.15790038946E+03 -0.94321037387E+02  0.24881976568E+03  0.00000000000E+00 0.  1.
<mgrwt>
<rscale>  0 0.26264654E+04</rscale>
<asrwt>0</asrwt>
<pdfrwt beam="1">  1        2 0.29782772E+00 0.26264654E+04</pdfrwt>
<pdfrwt beam="2">  1       -2 0.13705394E+00 0.26264654E+04</pdfrwt>
<totfact> 0.24297534E+00</totfact>
</mgrwt>
</event>
<event>
12    1  0.1598876E-007  0.1079588E+04  0.7818608E-02  0.9225319E-01
         -2   -1    0    0    0  501 -0.00000000000E+00  0.00000000000E+00  0.17487370244E+03  0.17487370244E+03  0.00000000000E+00 0.  1.
          2   -1    0    0  501    0  0.00000000000E+00 -0.00000000000E+00 -0.16662157379E+04  0.16662157379E+04  0.00000000000E+00 0. -1.
         23    2    1    2    0    0 -0.33553340055E+02  0.15727651276E+03 -0.22442756266E+03  0.29071892470E+03  0.91038641284E+02 0.  0.
        254    2    1    2    0    0  0.33553340055E+02 -0.15727651276E+03 -0.12669144728E+04  0.15503705157E+04  0.87904193657E+03 0.  0.
        -24    2    4    4    0    0  0.25070021589E+02 -0.66633149060E+02  0.11753183472E+03  0.16057950033E+03  0.83087671864E+02 0.  0.
         24    2    4    4    0    0  0.84833184664E+01 -0.90643363697E+02 -0.13844463076E+04  0.13897910153E+04  0.80865949008E+02 0.  0.
         13    1    3    3    0    0 -0.10366395768E+02 -0.47462927235E+01  0.17471199283E+01  0.11534378348E+02  0.00000000000E+00 0. -1.
        -13    1    3    3    0    0 -0.23186944287E+02  0.16202280548E+03 -0.22617468258E+03  0.27918454635E+03  0.00000000000E+00 0.  1.
          4    1    6    6  502    0 -0.58986082040E+01 -0.77241649283E+02 -0.13232321663E+04  0.13254978054E+04  0.00000000000E+00 0. -1.
          1    1    5    5  503    0  0.32804524414E+02  0.84618217074E+01  0.34265216733E+02  0.48185519883E+02  0.00000000000E+00 0. -1.
         -4    1    5    5    0  503 -0.77345028258E+01 -0.75094970767E+02  0.83266617991E+02  0.11239398044E+03  0.00000000000E+00 0.  1.
         -3    1    6    6    0  502  0.14381926670E+02 -0.13401714414E+02 -0.61214141214E+02  0.64293209972E+02  0.00000000000E+00 0.  1.
<mgrwt>
<rscale>  0 0.10795875E+04</rscale>
<asrwt>0</asrwt>
<pdfrwt beam="1">  1        2 0.25634090E+00 0.10795875E+04</pdfrwt>
<pdfrwt beam="2">  1       -2 0.26903645E-01 0.10795875E+04</pdfrwt>
<totfact> 0.12771360E+02</totfact>
</mgrwt>
</event>
<event>
12    1  0.1598876E-007  0.1045576E+04  0.7818608E-02  0.9259923E-01
         -2   -1    0    0    0  501 -0.00000000000E+00  0.00000000000E+00  0.61486169259E+03  0.61486169259E+03  0.00000000000E+00 0.  1.
          2   -1    0    0  501    0  0.00000000000E+00 -0.00000000000E+00 -0.44450226284E+03  0.44450226284E+03  0.00000000000E+00 0. -1.
         23    2    1    2    0    0  0.63644470652E+02  0.51783838503E+02 -0.17223531102E+02  0.12524675394E+03  0.93047916545E+02 0.  0.
        254    2    1    2    0    0 -0.63644470652E+02 -0.51783838503E+02  0.18758296085E+03  0.93411720150E+03  0.91140298132E+03 0.  0.
        -24    2    4    4    0    0 -0.14499400426E+03  0.34137463612E+03 -0.14479579156E+03  0.40676454732E+03  0.83256664871E+02 0.  0.
         24    2    4    4    0    0  0.81349533605E+02 -0.39315847463E+03  0.33237875241E+03  0.52735265418E+03  0.80211308593E+02 0.  0.
         11    1    3    3    0    0  0.93928940691E+01 -0.18931145911E+02 -0.28421890996E+02  0.35417772830E+02  0.00000000000E+00 0.  1.
        -11    1    3    3    0    0  0.54251576583E+02  0.70714984413E+02  0.11198359894E+02  0.89828981107E+02  0.00000000000E+00 0. -1.
          4    1    6    6  502    0 -0.99006187626E+01 -0.60186168116E+01  0.76823325163E+01  0.13901950694E+02  0.00000000000E+00 0. -1.
          1    1    5    5  503    0 -0.46347762132E+02  0.21105079058E+03 -0.71168505501E+02  0.22749836798E+03  0.00000000000E+00 0. -1.
         -2    1    5    5    0  503 -0.98646242125E+02  0.13032384554E+03 -0.73627286059E+02  0.17926617934E+03  0.00000000000E+00 0.  1.
         -3    1    6    6    0  502  0.91250152367E+02 -0.38713985781E+03  0.32469641989E+03  0.51345070348E+03  0.00000000000E+00 0.  1.
<mgrwt>
<rscale>  0 0.10455762E+04</rscale>
<asrwt>0</asrwt>
<pdfrwt beam="1">  1        2 0.68384963E-01 0.10455762E+04</pdfrwt>
<pdfrwt beam="2">  1       -2 0.94594107E-01 0.10455762E+04</pdfrwt>
<totfact> 0.66158099E+01</totfact>
</mgrwt>
</event>
<event>
12    1  0.1598876E-007  0.1483279E+04  0.7818608E-02  0.8895649E-01
         -2   -1    0    0    0  501 -0.00000000000E+00  0.00000000000E+00  0.23708535865E+03  0.23708535865E+03  0.00000000000E+00 0.  1.
          2   -1    0    0  501    0  0.00000000000E+00 -0.00000000000E+00 -0.23199615149E+04  0.23199615149E+04  0.00000000000E+00 0. -1.
         23    2    1    2    0    0  0.33552652795E+03 -0.30575837368E+03 -0.51496563184E+03  0.69245795962E+03  0.90786506910E+02 0.  0.
        254    2    1    2    0    0 -0.33552652795E+03  0.30575837368E+03 -0.15679105244E+04  0.18645889139E+04  0.90126698116E+03 0.  0.
        -24    2    4    4    0    0  0.12977879174E+03 -0.17747938548E+03 -0.11226658057E+03  0.25977968729E+03  0.80871711726E+02 0.  0.
         24    2    4    4    0    0 -0.46530531969E+03  0.48323775916E+03 -0.14556439438E+04  0.16048092266E+04  0.80533162310E+02 0.  0.
         13    1    3    3    0    0  0.54036209450E+02 -0.69195080376E+02 -0.55044728563E+02  0.10362332374E+03  0.00000000000E+00 0. -1.
        -13    1    3    3    0    0  0.28149031850E+03 -0.23656329330E+03 -0.45992090327E+03  0.58883463588E+03  0.00000000000E+00 0.  1.
          2    1    6    6  502    0 -0.46875131380E+03  0.47908444760E+03 -0.14439575310E+04  0.15919368874E+04  0.00000000000E+00 0. -1.
          3    1    5    5  503    0  0.95202439120E+02 -0.12509732903E+03 -0.11827542306E+03  0.19672804031E+03  0.00000000000E+00 0. -1.
         -4    1    5    5    0  503  0.34576352624E+02 -0.52382056451E+02  0.60088424856E+01  0.63051646980E+02  0.00000000000E+00 0.  1.
         -1    1    6    6    0  502  0.34459941086E+01  0.41533115643E+01 -0.11686412836E+02  0.12872339232E+02  0.00000000000E+00 0.  1.
<mgrwt>
<rscale>  0 0.14832787E+04</rscale>
<asrwt>0</asrwt>
<pdfrwt beam="1">  1        2 0.35691717E+00 0.14832787E+04</pdfrwt>
<pdfrwt beam="2">  1       -2 0.36474669E-01 0.14832787E+04</pdfrwt>
<totfact> 0.30289585E+01</totfact>
</mgrwt>
</event>
<event>
12    1  0.1598876E-007  0.1705207E+04  0.7818608E-02  0.8758400E-01
         -1   -1    0    0    0  501 -0.00000000000E+00  0.00000000000E+00  0.42380518059E+03  0.42380518059E+03  0.00000000000E+00 0.  1.
          1   -1    0    0  501    0  0.00000000000E+00 -0.00000000000E+00 -0.17152523538E+04  0.17152523538E+04  0.00000000000E+00 0. -1.
         23    2    1    2    0    0 -0.43743917836E+03 -0.59332960517E+02 -0.10003091932E+04  0.10975049115E+04  0.95000599184E+02 0.  0.
        254    2    1    2    0    0  0.43743917836E+03  0.59332960517E+02 -0.29113798011E+03  0.10415526230E+04  0.89732775950E+03 0.  0.
        -24    2    4    4    0    0  0.40185411189E+03 -0.30583795418E+03  0.75859191815E+02  0.51677492007E+03  0.79234585696E+02 0.  0.
         24    2    4    4    0    0  0.35585066467E+02  0.36517091470E+03 -0.36699717192E+03  0.52477770289E+03  0.78029605625E+02 0.  0.
         11    1    3    3    0    0 -0.16130081719E+03 -0.56309623872E+02 -0.46024290306E+03  0.49092999214E+03  0.00000000000E+00 0. -1.
        -11    1    3    3    0    0 -0.27613836117E+03 -0.30233366446E+01 -0.54006629009E+03  0.60657491934E+03  0.00000000000E+00 0.  1.
          4    1    6    6  502    0  0.29128899921E+02  0.35421851021E+03 -0.36850867943E+03  0.51197450386E+03  0.00000000000E+00 0. -1.
          1    1    5    5  503    0  0.38277303820E+03 -0.26434595412E+03  0.74309281253E+02  0.47107945350E+03  0.00000000000E+00 0. -1.
         -2    1    5    5    0  503  0.19081073694E+02 -0.41492000061E+02  0.15499105620E+01  0.45695466570E+02  0.00000000000E+00 0.  1.
         -1    1    6    6    0  502  0.64561665454E+01  0.10952404490E+02  0.15115075046E+01  0.12803199035E+02  0.00000000000E+00 0.  1.
<mgrwt>
<rscale>  0 0.17052071E+04</rscale>
<asrwt>0</asrwt>
<pdfrwt beam="1">  1        1 0.26388497E+00 0.17052071E+04</pdfrwt>
<pdfrwt beam="2">  1       -1 0.65200799E-01 0.17052071E+04</pdfrwt>
<totfact> 0.10554867E+01</totfact>
</mgrwt>
</event>
<event>
12    1  0.1598876E-007  0.1445327E+04  0.7818608E-02  0.8921647E-01
          1   -1    0    0  501    0  0.00000000000E+00  0.00000000000E+00  0.28194366750E+04  0.28194366750E+04  0.00000000000E+00 0. -1.
         -1   -1    0    0    0  501 -0.00000000000E+00 -0.00000000000E+00 -0.18522932470E+03  0.18522932470E+03  0.00000000000E+00 0.  1.
         23    2    1    2    0    0 -0.21439438865E+02 -0.22436357794E+03  0.15932121294E+04  0.16124833307E+04  0.10478042609E+03 0.  0.
        254    2    1    2    0    0  0.21439438865E+02  0.22436357794E+03  0.10409952208E+04  0.13921826690E+04  0.89649476819E+03 0.  0.
        -24    2    4    4    0    0  0.14477313058E+03 -0.68899993873E+02  0.10486289450E+04  0.10638814397E+04  0.80712978372E+02 0.  0.
         24    2    4    4    0    0 -0.12333369172E+03  0.29326357181E+03 -0.76337241907E+01  0.32830122930E+03  0.80676522922E+02 0.  0.
         11    1    3    3    0    0 -0.23654707317E+02 -0.22925798653E+03  0.15890771914E+04  0.16057039234E+04  0.00000000000E+00 0. -1.
        -11    1    3    3    0    0  0.22152684519E+01  0.48944085947E+01  0.41349380438E+01  0.67794072331E+01  0.00000000000E+00 0.  1.
          4    1    6    6  502    0  0.70311552409E+01  0.18010858303E+01 -0.53284018425E+01  0.90040502211E+01  0.00000000000E+00 0. -1.
          3    1    5    5  503    0  0.75710212943E+02 -0.55363142235E+02  0.37359293526E+03  0.38518670166E+03  0.00000000000E+00 0. -1.
         -4    1    5    5    0  503  0.69062917637E+02 -0.13536851638E+02  0.67503600977E+03  0.67869473803E+03  0.00000000000E+00 0.  1.
         -3    1    6    6    0  502 -0.13036484696E+03  0.29146248598E+03 -0.23053223482E+01  0.31929717908E+03  0.00000000000E+00 0.  1.
<mgrwt>
<rscale>  0 0.14453267E+04</rscale>
<asrwt>0</asrwt>
<pdfrwt beam="1">  1        1 0.43375946E+00 0.14453267E+04</pdfrwt>
<pdfrwt beam="2">  1       -1 0.28496821E-01 0.14453267E+04</pdfrwt>
<totfact> 0.88043883E+00</totfact>
</mgrwt>
</event>
<event>
12    1  0.1598876E-007  0.2402764E+04  0.7818608E-02  0.8438470E-01
          1   -1    0    0  501    0  0.00000000000E+00  0.00000000000E+00  0.27389829465E+04  0.27389829465E+04  0.00000000000E+00 0. -1.
         -1   -1    0    0    0  501 -0.00000000000E+00 -0.00000000000E+00 -0.52695410597E+03  0.52695410597E+03  0.00000000000E+00 0.  1.
         23    2    1    2    0    0  0.43260981220E+03 -0.30101152403E+03  0.21558131465E+04  0.22211952772E+04  0.91754834232E+02 0.  0.
        254    2    1    2    0    0 -0.43260981220E+03  0.30101152403E+03  0.56215694018E+02  0.10447417753E+04  0.90031438149E+03 0.  0.
        -24    2    4    4    0    0 -0.97731483319E+01 -0.76685944051E+02  0.37368143528E+03  0.39006256911E+03  0.80837765349E+02 0.  0.
         24    2    4    4    0    0 -0.42283666387E+03  0.37769746808E+03 -0.31746574126E+03  0.65467920616E+03  0.79838238946E+02 0.  0.
         13    1    3    3    0    0  0.65735543335E+02 -0.28789689106E+02  0.19274973126E+03  0.20567563482E+03  0.00000000000E+00 0.  1.
        -13    1    3    3    0    0  0.36687426887E+03 -0.27222183492E+03  0.19630634152E+04  0.20155196423E+04  0.00000000000E+00 0. -1.
          2    1    6    6  502    0 -0.31285261974E+03  0.24953065290E+03 -0.18945213151E+03  0.44275774251E+03  0.00000000000E+00 0. -1.
          1    1    5    5  503    0  0.23215565272E+02 -0.67634638200E+02  0.30579398100E+03  0.31404357273E+03  0.00000000000E+00 0. -1.
         -2    1    5    5    0  503 -0.32988713604E+02 -0.90513058512E+01  0.67887454276E+02  0.76018996382E+02  0.00000000000E+00 0.  1.
         -1    1    6    6    0  502 -0.10998404413E+03  0.12816681517E+03 -0.12801360974E+03  0.21192146365E+03  0.00000000000E+00 0.  1.
<mgrwt>
<rscale>  0 0.24027637E+04</rscale>
<asrwt>0</asrwt>
<pdfrwt beam="1">  1        1 0.42138198E+00 0.24027637E+04</pdfrwt>
<pdfrwt beam="2">  1       -1 0.81069864E-01 0.24027637E+04</pdfrwt>
<totfact> 0.12509624E+00</totfact>
</mgrwt>
</event>
<event>
12    1  0.1598876E-007  0.3287197E+04  0.7818608E-02  0.8166161E-01
         -2   -1    0    0    0  501 -0.00000000000E+00  0.00000000000E+00  0.22891021443E+04  0.22891021443E+04  0.00000000000E+00 0.  1.
          2   -1    0    0  501    0  0.00000000000E+00 -0.00000000000E+00 -0.11801203221E+04  0.11801203221E+04  0.00000000000E+00 0. -1.
         23    2    1    2    0    0 -0.83306906368E+03  0.42530978808E+03 -0.74783043573E+03  0.12010285591E+04  0.91251074360E+02 0.  0.
        254    2    1    2    0    0  0.83306906368E+03 -0.42530978808E+03  0.18568122579E+04  0.22681939073E+04  0.90667489162E+03 0.  0.
        -24    2    4    4    0    0 -0.17898575284E+03 -0.40335874181E+02  0.17037851400E+03  0.26245724402E+03  0.78689798836E+02 0.  0.
         24    2    4    4    0    0  0.10120548165E+04 -0.38497391390E+03  0.16864337439E+04  0.20057366632E+04  0.80379870842E+02 0.  0.
         13    1    3    3    0    0 -0.83012607332E+03  0.42914101313E+03 -0.74640999948E+03  0.11959929741E+04  0.00000000000E+00 0. -1.
        -13    1    3    3    0    0 -0.29429903663E+01 -0.38312250486E+01 -0.14204362442E+01  0.50355850497E+01  0.00000000000E+00 0.  1.
          4    1    6    6  502    0  0.78324598998E+03 -0.33281824769E+03  0.13118707806E+04  0.15637286247E+04  0.00000000000E+00 0. -1.
          3    1    5    5  503    0 -0.98672924625E+02 -0.73841455290E+00  0.45165906531E+02  0.10852119803E+03  0.00000000000E+00 0. -1.
         -4    1    5    5    0  503 -0.80312828211E+02 -0.39597459628E+02  0.12521260746E+03  0.15393604598E+03  0.00000000000E+00 0.  1.
         -3    1    6    6    0  502  0.22880882654E+03 -0.52155666212E+02  0.37456296336E+03  0.44200803855E+03  0.00000000000E+00 0.  1.
<mgrwt>
<rscale>  0 0.32871970E+04</rscale>
<asrwt>0</asrwt>
<pdfrwt beam="1">  1        2 0.18155697E+00 0.32871970E+04</pdfrwt>
<pdfrwt beam="2">  1       -2 0.35216956E+00 0.32871970E+04</pdfrwt>
<totfact> 0.24527358E-01</totfact>
</mgrwt>
</event>
<event>
12    1  0.1598876E-007  0.1913320E+04  0.7818608E-02  0.8648254E-01
         -2   -1    0    0    0  501 -0.00000000000E+00  0.00000000000E+00  0.51358391167E+03  0.51358391167E+03  0.00000000000E+00 0.  1.
          2   -1    0    0  501    0  0.00000000000E+00 -0.00000000000E+00 -0.17819848088E+04  0.17819848088E+04  0.00000000000E+00 0. -1.
         23    2    1    2    0    0  0.96914953668E+02  0.63768801313E+02  0.38718660587E+03  0.41432453235E+03  0.91062517388E+02 0.  0.
        254    2    1    2    0    0 -0.96914953668E+02 -0.63768801313E+02 -0.16555875030E+04  0.18812441881E+04  0.88580514053E+03 0.  0.
        -24    2    4    4    0    0 -0.16683329799E+03  0.38635291570E+03 -0.84845047575E+03  0.95056280260E+03  0.81237350418E+02 0.  0.
         24    2    4    4    0    0  0.69918344317E+02 -0.45012171701E+03 -0.80713702726E+03  0.93068138553E+03  0.84850018235E+02 0.  0.
         13    1    3    3    0    0  0.98823031530E+02  0.18081700097E+02  0.23939826577E+03  0.25962370672E+03  0.00000000000E+00 0.  1.
        -13    1    3    3    0    0 -0.19080778620E+01  0.45687101216E+02  0.14778834010E+03  0.15470082562E+03  0.00000000000E+00 0. -1.
          4    1    6    6  502    0  0.43242024639E+01 -0.17947298183E+02 -0.86777468170E+01  0.20398713902E+02  0.00000000000E+00 0. -1.
          1    1    5    5  503    0 -0.24840765116E+02  0.83252834672E+02 -0.25280036212E+03  0.26731277781E+03  0.00000000000E+00 0. -1.
         -2    1    5    5    0  503 -0.14199253287E+03  0.30310008103E+03 -0.59565011362E+03  0.68325002479E+03  0.00000000000E+00 0.  1.
         -3    1    6    6    0  502  0.65594141854E+02 -0.43217441883E+03 -0.79845928044E+03  0.91028267163E+03  0.00000000000E+00 0.  1.
<mgrwt>
<rscale>  0 0.19133204E+04</rscale>
<asrwt>0</asrwt>
<pdfrwt beam="1">  1        2 0.27415151E+00 0.19133204E+04</pdfrwt>
<pdfrwt beam="2">  1       -2 0.79012910E-01 0.19133204E+04</pdfrwt>
<totfact> 0.11741283E+01</totfact>
</mgrwt>
</event>
<event>
12    1  0.1598876E-007  0.1716292E+04  0.7818608E-02  0.8752126E-01
         -2   -1    0    0    0  501 -0.00000000000E+00  0.00000000000E+00  0.30081103887E+03  0.30081103887E+03  0.00000000000E+00 0.  1.
          2   -1    0    0  501    0  0.00000000000E+00 -0.00000000000E+00 -0.24480979573E+04  0.24480979573E+04  0.00000000000E+00 0. -1.
         23    2    1    2    0    0  0.13300730643E+03  0.35923047149E+03 -0.15496493906E+04  0.15989036099E+04  0.91334794675E+02 0.  0.
        254    2    1    2    0    0 -0.13300730643E+03 -0.35923047149E+03 -0.59763752782E+03  0.11500053863E+04  0.90476753842E+03 0.  0.
        -24    2    4    4    0    0 -0.14752079741E+03 -0.56193653977E+03 -0.69721356538E+03  0.91092887047E+03  0.78419327422E+02 0.  0.
         24    2    4    4    0    0  0.14513490978E+02  0.20270606828E+03  0.99576037560E+02  0.23907651579E+03  0.77083082513E+02 0.  0.
         11    1    3    3    0    0  0.59169462559E+02  0.19902241929E+03 -0.10111108702E+04  0.10322093491E+04  0.00000000000E+00 0. -1.
        -11    1    3    3    0    0  0.73837843872E+02  0.16020805220E+03 -0.53853852044E+03  0.56669426076E+03  0.00000000000E+00 0.  1.
          2    1    6    6  502    0  0.16419986477E+02  0.18916202601E+03  0.11213015939E+03  0.22051090831E+03  0.00000000000E+00 0. -1.
          3    1    5    5  503    0 -0.96415669943E+02 -0.25189720046E+03 -0.36247512504E+03  0.45181456072E+03  0.00000000000E+00 0. -1.
         -4    1    5    5    0  503 -0.51105127466E+02 -0.31003933931E+03 -0.33473844033E+03  0.45911430974E+03  0.00000000000E+00 0.  1.
         -3    1    6    6    0  502 -0.19064954998E+01  0.13544042272E+02 -0.12554121832E+02  0.18565607481E+02  0.00000000000E+00 0.  1.
<mgrwt>
<rscale>  0 0.17162924E+04</rscale>
<asrwt>0</asrwt>
<pdfrwt beam="1">  1        2 0.37663046E+00 0.17162924E+04</pdfrwt>
<pdfrwt beam="2">  1       -2 0.46278621E-01 0.17162924E+04</pdfrwt>
<totfact> 0.15714290E+01</totfact>
</mgrwt>
</event>
<event>
12    1  0.1598876E-007  0.1767116E+04  0.7818608E-02  0.8723985E-01
          2   -1    0    0  501    0  0.00000000000E+00  0.00000000000E+00  0.15929280011E+04  0.15929280011E+04  0.00000000000E+00 0. -1.
         -2   -1    0    0    0  501 -0.00000000000E+00 -0.00000000000E+00 -0.49008803471E+03  0.49008803471E+03  0.00000000000E+00 0.  1.
         23    2    1    2    0    0 -0.13780428210E+03 -0.56932810664E+03  0.73981074402E+03  0.94759288306E+03  0.86532201383E+02 0.  0.
        254    2    1    2    0    0  0.13780428210E+03  0.56932810664E+03  0.36302922239E+03  0.11354231528E+04  0.90236966169E+03 0.  0.
        -24    2    4    4    0    0  0.50879351935E+03  0.39517556286E+03  0.29632833479E+03  0.71364436806E+03  0.80269740537E+02 0.  0.
         24    2    4    4    0    0 -0.37098923726E+03  0.17415254378E+03  0.66700887591E+02  0.42177878470E+03  0.74068968872E+02 0.  0.
         13    1    3    3    0    0 -0.13237649142E+03 -0.57121624112E+03  0.73343827632E+03  0.93901183953E+03  0.00000000000E+00 0. -1.
        -13    1    3    3    0    0 -0.54277906794E+01  0.18881344796E+01  0.63724676984E+01  0.85810435286E+01  0.00000000000E+00 0.  1.
          4    1    6    6  502    0 -0.21642585826E+03  0.13529823062E+03  0.60379696720E+02  0.26228128242E+03  0.00000000000E+00 0. -1.
          1    1    5    5  503    0  0.50609708425E+02  0.12328663589E+02  0.21541616350E+02  0.56368251416E+02  0.00000000000E+00 0. -1.
         -2    1    5    5    0  503  0.45818381093E+03  0.38284689927E+03  0.27478671844E+03  0.65727611665E+03  0.00000000000E+00 0.  1.
         -3    1    6    6    0  502 -0.15456337900E+03  0.38854313159E+02  0.63211908715E+01  0.15949750228E+03  0.00000000000E+00 0.  1.
<mgrwt>
<rscale>  0 0.17671162E+04</rscale>
<asrwt>0</asrwt>
<pdfrwt beam="1">  1        2 0.24506584E+00 0.17671162E+04</pdfrwt>
<pdfrwt beam="2">  1       -2 0.75398160E-01 0.17671162E+04</pdfrwt>
<totfact> 0.16809930E+01</totfact>
</mgrwt>
</event>
<event>
12    1  0.1598876E-007  0.2052676E+04  0.7818608E-02  0.8582382E-01
          1   -1    0    0  501    0  0.00000000000E+00  0.00000000000E+00  0.15961754254E+04  0.15961754254E+04  0.00000000000E+00 0. -1.
         -1   -1    0    0    0  501 -0.00000000000E+00 -0.00000000000E+00 -0.65993328579E+03  0.65993328579E+03  0.00000000000E+00 0.  1.
         23    2    1    2    0    0 -0.36900549350E+03  0.64771321598E+03 -0.13379454630E+02  0.75113439032E+03  0.91249099337E+02 0.  0.
        254    2    1    2    0    0  0.36900549350E+03 -0.64771321598E+03  0.94962159424E+03  0.15049743209E+04  0.89859282762E+03 0.  0.
        -24    2    4    4    0    0 -0.29470989113E+02  0.18636974304E+03  0.46446003704E+02  0.21028239761E+03  0.80369367075E+02 0.  0.
         24    2    4    4    0    0  0.39847648261E+03 -0.83408295903E+03  0.90317559054E+03  0.12946919233E+04  0.77608885359E+02 0.  0.
         13    1    3    3    0    0 -0.35175358000E+03  0.56502001529E+03 -0.23981895793E+02  0.66599799552E+03  0.00000000000E+00 0.  1.
        -13    1    3    3    0    0 -0.17251913499E+02  0.82693200698E+02  0.10602441163E+02  0.85136394801E+02  0.00000000000E+00 0. -1.
          2    1    6    6  502    0  0.28184483113E+03 -0.53532887820E+03  0.62940187089E+03  0.87301788741E+03  0.00000000000E+00 0. -1.
          1    1    5    5  503    0 -0.56507094187E+02  0.11370158709E+03  0.36509053048E+02  0.13211363879E+03  0.00000000000E+00 0. -1.
         -4    1    5    5    0  503  0.27036105074E+02  0.72668155952E+02  0.99369506561E+01  0.78168758819E+02  0.00000000000E+00 0.  1.
         -1    1    6    6    0  502  0.11663165148E+03 -0.29875408082E+03  0.27377371965E+03  0.42167403585E+03  0.00000000000E+00 0.  1.
<mgrwt>
<rscale>  0 0.20526756E+04</rscale>
<asrwt>0</asrwt>
<pdfrwt beam="1">  1        1 0.24556545E+00 0.20526756E+04</pdfrwt>
<pdfrwt beam="2">  1       -1 0.10152820E+00 0.20526756E+04</pdfrwt>
<totfact> 0.47714437E+00</totfact>
</mgrwt>
</event>
<event>
12    1  0.1598876E-007  0.1301894E+04  0.7818608E-02  0.9028065E-01
         -1   -1    0    0    0  501 -0.00000000000E+00  0.00000000000E+00  0.64773248482E+03  0.64773248482E+03  0.00000000000E+00 0.  1.
          1   -1    0    0  501    0  0.00000000000E+00 -0.00000000000E+00 -0.65417752433E+03  0.65417752433E+03  0.00000000000E+00 0. -1.
         23    2    1    2    0    0  0.21229237193E+02  0.28686735705E+03 -0.13378549909E+03  0.33023156851E+03  0.91710239455E+02 0.  0.
        254    2    1    2    0    0 -0.21229237193E+02 -0.28686735705E+03  0.12734045957E+03  0.97167844063E+03  0.91934750682E+03 0.  0.
        -24    2    4    4    0    0 -0.13065475317E+03 -0.48201067417E+03 -0.21907685138E+03  0.55159743212E+03  0.82825755477E+02 0.  0.
         24    2    4    4    0    0  0.10942551598E+03  0.19514331712E+03  0.34641731095E+03  0.42008100852E+03  0.80051499825E+02 0.  0.
         11    1    3    3    0    0 -0.35406964447E+01  0.27319240810E+03 -0.12610382371E+03  0.30091328108E+03  0.00000000000E+00 0. -1.
        -11    1    3    3    0    0  0.24769933638E+02  0.13674948948E+02 -0.76816753768E+01  0.29318287429E+02  0.00000000000E+00 0.  1.
          2    1    6    6  502    0  0.11238905038E+03  0.12919184388E+03  0.26022833704E+03  0.31151343241E+03  0.00000000000E+00 0. -1.
          1    1    5    5  503    0 -0.55243272157E+02 -0.88699411179E+02 -0.61396575292E+02  0.12119795427E+03  0.00000000000E+00 0. -1.
         -2    1    5    5    0  503 -0.75411481015E+02 -0.39331126299E+03 -0.15768027609E+03  0.43039947785E+03  0.00000000000E+00 0.  1.
         -1    1    6    6    0  502 -0.29635344011E+01  0.65951473232E+02  0.86188973913E+02  0.10856757611E+03  0.00000000000E+00 0.  1.
<mgrwt>
<rscale>  0 0.13018941E+04</rscale>
<asrwt>0</asrwt>
<pdfrwt beam="1">  1        1 0.10064270E+00 0.13018941E+04</pdfrwt>
<pdfrwt beam="2">  1       -1 0.99651152E-01 0.13018941E+04</pdfrwt>
<totfact> 0.28488563E+01</totfact>
</mgrwt>
</event>
<event>
12    1  0.1598876E-007  0.1652604E+04  0.7818608E-02  0.8788868E-01
          2   -1    0    0  501    0  0.00000000000E+00  0.00000000000E+00  0.12055709657E+04  0.12055709657E+04  0.00000000000E+00 0. -1.
         -2   -1    0    0    0  501 -0.00000000000E+00 -0.00000000000E+00 -0.56634980786E+03  0.56634980786E+03  0.00000000000E+00 0.  1.
         23    2    1    2    0    0  0.38536682963E+03 -0.37487888361E+03  0.44863674776E+03  0.70601254450E+03  0.90205381181E+02 0.  0.
        254    2    1    2    0    0 -0.38536682963E+03  0.37487888361E+03  0.19058441009E+03  0.10659082291E+04  0.90044220506E+03 0.  0.
        -24    2    4    4    0    0  0.87119263802E+02 -0.55666382914E+02  0.37484559265E+03  0.39594620165E+03  0.74670368664E+02 0.  0.
         24    2    4    4    0    0 -0.47248609343E+03  0.43054526653E+03 -0.18426118257E+03  0.66996202741E+03  0.79275467585E+02 0.  0.
         13    1    3    3    0    0  0.27190576748E+03 -0.24532233628E+03  0.25157626301E+03  0.44430441273E+03  0.00000000000E+00 0. -1.
        -13    1    3    3    0    0  0.11346106215E+03 -0.12955654733E+03  0.19706048476E+03  0.26170813177E+03  0.00000000000E+00 0.  1.
          2    1    6    6  502    0 -0.74256217509E+02  0.51001837816E+02 -0.92410570264E+00  0.90088996391E+02  0.00000000000E+00 0. -1.
          3    1    5    5  503    0 -0.80713548683E+01  0.52471383524E+00  0.40907974262E+01  0.90640342895E+01  0.00000000000E+00 0. -1.
         -4    1    5    5    0  503  0.95190618671E+02 -0.56191096749E+02  0.37075479523E+03  0.38688216736E+03  0.00000000000E+00 0.  1.
         -1    1    6    6    0  502 -0.39822987592E+03  0.37954342871E+03 -0.18333707686E+03  0.57987303102E+03  0.00000000000E+00 0.  1.
<mgrwt>
<rscale>  0 0.16526039E+04</rscale>
<asrwt>0</asrwt>
<pdfrwt beam="1">  1        2 0.18547246E+00 0.16526039E+04</pdfrwt>
<pdfrwt beam="2">  1       -2 0.87130740E-01 0.16526039E+04</pdfrwt>
<totfact> 0.20442736E+01</totfact>
</mgrwt>
</event>
<event>
12    1  0.1598876E-007  0.1192622E+04  0.7818608E-02  0.9119339E-01
         -1   -1    0    0    0  501 -0.00000000000E+00  0.00000000000E+00  0.24827240927E+04  0.24827240927E+04  0.00000000000E+00 0. -1.
          1   -1    0    0  501    0  0.00000000000E+00 -0.00000000000E+00 -0.14322438113E+03  0.14322438113E+03  0.00000000000E+00 0.  1.
         23    2    1    2    0    0  0.15984321132E+03 -0.25480700746E+02  0.91997664162E+03  0.93830686406E+03  0.88677120532E+02 0.  0.
        254    2    1    2    0    0 -0.15984321132E+03  0.25480700746E+02  0.14195230699E+04  0.16876416097E+04  0.89827019242E+03 0.  0.
        -24    2    4    4    0    0 -0.11777105916E+03 -0.37113023142E+03  0.30518107975E+03  0.50129292127E+03  0.80940906973E+02 0.  0.
         24    2    4    4    0    0 -0.42072152161E+02  0.39661093217E+03  0.11143419902E+04  0.11863486885E+04  0.81208633130E+02 0.  0.
         13    1    3    3    0    0  0.12877340559E+03 -0.15760280089E+02  0.86290528958E+03  0.87260329772E+03  0.00000000000E+00 0. -1.
        -13    1    3    3    0    0  0.31069805729E+02 -0.97204206569E+01  0.57071352039E+02  0.65703566337E+02  0.00000000000E+00 0.  1.
          2    1    6    6  502    0  0.55583718694E+01  0.56767578942E+02  0.24893274135E+03  0.25538395257E+03  0.00000000000E+00 0. -1.
          1    1    5    5  503    0  0.10691443745E+02 -0.39827521537E+02  0.20893029615E+02  0.46228315215E+02  0.00000000000E+00 0. -1.
         -2    1    5    5    0  503 -0.12846250290E+03 -0.33130270989E+03  0.28428805014E+03  0.45506460605E+03  0.00000000000E+00 0.  1.
         -1    1    6    6    0  502 -0.47630524031E+02  0.33984335323E+03  0.86540924880E+03  0.93096473589E+03  0.00000000000E+00 0.  1.
<mgrwt>
<rscale>  0 0.11926217E+04</rscale>
<asrwt>0</asrwt>
<pdfrwt beam="1">  1        1 0.22034522E-01 0.11926217E+04</pdfrwt>
<pdfrwt beam="2">  1       -1 0.38195752E+00 0.11926217E+04</pdfrwt>
<totfact> 0.21999664E+00</totfact>
</mgrwt>
</event>
<event>
12    1  0.1598876E-007  0.1134367E+04  0.7818608E-02  0.9172328E-01
          1   -1    0    0  501    0  0.00000000000E+00  0.00000000000E+00  0.25232161594E+03  0.25232161594E+03  0.00000000000E+00 0. -1.
         -1   -1    0    0    0  501 -0.00000000000E+00 -0.00000000000E+00 -0.12749478639E+04  0.12749478639E+04  0.00000000000E+00 0.  1.
         23    2    1    2    0    0 -0.17218317315E+03  0.29228685653E+02 -0.32352625299E+03  0.37675660375E+03  0.82310029243E+02 0.  0.
        254    2    1    2    0    0  0.17218317315E+03 -0.29228685653E+02 -0.69909999493E+03  0.11505128760E+04  0.89690451769E+03 0.  0.
        -24    2    4    4    0    0 -0.10535389644E+03 -0.20412350390E+03 -0.76872681156E+03  0.80618727602E+03  0.78937727727E+02 0.  0.
         24    2    4    4    0    0  0.27753706959E+03  0.17489481825E+03  0.69626816630E+02  0.34432560003E+03  0.78084587455E+02 0.  0.
         13    1    3    3    0    0  0.90604033640E+01  0.11617111270E+01 -0.10138468566E+02  0.13646575641E+02  0.00000000000E+00 0. -1.
        -13    1    3    3    0    0 -0.18124357651E+03  0.28066974526E+02 -0.31338778443E+03  0.36311002811E+03  0.00000000000E+00 0.  1.
          2    1    6    6  502    0  0.19597147556E+03  0.14828664198E+03  0.78714211952E+02  0.25804975215E+03  0.00000000000E+00 0. -1.
          1    1    5    5  503    0  0.94065028134E+01 -0.11004622113E+01 -0.24097810623E+02  0.25892041037E+02  0.00000000000E+00 0. -1.
         -2    1    5    5    0  503 -0.11476039925E+03 -0.20302304169E+03 -0.74462900094E+03  0.78029523498E+03  0.00000000000E+00 0.  1.
         -1    1    6    6    0  502  0.81565594027E+02  0.26608176266E+02 -0.90873953220E+01  0.86275847877E+02  0.00000000000E+00 0.  1.
<mgrwt>
<rscale>  0 0.11343666E+04</rscale>
<asrwt>0</asrwt>
<pdfrwt beam="1">  1        1 0.38818710E-01 0.11343666E+04</pdfrwt>
<pdfrwt beam="2">  1       -1 0.19614583E+00 0.11343666E+04</pdfrwt>
<totfact> 0.17493385E+01</totfact>
</mgrwt>
</event>
<event>
12    1  0.1618368E-007  0.2738460E+04  0.7818608E-02  0.8322633E-01
         -2   -1    0    0    0  501 -0.00000000000E+00  0.00000000000E+00  0.93835785488E+03  0.93835785488E+03  0.00000000000E+00 0. -1.
          2   -1    0    0  501    0  0.00000000000E+00 -0.00000000000E+00 -0.19979492638E+04  0.19979492638E+04  0.00000000000E+00 0.  1.
         23    2    1    2    0    0 -0.19671867063E+03 -0.10940187416E+04  0.65059329392E+02  0.11175498370E+04  0.95444640708E+02 0.  0.
        254    2    1    2    0    0  0.19671867063E+03  0.10940187416E+04 -0.11246507383E+04  0.18187572817E+04  0.89858974188E+03 0.  0.
        -24    2    4    4    0    0  0.83633260197E+02 -0.13714218035E+03 -0.74809550407E+02  0.19482438882E+03  0.80978847888E+02 0.  0.
         24    2    4    4    0    0  0.11308541043E+03  0.12311609220E+04 -0.10498411879E+04  0.16239328929E+04  0.80286953746E+02 0.  0.
         13    1    3    3    0    0 -0.20262018855E+03 -0.10805858982E+04  0.71027542451E+02  0.11017103685E+04  0.00000000000E+00 0. -1.
        -13    1    3    3    0    0  0.59015179195E+01 -0.13432843384E+02 -0.59682130587E+01  0.15839468497E+02  0.00000000000E+00 0.  1.
          2    1    6    6  502    0  0.22006346809E+02  0.64017871150E+02 -0.68946191591E+02  0.96623726182E+02  0.00000000000E+00 0. -1.
          3    1    5    5  503    0  0.35954446738E+02 -0.64885731255E+01 -0.33927916031E+02  0.49859074477E+02  0.00000000000E+00 0. -1.
         -4    1    5    5    0  503  0.47678813458E+02 -0.13065360723E+03 -0.40881634377E+02  0.14496531435E+03  0.00000000000E+00 0.  1.
         -1    1    6    6    0  502  0.91079063622E+02  0.11671430508E+04 -0.98089499630E+03  0.15273091667E+04  0.00000000000E+00 0.  1.
<mgrwt>
<rscale>  0 0.27384604E+04</rscale>
<asrwt>0</asrwt>
<pdfrwt beam="1">  1        2 0.30737681E+00 0.27384604E+04</pdfrwt>
<pdfrwt beam="2">  1       -2 0.14436275E+00 0.27384604E+04</pdfrwt>
<totfact> 0.19421200E+00</totfact>
</mgrwt>
</event>
<event>
12    1  0.1598876E-007  0.2065825E+04  0.7818608E-02  0.8576449E-01
         -2   -1    0    0    0  501 -0.00000000000E+00  0.00000000000E+00  0.54482898437E+03  0.54482898437E+03  0.00000000000E+00 0.  1.
          2   -1    0    0  501    0  0.00000000000E+00 -0.00000000000E+00 -0.19582450974E+04  0.19582450974E+04  0.00000000000E+00 0. -1.
         23    2    1    2    0    0  0.20243232244E+03 -0.77560872067E+03 -0.85259932464E+03  0.11737366717E+04  0.90467857997E+02 0.  0.
        254    2    1    2    0    0 -0.20243232244E+03  0.77560872067E+03 -0.56081678841E+03  0.13293374101E+04  0.90004152516E+03 0.  0.
        -24    2    4    4    0    0 -0.10070819983E+03  0.17998210035E+02  0.20594835932E+03  0.24367782099E+03  0.80610648552E+02 0.  0.
         24    2    4    4    0    0 -0.10172412261E+03  0.75761051064E+03 -0.76676514773E+03  0.10856595891E+04  0.80040419296E+02 0.  0.
         13    1    3    3    0    0  0.19974668295E+03 -0.63671328414E+03 -0.72016109244E+03  0.98180168191E+03  0.00000000000E+00 0. -1.
        -13    1    3    3    0    0  0.26856394860E+01 -0.13889543653E+03 -0.13243823220E+03  0.19193498977E+03  0.00000000000E+00 0.  1.
          2    1    6    6  502    0  0.36739154123E+01  0.11640833578E+03 -0.14846088092E+03  0.18869295550E+03  0.00000000000E+00 0. -1.
          3    1    5    5  503    0  0.11612105636E+02 -0.43270720369E+01  0.72943359031E+01  0.14379564874E+02  0.00000000000E+00 0. -1.
         -4    1    5    5    0  503 -0.11232030547E+03  0.22325282072E+02  0.19865402342E+03  0.22929825612E+03  0.00000000000E+00 0.  1.
         -1    1    6    6    0  502 -0.10539803802E+03  0.64120217485E+03 -0.61830426681E+03  0.89696663361E+03  0.00000000000E+00 0.  1.
<mgrwt>
<rscale>  0 0.20658254E+04</rscale>
<asrwt>0</asrwt>
<pdfrwt beam="1">  1        2 0.30126847E+00 0.20658254E+04</pdfrwt>
<pdfrwt beam="2">  1       -2 0.83819845E-01 0.20658254E+04</pdfrwt>
<totfact> 0.81011171E+00</totfact>
</mgrwt>
</event>
<event>
12    1  0.1598876E-007  0.1902414E+04  0.7818608E-02  0.8653656E-01
          2   -1    0    0  501    0  0.00000000000E+00  0.00000000000E+00  0.17028072090E+04  0.17028072090E+04  0.00000000000E+00 0. -1.
         -2   -1    0    0    0  501 -0.00000000000E+00 -0.00000000000E+00 -0.53135467741E+03  0.53135467741E+03  0.00000000000E+00 0.  1.
         23    2    1    2    0    0  0.60165477089E+03 -0.10990476450E+03  0.90464968467E+03  0.10958327072E+04  0.91601034449E+02 0.  0.
        254    2    1    2    0    0 -0.60165477089E+03  0.10990476450E+03  0.26680284688E+03  0.11383291792E+04  0.92224836164E+03 0.  0.
        -24    2    4    4    0    0 -0.23207974446E+03  0.49699497272E+03  0.55194501184E+02  0.55709027620E+03  0.80237972211E+02 0.  0.
         24    2    4    4    0    0 -0.36957502643E+03 -0.38709020822E+03  0.21160834569E+03  0.58123890301E+03  0.81461898715E+02 0.  0.
         11    1    3    3    0    0  0.24572107725E+03 -0.90875741804E+02  0.38492514302E+03  0.46562282374E+03  0.00000000000E+00 0. -1.
        -11    1    3    3    0    0  0.35593369364E+03 -0.19029022693E+02  0.51972454165E+03  0.63020988342E+03  0.00000000000E+00 0.  1.
          2    1    6    6  502    0 -0.33411820562E+03 -0.37527935176E+03  0.18533056079E+03  0.53555297026E+03  0.00000000000E+00 0. -1.
          1    1    5    5  503    0 -0.23589789438E+03  0.46478527232E+03  0.58460775754E+02  0.52449101827E+03  0.00000000000E+00 0. -1.
         -2    1    5    5    0  503  0.38181499223E+01  0.32209700397E+02 -0.32662745708E+01  0.32599257937E+02  0.00000000000E+00 0.  1.
         -1    1    6    6    0  502 -0.35456820803E+02 -0.11810856459E+02  0.26277784905E+02  0.45685932750E+02  0.00000000000E+00 0.  1.
<mgrwt>
<rscale>  0 0.19024138E+04</rscale>
<asrwt>0</asrwt>
<pdfrwt beam="1">  1        2 0.26197034E+00 0.19024138E+04</pdfrwt>
<pdfrwt beam="2">  1       -2 0.81746875E-01 0.19024138E+04</pdfrwt>
<totfact> 0.12045681E+01</totfact>
</mgrwt>
</event>
<event>
12    1  0.1598876E-007  0.1167529E+04  0.7818608E-02  0.9141763E-01
         -2   -1    0    0    0  501 -0.00000000000E+00  0.00000000000E+00  0.53314810038E+03  0.53314810038E+03  0.00000000000E+00 0.  1.
          2   -1    0    0  501    0  0.00000000000E+00 -0.00000000000E+00 -0.63918669037E+03  0.63918669037E+03  0.00000000000E+00 0. -1.
         23    2    1    2    0    0 -0.15359724157E+03  0.52680135138E+02  0.14218491827E+03  0.23822212350E+03  0.10082618650E+03 0.  0.
        254    2    1    2    0    0  0.15359724157E+03 -0.52680135138E+02 -0.24822350826E+03  0.93411266725E+03  0.88576760824E+03 0.  0.
        -24    2    4    4    0    0  0.38009853743E+03 -0.20534698486E+03  0.13195280136E+03  0.45847694641E+03  0.78404631596E+02 0.  0.
         24    2    4    4    0    0 -0.22650129585E+03  0.15266684973E+03 -0.38017630962E+03  0.47563572084E+03  0.84174274687E+02 0.  0.
         13    1    3    3    0    0 -0.21228449633E+02 -0.20812116141E+02 -0.11260745086E+01  0.29749946149E+02  0.00000000000E+00 0. -1.
        -13    1    3    3    0    0 -0.13236879194E+03  0.73492251279E+02  0.14331099278E+03  0.20847217735E+03  0.00000000000E+00 0.  1.
          2    1    6    6  502    0 -0.17641203616E+03  0.82527514372E+02 -0.30151716870E+03  0.35894930025E+03  0.00000000000E+00 0. -1.
          3    1    5    5  503    0  0.33435081176E+03 -0.15379597819E+03  0.94197589619E+02  0.37989058177E+03  0.00000000000E+00 0. -1.
         -2    1    5    5    0  503  0.45747725668E+02 -0.51551006674E+02  0.37755211742E+02  0.78586364636E+02  0.00000000000E+00 0.  1.
         -1    1    6    6    0  502 -0.50089259694E+02  0.70139335355E+02 -0.78659140920E+02  0.11668642059E+03  0.00000000000E+00 0.  1.
<mgrwt>
<rscale>  0 0.11675293E+04</rscale>
<asrwt>0</asrwt>
<pdfrwt beam="1">  1        2 0.98336414E-01 0.11675293E+04</pdfrwt>
<pdfrwt beam="2">  1       -2 0.82022785E-01 0.11675293E+04</pdfrwt>
<totfact> 0.59335821E+01</totfact>
</mgrwt>
</event>
<event>
12    1  0.1598876E-007  0.1921156E+04  0.7818608E-02  0.8644397E-01
          2   -1    0    0  501    0  0.00000000000E+00  0.00000000000E+00  0.16279691374E+04  0.16279691374E+04  0.00000000000E+00 0. -1.
         -2   -1    0    0    0  501 -0.00000000000E+00 -0.00000000000E+00 -0.56678585335E+03  0.56678585335E+03  0.00000000000E+00 0.  1.
         23    2    1    2    0    0 -0.68207186369E+03  0.39202650900E+02  0.61920366717E+02  0.69198919689E+03  0.90862763139E+02 0.  0.
        254    2    1    2    0    0  0.68207186369E+03 -0.39202650900E+02  0.99926291728E+03  0.15027657938E+04  0.89051657938E+03 0.  0.
        -24    2    4    4    0    0  0.46597950646E+03  0.36824618623E+03  0.32418511993E+03  0.68129981011E+03  0.79569373251E+02 0.  0.
         24    2    4    4    0    0  0.21609235722E+03 -0.40744883713E+03  0.67507779735E+03  0.82146598371E+03  0.79786390973E+02 0.  0.
         11    1    3    3    0    0 -0.36662124414E+03 -0.72207329622E+01 -0.24871684076E+01  0.36670077944E+03  0.00000000000E+00 0.  1.
        -11    1    3    3    0    0 -0.31545061955E+03  0.46423383863E+02  0.64407535125E+02  0.32528841744E+03  0.00000000000E+00 0. -1.
          2    1    6    6  502    0  0.46696331710E+02 -0.16441413096E+03  0.22287758855E+03  0.28086824906E+03  0.00000000000E+00 0. -1.
          3    1    5    5  503    0  0.91927406050E+02  0.74943095246E+02  0.30161698690E+02  0.12237991492E+03  0.00000000000E+00 0. -1.
         -4    1    5    5    0  503  0.37405210041E+03  0.29330309098E+03  0.29402342124E+03  0.55891989519E+03  0.00000000000E+00 0.  1.
         -1    1    6    6    0  502  0.16939602551E+03 -0.24303470617E+03  0.45220020880E+03  0.54059773464E+03  0.00000000000E+00 0.  1.
<mgrwt>
<rscale>  0 0.19211558E+04</rscale>
<asrwt>0</asrwt>
<pdfrwt beam="1">  1        2 0.25045679E+00 0.19211558E+04</pdfrwt>
<pdfrwt beam="2">  1       -2 0.87197824E-01 0.19211558E+04</pdfrwt>
<totfact> 0.11431705E+01</totfact>
</mgrwt>
</event>
<event>
12    1  0.1598876E-007  0.1591992E+04  0.7818608E-02  0.8825483E-01
         -2   -1    0    0    0  501 -0.00000000000E+00  0.00000000000E+00  0.35348081977E+03  0.35348081977E+03  0.00000000000E+00 0.  1.
          2   -1    0    0  501    0  0.00000000000E+00 -0.00000000000E+00 -0.17924857866E+04  0.17924857866E+04  0.00000000000E+00 0. -1.
         23    2    1    2    0    0  0.58161184947E+02  0.23148500524E+03  0.15524283798E+03  0.29769688074E+03  0.86919865254E+02 0.  0.
        254    2    1    2    0    0 -0.58161184947E+02 -0.23148500524E+03 -0.15942478048E+04  0.18482697257E+04  0.90416087312E+03 0.  0.
        -24    2    4    4    0    0 -0.27798980188E+03 -0.23949963806E+03 -0.18436178885E+03  0.41908735789E+03  0.83705064195E+02 0.  0.
         24    2    4    4    0    0  0.21982861693E+03  0.80146328234E+01 -0.14098860160E+04  0.14291823678E+04  0.79967537954E+02 0.  0.
         13    1    3    3    0    0  0.44920907652E+02  0.14324550843E+03  0.14354270207E+03  0.20770573162E+03  0.00000000000E+00 0.  1.
        -13    1    3    3    0    0  0.13240277295E+02  0.88239496809E+02  0.11700135903E+02  0.89991149121E+02  0.00000000000E+00 0. -1.
          4    1    6    6  502    0  0.17997937184E+03  0.30203042413E+02 -0.97683588905E+03  0.99373696328E+03  0.00000000000E+00 0. -1.
          1    1    5    5  503    0 -0.22963632751E+03 -0.20251523606E+03 -0.18589302917E+03  0.35819196257E+03  0.00000000000E+00 0. -1.
         -4    1    5    5    0  503 -0.48353474365E+02 -0.36984401996E+02  0.15312403217E+01  0.60895395319E+02  0.00000000000E+00 0.  1.
         -3    1    6    6    0  502  0.39849245094E+02 -0.22188409590E+02 -0.43305012694E+03  0.43544540450E+03  0.00000000000E+00 0.  1.
<mgrwt>
<rscale>  0 0.15919916E+04</rscale>
<asrwt>0</asrwt>
<pdfrwt beam="1">  1        2 0.27576705E+00 0.15919916E+04</pdfrwt>
<pdfrwt beam="2">  1       -2 0.54381664E-01 0.15919916E+04</pdfrwt>
<totfact> 0.26605716E+01</totfact>
</mgrwt>
</event>
<event>
12    1  0.1598876E-007  0.1935175E+04  0.7818608E-02  0.8637543E-01
         -1   -1    0    0    0  501 -0.00000000000E+00  0.00000000000E+00  0.45251178281E+03  0.45251178281E+03  0.00000000000E+00 0.  1.
          1   -1    0    0  501    0  0.00000000000E+00 -0.00000000000E+00 -0.20689523625E+04  0.20689523625E+04  0.00000000000E+00 0. -1.
         23    2    1    2    0    0  0.48161892022E+03  0.58721997343E+03 -0.67333614455E+03  0.10192595025E+04  0.93403898969E+02 0.  0.
        254    2    1    2    0    0 -0.48161892022E+03 -0.58721997343E+03 -0.94310443518E+03  0.15022046429E+04  0.88903809361E+03 0.  0.
        -24    2    4    4    0    0 -0.64671781043E+03 -0.11970528338E+03 -0.59809781962E+03  0.89246904616E+03  0.78782709573E+02 0.  0.
         24    2    4    4    0    0  0.16509889022E+03 -0.46751469005E+03 -0.34500661556E+03  0.60973559670E+03  0.83188365415E+02 0.  0.
         11    1    3    3    0    0  0.23775362430E+03  0.31565853477E+03 -0.29164226888E+03  0.49114387855E+03  0.00000000000E+00 0.  1.
        -11    1    3    3    0    0  0.24386529592E+03  0.27156143866E+03 -0.38169387567E+03  0.52811562394E+03  0.00000000000E+00 0. -1.
          4    1    6    6  502    0  0.15639182902E+03 -0.37368973111E+03 -0.25055866315E+03  0.47632138625E+03  0.00000000000E+00 0. -1.
          3    1    5    5  503    0 -0.62080526372E+03 -0.12945412813E+03 -0.57999370254E+03  0.85938945871E+03  0.00000000000E+00 0. -1.
         -4    1    5    5    0  503 -0.25912546716E+02  0.97488447470E+01 -0.18104117077E+02  0.33079587458E+02  0.00000000000E+00 0.  1.
         -3    1    6    6    0  502  0.87070611959E+01 -0.93824958937E+02 -0.94447952419E+02  0.13341421045E+03  0.00000000000E+00 0.  1.
<mgrwt>
<rscale>  0 0.19351747E+04</rscale>
<asrwt>0</asrwt>
<pdfrwt beam="1">  1        1 0.31830036E+00 0.19351747E+04</pdfrwt>
<pdfrwt beam="2">  1       -1 0.69617198E-01 0.19351747E+04</pdfrwt>
<totfact> 0.52075684E+00</totfact>
</mgrwt>
</event>
<event>
12    1  0.2211690E-007  0.1732849E+04  0.7818608E-02  0.8742848E-01
         -2   -1    0    0    0  501 -0.00000000000E+00  0.00000000000E+00  0.33693111826E+03  0.33693111826E+03  0.00000000000E+00 0.  1.
          2   -1    0    0  501    0  0.00000000000E+00 -0.00000000000E+00 -0.22280254177E+04  0.22280254177E+04  0.00000000000E+00 0. -1.
         23    2    1    2    0    0  0.42617097174E+02  0.48917546460E+03 -0.15325430916E+03  0.52262775398E+03  0.92433943005E+02 0.  0.
        254    2    1    2    0    0 -0.42617097174E+02 -0.48917546460E+03 -0.17378399903E+04  0.20423287820E+04  0.95389211641E+03 0.  0.
        -24    2    4    4    0    0  0.39471284248E+03 -0.31911437603E+03 -0.12890992064E+04  0.13877959076E+04  0.81046307869E+02 0.  0.
         24    2    4    4    0    0 -0.43732993965E+03 -0.17006108856E+03 -0.44874078391E+03  0.65453287447E+03  0.82865811171E+02 0.  0.
         11    1    3    3    0    0  0.63117137680E+02  0.44120835588E+03 -0.12315283726E+03  0.46240156541E+03  0.00000000000E+00 0. -1.
        -11    1    3    3    0    0 -0.20500040506E+02  0.47967108716E+02 -0.30101471897E+02  0.60226188571E+02  0.00000000000E+00 0.  1.
          4    1    6    6  502    0 -0.39886551924E+03 -0.14698489931E+03 -0.36835876588E+03  0.56248239391E+03  0.00000000000E+00 0. -1.
          3    1    5    5  503    0  0.37409312789E+03 -0.27818468685E+03 -0.12046959071E+04  0.12917525370E+04  0.00000000000E+00 0. -1.
         -4    1    5    5    0  503  0.20619714586E+02 -0.40929689181E+02 -0.84403299361E+02  0.96043370563E+02  0.00000000000E+00 0.  1.
         -3    1    6    6    0  502 -0.38464420413E+02 -0.23076189250E+02 -0.80382018035E+02  0.92050480560E+02  0.00000000000E+00 0.  1.
<mgrwt>
<rscale>  0 0.17328486E+04</rscale>
<asrwt>0</asrwt>
<pdfrwt beam="1">  1        2 0.34277314E+00 0.17328486E+04</pdfrwt>
<pdfrwt beam="2">  1       -2 0.51835557E-01 0.17328486E+04</pdfrwt>
<totfact> 0.16618360E+01</totfact>
</mgrwt>
</event>
<event>
12    1  0.1598876E-007  0.4079247E+04  0.7818608E-02  0.7988748E-01
         -2   -1    0    0    0  501 -0.00000000000E+00  0.00000000000E+00  0.21506077239E+04  0.21506077239E+04  0.00000000000E+00 0.  1.
          2   -1    0    0  501    0  0.00000000000E+00 -0.00000000000E+00 -0.19343670646E+04  0.19343670646E+04  0.00000000000E+00 0. -1.
         23    2    1    2    0    0 -0.18455773307E+04 -0.28325091056E+03 -0.42648699001E+03  0.19173405390E+04  0.88976557941E+02 0.  0.
        254    2    1    2    0    0  0.18455773307E+04  0.28325091056E+03  0.64272764932E+03  0.21676342495E+04  0.89395338050E+03 0.  0.
        -24    2    4    4    0    0  0.24962524485E+03 -0.26525930031E+03  0.18798385141E+03  0.41804299896E+03  0.82138671286E+02 0.  0.
         24    2    4    4    0    0  0.15959520859E+04  0.54851021087E+03  0.45474379791E+03  0.17495912506E+04  0.79693854813E+02 0.  0.
         13    1    3    3    0    0 -0.11287563543E+04 -0.18926334693E+03 -0.21990614368E+03  0.11654485119E+04  0.00000000000E+00 0. -1.
        -13    1    3    3    0    0 -0.71682097647E+03 -0.93987563630E+02 -0.20658084633E+03  0.75189202715E+03  0.00000000000E+00 0.  1.
          4    1    6    6  502    0  0.10302214229E+04  0.37358988214E+03  0.26066530303E+03  0.11264421781E+04  0.00000000000E+00 0. -1.
          1    1    5    5  503    0  0.24281825705E+03 -0.22039602058E+03  0.16209279093E+03  0.36579937768E+03  0.00000000000E+00 0. -1.
         -2    1    5    5    0  503  0.68069878007E+01 -0.44863279728E+02  0.25891060479E+02  0.52243621272E+02  0.00000000000E+00 0.  1.
         -3    1    6    6    0  502  0.56573066296E+03  0.17492032873E+03  0.19407849488E+03  0.62314907252E+03  0.00000000000E+00 0.  1.
<mgrwt>
<rscale>  0 0.40792474E+04</rscale>
<asrwt>0</asrwt>
<pdfrwt beam="1">  1        2 0.29759493E+00 0.40792474E+04</pdfrwt>
<pdfrwt beam="2">  1       -2 0.33086273E+00 0.40792474E+04</pdfrwt>
<totfact> 0.11678249E-01</totfact>
</mgrwt>
</event>
<event>
12    1  0.1598876E-007  0.1301962E+04  0.7818608E-02  0.9028010E-01
         -1   -1    0    0    0  501 -0.00000000000E+00  0.00000000000E+00  0.60698918508E+03  0.60698918508E+03  0.00000000000E+00 0.  1.
          1   -1    0    0  501    0  0.00000000000E+00 -0.00000000000E+00 -0.69816150408E+03  0.69816150408E+03  0.00000000000E+00 0. -1.
         23    2    1    2    0    0 -0.11899844896E+03 -0.23555153020E+03 -0.14314821437E+03  0.31339030052E+03  0.89871658189E+02 0.  0.
        254    2    1    2    0    0  0.11899844896E+03  0.23555153020E+03  0.51975895378E+02  0.99176038864E+03  0.95458997509E+03 0.  0.
        -24    2    4    4    0    0 -0.26650504419E+02 -0.26663206738E+03  0.29803640052E+03  0.40805235884E+03  0.76668916629E+02 0.  0.
         24    2    4    4    0    0  0.14564895338E+03  0.50218359758E+03 -0.24606050514E+03  0.58370802981E+03  0.82263652811E+02 0.  0.
         13    1    3    3    0    0 -0.74343126400E+02 -0.17850940840E+03 -0.14374352898E+03  0.24094545327E+03  0.00000000000E+00 0. -1.
        -13    1    3    3    0    0 -0.44655322563E+02 -0.57042121803E+02  0.59531460657E+00  0.72444847246E+02  0.00000000000E+00 0.  1.
          4    1    6    6  502    0  0.22539555721E+02  0.13471654436E+03 -0.10113404584E+03  0.16995491792E+03  0.00000000000E+00 0. -1.
          3    1    5    5  503    0 -0.11830358992E+02 -0.70374801629E+01  0.37580065345E+02  0.40021804460E+02  0.00000000000E+00 0. -1.
         -4    1    5    5    0  503 -0.14820145427E+02 -0.25959458721E+03  0.26045633518E+03  0.36803055438E+03  0.00000000000E+00 0.  1.
         -3    1    6    6    0  502  0.12310939766E+03  0.36746705321E+03 -0.14492645930E+03  0.41375311189E+03  0.00000000000E+00 0.  1.
<mgrwt>
<rscale>  0 0.13019623E+04</rscale>
<asrwt>0</asrwt>
<pdfrwt beam="1">  1        1 0.10740946E+00 0.13019623E+04</pdfrwt>
<pdfrwt beam="2">  1       -1 0.93382951E-01 0.13019623E+04</pdfrwt>
<totfact> 0.29917601E+01</totfact>
</mgrwt>
</event>
<event>
12    1  0.1598876E-007  0.1637300E+04  0.7818608E-02  0.8797956E-01
          2   -1    0    0  501    0  0.00000000000E+00  0.00000000000E+00  0.45497456732E+03  0.45497456732E+03  0.00000000000E+00 0.  1.
         -2   -1    0    0    0  501 -0.00000000000E+00 -0.00000000000E+00 -0.14730218567E+04  0.14730218567E+04  0.00000000000E+00 0. -1.
         23    2    1    2    0    0  0.22485143157E+03  0.27000073371E+03  0.16596142818E+03  0.40000612546E+03  0.94884889644E+02 0.  0.
        254    2    1    2    0    0 -0.22485143157E+03 -0.27000073371E+03 -0.11840087175E+04  0.15279902985E+04  0.89967724586E+03 0.  0.
        -24    2    4    4    0    0  0.17513861162E+03  0.46231771123E+02 -0.93385768808E+03  0.95441103853E+03  0.77455399708E+02 0.  0.
         24    2    4    4    0    0 -0.39999004319E+03 -0.31623250484E+03 -0.25015102946E+03  0.57357926000E+03  0.80141114264E+02 0.  0.
         11    1    3    3    0    0  0.34193783614E+02  0.65897256584E+02 -0.16759811598E+01  0.74259492160E+02  0.00000000000E+00 0. -1.
        -11    1    3    3    0    0  0.19065764795E+03  0.20410347713E+03  0.16763740934E+03  0.32574663330E+03  0.00000000000E+00 0.  1.
          2    1    6    6  502    0 -0.36829473318E+03 -0.25782643194E+03 -0.22223741955E+03  0.50150269206E+03  0.00000000000E+00 0. -1.
          3    1    5    5  503    0  0.16380412696E+03  0.63858386406E+02 -0.81910766764E+03  0.83776312685E+03  0.00000000000E+00 0. -1.
         -4    1    5    5    0  503  0.11334484668E+02 -0.17626615283E+02 -0.11475002044E+03  0.11664791168E+03  0.00000000000E+00 0.  1.
         -1    1    6    6    0  502 -0.31695310012E+02 -0.58406072898E+02 -0.27913609914E+02  0.72076567944E+02  0.00000000000E+00 0.  1.
<mgrwt>
<rscale>  0 0.16372996E+04</rscale>
<asrwt>0</asrwt>
<pdfrwt beam="1">  1        2 0.69996086E-01 0.16372996E+04</pdfrwt>
<pdfrwt beam="2">  1       -2 0.22661875E+00 0.16372996E+04</pdfrwt>
<totfact> 0.58922144E+00</totfact>
</mgrwt>
</event>
<event>
12    1  0.1598876E-007  0.1296880E+04  0.7818608E-02  0.9032043E-01
         -2   -1    0    0    0  501 -0.00000000000E+00  0.00000000000E+00  0.29669201637E+03  0.29669201637E+03  0.00000000000E+00 0. -1.
          2   -1    0    0  501    0  0.00000000000E+00 -0.00000000000E+00 -0.14172086710E+04  0.14172086710E+04  0.00000000000E+00 0.  1.
         23    2    1    2    0    0 -0.25593930833E+03  0.71525745923E+02 -0.42002547399E+02  0.28366202128E+03  0.89883627269E+02 0.  0.
        254    2    1    2    0    0  0.25593930833E+03 -0.71525745923E+02 -0.10785141073E+04  0.14302386661E+04  0.90098229762E+03 0.  0.
        -24    2    4    4    0    0 -0.73552898430E+02 -0.42665881220E+03 -0.41512232368E+03  0.60496762191E+03  0.78813127364E+02 0.  0.
         24    2    4    4    0    0  0.32949220676E+03  0.35513306628E+03 -0.66339178360E+03  0.82527104423E+03  0.79366421154E+02 0.  0.
         11    1    3    3    0    0 -0.82014722585E+02  0.40984370079E+02 -0.54456004714E+02  0.10663765639E+03  0.00000000000E+00 0.  1.
        -11    1    3    3    0    0 -0.17392458575E+03  0.30541375844E+02  0.12453457315E+02  0.17702436489E+03  0.00000000000E+00 0. -1.
          4    1    6    6  502    0  0.19147862774E+03  0.15176476197E+03 -0.30724788808E+03  0.39255301882E+03  0.00000000000E+00 0. -1.
          3    1    5    5  503    0 -0.52204759066E+02 -0.10430658166E+03 -0.99366436856E+02  0.15322822397E+03  0.00000000000E+00 0. -1.
         -4    1    5    5    0  503 -0.21348139364E+02 -0.32235223054E+03 -0.31575588682E+03  0.45173939794E+03  0.00000000000E+00 0.  1.
         -3    1    6    6    0  502  0.13801357902E+03  0.20336830431E+03 -0.35614389552E+03  0.43271802541E+03  0.00000000000E+00 0.  1.
<mgrwt>
<rscale>  0 0.12968801E+04</rscale>
<asrwt>0</asrwt>
<pdfrwt beam="1">  1        2 0.21803210E+00 0.12968801E+04</pdfrwt>
<pdfrwt beam="2">  1       -2 0.45644925E-01 0.12968801E+04</pdfrwt>
<totfact> 0.63098801E+01</totfact>
</mgrwt>
</event>
<event>
12    1  0.1598876E-007  0.1669961E+04  0.7818608E-02  0.8778684E-01
         -2   -1    0    0    0  501 -0.00000000000E+00  0.00000000000E+00  0.37287783959E+03  0.37287783959E+03  0.00000000000E+00 0.  1.
          2   -1    0    0  501    0  0.00000000000E+00 -0.00000000000E+00 -0.18697617796E+04  0.18697617796E+04  0.00000000000E+00 0. -1.
         23    2    1    2    0    0 -0.29655783721E+03 -0.49011064506E+03 -0.67998834624E+03  0.89479861502E+03  0.10062512215E+03 0.  0.
        254    2    1    2    0    0  0.29655783721E+03  0.49011064506E+03 -0.81689559373E+03  0.13478410041E+04  0.90620194555E+03 0.  0.
        -24    2    4    4    0    0  0.18505378539E+03  0.74533301544E+03 -0.50585287445E+03  0.92299167701E+03  0.79122043948E+02 0.  0.
         24    2    4    4    0    0  0.11150405182E+03 -0.25522237038E+03 -0.31104271929E+03  0.42484932712E+03  0.78598763450E+02 0.  0.
         13    1    3    3    0    0 -0.12023984442E+03 -0.16053918475E+03 -0.17268931415E+03  0.26467347666E+03  0.00000000000E+00 0.  1.
        -13    1    3    3    0    0 -0.17631799279E+03 -0.32957146031E+03 -0.50729903209E+03  0.63012513836E+03  0.00000000000E+00 0. -1.
          2    1    6    6  502    0  0.94108612968E+02 -0.15343134710E+03 -0.15393021558E+03  0.23683775158E+03  0.00000000000E+00 0. -1.
          3    1    5    5  503    0  0.15282012594E+03  0.46083172719E+03 -0.32821647141E+03  0.58604259553E+03  0.00000000000E+00 0. -1.
         -4    1    5    5    0  503  0.32233659449E+02  0.28450128826E+03 -0.17763640304E+03  0.33694908147E+03  0.00000000000E+00 0.  1.
         -1    1    6    6    0  502  0.17395438855E+02 -0.10179102329E+03 -0.15711250371E+03  0.18801157554E+03  0.00000000000E+00 0.  1.
<mgrwt>
<rscale>  0 0.16699614E+04</rscale>
<asrwt>0</asrwt>
<pdfrwt beam="1">  1        2 0.28765565E+00 0.16699614E+04</pdfrwt>
<pdfrwt beam="2">  1       -2 0.57365822E-01 0.16699614E+04</pdfrwt>
<totfact> 0.21431173E+01</totfact>
</mgrwt>
</event>
<event>
12    1  0.1598876E-007  0.1690991E+04  0.7818608E-02  0.8766519E-01
          2   -1    0    0  501    0  0.00000000000E+00  0.00000000000E+00  0.10402189243E+04  0.10402189243E+04  0.00000000000E+00 0. -1.
         -2   -1    0    0    0  501 -0.00000000000E+00 -0.00000000000E+00 -0.68722361625E+03  0.68722361625E+03  0.00000000000E+00 0.  1.
         23    2    1    2    0    0 -0.29116223022E+03 -0.17209419215E+03 -0.39029424697E+03  0.52371729164E+03  0.86938754684E+02 0.  0.
        254    2    1    2    0    0  0.29116223022E+03  0.17209419215E+03  0.74328955502E+03  0.12037252489E+04  0.88435471221E+03 0.  0.
        -24    2    4    4    0    0 -0.12227915770E+03 -0.70428330455E+02 -0.12762174844E+03  0.20641789837E+03  0.80054331257E+02 0.  0.
         24    2    4    4    0    0  0.41344138792E+03  0.24252252261E+03  0.87091130346E+03  0.99730735055E+03  0.79903052184E+02 0.  0.
         11    1    3    3    0    0 -0.14734540733E+03 -0.13454526794E+03 -0.20348890567E+03  0.28499268924E+03  0.00000000000E+00 0.  1.
        -11    1    3    3    0    0 -0.14381682289E+03 -0.37548924211E+02 -0.18680534129E+03  0.23872460240E+03  0.00000000000E+00 0. -1.
          2    1    6    6  502    0  0.16475616923E+03  0.12739821800E+03  0.31666844463E+03  0.37901689286E+03  0.00000000000E+00 0. -1.
          1    1    5    5  503    0 -0.51211666127E+02 -0.65531287793E+02 -0.36680832246E+02  0.90898118141E+02  0.00000000000E+00 0. -1.
         -2    1    5    5    0  503 -0.71067491571E+02 -0.48970426625E+01 -0.90940916196E+02  0.11551978023E+03  0.00000000000E+00 0.  1.
         -1    1    6    6    0  502  0.24868521869E+03  0.11512430461E+03  0.55424285883E+03  0.61829045769E+03  0.00000000000E+00 0.  1.
<mgrwt>
<rscale>  0 0.16909914E+04</rscale>
<asrwt>0</asrwt>
<pdfrwt beam="1">  1        2 0.16003368E+00 0.16909914E+04</pdfrwt>
<pdfrwt beam="2">  1       -2 0.10572671E+00 0.16909914E+04</pdfrwt>
<totfact> 0.16348882E+01</totfact>
</mgrwt>
</event>
<event>
12    1  0.1598876E-007  0.2032482E+04  0.7818608E-02  0.8591583E-01
         -1   -1    0    0    0  501 -0.00000000000E+00  0.00000000000E+00  0.16867145826E+04  0.16867145826E+04  0.00000000000E+00 0.  1.
          1   -1    0    0  501    0  0.00000000000E+00 -0.00000000000E+00 -0.61228221741E+03  0.61228221741E+03  0.00000000000E+00 0. -1.
         23    2    1    2    0    0  0.23724527605E+03  0.19256499539E+03  0.12776358872E+04  0.13170721000E+04  0.94651242490E+02 0.  0.
        254    2    1    2    0    0 -0.23724527605E+03 -0.19256499539E+03 -0.20320352201E+03  0.98192470007E+03  0.91077870352E+03 0.  0.
        -24    2    4    4    0    0 -0.18702726888E+03  0.10021250747E+03 -0.50392365686E+03  0.55259425450E+03  0.79997576248E+02 0.  0.
         24    2    4    4    0    0 -0.50218007177E+02 -0.29277750285E+03  0.30072013485E+03  0.42933044557E+03  0.75176575928E+02 0.  0.
         13    1    3    3    0    0 -0.43566180983E+01  0.27985766390E+01  0.31053446397E+01  0.60378239283E+01  0.00000000000E+00 0. -1.
        -13    1    3    3    0    0  0.24160189415E+03  0.18976641875E+03  0.12745305426E+04  0.13110342760E+04  0.00000000000E+00 0.  1.
          4    1    6    6  502    0  0.24113617253E+01 -0.17261001666E+03  0.19819184254E+03  0.26283081814E+03  0.00000000000E+00 0. -1.
          1    1    5    5  503    0 -0.18478479391E+03  0.85631702342E+02 -0.49522587017E+03  0.53546883289E+03  0.00000000000E+00 0. -1.
         -2    1    5    5    0  503 -0.22424749655E+01  0.14580805125E+02 -0.86977866871E+01  0.17125421610E+02  0.00000000000E+00 0.  1.
         -3    1    6    6    0  502 -0.52629368902E+02 -0.12016748620E+03  0.10252829230E+03  0.16649962742E+03  0.00000000000E+00 0.  1.
<mgrwt>
<rscale>  0 0.20324816E+04</rscale>
<asrwt>0</asrwt>
<pdfrwt beam="1">  1        1 0.94197265E-01 0.20324816E+04</pdfrwt>
<pdfrwt beam="2">  1       -1 0.25949455E+00 0.20324816E+04</pdfrwt>
<totfact> 0.18599695E+00</totfact>
</mgrwt>
</event>
<event>
12    1  0.1771789E-007  0.1750130E+04  0.7818608E-02  0.8733279E-01
         -2   -1    0    0    0  501 -0.00000000000E+00  0.00000000000E+00  0.39894809126E+03  0.39894809126E+03  0.00000000000E+00 0.  1.
          2   -1    0    0  501    0  0.00000000000E+00 -0.00000000000E+00 -0.19193937149E+04  0.19193937149E+04  0.00000000000E+00 0. -1.
         23    2    1    2    0    0 -0.15659605812E+03 -0.29927691706E+03 -0.12686738024E+04  0.13146501542E+04  0.68431079176E+02 0.  0.
        254    2    1    2    0    0  0.15659605812E+03  0.29927691706E+03 -0.25177182119E+03  0.10036916519E+04  0.91099883844E+03 0.  0.
        -24    2    4    4    0    0 -0.23684392853E+03 -0.27548693187E+02  0.19646222733E+03  0.31896951604E+03  0.79310581995E+02 0.  0.
         24    2    4    4    0    0  0.39343998665E+03  0.32682561025E+03 -0.44823404853E+03  0.68472213585E+03  0.79502443111E+02 0.  0.
         13    1    3    3    0    0  0.51070555708E+00 -0.20319228409E+01 -0.61391428007E+02  0.61427167958E+02  0.00000000000E+00 0.  1.
        -13    1    3    3    0    0 -0.15710676367E+03 -0.29724499422E+03 -0.12072823744E+04  0.12532229863E+04  0.00000000000E+00 0. -1.
          4    1    6    6  502    0  0.29278307593E+03  0.25668330578E+03 -0.29542991824E+03  0.48876076522E+03  0.00000000000E+00 0. -1.
          3    1    5    5  503    0 -0.20632902656E+03 -0.46196483494E+02  0.14530852487E+03  0.25655476937E+03  0.00000000000E+00 0. -1.
         -4    1    5    5    0  503 -0.30514901967E+02  0.18647790308E+02  0.51153702465E+02  0.62414746665E+02  0.00000000000E+00 0.  1.
         -3    1    6    6    0  502  0.10065691071E+03  0.70142304467E+02 -0.15280413029E+03  0.19596137064E+03  0.00000000000E+00 0.  1.
<mgrwt>
<rscale>  0 0.17501297E+04</rscale>
<asrwt>0</asrwt>
<pdfrwt beam="1">  1        2 0.29529134E+00 0.17501297E+04</pdfrwt>
<pdfrwt beam="2">  1       -2 0.61376629E-01 0.17501297E+04</pdfrwt>
<totfact> 0.17328448E+01</totfact>
</mgrwt>
</event>
<event>
12    1  0.1598876E-007  0.1315378E+04  0.7818608E-02  0.9017458E-01
          2   -1    0    0  501    0  0.00000000000E+00  0.00000000000E+00  0.22167021793E+04  0.22167021793E+04  0.00000000000E+00 0. -1.
         -2   -1    0    0    0  501 -0.00000000000E+00 -0.00000000000E+00 -0.19513447327E+03  0.19513447327E+03  0.00000000000E+00 0.  1.
         23    2    1    2    0    0  0.32886344166E+03 -0.57960011244E+02  0.63064343460E+03  0.71943007933E+03  0.91421940901E+02 0.  0.
        254    2    1    2    0    0 -0.32886344166E+03  0.57960011244E+02  0.13909242714E+04  0.16924065732E+04  0.90446622610E+03 0.  0.
        -24    2    4    4    0    0  0.14159059832E+03 -0.55443049341E+02 -0.44993711966E+02  0.17500832310E+03  0.74038164379E+02 0.  0.
         24    2    4    4    0    0 -0.47045403997E+03  0.11340306058E+03  0.14359179834E+04  0.15173982501E+04  0.80310252446E+02 0.  0.
         13    1    3    3    0    0  0.32840139043E+03 -0.66867690763E+02  0.62401439189E+03  0.70831682360E+03  0.00000000000E+00 0.  1.
        -13    1    3    3    0    0  0.46205122760E+00  0.89076795191E+01  0.66290427126E+01  0.11113255735E+02  0.00000000000E+00 0. -1.
          4    1    6    6  502    0 -0.46699944703E+03  0.11860093700E+03  0.14291784295E+04  0.15082127334E+04  0.00000000000E+00 0. -1.
          3    1    5    5  503    0  0.10372169517E+03 -0.66068105839E+02 -0.11798266783E+02  0.12354102054E+03  0.00000000000E+00 0. -1.
         -4    1    5    5    0  503  0.37868903148E+02  0.10625056498E+02 -0.33195445183E+02  0.51467302553E+02  0.00000000000E+00 0.  1.
         -3    1    6    6    0  502 -0.34545929432E+01 -0.51978764149E+01  0.67395538920E+01  0.91855167678E+01  0.00000000000E+00 0.  1.
<mgrwt>
<rscale>  0 0.13153783E+04</rscale>
<asrwt>0</asrwt>
<pdfrwt beam="1">  1        2 0.34103109E+00 0.13153783E+04</pdfrwt>
<pdfrwt beam="2">  1       -2 0.30020690E-01 0.13153783E+04</pdfrwt>
<totfact> 0.50779180E+01</totfact>
</mgrwt>
</event>
<event>
12    1  0.1598876E-007  0.3066531E+04  0.7818608E-02  0.8224984E-01
         -2   -1    0    0    0  501 -0.00000000000E+00  0.00000000000E+00  0.10465657136E+04  0.10465657136E+04  0.00000000000E+00 0. -1.
          2   -1    0    0  501    0  0.00000000000E+00 -0.00000000000E+00 -0.22463024801E+04  0.22463024801E+04  0.00000000000E+00 0.  1.
         23    2    1    2    0    0  0.48162287177E+03  0.39407732613E+03 -0.18947594463E+04  0.19964212760E+04  0.91252519242E+02 0.  0.
        254    2    1    2    0    0 -0.48162287177E+03 -0.39407732613E+03  0.69502267979E+03  0.12964469178E+04  0.90025582789E+03 0.  0.
        -24    2    4    4    0    0  0.21552072468E+03 -0.30825338841E+02 -0.17505360052E+02  0.23243655582E+03  0.79504280176E+02 0.  0.
         24    2    4    4    0    0 -0.69714359645E+03 -0.36325198728E+03  0.71252803984E+03  0.10640103620E+04  0.80378121988E+02 0.  0.
         13    1    3    3    0    0  0.46636993427E+03  0.37181428178E+03 -0.17415690134E+04  0.18408719141E+04  0.00000000000E+00 0.  1.
        -13    1    3    3    0    0  0.15252937497E+02  0.22263044342E+02 -0.15319043290E+03  0.15554936187E+03  0.00000000000E+00 0. -1.
          4    1    6    6  502    0 -0.37994361813E+03 -0.19877997346E+03  0.33444704315E+03  0.54380645038E+03  0.00000000000E+00 0. -1.
          3    1    5    5  503    0  0.20535398708E+03 -0.17735935078E+02  0.29118986783E+01  0.20613903695E+03  0.00000000000E+00 0. -1.
         -4    1    5    5    0  503  0.10166737609E+02 -0.13089403763E+02 -0.20417258730E+02  0.26297518866E+02  0.00000000000E+00 0.  1.
         -3    1    6    6    0  502 -0.31719997832E+03 -0.16447201383E+03  0.37808099669E+03  0.52020391159E+03  0.00000000000E+00 0.  1.
<mgrwt>
<rscale>  0 0.30665310E+04</rscale>
<asrwt>0</asrwt>
<pdfrwt beam="1">  1        2 0.34558500E+00 0.30665310E+04</pdfrwt>
<pdfrwt beam="2">  1       -2 0.16101011E+00 0.30665310E+04</pdfrwt>
<totfact> 0.10249602E+00</totfact>
</mgrwt>
</event>
<event>
12    1  0.1598876E-007  0.4061318E+04  0.7818608E-02  0.7992290E-01
         -2   -1    0    0    0  501 -0.00000000000E+00  0.00000000000E+00  0.25591078482E+04  0.25591078482E+04  0.00000000000E+00 0. -1.
          2   -1    0    0  501    0  0.00000000000E+00 -0.00000000000E+00 -0.16113330588E+04  0.16113330588E+04  0.00000000000E+00 0.  1.
         23    2    1    2    0    0  0.74554619220E+03  0.73071643355E+03 -0.12281353090E+04  0.16143946687E+04  0.90377974349E+02 0.  0.
        254    2    1    2    0    0 -0.74554619220E+03 -0.73071643355E+03  0.21759100985E+04  0.25560462383E+04  0.84202255589E+03 0.  0.
        -24    2    4    4    0    0  0.10173350672E+02 -0.47916503563E+03  0.11935059160E+04  0.12886067828E+04  0.79677101536E+02 0.  0.
         24    2    4    4    0    0 -0.75571954287E+03 -0.25155139792E+03  0.98240418244E+03  0.12674394555E+04  0.83034104350E+02 0.  0.
         11    1    3    3    0    0  0.22372164485E+03  0.24855231245E+03 -0.45071982138E+03  0.56122899407E+03  0.00000000000E+00 0. -1.
        -11    1    3    3    0    0  0.52182454734E+03  0.48216412110E+03 -0.77741548760E+03  0.10531656746E+04  0.00000000000E+00 0.  1.
          2    1    6    6  502    0 -0.68793241246E+03 -0.20859972201E+03  0.85726715351E+03  0.11187813998E+04  0.00000000000E+00 0. -1.
          3    1    5    5  503    0 -0.92372302071E+00 -0.43057161048E+03  0.99946222106E+03  0.10882635234E+04  0.00000000000E+00 0. -1.
         -4    1    5    5    0  503  0.11097073692E+02 -0.48593425156E+02  0.19404369498E+03  0.20034325937E+03  0.00000000000E+00 0.  1.
         -1    1    6    6    0  502 -0.67787130413E+02 -0.42951675909E+02  0.12513702893E+03  0.14865805569E+03  0.00000000000E+00 0.  1.
<mgrwt>
<rscale>  0 0.40613176E+04</rscale>
<asrwt>0</asrwt>
<pdfrwt beam="1">  1        2 0.24789739E+00 0.40613176E+04</pdfrwt>
<pdfrwt beam="2">  1       -2 0.39370890E+00 0.40613176E+04</pdfrwt>
<totfact> 0.70358893E-02</totfact>
</mgrwt>
</event>
<event>
12    1  0.1598876E-007  0.1578049E+04  0.7818608E-02  0.8834148E-01
          2   -1    0    0  501    0  0.00000000000E+00  0.00000000000E+00  0.19058651429E+04  0.19058651429E+04  0.00000000000E+00 0. -1.
         -2   -1    0    0    0  501 -0.00000000000E+00 -0.00000000000E+00 -0.32665464994E+03  0.32665464994E+03  0.00000000000E+00 0.  1.
         23    2    1    2    0    0  0.31644571760E+03  0.10985410687E+02 -0.82086838470E+02  0.34096694915E+03  0.96237414378E+02 0.  0.
        254    2    1    2    0    0 -0.31644571760E+03 -0.10985410687E+02  0.16612973314E+04  0.18915528437E+04  0.84723359568E+03 0.  0.
        -24    2    4    4    0    0  0.65005398018E+02  0.15083819600E+03  0.58296271638E+01  0.18311396477E+03  0.80739559038E+02 0.  0.
         24    2    4    4    0    0 -0.38145111562E+03 -0.16182360669E+03  0.16554677042E+04  0.17084388789E+04  0.80611723081E+02 0.  0.
         13    1    3    3    0    0  0.21318297263E+03 -0.52895664743E+01 -0.90460282602E+01  0.21344036629E+03  0.00000000000E+00 0. -1.
        -13    1    3    3    0    0  0.10326274496E+03  0.16274977162E+02 -0.73040810209E+02  0.12752658286E+03  0.00000000000E+00 0.  1.
          2    1    6    6  502    0  0.94832638186E+00  0.47879452768E+01  0.24101864826E+02  0.24591129112E+02  0.00000000000E+00 0. -1.
          1    1    5    5  503    0 -0.17290306866E+02  0.37304855529E+02 -0.90588408326E+01  0.42103082486E+02  0.00000000000E+00 0. -1.
         -2    1    5    5    0  503  0.82295704884E+02  0.11353334048E+03  0.14888467996E+02  0.14101088228E+03  0.00000000000E+00 0.  1.
         -1    1    6    6    0  502 -0.38239944200E+03 -0.16661155197E+03  0.16313658394E+04  0.16838477498E+04  0.00000000000E+00 0.  1.
<mgrwt>
<rscale>  0 0.15780491E+04</rscale>
<asrwt>0</asrwt>
<pdfrwt beam="1">  1        2 0.29321002E+00 0.15780491E+04</pdfrwt>
<pdfrwt beam="2">  1       -2 0.50254563E-01 0.15780491E+04</pdfrwt>
<totfact> 0.27114481E+01</totfact>
</mgrwt>
</event>
<event>
12    1  0.1598876E-007  0.1936273E+04  0.7818608E-02  0.8637009E-01
         -1   -1    0    0    0  501 -0.00000000000E+00  0.00000000000E+00  0.12643545427E+04  0.12643545427E+04  0.00000000000E+00 0.  1.
          1   -1    0    0  501    0  0.00000000000E+00 -0.00000000000E+00 -0.74131738847E+03  0.74131738847E+03  0.00000000000E+00 0. -1.
         23    2    1    2    0    0  0.17439280088E+03 -0.28162266986E+03 -0.49681080069E+03  0.60417528498E+03  0.92101173265E+02 0.  0.
        254    2    1    2    0    0 -0.17439280088E+03  0.28162266986E+03  0.10198479549E+04  0.14014966462E+04  0.90242939943E+03 0.  0.
        -24    2    4    4    0    0 -0.45666638557E+03  0.26553162335E+03  0.96429721270E+03  0.11023462154E+04  0.79036911509E+02 0.  0.
         24    2    4    4    0    0  0.28227358469E+03  0.16091046505E+02  0.55550742233E+02  0.29915043085E+03  0.80422614492E+02 0.  0.
         11    1    3    3    0    0  0.17569008360E+03 -0.27849310135E+03 -0.50053971902E+03  0.59913723243E+03  0.00000000000E+00 0. -1.
        -11    1    3    3    0    0 -0.12972827225E+01 -0.31295685082E+01  0.37289183277E+01  0.50380525408E+01  0.00000000000E+00 0.  1.
          2    1    6    6  502    0  0.24139998340E+03  0.34313481627E+02  0.67180777345E+02  0.25291228490E+03  0.00000000000E+00 0. -1.
          3    1    5    5  503    0 -0.31270036867E+03  0.13800010183E+03  0.61964326131E+03  0.70766045528E+03  0.00000000000E+00 0. -1.
         -4    1    5    5    0  503 -0.14396601690E+03  0.12753152152E+03  0.34465395139E+03  0.39468576008E+03  0.00000000000E+00 0.  1.
         -1    1    6    6    0  502  0.40873601291E+02 -0.18222435122E+02 -0.11630035112E+02  0.46238145951E+02  0.00000000000E+00 0.  1.
<mgrwt>
<rscale>  0 0.19362727E+04</rscale>
<asrwt>0</asrwt>
<pdfrwt beam="1">  1        1 0.11404883E+00 0.19362727E+04</pdfrwt>
<pdfrwt beam="2">  1       -1 0.19451608E+00 0.19362727E+04</pdfrwt>
<totfact> 0.38215124E+00</totfact>
</mgrwt>
</event>
<event>
12    1  0.1598876E-007  0.2112019E+04  0.7818608E-02  0.8555968E-01
         -1   -1    0    0    0  501 -0.00000000000E+00  0.00000000000E+00  0.10633846014E+04  0.10633846014E+04  0.00000000000E+00 0.  1.
          1   -1    0    0  501    0  0.00000000000E+00 -0.00000000000E+00 -0.10486850601E+04  0.10486850601E+04  0.00000000000E+00 0. -1.
         23    2    1    2    0    0 -0.34133847172E+03  0.68060948342E+03 -0.40348079466E+03  0.86451262716E+03  0.69599638307E+02 0.  0.
        254    2    1    2    0    0  0.34133847172E+03 -0.68060948342E+03  0.41818033593E+03  0.12475570344E+04  0.89542310640E+03 0.  0.
        -24    2    4    4    0    0  0.11728837751E+03 -0.51808146985E+03  0.67421686226E+03  0.86219673416E+03  0.81546662308E+02 0.  0.
         24    2    4    4    0    0  0.22405009421E+03 -0.16252801357E+03 -0.25603652633E+03  0.38536030022E+03  0.79586797016E+02 0.  0.
         13    1    3    3    0    0 -0.18881401281E+02  0.30490428321E+02 -0.38818687408E+01  0.36072738162E+02  0.00000000000E+00 0.  1.
        -13    1    3    3    0    0 -0.32245707044E+03  0.65011905510E+03 -0.39959892592E+03  0.82843988900E+03  0.00000000000E+00 0. -1.
          4    1    6    6  502    0  0.96197589403E+01 -0.20278204335E+02 -0.53081702938E+02  0.57631697181E+02  0.00000000000E+00 0. -1.
          1    1    5    5  503    0  0.93218680087E+02 -0.24518224504E+03  0.30162083377E+03  0.39972388341E+03  0.00000000000E+00 0. -1.
         -2    1    5    5    0  503  0.24069697420E+02 -0.27289922481E+03  0.37259602849E+03  0.46247285075E+03  0.00000000000E+00 0.  1.
         -3    1    6    6    0  502  0.21443033527E+03 -0.14224980924E+03 -0.20295482339E+03  0.32772860304E+03  0.00000000000E+00 0.  1.
<mgrwt>
<rscale>  0 0.21120185E+04</rscale>
<asrwt>0</asrwt>
<pdfrwt beam="1">  1        1 0.16133616E+00 0.21120185E+04</pdfrwt>
<pdfrwt beam="2">  1       -1 0.16359763E+00 0.21120185E+04</pdfrwt>
<totfact> 0.34989382E+00</totfact>
</mgrwt>
</event>
<event>
12    1  0.1598876E-007  0.2404193E+04  0.7818608E-02  0.8437936E-01
          2   -1    0    0  501    0  0.00000000000E+00  0.00000000000E+00  0.29537478290E+04  0.29537478290E+04  0.00000000000E+00 0. -1.
         -2   -1    0    0    0  501 -0.00000000000E+00 -0.00000000000E+00 -0.48922102583E+03  0.48922102583E+03  0.00000000000E+00 0.  1.
         23    2    1    2    0    0  0.13117988872E+03 -0.34306313204E+03 -0.31738361397E+03  0.49396026670E+03  0.91454419699E+02 0.  0.
        254    2    1    2    0    0 -0.13117988872E+03  0.34306313204E+03  0.27819104171E+04  0.29490085881E+04  0.90704223057E+03 0.  0.
        -24    2    4    4    0    0 -0.19168602276E+03  0.47804318503E+03  0.27203124629E+04  0.27698209550E+04  0.80866612188E+02 0.  0.
         24    2    4    4    0    0  0.60506134042E+02 -0.13498005299E+03  0.61597954223E+02  0.17918763309E+03  0.80207810873E+02 0.  0.
         13    1    3    3    0    0  0.10577302396E+02  0.33306441457E+01 -0.14658191054E+02  0.18380290569E+02  0.00000000000E+00 0. -1.
        -13    1    3    3    0    0  0.12060258632E+03 -0.34639377619E+03 -0.30272542292E+03  0.47557997613E+03  0.00000000000E+00 0.  1.
          4    1    6    6  502    0  0.10363382946E+02 -0.10852643229E+03  0.55011806160E+02  0.12211341052E+03  0.00000000000E+00 0. -1.
          1    1    5    5  503    0 -0.14173607467E+03  0.42534657250E+03  0.23018458730E+04  0.23451019689E+04  0.00000000000E+00 0. -1.
         -2    1    5    5    0  503 -0.49949948089E+02  0.52696612537E+02  0.41846658990E+03  0.42471898609E+03  0.00000000000E+00 0.  1.
         -3    1    6    6    0  502  0.50142751096E+02 -0.26453620703E+02  0.65861480631E+01  0.57074222571E+02  0.00000000000E+00 0.  1.
<mgrwt>
<rscale>  0 0.24041926E+04</rscale>
<asrwt>0</asrwt>
<pdfrwt beam="1">  1        2 0.45442273E+00 0.24041926E+04</pdfrwt>
<pdfrwt beam="2">  1       -2 0.75264775E-01 0.24041926E+04</pdfrwt>
<totfact> 0.26513159E+00</totfact>
</mgrwt>
</event>
<event>
12    1  0.1598876E-007  0.1387328E+04  0.7818608E-02  0.8963043E-01
         -1   -1    0    0    0  501 -0.00000000000E+00  0.00000000000E+00  0.37292903023E+03  0.37292903023E+03  0.00000000000E+00 0.  1.
          1   -1    0    0  501    0  0.00000000000E+00 -0.00000000000E+00 -0.12902444310E+04  0.12902444310E+04  0.00000000000E+00 0. -1.
         23    2    1    2    0    0  0.38046684977E+03  0.66893316832E+02 -0.17077373654E+03  0.43207904360E+03  0.91098250360E+02 0.  0.
        254    2    1    2    0    0 -0.38046684977E+03 -0.66893316832E+02 -0.74654166426E+03  0.12310944176E+04  0.89946610224E+03 0.  0.
        -24    2    4    4    0    0  0.22792366071E+03  0.29625258804E+02  0.17581182400E+02  0.24549495344E+03  0.84450122080E+02 0.  0.
         24    2    4    4    0    0 -0.60839051048E+03 -0.96518575637E+02 -0.76412284666E+03  0.98559946421E+03  0.89820545385E+02 0.  0.
         11    1    3    3    0    0  0.16904583826E+03  0.57083185224E+02 -0.38605297559E+02  0.18255233350E+03  0.00000000000E+00 0.  1.
        -11    1    3    3    0    0  0.21142101151E+03  0.98101316083E+01 -0.13216843898E+03  0.24952671010E+03  0.00000000000E+00 0. -1.
          4    1    6    6  502    0 -0.48558079526E+03 -0.69698709167E+02 -0.66018279777E+03  0.82248887242E+03  0.00000000000E+00 0. -1.
          3    1    5    5  503    0  0.17489921482E+03  0.35869829338E+02  0.46882154203E+02  0.18459229774E+03  0.00000000000E+00 0. -1.
         -4    1    5    5    0  503  0.53024445895E+02 -0.62445705339E+01 -0.29300971802E+02  0.60902655708E+02  0.00000000000E+00 0.  1.
         -3    1    6    6    0  502 -0.12280971522E+03 -0.26819866469E+02 -0.10394004889E+03  0.16311059179E+03  0.00000000000E+00 0.  1.
<mgrwt>
<rscale>  0 0.13873278E+04</rscale>
<asrwt>0</asrwt>
<pdfrwt beam="1">  1        1 0.19849914E+00 0.13873278E+04</pdfrwt>
<pdfrwt beam="2">  1       -1 0.57373697E-01 0.13873278E+04</pdfrwt>
<totfact> 0.27600136E+01</totfact>
</mgrwt>
</event>
<event>
12    1  0.1598876E-007  0.1223065E+04  0.7818608E-02  0.9092904E-01
          1   -1    0    0  501    0  0.00000000000E+00  0.00000000000E+00  0.12647212606E+04  0.12647212606E+04  0.00000000000E+00 0. -1.
         -1   -1    0    0    0  501 -0.00000000000E+00 -0.00000000000E+00 -0.29569508615E+03  0.29569508615E+03  0.00000000000E+00 0.  1.
         23    2    1    2    0    0 -0.12445318292E+02  0.15825475843E+03  0.46647300274E+03  0.50111780417E+03  0.91227939024E+02 0.  0.
        254    2    1    2    0    0  0.12445318292E+02 -0.15825475843E+03  0.50255317175E+03  0.10592985426E+04  0.91888751077E+03 0.  0.
        -24    2    4    4    0    0  0.25042552023E+03  0.18905389309E+03  0.53943213092E+03  0.62903866868E+03  0.79046234260E+02 0.  0.
         24    2    4    4    0    0 -0.23798020194E+03 -0.34730865152E+03 -0.36878959171E+02  0.43025987394E+03  0.80657458140E+02 0.  0.
         13    1    3    3    0    0 -0.33892821101E+02  0.38535627813E+02  0.22458007290E+03  0.23036911051E+03  0.00000000000E+00 0. -1.
        -13    1    3    3    0    0  0.21447502809E+02  0.11971913062E+03  0.24189292983E+03  0.27074869365E+03  0.00000000000E+00 0.  1.
          2    1    6    6  502    0 -0.92188851878E+02 -0.87539629608E+02 -0.36896049622E+02  0.13237556285E+03  0.00000000000E+00 0. -1.
          3    1    5    5  503    0  0.18109789517E+03  0.89402723017E+02  0.34804726109E+03  0.40240053488E+03  0.00000000000E+00 0. -1.
         -4    1    5    5    0  503  0.69327625065E+02  0.99651170077E+02  0.19138486983E+03  0.22663813381E+03  0.00000000000E+00 0.  1.
         -1    1    6    6    0  502 -0.14579135006E+03 -0.25976902192E+03  0.17090450951E-01  0.29788431109E+03  0.00000000000E+00 0.  1.
<mgrwt>
<rscale>  0 0.12230648E+04</rscale>
<asrwt>0</asrwt>
<pdfrwt beam="1">  1        1 0.19457250E+00 0.12230648E+04</pdfrwt>
<pdfrwt beam="2">  1       -1 0.45491552E-01 0.12230648E+04</pdfrwt>
<totfact> 0.45452511E+01</totfact>
</mgrwt>
</event>
<event>
12    1  0.1598876E-007  0.1048157E+04  0.7818608E-02  0.9257249E-01
         -1   -1    0    0    0  501 -0.00000000000E+00  0.00000000000E+00  0.14504077761E+03  0.14504077761E+03  0.00000000000E+00 0.  1.
          1   -1    0    0  501    0  0.00000000000E+00 -0.00000000000E+00 -0.18936631027E+04  0.18936631027E+04  0.00000000000E+00 0. -1.
         23    2    1    2    0    0 -0.42230068244E+02  0.81523665140E+02 -0.35317451897E+03  0.37454174813E+03  0.84378869409E+02 0.  0.
        254    2    1    2    0    0  0.42230068244E+02 -0.81523665140E+02 -0.13954478061E+04  0.16641621321E+04  0.90207069342E+03 0.  0.
        -24    2    4    4    0    0 -0.59130491415E+01 -0.37954139932E+03 -0.21752519772E+03  0.44556516145E+03  0.84406537097E+02 0.  0.
         24    2    4    4    0    0  0.48143117386E+02  0.29801773418E+03 -0.11779226084E+04  0.12185969707E+04  0.79652847199E+02 0.  0.
         13    1    3    3    0    0 -0.20873687154E+01  0.62583313371E+02 -0.10362148842E+03  0.12107204914E+03  0.00000000000E+00 0. -1.
        -13    1    3    3    0    0 -0.40142699529E+02  0.18940351769E+02 -0.24955303055E+03  0.25346969899E+03  0.00000000000E+00 0.  1.
          2    1    6    6  502    0  0.12354643803E+02  0.22250401931E+03 -0.95145166044E+03  0.97720056180E+03  0.00000000000E+00 0. -1.
          1    1    5    5  503    0  0.32225906885E+02 -0.17927912483E+03 -0.12959103841E+03  0.22354720063E+03  0.00000000000E+00 0. -1.
         -2    1    5    5    0  503 -0.38138956027E+02 -0.20026227450E+03 -0.87934159308E+02  0.22201796082E+03  0.00000000000E+00 0.  1.
         -1    1    6    6    0  502  0.35788473583E+02  0.75513714874E+02 -0.22647094791E+03  0.24139640889E+03  0.00000000000E+00 0.  1.
<mgrwt>
<rscale>  0 0.10481572E+04</rscale>
<asrwt>0</asrwt>
<pdfrwt beam="1">  1        1 0.29133278E+00 0.10481572E+04</pdfrwt>
<pdfrwt beam="2">  1       -1 0.22313966E-01 0.10481572E+04</pdfrwt>
<totfact> 0.59984594E+01</totfact>
</mgrwt>
</event>
<event>
12    1  0.1598876E-007  0.2144491E+04  0.7818608E-02  0.8541894E-01
         -1   -1    0    0    0  501 -0.00000000000E+00  0.00000000000E+00  0.68009852951E+03  0.68009852951E+03  0.00000000000E+00 0.  1.
          1   -1    0    0  501    0  0.00000000000E+00 -0.00000000000E+00 -0.16905052349E+04  0.16905052349E+04  0.00000000000E+00 0. -1.
         23    2    1    2    0    0 -0.36309078395E+03  0.62705324483E+03 -0.96902658384E+03  0.12134940966E+04  0.92329372791E+02 0.  0.
        254    2    1    2    0    0  0.36309078395E+03 -0.62705324483E+03 -0.41380121583E+02  0.11571096678E+04  0.90119907882E+03 0.  0.
        -24    2    4    4    0    0  0.24062964368E+03 -0.46748646467E+03 -0.44902008346E+03  0.69568319741E+03  0.76875586057E+02 0.  0.
         24    2    4    4    0    0  0.12246114027E+03 -0.15956678016E+03  0.40763996188E+03  0.46142647042E+03  0.79282790528E+02 0.  0.
         13    1    3    3    0    0 -0.31059531468E+03  0.47349910616E+03 -0.71544393693E+03  0.91243130148E+03  0.00000000000E+00 0. -1.
        -13    1    3    3    0    0 -0.52495469269E+02  0.15355413867E+03 -0.25358264691E+03  0.30106279513E+03  0.00000000000E+00 0.  1.
          4    1    6    6  502    0 -0.40456760404E+01  0.62522030072E+01  0.17940021601E+02  0.19424260915E+02  0.00000000000E+00 0. -1.
          3    1    5    5  503    0  0.18155768676E+03 -0.27192753611E+03 -0.26919209352E+03  0.42352350788E+03  0.00000000000E+00 0. -1.
         -4    1    5    5    0  503  0.59071956925E+02 -0.19555892856E+03 -0.17982798994E+03  0.27215968952E+03  0.00000000000E+00 0.  1.
         -3    1    6    6    0  502  0.12650681631E+03 -0.16581898317E+03  0.38969994028E+03  0.44200220950E+03  0.00000000000E+00 0.  1.
<mgrwt>
<rscale>  0 0.21444907E+04</rscale>
<asrwt>0</asrwt>
<pdfrwt beam="1">  1        1 0.26007772E+00 0.21444907E+04</pdfrwt>
<pdfrwt beam="2">  1       -1 0.10463054E+00 0.21444907E+04</pdfrwt>
<totfact> 0.38039864E+00</totfact>
</mgrwt>
</event>
<event>
12    1  0.1598876E-007  0.1229573E+04  0.7818608E-02  0.9087358E-01
         -1   -1    0    0    0  501 -0.00000000000E+00  0.00000000000E+00  0.39478808732E+03  0.39478808732E+03  0.00000000000E+00 0.  1.
          1   -1    0    0  501    0  0.00000000000E+00 -0.00000000000E+00 -0.95738045017E+03  0.95738045017E+03  0.00000000000E+00 0. -1.
         23    2    1    2    0    0 -0.20763292130E+03  0.10228898874E+03 -0.23628539948E+03  0.34321270624E+03  0.91595330083E+02 0.  0.
        254    2    1    2    0    0  0.20763292130E+03 -0.10228898874E+03 -0.32630696337E+03  0.10089558313E+04  0.92625113649E+03 0.  0.
        -24    2    4    4    0    0  0.44924635507E+03  0.15210480870E+03  0.55229591925E+02  0.48450804797E+03  0.82094947173E+02 0.  0.
         24    2    4    4    0    0 -0.24161343377E+03 -0.25439379744E+03 -0.38153655529E+03  0.52444778328E+03  0.79887914047E+02 0.  0.
         13    1    3    3    0    0 -0.25524065931E+02  0.14734315930E+02 -0.87362747990E+02  0.92199933536E+02  0.00000000000E+00 0.  1.
        -13    1    3    3    0    0 -0.18210885537E+03  0.87554672815E+02 -0.14892265149E+03  0.25101277271E+03  0.00000000000E+00 0. -1.
          4    1    6    6  502    0 -0.90191928957E+02 -0.13483837134E+03 -0.21667751544E+03  0.27067529649E+03  0.00000000000E+00 0. -1.
          1    1    5    5  503    0  0.21287838386E+03  0.43963173898E+02 -0.60343004692E+01  0.21745431648E+03  0.00000000000E+00 0. -1.
         -2    1    5    5    0  503  0.23636797121E+03  0.10814163480E+03  0.61263892394E+02  0.26705373149E+03  0.00000000000E+00 0.  1.
         -3    1    6    6    0  502 -0.15142150481E+03 -0.11955542611E+03 -0.16485903985E+03  0.25377248679E+03  0.00000000000E+00 0.  1.
<mgrwt>
<rscale>  0 0.12295729E+04</rscale>
<asrwt>0</asrwt>
<pdfrwt beam="1">  1        1 0.14728930E+00 0.12295729E+04</pdfrwt>
<pdfrwt beam="2">  1       -1 0.60736629E-01 0.12295729E+04</pdfrwt>
<totfact> 0.44396560E+01</totfact>
</mgrwt>
</event>
<event>
12    1  0.1598876E-007  0.1649403E+04  0.7818608E-02  0.8790760E-01
          1   -1    0    0  501    0  0.00000000000E+00  0.00000000000E+00  0.90176129018E+03  0.90176129018E+03  0.00000000000E+00 0. -1.
         -1   -1    0    0    0  501 -0.00000000000E+00 -0.00000000000E+00 -0.75422678889E+03  0.75422678889E+03  0.00000000000E+00 0.  1.
         23    2    1    2    0    0 -0.13542227590E+02  0.20964928076E+03  0.56019409701E+03  0.60432314485E+03  0.85163514652E+02 0.  0.
        254    2    1    2    0    0  0.13542227590E+02 -0.20964928076E+03 -0.41265959572E+03  0.10516649342E+04  0.94423248147E+03 0.  0.
        -24    2    4    4    0    0 -0.41918332355E+03 -0.77016394234E+02  0.45223944587E-01  0.43396860108E+03  0.81746932361E+02 0.  0.
         24    2    4    4    0    0  0.43272555114E+03 -0.13263288652E+03 -0.41270481966E+03  0.61769633313E+03  0.79878699225E+02 0.  0.
         13    1    3    3    0    0  0.29763960984E+02  0.44322394101E+02  0.98947900532E+02  0.11243244644E+03  0.00000000000E+00 0.  1.
        -13    1    3    3    0    0 -0.43306188574E+02  0.16532688666E+03  0.46124619648E+03  0.49189069841E+03  0.00000000000E+00 0. -1.
          2    1    6    6  502    0  0.33295230085E+03 -0.13566290387E+03 -0.31463889028E+03  0.47776488925E+03  0.00000000000E+00 0. -1.
          1    1    5    5  503    0 -0.29397680880E+03 -0.15731917069E+02 -0.56549494356E+01  0.29445175458E+03  0.00000000000E+00 0. -1.
         -4    1    5    5    0  503 -0.12520651476E+03 -0.61284477165E+02  0.57001733801E+01  0.13951684649E+03  0.00000000000E+00 0.  1.
         -1    1    6    6    0  502  0.99773250290E+02  0.30300173484E+01 -0.98065929389E+02  0.13993144388E+03  0.00000000000E+00 0.  1.
<mgrwt>
<rscale>  0 0.16494029E+04</rscale>
<asrwt>0</asrwt>
<pdfrwt beam="1">  1        1 0.13873251E+00 0.16494029E+04</pdfrwt>
<pdfrwt beam="2">  1       -1 0.11603489E+00 0.16494029E+04</pdfrwt>
<totfact> 0.11645441E+01</totfact>
</mgrwt>
</event>
<event>
12    1  0.1598876E-007  0.1564844E+04  0.7818608E-02  0.8842442E-01
         -1   -1    0    0    0  501 -0.00000000000E+00  0.00000000000E+00  0.45887719089E+03  0.45887719089E+03  0.00000000000E+00 0.  1.
          1   -1    0    0  501    0  0.00000000000E+00 -0.00000000000E+00 -0.13340910394E+04  0.13340910394E+04  0.00000000000E+00 0. -1.
         23    2    1    2    0    0  0.46959551402E+03  0.50452833752E+02 -0.34099748180E+02  0.48252395675E+03  0.92742335509E+02 0.  0.
        254    2    1    2    0    0 -0.46959551402E+03 -0.50452833752E+02 -0.84111410033E+03  0.13104442735E+04  0.88697566430E+03 0.  0.
        -24    2    4    4    0    0  0.11813342800E+03 -0.13209080986E+03 -0.65532903820E+03  0.68363587943E+03  0.80612520605E+02 0.  0.
         24    2    4    4    0    0 -0.58772894202E+03  0.81637976112E+02 -0.18578506213E+03  0.62680839410E+03  0.79262886523E+02 0.  0.
         11    1    3    3    0    0  0.17746059119E+03  0.31153543666E+02 -0.56688956772E+02  0.18888208631E+03  0.00000000000E+00 0. -1.
        -11    1    3    3    0    0  0.29213492283E+03  0.19299290085E+02  0.22589208592E+02  0.29364187044E+03  0.00000000000E+00 0.  1.
          2    1    6    6  502    0 -0.45074348665E+03  0.50322165436E+02 -0.10811445704E+03  0.46625180634E+03  0.00000000000E+00 0. -1.
          3    1    5    5  503    0  0.41561272842E+02 -0.52799583603E+02 -0.39888637992E+03  0.40450646412E+03  0.00000000000E+00 0. -1.
         -4    1    5    5    0  503  0.76572155158E+02 -0.79291226261E+02 -0.25644265828E+03  0.27912941532E+03  0.00000000000E+00 0.  1.
         -1    1    6    6    0  502 -0.13698545537E+03  0.31315810675E+02 -0.77670605086E+02  0.16055658776E+03  0.00000000000E+00 0.  1.
<mgrwt>
<rscale>  0 0.15648437E+04</rscale>
<asrwt>0</asrwt>
<pdfrwt beam="1">  1        1 0.20524477E+00 0.15648437E+04</pdfrwt>
<pdfrwt beam="2">  1       -1 0.70596494E-01 0.15648437E+04</pdfrwt>
<totfact> 0.16687121E+01</totfact>
</mgrwt>
</event>
<event>
12    1  0.1598876E-007  0.1769326E+04  0.7818608E-02  0.8722784E-01
          2   -1    0    0  501    0  0.00000000000E+00  0.00000000000E+00  0.19949031166E+04  0.19949031166E+04  0.00000000000E+00 0.  1.
         -2   -1    0    0    0  501 -0.00000000000E+00 -0.00000000000E+00 -0.39231394388E+03  0.39231394388E+03  0.00000000000E+00 0. -1.
         23    2    1    2    0    0 -0.36363329993E+03  0.50587615591E+03  0.36893400198E+03  0.73029401814E+03  0.95274304934E+02 0.  0.
        254    2    1    2    0    0  0.36363329993E+03 -0.50587615591E+03  0.12336551707E+04  0.16569230423E+04  0.91397430270E+03 0.  0.
        -24    2    4    4    0    0  0.56063648777E+03 -0.45341622984E+03  0.12441797297E+04  0.14402683733E+04  0.80562015179E+02 0.  0.
         24    2    4    4    0    0 -0.19700318784E+03 -0.52459926073E+02 -0.10524559030E+02  0.21665466903E+03  0.72568446351E+02 0.  0.
         13    1    3    3    0    0 -0.23444740717E+02  0.84376982061E+02  0.37354706014E+02  0.95207694176E+02  0.00000000000E+00 0. -1.
        -13    1    3    3    0    0 -0.34018855921E+03  0.42149917385E+03  0.33157929597E+03  0.63508632397E+03  0.00000000000E+00 0.  1.
          2    1    6    6  502    0 -0.20187346231E+03 -0.44018377251E+02 -0.92248747688E+01  0.20682265504E+03  0.00000000000E+00 0. -1.
          3    1    5    5  503    0  0.49000808092E+03 -0.41513538996E+03  0.10606936569E+04  0.12399662677E+04  0.00000000000E+00 0. -1.
         -4    1    5    5    0  503  0.70628406851E+02 -0.38280839878E+02  0.18348607286E+03  0.20030210556E+03  0.00000000000E+00 0.  1.
         -1    1    6    6    0  502  0.48702744716E+01 -0.84415488225E+01 -0.12996842609E+01  0.98320139915E+01  0.00000000000E+00 0.  1.
<mgrwt>
<rscale>  0 0.17693256E+04</rscale>
<asrwt>0</asrwt>
<pdfrwt beam="1">  1        2 0.30690817E+00 0.17693256E+04</pdfrwt>
<pdfrwt beam="2">  1       -2 0.60355993E-01 0.17693256E+04</pdfrwt>
<totfact> 0.16278393E+01</totfact>
</mgrwt>
</event>
<event>
12    1  0.1598876E-007  0.1948864E+04  0.7818608E-02  0.8630909E-01
          2   -1    0    0  501    0  0.00000000000E+00  0.00000000000E+00  0.68340279777E+03  0.68340279777E+03  0.00000000000E+00 0. -1.
         -2   -1    0    0    0  501 -0.00000000000E+00 -0.00000000000E+00 -0.13893970353E+04  0.13893970353E+04  0.00000000000E+00 0.  1.
         23    2    1    2    0    0  0.69814772047E+02 -0.28124661341E+03  0.46492088509E+03  0.55600690097E+03  0.94965702125E+02 0.  0.
        254    2    1    2    0    0 -0.69814772047E+02  0.28124661341E+03 -0.11709151227E+04  0.15167929321E+04  0.91958948156E+03 0.  0.
        -24    2    4    4    0    0 -0.18468154413E+03 -0.29348999452E+03 -0.58393961474E+03  0.68371694375E+03  0.78991998857E+02 0.  0.
         24    2    4    4    0    0  0.11486677208E+03  0.57473660793E+03 -0.58697550792E+03  0.83307598839E+03  0.77193339866E+02 0.  0.
         11    1    3    3    0    0  0.48510109478E+01 -0.36152163193E+02  0.13538023161E+03  0.14020812502E+03  0.00000000000E+00 0.  1.
        -11    1    3    3    0    0  0.64963761099E+02 -0.24509445022E+03  0.32954065348E+03  0.41579877594E+03  0.00000000000E+00 0. -1.
          4    1    6    6  502    0  0.10924496387E+02  0.30924665482E+02 -0.12142904342E+02  0.34973270970E+02  0.00000000000E+00 0. -1.
          3    1    5    5  503    0 -0.54539860049E+02 -0.12464459353E+03 -0.29287216940E+03  0.32293184829E+03  0.00000000000E+00 0. -1.
         -4    1    5    5    0  503 -0.13014168408E+03 -0.16884540099E+03 -0.29106744534E+03  0.36078509546E+03  0.00000000000E+00 0.  1.
         -3    1    6    6    0  502  0.10394227569E+03  0.54381194245E+03 -0.57483260357E+03  0.79810271742E+03  0.00000000000E+00 0.  1.
<mgrwt>
<rscale>  0 0.19488641E+04</rscale>
<asrwt>0</asrwt>
<pdfrwt beam="1">  1        2 0.10513889E+00 0.19488641E+04</pdfrwt>
<pdfrwt beam="2">  1       -2 0.21375339E+00 0.19488641E+04</pdfrwt>
<totfact> 0.42653412E+00</totfact>
</mgrwt>
</event>
<event>
12    1  0.1598876E-007  0.1257555E+04  0.7818608E-02  0.9063918E-01
          2   -1    0    0  501    0  0.00000000000E+00  0.00000000000E+00  0.85202550369E+03  0.85202550369E+03  0.00000000000E+00 0. -1.
         -2   -1    0    0    0  501 -0.00000000000E+00 -0.00000000000E+00 -0.46402510416E+03  0.46402510416E+03  0.00000000000E+00 0.  1.
         23    2    1    2    0    0  0.94171386227E+01 -0.69037029208E+02  0.39552673218E+03  0.41723807203E+03  0.11309915554E+03 0.  0.
        254    2    1    2    0    0 -0.94171386227E+01  0.69037029208E+02 -0.75263326461E+01  0.89881253582E+03  0.89607618815E+03 0.  0.
        -24    2    4    4    0    0  0.40980576761E+03  0.15550728506E+03 -0.90272375989E+02  0.45476579817E+03  0.80867462183E+02 0.  0.
         24    2    4    4    0    0 -0.41922290624E+03 -0.86470255849E+02  0.82746043343E+02  0.44404673766E+03  0.84295001483E+02 0.  0.
         13    1    3    3    0    0 -0.45510945801E+02 -0.13187980747E+02  0.21969233434E+03  0.22474405619E+03  0.00000000000E+00 0.  1.
        -13    1    3    3    0    0  0.54928084424E+02 -0.55849048462E+02  0.17583439783E+03  0.19249401584E+03  0.00000000000E+00 0. -1.
          4    1    6    6  502    0 -0.41424922013E+03 -0.72115291986E+02  0.75456983274E+02  0.42719642794E+03  0.00000000000E+00 0. -1.
          3    1    5    5  503    0  0.40974145978E+03  0.15275122076E+03 -0.96628917001E+02  0.44783718795E+03  0.00000000000E+00 0. -1.
         -4    1    5    5    0  503  0.64307829671E-01  0.27560642999E+01  0.63565410115E+01  0.69286102180E+01  0.00000000000E+00 0.  1.
         -3    1    6    6    0  502 -0.49736861067E+01 -0.14354963863E+02  0.72890600692E+01  0.16850309721E+02  0.00000000000E+00 0.  1.
<mgrwt>
<rscale>  0 0.12575551E+04</rscale>
<asrwt>0</asrwt>
<pdfrwt beam="1">  1        2 0.13108085E+00 0.12575551E+04</pdfrwt>
<pdfrwt beam="2">  1       -2 0.71388477E-01 0.12575551E+04</pdfrwt>
<totfact> 0.55394633E+01</totfact>
</mgrwt>
</event>
<event>
12    1  0.1598876E-007  0.1594801E+04  0.7818608E-02  0.8823748E-01
          1   -1    0    0  501    0  0.00000000000E+00  0.00000000000E+00  0.51146775463E+03  0.51146775463E+03  0.00000000000E+00 0. -1.
         -1   -1    0    0    0  501 -0.00000000000E+00 -0.00000000000E+00 -0.12431824597E+04  0.12431824597E+04  0.00000000000E+00 0.  1.
         23    2    1    2    0    0  0.10643394413E+03  0.25375513338E+03  0.26337604209E+03  0.39175061086E+03  0.91551894473E+02 0.  0.
        254    2    1    2    0    0 -0.10643394413E+03 -0.25375513338E+03 -0.99509074715E+03  0.13628996035E+04  0.88970213098E+03 0.  0.
        -24    2    4    4    0    0  0.35660712270E+03 -0.23180987217E+03 -0.64315336602E+03  0.77519545592E+03  0.79857910404E+02 0.  0.
         24    2    4    4    0    0 -0.46304106682E+03 -0.21945261211E+02 -0.35193738112E+03  0.58770414754E+03  0.81532942760E+02 0.  0.
         11    1    3    3    0    0  0.10383836435E+03  0.24259704534E+03  0.27079033879E+03  0.37810466792E+03  0.00000000000E+00 0. -1.
        -11    1    3    3    0    0  0.25955797807E+01  0.11158088039E+02 -0.74142967035E+01  0.13645942939E+02  0.00000000000E+00 0.  1.
          4    1    6    6  502    0 -0.38364300651E+03 -0.27668064771E+02 -0.25157854293E+03  0.45960770393E+03  0.00000000000E+00 0. -1.
          1    1    5    5  503    0  0.31864503625E+03 -0.18923218347E+03 -0.51085437084E+03  0.63112254483E+03  0.00000000000E+00 0. -1.
         -2    1    5    5    0  503  0.37962086447E+02 -0.42577688699E+02 -0.13229899518E+03  0.14407291109E+03  0.00000000000E+00 0.  1.
         -1    1    6    6    0  502 -0.79398060311E+02  0.57228035597E+01 -0.10035883820E+03  0.12809644361E+03  0.00000000000E+00 0.  1.
<mgrwt>
<rscale>  0 0.15948012E+04</rscale>
<asrwt>0</asrwt>
<pdfrwt beam="1">  1        1 0.78687346E-01 0.15948012E+04</pdfrwt>
<pdfrwt beam="2">  1       -1 0.19125884E+00 0.15948012E+04</pdfrwt>
<totfact> 0.71372224E+00</totfact>
</mgrwt>
</event>
<event>
12    1  0.1598876E-007  0.3380898E+04  0.7818608E-02  0.8142610E-01
         -2   -1    0    0    0  501 -0.00000000000E+00  0.00000000000E+00  0.12503404820E+04  0.12503404820E+04  0.00000000000E+00 0.  1.
          2   -1    0    0  501    0  0.00000000000E+00 -0.00000000000E+00 -0.22854722567E+04  0.22854722567E+04  0.00000000000E+00 0. -1.
         23    2    1    2    0    0 -0.24820861445E+03  0.71976562229E+03 -0.19243025635E+04  0.20715126532E+04  0.92489184492E+02 0.  0.
        254    2    1    2    0    0  0.24820861445E+03 -0.71976562229E+03  0.88917078880E+03  0.14643000855E+04  0.87970448524E+03 0.  0.
        -24    2    4    4    0    0  0.41045219748E+03 -0.84549832644E+03  0.70176315941E+03  0.11756646173E+04  0.79858212720E+02 0.  0.
         24    2    4    4    0    0 -0.16224358303E+03  0.12573270415E+03  0.18740762939E+03  0.28863546813E+03  0.77827506574E+02 0.  0.
         13    1    3    3    0    0 -0.15410320005E+02  0.11292613683E+03 -0.35812826468E+03  0.37582661468E+03  0.00000000000E+00 0.  1.
        -13    1    3    3    0    0 -0.23279829445E+03  0.60683948546E+03 -0.15661742988E+04  0.16956860386E+04  0.00000000000E+00 0. -1.
          2    1    6    6  502    0 -0.33537054624E+02  0.42834166674E+02  0.95964184488E+02  0.11031148885E+03  0.00000000000E+00 0. -1.
          1    1    5    5  503    0  0.36492963727E+02 -0.98292316485E+02  0.51064189577E+02  0.11662189905E+03  0.00000000000E+00 0. -1.
         -2    1    5    5    0  503  0.37395923376E+03 -0.74720600996E+03  0.65069896983E+03  0.10590427183E+04  0.00000000000E+00 0.  1.
         -1    1    6    6    0  502 -0.12870652841E+03  0.82898537480E+02  0.91443444903E+02  0.17832397928E+03  0.00000000000E+00 0.  1.
<mgrwt>
<rscale>  0 0.33808984E+04</rscale>
<asrwt>0</asrwt>
<pdfrwt beam="1">  1        2 0.35161111E+00 0.33808984E+04</pdfrwt>
<pdfrwt beam="2">  1       -2 0.19236008E+00 0.33808984E+04</pdfrwt>
<totfact> 0.57297682E-01</totfact>
</mgrwt>
</event>
<event>
12    1  0.1598876E-007  0.1533098E+04  0.7818608E-02  0.8862736E-01
         -2   -1    0    0    0  501 -0.00000000000E+00  0.00000000000E+00  0.24958318856E+03  0.24958318856E+03  0.00000000000E+00 0.  1.
          2   -1    0    0  501    0  0.00000000000E+00 -0.00000000000E+00 -0.23543162269E+04  0.23543162269E+04  0.00000000000E+00 0. -1.
         23    2    1    2    0    0  0.23958004876E+03  0.32949045615E+03 -0.20684894333E+03  0.46620345089E+03  0.92717915239E+02 0.  0.
        254    2    1    2    0    0 -0.23958004876E+03 -0.32949045615E+03 -0.18978840950E+04  0.21376959646E+04  0.89544259360E+03 0.  0.
        -24    2    4    4    0    0 -0.41614492136E+03  0.10981872372E+03 -0.52675319328E+03  0.68487270963E+03  0.79655220218E+02 0.  0.
         24    2    4    4    0    0  0.17656487260E+03 -0.43930917986E+03 -0.13711309017E+04  0.14528232550E+04  0.80794496769E+02 0.  0.
         13    1    3    3    0    0  0.10971310743E+03  0.22170273222E+03 -0.10236729261E+03  0.26770903984E+03  0.00000000000E+00 0.  1.
        -13    1    3    3    0    0  0.12986694133E+03  0.10778772393E+03 -0.10448165072E+03  0.19849441105E+03  0.00000000000E+00 0. -1.
          4    1    6    6  502    0 -0.45164723643E+01 -0.10773228973E+00 -0.69486088429E+01  0.82881417529E+01  0.00000000000E+00 0. -1.
          3    1    5    5  503    0 -0.31920089792E+01  0.11027167119E+02 -0.25413845185E+02  0.27886392077E+02  0.00000000000E+00 0. -1.
         -4    1    5    5    0  503 -0.41295291238E+03  0.98791556597E+02 -0.50133934809E+03  0.65698631755E+03  0.00000000000E+00 0.  1.
         -3    1    6    6    0  502  0.18108134496E+03 -0.43920144757E+03 -0.13641822929E+04  0.14445351132E+04  0.00000000000E+00 0.  1.
<mgrwt>
<rscale>  0 0.15330985E+04</rscale>
<asrwt>0</asrwt>
<pdfrwt beam="1">  1        2 0.36220250E+00 0.15330985E+04</pdfrwt>
<pdfrwt beam="2">  1       -2 0.38397413E-01 0.15330985E+04</pdfrwt>
<totfact> 0.26111507E+01</totfact>
</mgrwt>
</event>
<event>
12    1  0.1598876E-007  0.1387220E+04  0.7818608E-02  0.8963122E-01
          1   -1    0    0  501    0  0.00000000000E+00  0.00000000000E+00  0.16450594731E+04  0.16450594731E+04  0.00000000000E+00 0. -1.
         -1   -1    0    0    0  501 -0.00000000000E+00 -0.00000000000E+00 -0.29244835053E+03  0.29244835053E+03  0.00000000000E+00 0.  1.
         23    2    1    2    0    0  0.23298637513E+03  0.15178676737E+03  0.50509132224E+01  0.29250668173E+03  0.90624353167E+02 0.  0.
        254    2    1    2    0    0 -0.23298637513E+03 -0.15178676737E+03  0.13475602094E+04  0.16450011419E+04  0.90154776096E+03 0.  0.
        -24    2    4    4    0    0 -0.51096457422E+03 -0.25145785926E+03  0.11338441531E+04  0.12713073848E+04  0.79398059939E+02 0.  0.
         24    2    4    4    0    0  0.27797819908E+03  0.99671091894E+02  0.21371605628E+03  0.37369375717E+03  0.82257314042E+02 0.  0.
         11    1    3    3    0    0  0.16286846607E+03  0.14253963316E+03 -0.20280340862E+02  0.21738209790E+03  0.00000000000E+00 0.  1.
        -11    1    3    3    0    0  0.70117909066E+02  0.92471342087E+01  0.25331254084E+02  0.75124583835E+02  0.00000000000E+00 0. -1.
          4    1    6    6  502    0  0.25695482656E+03  0.11392814263E+03  0.19814376335E+03  0.34389875767E+03  0.00000000000E+00 0. -1.
          1    1    5    5  503    0 -0.37943482921E+03 -0.16103190543E+03  0.87462877559E+03  0.96689066562E+03  0.00000000000E+00 0. -1.
         -2    1    5    5    0  503 -0.13152974501E+03 -0.90425953828E+02  0.25921537753E+03  0.30441671915E+03  0.00000000000E+00 0.  1.
         -3    1    6    6    0  502  0.21023372522E+02 -0.14257050738E+02  0.15572292937E+02  0.29794999501E+02  0.00000000000E+00 0.  1.
<mgrwt>
<rscale>  0 0.13872201E+04</rscale>
<asrwt>0</asrwt>
<pdfrwt beam="1">  1        1 0.25308607E+00 0.13872201E+04</pdfrwt>
<pdfrwt beam="2">  1       -1 0.44992055E-01 0.13872201E+04</pdfrwt>
<totfact> 0.24849937E+01</totfact>
</mgrwt>
</event>
<event>
12    1  0.1598876E-007  0.1305414E+04  0.7818608E-02  0.9025283E-01
         -3   -1    0    0    0  501 -0.00000000000E+00  0.00000000000E+00  0.50764937827E+03  0.50764937827E+03  0.00000000000E+00 0.  1.
          3   -1    0    0  501    0  0.00000000000E+00 -0.00000000000E+00 -0.83921376643E+03  0.83921376643E+03  0.00000000000E+00 0. -1.
         23    2    1    2    0    0  0.21038237964E+02  0.17817854542E+03  0.20781483019E+03  0.28538214399E+03  0.77883008142E+02 0.  0.
        254    2    1    2    0    0 -0.21038237964E+02 -0.17817854542E+03 -0.53937921835E+03  0.10614810007E+04  0.89644953688E+03 0.  0.
        -24    2    4    4    0    0 -0.96957925235E+02  0.24928701624E+03 -0.55317461847E+03  0.61970765691E+03  0.80564047646E+02 0.  0.
         24    2    4    4    0    0  0.75919687271E+02 -0.42746556166E+03  0.13795400123E+02  0.44177334380E+03  0.80515643887E+02 0.  0.
         13    1    3    3    0    0 -0.17635612964E+01  0.20061188381E+02 -0.35372285668E+01  0.20446843611E+02  0.00000000000E+00 0. -1.
        -13    1    3    3    0    0  0.22801799261E+02  0.15811735704E+03  0.21135205876E+03  0.26493530038E+03  0.00000000000E+00 0.  1.
          2    1    6    6  502    0 -0.54729669670E+00 -0.22464927740E+03  0.11612126192E+01  0.22465294520E+03  0.00000000000E+00 0. -1.
          3    1    5    5  503    0  0.33024442209E+01  0.77600560157E+02 -0.19771543214E+03  0.21242444582E+03  0.00000000000E+00 0. -1.
         -4    1    5    5    0  503 -0.10026036946E+03  0.17168645608E+03 -0.35545918633E+03  0.40728321109E+03  0.00000000000E+00 0.  1.
         -1    1    6    6    0  502  0.76466983967E+02 -0.20281628426E+03  0.12634187504E+02  0.21712039861E+03  0.00000000000E+00 0.  1.
<mgrwt>
<rscale>  0 0.13054139E+04</rscale>
<asrwt>0</asrwt>
<pdfrwt beam="1">  1        3 0.12910981E+00 0.13054139E+04</pdfrwt>
<pdfrwt beam="2">  1       -3 0.78099905E-01 0.13054139E+04</pdfrwt>
<totfact> 0.18639311E+00</totfact>
</mgrwt>
</event>
<event>
12    1  0.1598876E-007  0.1887050E+04  0.7818608E-02  0.8661329E-01
         -1   -1    0    0    0  501 -0.00000000000E+00  0.00000000000E+00  0.69539944424E+03  0.69539944424E+03  0.00000000000E+00 0.  1.
          1   -1    0    0  501    0  0.00000000000E+00 -0.00000000000E+00 -0.12801845083E+04  0.12801845083E+04  0.00000000000E+00 0. -1.
         23    2    1    2    0    0 -0.67674631414E+03  0.24922580841E+03 -0.16940721207E+03  0.74638106109E+03  0.91031904145E+02 0.  0.
        254    2    1    2    0    0  0.67674631414E+03 -0.24922580841E+03 -0.41537785197E+03  0.12292028914E+04  0.90460041517E+03 0.  0.
        -24    2    4    4    0    0 -0.27966215111E+02 -0.38868897027E+03 -0.29726965777E+03  0.49665948753E+03  0.80250684278E+02 0.  0.
         24    2    4    4    0    0  0.70471252925E+03  0.13946316186E+03 -0.11810819420E+03  0.73254340390E+03  0.81243896182E+02 0.  0.
         13    1    3    3    0    0 -0.59378449749E+03  0.22834753578E+03 -0.11939098689E+03  0.64728419902E+03  0.00000000000E+00 0. -1.
        -13    1    3    3    0    0 -0.82961816652E+02  0.20878272628E+02 -0.50016225180E+02  0.99096862067E+02  0.00000000000E+00 0.  1.
          2    1    6    6  502    0  0.47870545875E+03  0.60185681354E+02 -0.96804247721E+02  0.49208972236E+03  0.00000000000E+00 0. -1.
          1    1    5    5  503    0 -0.54594157773E+02 -0.29964209249E+03 -0.21876697537E+03  0.37499986023E+03  0.00000000000E+00 0. -1.
         -2    1    5    5    0  503  0.26627942662E+02 -0.89046877773E+02 -0.78502682393E+02  0.12165962730E+03  0.00000000000E+00 0.  1.
         -1    1    6    6    0  502  0.22600707050E+03  0.79277480506E+02 -0.21303946482E+02  0.24045368154E+03  0.00000000000E+00 0.  1.
<mgrwt>
<rscale>  0 0.18870502E+04</rscale>
<asrwt>0</asrwt>
<pdfrwt beam="1">  1        1 0.19695146E+00 0.18870502E+04</pdfrwt>
<pdfrwt beam="2">  1       -1 0.10698453E+00 0.18870502E+04</pdfrwt>
<totfact> 0.71341187E+00</totfact>
</mgrwt>
</event>
<event>
12    1  0.1598876E-007  0.1425045E+04  0.7818608E-02  0.8935887E-01
          2   -1    0    0  501    0  0.00000000000E+00  0.00000000000E+00  0.66906985351E+03  0.66906985351E+03  0.00000000000E+00 0. -1.
         -2   -1    0    0    0  501 -0.00000000000E+00 -0.00000000000E+00 -0.75879665182E+03  0.75879665182E+03  0.00000000000E+00 0.  1.
         23    2    1    2    0    0  0.31896760907E+03  0.16004794362E+03  0.20395531722E+03  0.42104720730E+03  0.91254038071E+02 0.  0.
        254    2    1    2    0    0 -0.31896760907E+03 -0.16004794362E+03 -0.29368211553E+03  0.10068192980E+04  0.89447204205E+03 0.  0.
        -24    2    4    4    0    0 -0.57666974787E+03  0.85247798679E+02 -0.10996874980E+03  0.59847195737E+03  0.79122515992E+02 0.  0.
         24    2    4    4    0    0  0.25770213880E+03 -0.24529574230E+03 -0.18371336573E+03  0.40834734066E+03  0.80103410316E+02 0.  0.
         11    1    3    3    0    0  0.19222812706E+03  0.82704867999E+02  0.16780276878E+03  0.26823407173E+03  0.00000000000E+00 0. -1.
        -11    1    3    3    0    0  0.12673948201E+03  0.77343075621E+02  0.36152548433E+02  0.15281313557E+03  0.00000000000E+00 0.  1.
          4    1    6    6  502    0  0.24464669516E+03 -0.19539302132E+03 -0.15861421835E+03  0.35098277521E+03  0.00000000000E+00 0. -1.
          3    1    5    5  503    0 -0.31312916876E+03  0.18428054721E+02 -0.30143433067E+02  0.31511600418E+03  0.00000000000E+00 0. -1.
         -4    1    5    5    0  503 -0.26354057911E+03  0.66819743957E+02 -0.79825316730E+02  0.28335595319E+03  0.00000000000E+00 0.  1.
         -3    1    6    6    0  502  0.13055443640E+02 -0.49902720980E+02 -0.25099147385E+02  0.57364565450E+02  0.00000000000E+00 0.  1.
<mgrwt>
<rscale>  0 0.14250445E+04</rscale>
<asrwt>0</asrwt>
<pdfrwt beam="1">  1        2 0.10293382E+00 0.14250445E+04</pdfrwt>
<pdfrwt beam="2">  1       -2 0.11673795E+00 0.14250445E+04</pdfrwt>
<totfact> 0.23949155E+01</totfact>
</mgrwt>
</event>
<event>
12    1  0.1598876E-007  0.1402731E+04  0.7818608E-02  0.8951844E-01
         -2   -1    0    0    0  501 -0.00000000000E+00  0.00000000000E+00  0.31492527586E+03  0.31492527586E+03  0.00000000000E+00 0.  1.
          2   -1    0    0  501    0  0.00000000000E+00 -0.00000000000E+00 -0.15620009917E+04  0.15620009917E+04  0.00000000000E+00 0. -1.
         23    2    1    2    0    0  0.17675513185E+03  0.21716260062E+03 -0.74094918056E+03  0.79731872486E+03  0.91156399111E+02 0.  0.
        254    2    1    2    0    0 -0.17675513185E+03 -0.21716260062E+03 -0.50612653524E+03  0.10796075427E+04  0.91158455711E+03 0.  0.
        -24    2    4    4    0    0  0.19045034338E+03  0.21242634962E+03 -0.40214934412E+03  0.49935953575E+03  0.78990908725E+02 0.  0.
         24    2    4    4    0    0 -0.36720547523E+03 -0.42958895024E+03 -0.10397719112E+03  0.58024800691E+03  0.80560325478E+02 0.  0.
         11    1    3    3    0    0  0.11155438204E+03  0.19566206197E+03 -0.58834347937E+03  0.62998100953E+03  0.00000000000E+00 0. -1.
        -11    1    3    3    0    0  0.65200749805E+02  0.21500538647E+02 -0.15260570119E+03  0.16733771534E+03  0.00000000000E+00 0.  1.
          4    1    6    6  502    0 -0.18283634766E+03 -0.24063979353E+03 -0.18606044837E+02  0.30279171911E+03  0.00000000000E+00 0. -1.
          3    1    5    5  503    0  0.13400918341E+03  0.18085811252E+03 -0.35068604211E+03  0.41671191275E+03  0.00000000000E+00 0. -1.
         -4    1    5    5    0  503  0.56441159975E+02  0.31568237105E+02 -0.51463302010E+02  0.82647622997E+02  0.00000000000E+00 0.  1.
         -3    1    6    6    0  502 -0.18436912758E+03 -0.18894915671E+03 -0.85371146287E+02  0.27745628781E+03  0.00000000000E+00 0.  1.
<mgrwt>
<rscale>  0 0.14027310E+04</rscale>
<asrwt>0</asrwt>
<pdfrwt beam="1">  1        2 0.24030784E+00 0.14027310E+04</pdfrwt>
<pdfrwt beam="2">  1       -2 0.48450043E-01 0.14027310E+04</pdfrwt>
<totfact> 0.45979696E+01</totfact>
</mgrwt>
</event>
<event>
12    1  0.1598876E-007  0.2162019E+04  0.7818608E-02  0.8534405E-01
          1   -1    0    0  501    0  0.00000000000E+00  0.00000000000E+00  0.75059852037E+03  0.75059852037E+03  0.00000000000E+00 0. -1.
         -1   -1    0    0    0  501 -0.00000000000E+00 -0.00000000000E+00 -0.15568656859E+04  0.15568656859E+04  0.00000000000E+00 0.  1.
         23    2    1    2    0    0 -0.12107058241E+03  0.37917744951E+03 -0.11850362880E+04  0.12535012158E+04  0.92307475479E+02 0.  0.
        254    2    1    2    0    0  0.12107058241E+03 -0.37917744951E+03  0.37876912240E+03  0.10539629905E+04  0.89940998058E+03 0.  0.
        -24    2    4    4    0    0  0.47833753006E+03 -0.15725846448E+03  0.36351546400E+03  0.62607519874E+03  0.79307279583E+02 0.  0.
         24    2    4    4    0    0 -0.35726694765E+03 -0.22191898503E+03  0.15253658402E+02  0.42788779179E+03  0.77250116280E+02 0.  0.
         13    1    3    3    0    0 -0.53334558774E+02  0.29801316211E+03 -0.89233850557E+03  0.94229742039E+03  0.00000000000E+00 0.  1.
        -13    1    3    3    0    0 -0.67736023636E+02  0.81164287400E+02 -0.29269778240E+03  0.31120379540E+03  0.00000000000E+00 0. -1.
          2    1    6    6  502    0 -0.24835363788E+03 -0.11481411832E+03 -0.59270715684E+01  0.27367305566E+03  0.00000000000E+00 0. -1.
          1    1    5    5  503    0  0.30443561625E+03 -0.13393077844E+03  0.21345426517E+03  0.39519769885E+03  0.00000000000E+00 0. -1.
         -2    1    5    5    0  503  0.17390191381E+03 -0.23327686046E+02  0.15006119883E+03  0.23087749989E+03  0.00000000000E+00 0.  1.
         -1    1    6    6    0  502 -0.10891330977E+03 -0.10710486671E+03  0.21180729971E+02  0.15421473613E+03  0.00000000000E+00 0.  1.
<mgrwt>
<rscale>  0 0.21620186E+04</rscale>
<asrwt>0</asrwt>
<pdfrwt beam="1">  1        1 0.11547670E+00 0.21620186E+04</pdfrwt>
<pdfrwt beam="2">  1       -1 0.23951780E+00 0.21620186E+04</pdfrwt>
<totfact> 0.18272959E+00</totfact>
</mgrwt>
</event>
<event>
12    1  0.1598876E-007  0.2002847E+04  0.7818608E-02  0.8605291E-01
         -2   -1    0    0    0  501 -0.00000000000E+00  0.00000000000E+00  0.93172578425E+03  0.93172578425E+03  0.00000000000E+00 0.  1.
          2   -1    0    0  501    0  0.00000000000E+00 -0.00000000000E+00 -0.10763347895E+04  0.10763347895E+04  0.00000000000E+00 0. -1.
         23    2    1    2    0    0 -0.43570016878E+03  0.41698674349E+03  0.46201248090E+03  0.76549253993E+03  0.93865408212E+02 0.  0.
        254    2    1    2    0    0  0.43570016878E+03 -0.41698674349E+03 -0.60662148617E+03  0.12425680338E+04  0.90126195411E+03 0.  0.
        -24    2    4    4    0    0  0.57480115583E+02  0.23835138618E+03 -0.36049113452E+03  0.44304185724E+03  0.78847208075E+02 0.  0.
         24    2    4    4    0    0  0.37822005320E+03 -0.65533812967E+03 -0.24613035165E+03  0.79952617660E+03  0.78380381620E+02 0.  0.
         13    1    3    3    0    0 -0.31576067519E+03  0.26156439468E+03  0.35234567250E+03  0.54061835845E+03  0.00000000000E+00 0.  1.
        -13    1    3    3    0    0 -0.11993949359E+03  0.15542234881E+03  0.10966680839E+03  0.22487418148E+03  0.00000000000E+00 0. -1.
          2    1    6    6  502    0  0.32134841935E+03 -0.56632575549E+03 -0.18260038097E+03  0.67626368162E+03  0.00000000000E+00 0. -1.
          1    1    5    5  503    0  0.30361218031E+02  0.15394216662E+03 -0.16138743451E+03  0.22509086663E+03  0.00000000000E+00 0. -1.
         -2    1    5    5    0  503  0.27118897551E+02  0.84409219562E+02 -0.19910370000E+03  0.21795099061E+03  0.00000000000E+00 0.  1.
         -1    1    6    6    0  502  0.56871633851E+02 -0.89012374182E+02 -0.63529970676E+02  0.12326249498E+03  0.00000000000E+00 0.  1.
<mgrwt>
<rscale>  0 0.20028468E+04</rscale>
<asrwt>0</asrwt>
<pdfrwt beam="1">  1        2 0.16558997E+00 0.20028468E+04</pdfrwt>
<pdfrwt beam="2">  1       -2 0.14334243E+00 0.20028468E+04</pdfrwt>
<totfact> 0.70690375E+00</totfact>
</mgrwt>
</event>
<event>
12    1  0.1598876E-007  0.1619537E+04  0.7818608E-02  0.8808635E-01
          2   -1    0    0  501    0  0.00000000000E+00  0.00000000000E+00  0.16678540340E+04  0.16678540340E+04  0.00000000000E+00 0.  1.
         -2   -1    0    0    0  501 -0.00000000000E+00 -0.00000000000E+00 -0.39315505155E+03  0.39315505155E+03  0.00000000000E+00 0. -1.
         23    2    1    2    0    0  0.16942097435E+03  0.31840008270E+03 -0.95917266461E+02  0.38418607291E+03  0.91196147955E+02 0.  0.
        254    2    1    2    0    0 -0.16942097435E+03 -0.31840008270E+03  0.13706162489E+04  0.16768230126E+04  0.89613862474E+03 0.  0.
        -24    2    4    4    0    0 -0.40536070379E+03  0.14559734558E+03  0.58384209307E+03  0.72994037341E+03  0.80159041141E+02 0.  0.
         24    2    4    4    0    0  0.23593972944E+03 -0.46399742827E+03  0.78677415582E+03  0.94688263922E+03  0.81314148909E+02 0.  0.
         11    1    3    3    0    0 -0.90251292460E+01  0.33013127704E+01 -0.12368637534E+00  0.96107711572E+01  0.00000000000E+00 0.  1.
        -11    1    3    3    0    0  0.17844610360E+03  0.31509876993E+03 -0.95793580085E+02  0.37457530176E+03  0.00000000000E+00 0. -1.
          4    1    6    6  502    0  0.17484867492E+03 -0.29542640015E+03  0.45773562249E+03  0.57216319099E+03  0.00000000000E+00 0. -1.
          1    1    5    5  503    0 -0.10942586488E+03  0.64746746691E+02  0.12747310043E+03  0.18004319605E+03  0.00000000000E+00 0. -1.
         -2    1    5    5    0  503 -0.29593483891E+03  0.80850598885E+02  0.45636899264E+03  0.54989717736E+03  0.00000000000E+00 0.  1.
         -3    1    6    6    0  502  0.61091054521E+02 -0.16857102813E+03  0.32903853333E+03  0.37471944823E+03  0.00000000000E+00 0.  1.
<mgrwt>
<rscale>  0 0.16195373E+04</rscale>
<asrwt>0</asrwt>
<pdfrwt beam="1">  1        2 0.25659293E+00 0.16195373E+04</pdfrwt>
<pdfrwt beam="2">  1       -2 0.60485393E-01 0.16195373E+04</pdfrwt>
<totfact> 0.24911654E+01</totfact>
</mgrwt>
</event>
<event>
12    1  0.1598876E-007  0.3400085E+04  0.7818608E-02  0.8137885E-01
         -1   -1    0    0    0  501 -0.00000000000E+00  0.00000000000E+00  0.90339027490E+03  0.90339027490E+03  0.00000000000E+00 0.  1.
          1   -1    0    0  501    0  0.00000000000E+00 -0.00000000000E+00 -0.31992211867E+04  0.31992211867E+04  0.00000000000E+00 0. -1.
         23    2    1    2    0    0 -0.97814438309E+03  0.36060471728E+03 -0.25175015316E+04  0.27263492356E+04  0.91454885931E+02 0.  0.
        254    2    1    2    0    0  0.97814438309E+03 -0.36060471728E+03  0.22167061985E+03  0.13762622260E+04  0.87072249012E+03 0.  0.
        -24    2    4    4    0    0  0.52979616157E+02  0.11143847585E+03 -0.20375688221E+03  0.25078349478E+03  0.78422704493E+02 0.  0.
         24    2    4    4    0    0  0.92516476694E+03 -0.47204319313E+03  0.42542750206E+03  0.11254787312E+04  0.83421776662E+02 0.  0.
         13    1    3    3    0    0 -0.78189284597E+03  0.32413875698E+03 -0.20686326067E+04  0.22350980332E+04  0.00000000000E+00 0. -1.
        -13    1    3    3    0    0 -0.19625153712E+03  0.36465960309E+02 -0.44886892489E+03  0.49125120235E+03  0.00000000000E+00 0.  1.
          2    1    6    6  502    0  0.41693234040E+03 -0.25216389753E+03  0.22327506125E+03  0.53597664190E+03  0.00000000000E+00 0. -1.
          3    1    5    5  503    0  0.41083534987E+02  0.81955425268E+01 -0.50535784237E+02  0.65642130166E+02  0.00000000000E+00 0. -1.
         -4    1    5    5    0  503  0.11896081170E+02  0.10324293332E+03 -0.15322109798E+03  0.18514136462E+03  0.00000000000E+00 0.  1.
         -1    1    6    6    0  502  0.50823242654E+03 -0.21987929560E+03  0.20215244080E+03  0.58950208935E+03  0.00000000000E+00 0.  1.
<mgrwt>
<rscale>  0 0.34000855E+04</rscale>
<asrwt>0</asrwt>
<pdfrwt beam="1">  1        1 0.49218787E+00 0.34000855E+04</pdfrwt>
<pdfrwt beam="2">  1       -1 0.13898312E+00 0.34000855E+04</pdfrwt>
<totfact> 0.14944792E-01</totfact>
</mgrwt>
</event>
<event>
12    1  0.1598876E-007  0.2099261E+04  0.7818608E-02  0.8561569E-01
          2   -1    0    0  501    0  0.00000000000E+00  0.00000000000E+00  0.87899129277E+03  0.87899129277E+03  0.00000000000E+00 0. -1.
         -2   -1    0    0    0  501 -0.00000000000E+00 -0.00000000000E+00 -0.12533959234E+04  0.12533959234E+04  0.00000000000E+00 0.  1.
         23    2    1    2    0    0  0.35155941132E+03 -0.57712535610E+03  0.40119006043E+03  0.79080491898E+03  0.88041234409E+02 0.  0.
        254    2    1    2    0    0 -0.35155941132E+03  0.57712535610E+03 -0.77559469101E+03  0.13415822971E+04  0.86117840135E+03 0.  0.
        -24    2    4    4    0    0 -0.54600377019E+03  0.86205450033E+02 -0.44133928259E+03  0.71163523174E+03  0.78056671850E+02 0.  0.
         24    2    4    4    0    0  0.19444435887E+03  0.49091990606E+03 -0.33425540842E+03  0.62994706540E+03  0.79345222215E+02 0.  0.
         11    1    3    3    0    0  0.20217690545E+03 -0.25889987372E+03  0.16804647219E+03  0.36897731980E+03  0.00000000000E+00 0. -1.
        -11    1    3    3    0    0  0.14938250587E+03 -0.31822548237E+03  0.23314358824E+03  0.42182759918E+03  0.00000000000E+00 0.  1.
          2    1    6    6  502    0  0.13271578513E+03  0.39146089249E+03 -0.28941419416E+03  0.50459457563E+03  0.00000000000E+00 0. -1.
          3    1    5    5  503    0 -0.13274523824E+03  0.64513790831E+01 -0.69268135464E+02  0.14986992079E+03  0.00000000000E+00 0. -1.
         -2    1    5    5    0  503 -0.41325853195E+03  0.79754070950E+02 -0.37207114713E+03  0.56176531095E+03  0.00000000000E+00 0.  1.
         -1    1    6    6    0  502  0.61728573742E+02  0.99459013571E+02 -0.44841214262E+02  0.12535248978E+03  0.00000000000E+00 0.  1.
<mgrwt>
<rscale>  0 0.20992609E+04</rscale>
<asrwt>0</asrwt>
<pdfrwt beam="1">  1        2 0.13522943E+00 0.20992609E+04</pdfrwt>
<pdfrwt beam="2">  1       -2 0.19283014E+00 0.20992609E+04</pdfrwt>
<totfact> 0.41425126E+00</totfact>
</mgrwt>
</event>
<event>
12    1  0.1598876E-007  0.1564855E+04  0.7818608E-02  0.8842434E-01
          1   -1    0    0  501    0  0.00000000000E+00  0.00000000000E+00  0.97524089378E+03  0.97524089378E+03  0.00000000000E+00 0. -1.
         -1   -1    0    0    0  501 -0.00000000000E+00 -0.00000000000E+00 -0.62773520135E+03  0.62773520135E+03  0.00000000000E+00 0.  1.
         23    2    1    2    0    0 -0.36437994963E+03  0.38288438823E+03  0.12002708257E+03  0.54997030397E+03  0.93207468872E+02 0.  0.
        254    2    1    2    0    0  0.36437994963E+03 -0.38288438823E+03  0.22747860986E+03  0.10530057912E+04  0.88187384350E+03 0.  0.
        -24    2    4    4    0    0  0.48627300064E+03 -0.32505786961E+03  0.47630438886E+03  0.75847094696E+03  0.79298529480E+02 0.  0.
         24    2    4    4    0    0 -0.12189305101E+03 -0.57826518618E+02 -0.24882577900E+03  0.29453484421E+03  0.81453569712E+02 0.  0.
         13    1    3    3    0    0 -0.36131971768E+03  0.35947950900E+03  0.10086711608E+03  0.51956869698E+03  0.00000000000E+00 0. -1.
        -13    1    3    3    0    0 -0.30602319450E+01  0.23404879230E+02  0.19159966490E+02  0.30401606984E+02  0.00000000000E+00 0.  1.
          2    1    6    6  502    0  0.27394761982E+01 -0.12017985445E+02  0.19061447983E+00  0.12327734499E+02  0.00000000000E+00 0. -1.
          1    1    5    5  503    0  0.29401968544E+03 -0.22412518350E+03  0.25994248336E+03  0.45194000483E+03  0.00000000000E+00 0. -1.
         -2    1    5    5    0  503  0.19225331520E+03 -0.10093268611E+03  0.21636190550E+03  0.30653094213E+03  0.00000000000E+00 0.  1.
         -1    1    6    6    0  502 -0.12463252721E+03 -0.45808533173E+02 -0.24901639348E+03  0.28220710971E+03  0.00000000000E+00 0.  1.
<mgrwt>
<rscale>  0 0.15648553E+04</rscale>
<asrwt>0</asrwt>
<pdfrwt beam="1">  1        1 0.15003706E+00 0.15648553E+04</pdfrwt>
<pdfrwt beam="2">  1       -1 0.96574647E-01 0.15648553E+04</pdfrwt>
<totfact> 0.15716682E+01</totfact>
</mgrwt>
</event>
<event>
12    1  0.1598876E-007  0.1820299E+04  0.7818608E-02  0.8695579E-01
          2   -1    0    0  501    0  0.00000000000E+00  0.00000000000E+00  0.18482017517E+04  0.18482017517E+04  0.00000000000E+00 0. -1.
         -2   -1    0    0    0  501 -0.00000000000E+00 -0.00000000000E+00 -0.44820417868E+03  0.44820417868E+03  0.00000000000E+00 0.  1.
         23    2    1    2    0    0 -0.66939995753E+03  0.75781223987E+02  0.71989664121E+03  0.99027256005E+03  0.92463355479E+02 0.  0.
        254    2    1    2    0    0  0.66939995753E+03 -0.75781223987E+02  0.68010093181E+03  0.13061333703E+04  0.88859890086E+03 0.  0.
        -24    2    4    4    0    0  0.23952049174E+03  0.38680148078E+03  0.39601054052E+03  0.60877888474E+03  0.82473818901E+02 0.  0.
         24    2    4    4    0    0  0.42987946579E+03 -0.46258270476E+03  0.28409039129E+03  0.69735448560E+03  0.82564001297E+02 0.  0.
         11    1    3    3    0    0 -0.88275901870E+02 -0.11471911925E+02  0.63998004195E+02  0.10963568833E+03  0.00000000000E+00 0.  1.
        -11    1    3    3    0    0 -0.58112405566E+03  0.87253135912E+02  0.65589863701E+03  0.88063687172E+03  0.00000000000E+00 0. -1.
          2    1    6    6  502    0  0.93435559817E+02 -0.74517813997E+02  0.84338467296E+02  0.14627400831E+03  0.00000000000E+00 0. -1.
          1    1    5    5  503    0  0.15544781320E+03  0.22471549348E+03  0.18626236556E+03  0.33068828897E+03  0.00000000000E+00 0. -1.
         -2    1    5    5    0  503  0.84072678542E+02  0.16208598730E+03  0.20974817496E+03  0.27809059577E+03  0.00000000000E+00 0.  1.
         -1    1    6    6    0  502  0.33644390597E+03 -0.38806489077E+03  0.19975192399E+03  0.55108047729E+03  0.00000000000E+00 0.  1.
<mgrwt>
<rscale>  0 0.18202986E+04</rscale>
<asrwt>0</asrwt>
<pdfrwt beam="1">  1        2 0.28433873E+00 0.18202986E+04</pdfrwt>
<pdfrwt beam="2">  1       -2 0.68954490E-01 0.18202986E+04</pdfrwt>
<totfact> 0.14688471E+01</totfact>
</mgrwt>
</event>
<event>
12    1  0.1598876E-007  0.2919090E+04  0.7818608E-02  0.8267220E-01
         -1   -1    0    0    0  501 -0.00000000000E+00  0.00000000000E+00  0.68761486907E+03  0.68761486907E+03  0.00000000000E+00 0.  1.
          1   -1    0    0  501    0  0.00000000000E+00 -0.00000000000E+00 -0.30980591109E+04  0.30980591109E+04  0.00000000000E+00 0. -1.
         23    2    1    2    0    0  0.80351176275E+03 -0.55613564428E+03  0.51460838000E+02  0.98286472194E+03  0.91961057459E+02 0.  0.
        254    2    1    2    0    0 -0.80351176275E+03  0.55613564428E+03 -0.24619050798E+04  0.28028092580E+04  0.91643063407E+03 0.  0.
        -24    2    4    4    0    0 -0.20416836517E+01  0.69637657801E+02  0.51890527377E+02  0.11867391621E+03  0.80853569499E+02 0.  0.
         24    2    4    4    0    0 -0.80147007909E+03  0.48649798647E+03 -0.25137956072E+04  0.26841353418E+04  0.79872397282E+02 0.  0.
         13    1    3    3    0    0  0.58913131217E+02 -0.72157263783E+02  0.11993247415E+02  0.93921593523E+02  0.00000000000E+00 0. -1.
        -13    1    3    3    0    0  0.74459863153E+03 -0.48397838049E+03  0.39467590585E+02  0.88894312842E+03  0.00000000000E+00 0.  1.
          4    1    6    6  502    0 -0.96065115772E+02  0.52475012165E+02 -0.22801393002E+03  0.25292782697E+03  0.00000000000E+00 0. -1.
          1    1    5    5  503    0 -0.17006923932E+02 -0.59509013165E+01 -0.93008057495E+01  0.20276924710E+02  0.00000000000E+00 0. -1.
         -4    1    5    5    0  503  0.14965240281E+02  0.75588559118E+02  0.61191333126E+02  0.98396991498E+02  0.00000000000E+00 0.  1.
         -3    1    6    6    0  502 -0.70540496332E+03  0.43402297431E+03 -0.22857816772E+04  0.24312075148E+04  0.00000000000E+00 0.  1.
<mgrwt>
<rscale>  0 0.29190899E+04</rscale>
<asrwt>0</asrwt>
<pdfrwt beam="1">  1        1 0.47662448E+00 0.29190899E+04</pdfrwt>
<pdfrwt beam="2">  1       -1 0.10578690E+00 0.29190899E+04</pdfrwt>
<totfact> 0.36276028E-01</totfact>
</mgrwt>
</event>
<event>
12    1  0.1598876E-007  0.1743952E+04  0.7818608E-02  0.8736687E-01
          2   -1    0    0  501    0  0.00000000000E+00  0.00000000000E+00  0.37073168586E+04  0.37073168586E+04  0.00000000000E+00 0. -1.
         -2   -1    0    0    0  501 -0.00000000000E+00 -0.00000000000E+00 -0.20509226233E+03  0.20509226233E+03  0.00000000000E+00 0.  1.
         23    2    1    2    0    0 -0.38803284236E+03  0.20430948799E+03  0.23273735623E+04  0.23700839621E+04  0.91205456239E+02 0.  0.
        254    2    1    2    0    0  0.38803284236E+03 -0.20430948799E+03  0.11748510339E+04  0.15423251588E+04  0.89787531979E+03 0.  0.
        -24    2    4    4    0    0 -0.24519116549E+03 -0.18726385268E+03  0.19691849819E+03  0.37446989567E+03  0.79147644801E+02 0.  0.
         24    2    4    4    0    0  0.63322400786E+03 -0.17045635303E+02  0.97793253575E+03  0.11678552631E+04  0.79187583212E+02 0.  0.
         13    1    3    3    0    0 -0.20929041684E+02 -0.91355236210E+01  0.97703423907E+02  0.10033664147E+03  0.00000000000E+00 0.  1.
        -13    1    3    3    0    0 -0.36710380068E+03  0.21344501161E+03  0.22296701384E+04  0.22697473207E+04  0.00000000000E+00 0. -1.
          4    1    6    6  502    0  0.12417660267E+03 -0.34126212717E+02  0.18398839577E+03  0.22457995641E+03  0.00000000000E+00 0. -1.
          1    1    5    5  503    0 -0.17313539521E+03 -0.93327241888E+02  0.95813168912E+02  0.21878300320E+03  0.00000000000E+00 0. -1.
         -2    1    5    5    0  503 -0.72055770286E+02 -0.93936610796E+02  0.10110532928E+03  0.15568689247E+03  0.00000000000E+00 0.  1.
         -3    1    6    6    0  502  0.50904740518E+03  0.17080577414E+02  0.79394413998E+03  0.94327530672E+03  0.00000000000E+00 0.  1.
<mgrwt>
<rscale>  0 0.17439518E+04</rscale>
<asrwt>0</asrwt>
<pdfrwt beam="1">  1        2 0.57035639E+00 0.17439518E+04</pdfrwt>
<pdfrwt beam="2">  1       -2 0.31552658E-01 0.17439518E+04</pdfrwt>
<totfact> 0.51597309E+00</totfact>
</mgrwt>
</event>
<event>
12    1  0.1598876E-007  0.2761882E+04  0.7818608E-02  0.8315201E-01
          2   -1    0    0  501    0  0.00000000000E+00  0.00000000000E+00  0.21223285381E+04  0.21223285381E+04  0.00000000000E+00 0.  1.
         -2   -1    0    0    0  501 -0.00000000000E+00 -0.00000000000E+00 -0.89854037429E+03  0.89854037429E+03  0.00000000000E+00 0. -1.
         23    2    1    2    0    0 -0.99812165492E+02 -0.67833926286E+03 -0.56972091997E+03  0.89853881762E+03  0.11262085156E+03 0.  0.
        254    2    1    2    0    0  0.99812165492E+02  0.67833926286E+03  0.17935090838E+04  0.21223300948E+04  0.90415904221E+03 0.  0.
        -24    2    4    4    0    0 -0.25407209477E+03  0.23567811616E+03  0.13563418739E+04  0.14021694484E+04  0.79492637037E+02 0.  0.
         24    2    4    4    0    0  0.35388426026E+03  0.44266114670E+03  0.43716720994E+03  0.72016064642E+03  0.79581572943E+02 0.  0.
         13    1    3    3    0    0 -0.34892644502E+02 -0.36876216923E+03 -0.37501819193E+03  0.52710689464E+03  0.00000000000E+00 0.  1.
        -13    1    3    3    0    0 -0.64919520990E+02 -0.30957709363E+03 -0.19470272804E+03  0.37143192299E+03  0.00000000000E+00 0. -1.
          2    1    6    6  502    0  0.22836992317E+03  0.27074948969E+03  0.22499275874E+03  0.41961869532E+03  0.00000000000E+00 0. -1.
          3    1    5    5  503    0 -0.57907877910E+01  0.16035147600E+02  0.25572655757E+02  0.30734669418E+02  0.00000000000E+00 0. -1.
         -4    1    5    5    0  503 -0.24828130697E+03  0.21964296856E+03  0.13307692181E+04  0.13714347789E+04  0.00000000000E+00 0.  1.
         -3    1    6    6    0  502  0.12551433708E+03  0.17191165701E+03  0.21217445119E+03  0.30054195109E+03  0.00000000000E+00 0.  1.
<mgrwt>
<rscale>  0 0.27618819E+04</rscale>
<asrwt>0</asrwt>
<pdfrwt beam="1">  1        2 0.32651208E+00 0.27618819E+04</pdfrwt>
<pdfrwt beam="2">  1       -2 0.13823698E+00 0.27618819E+04</pdfrwt>
<totfact> 0.18497117E+00</totfact>
</mgrwt>
</event>
<event>
12    1  0.1598876E-007  0.2100335E+04  0.7818608E-02  0.8561096E-01
         -1   -1    0    0    0  501 -0.00000000000E+00  0.00000000000E+00  0.10559050826E+04  0.10559050826E+04  0.00000000000E+00 0.  1.
          1   -1    0    0  501    0  0.00000000000E+00 -0.00000000000E+00 -0.10444611930E+04  0.10444611930E+04  0.00000000000E+00 0. -1.
         23    2    1    2    0    0 -0.64170884870E+02  0.73828641954E+03 -0.42413661418E+03  0.86070922649E+03  0.10836865470E+03 0.  0.
        254    2    1    2    0    0  0.64170884870E+02 -0.73828641954E+03  0.43558050379E+03  0.12396570491E+04  0.89321581059E+03 0.  0.
        -24    2    4    4    0    0  0.26244182266E+03 -0.37947882292E+03  0.62537166578E+03  0.78101511950E+03  0.77556490406E+02 0.  0.
         24    2    4    4    0    0 -0.19827093779E+03 -0.35880759662E+03 -0.18979116198E+03  0.45864192958E+03  0.79230538513E+02 0.  0.
         11    1    3    3    0    0  0.23631658371E+02  0.97636982103E+02 -0.78522952386E+02  0.12750407681E+03  0.00000000000E+00 0.  1.
        -11    1    3    3    0    0 -0.87802543241E+02  0.64064943744E+03 -0.34561366180E+03  0.73320514968E+03  0.00000000000E+00 0. -1.
          2    1    6    6  502    0 -0.46066456247E+02 -0.29390676518E+02 -0.25743843665E+02  0.60404269253E+02  0.00000000000E+00 0. -1.
          3    1    5    5  503    0  0.37411210603E+02 -0.10295627799E+03  0.11916828844E+03  0.16186622509E+03  0.00000000000E+00 0. -1.
         -4    1    5    5    0  503  0.22503061205E+03 -0.27652254493E+03  0.50620337733E+03  0.61914889440E+03  0.00000000000E+00 0.  1.
         -1    1    6    6    0  502 -0.15220448154E+03 -0.32941692011E+03 -0.16404731832E+03  0.39823766032E+03  0.00000000000E+00 0.  1.
<mgrwt>
<rscale>  0 0.21003351E+04</rscale>
<asrwt>0</asrwt>
<pdfrwt beam="1">  1        1 0.16068634E+00 0.21003351E+04</pdfrwt>
<pdfrwt beam="2">  1       -1 0.16244694E+00 0.21003351E+04</pdfrwt>
<totfact> 0.35997170E+00</totfact>
</mgrwt>
</event>
<event>
12    1  0.1598876E-007  0.2419860E+04  0.7818608E-02  0.8432105E-01
          1   -1    0    0  501    0  0.00000000000E+00  0.00000000000E+00  0.55638365733E+03  0.55638365733E+03  0.00000000000E+00 0. -1.
         -1   -1    0    0    0  501 -0.00000000000E+00 -0.00000000000E+00 -0.26311535847E+04  0.26311535847E+04  0.00000000000E+00 0.  1.
         23    2    1    2    0    0 -0.27622638321E+00  0.30092370373E+03 -0.22078292873E+04  0.22300927764E+04  0.90821128962E+02 0.  0.
        254    2    1    2    0    0  0.27622638321E+00 -0.30092370373E+03  0.13305935998E+03  0.95744446564E+03  0.89913289326E+03 0.  0.
        -24    2    4    4    0    0 -0.31289333058E+03  0.17934098093E+03  0.52095447773E+02  0.37303907229E+03  0.79867327576E+02 0.  0.
         24    2    4    4    0    0  0.31316955696E+03 -0.48026468466E+03  0.80963912202E+02  0.58440539335E+03  0.79026387758E+02 0.  0.
         11    1    3    3    0    0  0.74695955102E+01  0.22675842070E+03 -0.13405538156E+04  0.13596174862E+04  0.00000000000E+00 0.  1.
        -11    1    3    3    0    0 -0.77458218934E+01  0.74165283021E+02 -0.86727547171E+03  0.87047529016E+03  0.00000000000E+00 0. -1.
          2    1    6    6  502    0  0.30808438852E+03 -0.45672192636E+03  0.90870025349E+02  0.55836213158E+03  0.00000000000E+00 0. -1.
          3    1    5    5  503    0 -0.31467433970E+03  0.18222973063E+03  0.55942384310E+02  0.36790918058E+03  0.00000000000E+00 0. -1.
         -4    1    5    5    0  503  0.17810091219E+01 -0.28887496932E+01 -0.38469365367E+01  0.51298917142E+01  0.00000000000E+00 0.  1.
         -1    1    6    6    0  502  0.50851684401E+01 -0.23542758297E+02 -0.99061131472E+01  0.26043261777E+02  0.00000000000E+00 0.  1.
<mgrwt>
<rscale>  0 0.24198602E+04</rscale>
<asrwt>0</asrwt>
<pdfrwt beam="1">  1        1 0.85597487E-01 0.24198602E+04</pdfrwt>
<pdfrwt beam="2">  1       -1 0.40479285E+00 0.24198602E+04</pdfrwt>
<totfact> 0.22649405E-01</totfact>
</mgrwt>
</event>
<event>
12    1  0.1866083E-007  0.1918603E+04  0.7818608E-02  0.8645652E-01
          2   -1    0    0  501    0  0.00000000000E+00  0.00000000000E+00  0.11424327146E+04  0.11424327146E+04  0.00000000000E+00 0. -1.
         -2   -1    0    0    0  501 -0.00000000000E+00 -0.00000000000E+00 -0.80552608511E+03  0.80552608511E+03  0.00000000000E+00 0.  1.
         23    2    1    2    0    0  0.50067580779E+03 -0.35359697685E+03 -0.30632531284E+03  0.69105841594E+03  0.89551384208E+02 0.  0.
        254    2    1    2    0    0 -0.50067580779E+03  0.35359697685E+03  0.64323194232E+03  0.12569003838E+04  0.88901302382E+03 0.  0.
        -24    2    4    4    0    0 -0.23595265664E+03  0.12568432610E+03 -0.19823175960E+03  0.34220488340E+03  0.79612472042E+02 0.  0.
         24    2    4    4    0    0 -0.26472315115E+03  0.22791265076E+03  0.84146370192E+03  0.91469550036E+03  0.81142920803E+02 0.  0.
         13    1    3    3    0    0  0.92336347983E+02 -0.41995352102E+02 -0.21383346794E+02  0.10366705493E+03  0.00000000000E+00 0. -1.
        -13    1    3    3    0    0  0.40833945980E+03 -0.31160162475E+03 -0.28494196604E+03  0.58739136101E+03  0.00000000000E+00 0.  1.
          4    1    6    6  502    0 -0.95104457238E+01 -0.68404050680E+01  0.32413490023E+02  0.34465548811E+02  0.00000000000E+00 0. -1.
          1    1    5    5  503    0 -0.52640054913E+02 -0.54784960609E+01 -0.29056242120E+02  0.60375943110E+02  0.00000000000E+00 0. -1.
         -2    1    5    5    0  503 -0.18331260173E+03  0.13116282216E+03 -0.16917551748E+03  0.28182894029E+03  0.00000000000E+00 0.  1.
         -3    1    6    6    0  502 -0.25521270542E+03  0.23475305582E+03  0.80905021190E+03  0.88022995154E+03  0.00000000000E+00 0.  1.
<mgrwt>
<rscale>  0 0.19186030E+04</rscale>
<asrwt>0</asrwt>
<pdfrwt beam="1">  1        2 0.17575888E+00 0.19186030E+04</pdfrwt>
<pdfrwt beam="2">  1       -2 0.12392709E+00 0.19186030E+04</pdfrwt>
<totfact> 0.94029487E+00</totfact>
</mgrwt>
</event>
<event>
12    1  0.1598876E-007  0.1560242E+04  0.7818608E-02  0.8845352E-01
         -2   -1    0    0    0  501 -0.00000000000E+00  0.00000000000E+00  0.47512215256E+03  0.47512215256E+03  0.00000000000E+00 0. -1.
          2   -1    0    0  501    0  0.00000000000E+00 -0.00000000000E+00 -0.12809095812E+04  0.12809095812E+04  0.00000000000E+00 0.  1.
         23    2    1    2    0    0 -0.46664513368E+03 -0.20785615010E+03 -0.24744936097E+03  0.57556652581E+03  0.95308863485E+02 0.  0.
        254    2    1    2    0    0  0.46664513368E+03  0.20785615010E+03 -0.55833806773E+03  0.11804652080E+04  0.90597728972E+03 0.  0.
        -24    2    4    4    0    0  0.26973445516E+03  0.55395128512E+03 -0.43005154916E+03  0.75571103895E+03  0.80846378229E+02 0.  0.
         24    2    4    4    0    0  0.19691067852E+03 -0.34609513502E+03 -0.12828651857E+03  0.42475416905E+03  0.73505207164E+02 0.  0.
         11    1    3    3    0    0 -0.18242502345E+03 -0.10952473445E+03 -0.14646916451E+03  0.25831719414E+03  0.00000000000E+00 0.  1.
        -11    1    3    3    0    0 -0.28422011023E+03 -0.98331415649E+02 -0.10098019646E+03  0.31724933166E+03  0.00000000000E+00 0. -1.
          2    1    6    6  502    0  0.19739078540E+03 -0.30288832816E+03 -0.11843714293E+03  0.38043635253E+03  0.00000000000E+00 0. -1.
          3    1    5    5  503    0  0.70348439579E+02  0.23243266119E+03 -0.15782506590E+03  0.28962492359E+03  0.00000000000E+00 0. -1.
         -4    1    5    5    0  503  0.19938601558E+03  0.32151862392E+03 -0.27222648326E+03  0.46608611536E+03  0.00000000000E+00 0.  1.
         -1    1    6    6    0  502 -0.48010687388E+00 -0.43206806852E+02 -0.98493756379E+01  0.44317816523E+02  0.00000000000E+00 0.  1.
<mgrwt>
<rscale>  0 0.15602417E+04</rscale>
<asrwt>0</asrwt>
<pdfrwt beam="1">  1        2 0.19706301E+00 0.15602417E+04</pdfrwt>
<pdfrwt beam="2">  1       -2 0.73095716E-01 0.15602417E+04</pdfrwt>
<totfact> 0.27578879E+01</totfact>
</mgrwt>
</event>
<event>
12    1  0.1598876E-007  0.1868597E+04  0.7818608E-02  0.8670647E-01
          2   -1    0    0  501    0  0.00000000000E+00  0.00000000000E+00  0.42762259658E+03  0.42762259658E+03  0.00000000000E+00 0. -1.
         -2   -1    0    0    0  501 -0.00000000000E+00 -0.00000000000E+00 -0.20413182642E+04  0.20413182642E+04  0.00000000000E+00 0.  1.
         23    2    1    2    0    0  0.55694706304E+02  0.70853802870E+03 -0.61924454492E+03  0.94736505222E+03  0.94385895800E+02 0.  0.
        254    2    1    2    0    0 -0.55694706304E+02 -0.70853802870E+03 -0.99445112268E+03  0.15215758085E+04  0.90616326748E+03 0.  0.
        -24    2    4    4    0    0 -0.10567642574E+03 -0.54590700558E+03 -0.56102856779E+02  0.56446566601E+03  0.79322076765E+02 0.  0.
         24    2    4    4    0    0  0.49981719439E+02 -0.16263102312E+03 -0.93834826590E+03  0.95711014254E+03  0.81334708961E+02 0.  0.
         11    1    3    3    0    0  0.66518070962E+01  0.90456889020E+02 -0.12507811310E+03  0.15450317047E+03  0.00000000000E+00 0.  1.
        -11    1    3    3    0    0  0.49042899208E+02  0.61808113968E+03 -0.49416643183E+03  0.79286188175E+03  0.00000000000E+00 0. -1.
          2    1    6    6  502    0  0.24865345748E+02 -0.14595571119E+03 -0.62423129138E+03  0.64154973322E+03  0.00000000000E+00 0. -1.
          3    1    5    5  503    0 -0.82020939660E+02 -0.38779721860E+03 -0.42560606961E+01  0.39639908091E+03  0.00000000000E+00 0. -1.
         -4    1    5    5    0  503 -0.23655486083E+02 -0.15810978698E+03 -0.51846796083E+02  0.16806658509E+03  0.00000000000E+00 0.  1.
         -1    1    6    6    0  502  0.25116373692E+02 -0.16675311937E+02 -0.31411697451E+03  0.31556040933E+03  0.00000000000E+00 0.  1.
<mgrwt>
<rscale>  0 0.18685971E+04</rscale>
<asrwt>0</asrwt>
<pdfrwt beam="1">  1        2 0.65788091E-01 0.18685971E+04</pdfrwt>
<pdfrwt beam="2">  1       -2 0.31404897E+00 0.18685971E+04</pdfrwt>
<totfact> 0.18070404E+00</totfact>
</mgrwt>
</event>
<event>
12    1  0.1598876E-007  0.1230990E+04  0.7818608E-02  0.9086155E-01
          2   -1    0    0  501    0  0.00000000000E+00  0.00000000000E+00  0.23970623056E+04  0.23970623056E+04  0.00000000000E+00 0.  1.
         -2   -1    0    0    0  501 -0.00000000000E+00 -0.00000000000E+00 -0.15804103521E+03  0.15804103521E+03  0.00000000000E+00 0. -1.
         23    2    1    2    0    0 -0.54953837241E+02  0.33992060411E+02 -0.30378180712E+02  0.11222118276E+03  0.86575837265E+02 0.  0.
        254    2    1    2    0    0  0.54953837241E+02 -0.33992060411E+02  0.22693994511E+04  0.24428821581E+04  0.90184476769E+03 0.  0.
        -24    2    4    4    0    0  0.33441479722E+03  0.25315404017E+03  0.16254102149E+04  0.16804716602E+04  0.78143517887E+02 0.  0.
         24    2    4    4    0    0 -0.27946095998E+03 -0.28714610058E+03  0.64398923622E+03  0.76241049785E+03  0.77435906678E+02 0.  0.
         13    1    3    3    0    0 -0.59767304056E+02  0.18057901390E+02 -0.54525300797E+02  0.82892863768E+02  0.00000000000E+00 0. -1.
        -13    1    3    3    0    0  0.48134668157E+01  0.15934159021E+02  0.24147120084E+02  0.29328318991E+02  0.00000000000E+00 0.  1.
          4    1    6    6  502    0 -0.19401713069E+03 -0.24547255446E+03  0.50249915481E+03  0.59195001696E+03  0.00000000000E+00 0. -1.
          1    1    5    5  503    0  0.23701174459E+03  0.13355245968E+03  0.10696379854E+04  0.11036920977E+04  0.00000000000E+00 0. -1.
         -2    1    5    5    0  503  0.97403052628E+02  0.11960158049E+03  0.55577222946E+03  0.57677956254E+03  0.00000000000E+00 0.  1.
         -3    1    6    6    0  502 -0.85443829290E+02 -0.41673546121E+02  0.14149008141E+03  0.17046048090E+03  0.00000000000E+00 0.  1.
<mgrwt>
<rscale>  0 0.12309902E+04</rscale>
<asrwt>0</asrwt>
<pdfrwt beam="1">  1        2 0.36877879E+00 0.12309902E+04</pdfrwt>
<pdfrwt beam="2">  1       -2 0.24314007E-01 0.12309902E+04</pdfrwt>
<totfact> 0.59571163E+01</totfact>
</mgrwt>
</event>
<event>
12    1  0.1598876E-007  0.1926675E+04  0.7818608E-02  0.8641691E-01
         -1   -1    0    0    0  501 -0.00000000000E+00  0.00000000000E+00  0.40465033743E+03  0.40465033743E+03  0.00000000000E+00 0.  1.
          1   -1    0    0  501    0  0.00000000000E+00 -0.00000000000E+00 -0.22933844747E+04  0.22933844747E+04  0.00000000000E+00 0. -1.
         23    2    1    2    0    0  0.31833138174E+03 -0.67401959831E+03 -0.81104727300E+03  0.11054519143E+04  0.92676687236E+02 0.  0.
        254    2    1    2    0    0 -0.31833138174E+03  0.67401959831E+03 -0.10776868643E+04  0.15925828978E+04  0.90513757045E+03 0.  0.
        -24    2    4    4    0    0  0.55487828577E+01  0.67570610723E+03 -0.10589137655E+04  0.12586702789E+04  0.79642802074E+02 0.  0.
         24    2    4    4    0    0 -0.32388016460E+03 -0.16865089153E+01 -0.18773098723E+02  0.33391261885E+03  0.79019000608E+02 0.  0.
         13    1    3    3    0    0  0.15489831623E+03 -0.35777103260E+03 -0.48918712619E+03  0.62553788419E+03  0.00000000000E+00 0. -1.
        -13    1    3    3    0    0  0.16343306551E+03 -0.31624856571E+03 -0.32186014682E+03  0.47991403014E+03  0.00000000000E+00 0.  1.
          2    1    6    6  502    0 -0.28776980092E+03  0.87134506765E+01 -0.40137094778E+02  0.29068603152E+03  0.00000000000E+00 0. -1.
          3    1    5    5  503    0 -0.19864400061E+02  0.48816618966E+03 -0.81067551550E+03  0.94651762506E+03  0.00000000000E+00 0. -1.
         -2    1    5    5    0  503  0.25413182918E+02  0.18753991756E+03 -0.24823825004E+03  0.31215265389E+03  0.00000000000E+00 0.  1.
         -1    1    6    6    0  502 -0.36110363683E+02 -0.10399959592E+02  0.21363996055E+02  0.43226587331E+02  0.00000000000E+00 0.  1.
<mgrwt>
<rscale>  0 0.19266746E+04</rscale>
<asrwt>0</asrwt>
<pdfrwt beam="1">  1        1 0.35282838E+00 0.19266746E+04</pdfrwt>
<pdfrwt beam="2">  1       -1 0.62253898E-01 0.19266746E+04</pdfrwt>
<totfact> 0.45960394E+00</totfact>
</mgrwt>
</event>
<event>
12    1  0.1598876E-007  0.1180642E+04  0.7818608E-02  0.9129971E-01
          2   -1    0    0  501    0  0.00000000000E+00  0.00000000000E+00  0.52251472489E+03  0.52251472489E+03  0.00000000000E+00 0.  1.
         -2   -1    0    0    0  501 -0.00000000000E+00 -0.00000000000E+00 -0.66692625751E+03  0.66692625751E+03  0.00000000000E+00 0. -1.
         23    2    1    2    0    0  0.99478686456E+02  0.31315874136E+02  0.17239955548E+03  0.22114271950E+03  0.91136176262E+02 0.  0.
        254    2    1    2    0    0 -0.99478686456E+02 -0.31315874136E+02 -0.31681108811E+03  0.96829826290E+03  0.90904101522E+03 0.  0.
        -24    2    4    4    0    0 -0.30806987794E+03  0.18412293293E+03  0.15846904299E+03  0.40050769802E+03  0.80533685236E+02 0.  0.
         24    2    4    4    0    0  0.20859119148E+03 -0.21543880707E+03 -0.47528013110E+03  0.56779056488E+03  0.81060210941E+02 0.  0.
         13    1    3    3    0    0 -0.12203698422E+02 -0.10391354809E+02  0.39387694803E+02  0.42524122705E+02  0.00000000000E+00 0. -1.
        -13    1    3    3    0    0  0.11168238488E+03  0.41707228945E+02  0.13301186068E+03  0.17861859679E+03  0.00000000000E+00 0.  1.
          2    1    6    6  502    0  0.71139017033E+02 -0.35641630564E+02 -0.83502808414E+02  0.11534211974E+03  0.00000000000E+00 0. -1.
          3    1    5    5  503    0 -0.60891700291E+02  0.66165670051E+02  0.14467497109E+02  0.91076909973E+02  0.00000000000E+00 0. -1.
         -4    1    5    5    0  503 -0.24717817765E+03  0.11795726288E+03  0.14400154588E+03  0.30943078804E+03  0.00000000000E+00 0.  1.
         -1    1    6    6    0  502  0.13745217445E+03 -0.17979717651E+03 -0.39177732269E+03  0.45244844514E+03  0.00000000000E+00 0.  1.
<mgrwt>
<rscale>  0 0.11806418E+04</rscale>
<asrwt>0</asrwt>
<pdfrwt beam="1">  1        2 0.80386881E-01 0.11806418E+04</pdfrwt>
<pdfrwt beam="2">  1       -2 0.10260404E+00 0.11806418E+04</pdfrwt>
<totfact> 0.44900125E+01</totfact>
</mgrwt>
</event>
<event>
12    1  0.1598876E-007  0.1692559E+04  0.7818608E-02  0.8765620E-01
          2   -1    0    0  501    0  0.00000000000E+00  0.00000000000E+00  0.61564951360E+03  0.61564951360E+03  0.00000000000E+00 0. -1.
         -2   -1    0    0    0  501 -0.00000000000E+00 -0.00000000000E+00 -0.11633064000E+04  0.11633064000E+04  0.00000000000E+00 0.  1.
         23    2    1    2    0    0  0.15216449913E+03 -0.89382474018E+02  0.41336099024E+03  0.45867801551E+03  0.91514764969E+02 0.  0.
        254    2    1    2    0    0 -0.15216449913E+03  0.89382474018E+02 -0.96101787669E+03  0.13202778981E+04  0.88793868455E+03 0.  0.
        -24    2    4    4    0    0 -0.51262033916E+03  0.31170282031E+02 -0.66125092175E+03  0.84083544154E+03  0.77461342834E+02 0.  0.
         24    2    4    4    0    0  0.36045584002E+03  0.58212191987E+02 -0.29976695494E+03  0.47944245660E+03  0.81778787038E+02 0.  0.
         13    1    3    3    0    0  0.14851736768E-01 -0.30093166690E+02  0.32530587355E+02  0.44315212011E+02  0.00000000000E+00 0.  1.
        -13    1    3    3    0    0  0.15214964740E+03 -0.59289307328E+02  0.38083040288E+03  0.41436280350E+03  0.00000000000E+00 0. -1.
          4    1    6    6  502    0  0.34792162847E+03  0.66952645154E+02 -0.26818998204E+03  0.44436244522E+03  0.00000000000E+00 0. -1.
          3    1    5    5  503    0 -0.33500411927E+03  0.52727741734E+02 -0.46093191084E+03  0.57224662612E+03  0.00000000000E+00 0. -1.
         -4    1    5    5    0  503 -0.17761621989E+03 -0.21557459703E+02 -0.20031901091E+03  0.26858881542E+03  0.00000000000E+00 0.  1.
         -3    1    6    6    0  502  0.12534211550E+02 -0.87404531664E+01 -0.31576972903E+02  0.35080011381E+02  0.00000000000E+00 0.  1.
<mgrwt>
<rscale>  0 0.16925590E+04</rscale>
<asrwt>0</asrwt>
<pdfrwt beam="1">  1        2 0.94715310E-01 0.16925590E+04</pdfrwt>
<pdfrwt beam="2">  1       -2 0.17897021E+00 0.16925590E+04</pdfrwt>
<totfact> 0.84283827E+00</totfact>
</mgrwt>
</event>
<event>
12    1  0.1598876E-007  0.1643318E+04  0.7818608E-02  0.8794369E-01
         -2   -1    0    0    0  501 -0.00000000000E+00  0.00000000000E+00  0.42338628493E+03  0.42338628493E+03  0.00000000000E+00 0.  1.
          2   -1    0    0  501    0  0.00000000000E+00 -0.00000000000E+00 -0.15945812598E+04  0.15945812598E+04  0.00000000000E+00 0. -1.
         23    2    1    2    0    0 -0.56428412665E+03  0.41215873306E+02 -0.46580391544E+03  0.73865016160E+03  0.92279194794E+02 0.  0.
        254    2    1    2    0    0  0.56428412665E+03 -0.41215873306E+02 -0.70539105945E+03  0.12793173832E+04  0.90496469339E+03 0.  0.
        -24    2    4    4    0    0 -0.22158979496E+03  0.90914478574E+02 -0.84355089092E+02  0.26598698437E+03  0.79156902105E+02 0.  0.
         24    2    4    4    0    0  0.78587392161E+03 -0.13213035188E+03 -0.62103597035E+03  0.10133303988E+04  0.78080535806E+02 0.  0.
         13    1    3    3    0    0 -0.32275656600E+03  0.57062147743E+02 -0.30754488309E+03  0.44945716672E+03  0.00000000000E+00 0.  1.
        -13    1    3    3    0    0 -0.24152756065E+03 -0.15846274437E+02 -0.15825903234E+03  0.28919299488E+03  0.00000000000E+00 0. -1.
          2    1    6    6  502    0  0.37005664487E+03 -0.74363723162E+02 -0.24721215136E+03  0.45120475564E+03  0.00000000000E+00 0. -1.
          1    1    5    5  503    0 -0.42763990903E+02  0.51091727702E+02 -0.65637945480E+01  0.66949286452E+02  0.00000000000E+00 0. -1.
         -2    1    5    5    0  503 -0.17882580406E+03  0.39822750872E+02 -0.77791294544E+02  0.19903769791E+03  0.00000000000E+00 0.  1.
         -1    1    6    6    0  502  0.41581727674E+03 -0.57766628718E+02 -0.37382381900E+03  0.56212564314E+03  0.00000000000E+00 0.  1.
<mgrwt>
<rscale>  0 0.16433184E+04</rscale>
<asrwt>0</asrwt>
<pdfrwt beam="1">  1        2 0.24532019E+00 0.16433184E+04</pdfrwt>
<pdfrwt beam="2">  1       -2 0.65136352E-01 0.16433184E+04</pdfrwt>
<totfact> 0.23324066E+01</totfact>
</mgrwt>
</event>
<event>
12    1  0.1598876E-007  0.1536652E+04  0.7818608E-02  0.8860439E-01
         -1   -1    0    0    0  501 -0.00000000000E+00  0.00000000000E+00  0.38498239727E+03  0.38498239727E+03  0.00000000000E+00 0.  1.
          1   -1    0    0  501    0  0.00000000000E+00 -0.00000000000E+00 -0.15333817880E+04  0.15333817880E+04  0.00000000000E+00 0. -1.
         23    2    1    2    0    0 -0.40692580367E+03  0.28340901777E+03 -0.41449749129E+03  0.65261017100E+03  0.90457636221E+02 0.  0.
        254    2    1    2    0    0  0.40692580367E+03 -0.28340901777E+03 -0.73390189946E+03  0.12657540143E+04  0.90421896994E+03 0.  0.
        -24    2    4    4    0    0  0.28268791551E+03  0.10151927325E+03  0.10730176499E+03  0.32902629318E+03  0.80783738546E+02 0.  0.
         24    2    4    4    0    0  0.12423788816E+03 -0.38492829102E+03 -0.84120366445E+03  0.93672772111E+03  0.78932732932E+02 0.  0.
         11    1    3    3    0    0 -0.20065369686E+02  0.18855416633E+02 -0.56507805910E+02  0.62859191259E+02  0.00000000000E+00 0. -1.
        -11    1    3    3    0    0 -0.38686043399E+03  0.26455360114E+03 -0.35798968538E+03  0.58975097974E+03  0.00000000000E+00 0.  1.
          4    1    6    6  502    0  0.12910733123E+03 -0.38578386734E+03 -0.82611196404E+03  0.92084682353E+03  0.00000000000E+00 0. -1.
          3    1    5    5  503    0  0.12891029540E+03  0.67481049993E+02  0.88756602702E+02  0.17043852526E+03  0.00000000000E+00 0. -1.
         -4    1    5    5    0  503  0.15377762011E+03  0.34038223256E+02  0.18545162293E+02  0.15858776792E+03  0.00000000000E+00 0.  1.
         -3    1    6    6    0  502 -0.48694430645E+01  0.85557632264E+00 -0.15091700414E+02  0.15880897581E+02  0.00000000000E+00 0.  1.
<mgrwt>
<rscale>  0 0.15366522E+04</rscale>
<asrwt>0</asrwt>
<pdfrwt beam="1">  1        1 0.23590489E+00 0.15366522E+04</pdfrwt>
<pdfrwt beam="2">  1       -1 0.59228061E-01 0.15366522E+04</pdfrwt>
<totfact> 0.17285640E+01</totfact>
</mgrwt>
</event>
<event>
12    1  0.1598876E-007  0.1402914E+04  0.7818608E-02  0.8951712E-01
         -2   -1    0    0    0  501 -0.00000000000E+00  0.00000000000E+00  0.18805975089E+03  0.18805975089E+03  0.00000000000E+00 0.  1.
          2   -1    0    0  501    0  0.00000000000E+00 -0.00000000000E+00 -0.26164129928E+04  0.26164129928E+04  0.00000000000E+00 0. -1.
         23    2    1    2    0    0  0.34126927852E+03 -0.14793590330E+03 -0.43713597337E+03  0.58036343929E+03  0.85930847224E+02 0.  0.
        254    2    1    2    0    0 -0.34126927852E+03  0.14793590330E+03 -0.19912172685E+04  0.22241093043E+04  0.91834973479E+03 0.  0.
        -24    2    4    4    0    0  0.23640711510E+02 -0.26654585365E+03 -0.18882156906E+03  0.33730265269E+03  0.80708854688E+02 0.  0.
         24    2    4    4    0    0 -0.36490999003E+03  0.41448175695E+03 -0.18023956994E+04  0.18868066517E+04  0.80340872212E+02 0.  0.
         11    1    3    3    0    0  0.26933619282E+03 -0.10781497412E+03 -0.38795250558E+03  0.48443080000E+03  0.00000000000E+00 0. -1.
        -11    1    3    3    0    0  0.71933085705E+02 -0.40120929178E+02 -0.49183467792E+02  0.95932639290E+02  0.00000000000E+00 0.  1.
          2    1    6    6  502    0 -0.22035279408E+03  0.30295533196E+03 -0.11621093542E+04  0.12209977224E+04  0.00000000000E+00 0. -1.
          3    1    5    5  503    0 -0.90659863737E+01 -0.19694489676E+03 -0.16413683554E+03  0.25653534893E+03  0.00000000000E+00 0. -1.
         -4    1    5    5    0  503  0.32706697883E+02 -0.69600956899E+02 -0.24684733520E+02  0.80767303760E+02  0.00000000000E+00 0.  1.
         -1    1    6    6    0  502 -0.14455719595E+03  0.11152642499E+03 -0.64028634523E+03  0.66580892924E+03  0.00000000000E+00 0.  1.
<mgrwt>
<rscale>  0 0.14029141E+04</rscale>
<asrwt>0</asrwt>
<pdfrwt beam="1">  1        2 0.40252505E+00 0.14029141E+04</pdfrwt>
<pdfrwt beam="2">  1       -2 0.28932272E-01 0.14029141E+04</pdfrwt>
<totfact> 0.31923557E+01</totfact>
</mgrwt>
</event>
<event>
12    1  0.1598876E-007  0.3448297E+04  0.7818608E-02  0.8126153E-01
         -1   -1    0    0    0  501 -0.00000000000E+00  0.00000000000E+00  0.16436883464E+04  0.16436883464E+04  0.00000000000E+00 0.  1.
          1   -1    0    0  501    0  0.00000000000E+00 -0.00000000000E+00 -0.18085477218E+04  0.18085477218E+04  0.00000000000E+00 0. -1.
         23    2    1    2    0    0 -0.89844609430E+03  0.10637479728E+04  0.71793619037E+03  0.15692324819E+04  0.91066321661E+02 0.  0.
        254    2    1    2    0    0  0.89844609430E+03 -0.10637479728E+04 -0.88279556585E+03  0.18830035863E+04  0.90973037810E+03 0.  0.
        -24    2    4    4    0    0 -0.28323171042E+02  0.79102123650E+02  0.65764281738E+02  0.13045263068E+03  0.75057312195E+02 0.  0.
         24    2    4    4    0    0  0.92676926534E+03 -0.11428500964E+04 -0.94855984759E+03  0.17525509556E+04  0.81617727089E+02 0.  0.
         13    1    3    3    0    0 -0.78283951148E+03  0.88157645679E+03  0.58968203954E+03  0.13182335368E+04  0.00000000000E+00 0.  1.
        -13    1    3    3    0    0 -0.11560658282E+03  0.18217151599E+03  0.12825415082E+03  0.25099894509E+03  0.00000000000E+00 0. -1.
          2    1    6    6  502    0  0.10527699749E+03 -0.15268534553E+03 -0.14760091198E+03  0.23702761476E+03  0.00000000000E+00 0. -1.
          1    1    5    5  503    0  0.57653929043E+01  0.91081013077E+01  0.49833158878E+02  0.50985693959E+02  0.00000000000E+00 0. -1.
         -2    1    5    5    0  503 -0.34088563946E+02  0.69994022342E+02  0.15931122861E+02  0.79466936717E+02  0.00000000000E+00 0.  1.
         -1    1    6    6    0  502  0.82149226785E+03 -0.99016475090E+03 -0.80095893560E+03  0.15155233408E+04  0.00000000000E+00 0.  1.
<mgrwt>
<rscale>  0 0.34482974E+04</rscale>
<asrwt>0</asrwt>
<pdfrwt beam="1">  1        1 0.27823811E+00 0.34482974E+04</pdfrwt>
<pdfrwt beam="2">  1       -1 0.25287513E+00 0.34482974E+04</pdfrwt>
<totfact> 0.21993077E-01</totfact>
</mgrwt>
</event>
<event>
12    1  0.1598876E-007  0.2321272E+04  0.7818608E-02  0.8469581E-01
         -2   -1    0    0    0  501 -0.00000000000E+00  0.00000000000E+00  0.14724238673E+04  0.14724238673E+04  0.00000000000E+00 0.  1.
          2   -1    0    0  501    0  0.00000000000E+00 -0.00000000000E+00 -0.91486999214E+03  0.91486999214E+03  0.00000000000E+00 0. -1.
         23    2    1    2    0    0  0.86876777084E+02  0.62051156730E+03 -0.53839400001E+03  0.83105516214E+03  0.90567122755E+02 0.  0.
        254    2    1    2    0    0 -0.86876777084E+02 -0.62051156730E+03  0.10959478752E+04  0.15562386973E+04  0.91005217342E+03 0.  0.
        -24    2    4    4    0    0 -0.10202120535E+03  0.58180747832E+01  0.87903764907E+03  0.88856825600E+03  0.80026125490E+02 0.  0.
         24    2    4    4    0    0  0.15144428268E+02 -0.62632964208E+03  0.21691022612E+03  0.66767044131E+03  0.78839062328E+02 0.  0.
         11    1    3    3    0    0  0.31219794515E+02  0.10171022898E+03 -0.54982393910E+02  0.11976105331E+03  0.00000000000E+00 0.  1.
        -11    1    3    3    0    0  0.55656982569E+02  0.51880133832E+03 -0.48341160610E+03  0.71129410883E+03  0.00000000000E+00 0. -1.
          4    1    6    6  502    0 -0.90910359036E+01 -0.69316153944E+02  0.49078860477E+02  0.85417273881E+02  0.00000000000E+00 0. -1.
          1    1    5    5  503    0 -0.37129183218E+02 -0.21440699438E+02  0.57029113647E+03  0.57190056844E+03  0.00000000000E+00 0. -1.
         -4    1    5    5    0  503 -0.64892022133E+02  0.27258774222E+02  0.30874651259E+03  0.31666768756E+03  0.00000000000E+00 0.  1.
         -3    1    6    6    0  502  0.24235464172E+02 -0.55701348813E+03  0.16783136564E+03  0.58225316743E+03  0.00000000000E+00 0.  1.
<mgrwt>
<rscale>  0 0.23212724E+04</rscale>
<asrwt>0</asrwt>
<pdfrwt beam="1">  1        2 0.14074923E+00 0.23212724E+04</pdfrwt>
<pdfrwt beam="2">  1       -2 0.22652675E+00 0.23212724E+04</pdfrwt>
<totfact> 0.23304748E+00</totfact>
</mgrwt>
</event>
<event>
12    1  0.1598876E-007  0.1493381E+04  0.7818608E-02  0.8888867E-01
          2   -1    0    0  501    0  0.00000000000E+00  0.00000000000E+00  0.54321402433E+03  0.54321402433E+03  0.00000000000E+00 0. -1.
         -2   -1    0    0    0  501 -0.00000000000E+00 -0.00000000000E+00 -0.10263845907E+04  0.10263845907E+04  0.00000000000E+00 0.  1.
         23    2    1    2    0    0  0.47804041344E+02  0.41517975504E+03  0.43371835060E+02  0.43015764264E+03  0.92168465736E+02 0.  0.
        254    2    1    2    0    0 -0.47804041344E+02 -0.41517975504E+03 -0.52654240141E+03  0.11394409724E+04  0.92001052911E+03 0.  0.
        -24    2    4    4    0    0  0.21442579644E+03 -0.70845344297E+02 -0.64233522570E+03  0.68525765412E+03  0.77369408451E+02 0.  0.
         24    2    4    4    0    0 -0.26222983778E+03 -0.34433441074E+03  0.11579282430E+03  0.45418331825E+03  0.74456928315E+02 0.  0.
         11    1    3    3    0    0 -0.11538556245E+02  0.27479008310E+03  0.17768540271E+02  0.27560560421E+03  0.00000000000E+00 0.  1.
        -11    1    3    3    0    0  0.59342597589E+02  0.14038967194E+03  0.25603294789E+02  0.15455203842E+03  0.00000000000E+00 0. -1.
          4    1    6    6  502    0 -0.23329517539E+03 -0.26056183997E+03  0.10330324333E+03  0.36467886063E+03  0.00000000000E+00 0. -1.
          1    1    5    5  503    0  0.15563827125E+03 -0.13979459250E+02 -0.39696012710E+03  0.42660993808E+03  0.00000000000E+00 0. -1.
         -2    1    5    5    0  503  0.58787525189E+02 -0.56865885047E+02 -0.24537509860E+03  0.25864771604E+03  0.00000000000E+00 0.  1.
         -3    1    6    6    0  502 -0.28934662396E+02 -0.83772570770E+02  0.12489580973E+02  0.89504457622E+02  0.00000000000E+00 0.  1.
<mgrwt>
<rscale>  0 0.14933807E+04</rscale>
<asrwt>0</asrwt>
<pdfrwt beam="1">  1        2 0.83571389E-01 0.14933807E+04</pdfrwt>
<pdfrwt beam="2">  1       -2 0.15790532E+00 0.14933807E+04</pdfrwt>
<totfact> 0.14087132E+01</totfact>
</mgrwt>
</event>
<event>
12    1  0.1598876E-007  0.1818312E+04  0.7818608E-02  0.8696622E-01
         -1   -1    0    0    0  501 -0.00000000000E+00  0.00000000000E+00  0.41342730839E+03  0.41342730839E+03  0.00000000000E+00 0.  1.
          1   -1    0    0  501    0  0.00000000000E+00 -0.00000000000E+00 -0.19992978990E+04  0.19992978990E+04  0.00000000000E+00 0. -1.
         23    2    1    2    0    0 -0.24789121407E+03 -0.19256663823E+03  0.20370590847E+03  0.38542400381E+03  0.92323352380E+02 0.  0.
        254    2    1    2    0    0  0.24789121407E+03  0.19256663823E+03 -0.17895764991E+04  0.20273012036E+04  0.89935207777E+03 0.  0.
        -24    2    4    4    0    0 -0.23380081060E+03  0.17354802594E+03 -0.13036963831E+04  0.13382640645E+04  0.80899386720E+02 0.  0.
         24    2    4    4    0    0  0.48169202466E+03  0.19018612286E+02 -0.48588011601E+03  0.68903713907E+03  0.79396332681E+02 0.  0.
         13    1    3    3    0    0 -0.63350333058E+02 -0.43505172468E+01  0.43394192906E+02  0.76910647357E+02  0.00000000000E+00 0. -1.
        -13    1    3    3    0    0 -0.18454088101E+03 -0.18821612098E+03  0.16031171557E+03  0.30851335645E+03  0.00000000000E+00 0.  1.
          2    1    6    6  502    0  0.21005997796E+03  0.36359537866E+01 -0.26767220782E+03  0.34027463223E+03  0.00000000000E+00 0. -1.
          1    1    5    5  503    0 -0.10165862258E+03  0.48356948598E+02 -0.36067122983E+03  0.37783145191E+03  0.00000000000E+00 0. -1.
         -2    1    5    5    0  503 -0.13214218802E+03  0.12519107735E+03 -0.94302515325E+03  0.96043261261E+03  0.00000000000E+00 0.  1.
         -1    1    6    6    0  502  0.27163204671E+03  0.15382658500E+02 -0.21820790820E+03  0.34876250684E+03  0.00000000000E+00 0.  1.
<mgrwt>
<rscale>  0 0.18183117E+04</rscale>
<asrwt>0</asrwt>
<pdfrwt beam="1">  1        1 0.30758429E+00 0.18183117E+04</pdfrwt>
<pdfrwt beam="2">  1       -1 0.63604202E-01 0.18183117E+04</pdfrwt>
<totfact> 0.70468075E+00</totfact>
</mgrwt>
</event>
<event>
12    1  0.1598876E-007  0.1784009E+04  0.7818608E-02  0.8714850E-01
         -2   -1    0    0    0  501 -0.00000000000E+00  0.00000000000E+00  0.14474768501E+04  0.14474768501E+04  0.00000000000E+00 0.  1.
          2   -1    0    0  501    0  0.00000000000E+00 -0.00000000000E+00 -0.54969566746E+03  0.54969566746E+03  0.00000000000E+00 0. -1.
         23    2    1    2    0    0 -0.19325889001E+03 -0.49964013896E+03 -0.10109729984E+03  0.55210623859E+03  0.87243152321E+02 0.  0.
        254    2    1    2    0    0  0.19325889001E+03  0.49964013896E+03  0.99887848246E+03  0.14450662789E+04  0.89636435717E+03 0.  0.
        -24    2    4    4    0    0 -0.20968206457E+03 -0.12416018707E+03  0.94823526225E+02  0.27233886738E+03  0.76122515088E+02 0.  0.
         24    2    4    4    0    0  0.40294095458E+03  0.62380032604E+03  0.90405495623E+03  0.11727274116E+04  0.80535447555E+02 0.  0.
         11    1    3    3    0    0 -0.41076561271E+02 -0.40433540835E+02 -0.23087831385E+02  0.62090281593E+02  0.00000000000E+00 0.  1.
        -11    1    3    3    0    0 -0.15218232874E+03 -0.45920659813E+03 -0.78009468451E+02  0.49001595700E+03  0.00000000000E+00 0. -1.
          2    1    6    6  502    0  0.39123606108E+03  0.58349553686E+03  0.87274944914E+03  0.11203679297E+04  0.00000000000E+00 0. -1.
          3    1    5    5  503    0 -0.11116914157E+03 -0.10668480122E+03  0.44682277579E+02  0.16042671467E+03  0.00000000000E+00 0. -1.
         -4    1    5    5    0  503 -0.98512922998E+02 -0.17475385847E+02  0.50141248646E+02  0.11191215271E+03  0.00000000000E+00 0.  1.
         -1    1    6    6    0  502  0.11704893499E+02  0.40304789179E+02  0.31305507090E+02  0.52359481822E+02  0.00000000000E+00 0.  1.
<mgrwt>
<rscale>  0 0.17840087E+04</rscale>
<asrwt>0</asrwt>
<pdfrwt beam="1">  1        2 0.84568565E-01 0.17840087E+04</pdfrwt>
<pdfrwt beam="2">  1       -2 0.22268874E+00 0.17840087E+04</pdfrwt>
<totfact> 0.49457546E+00</totfact>
</mgrwt>
</event>
<event>
12    1  0.1598876E-007  0.2806866E+04  0.7818608E-02  0.8301140E-01
         -1   -1    0    0    0  501 -0.00000000000E+00  0.00000000000E+00  0.99294588596E+03  0.99294588596E+03  0.00000000000E+00 0.  1.
          1   -1    0    0  501    0  0.00000000000E+00 -0.00000000000E+00 -0.19836174718E+04  0.19836174718E+04  0.00000000000E+00 0. -1.
         23    2    1    2    0    0  0.39497994887E+03 -0.70827022698E+02  0.82611795133E+03  0.92290416695E+03  0.90860358303E+02 0.  0.
        254    2    1    2    0    0 -0.39497994887E+03  0.70827022698E+02 -0.18167895372E+04  0.20536591908E+04  0.86934815955E+03 0.  0.
        -24    2    4    4    0    0 -0.45651016081E+03 -0.41090813379E+02 -0.35779738058E+03  0.58688925810E+03  0.79561635578E+02 0.  0.
         24    2    4    4    0    0  0.61530211942E+02  0.11191783608E+03 -0.14589921566E+04  0.14667699327E+04  0.80276730927E+02 0.  0.
         11    1    3    3    0    0  0.77181083849E+02 -0.18915789969E+02  0.93926501799E+02  0.12303216878E+03  0.00000000000E+00 0. -1.
        -11    1    3    3    0    0  0.31779886502E+03 -0.51911232728E+02  0.73219144953E+03  0.79987199817E+03  0.00000000000E+00 0.  1.
          4    1    6    6  502    0 -0.15207249349E+02  0.30225938924E+02 -0.20444160346E+03  0.20722267502E+03  0.00000000000E+00 0. -1.
          3    1    5    5  503    0 -0.77844710436E+02  0.19352225733E+02 -0.44598362159E+02  0.91778654877E+02  0.00000000000E+00 0. -1.
         -4    1    5    5    0  503 -0.37866545037E+03 -0.60443039112E+02 -0.31319901842E+03  0.49511060322E+03  0.00000000000E+00 0.  1.
         -3    1    6    6    0  502  0.76737461291E+02  0.81691897152E+02 -0.12545505531E+04  0.12595472577E+04  0.00000000000E+00 0.  1.
<mgrwt>
<rscale>  0 0.28068664E+04</rscale>
<asrwt>0</asrwt>
<pdfrwt beam="1">  1        1 0.30517192E+00 0.28068664E+04</pdfrwt>
<pdfrwt beam="2">  1       -1 0.15276091E+00 0.28068664E+04</pdfrwt>
<totfact> 0.87832120E-01</totfact>
</mgrwt>
</event>
<event>
12    1  0.1598876E-007  0.1645964E+04  0.7818608E-02  0.8792798E-01
          2   -1    0    0  501    0  0.00000000000E+00  0.00000000000E+00  0.10508848568E+04  0.10508848568E+04  0.00000000000E+00 0. -1.
         -2   -1    0    0    0  501 -0.00000000000E+00 -0.00000000000E+00 -0.64450384577E+03  0.64450384577E+03  0.00000000000E+00 0.  1.
         23    2    1    2    0    0  0.13835310621E+03 -0.11963329780E+03  0.70645007544E+03  0.73541412451E+03  0.91151069608E+02 0.  0.
        254    2    1    2    0    0 -0.13835310621E+03  0.11963329780E+03 -0.30006906441E+03  0.95997457807E+03  0.89333982290E+03 0.  0.
        -24    2    4    4    0    0  0.29172811016E+03  0.15142342791E+03  0.11353627278E+03  0.35701320515E+03  0.80830678785E+02 0.  0.
         24    2    4    4    0    0 -0.43008121637E+03 -0.31790130114E+02 -0.41360533719E+03  0.60296137292E+03  0.80700540461E+02 0.  0.
         11    1    3    3    0    0  0.48734036220E+02 -0.95931085172E+02  0.45118297556E+03  0.46383602364E+03  0.00000000000E+00 0. -1.
        -11    1    3    3    0    0  0.89619069989E+02 -0.23702212626E+02  0.25526709988E+03  0.27157810087E+03  0.00000000000E+00 0.  1.
          2    1    6    6  502    0 -0.73001909496E+02  0.24430163591E+02 -0.64576118035E+02  0.10047978256E+03  0.00000000000E+00 0. -1.
          3    1    5    5  503    0  0.73941765222E+01  0.70356822437E+01  0.23548598789E+02  0.25665369197E+02  0.00000000000E+00 0. -1.
         -4    1    5    5    0  503  0.28433393364E+03  0.14438774567E+03  0.89987673994E+02  0.33134783595E+03  0.00000000000E+00 0.  1.
         -1    1    6    6    0  502 -0.35707930688E+03 -0.56220293706E+02 -0.34902921915E+03  0.50248159036E+03  0.00000000000E+00 0.  1.
<mgrwt>
<rscale>  0 0.16459640E+04</rscale>
<asrwt>0</asrwt>
<pdfrwt beam="1">  1        2 0.16167459E+00 0.16459640E+04</pdfrwt>
<pdfrwt beam="2">  1       -2 0.99154438E-01 0.16459640E+04</pdfrwt>
<totfact> 0.18830648E+01</totfact>
</mgrwt>
</event>
<event>
12    1  0.1598876E-007  0.2778036E+04  0.7818608E-02  0.8310120E-01
         -2   -1    0    0    0  501 -0.00000000000E+00  0.00000000000E+00  0.12326704896E+04  0.12326704896E+04  0.00000000000E+00 0.  1.
          2   -1    0    0  501    0  0.00000000000E+00 -0.00000000000E+00 -0.15651961278E+04  0.15651961278E+04  0.00000000000E+00 0. -1.
         23    2    1    2    0    0 -0.28745737089E+03 -0.68716061225E+03 -0.11078248517E+04  0.13380753936E+04  0.91369632060E+02 0.  0.
        254    2    1    2    0    0  0.28745737089E+03  0.68716061225E+03  0.77529921353E+03  0.14597912238E+04  0.98746144209E+03 0.  0.
        -24    2    4    4    0    0  0.40297518071E+02  0.87658637424E+03  0.70896471434E+03  0.11309151170E+04  0.79438493479E+02 0.  0.
         24    2    4    4    0    0  0.24715985282E+03 -0.18942576199E+03  0.66334499195E+02  0.32887610683E+03  0.82396090377E+02 0.  0.
         13    1    3    3    0    0 -0.19256322930E+02 -0.12651416740E+03 -0.21586245620E+03  0.25094469615E+03  0.00000000000E+00 0.  1.
        -13    1    3    3    0    0 -0.26820104796E+03 -0.56064644485E+03 -0.89196239554E+03  0.10871306974E+04  0.00000000000E+00 0. -1.
          4    1    6    6  502    0  0.16412062585E+03 -0.16036706964E+03  0.72606814151E+02  0.24067597785E+03  0.00000000000E+00 0. -1.
          1    1    5    5  503    0  0.39674741413E+02  0.72469991892E+03  0.62228212018E+03  0.95603299874E+03  0.00000000000E+00 0. -1.
         -2    1    5    5    0  503  0.62277665764E+00  0.15188645532E+03  0.86682594153E+02  0.17488211827E+03  0.00000000000E+00 0.  1.
         -3    1    6    6    0  502  0.83039226970E+02 -0.29058692352E+02 -0.62723149569E+01  0.88200128979E+02  0.00000000000E+00 0.  1.
<mgrwt>
<rscale>  0 0.27780361E+04</rscale>
<asrwt>0</asrwt>
<pdfrwt beam="1">  1        2 0.24079940E+00 0.27780361E+04</pdfrwt>
<pdfrwt beam="2">  1       -2 0.18964161E+00 0.27780361E+04</pdfrwt>
<totfact> 0.15850490E+00</totfact>
</mgrwt>
</event>
<event>
12    1  0.1598876E-007  0.2007309E+04  0.7818608E-02  0.8603211E-01
          2   -1    0    0  501    0  0.00000000000E+00  0.00000000000E+00  0.29657949812E+04  0.29657949812E+04  0.00000000000E+00 0. -1.
         -2   -1    0    0    0  501 -0.00000000000E+00 -0.00000000000E+00 -0.33964673784E+03  0.33964673784E+03  0.00000000000E+00 0.  1.
         23    2    1    2    0    0  0.63590082199E+03 -0.14729068848E+03  0.29087329393E+03  0.72037615226E+03  0.90940229332E+02 0.  0.
        254    2    1    2    0    0 -0.63590082199E+03  0.14729068848E+03  0.23352749494E+04  0.25850655668E+04  0.89609736794E+03 0.  0.
        -24    2    4    4    0    0 -0.75751336503E+03 -0.35639752805E+02  0.11700886032E+04  0.13966171685E+04  0.79595765309E+02 0.  0.
         24    2    4    4    0    0  0.12161254305E+03  0.18293044129E+03  0.11651863462E+04  0.11884483983E+04  0.80605315888E+02 0.  0.
         13    1    3    3    0    0  0.38271430053E+03 -0.66965676048E+02  0.12933526759E+03  0.40949023070E+03  0.00000000000E+00 0.  1.
        -13    1    3    3    0    0  0.25318652146E+03 -0.80325012435E+02  0.16153802635E+03  0.31088592157E+03  0.00000000000E+00 0. -1.
          2    1    6    6  502    0  0.68537917821E+01  0.13246606331E+02  0.25761473082E+03  0.25804611327E+03  0.00000000000E+00 0. -1.
          1    1    5    5  503    0 -0.23317429460E+02 -0.12360246958E+02  0.59366173233E+02  0.64967843937E+02  0.00000000000E+00 0. -1.
         -2    1    5    5    0  503 -0.73419593558E+03 -0.23279505847E+02  0.11107224300E+04  0.13316493246E+04  0.00000000000E+00 0.  1.
         -1    1    6    6    0  502  0.11475875127E+03  0.16968383496E+03  0.90757161540E+03  0.93040228499E+03  0.00000000000E+00 0.  1.
<mgrwt>
<rscale>  0 0.20073092E+04</rscale>
<asrwt>0</asrwt>
<pdfrwt beam="1">  1        2 0.45627613E+00 0.20073092E+04</pdfrwt>
<pdfrwt beam="2">  1       -2 0.52253346E-01 0.20073092E+04</pdfrwt>
<totfact> 0.58838278E+00</totfact>
</mgrwt>
</event>
<event>
12    1  0.1598876E-007  0.1992875E+04  0.7818608E-02  0.8609959E-01
         -2   -1    0    0    0  501 -0.00000000000E+00  0.00000000000E+00  0.83022020457E+03  0.83022020457E+03  0.00000000000E+00 0.  1.
          2   -1    0    0  501    0  0.00000000000E+00 -0.00000000000E+00 -0.11959332749E+04  0.11959332749E+04  0.00000000000E+00 0. -1.
         23    2    1    2    0    0  0.72548489966E+03  0.38292325875E+02 -0.46260625324E+03  0.86580332140E+03  0.88409297821E+02 0.  0.
        254    2    1    2    0    0 -0.72548489966E+03 -0.38292325875E+02  0.96893182873E+02  0.11603501581E+04  0.89957187522E+03 0.  0.
        -24    2    4    4    0    0 -0.33515791805E+03  0.42296799420E+03  0.30910736573E+02  0.54747896116E+03  0.86861873811E+02 0.  0.
         24    2    4    4    0    0 -0.39032698162E+03 -0.46126032008E+03  0.65982446300E+02  0.61287119696E+03  0.78365715626E+02 0.  0.
         13    1    3    3    0    0  0.29592062097E+03 -0.25069918605E+01 -0.14200282888E+03  0.32823787462E+03  0.00000000000E+00 0. -1.
        -13    1    3    3    0    0  0.42956427869E+03  0.40799317735E+02 -0.32060342436E+03  0.53756544678E+03  0.00000000000E+00 0.  1.
          4    1    6    6  502    0 -0.17967206262E+03 -0.18694707726E+03 -0.70196126593E+01  0.25938491618E+03  0.00000000000E+00 0. -1.
          3    1    5    5  503    0 -0.35804234420E+02  0.80831295097E+02  0.28421073295E+02  0.92862257547E+02  0.00000000000E+00 0. -1.
         -4    1    5    5    0  503 -0.29935368363E+03  0.34213669911E+03  0.24896632782E+01  0.45461670361E+03  0.00000000000E+00 0.  1.
         -3    1    6    6    0  502 -0.21065491899E+03 -0.27431324282E+03  0.73002058959E+02  0.35348628077E+03  0.00000000000E+00 0.  1.
<mgrwt>
<rscale>  0 0.19928753E+04</rscale>
<asrwt>0</asrwt>
<pdfrwt beam="1">  1        2 0.18398974E+00 0.19928753E+04</pdfrwt>
<pdfrwt beam="2">  1       -2 0.12772618E+00 0.19928753E+04</pdfrwt>
<totfact> 0.80420456E+00</totfact>
</mgrwt>
</event>
<event>
12    1  0.1598876E-007  0.2012768E+04  0.7818608E-02  0.8600674E-01
          2   -1    0    0  501    0  0.00000000000E+00  0.00000000000E+00  0.25063865739E+04  0.25063865739E+04  0.00000000000E+00 0. -1.
         -2   -1    0    0    0  501 -0.00000000000E+00 -0.00000000000E+00 -0.40409124376E+03  0.40409124376E+03  0.00000000000E+00 0.  1.
         23    2    1    2    0    0  0.28251501274E+03  0.68489602598E+03  0.39744741265E+03  0.84593567263E+03  0.93516937415E+02 0.  0.
        254    2    1    2    0    0 -0.28251501274E+03 -0.68489602598E+03  0.17048479175E+04  0.20645421451E+04  0.89829313035E+03 0.  0.
        -24    2    4    4    0    0  0.27640732620E+03 -0.22937735881E+03  0.26798848095E+03  0.45490472655E+03  0.78137709245E+02 0.  0.
         24    2    4    4    0    0 -0.55892233894E+03 -0.45551866717E+03  0.14368594366E+04  0.16096374185E+04  0.80474477324E+02 0.  0.
         13    1    3    3    0    0  0.17267587036E+03  0.39531588370E+03  0.28213934177E+03  0.51545534461E+03  0.00000000000E+00 0. -1.
        -13    1    3    3    0    0  0.10983914238E+03  0.28958014228E+03  0.11530807088E+03  0.33048032802E+03  0.00000000000E+00 0.  1.
          4    1    6    6  502    0 -0.34034860115E+02 -0.17706794322E+02  0.11960123766E+03  0.12560397413E+03  0.00000000000E+00 0. -1.
          3    1    5    5  503    0  0.35871915115E+02 -0.70378167294E+02  0.50735966679E+02  0.93883007198E+02  0.00000000000E+00 0. -1.
         -4    1    5    5    0  503  0.24053541108E+03 -0.15899919152E+03  0.21725251427E+03  0.36102171935E+03  0.00000000000E+00 0.  1.
         -3    1    6    6    0  502 -0.52488747882E+03 -0.43781187285E+03  0.13172581989E+04  0.14840334444E+04  0.00000000000E+00 0.  1.
<mgrwt>
<rscale>  0 0.20127681E+04</rscale>
<asrwt>0</asrwt>
<pdfrwt beam="1">  1        2 0.38559792E+00 0.20127681E+04</pdfrwt>
<pdfrwt beam="2">  1       -2 0.62167885E-01 0.20127681E+04</pdfrwt>
<totfact> 0.76979509E+00</totfact>
</mgrwt>
</event>
<event>
12    1  0.1598876E-007  0.1215028E+04  0.7818608E-02  0.9099803E-01
          3   -1    0    0  501    0  0.00000000000E+00  0.00000000000E+00  0.55470774380E+03  0.55470774380E+03  0.00000000000E+00 0. -1.
         -3   -1    0    0    0  501 -0.00000000000E+00 -0.00000000000E+00 -0.66534735221E+03  0.66534735221E+03  0.00000000000E+00 0.  1.
         23    2    1    2    0    0  0.25308745286E+03 -0.67744603647E+02 -0.56662878550E+01  0.27651011173E+03  0.88222134143E+02 0.  0.
        254    2    1    2    0    0 -0.25308745286E+03  0.67744603647E+02 -0.10497332055E+03  0.94354498428E+03  0.90034168470E+03 0.  0.
        -24    2    4    4    0    0 -0.36532755542E+03 -0.34097419769E+03 -0.47783204771E+02  0.50833093098E+03  0.79934188499E+02 0.  0.
         24    2    4    4    0    0  0.11224010256E+03  0.40871880134E+03 -0.57190115781E+02  0.43521405330E+03  0.80570861120E+02 0.  0.
         13    1    3    3    0    0  0.87560410129E+02 -0.38549429404E+02 -0.42100956255E+02  0.10452451601E+03  0.00000000000E+00 0. -1.
        -13    1    3    3    0    0  0.16552704273E+03 -0.29195174244E+02  0.36434668400E+02  0.17198559572E+03  0.00000000000E+00 0.  1.
          2    1    6    6  502    0  0.12117058388E+03  0.38015982374E+03 -0.40767136070E+02  0.40108074171E+03  0.00000000000E+00 0. -1.
          1    1    5    5  503    0 -0.10006159345E+03 -0.77278722787E+02 -0.45267037488E+02  0.13428860027E+03  0.00000000000E+00 0. -1.
         -2    1    5    5    0  503 -0.26526596198E+03 -0.26369547490E+03 -0.25161672833E+01  0.37404233071E+03  0.00000000000E+00 0.  1.
         -1    1    6    6    0  502 -0.89304813222E+01  0.28558977593E+02 -0.16422979711E+02  0.34133311594E+02  0.00000000000E+00 0.  1.
<mgrwt>
<rscale>  0 0.12150281E+04</rscale>
<asrwt>0</asrwt>
<pdfrwt beam="1">  1        3 0.85339653E-01 0.12150281E+04</pdfrwt>
<pdfrwt beam="2">  1       -3 0.10236113E+00 0.12150281E+04</pdfrwt>
<totfact> 0.26905670E+00</totfact>
</mgrwt>
</event>
<event>
12    1  0.1598876E-007  0.2115479E+04  0.7818608E-02  0.8554455E-01
          2   -1    0    0  501    0  0.00000000000E+00  0.00000000000E+00  0.32620046185E+04  0.32620046185E+04  0.00000000000E+00 0. -1.
         -2   -1    0    0    0  501 -0.00000000000E+00 -0.00000000000E+00 -0.34298332734E+03  0.34298332734E+03  0.00000000000E+00 0.  1.
         23    2    1    2    0    0  0.67456488275E+03  0.52729147862E+03  0.10522564537E+04  0.13596271534E+04  0.90930013580E+02 0.  0.
        254    2    1    2    0    0 -0.67456488275E+03 -0.52729147862E+03  0.18667648375E+04  0.22453607925E+04  0.90761227711E+03 0.  0.
        -24    2    4    4    0    0 -0.19771344168E+03  0.21787097777E+03  0.80730632433E+03  0.86279288984E+03  0.78164579458E+02 0.  0.
         24    2    4    4    0    0 -0.47685144107E+03 -0.74516245639E+03  0.10594585132E+04  0.13825679027E+04  0.79920467287E+02 0.  0.
         13    1    3    3    0    0  0.54186975283E+03  0.40939674000E+03  0.88670751965E+03  0.11169058802E+04  0.00000000000E+00 0. -1.
        -13    1    3    3    0    0  0.13269512992E+03  0.11789473862E+03  0.16554893403E+03  0.24272127319E+03  0.00000000000E+00 0.  1.
          4    1    6    6  502    0 -0.82728973922E+02 -0.12492790418E+03  0.22891161052E+03  0.27359018586E+03  0.00000000000E+00 0. -1.
          3    1    5    5  503    0 -0.24355288482E+02  0.11161894467E+02  0.31145896467E+02  0.41083267055E+02  0.00000000000E+00 0. -1.
         -4    1    5    5    0  503 -0.17335815320E+03  0.20670908331E+03  0.77616042786E+03  0.82170962279E+03  0.00000000000E+00 0.  1.
         -3    1    6    6    0  502 -0.39412246715E+03 -0.62023455222E+03  0.83054690264E+03  0.11089777168E+04  0.00000000000E+00 0.  1.
<mgrwt>
<rscale>  0 0.21154793E+04</rscale>
<asrwt>0</asrwt>
<pdfrwt beam="1">  1        2 0.50184684E+00 0.21154793E+04</pdfrwt>
<pdfrwt beam="2">  1       -2 0.52766668E-01 0.21154793E+04</pdfrwt>
<totfact> 0.36921010E+00</totfact>
</mgrwt>
</event>
<event>
12    1  0.1598876E-007  0.1628266E+04  0.7818608E-02  0.8803369E-01
         -1   -1    0    0    0  501 -0.00000000000E+00  0.00000000000E+00  0.31455383994E+03  0.31455383994E+03  0.00000000000E+00 0.  1.
          1   -1    0    0  501    0  0.00000000000E+00 -0.00000000000E+00 -0.21071510055E+04  0.21071510055E+04  0.00000000000E+00 0. -1.
         23    2    1    2    0    0 -0.15789680046E+02  0.56822369153E+03 -0.63410659295E+03  0.85642231715E+03  0.90777400688E+02 0.  0.
        254    2    1    2    0    0  0.15789680046E+02 -0.56822369153E+03 -0.11584905726E+04  0.15652825283E+04  0.88593538641E+03 0.  0.
        -24    2    4    4    0    0  0.37369993461E+03 -0.23313684445E+03 -0.20978777263E+03  0.49444107935E+03  0.80353232938E+02 0.  0.
         24    2    4    4    0    0 -0.35791025456E+03 -0.33508684708E+03 -0.94870279995E+03  0.10708414489E+04  0.79255666374E+02 0.  0.
         13    1    3    3    0    0  0.30780911455E+02  0.97297213066E+02 -0.12451757076E+03  0.16099328436E+03  0.00000000000E+00 0.  1.
        -13    1    3    3    0    0 -0.46570591502E+02  0.47092647847E+03 -0.50958902219E+03  0.69542903279E+03  0.00000000000E+00 0. -1.
          2    1    6    6  502    0 -0.25390990036E+03 -0.20069720741E+03 -0.56372504794E+03  0.65002733499E+03  0.00000000000E+00 0. -1.
          1    1    5    5  503    0  0.26803500608E+03 -0.14358877318E+03 -0.10849979607E+03  0.32285090369E+03  0.00000000000E+00 0. -1.
         -2    1    5    5    0  503  0.10566492853E+03 -0.89548071264E+02 -0.10128797656E+03  0.17159017566E+03  0.00000000000E+00 0.  1.
         -1    1    6    6    0  502 -0.10400035420E+03 -0.13438963968E+03 -0.38497775201E+03  0.42081411391E+03  0.00000000000E+00 0.  1.
<mgrwt>
<rscale>  0 0.16282659E+04</rscale>
<asrwt>0</asrwt>
<pdfrwt beam="1">  1        1 0.32417709E+00 0.16282659E+04</pdfrwt>
<pdfrwt beam="2">  1       -1 0.48392896E-01 0.16282659E+04</pdfrwt>
<totfact> 0.10310092E+01</totfact>
</mgrwt>
</event>
<event>
12    1  0.1598876E-007  0.1908579E+04  0.7818608E-02  0.8650598E-01
         -1   -1    0    0    0  501 -0.00000000000E+00  0.00000000000E+00  0.87146645116E+03  0.87146645116E+03  0.00000000000E+00 0.  1.
          1   -1    0    0  501    0  0.00000000000E+00 -0.00000000000E+00 -0.10449839469E+04  0.10449839469E+04  0.00000000000E+00 0. -1.
         23    2    1    2    0    0 -0.73039254503E+01 -0.61112042907E+03 -0.47395340793E+03  0.77836868367E+03  0.87774988836E+02 0.  0.
        254    2    1    2    0    0  0.73039254503E+01  0.61112042907E+03  0.30043591216E+03  0.11380817144E+04  0.91183700584E+03 0.  0.
        -24    2    4    4    0    0  0.49937589539E+02  0.36374544365E+03  0.61907413142E+03  0.72460943060E+03  0.83675182068E+02 0.  0.
         24    2    4    4    0    0 -0.42633664089E+02  0.24737498543E+03 -0.31863821926E+03  0.41347228382E+03  0.80106191941E+02 0.  0.
         13    1    3    3    0    0 -0.23352676326E+02 -0.33743681470E+03 -0.31071835697E+03  0.45929821333E+03  0.00000000000E+00 0. -1.
        -13    1    3    3    0    0  0.16048750876E+02 -0.27368361437E+03 -0.16323505096E+03  0.31907047034E+03  0.00000000000E+00 0.  1.
          4    1    6    6  502    0  0.10996263657E+02  0.15555159802E+03 -0.20865912317E+03  0.26049154908E+03  0.00000000000E+00 0. -1.
          3    1    5    5  503    0  0.29030164539E+02  0.34702621736E+03  0.55551058875E+03  0.65563858962E+03  0.00000000000E+00 0. -1.
         -4    1    5    5    0  503  0.20907425000E+02  0.16719226281E+02  0.63563542672E+02  0.68970840974E+02  0.00000000000E+00 0.  1.
         -3    1    6    6    0  502 -0.53629927745E+02  0.91823387402E+02 -0.10997909609E+03  0.15298073474E+03  0.00000000000E+00 0.  1.
<mgrwt>
<rscale>  0 0.19085790E+04</rscale>
<asrwt>0</asrwt>
<pdfrwt beam="1">  1        1 0.16076676E+00 0.19085790E+04</pdfrwt>
<pdfrwt beam="2">  1       -1 0.13407176E+00 0.19085790E+04</pdfrwt>
<totfact> 0.61213242E+00</totfact>
</mgrwt>
</event>
<event>
12    1  0.2296063E-007  0.2809097E+04  0.7818608E-02  0.8300450E-01
          1   -1    0    0  501    0  0.00000000000E+00  0.00000000000E+00  0.23263891949E+04  0.23263891949E+04  0.00000000000E+00 0. -1.
         -1   -1    0    0    0  501 -0.00000000000E+00 -0.00000000000E+00 -0.84799088934E+03  0.84799088934E+03  0.00000000000E+00 0.  1.
         23    2    1    2    0    0  0.11883426170E+04  0.60864139929E+02  0.11199153172E+04  0.16365016471E+04  0.89803698842E+02 0.  0.
        254    2    1    2    0    0 -0.11883426170E+04 -0.60864139929E+02  0.35848298832E+03  0.15378784371E+04  0.90592351519E+03 0.  0.
        -24    2    4    4    0    0 -0.11477744761E+04 -0.32738549117E+03  0.38292408223E+03  0.12559877486E+04  0.79415768168E+02 0.  0.
         24    2    4    4    0    0 -0.40568140954E+02  0.26652135124E+03 -0.24441093912E+02  0.28189068844E+03  0.78648511934E+02 0.  0.
         13    1    3    3    0    0  0.48113351361E+03  0.12192922148E+02  0.51143007246E+03  0.70228117181E+03  0.00000000000E+00 0. -1.
        -13    1    3    3    0    0  0.70720910343E+03  0.48671217780E+02  0.60848524475E+03  0.93422047531E+03  0.00000000000E+00 0.  1.
          2    1    6    6  502    0 -0.22929038912E+02  0.17698535298E+02 -0.14136405366E+02  0.32230683111E+02  0.00000000000E+00 0. -1.
          1    1    5    5  503    0 -0.14173215228E+03 -0.50789904420E+02  0.74515414209E+02  0.16798858395E+03  0.00000000000E+00 0. -1.
         -2    1    5    5    0  503 -0.10060423238E+04 -0.27659558675E+03  0.30840866802E+03  0.10879991647E+04  0.00000000000E+00 0.  1.
         -1    1    6    6    0  502 -0.17639102042E+02  0.24882281595E+03 -0.10304688546E+02  0.24966000533E+03  0.00000000000E+00 0.  1.
<mgrwt>
<rscale>  0 0.28090973E+04</rscale>
<asrwt>0</asrwt>
<pdfrwt beam="1">  1        1 0.35790603E+00 0.28090973E+04</pdfrwt>
<pdfrwt beam="2">  1       -1 0.13046014E+00 0.28090973E+04</pdfrwt>
<totfact> 0.77594686E-01</totfact>
</mgrwt>
</event>
<event>
12    1  0.1598876E-007  0.2012434E+04  0.7818608E-02  0.8600830E-01
         -2   -1    0    0    0  501 -0.00000000000E+00  0.00000000000E+00  0.25541183954E+03  0.25541183954E+03  0.00000000000E+00 0.  1.
          2   -1    0    0  501    0  0.00000000000E+00 -0.00000000000E+00 -0.39640770073E+04  0.39640770073E+04  0.00000000000E+00 0. -1.
         23    2    1    2    0    0  0.17555880312E+03 -0.74756875215E+03 -0.10041262720E+04  0.12672943141E+04  0.89918718668E+02 0.  0.
        254    2    1    2    0    0 -0.17555880312E+03  0.74756875215E+03 -0.27045388957E+04  0.29521945327E+04  0.90068972888E+03 0.  0.
        -24    2    4    4    0    0 -0.47910160328E+03  0.20170941587E+03 -0.15587090186E+04  0.16447391141E+04  0.73266049805E+02 0.  0.
         24    2    4    4    0    0  0.30354280016E+03  0.54585933628E+03 -0.11458298771E+04  0.13074554185E+04  0.80080695022E+02 0.  0.
         11    1    3    3    0    0  0.17458140863E+03 -0.70805930970E+03 -0.97781684403E+03  0.12198165578E+04  0.00000000000E+00 0.  1.
        -11    1    3    3    0    0  0.97739448339E+00 -0.39509442451E+02 -0.26309427953E+02  0.47477756286E+02  0.00000000000E+00 0. -1.
          2    1    6    6  502    0  0.11439834623E+03  0.23469966865E+03 -0.40320404454E+03  0.48035863438E+03  0.00000000000E+00 0. -1.
          1    1    5    5  503    0 -0.38645059778E+03  0.13568850644E+03 -0.12705277592E+04  0.13349143127E+04  0.00000000000E+00 0. -1.
         -2    1    5    5    0  503 -0.92651005498E+02  0.66020909430E+02 -0.28818125944E+03  0.30982480145E+03  0.00000000000E+00 0.  1.
         -1    1    6    6    0  502  0.18914445393E+03  0.31115966762E+03 -0.74262583256E+03  0.82709678417E+03  0.00000000000E+00 0.  1.
<mgrwt>
<rscale>  0 0.20124336E+04</rscale>
<asrwt>0</asrwt>
<pdfrwt beam="1">  1        2 0.60985802E+00 0.20124336E+04</pdfrwt>
<pdfrwt beam="2">  1       -2 0.39294128E-01 0.20124336E+04</pdfrwt>
<totfact> 0.20993131E+00</totfact>
</mgrwt>
</event>
<event>
12    1  0.1598876E-007  0.2417081E+04  0.7818608E-02  0.8433136E-01
          1   -1    0    0  501    0  0.00000000000E+00  0.00000000000E+00  0.12528471100E+04  0.12528471100E+04  0.00000000000E+00 0. -1.
         -1   -1    0    0    0  501 -0.00000000000E+00 -0.00000000000E+00 -0.11658009508E+04  0.11658009508E+04  0.00000000000E+00 0.  1.
         23    2    1    2    0    0  0.86136903719E+03 -0.80035444288E+02 -0.48377511719E+03  0.99559617726E+03  0.93867425541E+02 0.  0.
        254    2    1    2    0    0 -0.86136903719E+03  0.80035444288E+02  0.57082127631E+03  0.14230518835E+04  0.97512944943E+03 0.  0.
        -24    2    4    4    0    0 -0.17499073433E+03  0.25102650670E+03 -0.19936733422E+03  0.37389435641E+03  0.80084902690E+02 0.  0.
         24    2    4    4    0    0 -0.68637830287E+03 -0.17099106241E+03  0.77018861053E+03  0.10491575271E+04  0.84781500572E+02 0.  0.
         13    1    3    3    0    0  0.39612494702E+03 -0.30002101766E+02 -0.27531334516E+03  0.48333480920E+03  0.00000000000E+00 0.  1.
        -13    1    3    3    0    0  0.46524409017E+03 -0.50033342522E+02 -0.20846177204E+03  0.51226136806E+03  0.00000000000E+00 0. -1.
          4    1    6    6  502    0 -0.60241969950E+03 -0.16006534227E+03  0.63622163845E+03  0.89067860722E+03  0.00000000000E+00 0. -1.
          1    1    5    5  503    0 -0.15858430385E+03  0.20252524809E+03 -0.19445839692E+03  0.32245856428E+03  0.00000000000E+00 0. -1.
         -2    1    5    5    0  503 -0.16406430474E+02  0.48501258605E+02 -0.49089372992E+01  0.51435792135E+02  0.00000000000E+00 0.  1.
         -3    1    6    6    0  502 -0.83958603368E+02 -0.10925720142E+02  0.13396697208E+03  0.15847891989E+03  0.00000000000E+00 0.  1.
<mgrwt>
<rscale>  0 0.24170812E+04</rscale>
<asrwt>0</asrwt>
<pdfrwt beam="1">  1        1 0.19274571E+00 0.24170812E+04</pdfrwt>
<pdfrwt beam="2">  1       -1 0.17935399E+00 0.24170812E+04</pdfrwt>
<totfact> 0.18409690E+00</totfact>
</mgrwt>
</event>
<event>
12    1  0.1598876E-007  0.1277833E+04  0.7818608E-02  0.9047331E-01
         -1   -1    0    0    0  501 -0.00000000000E+00  0.00000000000E+00  0.96606510924E+03  0.96606510924E+03  0.00000000000E+00 0.  1.
          1   -1    0    0  501    0  0.00000000000E+00 -0.00000000000E+00 -0.42255356622E+03  0.42255356622E+03  0.00000000000E+00 0. -1.
         23    2    1    2    0    0  0.13429950913E+03 -0.39426124304E+02 -0.16416224712E+03  0.23461478907E+03  0.92217560372E+02 0.  0.
        254    2    1    2    0    0 -0.13429950913E+03  0.39426124304E+02  0.70767379014E+03  0.11540038864E+04  0.90073969554E+03 0.  0.
        -24    2    4    4    0    0 -0.19491815772E+03 -0.86310107069E+02  0.88579185531E+03  0.91374539517E+03  0.69720251502E+02 0.  0.
         24    2    4    4    0    0  0.60618648590E+02  0.12573623137E+03 -0.17811806516E+03  0.24025849123E+03  0.80708593292E+02 0.  0.
         11    1    3    3    0    0  0.23116113204E+02 -0.18501539654E+02  0.60626158014E+01  0.30222788912E+02  0.00000000000E+00 0.  1.
        -11    1    3    3    0    0  0.11118339593E+03 -0.20924584650E+02 -0.17022486292E+03  0.20439200016E+03  0.00000000000E+00 0. -1.
          4    1    6    6  502    0  0.16771980173E+02  0.26866342621E+01  0.26921400335E+01  0.17197817900E+02  0.00000000000E+00 0. -1.
          3    1    5    5  503    0 -0.10209038215E+03 -0.78110972373E+02  0.44407645182E+03  0.46230689503E+03  0.00000000000E+00 0. -1.
         -4    1    5    5    0  503 -0.92827775572E+02 -0.81991346965E+01  0.44171540349E+03  0.45143850013E+03  0.00000000000E+00 0.  1.
         -3    1    6    6    0  502  0.43846668417E+02  0.12304959711E+03 -0.18081020520E+03  0.22306067333E+03  0.00000000000E+00 0.  1.
<mgrwt>
<rscale>  0 0.12778329E+04</rscale>
<asrwt>0</asrwt>
<pdfrwt beam="1">  1        1 0.65008241E-01 0.12778329E+04</pdfrwt>
<pdfrwt beam="2">  1       -1 0.14862540E+00 0.12778329E+04</pdfrwt>
<totfact> 0.19623864E+01</totfact>
</mgrwt>
</event>
<event>
12    1  0.1598876E-007  0.3999274E+04  0.7818608E-02  0.8004693E-01
         -2   -1    0    0    0  501 -0.00000000000E+00  0.00000000000E+00  0.21857015207E+04  0.21857015207E+04  0.00000000000E+00 0. -1.
          2   -1    0    0  501    0  0.00000000000E+00 -0.00000000000E+00 -0.18294118256E+04  0.18294118256E+04  0.00000000000E+00 0.  1.
         23    2    1    2    0    0 -0.11816341667E+04  0.94986465734E+03 -0.99419210411E+03  0.18152543609E+04  0.90709887413E+02 0.  0.
        254    2    1    2    0    0  0.11816341667E+04 -0.94986465734E+03  0.13504817992E+04  0.21998589854E+04  0.84680357507E+03 0.  0.
        -24    2    4    4    0    0  0.14139270910E+03 -0.57735740473E+02  0.62278863635E+03  0.64612229377E+03  0.79265497074E+02 0.  0.
         24    2    4    4    0    0  0.10402414576E+04 -0.89212891687E+03  0.72769316285E+03  0.15537366917E+04  0.81018969402E+02 0.  0.
         13    1    3    3    0    0 -0.58829141305E+03  0.41488575168E+03 -0.46810623245E+03  0.85868528488E+03  0.00000000000E+00 0.  1.
        -13    1    3    3    0    0 -0.59334275364E+03  0.53497890566E+03 -0.52608587166E+03  0.95656907600E+03  0.00000000000E+00 0. -1.
          2    1    6    6  502    0  0.38968476663E+03 -0.38576284841E+03  0.28330364459E+03  0.61719376827E+03  0.00000000000E+00 0. -1.
          1    1    5    5  503    0  0.30707810179E+02  0.15230167035E+02  0.74080903642E+02  0.81626637064E+02  0.00000000000E+00 0. -1.
         -2    1    5    5    0  503  0.11068489892E+03 -0.72965907508E+02  0.54870773271E+03  0.56449565671E+03  0.00000000000E+00 0.  1.
         -1    1    6    6    0  502  0.65055669096E+03 -0.50636606846E+03  0.44438951826E+03  0.93654292340E+03  0.00000000000E+00 0.  1.
<mgrwt>
<rscale>  0 0.39992740E+04</rscale>
<asrwt>0</asrwt>
<pdfrwt beam="1">  1        2 0.28144797E+00 0.39992740E+04</pdfrwt>
<pdfrwt beam="2">  1       -2 0.33626177E+00 0.39992740E+04</pdfrwt>
<totfact> 0.12438637E-01</totfact>
</mgrwt>
</event>
<event>
12    1  0.1598876E-007  0.2177249E+04  0.7818608E-02  0.8527958E-01
          2   -1    0    0  501    0  0.00000000000E+00  0.00000000000E+00  0.16999293942E+04  0.16999293942E+04  0.00000000000E+00 0. -1.
         -2   -1    0    0    0  501 -0.00000000000E+00 -0.00000000000E+00 -0.69714823089E+03  0.69714823089E+03  0.00000000000E+00 0.  1.
         23    2    1    2    0    0 -0.59039013218E+02 -0.21916500065E+03 -0.54305120085E+03  0.59599997845E+03  0.93768144820E+02 0.  0.
        254    2    1    2    0    0  0.59039013218E+02  0.21916500065E+03  0.15458323642E+04  0.18010776467E+04  0.89597103110E+03 0.  0.
        -24    2    4    4    0    0  0.78778470315E+02  0.15755948801E+03  0.16459629683E+04  0.16576514874E+04  0.87082265748E+02 0.  0.
         24    2    4    4    0    0 -0.19739457096E+02  0.61605512640E+02 -0.10013060417E+03  0.14342615921E+03  0.79749858313E+02 0.  0.
         11    1    3    3    0    0 -0.10366196057E+02 -0.57445250688E+01 -0.11128053250E+03  0.11190984989E+03  0.00000000000E+00 0. -1.
        -11    1    3    3    0    0 -0.48672817161E+02 -0.21342047558E+03 -0.43177066835E+03  0.48409012857E+03  0.00000000000E+00 0.  1.
          2    1    6    6  502    0 -0.46445631680E+02  0.15527165359E+02 -0.41225678406E+02  0.64014421237E+02  0.00000000000E+00 0. -1.
          1    1    5    5  503    0 -0.15721199230E+02  0.31368920816E+02  0.44571862507E+03  0.44709759341E+03  0.00000000000E+00 0. -1.
         -2    1    5    5    0  503  0.94499669545E+02  0.12619056719E+03  0.12002443433E+04  0.12105538940E+04  0.00000000000E+00 0.  1.
         -1    1    6    6    0  502  0.26706174584E+02  0.46078347281E+02 -0.58904925766E+02  0.79411737977E+02  0.00000000000E+00 0.  1.
<mgrwt>
<rscale>  0 0.21772485E+04</rscale>
<asrwt>0</asrwt>
<pdfrwt beam="1">  1        2 0.26152760E+00 0.21772485E+04</pdfrwt>
<pdfrwt beam="2">  1       -2 0.10725357E+00 0.21772485E+04</pdfrwt>
<totfact> 0.62735033E+00</totfact>
</mgrwt>
</event>
<event>
12    1  0.1598876E-007  0.1799385E+04  0.7818608E-02  0.8706626E-01
         -1   -1    0    0    0  501 -0.00000000000E+00  0.00000000000E+00  0.82036816214E+03  0.82036816214E+03  0.00000000000E+00 0.  1.
          1   -1    0    0  501    0  0.00000000000E+00 -0.00000000000E+00 -0.98668752596E+03  0.98668752596E+03  0.00000000000E+00 0. -1.
         23    2    1    2    0    0  0.47003953536E+03  0.30257885944E+03 -0.43663594683E+03  0.71517797693E+03  0.91309679888E+02 0.  0.
        254    2    1    2    0    0 -0.47003953536E+03 -0.30257885944E+03  0.27031658301E+03  0.10918777112E+04  0.89812847083E+03 0.  0.
        -24    2    4    4    0    0 -0.40171600237E+03 -0.34409505644E+03 -0.22763300230E+03  0.58144187461E+03  0.80502890545E+02 0.  0.
         24    2    4    4    0    0 -0.68323532985E+02  0.41516196999E+02  0.49794958531E+03  0.51043583656E+03  0.78735341259E+02 0.  0.
         13    1    3    3    0    0  0.27760991219E+03  0.19327339988E+03 -0.20861344604E+03  0.39741847002E+03  0.00000000000E+00 0.  1.
        -13    1    3    3    0    0  0.19242962317E+03  0.10930545956E+03 -0.22802250079E+03  0.31775950691E+03  0.00000000000E+00 0. -1.
          2    1    6    6  502    0 -0.16787780941E+02 -0.23053286945E+02  0.16099834368E+03  0.16350458800E+03  0.00000000000E+00 0. -1.
          1    1    5    5  503    0 -0.58578034808E+02 -0.70199575033E+02 -0.11724466910E+02  0.92178249175E+02  0.00000000000E+00 0. -1.
         -4    1    5    5    0  503 -0.34313796756E+03 -0.27389548140E+03 -0.21590853539E+03  0.48926362543E+03  0.00000000000E+00 0.  1.
         -1    1    6    6    0  502 -0.51535752043E+02  0.64569483944E+02  0.33695124163E+03  0.34693124856E+03  0.00000000000E+00 0.  1.
<mgrwt>
<rscale>  0 0.17993855E+04</rscale>
<asrwt>0</asrwt>
<pdfrwt beam="1">  1        1 0.15179808E+00 0.17993855E+04</pdfrwt>
<pdfrwt beam="2">  1       -1 0.12621049E+00 0.17993855E+04</pdfrwt>
<totfact> 0.79919943E+00</totfact>
</mgrwt>
</event>
<event>
12    1  0.1598876E-007  0.1134612E+04  0.7818608E-02  0.9172098E-01
         -2   -1    0    0    0  501 -0.00000000000E+00  0.00000000000E+00  0.40513192032E+03  0.40513192032E+03  0.00000000000E+00 0.  1.
          2   -1    0    0  501    0  0.00000000000E+00 -0.00000000000E+00 -0.79439884110E+03  0.79439884110E+03  0.00000000000E+00 0. -1.
         23    2    1    2    0    0  0.19701650963E+03  0.42669662678E+02 -0.10004179356E+02  0.22409814829E+03  0.97384245545E+02 0.  0.
        254    2    1    2    0    0 -0.19701650963E+03 -0.42669662678E+02 -0.37926274143E+03  0.97543261313E+03  0.87578099462E+03 0.  0.
        -24    2    4    4    0    0 -0.12099900799E+03  0.13359940348E+03 -0.62378876280E+03  0.65414013170E+03  0.79355722856E+02 0.  0.
         24    2    4    4    0    0 -0.76017501646E+02 -0.17626906616E+03  0.24452602138E+03  0.32129248144E+03  0.81156880511E+02 0.  0.
         13    1    3    3    0    0  0.77037451555E+02  0.24518482656E+01  0.41428319142E+02  0.87504777749E+02  0.00000000000E+00 0.  1.
        -13    1    3    3    0    0  0.11997905808E+03  0.40217814412E+02 -0.51432498498E+02  0.13659337054E+03  0.00000000000E+00 0. -1.
          4    1    6    6  502    0 -0.34195042179E+02 -0.86139832513E+02  0.18103581752E+03  0.20337978975E+03  0.00000000000E+00 0. -1.
          3    1    5    5  503    0 -0.69659795569E+02  0.42767855277E+02 -0.38451850361E+03  0.39311074290E+03  0.00000000000E+00 0. -1.
         -4    1    5    5    0  503 -0.51339212417E+02  0.90831548207E+02 -0.23927025919E+03  0.26102938880E+03  0.00000000000E+00 0.  1.
         -3    1    6    6    0  502 -0.41822459467E+02 -0.90129233649E+02  0.63490203859E+02  0.11791269168E+03  0.00000000000E+00 0.  1.
<mgrwt>
<rscale>  0 0.11346124E+04</rscale>
<asrwt>0</asrwt>
<pdfrwt beam="1">  1        2 0.12221521E+00 0.11346124E+04</pdfrwt>
<pdfrwt beam="2">  1       -2 0.62327988E-01 0.11346124E+04</pdfrwt>
<totfact> 0.82321236E+01</totfact>
</mgrwt>
</event>
<event>
12    1  0.1598876E-007  0.1459392E+04  0.7818608E-02  0.8911915E-01
          2   -1    0    0  501    0  0.00000000000E+00  0.00000000000E+00  0.12567634079E+04  0.12567634079E+04  0.00000000000E+00 0. -1.
         -2   -1    0    0    0  501 -0.00000000000E+00 -0.00000000000E+00 -0.42367277052E+03  0.42367277052E+03  0.00000000000E+00 0.  1.
         23    2    1    2    0    0 -0.23979303137E+03  0.33124729566E+03  0.46874663022E+03  0.62866637325E+03  0.90953486660E+02 0.  0.
        254    2    1    2    0    0  0.23979303137E+03 -0.33124729566E+03  0.36434400721E+03  0.10517698052E+04  0.89791296839E+03 0.  0.
        -24    2    4    4    0    0  0.41682423235E+03 -0.53946036473E+03  0.33944339234E+03  0.76571737168E+03  0.79632599464E+02 0.  0.
         24    2    4    4    0    0 -0.17703120098E+03  0.20821306907E+03  0.24900614873E+02  0.28605243354E+03  0.80704559089E+02 0.  0.
         13    1    3    3    0    0 -0.42536440565E+02  0.11483336443E+03  0.10209691599E+03  0.15943597655E+03  0.00000000000E+00 0.  1.
        -13    1    3    3    0    0 -0.19725659081E+03  0.21641393123E+03  0.36664971423E+03  0.46923039670E+03  0.00000000000E+00 0. -1.
          2    1    6    6  502    0 -0.29345852943E+01  0.44871945136E+02 -0.58797432962E+01  0.45350574774E+02  0.00000000000E+00 0. -1.
          1    1    5    5  503    0  0.19183016873E+03 -0.31127430896E+03  0.19172973182E+03  0.41285687486E+03  0.00000000000E+00 0. -1.
         -2    1    5    5    0  503  0.22499406362E+03 -0.22818605577E+03  0.14771366051E+03  0.35286049682E+03  0.00000000000E+00 0.  1.
         -1    1    6    6    0  502 -0.17409661569E+03  0.16334112394E+03  0.30780358170E+02  0.24070185876E+03  0.00000000000E+00 0.  1.
<mgrwt>
<rscale>  0 0.14593923E+04</rscale>
<asrwt>0</asrwt>
<pdfrwt beam="1">  1        2 0.19334822E+00 0.14593923E+04</pdfrwt>
<pdfrwt beam="2">  1       -2 0.65180427E-01 0.14593923E+04</pdfrwt>
<totfact> 0.36859468E+01</totfact>
</mgrwt>
</event>
<event>
12    1  0.1598876E-007  0.1318783E+04  0.7818608E-02  0.9014802E-01
         -2   -1    0    0    0  501 -0.00000000000E+00  0.00000000000E+00  0.37022718574E+03  0.37022718574E+03  0.00000000000E+00 0.  1.
          2   -1    0    0  501    0  0.00000000000E+00 -0.00000000000E+00 -0.11744055690E+04  0.11744055690E+04  0.00000000000E+00 0. -1.
         23    2    1    2    0    0  0.93706280874E+02  0.10001474406E+02 -0.60775223314E+03  0.62166611200E+03  0.90692234275E+02 0.  0.
        254    2    1    2    0    0 -0.93706280874E+02 -0.10001474406E+02 -0.19642615013E+03  0.92296664276E+03  0.89688532969E+03 0.  0.
        -24    2    4    4    0    0  0.25655992729E+03 -0.25326646293E+03  0.11733819034E+03  0.38762039603E+03  0.80711975403E+02 0.  0.
         24    2    4    4    0    0 -0.35026620816E+03  0.24326498852E+03 -0.31376434047E+03  0.53534624672E+03  0.79267088415E+02 0.  0.
         11    1    3    3    0    0 -0.13953387859E+02 -0.13053284022E+02 -0.12964338497E+03  0.13104385725E+03  0.00000000000E+00 0.  1.
        -11    1    3    3    0    0  0.10765966873E+03  0.23054758428E+02 -0.47810884817E+03  0.49062225475E+03  0.00000000000E+00 0. -1.
          4    1    6    6  502    0 -0.13684541864E+03  0.13804795683E+03 -0.11955931840E+03  0.22820678694E+03  0.00000000000E+00 0. -1.
          3    1    5    5  503    0  0.36780428309E+02 -0.85053860832E+02  0.28693000641E+02  0.97006429864E+02  0.00000000000E+00 0. -1.
         -4    1    5    5    0  503  0.21977949898E+03 -0.16821260210E+03  0.88645189703E+02  0.29061396617E+03  0.00000000000E+00 0.  1.
         -3    1    6    6    0  502 -0.21342078952E+03  0.10521703169E+03 -0.19420502207E+03  0.30713945978E+03  0.00000000000E+00 0.  1.
<mgrwt>
<rscale>  0 0.13187826E+04</rscale>
<asrwt>0</asrwt>
<pdfrwt beam="1">  1        2 0.18067778E+00 0.13187826E+04</pdfrwt>
<pdfrwt beam="2">  1       -2 0.56958029E-01 0.13187826E+04</pdfrwt>
<totfact> 0.55510366E+01</totfact>
</mgrwt>
</event>
<event>
12    1  0.1598876E-007  0.1595117E+04  0.7818608E-02  0.8823553E-01
          2   -1    0    0  501    0  0.00000000000E+00  0.00000000000E+00  0.94834602634E+03  0.94834602634E+03  0.00000000000E+00 0. -1.
         -2   -1    0    0    0  501 -0.00000000000E+00 -0.00000000000E+00 -0.67074640844E+03  0.67074640844E+03  0.00000000000E+00 0.  1.
         23    2    1    2    0    0  0.11271456272E+03  0.44285254931E+03 -0.85115627199E+02  0.47653894162E+03  0.10498447414E+03 0.  0.
        254    2    1    2    0    0 -0.11271456272E+03 -0.44285254931E+03  0.36271524510E+03  0.11425534932E+04  0.98236611435E+03 0.  0.
        -24    2    4    4    0    0  0.25616697214E+03 -0.60964446809E+03  0.17255875387E+03  0.68824257485E+03  0.81322956234E+02 0.  0.
         24    2    4    4    0    0 -0.36888153486E+03  0.16679191879E+03  0.19015649123E+03  0.45431091830E+03  0.79660456935E+02 0.  0.
         11    1    3    3    0    0  0.54374134423E+02  0.34471856122E+03 -0.95752649387E+02  0.36187843650E+03  0.00000000000E+00 0.  1.
        -11    1    3    3    0    0  0.58340428298E+02  0.98133988089E+02  0.10637022188E+02  0.11466050511E+03  0.00000000000E+00 0. -1.
          2    1    6    6  502    0 -0.37011683280E+03  0.15757531861E+03  0.18049821349E+03  0.44090368113E+03  0.00000000000E+00 0. -1.
          1    1    5    5  503    0  0.23691372673E+03 -0.48488404235E+03  0.14859429453E+03  0.55975075954E+03  0.00000000000E+00 0. -1.
         -2    1    5    5    0  503  0.19253245405E+02 -0.12476042574E+03  0.23964459336E+02  0.12849181531E+03  0.00000000000E+00 0.  1.
         -1    1    6    6    0  502  0.12352979407E+01  0.92166001765E+01  0.96582777394E+01  0.13407237177E+02  0.00000000000E+00 0.  1.
<mgrwt>
<rscale>  0 0.15951172E+04</rscale>
<asrwt>0</asrwt>
<pdfrwt beam="1">  1        2 0.14589939E+00 0.15951172E+04</pdfrwt>
<pdfrwt beam="2">  1       -2 0.10319175E+00 0.15951172E+04</pdfrwt>
<totfact> 0.20013233E+01</totfact>
</mgrwt>
</event>
<event>
12    1  0.1598876E-007  0.1905418E+04  0.7818608E-02  0.8652164E-01
         -1   -1    0    0    0  501 -0.00000000000E+00  0.00000000000E+00  0.39807928477E+03  0.39807928477E+03  0.00000000000E+00 0.  1.
          1   -1    0    0  501    0  0.00000000000E+00 -0.00000000000E+00 -0.22800838535E+04  0.22800838535E+04  0.00000000000E+00 0. -1.
         23    2    1    2    0    0  0.56387356334E+03  0.46493053822E+03 -0.38670595576E+03  0.83182443368E+03  0.90975773978E+02 0.  0.
        254    2    1    2    0    0 -0.56387356334E+03 -0.46493053822E+03 -0.14952986130E+04  0.18463387046E+04  0.79933401611E+03 0.  0.
        -24    2    4    4    0    0 -0.72973986143E+02  0.17827295415E+03 -0.60620560280E+03  0.64128321050E+03  0.81562702007E+02 0.  0.
         24    2    4    4    0    0 -0.49089957720E+03 -0.64320349237E+03 -0.88909301016E+03  0.12050554941E+04  0.83541819581E+02 0.  0.
         13    1    3    3    0    0  0.39244491688E+02  0.79885697177E+01 -0.29622572524E+02  0.49814096167E+02  0.00000000000E+00 0. -1.
        -13    1    3    3    0    0  0.52462907166E+03  0.45694196850E+03 -0.35708338323E+03  0.78201033752E+03  0.00000000000E+00 0.  1.
          2    1    6    6  502    0 -0.40003471939E+03 -0.49053398757E+03 -0.65113783997E+03  0.90809242719E+03  0.00000000000E+00 0. -1.
          1    1    5    5  503    0  0.47499496013E+01  0.87719830801E+02 -0.30167608109E+03  0.31420660184E+03  0.00000000000E+00 0. -1.
         -2    1    5    5    0  503 -0.77723935744E+02  0.90553123353E+02 -0.30452952171E+03  0.32707660865E+03  0.00000000000E+00 0.  1.
         -1    1    6    6    0  502 -0.90864857815E+02 -0.15266950480E+03 -0.23795517019E+03  0.29696306690E+03  0.00000000000E+00 0.  1.
<mgrwt>
<rscale>  0 0.19054177E+04</rscale>
<asrwt>0</asrwt>
<pdfrwt beam="1">  1        1 0.35078214E+00 0.19054177E+04</pdfrwt>
<pdfrwt beam="2">  1       -1 0.61242965E-01 0.19054177E+04</pdfrwt>
<totfact> 0.48582457E+00</totfact>
</mgrwt>
</event>
<event>
12    1  0.1598876E-007  0.1825529E+04  0.7818608E-02  0.8692840E-01
         -1   -1    0    0    0  501 -0.00000000000E+00  0.00000000000E+00  0.34330758694E+03  0.34330758694E+03  0.00000000000E+00 0.  1.
          1   -1    0    0  501    0  0.00000000000E+00 -0.00000000000E+00 -0.24267997332E+04  0.24267997332E+04  0.00000000000E+00 0. -1.
         23    2    1    2    0    0  0.53805620390E+03  0.30321304060E+03 -0.12419375860E+04  0.13900875589E+04  0.92151111455E+02 0.  0.
        254    2    1    2    0    0 -0.53805620390E+03 -0.30321304060E+03 -0.84155456031E+03  0.13800197613E+04  0.90266152962E+03 0.  0.
        -24    2    4    4    0    0 -0.53392101933E+03 -0.52513207020E+03 -0.34153948260E+03  0.82706728161E+03  0.80967426088E+02 0.  0.
         24    2    4    4    0    0 -0.41351845636E+01  0.22191902961E+03 -0.50001507771E+03  0.55295247970E+03  0.80474911685E+02 0.  0.
         13    1    3    3    0    0  0.46476522858E+02  0.17300417965E+01 -0.11828445424E+03  0.12709945845E+03  0.00000000000E+00 0. -1.
        -13    1    3    3    0    0  0.49157968104E+03  0.30148299880E+03 -0.11236531317E+04  0.12629881004E+04  0.00000000000E+00 0.  1.
          2    1    6    6  502    0 -0.10173394320E+02  0.13109914681E+03 -0.38145434967E+03  0.40348222405E+03  0.00000000000E+00 0. -1.
          3    1    5    5  503    0 -0.17433622454E+03 -0.13863540935E+03 -0.70369361054E+02  0.23359097347E+03  0.00000000000E+00 0. -1.
         -4    1    5    5    0  503 -0.35958479479E+03 -0.38649666085E+03 -0.27117012155E+03  0.59347630813E+03  0.00000000000E+00 0.  1.
         -1    1    6    6    0  502  0.60382097566E+01  0.90819882792E+02 -0.11856072804E+03  0.14947025564E+03  0.00000000000E+00 0.  1.
<mgrwt>
<rscale>  0 0.18255287E+04</rscale>
<asrwt>0</asrwt>
<pdfrwt beam="1">  1        1 0.37335380E+00 0.18255287E+04</pdfrwt>
<pdfrwt beam="2">  1       -1 0.52816553E-01 0.18255287E+04</pdfrwt>
<totfact> 0.51841533E+00</totfact>
</mgrwt>
</event>
<event>
12    1  0.1598876E-007  0.1769771E+04  0.7818608E-02  0.8722542E-01
          2   -1    0    0  501    0  0.00000000000E+00  0.00000000000E+00  0.38937764454E+04  0.38937764454E+04  0.00000000000E+00 0. -1.
         -2   -1    0    0    0  501 -0.00000000000E+00 -0.00000000000E+00 -0.20109592952E+03  0.20109592952E+03  0.00000000000E+00 0.  1.
         23    2    1    2    0    0  0.46476891944E+03  0.71960907982E+02  0.24369303135E+04  0.24835696570E+04  0.91106354540E+02 0.  0.
        254    2    1    2    0    0 -0.46476891944E+03 -0.71960907982E+02  0.12557502024E+04  0.16113027179E+04  0.89342003398E+03 0.  0.
        -24    2    4    4    0    0 -0.67983875679E+03 -0.18395536202E+03  0.11121744014E+04  0.13187444345E+04  0.78324158509E+02 0.  0.
         24    2    4    4    0    0  0.21506983735E+03  0.11199445404E+03  0.14357580097E+03  0.29255828342E+03  0.78603727017E+02 0.  0.
         13    1    3    3    0    0  0.38563375484E+03  0.88146074495E+02  0.19154822138E+04  0.19559026649E+04  0.00000000000E+00 0. -1.
        -13    1    3    3    0    0  0.79135164599E+02 -0.16185166514E+02  0.52144809972E+03  0.52766699214E+03  0.00000000000E+00 0.  1.
          2    1    6    6  502    0 -0.60036824480E+01  0.21341239686E+01  0.10037179402E+02  0.11888803910E+02  0.00000000000E+00 0. -1.
          3    1    5    5  503    0 -0.24999227435E+03 -0.79318560659E+02  0.48281694657E+03  0.54945407014E+03  0.00000000000E+00 0. -1.
         -4    1    5    5    0  503 -0.42984648244E+03 -0.10463680136E+03  0.62935745487E+03  0.76929036434E+03  0.00000000000E+00 0.  1.
         -1    1    6    6    0  502  0.22107351980E+03  0.10986033007E+03  0.13353862156E+03  0.28066947951E+03  0.00000000000E+00 0.  1.
<mgrwt>
<rscale>  0 0.17697713E+04</rscale>
<asrwt>0</asrwt>
<pdfrwt beam="1">  1        2 0.59904247E+00 0.17697713E+04</pdfrwt>
<pdfrwt beam="2">  1       -2 0.30937838E-01 0.17697713E+04</pdfrwt>
<totfact> 0.38611823E+00</totfact>
</mgrwt>
</event>
<event>
12    1  0.1598876E-007  0.1555829E+04  0.7818608E-02  0.8848153E-01
          2   -1    0    0  501    0  0.00000000000E+00  0.00000000000E+00  0.23516562554E+04  0.23516562554E+04  0.00000000000E+00 0. -1.
         -2   -1    0    0    0  501 -0.00000000000E+00 -0.00000000000E+00 -0.25732968222E+03  0.25732968222E+03  0.00000000000E+00 0.  1.
         23    2    1    2    0    0  0.88457306446E+02  0.91095939226E+02 -0.12985029508E+03  0.20442845073E+03  0.93844164076E+02 0.  0.
        254    2    1    2    0    0 -0.88457306446E+02 -0.91095939226E+02  0.22241768683E+04  0.24045574869E+04  0.90488165043E+03 0.  0.
        -24    2    4    4    0    0  0.35571330099E+03 -0.19892152701E+03  0.13822881749E+04  0.14432695427E+04  0.78769587888E+02 0.  0.
         24    2    4    4    0    0 -0.44417060744E+03  0.10782558778E+03  0.84188869335E+03  0.96128794420E+03  0.79900273971E+02 0.  0.
         13    1    3    3    0    0  0.15142389006E+02  0.15852506611E+02  0.14214323432E+02  0.26127397522E+02  0.00000000000E+00 0. -1.
        -13    1    3    3    0    0  0.73314917440E+02  0.75243432615E+02 -0.14406461851E+03  0.17830105321E+03  0.00000000000E+00 0.  1.
          2    1    6    6  502    0 -0.25139339707E+03  0.37520649846E+02  0.39760634351E+03  0.47190808814E+03  0.00000000000E+00 0. -1.
          1    1    5    5  503    0  0.22815899657E+03 -0.89576967617E+02  0.88805052347E+03  0.92125690938E+03  0.00000000000E+00 0. -1.
         -2    1    5    5    0  503  0.12755430442E+03 -0.10934455939E+03  0.49423765147E+03  0.52201263335E+03  0.00000000000E+00 0.  1.
         -3    1    6    6    0  502 -0.19277721037E+03  0.70304937934E+02  0.44428234983E+03  0.48937985605E+03  0.00000000000E+00 0.  1.
<mgrwt>
<rscale>  0 0.15558290E+04</rscale>
<asrwt>0</asrwt>
<pdfrwt beam="1">  1        2 0.36179326E+00 0.15558290E+04</pdfrwt>
<pdfrwt beam="2">  1       -2 0.39589183E-01 0.15558290E+04</pdfrwt>
<totfact> 0.24640651E+01</totfact>
</mgrwt>
</event>
<event>
12    1  0.1598876E-007  0.1458953E+04  0.7818608E-02  0.8912217E-01
         -1   -1    0    0    0  501 -0.00000000000E+00  0.00000000000E+00  0.71316799471E+03  0.71316799471E+03  0.00000000000E+00 0.  1.
          1   -1    0    0  501    0  0.00000000000E+00 -0.00000000000E+00 -0.74615778620E+03  0.74615778620E+03  0.00000000000E+00 0. -1.
         23    2    1    2    0    0 -0.27677162675E+03 -0.33041274868E+03 -0.99679080710E+02  0.45148800975E+03  0.90168652822E+02 0.  0.
        254    2    1    2    0    0  0.27677162675E+03  0.33041274868E+03  0.66689289226E+02  0.10078377712E+04  0.90857822658E+03 0.  0.
        -24    2    4    4    0    0  0.12833784033E+03 -0.10534353764E+03 -0.34124944375E+03  0.38769095898E+03  0.79279471691E+02 0.  0.
         24    2    4    4    0    0  0.14843378642E+03  0.43575628632E+03  0.40793873298E+03  0.62014681218E+03  0.79069139204E+02 0.  0.
         11    1    3    3    0    0 -0.15825254137E+03 -0.14429801904E+03 -0.84794677658E+02  0.23033871257E+03  0.00000000000E+00 0. -1.
        -11    1    3    3    0    0 -0.11851908538E+03 -0.18611472965E+03 -0.14884403052E+02  0.22114929719E+03  0.00000000000E+00 0.  1.
          4    1    6    6  502    0  0.15488209429E+03  0.42978163221E+03  0.39210174804E+03  0.60203363305E+03  0.00000000000E+00 0. -1.
          1    1    5    5  503    0  0.65358420122E+02 -0.65653787989E+02 -0.26672659174E+03  0.28235654357E+03  0.00000000000E+00 0. -1.
         -2    1    5    5    0  503  0.62979420205E+02 -0.39689749652E+02 -0.74522852009E+02  0.10533441540E+03  0.00000000000E+00 0.  1.
         -3    1    6    6    0  502 -0.64483078669E+01  0.59746541178E+01  0.15836984941E+02  0.18113179130E+02  0.00000000000E+00 0.  1.
<mgrwt>
<rscale>  0 0.14589528E+04</rscale>
<asrwt>0</asrwt>
<pdfrwt beam="1">  1        1 0.11479350E+00 0.14589528E+04</pdfrwt>
<pdfrwt beam="2">  1       -1 0.10971815E+00 0.14589528E+04</pdfrwt>
<totfact> 0.18406161E+01</totfact>
</mgrwt>
</event>
<event>
12    1  0.1598876E-007  0.4773364E+04  0.7818608E-02  0.7864452E-01
          2   -1    0    0  501    0  0.00000000000E+00  0.00000000000E+00  0.31715240214E+04  0.31715240214E+04  0.00000000000E+00 0. -1.
         -2   -1    0    0    0  501 -0.00000000000E+00 -0.00000000000E+00 -0.17960609857E+04  0.17960609857E+04  0.00000000000E+00 0.  1.
         23    2    1    2    0    0 -0.22828925792E+04 -0.14903923360E+03  0.93367537008E+03  0.24726423111E+04  0.91646498191E+02 0.  0.
        254    2    1    2    0    0  0.22828925792E+04  0.14903923360E+03  0.44178766563E+03  0.24949426960E+04  0.89204904197E+03 0.  0.
        -24    2    4    4    0    0  0.26978340927E+02 -0.53728239804E+02 -0.12382943606E+03  0.15897970910E+03  0.79537815165E+02 0.  0.
         24    2    4    4    0    0  0.22559142383E+04  0.20276747341E+03  0.56561710169E+03  0.23359629869E+04  0.80849684545E+02 0.  0.
         13    1    3    3    0    0 -0.16009386220E+04 -0.80708094711E+02  0.69120833537E+03  0.17456480833E+04  0.00000000000E+00 0. -1.
        -13    1    3    3    0    0 -0.68195395727E+03 -0.68331138891E+02  0.24246703471E+03  0.72699422783E+03  0.00000000000E+00 0.  1.
          4    1    6    6  502    0  0.74310680854E+03  0.29621336526E+02  0.17696933800E+03  0.76446275192E+03  0.00000000000E+00 0. -1.
          3    1    5    5  503    0  0.43792716302E+02 -0.55590580169E+02 -0.59482483609E+02  0.92446094892E+02  0.00000000000E+00 0. -1.
         -2    1    5    5    0  503 -0.16814375375E+02  0.18623403640E+01 -0.64346952447E+02  0.66533614211E+02  0.00000000000E+00 0.  1.
         -3    1    6    6    0  502  0.15128074298E+04  0.17314613688E+03  0.38864776368E+03  0.15715002350E+04  0.00000000000E+00 0.  1.
<mgrwt>
<rscale>  0 0.47733638E+04</rscale>
<asrwt>0</asrwt>
<pdfrwt beam="1">  1        2 0.48792677E+00 0.47733638E+04</pdfrwt>
<pdfrwt beam="2">  1       -2 0.27631708E+00 0.47733638E+04</pdfrwt>
<totfact> 0.44447460E-02</totfact>
</mgrwt>
</event>
<event>
12    1  0.1598876E-007  0.1307324E+04  0.7818608E-02  0.9023777E-01
         -2   -1    0    0    0  501 -0.00000000000E+00  0.00000000000E+00  0.17804221415E+03  0.17804221415E+03  0.00000000000E+00 0. -1.
          2   -1    0    0  501    0  0.00000000000E+00 -0.00000000000E+00 -0.23998474421E+04  0.23998474421E+04  0.00000000000E+00 0.  1.
         23    2    1    2    0    0  0.12344154410E+03  0.32046341276E+03 -0.53354446529E+03  0.64123491359E+03  0.92616975949E+02 0.  0.
        254    2    1    2    0    0 -0.12344154410E+03 -0.32046341276E+03 -0.16882607627E+04  0.19366547427E+04  0.88457479947E+03 0.  0.
        -24    2    4    4    0    0 -0.17817023228E+03 -0.44976829376E+03 -0.38572312770E+03  0.62387728210E+03  0.80027383639E+02 0.  0.
         24    2    4    4    0    0  0.54728688183E+02  0.12930488100E+03 -0.13025376350E+04  0.13127774606E+04  0.84055868063E+02 0.  0.
         13    1    3    3    0    0  0.39017064899E+02  0.11486359346E+03 -0.11407314857E+03  0.16651924717E+03  0.00000000000E+00 0. -1.
        -13    1    3    3    0    0  0.84424479196E+02  0.20559981930E+03 -0.41947131672E+03  0.47471566641E+03  0.00000000000E+00 0.  1.
          4    1    6    6  502    0  0.13509810697E+01  0.97061238619E+02 -0.64118309688E+03  0.64848937765E+03  0.00000000000E+00 0. -1.
          1    1    5    5  503    0 -0.49184981135E+02 -0.15689812889E+03 -0.17817232076E+03  0.24244908971E+03  0.00000000000E+00 0. -1.
         -2    1    5    5    0  503 -0.12898525114E+03 -0.29287016487E+03 -0.20755080695E+03  0.38142819239E+03  0.00000000000E+00 0.  1.
         -3    1    6    6    0  502  0.53377707113E+02  0.32243642382E+02 -0.66135453807E+03  0.66428808293E+03  0.00000000000E+00 0.  1.
<mgrwt>
<rscale>  0 0.13073242E+04</rscale>
<asrwt>0</asrwt>
<pdfrwt beam="1">  1        2 0.36920729E+00 0.13073242E+04</pdfrwt>
<pdfrwt beam="2">  1       -2 0.27391111E-01 0.13073242E+04</pdfrwt>
<totfact> 0.47465504E+01</totfact>
</mgrwt>
</event>
<event>
12    1  0.1598876E-007  0.2788687E+04  0.7818608E-02  0.8306789E-01
         -2   -1    0    0    0  501 -0.00000000000E+00  0.00000000000E+00  0.74823656690E+03  0.74823656690E+03  0.00000000000E+00 0.  1.
          2   -1    0    0  501    0  0.00000000000E+00 -0.00000000000E+00 -0.25983671590E+04  0.25983671590E+04  0.00000000000E+00 0. -1.
         23    2    1    2    0    0  0.18879992713E+02 -0.98648755358E+03  0.92866305993E+02  0.99515331671E+03  0.90508703932E+02 0.  0.
        254    2    1    2    0    0 -0.18879992713E+02  0.98648755358E+03 -0.19429968981E+04  0.23514504092E+04  0.88349755707E+03 0.  0.
        -24    2    4    4    0    0  0.17086135186E+03 -0.72623379869E+02 -0.57613732542E+03  0.61001137278E+03  0.75577115024E+02 0.  0.
         24    2    4    4    0    0 -0.18974134458E+03  0.10591109334E+04 -0.13668595727E+04  0.17414390364E+04  0.81160821278E+02 0.  0.
         11    1    3    3    0    0 -0.14418612421E+02 -0.26414429172E+02  0.48117493202E+01  0.30475750756E+02  0.00000000000E+00 0. -1.
        -11    1    3    3    0    0  0.33298605134E+02 -0.96007312441E+03  0.88054556673E+02  0.96467756596E+03  0.00000000000E+00 0.  1.
          2    1    6    6  502    0 -0.30350029287E+01  0.94102161121E+02 -0.15139980378E+03  0.17828720806E+03  0.00000000000E+00 0. -1.
          1    1    5    5  503    0  0.53386570642E+02 -0.38721923291E+02 -0.11139258027E+03  0.12945199963E+03  0.00000000000E+00 0. -1.
         -2    1    5    5    0  503  0.11747478122E+03 -0.33901456578E+02 -0.46474474515E+03  0.48055937315E+03  0.00000000000E+00 0.  1.
         -1    1    6    6    0  502 -0.18670634165E+03  0.96500877233E+03 -0.12154597689E+04  0.15631518284E+04  0.00000000000E+00 0.  1.
<mgrwt>
<rscale>  0 0.27886867E+04</rscale>
<asrwt>0</asrwt>
<pdfrwt beam="1">  1        2 0.39974880E+00 0.27886867E+04</pdfrwt>
<pdfrwt beam="2">  1       -2 0.11511332E+00 0.27886867E+04</pdfrwt>
<totfact> 0.15621338E+00</totfact>
</mgrwt>
</event>
<event>
12    1  0.1598876E-007  0.1413563E+04  0.7818608E-02  0.8944059E-01
         -1   -1    0    0    0  501 -0.00000000000E+00  0.00000000000E+00  0.44461841168E+03  0.44461841168E+03  0.00000000000E+00 0.  1.
          1   -1    0    0  501    0  0.00000000000E+00 -0.00000000000E+00 -0.11235251378E+04  0.11235251378E+04  0.00000000000E+00 0. -1.
         23    2    1    2    0    0  0.18929420197E+03 -0.50867603908E+02 -0.63292169028E+03  0.66897368056E+03  0.92282778626E+02 0.  0.
        254    2    1    2    0    0 -0.18929420197E+03  0.50867603908E+02 -0.45985035884E+02  0.89916986897E+03  0.87634012901E+03 0.  0.
        -24    2    4    4    0    0  0.68162792979E+02  0.41428566619E+03  0.67816938596E+02  0.43272957634E+03  0.79855929766E+02 0.  0.
         24    2    4    4    0    0 -0.25745699495E+03 -0.36341806229E+03 -0.11380197448E+03  0.46644029263E+03  0.79112988513E+02 0.  0.
         11    1    3    3    0    0  0.93662990719E+02  0.81036392620E+01 -0.18948640492E+03  0.21152664714E+03  0.00000000000E+00 0. -1.
        -11    1    3    3    0    0  0.95631211249E+02 -0.58971243170E+02 -0.44343528536E+03  0.45744703342E+03  0.00000000000E+00 0.  1.
          4    1    6    6  502    0 -0.68147946609E+01 -0.51396278284E+02 -0.79212202972E+01  0.52447731874E+02  0.00000000000E+00 0. -1.
          1    1    5    5  503    0 -0.10082933798E+02  0.72766943238E+01 -0.14523673971E+01  0.12518993782E+02  0.00000000000E+00 0. -1.
         -2    1    5    5    0  503  0.78245726777E+02  0.40700897187E+03  0.69269305993E+02  0.42021058256E+03  0.00000000000E+00 0.  1.
         -3    1    6    6    0  502 -0.25064220029E+03 -0.31202178400E+03 -0.10588075418E+03  0.41399256076E+03  0.00000000000E+00 0.  1.
<mgrwt>
<rscale>  0 0.14135628E+04</rscale>
<asrwt>0</asrwt>
<pdfrwt beam="1">  1        1 0.17285002E+00 0.14135628E+04</pdfrwt>
<pdfrwt beam="2">  1       -1 0.68402833E-01 0.14135628E+04</pdfrwt>
<totfact> 0.25651880E+01</totfact>
</mgrwt>
</event>
<event>
12    1  0.1598876E-007  0.2105255E+04  0.7818608E-02  0.8558932E-01
         -2   -1    0    0    0  501 -0.00000000000E+00  0.00000000000E+00  0.49307483503E+03  0.49307483503E+03  0.00000000000E+00 0.  1.
          2   -1    0    0  501    0  0.00000000000E+00 -0.00000000000E+00 -0.22471740408E+04  0.22471740408E+04  0.00000000000E+00 0. -1.
         23    2    1    2    0    0  0.75774148757E+03 -0.34877102157E+02 -0.12435565842E+04  0.14593854577E+04  0.89355256522E+02 0.  0.
        254    2    1    2    0    0 -0.75774148757E+03  0.34877102157E+02 -0.51054262156E+03  0.12808634181E+04  0.89697756556E+03 0.  0.
        -24    2    4    4    0    0 -0.39489993822E+03  0.43572617763E+03 -0.11151006388E+03  0.60417435526E+03  0.82394745815E+02 0.  0.
         24    2    4    4    0    0 -0.36284154936E+03 -0.40084907547E+03 -0.39903255768E+03  0.67668906282E+03  0.79668904915E+02 0.  0.
         11    1    3    3    0    0  0.33265456128E+03 -0.49122851347E+01 -0.46382948462E+03  0.57080730416E+03  0.00000000000E+00 0. -1.
        -11    1    3    3    0    0  0.42508692630E+03 -0.29964817023E+02 -0.77972709959E+03  0.88857815357E+03  0.00000000000E+00 0.  1.
          2    1    6    6  502    0 -0.71005853612E+02 -0.65211477739E+02 -0.37229177100E+02  0.10334592253E+03  0.00000000000E+00 0. -1.
          3    1    5    5  503    0 -0.34985761551E+03  0.41088314755E+03 -0.11777467801E+03  0.55235512747E+03  0.00000000000E+00 0. -1.
         -4    1    5    5    0  503 -0.45042322710E+02  0.24843030080E+02  0.62646141239E+01  0.51819227791E+02  0.00000000000E+00 0.  1.
         -1    1    6    6    0  502 -0.29183569574E+03 -0.33563759773E+03 -0.36180338058E+03  0.57334314029E+03  0.00000000000E+00 0.  1.
<mgrwt>
<rscale>  0 0.21052553E+04</rscale>
<asrwt>0</asrwt>
<pdfrwt beam="1">  1        2 0.34571908E+00 0.21052553E+04</pdfrwt>
<pdfrwt beam="2">  1       -2 0.75857667E-01 0.21052553E+04</pdfrwt>
<totfact> 0.69656626E+00</totfact>
</mgrwt>
</event>
<event>
12    1  0.1598876E-007  0.1267887E+04  0.7818608E-02  0.9055426E-01
         -2   -1    0    0    0  501 -0.00000000000E+00  0.00000000000E+00  0.21924326773E+03  0.21924326773E+03  0.00000000000E+00 0.  1.
          2   -1    0    0  501    0  0.00000000000E+00 -0.00000000000E+00 -0.18330533537E+04  0.18330533537E+04  0.00000000000E+00 0. -1.
         23    2    1    2    0    0 -0.25512264151E+03 -0.83639296246E+01 -0.14439837028E+03  0.30700256676E+03  0.90786392863E+02 0.  0.
        254    2    1    2    0    0  0.25512264151E+03  0.83639296246E+01 -0.14694117157E+04  0.17452940547E+04  0.90648939847E+03 0.  0.
        -24    2    4    4    0    0  0.34192568099E+03  0.35261593176E+03 -0.11775946417E+04  0.12783788682E+04  0.79197373336E+02 0.  0.
         24    2    4    4    0    0 -0.86803039473E+02 -0.34425200213E+03 -0.29181707405E+03  0.46691518649E+03  0.82512896168E+02 0.  0.
         11    1    3    3    0    0 -0.58394445726E+02 -0.32521232518E+02 -0.65764284831E+02  0.93768240975E+02  0.00000000000E+00 0. -1.
        -11    1    3    3    0    0 -0.19672819579E+03  0.24157302893E+02 -0.78634085447E+02  0.21323432579E+03  0.00000000000E+00 0.  1.
          4    1    6    6  502    0  0.31312723401E+01 -0.24964845289E+01 -0.21825961137E+02  0.22190310521E+02  0.00000000000E+00 0. -1.
          1    1    5    5  503    0  0.21316766268E+03  0.25183177045E+03 -0.86100884103E+03  0.92206069070E+03  0.00000000000E+00 0. -1.
         -2    1    5    5    0  503  0.12875801831E+03  0.10078416131E+03 -0.31658580065E+03  0.35631817750E+03  0.00000000000E+00 0.  1.
         -3    1    6    6    0  502 -0.89934311813E+02 -0.34175551760E+03 -0.26999111292E+03  0.44472487597E+03  0.00000000000E+00 0.  1.
<mgrwt>
<rscale>  0 0.12678874E+04</rscale>
<asrwt>0</asrwt>
<pdfrwt beam="1">  1        2 0.28200822E+00 0.12678874E+04</pdfrwt>
<pdfrwt beam="2">  1       -2 0.33729733E-01 0.12678874E+04</pdfrwt>
<totfact> 0.66817376E+01</totfact>
</mgrwt>
</event>
<event>
12    1  0.1598876E-007  0.1894195E+04  0.7818608E-02  0.8657751E-01
         -2   -1    0    0    0  501 -0.00000000000E+00  0.00000000000E+00  0.39615299150E+03  0.39615299150E+03  0.00000000000E+00 0.  1.
          2   -1    0    0  501    0  0.00000000000E+00 -0.00000000000E+00 -0.22642611183E+04  0.22642611183E+04  0.00000000000E+00 0. -1.
         23    2    1    2    0    0 -0.56755882951E+03 -0.29601988864E+03 -0.12123440590E+04  0.13738368012E+04  0.88874290642E+02 0.  0.
        254    2    1    2    0    0  0.56755882951E+03  0.29601988864E+03 -0.65576406780E+03  0.12865773086E+04  0.90305252279E+03 0.  0.
        -24    2    4    4    0    0  0.30220118631E+03  0.41066352055E+03  0.51166973451E+02  0.51863648548E+03  0.79972875336E+02 0.  0.
         24    2    4    4    0    0  0.26535764321E+03 -0.11464363191E+03 -0.70693104125E+03  0.76794082310E+03  0.80148421981E+02 0.  0.
         13    1    3    3    0    0 -0.43380823749E+03 -0.18976103117E+03 -0.93620685547E+03  0.10491339820E+04  0.00000000000E+00 0. -1.
        -13    1    3    3    0    0 -0.13375059203E+03 -0.10625885747E+03 -0.27613720349E+03  0.32470281922E+03  0.00000000000E+00 0.  1.
          2    1    6    6  502    0  0.13497776748E+03 -0.32237183646E+02 -0.41776557380E+03  0.44021166316E+03  0.00000000000E+00 0. -1.
          1    1    5    5  503    0  0.28269049723E+03  0.40252183629E+03  0.60401373074E+02  0.49556641511E+03  0.00000000000E+00 0. -1.
         -2    1    5    5    0  503  0.19510689073E+02  0.81416842582E+01 -0.92343996230E+01  0.23070070374E+02  0.00000000000E+00 0.  1.
         -1    1    6    6    0  502  0.13037987573E+03 -0.82406448265E+02 -0.28916546745E+03  0.32772915994E+03  0.00000000000E+00 0.  1.
<mgrwt>
<rscale>  0 0.18941951E+04</rscale>
<asrwt>0</asrwt>
<pdfrwt beam="1">  1        2 0.34834788E+00 0.18941951E+04</pdfrwt>
<pdfrwt beam="2">  1       -2 0.60946611E-01 0.18941951E+04</pdfrwt>
<totfact> 0.11153835E+01</totfact>
</mgrwt>
</event>
<event>
12    1  0.1598876E-007  0.1419602E+04  0.7818608E-02  0.8939750E-01
          1   -1    0    0  501    0  0.00000000000E+00  0.00000000000E+00  0.61489016604E+03  0.61489016604E+03  0.00000000000E+00 0. -1.
         -1   -1    0    0    0  501 -0.00000000000E+00 -0.00000000000E+00 -0.81936197608E+03  0.81936197608E+03  0.00000000000E+00 0.  1.
         23    2    1    2    0    0  0.24315581317E+03  0.21450312568E+03 -0.31481456046E+03  0.46082429570E+03  0.90080428639E+02 0.  0.
        254    2    1    2    0    0 -0.24315581317E+03 -0.21450312568E+03  0.11034275042E+03  0.97342784642E+03  0.91118050309E+03 0.  0.
        -24    2    4    4    0    0  0.31075348408E+03 -0.21453140780E+03  0.14606850964E+03  0.41280782355E+03  0.80516065953E+02 0.  0.
         24    2    4    4    0    0 -0.55390929725E+03  0.28282122205E-01 -0.35725759221E+02  0.56062002287E+03  0.78758934688E+02 0.  0.
         13    1    3    3    0    0  0.15775186064E+03  0.92735461971E+02 -0.13460625610E+03  0.22716592972E+03  0.00000000000E+00 0.  1.
        -13    1    3    3    0    0  0.85403952524E+02  0.12176766371E+03 -0.18020830436E+03  0.23365836598E+03  0.00000000000E+00 0. -1.
          2    1    6    6  502    0 -0.46291813131E+03  0.62820525803E+01 -0.81601482533E+00  0.46296147395E+03  0.00000000000E+00 0. -1.
          3    1    5    5  503    0  0.25660859532E+03 -0.14543845323E+03  0.88946597241E+02  0.30807760716E+03  0.00000000000E+00 0. -1.
         -4    1    5    5    0  503  0.54144888758E+02 -0.69092954571E+02  0.57121912400E+02  0.10473021640E+03  0.00000000000E+00 0.  1.
         -1    1    6    6    0  502 -0.90991165935E+02 -0.62537704581E+01 -0.34909744395E+02  0.97658548919E+02  0.00000000000E+00 0.  1.
<mgrwt>
<rscale>  0 0.14196022E+04</rscale>
<asrwt>0</asrwt>
<pdfrwt beam="1">  1        1 0.94598487E-01 0.14196022E+04</pdfrwt>
<pdfrwt beam="2">  1       -1 0.12605569E+00 0.14196022E+04</pdfrwt>
<totfact> 0.17637848E+01</totfact>
</mgrwt>
</event>
<event>
12    1  0.1598876E-007  0.1330315E+04  0.7818608E-02  0.9005864E-01
          1   -1    0    0  501    0  0.00000000000E+00  0.00000000000E+00  0.38821297666E+03  0.38821297666E+03  0.00000000000E+00 0. -1.
         -1   -1    0    0    0  501 -0.00000000000E+00 -0.00000000000E+00 -0.11396701912E+04  0.11396701912E+04  0.00000000000E+00 0.  1.
         23    2    1    2    0    0  0.22014909848E+03 -0.13198287070E+02  0.10834623529E+03  0.26228428481E+03  0.91729597257E+02 0.  0.
        254    2    1    2    0    0 -0.22014909848E+03  0.13198287070E+02 -0.85980344980E+03  0.12655988830E+04  0.90213011260E+03 0.  0.
        -24    2    4    4    0    0  0.32474926758E+03 -0.12277477960E+03 -0.26340320783E+03  0.44252594364E+03  0.76891011190E+02 0.  0.
         24    2    4    4    0    0 -0.54489836606E+03  0.13597306667E+03 -0.59640024196E+03  0.82307293937E+03  0.79705148589E+02 0.  0.
         13    1    3    3    0    0  0.47790427185E+01 -0.12967088736E+02 -0.95100961734E+01  0.16775773271E+02  0.00000000000E+00 0.  1.
        -13    1    3    3    0    0  0.21537005577E+03 -0.23119833353E+00  0.11785633147E+03  0.24550851154E+03  0.00000000000E+00 0. -1.
          4    1    6    6  502    0 -0.35189093068E+03  0.12070263095E+03 -0.36232924975E+03  0.51930611150E+03  0.00000000000E+00 0. -1.
          1    1    5    5  503    0  0.28853479271E+03 -0.12115253624E+03 -0.25859497851E+03  0.40595766596E+03  0.00000000000E+00 0. -1.
         -2    1    5    5    0  503  0.36214474873E+02 -0.16222433602E+01 -0.48082293277E+01  0.36568277688E+02  0.00000000000E+00 0.  1.
         -3    1    6    6    0  502 -0.19300743538E+03  0.15270435717E+02 -0.23407099222E+03  0.30376682787E+03  0.00000000000E+00 0.  1.
<mgrwt>
<rscale>  0 0.13303154E+04</rscale>
<asrwt>0</asrwt>
<pdfrwt beam="1">  1        1 0.59725074E-01 0.13303154E+04</pdfrwt>
<pdfrwt beam="2">  1       -1 0.17533387E+00 0.13303154E+04</pdfrwt>
<totfact> 0.13765574E+01</totfact>
</mgrwt>
</event>
<event>
12    1  0.1598876E-007  0.1231840E+04  0.7818608E-02  0.9085434E-01
         -1   -1    0    0    0  501 -0.00000000000E+00  0.00000000000E+00  0.19096700613E+03  0.19096700613E+03  0.00000000000E+00 0.  1.
          1   -1    0    0  501    0  0.00000000000E+00 -0.00000000000E+00 -0.19865091821E+04  0.19865091821E+04  0.00000000000E+00 0. -1.
         23    2    1    2    0    0  0.19062412745E+03  0.17511516489E+02 -0.75788518461E+03  0.79043549303E+03  0.11727789397E+03 0.  0.
        254    2    1    2    0    0 -0.19062412745E+03 -0.17511516489E+02 -0.10376569914E+04  0.13870406952E+04  0.90028087131E+03 0.  0.
        -24    2    4    4    0    0  0.27894042987E+03 -0.25264555449E+03 -0.49796481724E+03  0.62972025972E+03  0.83313304301E+02 0.  0.
         24    2    4    4    0    0 -0.46956455732E+03  0.23513403800E+03 -0.53969217411E+03  0.75732043548E+03  0.80546321304E+02 0.  0.
         11    1    3    3    0    0  0.20601673847E+03  0.14818773816E+02 -0.72769829952E+03  0.75644385629E+03  0.00000000000E+00 0. -1.
        -11    1    3    3    0    0 -0.15392611021E+02  0.26927426727E+01 -0.30186885084E+02  0.33991636739E+02  0.00000000000E+00 0.  1.
          2    1    6    6  502    0 -0.41004975511E+03  0.21470516248E+03 -0.50666195002E+03  0.68625464666E+03  0.00000000000E+00 0. -1.
          1    1    5    5  503    0  0.23002976815E+03 -0.16054139735E+03 -0.37901406935E+03  0.47152825924E+03  0.00000000000E+00 0. -1.
         -2    1    5    5    0  503  0.48910661725E+02 -0.92104157137E+02 -0.11895074790E+03  0.15819200049E+03  0.00000000000E+00 0.  1.
         -1    1    6    6    0  502 -0.59514802209E+02  0.20428875516E+02 -0.33030224097E+02  0.71065788820E+02  0.00000000000E+00 0.  1.
<mgrwt>
<rscale>  0 0.12318404E+04</rscale>
<asrwt>0</asrwt>
<pdfrwt beam="1">  1        1 0.30561681E+00 0.12318404E+04</pdfrwt>
<pdfrwt beam="2">  1       -1 0.29379538E-01 0.12318404E+04</pdfrwt>
<totfact> 0.31862665E+01</totfact>
</mgrwt>
</event>
<event>
12    1  0.1598876E-007  0.1287588E+04  0.7818608E-02  0.9039466E-01
          2   -1    0    0  501    0  0.00000000000E+00  0.00000000000E+00  0.26465912665E+04  0.26465912665E+04  0.00000000000E+00 0. -1.
         -2   -1    0    0    0  501 -0.00000000000E+00 -0.00000000000E+00 -0.15660549836E+03  0.15660549836E+03  0.00000000000E+00 0.  1.
         23    2    1    2    0    0  0.15485084421E+03  0.32317317772E+02  0.12735812837E+04  0.12867761493E+04  0.93596897616E+02 0.  0.
        254    2    1    2    0    0 -0.15485084421E+03 -0.32317317772E+02  0.12164044845E+04  0.15164206156E+04  0.89155393588E+03 0.  0.
        -24    2    4    4    0    0 -0.21553578417E+03 -0.26054538418E+03  0.85205357175E+02  0.35788375448E+03  0.80506256615E+02 0.  0.
         24    2    4    4    0    0  0.60684939958E+02  0.22822806641E+03  0.11311991273E+04  0.11585368611E+04  0.82616467718E+02 0.  0.
         11    1    3    3    0    0  0.12307947101E+03  0.39392304017E+02  0.67188429978E+03  0.68419940229E+03  0.00000000000E+00 0. -1.
        -11    1    3    3    0    0  0.31771373199E+02 -0.70749862453E+01  0.60169698390E+03  0.60257674700E+03  0.00000000000E+00 0.  1.
          4    1    6    6  502    0  0.12285538158E+02  0.48173977632E+02  0.43400678532E+03  0.43684500257E+03  0.00000000000E+00 0. -1.
          3    1    5    5  503    0 -0.10254859768E+03 -0.93903854416E+02 -0.54675132340E+00  0.13904836460E+03  0.00000000000E+00 0. -1.
         -4    1    5    5    0  503 -0.11298718649E+03 -0.16664152977E+03  0.85752108499E+02  0.21883538988E+03  0.00000000000E+00 0.  1.
         -3    1    6    6    0  502  0.48399401800E+02  0.18005408878E+03  0.69719234197E+03  0.72169185853E+03  0.00000000000E+00 0.  1.
<mgrwt>
<rscale>  0 0.12875880E+04</rscale>
<asrwt>0</asrwt>
<pdfrwt beam="1">  1        2 0.40716785E+00 0.12875880E+04</pdfrwt>
<pdfrwt beam="2">  1       -2 0.24093156E-01 0.12875880E+04</pdfrwt>
<totfact> 0.43272974E+01</totfact>
</mgrwt>
</event>
<event>
12    1  0.1598876E-007  0.2588687E+04  0.7818608E-02  0.8372054E-01
          1   -1    0    0  501    0  0.00000000000E+00  0.00000000000E+00  0.14950156574E+04  0.14950156574E+04  0.00000000000E+00 0. -1.
         -1   -1    0    0    0  501 -0.00000000000E+00 -0.00000000000E+00 -0.11206071299E+04  0.11206071299E+04  0.00000000000E+00 0.  1.
         23    2    1    2    0    0 -0.64875017055E+03  0.53479372632E+02  0.11080581577E+04  0.12882063177E+04  0.89139267766E+02 0.  0.
        254    2    1    2    0    0  0.64875017055E+03 -0.53479372632E+02 -0.73364963026E+03  0.13274164696E+04  0.89445842651E+03 0.  0.
        -24    2    4    4    0    0  0.75998078159E+03  0.21822520745E+03 -0.46160662551E+03  0.91901862009E+03  0.79507973151E+02 0.  0.
         24    2    4    4    0    0 -0.11123061104E+03 -0.27170458008E+03 -0.27204300475E+03  0.40839784954E+03  0.81152815141E+02 0.  0.
         13    1    3    3    0    0 -0.57194873459E+03  0.37592978228E+02  0.10220899685E+04  0.11718389355E+04  0.00000000000E+00 0. -1.
        -13    1    3    3    0    0 -0.76801435957E+02  0.15886394404E+02  0.85968189234E+02  0.11636738225E+03  0.00000000000E+00 0.  1.
          4    1    6    6  502    0 -0.29113971958E+02 -0.17477397623E+03 -0.16844322415E+03  0.24447225996E+03  0.00000000000E+00 0. -1.
          1    1    5    5  503    0  0.60048026477E+03  0.15174580172E+03 -0.39034283735E+03  0.73210031238E+03  0.00000000000E+00 0. -1.
         -4    1    5    5    0  503  0.15950051683E+03  0.66479405730E+02 -0.71263788165E+02  0.18691830771E+03  0.00000000000E+00 0.  1.
         -3    1    6    6    0  502 -0.82116639081E+02 -0.96930603855E+02 -0.10359978061E+03  0.16392558958E+03  0.00000000000E+00 0.  1.
<mgrwt>
<rscale>  0 0.25886871E+04</rscale>
<asrwt>0</asrwt>
<pdfrwt beam="1">  1        1 0.23000241E+00 0.25886871E+04</pdfrwt>
<pdfrwt beam="2">  1       -1 0.17240110E+00 0.25886871E+04</pdfrwt>
<totfact> 0.13736663E+00</totfact>
</mgrwt>
</event>
<event>
12    1  0.1598876E-007  0.2278631E+04  0.7818608E-02  0.8486395E-01
          2   -1    0    0  501    0  0.00000000000E+00  0.00000000000E+00  0.10761288872E+04  0.10761288872E+04  0.00000000000E+00 0. -1.
         -2   -1    0    0    0  501 -0.00000000000E+00 -0.00000000000E+00 -0.12062121871E+04  0.12062121871E+04  0.00000000000E+00 0.  1.
         23    2    1    2    0    0 -0.17128791847E+03  0.44781130607E+03  0.77381528134E+03  0.91489017278E+03  0.91429873419E+02 0.  0.
        254    2    1    2    0    0  0.17128791847E+03 -0.44781130607E+03 -0.90389858119E+03  0.13674509015E+04  0.90720163478E+03 0.  0.
        -24    2    4    4    0    0  0.24168461097E+03 -0.35213484308E+03  0.17859002672E+02  0.43476768308E+03  0.79332183763E+02 0.  0.
         24    2    4    4    0    0 -0.70396692504E+02 -0.95676462992E+02 -0.92175758386E+03  0.93268321845E+03  0.78429985847E+02 0.  0.
         13    1    3    3    0    0 -0.51194821456E+02  0.56134513644E+02  0.90342911587E+02  0.11804166654E+03  0.00000000000E+00 0.  1.
        -13    1    3    3    0    0 -0.12009309701E+03  0.39167679243E+03  0.68347236975E+03  0.79684850624E+03  0.00000000000E+00 0. -1.
          2    1    6    6  502    0 -0.22158290960E+02 -0.39913628821E+02 -0.13565977745E+03  0.14313512093E+03  0.00000000000E+00 0. -1.
          1    1    5    5  503    0  0.45223146143E+02 -0.37132670945E+02  0.24563569773E+02  0.63461304419E+02  0.00000000000E+00 0. -1.
         -2    1    5    5    0  503  0.19646146483E+03 -0.31500217214E+03 -0.67045671007E+01  0.37130637866E+03  0.00000000000E+00 0.  1.
         -1    1    6    6    0  502 -0.48238401544E+02 -0.55762834171E+02 -0.78609780641E+03  0.78954809752E+03  0.00000000000E+00 0.  1.
<mgrwt>
<rscale>  0 0.22786310E+04</rscale>
<asrwt>0</asrwt>
<pdfrwt beam="1">  1        2 0.16555829E+00 0.22786310E+04</pdfrwt>
<pdfrwt beam="2">  1       -2 0.18557111E+00 0.22786310E+04</pdfrwt>
<totfact> 0.33992607E+00</totfact>
</mgrwt>
</event>
<event>
12    1  0.1598876E-007  0.1475353E+04  0.7818608E-02  0.8901010E-01
          2   -1    0    0  501    0  0.00000000000E+00  0.00000000000E+00  0.88046012421E+03  0.88046012421E+03  0.00000000000E+00 0.  1.
         -2   -1    0    0    0  501 -0.00000000000E+00 -0.00000000000E+00 -0.61804791470E+03  0.61804791470E+03  0.00000000000E+00 0. -1.
         23    2    1    2    0    0 -0.23001325423E+03  0.14233060556E+03 -0.27776752372E+03  0.39815676336E+03  0.90608567921E+02 0.  0.
        254    2    1    2    0    0  0.23001325423E+03 -0.14233060556E+03  0.54017973323E+03  0.11003512755E+04  0.91968184010E+03 0.  0.
        -24    2    4    4    0    0  0.21712185368E+03 -0.44416568724E+03  0.29495697302E+02  0.50166401301E+03  0.79823108986E+02 0.  0.
         24    2    4    4    0    0  0.12891400551E+02  0.30183508168E+03  0.51068403593E+03  0.59868726254E+03  0.79734867076E+02 0.  0.
         13    1    3    3    0    0 -0.13528786547E+03  0.12881963712E+03 -0.15659715416E+03  0.24376212614E+03  0.00000000000E+00 0. -1.
        -13    1    3    3    0    0 -0.94725388760E+02  0.13510968438E+02 -0.12117036956E+03  0.15439463722E+03  0.00000000000E+00 0.  1.
          4    1    6    6  502    0  0.15711616313E+01  0.29893443100E+03  0.50144388877E+03  0.58378954784E+03  0.00000000000E+00 0. -1.
          3    1    5    5  503    0  0.21494902177E+03 -0.38022569108E+03  0.27885832072E+02  0.43766685704E+03  0.00000000000E+00 0. -1.
         -4    1    5    5    0  503  0.21728319083E+01 -0.63939996152E+02  0.16098652301E+01  0.63997155972E+02  0.00000000000E+00 0.  1.
         -3    1    6    6    0  502  0.11320238919E+02  0.29006506802E+01  0.92401471655E+01  0.14897714697E+02  0.00000000000E+00 0.  1.
<mgrwt>
<rscale>  0 0.14753529E+04</rscale>
<asrwt>0</asrwt>
<pdfrwt beam="1">  1        2 0.13545540E+00 0.14753529E+04</pdfrwt>
<pdfrwt beam="2">  1       -2 0.95084294E-01 0.14753529E+04</pdfrwt>
<totfact> 0.27226719E+01</totfact>
</mgrwt>
</event>
<event>
12    1  0.1598876E-007  0.1361815E+04  0.7818608E-02  0.8981932E-01
         -1   -1    0    0    0  501 -0.00000000000E+00  0.00000000000E+00  0.16431792155E+03  0.16431792155E+03  0.00000000000E+00 0.  1.
          1   -1    0    0  501    0  0.00000000000E+00 -0.00000000000E+00 -0.28215732407E+04  0.28215732407E+04  0.00000000000E+00 0. -1.
         23    2    1    2    0    0  0.37469214317E+03 -0.14192691686E+02 -0.75915285774E+03  0.85197721375E+03  0.94638663811E+02 0.  0.
        254    2    1    2    0    0 -0.37469214317E+03  0.14192691686E+02 -0.18981024614E+04  0.21339139485E+04  0.90011118807E+03 0.  0.
        -24    2    4    4    0    0 -0.91200066814E+02 -0.41885405313E+03 -0.10450375330E+04  0.11328918296E+04  0.87087784717E+02 0.  0.
         24    2    4    4    0    0 -0.28349207635E+03  0.43304674481E+03 -0.85306492838E+03  0.10010221188E+04  0.80176491702E+02 0.  0.
         11    1    3    3    0    0  0.11370437977E+03  0.13746196303E+02 -0.32564454409E+03  0.34519851243E+03  0.00000000000E+00 0.  1.
        -11    1    3    3    0    0  0.26098776339E+03 -0.27938887989E+02 -0.43350831366E+03  0.50677870132E+03  0.00000000000E+00 0. -1.
          4    1    6    6  502    0 -0.16052565653E+02  0.45212206047E+02 -0.12437258372E+03  0.13330554385E+03  0.00000000000E+00 0. -1.
          1    1    5    5  503    0 -0.37766671628E+02 -0.53211142590E+02 -0.11655104717E+03  0.13357355194E+03  0.00000000000E+00 0. -1.
         -2    1    5    5    0  503 -0.53433395186E+02 -0.36564291054E+03 -0.92848648582E+03  0.99931827768E+03  0.00000000000E+00 0.  1.
         -3    1    6    6    0  502 -0.26743951070E+03  0.38783453877E+03 -0.72869234466E+03  0.86771657499E+03  0.00000000000E+00 0.  1.
<mgrwt>
<rscale>  0 0.13618150E+04</rscale>
<asrwt>0</asrwt>
<pdfrwt beam="1">  1        1 0.43408820E+00 0.13618150E+04</pdfrwt>
<pdfrwt beam="2">  1       -1 0.25279680E-01 0.13618150E+04</pdfrwt>
<totfact> 0.10882514E+01</totfact>
</mgrwt>
</event>
<event>
12    1  0.1598876E-007  0.2169981E+04  0.7818608E-02  0.8531028E-01
          2   -1    0    0  501    0  0.00000000000E+00  0.00000000000E+00  0.10201547950E+04  0.10201547950E+04  0.00000000000E+00 0. -1.
         -2   -1    0    0    0  501 -0.00000000000E+00 -0.00000000000E+00 -0.11539465207E+04  0.11539465207E+04  0.00000000000E+00 0.  1.
         23    2    1    2    0    0 -0.84541995124E+03  0.18541195835E+03 -0.28389511972E+03  0.91510659196E+03  0.87813139031E+02 0.  0.
        254    2    1    2    0    0  0.84541995124E+03 -0.18541195835E+03  0.15010339400E+03  0.12589947237E+04  0.90190032550E+03 0.  0.
        -24    2    4    4    0    0  0.98864583434E+03 -0.29388196121E+03  0.20515158418E+03  0.10544720025E+04  0.77697096256E+02 0.  0.
         24    2    4    4    0    0 -0.14322588310E+03  0.10847000287E+03 -0.55048190177E+02  0.20452272115E+03  0.80745557843E+02 0.  0.
         13    1    3    3    0    0 -0.55619907913E+03  0.80496237041E+02 -0.19492377630E+03  0.59483807743E+03  0.00000000000E+00 0.  1.
        -13    1    3    3    0    0 -0.28922087211E+03  0.10491572131E+03 -0.88971343423E+02  0.32026851452E+03  0.00000000000E+00 0. -1.
          2    1    6    6  502    0 -0.30302754507E+02  0.45696617139E+02 -0.51578644650E+02  0.75278113238E+02  0.00000000000E+00 0. -1.
          3    1    5    5  503    0  0.35316280997E+03 -0.13378786929E+03  0.10081513223E+03  0.39087959169E+03  0.00000000000E+00 0. -1.
         -4    1    5    5    0  503  0.63548302437E+03 -0.16009409193E+03  0.10433645195E+03  0.66359241085E+03  0.00000000000E+00 0.  1.
         -1    1    6    6    0  502 -0.11292312860E+03  0.62773385726E+02 -0.34695455264E+01  0.12924460791E+03  0.00000000000E+00 0.  1.
<mgrwt>
<rscale>  0 0.21699807E+04</rscale>
<asrwt>0</asrwt>
<pdfrwt beam="1">  1        2 0.15694689E+00 0.21699807E+04</pdfrwt>
<pdfrwt beam="2">  1       -2 0.17753023E+00 0.21699807E+04</pdfrwt>
<totfact> 0.42252852E+00</totfact>
</mgrwt>
</event>
<event>
12    1  0.1598876E-007  0.1279343E+04  0.7818608E-02  0.9046109E-01
          1   -1    0    0  501    0  0.00000000000E+00  0.00000000000E+00  0.95937543647E+03  0.95937543647E+03  0.00000000000E+00 0. -1.
         -1   -1    0    0    0  501 -0.00000000000E+00 -0.00000000000E+00 -0.42650627739E+03  0.42650627739E+03  0.00000000000E+00 0.  1.
         23    2    1    2    0    0 -0.17144858115E+03  0.23015260637E+03  0.28659270011E+03  0.41586032377E+03  0.91867267991E+02 0.  0.
        254    2    1    2    0    0  0.17144858115E+03 -0.23015260637E+03  0.24627645897E+03  0.97002139009E+03  0.89326623400E+03 0.  0.
        -24    2    4    4    0    0  0.40353950135E+03 -0.21801404625E+03 -0.16252065158E+03  0.49317961337E+03  0.80242852311E+02 0.  0.
         24    2    4    4    0    0 -0.23209092020E+03 -0.12138560123E+02  0.40879711055E+03  0.47684177672E+03  0.79053542332E+02 0.  0.
         13    1    3    3    0    0 -0.11038345233E+03  0.16875492979E+03  0.25166458081E+03  0.32248688983E+03  0.00000000000E+00 0. -1.
        -13    1    3    3    0    0 -0.61065128821E+02  0.61397676579E+02  0.34928119300E+02  0.93373433936E+02  0.00000000000E+00 0.  1.
          4    1    6    6  502    0 -0.80740038167E+02  0.54756344765E+01  0.21884091657E+03  0.23332441600E+03  0.00000000000E+00 0. -1.
          3    1    5    5  503    0  0.40534913602E+03 -0.20981994965E+03 -0.15536702521E+03  0.48215272048E+03  0.00000000000E+00 0. -1.
         -4    1    5    5    0  503 -0.18096346706E+01 -0.81940965943E+01 -0.71536263685E+01  0.11026892892E+02  0.00000000000E+00 0.  1.
         -1    1    6    6    0  502 -0.15135088203E+03 -0.17614194600E+02  0.18995619398E+03  0.24351736072E+03  0.00000000000E+00 0.  1.
<mgrwt>
<rscale>  0 0.12793430E+04</rscale>
<asrwt>0</asrwt>
<pdfrwt beam="1">  1        1 0.14759622E+00 0.12793430E+04</pdfrwt>
<pdfrwt beam="2">  1       -1 0.65616351E-01 0.12793430E+04</pdfrwt>
<totfact> 0.37747683E+01</totfact>
</mgrwt>
</event>
<event>
12    1  0.1598876E-007  0.2265979E+04  0.7818608E-02  0.8491457E-01
         -1   -1    0    0    0  501 -0.00000000000E+00  0.00000000000E+00  0.11182084274E+04  0.11182084274E+04  0.00000000000E+00 0.  1.
          1   -1    0    0  501    0  0.00000000000E+00 -0.00000000000E+00 -0.11479660597E+04  0.11479660597E+04  0.00000000000E+00 0. -1.
         23    2    1    2    0    0  0.57617832854E+03 -0.72586264185E+03  0.20567508336E+03  0.95377123984E+03  0.92300037469E+02 0.  0.
        254    2    1    2    0    0 -0.57617832854E+03  0.72586264185E+03 -0.23543271570E+03  0.13124032473E+04  0.89895254538E+03 0.  0.
        -24    2    4    4    0    0 -0.27238296744E+03  0.75125105922E+03 -0.46003015087E+03  0.92552927457E+03  0.80037887483E+02 0.  0.
         24    2    4    4    0    0 -0.30379536109E+03 -0.25388417371E+02  0.22459743518E+03  0.38687397275E+03  0.79317524845E+02 0.  0.
         11    1    3    3    0    0  0.17801472254E+03 -0.23530202790E+03  0.10933015814E+03  0.31465754282E+03  0.00000000000E+00 0. -1.
        -11    1    3    3    0    0  0.39816360600E+03 -0.49056061395E+03  0.96344925222E+02  0.63911369702E+03  0.00000000000E+00 0.  1.
          2    1    6    6  502    0 -0.13712317667E+03 -0.41785208837E+02  0.13512192394E+03  0.19699417145E+03  0.00000000000E+00 0. -1.
          1    1    5    5  503    0 -0.82272098000E+02  0.13670731575E+03 -0.81899507505E+02  0.17934636216E+03  0.00000000000E+00 0. -1.
         -2    1    5    5    0  503 -0.19011086944E+03  0.61454374347E+03 -0.37813064337E+03  0.74618291241E+03  0.00000000000E+00 0.  1.
         -1    1    6    6    0  502 -0.16667218442E+03  0.16396791466E+02  0.89475511239E+02  0.18987980130E+03  0.00000000000E+00 0.  1.
<mgrwt>
<rscale>  0 0.22659791E+04</rscale>
<asrwt>0</asrwt>
<pdfrwt beam="1">  1        1 0.17661016E+00 0.22659791E+04</pdfrwt>
<pdfrwt beam="2">  1       -1 0.17203207E+00 0.22659791E+04</pdfrwt>
<totfact> 0.25160663E+00</totfact>
</mgrwt>
</event>
<event>
12    1  0.1598876E-007  0.2257613E+04  0.7818608E-02  0.8494824E-01
         -2   -1    0    0    0  501 -0.00000000000E+00  0.00000000000E+00  0.13761282817E+04  0.13761282817E+04  0.00000000000E+00 0.  1.
          2   -1    0    0  501    0  0.00000000000E+00 -0.00000000000E+00 -0.92593419545E+03  0.92593419545E+03  0.00000000000E+00 0. -1.
         23    2    1    2    0    0 -0.34530996577E+03  0.18993247292E+03  0.10662604746E+04  0.11426023509E+04  0.11539244264E+03 0.  0.
        254    2    1    2    0    0  0.34530996577E+03 -0.18993247292E+03 -0.61606638834E+03  0.11594601263E+04  0.89972033034E+03 0.  0.
        -24    2    4    4    0    0  0.39971843605E+03 -0.49736140981E+03 -0.30611066865E+03  0.71233825520E+03  0.81110099715E+02 0.  0.
         24    2    4    4    0    0 -0.54408470279E+02  0.30742893690E+03 -0.30995571969E+03  0.44712187106E+03  0.79828481948E+02 0.  0.
         13    1    3    3    0    0 -0.83911356172E+02  0.56347459981E+02  0.15342350226E+03  0.18372512889E+03  0.00000000000E+00 0. -1.
        -13    1    3    3    0    0 -0.26139860960E+03  0.13358501294E+03  0.91283697231E+03  0.95887722197E+03  0.00000000000E+00 0.  1.
          2    1    6    6  502    0 -0.21317736752E+02  0.26619960220E+03 -0.23717909908E+03  0.35717026633E+03  0.00000000000E+00 0. -1.
          3    1    5    5  503    0  0.18337376062E+03 -0.24909728437E+03 -0.19081181723E+03  0.36343437201E+03  0.00000000000E+00 0. -1.
         -4    1    5    5    0  503  0.21634467542E+03 -0.24826412545E+03 -0.11529885142E+03  0.34890388319E+03  0.00000000000E+00 0.  1.
         -1    1    6    6    0  502 -0.33090733527E+02  0.41229334693E+02 -0.72776620616E+02  0.89951604726E+02  0.00000000000E+00 0.  1.
<mgrwt>
<rscale>  0 0.22576131E+04</rscale>
<asrwt>0</asrwt>
<pdfrwt beam="1">  1        2 0.14245141E+00 0.22576131E+04</pdfrwt>
<pdfrwt beam="2">  1       -2 0.21171204E+00 0.22576131E+04</pdfrwt>
<totfact> 0.28599042E+00</totfact>
</mgrwt>
</event>
<event>
12    1  0.1598876E-007  0.2372972E+04  0.7818608E-02  0.8449692E-01
         -1   -1    0    0    0  501 -0.00000000000E+00  0.00000000000E+00  0.14089648221E+04  0.14089648221E+04  0.00000000000E+00 0.  1.
          1   -1    0    0  501    0  0.00000000000E+00 -0.00000000000E+00 -0.99913671160E+03  0.99913671160E+03  0.00000000000E+00 0. -1.
         23    2    1    2    0    0  0.96668079768E+03  0.30824463569E+03  0.20407420833E+03  0.10389318960E+04  0.90811243557E+02 0.  0.
        254    2    1    2    0    0 -0.96668079768E+03 -0.30824463569E+03  0.20575390221E+03  0.13691696378E+04  0.89599347578E+03 0.  0.
        -24    2    4    4    0    0 -0.10153931484E+04 -0.41633214361E+03  0.36034909109E+03  0.11577872748E+04  0.79146740215E+02 0.  0.
         24    2    4    4    0    0  0.48712350748E+02  0.10808750792E+03 -0.15459518888E+03  0.21138236299E+03  0.82018464216E+02 0.  0.
         13    1    3    3    0    0  0.95510530068E+03  0.31018353230E+03  0.19259159372E+03  0.10225123379E+04  0.00000000000E+00 0.  1.
        -13    1    3    3    0    0  0.11575496996E+02 -0.19388966133E+01  0.11482614607E+02  0.16419558124E+02  0.00000000000E+00 0. -1.
          2    1    6    6  502    0  0.66862686805E+02  0.95615104696E+02 -0.10438091185E+03  0.15655108397E+03  0.00000000000E+00 0. -1.
          1    1    5    5  503    0 -0.58376822297E+03 -0.19829808791E+03  0.21245892769E+03  0.65210909040E+03  0.00000000000E+00 0. -1.
         -2    1    5    5    0  503 -0.43162492546E+03 -0.21803405570E+03  0.14789016340E+03  0.50567818437E+03  0.00000000000E+00 0.  1.
         -1    1    6    6    0  502 -0.18150336057E+02  0.12472403228E+02 -0.50214277029E+02  0.54831279018E+02  0.00000000000E+00 0.  1.
<mgrwt>
<rscale>  0 0.23729715E+04</rscale>
<asrwt>0</asrwt>
<pdfrwt beam="1">  1        1 0.15371334E+00 0.23729715E+04</pdfrwt>
<pdfrwt beam="2">  1       -1 0.21676382E+00 0.23729715E+04</pdfrwt>
<totfact> 0.15748657E+00</totfact>
</mgrwt>
</event>
<event>
12    1  0.1598876E-007  0.1988529E+04  0.7818608E-02  0.8612002E-01
          3   -1    0    0  501    0  0.00000000000E+00  0.00000000000E+00  0.12748476682E+04  0.12748476682E+04  0.00000000000E+00 0. -1.
         -3   -1    0    0    0  501 -0.00000000000E+00 -0.00000000000E+00 -0.77543560998E+03  0.77543560998E+03  0.00000000000E+00 0.  1.
         23    2    1    2    0    0 -0.48479252177E+03 -0.43726475490E+03 -0.25507443963E+03  0.70666885431E+03  0.89964686697E+02 0.  0.
        254    2    1    2    0    0  0.48479252177E+03  0.43726475490E+03  0.75448649789E+03  0.13436144239E+04  0.89990310013E+03 0.  0.
        -24    2    4    4    0    0 -0.20690777215E+03  0.26836604306E+03  0.43904463561E+03  0.56067122837E+03  0.82224540256E+02 0.  0.
         24    2    4    4    0    0  0.69170029393E+03  0.16889871183E+03  0.31544186228E+03  0.78294319555E+03  0.80749040197E+02 0.  0.
         11    1    3    3    0    0 -0.36103268523E+03 -0.32337312588E+03 -0.23048241884E+03  0.53669071516E+03  0.00000000000E+00 0.  1.
        -11    1    3    3    0    0 -0.12375983655E+03 -0.11389162901E+03 -0.24592020794E+02  0.16997813915E+03  0.00000000000E+00 0. -1.
          4    1    6    6  502    0  0.11234448943E+03  0.38159261609E+02  0.84665965394E+02  0.14575918238E+03  0.00000000000E+00 0. -1.
          1    1    5    5  503    0 -0.10860314869E+02  0.18288441469E+02  0.35393833936E+01  0.21562485135E+02  0.00000000000E+00 0. -1.
         -2    1    5    5    0  503 -0.19604745728E+03  0.25007760160E+03  0.43550525221E+03  0.53910874324E+03  0.00000000000E+00 0.  1.
         -3    1    6    6    0  502  0.57935580450E+03  0.13073945023E+03  0.23077589689E+03  0.63718401317E+03  0.00000000000E+00 0.  1.
<mgrwt>
<rscale>  0 0.19885294E+04</rscale>
<asrwt>0</asrwt>
<pdfrwt beam="1">  1        3 0.19613041E+00 0.19885294E+04</pdfrwt>
<pdfrwt beam="2">  1       -3 0.11929779E+00 0.19885294E+04</pdfrwt>
<totfact> 0.21724974E-01</totfact>
</mgrwt>
</event>
<event>
12    1  0.1598876E-007  0.1835110E+04  0.7818608E-02  0.8687848E-01
          1   -1    0    0  501    0  0.00000000000E+00  0.00000000000E+00  0.90994212444E+03  0.90994212444E+03  0.00000000000E+00 0. -1.
         -1   -1    0    0    0  501 -0.00000000000E+00 -0.00000000000E+00 -0.92523135165E+03  0.92523135165E+03  0.00000000000E+00 0.  1.
         23    2    1    2    0    0  0.10468298830E+03  0.53107157771E+03  0.42816610123E+03  0.69668805579E+03  0.95144564464E+02 0.  0.
        254    2    1    2    0    0 -0.10468298830E+03 -0.53107157771E+03 -0.44345532844E+03  0.11384854203E+04  0.89805393781E+03 0.  0.
        -24    2    4    4    0    0  0.34620948275E+03 -0.15709749832E+03  0.15895640377E+02  0.39014187388E+03  0.86124215204E+02 0.  0.
         24    2    4    4    0    0 -0.45089247106E+03 -0.37397407939E+03 -0.45935096882E+03  0.74834354642E+03  0.76512210786E+02 0.  0.
         13    1    3    3    0    0  0.75443821684E+02  0.15807324850E+03  0.12602140646E+03  0.21577839792E+03  0.00000000000E+00 0. -1.
        -13    1    3    3    0    0  0.29239166621E+02  0.37299832921E+03  0.30214469477E+03  0.48090965788E+03  0.00000000000E+00 0.  1.
          2    1    6    6  502    0 -0.44847202846E+03 -0.37060996015E+03 -0.44238439916E+03  0.73087814271E+03  0.00000000000E+00 0. -1.
          3    1    5    5  503    0  0.30283705340E+03 -0.14478669211E+03 -0.14141874435E+02  0.33596645626E+03  0.00000000000E+00 0. -1.
         -4    1    5    5    0  503  0.43372429355E+02 -0.12310806215E+02  0.30037514811E+02  0.54175417616E+02  0.00000000000E+00 0.  1.
         -1    1    6    6    0  502 -0.24204425957E+01 -0.33641192424E+01 -0.16966569661E+02  0.17465403708E+02  0.00000000000E+00 0.  1.
<mgrwt>
<rscale>  0 0.18351098E+04</rscale>
<asrwt>0</asrwt>
<pdfrwt beam="1">  1        1 0.13999110E+00 0.18351098E+04</pdfrwt>
<pdfrwt beam="2">  1       -1 0.14234328E+00 0.18351098E+04</pdfrwt>
<totfact> 0.67424100E+00</totfact>
</mgrwt>
</event>
<event>
12    1  0.1598876E-007  0.1773693E+04  0.7818608E-02  0.8720416E-01
          1   -1    0    0  501    0  0.00000000000E+00  0.00000000000E+00  0.93918180492E+03  0.93918180492E+03  0.00000000000E+00 0. -1.
         -1   -1    0    0    0  501 -0.00000000000E+00 -0.00000000000E+00 -0.83742745144E+03  0.83742745144E+03  0.00000000000E+00 0.  1.
         23    2    1    2    0    0 -0.27592607793E+03  0.40471478004E+03 -0.39322965678E+03  0.63462067771E+03  0.90468712445E+02 0.  0.
        254    2    1    2    0    0  0.27592607793E+03 -0.40471478004E+03  0.49498401027E+03  0.11419885787E+04  0.90509639801E+03 0.  0.
        -24    2    4    4    0    0  0.36669831387E+03 -0.25381799320E+03  0.71692861776E+03  0.84727841461E+03  0.70730770103E+02 0.  0.
         24    2    4    4    0    0 -0.90772235932E+02 -0.15089678684E+03 -0.22194460749E+03  0.29471016405E+03  0.81149447957E+02 0.  0.
         13    1    3    3    0    0 -0.13877750490E+03  0.20784417156E+03 -0.25802749591E+03  0.35921662568E+03  0.00000000000E+00 0.  1.
        -13    1    3    3    0    0 -0.13714857303E+03  0.19687060848E+03 -0.13520216087E+03  0.27540405203E+03  0.00000000000E+00 0. -1.
          4    1    6    6  502    0 -0.10448342516E+03 -0.14278422391E+03 -0.19416479867E+03  0.26268629537E+03  0.00000000000E+00 0. -1.
          1    1    5    5  503    0  0.30734525812E+03 -0.18431071282E+03  0.59981346808E+03  0.69871864369E+03  0.00000000000E+00 0. -1.
         -2    1    5    5    0  503  0.59353055746E+02 -0.69507280373E+02  0.11711514968E+03  0.14855977092E+03  0.00000000000E+00 0.  1.
         -3    1    6    6    0  502  0.13711189226E+02 -0.81125629330E+01 -0.27779808820E+02  0.32023868683E+02  0.00000000000E+00 0.  1.
<mgrwt>
<rscale>  0 0.17736929E+04</rscale>
<asrwt>0</asrwt>
<pdfrwt beam="1">  1        1 0.14448951E+00 0.17736929E+04</pdfrwt>
<pdfrwt beam="2">  1       -1 0.12883499E+00 0.17736929E+04</pdfrwt>
<totfact> 0.82979949E+00</totfact>
</mgrwt>
</event>
<event>
12    1  0.1598876E-007  0.2143161E+04  0.7818608E-02  0.8542465E-01
          2   -1    0    0  501    0  0.00000000000E+00  0.00000000000E+00  0.10762112453E+04  0.10762112453E+04  0.00000000000E+00 0. -1.
         -2   -1    0    0    0  501 -0.00000000000E+00 -0.00000000000E+00 -0.10669699509E+04  0.10669699509E+04  0.00000000000E+00 0.  1.
         23    2    1    2    0    0 -0.48874030415E+03 -0.37933678218E+03 -0.61786696059E+03  0.87924955706E+03  0.92502558800E+02 0.  0.
        254    2    1    2    0    0  0.48874030415E+03  0.37933678218E+03  0.62710825494E+03  0.12639316391E+04  0.90636358365E+03 0.  0.
        -24    2    4    4    0    0 -0.25088843158E+03  0.14627963979E+03  0.80940307951E+02  0.31182623512E+03  0.79633719846E+02 0.  0.
         24    2    4    4    0    0  0.73962873574E+03  0.23305714239E+03  0.54616794699E+03  0.95210540402E+03  0.82698099723E+02 0.  0.
         13    1    3    3    0    0 -0.18258799198E+03 -0.13897534926E+03 -0.29367312880E+03  0.37268811236E+03  0.00000000000E+00 0. -1.
        -13    1    3    3    0    0 -0.30615231218E+03 -0.24036143291E+03 -0.32419383179E+03  0.50656144470E+03  0.00000000000E+00 0.  1.
          2    1    6    6  502    0  0.56259767808E+03  0.13949095560E+03  0.40427450689E+03  0.70669070392E+03  0.00000000000E+00 0. -1.
          1    1    5    5  503    0 -0.24453188967E+03  0.14583314411E+03  0.91873154698E+02  0.29917190299E+03  0.00000000000E+00 0. -1.
         -2    1    5    5    0  503 -0.63565419150E+01  0.44649567873E+00 -0.10932846747E+02  0.12654332124E+02  0.00000000000E+00 0.  1.
         -3    1    6    6    0  502  0.17703105765E+03  0.93566186785E+02  0.14189344009E+03  0.24541470010E+03  0.00000000000E+00 0.  1.
<mgrwt>
<rscale>  0 0.21431613E+04</rscale>
<asrwt>0</asrwt>
<pdfrwt beam="1">  1        2 0.16557096E+00 0.21431613E+04</pdfrwt>
<pdfrwt beam="2">  1       -2 0.16414922E+00 0.21431613E+04</pdfrwt>
<totfact> 0.48603736E+00</totfact>
</mgrwt>
</event>
<event>
12    1  0.1598876E-007  0.1543864E+04  0.7818608E-02  0.8855797E-01
         -2   -1    0    0    0  501 -0.00000000000E+00  0.00000000000E+00  0.84383243875E+03  0.84383243875E+03  0.00000000000E+00 0.  1.
          2   -1    0    0  501    0  0.00000000000E+00 -0.00000000000E+00 -0.70615814055E+03  0.70615814055E+03  0.00000000000E+00 0. -1.
         23    2    1    2    0    0  0.12312006202E+03 -0.22211466760E+03  0.49268408849E+03  0.56139589191E+03  0.89074469770E+02 0.  0.
        254    2    1    2    0    0 -0.12312006202E+03  0.22211466760E+03 -0.35500979029E+03  0.98859468739E+03  0.88701410897E+03 0.  0.
        -24    2    4    4    0    0 -0.14720023390E+03 -0.28873751275E+02  0.26447559026E+03  0.31400771716E+03  0.78434088384E+02 0.  0.
         24    2    4    4    0    0  0.24080171880E+02  0.25098841888E+03 -0.61948538056E+03  0.67458697023E+03  0.87922708075E+02 0.  0.
         11    1    3    3    0    0  0.69310474354E+02 -0.18663742064E+03  0.31779260039E+03  0.37500614061E+03  0.00000000000E+00 0. -1.
        -11    1    3    3    0    0  0.53809587662E+02 -0.35477246966E+02  0.17489148811E+03  0.18638975130E+03  0.00000000000E+00 0.  1.
          4    1    6    6  502    0  0.15372433455E+01  0.19464946526E+02 -0.94236650765E+01  0.21680699339E+02  0.00000000000E+00 0. -1.
          1    1    5    5  503    0 -0.29540565986E+02  0.13453960006E+02  0.16782454084E+02  0.36541823213E+02  0.00000000000E+00 0. -1.
         -4    1    5    5    0  503 -0.11765966791E+03 -0.42327711281E+02  0.24769313618E+03  0.27746589395E+03  0.00000000000E+00 0.  1.
         -3    1    6    6    0  502  0.22542928535E+02  0.23152347235E+03 -0.61006171548E+03  0.65290627089E+03  0.00000000000E+00 0.  1.
<mgrwt>
<rscale>  0 0.15438642E+04</rscale>
<asrwt>0</asrwt>
<pdfrwt beam="1">  1        2 0.10863971E+00 0.15438642E+04</pdfrwt>
<pdfrwt beam="2">  1       -2 0.12982038E+00 0.15438642E+04</pdfrwt>
<totfact> 0.17001630E+01</totfact>
</mgrwt>
</event>
<event>
12    1  0.1598876E-007  0.1077050E+04  0.7818608E-02  0.9227854E-01
          1   -1    0    0  501    0  0.00000000000E+00  0.00000000000E+00  0.11778736773E+04  0.11778736773E+04  0.00000000000E+00 0. -1.
         -1   -1    0    0    0  501 -0.00000000000E+00 -0.00000000000E+00 -0.24621409884E+03  0.24621409884E+03  0.00000000000E+00 0.  1.
         23    2    1    2    0    0 -0.96167675125E+02 -0.56285025795E+02  0.35434004944E+02  0.14655807247E+03  0.88359911911E+02 0.  0.
        254    2    1    2    0    0  0.96167675125E+02  0.56285025795E+02  0.89622557348E+03  0.12775297036E+04  0.90357381503E+03 0.  0.
        -24    2    4    4    0    0 -0.38266458143E+03  0.13364460733E+03  0.33775267259E+03  0.53354589602E+03  0.79380680060E+02 0.  0.
         24    2    4    4    0    0  0.47883225655E+03 -0.77359581536E+02  0.55847290089E+03  0.74398380761E+03  0.79718819493E+02 0.  0.
         13    1    3    3    0    0 -0.12084682177E+02 -0.33272484281E+02  0.46762239945E+02  0.58649849431E+02  0.00000000000E+00 0. -1.
        -13    1    3    3    0    0 -0.84082992949E+02 -0.23012541514E+02 -0.11328235002E+02  0.87908223042E+02  0.00000000000E+00 0.  1.
          2    1    6    6  502    0  0.44545817842E+03 -0.53062714935E+02  0.49275135964E+03  0.66637267566E+03  0.00000000000E+00 0. -1.
          1    1    5    5  503    0 -0.33662929220E+03  0.14349874310E+03  0.30063089731E+03  0.47359276394E+03  0.00000000000E+00 0. -1.
         -2    1    5    5    0  503 -0.46035289230E+02 -0.98541357671E+01  0.37121775277E+02  0.59953132078E+02  0.00000000000E+00 0.  1.
         -1    1    6    6    0  502  0.33374078131E+02 -0.24296866601E+02  0.65721541252E+02  0.77611131948E+02  0.00000000000E+00 0.  1.
<mgrwt>
<rscale>  0 0.10770499E+04</rscale>
<asrwt>0</asrwt>
<pdfrwt beam="1">  1        1 0.18121133E+00 0.10770499E+04</pdfrwt>
<pdfrwt beam="2">  1       -1 0.37879093E-01 0.10770499E+04</pdfrwt>
<totfact> 0.74415782E+01</totfact>
</mgrwt>
</event>
<event>
12    1  0.1796311E-007  0.2184753E+04  0.7818608E-02  0.8524801E-01
          2   -1    0    0  501    0  0.00000000000E+00  0.00000000000E+00  0.16593619311E+04  0.16593619311E+04  0.00000000000E+00 0. -1.
         -2   -1    0    0    0  501 -0.00000000000E+00 -0.00000000000E+00 -0.71912370724E+03  0.71912370724E+03  0.00000000000E+00 0.  1.
         23    2    1    2    0    0  0.84237240228E+03 -0.20311929473E+03  0.64280020591E+03  0.10824446529E+04  0.87439178274E+02 0.  0.
        254    2    1    2    0    0 -0.84237240228E+03  0.20311929473E+03  0.29743801797E+03  0.12960409854E+04  0.91673559406E+03 0.  0.
        -24    2    4    4    0    0 -0.34109927788E+01  0.33635412369E+03 -0.91935077133E+02  0.35786914098E+03  0.80452049472E+02 0.  0.
         24    2    4    4    0    0 -0.83896140950E+03 -0.13323482896E+03  0.38937309511E+03  0.93817184447E+03  0.83350082676E+02 0.  0.
         13    1    3    3    0    0  0.92773371763E+02 -0.29747865807E+02  0.10797051721E+03  0.14542856190E+03  0.00000000000E+00 0.  1.
        -13    1    3    3    0    0  0.74959903051E+03 -0.17337142893E+03  0.53482968870E+03  0.93701609102E+03  0.00000000000E+00 0. -1.
          2    1    6    6  502    0 -0.41613762478E+02 -0.20931113149E+02  0.82249163872E+01  0.47301860162E+02  0.00000000000E+00 0. -1.
          1    1    5    5  503    0 -0.18898288720E+02  0.27546360769E+02  0.51258070342E+01  0.33796763246E+02  0.00000000000E+00 0. -1.
         -2    1    5    5    0  503  0.15487295941E+02  0.30880776292E+03 -0.97060884167E+02  0.32407237773E+03  0.00000000000E+00 0.  1.
         -1    1    6    6    0  502 -0.79734764702E+03 -0.11230371581E+03  0.38114817872E+03  0.89086998430E+03  0.00000000000E+00 0.  1.
<mgrwt>
<rscale>  0 0.21847531E+04</rscale>
<asrwt>0</asrwt>
<pdfrwt beam="1">  1        2 0.25528645E+00 0.21847531E+04</pdfrwt>
<pdfrwt beam="2">  1       -2 0.11063442E+00 0.21847531E+04</pdfrwt>
<totfact> 0.61270122E+00</totfact>
</mgrwt>
</event>
<event>
12    1  0.1598876E-007  0.1270085E+04  0.7818608E-02  0.9053630E-01
         -2   -1    0    0    0  501 -0.00000000000E+00  0.00000000000E+00  0.80497255387E+03  0.80497255387E+03  0.00000000000E+00 0. -1.
          2   -1    0    0  501    0  0.00000000000E+00 -0.00000000000E+00 -0.50098491267E+03  0.50098491267E+03  0.00000000000E+00 0.  1.
         23    2    1    2    0    0 -0.85291154272E+02  0.21161965123E+03  0.28546686732E+03  0.37852612144E+03  0.98657156299E+02 0.  0.
        254    2    1    2    0    0  0.85291154272E+02 -0.21161965123E+03  0.18520773882E+02  0.92743134510E+03  0.89873712676E+03 0.  0.
        -24    2    4    4    0    0 -0.72548300992E+02 -0.52866558199E+03  0.11532702413E+03  0.55180070025E+03  0.80206837281E+02 0.  0.
         24    2    4    4    0    0  0.15783945526E+03  0.31704593076E+03 -0.96806250249E+02  0.37563064484E+03  0.79344284043E+02 0.  0.
         11    1    3    3    0    0 -0.10455344472E+03  0.14887328308E+03  0.22437806142E+03  0.28886015936E+03  0.00000000000E+00 0. -1.
        -11    1    3    3    0    0  0.19262290448E+02  0.62746368148E+02  0.61088805894E+02  0.89665962074E+02  0.00000000000E+00 0.  1.
          2    1    6    6  502    0  0.50599434752E+02  0.77385811626E+02  0.82632697680E+01  0.92828596163E+02  0.00000000000E+00 0. -1.
          3    1    5    5  503    0 -0.46583535837E+02 -0.32119132692E+03  0.29886352417E+02  0.32592497352E+03  0.00000000000E+00 0. -1.
         -4    1    5    5    0  503 -0.25964765155E+02 -0.20747425507E+03  0.85440671714E+02  0.22587572674E+03  0.00000000000E+00 0.  1.
         -1    1    6    6    0  502  0.10724002051E+03  0.23966011913E+03 -0.10506952002E+03  0.28280204868E+03  0.00000000000E+00 0.  1.
<mgrwt>
<rscale>  0 0.12700852E+04</rscale>
<asrwt>0</asrwt>
<pdfrwt beam="1">  1        2 0.77074602E-01 0.12700852E+04</pdfrwt>
<pdfrwt beam="2">  1       -2 0.12384193E+00 0.12700852E+04</pdfrwt>
<totfact> 0.29605862E+01</totfact>
</mgrwt>
</event>
<event>
12    1  0.1598876E-007  0.2018261E+04  0.7818608E-02  0.8598130E-01
          1   -1    0    0  501    0  0.00000000000E+00  0.00000000000E+00  0.13999743312E+04  0.13999743312E+04  0.00000000000E+00 0. -1.
         -1   -1    0    0    0  501 -0.00000000000E+00 -0.00000000000E+00 -0.72740194885E+03  0.72740194885E+03  0.00000000000E+00 0.  1.
         23    2    1    2    0    0  0.12306036085E+03 -0.16007297398E+03  0.10868789550E+04  0.11093310308E+04  0.92424366593E+02 0.  0.
        254    2    1    2    0    0 -0.12306036085E+03  0.16007297398E+03 -0.41430657268E+03  0.10180452493E+04  0.90774389781E+03 0.  0.
        -24    2    4    4    0    0 -0.34738181813E+03 -0.10683851483E+03 -0.52468703544E+03  0.64332355375E+03  0.80499154165E+02 0.  0.
         24    2    4    4    0    0  0.22432145729E+03  0.26691148881E+03  0.11038046276E+03  0.37472169553E+03  0.81674007395E+02 0.  0.
         13    1    3    3    0    0  0.68553221371E+02 -0.11379705919E+03  0.47302137708E+03  0.49132325206E+03  0.00000000000E+00 0.  1.
        -13    1    3    3    0    0  0.54507139475E+02 -0.46275914790E+02  0.61385757794E+03  0.61800777871E+03  0.00000000000E+00 0. -1.
          2    1    6    6  502    0  0.22910321790E+03  0.26028422999E+03  0.98806962584E+02  0.36055371401E+03  0.00000000000E+00 0. -1.
          3    1    5    5  503    0 -0.22737212996E+03 -0.32337652423E+02 -0.35085323109E+03  0.41933494848E+03  0.00000000000E+00 0. -1.
         -4    1    5    5    0  503 -0.12000968818E+03 -0.74500862408E+02 -0.17383380435E+03  0.22398860527E+03  0.00000000000E+00 0.  1.
         -1    1    6    6    0  502 -0.47817606099E+01  0.66272588243E+01  0.11573500179E+02  0.14167981523E+02  0.00000000000E+00 0.  1.
<mgrwt>
<rscale>  0 0.20182607E+04</rscale>
<asrwt>0</asrwt>
<pdfrwt beam="1">  1        1 0.21538067E+00 0.20182607E+04</pdfrwt>
<pdfrwt beam="2">  1       -1 0.11190799E+00 0.20182607E+04</pdfrwt>
<totfact> 0.52136515E+00</totfact>
</mgrwt>
</event>
<event>
12    1  0.1598876E-007  0.3598281E+04  0.7818608E-02  0.8090886E-01
         -2   -1    0    0    0  501 -0.00000000000E+00  0.00000000000E+00  0.13497465986E+04  0.13497465986E+04  0.00000000000E+00 0.  1.
          2   -1    0    0  501    0  0.00000000000E+00 -0.00000000000E+00 -0.23981588944E+04  0.23981588944E+04  0.00000000000E+00 0. -1.
         23    2    1    2    0    0  0.11235127697E+04  0.14943469099E+03  0.80748808577E+03  0.13946146953E+04  0.91112398353E+02 0.  0.
        254    2    1    2    0    0 -0.11235127697E+04 -0.14943469099E+03 -0.18559003816E+04  0.23532907976E+04  0.89944409574E+03 0.  0.
        -24    2    4    4    0    0 -0.73545558297E+03  0.33392795207E+03 -0.90747729853E+03  0.12175009053E+04  0.79941323867E+02 0.  0.
         24    2    4    4    0    0 -0.38805718674E+03 -0.48336264306E+03 -0.94842308303E+03  0.11357898924E+04  0.79274903428E+02 0.  0.
         11    1    3    3    0    0  0.37219611609E+03  0.38219122573E+02  0.31806992849E+03  0.49107955524E+03  0.00000000000E+00 0.  1.
        -11    1    3    3    0    0  0.75131665362E+03  0.11121556842E+03  0.48941815728E+03  0.90353514007E+03  0.00000000000E+00 0. -1.
          4    1    6    6  502    0 -0.14289439551E+03 -0.17308076308E+03 -0.41455426995E+03  0.47141383259E+03  0.00000000000E+00 0. -1.
          3    1    5    5  503    0 -0.17802725926E+03  0.97707952569E+02 -0.18302630006E+03  0.27338466590E+03  0.00000000000E+00 0. -1.
         -4    1    5    5    0  503 -0.55742832372E+03  0.23621999950E+03 -0.72445099847E+03  0.94411623936E+03  0.00000000000E+00 0.  1.
         -3    1    6    6    0  502 -0.24516279124E+03 -0.31028187997E+03 -0.53386881308E+03  0.66437605979E+03  0.00000000000E+00 0.  1.
<mgrwt>
<rscale>  0 0.35982812E+04</rscale>
<asrwt>0</asrwt>
<pdfrwt beam="1">  1        2 0.36894752E+00 0.35982812E+04</pdfrwt>
<pdfrwt beam="2">  1       -2 0.20765332E+00 0.35982812E+04</pdfrwt>
<totfact> 0.38516519E-01</totfact>
</mgrwt>
</event>
<event>
12    1  0.1598876E-007  0.2359624E+04  0.7818608E-02  0.8454776E-01
         -1   -1    0    0    0  501 -0.00000000000E+00  0.00000000000E+00  0.72914667398E+03  0.72914667398E+03  0.00000000000E+00 0.  1.
          1   -1    0    0  501    0  0.00000000000E+00 -0.00000000000E+00 -0.19090213896E+04  0.19090213896E+04  0.00000000000E+00 0. -1.
         23    2    1    2    0    0  0.62422147474E+03  0.76952344279E+03 -0.30225805843E+03  0.10393926470E+04  0.84607105473E+02 0.  0.
        254    2    1    2    0    0 -0.62422147474E+03 -0.76952344279E+03 -0.87761665722E+03  0.15987754166E+04  0.89669005632E+03 0.  0.
        -24    2    4    4    0    0 -0.35096975725E+03 -0.79694633464E+03 -0.96313329364E+03  0.13008569758E+04  0.79371905594E+02 0.  0.
         24    2    4    4    0    0 -0.27325171750E+03  0.27422891848E+02  0.85516636429E+02  0.29791844077E+03  0.77613053873E+02 0.  0.
         11    1    3    3    0    0  0.12791168764E+03  0.11800763732E+03 -0.32122251970E+02  0.17697186605E+03  0.00000000000E+00 0. -1.
        -11    1    3    3    0    0  0.49630978710E+03  0.65151580546E+03 -0.27013580646E+03  0.86242078098E+03  0.00000000000E+00 0.  1.
          4    1    6    6  502    0 -0.21148638148E+03  0.23687819140E+02  0.98808305803E+02  0.23462882096E+03  0.00000000000E+00 0. -1.
          1    1    5    5  503    0 -0.17868595607E+03 -0.50151711309E+03 -0.58181014371E+03  0.78863878230E+03  0.00000000000E+00 0. -1.
         -2    1    5    5    0  503 -0.17228380117E+03 -0.29542922154E+03 -0.38132314993E+03  0.51221819351E+03  0.00000000000E+00 0.  1.
         -3    1    6    6    0  502 -0.61765336014E+02  0.37350727080E+01 -0.13291669374E+02  0.63289619810E+02  0.00000000000E+00 0.  1.
<mgrwt>
<rscale>  0 0.23596242E+04</rscale>
<asrwt>0</asrwt>
<pdfrwt beam="1">  1        1 0.29369559E+00 0.23596242E+04</pdfrwt>
<pdfrwt beam="2">  1       -1 0.11217641E+00 0.23596242E+04</pdfrwt>
<totfact> 0.22500575E+00</totfact>
</mgrwt>
</event>
<event>
12    1  0.1598876E-007  0.1712271E+04  0.7818608E-02  0.8754396E-01
          2   -1    0    0  501    0  0.00000000000E+00  0.00000000000E+00  0.30825728394E+04  0.30825728394E+04  0.00000000000E+00 0. -1.
         -2   -1    0    0    0  501 -0.00000000000E+00 -0.00000000000E+00 -0.23777804042E+03  0.23777804042E+03  0.00000000000E+00 0.  1.
         23    2    1    2    0    0  0.24032906643E+03 -0.56708456968E+03  0.10520155728E+04  0.12245912916E+04  0.11637910776E+03 0.  0.
        254    2    1    2    0    0 -0.24032906643E+03  0.56708456968E+03  0.17927792261E+04  0.20957595882E+04  0.89376055431E+03 0.  0.
        -24    2    4    4    0    0 -0.37872670460E+03  0.31033705004E+03  0.31557534158E+03  0.58789446159E+03  0.79303848248E+02 0.  0.
         24    2    4    4    0    0  0.13839763817E+03  0.25674751963E+03  0.14772038845E+04  0.15078651266E+04  0.80328876215E+02 0.  0.
         11    1    3    3    0    0  0.10686848813E+03 -0.34686894724E+03  0.52793040397E+03  0.64066329047E+03  0.00000000000E+00 0. -1.
        -11    1    3    3    0    0  0.13346057830E+03 -0.22021562243E+03  0.52408516884E+03  0.58392800115E+03  0.00000000000E+00 0.  1.
          2    1    6    6  502    0  0.64833116355E+01  0.41262594662E+02  0.11323301615E+03  0.12069113884E+03  0.00000000000E+00 0. -1.
          1    1    5    5  503    0 -0.26357672758E+02  0.25097118722E+02  0.52066352186E+02  0.63525564235E+02  0.00000000000E+00 0. -1.
         -2    1    5    5    0  503 -0.35236903184E+03  0.28523993132E+03  0.26350898939E+03  0.52436889735E+03  0.00000000000E+00 0.  1.
         -3    1    6    6    0  502  0.13191432653E+03  0.21548492497E+03  0.13639708684E+04  0.13871739877E+04  0.00000000000E+00 0.  1.
<mgrwt>
<rscale>  0 0.17122712E+04</rscale>
<asrwt>0</asrwt>
<pdfrwt beam="1">  1        2 0.47424194E+00 0.17122712E+04</pdfrwt>
<pdfrwt beam="2">  1       -2 0.36581239E-01 0.17122712E+04</pdfrwt>
<totfact> 0.10383932E+01</totfact>
</mgrwt>
</event>
<event>
12    1  0.1598876E-007  0.1950310E+04  0.7818608E-02  0.8630211E-01
          2   -1    0    0  501    0  0.00000000000E+00  0.00000000000E+00  0.86987614442E+03  0.86987614442E+03  0.00000000000E+00 0. -1.
         -2   -1    0    0    0  501 -0.00000000000E+00 -0.00000000000E+00 -0.10931751973E+04  0.10931751973E+04  0.00000000000E+00 0.  1.
         23    2    1    2    0    0 -0.64792619470E+03  0.37062851318E+02 -0.49656488150E+03  0.82226904096E+03  0.91475053753E+02 0.  0.
        254    2    1    2    0    0  0.64792619470E+03 -0.37062851318E+02  0.27326582861E+03  0.11407823008E+04  0.89751213694E+03 0.  0.
        -24    2    4    4    0    0  0.35352169124E+03  0.36337284397E+03 -0.88356317403E+02  0.52070611021E+03  0.79439313203E+02 0.  0.
         24    2    4    4    0    0  0.29440450346E+03 -0.40043569528E+03  0.36162214601E+03  0.62007619056E+03  0.81860539316E+02 0.  0.
         11    1    3    3    0    0 -0.18652349181E+02  0.36737217469E+01  0.14643396410E+01  0.19067004275E+02  0.00000000000E+00 0. -1.
        -11    1    3    3    0    0 -0.62927384552E+03  0.33389129571E+02 -0.49802922114E+03  0.80320203668E+03  0.00000000000E+00 0.  1.
          4    1    6    6  502    0  0.95327660219E+02 -0.16150205744E+03  0.93981145313E+02  0.20976828415E+03  0.00000000000E+00 0. -1.
          1    1    5    5  503    0  0.30187380432E+03  0.32288099344E+03 -0.50374419618E+02  0.44487921036E+03  0.00000000000E+00 0. -1.
         -2    1    5    5    0  503  0.51647886920E+02  0.40491850527E+02 -0.37981897785E+02  0.75826899856E+02  0.00000000000E+00 0.  1.
         -3    1    6    6    0  502  0.19907684324E+03 -0.23893363784E+03  0.26764100070E+03  0.41030790641E+03  0.00000000000E+00 0.  1.
<mgrwt>
<rscale>  0 0.19503097E+04</rscale>
<asrwt>0</asrwt>
<pdfrwt beam="1">  1        2 0.13382710E+00 0.19503097E+04</pdfrwt>
<pdfrwt beam="2">  1       -2 0.16818080E+00 0.19503097E+04</pdfrwt>
<totfact> 0.62958966E+00</totfact>
</mgrwt>
</event>
<event>
12    1  0.1598876E-007  0.4337720E+04  0.7818608E-02  0.7939680E-01
         -2   -1    0    0    0  501 -0.00000000000E+00  0.00000000000E+00  0.21024930565E+04  0.21024930565E+04  0.00000000000E+00 0.  1.
          2   -1    0    0  501    0  0.00000000000E+00 -0.00000000000E+00 -0.22373214745E+04  0.22373214745E+04  0.00000000000E+00 0. -1.
         23    2    1    2    0    0  0.51861269439E+03  0.11776576926E+04  0.15621513213E+04  0.20261205380E+04  0.94925844982E+02 0.  0.
        254    2    1    2    0    0 -0.51861269439E+03 -0.11776576926E+04 -0.16969797393E+04  0.23136939930E+04  0.90421396256E+03 0.  0.
        -24    2    4    4    0    0 -0.35928733818E+03 -0.11202737314E+04 -0.17575973268E+04  0.21166963587E+04  0.84584201105E+02 0.  0.
         24    2    4    4    0    0 -0.15932535622E+03 -0.57383961270E+02  0.60617587519E+02  0.19699763437E+03  0.80349784610E+02 0.  0.
         11    1    3    3    0    0  0.51919566524E+03  0.11458223040E+04  0.15316807762E+04  0.19820491648E+04  0.00000000000E+00 0.  1.
        -11    1    3    3    0    0 -0.58297084756E+00  0.31835388626E+02  0.30470545067E+02  0.44071373256E+02  0.00000000000E+00 0. -1.
          2    1    6    6  502    0 -0.44815455016E+02 -0.16207408593E+02  0.58284060653E+02  0.75287029612E+02  0.00000000000E+00 0. -1.
          3    1    5    5  503    0 -0.30428425654E+03 -0.86221586421E+03 -0.13210244752E+04  0.16065835706E+04  0.00000000000E+00 0. -1.
         -4    1    5    5    0  503 -0.55003081636E+02 -0.25805786716E+03 -0.43657285160E+03  0.51011278807E+03  0.00000000000E+00 0.  1.
         -1    1    6    6    0  502 -0.11450990120E+03 -0.41176552677E+02  0.23335268656E+01  0.12171060476E+03  0.00000000000E+00 0.  1.
<mgrwt>
<rscale>  0 0.43377196E+04</rscale>
<asrwt>0</asrwt>
<pdfrwt beam="1">  1        2 0.34420330E+00 0.43377196E+04</pdfrwt>
<pdfrwt beam="2">  1       -2 0.32346047E+00 0.43377196E+04</pdfrwt>
<totfact> 0.86079782E-02</totfact>
</mgrwt>
</event>
<event>
12    1  0.1598876E-007  0.1434869E+04  0.7818608E-02  0.8928958E-01
          2   -1    0    0  501    0  0.00000000000E+00  0.00000000000E+00  0.37087138001E+03  0.37087138001E+03  0.00000000000E+00 0. -1.
         -2   -1    0    0    0  501 -0.00000000000E+00 -0.00000000000E+00 -0.13878454448E+04  0.13878454448E+04  0.00000000000E+00 0.  1.
         23    2    1    2    0    0  0.17739785872E+03  0.18609765996E+03 -0.73695192475E+03  0.78585828205E+03  0.91502791008E+02 0.  0.
        254    2    1    2    0    0 -0.17739785872E+03 -0.18609765996E+03 -0.28002214003E+03  0.97285854275E+03  0.89551047229E+03 0.  0.
        -24    2    4    4    0    0  0.37919942890E+02  0.16461288778E+03  0.24058150742E+03  0.30446008247E+03  0.79253739435E+02 0.  0.
         24    2    4    4    0    0 -0.21531780161E+03 -0.35071054774E+03 -0.52060364745E+03  0.66839846029E+03  0.79804135166E+02 0.  0.
         13    1    3    3    0    0  0.38853958362E+02  0.11922371504E+01 -0.15292878662E+03  0.15779184163E+03  0.00000000000E+00 0. -1.
        -13    1    3    3    0    0  0.13854390036E+03  0.18490542281E+03 -0.58402313813E+03  0.62806644042E+03  0.00000000000E+00 0.  1.
          2    1    6    6  502    0 -0.10717158188E+03 -0.23120813121E+03 -0.27792082262E+03  0.37707152046E+03  0.00000000000E+00 0. -1.
          3    1    5    5  503    0  0.16403180017E+01  0.28292292178E+02  0.34597115362E+01  0.28550202166E+02  0.00000000000E+00 0. -1.
         -4    1    5    5    0  503  0.36279624889E+02  0.13632059560E+03  0.23712179588E+03  0.27590988030E+03  0.00000000000E+00 0.  1.
         -1    1    6    6    0  502 -0.10814621974E+03 -0.11950241653E+03 -0.24268282483E+03  0.29132693982E+03  0.00000000000E+00 0.  1.
<mgrwt>
<rscale>  0 0.14348689E+04</rscale>
<asrwt>0</asrwt>
<pdfrwt beam="1">  1        2 0.57057136E-01 0.14348689E+04</pdfrwt>
<pdfrwt beam="2">  1       -2 0.21351468E+00 0.14348689E+04</pdfrwt>
<totfact> 0.91322067E+00</totfact>
</mgrwt>
</event>
<event>
12    1  0.1598876E-007  0.1095952E+04  0.7818608E-02  0.9209146E-01
         -1   -1    0    0    0  501 -0.00000000000E+00  0.00000000000E+00  0.47362426660E+03  0.47362426660E+03  0.00000000000E+00 0.  1.
          1   -1    0    0  501    0  0.00000000000E+00 -0.00000000000E+00 -0.63400021067E+03  0.63400021067E+03  0.00000000000E+00 0. -1.
         23    2    1    2    0    0 -0.10588468103E+03 -0.77315823559E+02 -0.14044552616E+03  0.21847805304E+03  0.10401159355E+03 0.  0.
        254    2    1    2    0    0  0.10588468103E+03  0.77315823559E+02 -0.19930417907E+02  0.88914642422E+03  0.87920125108E+03 0.  0.
        -24    2    4    4    0    0 -0.86516397383E+02 -0.27549197697E+03  0.25722570458E+03  0.39433787536E+03  0.77177590374E+02 0.  0.
         24    2    4    4    0    0  0.19240107842E+03  0.35280780052E+03 -0.27715612249E+03  0.49480854886E+03  0.80798915263E+02 0.  0.
         11    1    3    3    0    0 -0.10803262267E+03 -0.19904707913E+02 -0.94807770228E+02  0.14510602418E+03  0.00000000000E+00 0. -1.
        -11    1    3    3    0    0  0.21479416365E+01 -0.57411115646E+02 -0.45637755932E+02  0.73372028863E+02  0.00000000000E+00 0.  1.
          4    1    6    6  502    0  0.89142527661E+02  0.24447371759E+03 -0.17842379687E+03  0.31551361321E+03  0.00000000000E+00 0. -1.
          1    1    5    5  503    0  0.66391670453E+01 -0.31386999678E+01  0.20100624662E+02  0.21400118886E+02  0.00000000000E+00 0. -1.
         -4    1    5    5    0  503 -0.93155564428E+02 -0.27235327700E+03  0.23712507992E+03  0.37293775647E+03  0.00000000000E+00 0.  1.
         -3    1    6    6    0  502  0.10325855075E+03  0.10833408293E+03 -0.98732325626E+02  0.17929493566E+03  0.00000000000E+00 0.  1.
<mgrwt>
<rscale>  0 0.10959523E+04</rscale>
<asrwt>0</asrwt>
<pdfrwt beam="1">  1        1 0.97538494E-01 0.10959523E+04</pdfrwt>
<pdfrwt beam="2">  1       -1 0.72865272E-01 0.10959523E+04</pdfrwt>
<totfact> 0.59838561E+01</totfact>
</mgrwt>
</event>
<event>
12    1  0.1598876E-007  0.2398673E+04  0.7818608E-02  0.8440001E-01
          1   -1    0    0  501    0  0.00000000000E+00  0.00000000000E+00  0.10346248382E+04  0.10346248382E+04  0.00000000000E+00 0. -1.
         -1   -1    0    0    0  501 -0.00000000000E+00 -0.00000000000E+00 -0.13902698130E+04  0.13902698130E+04  0.00000000000E+00 0.  1.
         23    2    1    2    0    0  0.58009331812E+03 -0.79151317786E+03  0.15895163722E+03  0.99825422476E+03  0.90799261148E+02 0.  0.
        254    2    1    2    0    0 -0.58009331812E+03  0.79151317786E+03 -0.51459661204E+03  0.14266404265E+04  0.89860551130E+03 0.  0.
        -24    2    4    4    0    0 -0.39910751710E+03  0.69988631390E+03  0.59663150617E+02  0.81210736474E+03  0.82649971134E+02 0.  0.
         24    2    4    4    0    0 -0.18098580102E+03  0.91626863958E+02 -0.57425976266E+03  0.61453306176E+03  0.82007722890E+02 0.  0.
         11    1    3    3    0    0  0.37622212987E+03 -0.47458901420E+03  0.13610679356E+03  0.62072770412E+03  0.00000000000E+00 0. -1.
        -11    1    3    3    0    0  0.20387118825E+03 -0.31692416366E+03  0.22844843670E+02  0.37752652064E+03  0.00000000000E+00 0.  1.
          4    1    6    6  502    0 -0.21843990950E+02  0.45666160216E+02 -0.17765181936E+03  0.18472337982E+03  0.00000000000E+00 0. -1.
          3    1    5    5  503    0 -0.77051819522E+02  0.95150921151E+02  0.31303904472E+02  0.12637489910E+03  0.00000000000E+00 0. -1.
         -4    1    5    5    0  503 -0.32205569758E+03  0.60473539275E+03  0.28359246145E+02  0.68573246564E+03  0.00000000000E+00 0.  1.
         -3    1    6    6    0  502 -0.15914181007E+03  0.45960703742E+02 -0.39660794330E+03  0.42980968194E+03  0.00000000000E+00 0.  1.
<mgrwt>
<rscale>  0 0.23986727E+04</rscale>
<asrwt>0</asrwt>
<pdfrwt beam="1">  1        1 0.15917305E+00 0.23986727E+04</pdfrwt>
<pdfrwt beam="2">  1       -1 0.21388766E+00 0.23986727E+04</pdfrwt>
<totfact> 0.15420468E+00</totfact>
</mgrwt>
</event>
<event>
12    1  0.1598876E-007  0.1969758E+04  0.7818608E-02  0.8620892E-01
          1   -1    0    0  501    0  0.00000000000E+00  0.00000000000E+00  0.18007148262E+04  0.18007148262E+04  0.00000000000E+00 0. -1.
         -1   -1    0    0    0  501 -0.00000000000E+00 -0.00000000000E+00 -0.53866778501E+03  0.53866778501E+03  0.00000000000E+00 0.  1.
         23    2    1    2    0    0 -0.42160395898E+03 -0.17126668767E+03  0.12493454673E+04  0.13327365478E+04  0.90776829469E+02 0.  0.
        254    2    1    2    0    0  0.42160395898E+03  0.17126668767E+03  0.12701573899E+02  0.10066460634E+04  0.89782670399E+03 0.  0.
        -24    2    4    4    0    0 -0.97772990089E+02  0.56949399001E+02 -0.33793710733E+03  0.36485295468E+03  0.78188224105E+02 0.  0.
         24    2    4    4    0    0  0.51937694907E+03  0.11431728867E+03  0.35063868123E+03  0.64179310870E+03  0.78294647883E+02 0.  0.
         11    1    3    3    0    0 -0.94367280409E+02 -0.66310385407E+02  0.23540067482E+03  0.26213685076E+03  0.00000000000E+00 0.  1.
        -11    1    3    3    0    0 -0.32723667857E+03 -0.10495630227E+03  0.10139447925E+04  0.10705996971E+04  0.00000000000E+00 0. -1.
          2    1    6    6  502    0  0.25131592164E+03  0.19311788153E+02  0.18514104856E+03  0.31274565623E+03  0.00000000000E+00 0. -1.
          1    1    5    5  503    0 -0.51614803668E+01  0.12909569430E+02 -0.25461041823E+01  0.14134373313E+02  0.00000000000E+00 0. -1.
         -2    1    5    5    0  503 -0.92611509722E+02  0.44039829571E+02 -0.33539100315E+03  0.35071858136E+03  0.00000000000E+00 0.  1.
         -1    1    6    6    0  502  0.26806102743E+03  0.95005500520E+02  0.16549763267E+03  0.32904745247E+03  0.00000000000E+00 0.  1.
<mgrwt>
<rscale>  0 0.19697584E+04</rscale>
<asrwt>0</asrwt>
<pdfrwt beam="1">  1        1 0.27703305E+00 0.19697584E+04</pdfrwt>
<pdfrwt beam="2">  1       -1 0.82871968E-01 0.19697584E+04</pdfrwt>
<totfact> 0.54734254E+00</totfact>
</mgrwt>
</event>
<event>
12    1  0.1598876E-007  0.2240787E+04  0.7818608E-02  0.8501641E-01
          2   -1    0    0  501    0  0.00000000000E+00  0.00000000000E+00  0.73357761078E+03  0.73357761078E+03  0.00000000000E+00 0. -1.
         -2   -1    0    0    0  501 -0.00000000000E+00 -0.00000000000E+00 -0.17111773904E+04  0.17111773904E+04  0.00000000000E+00 0.  1.
         23    2    1    2    0    0 -0.18199134308E+03  0.63735932767E+03  0.32910262792E+03  0.74936833903E+03  0.11788386794E+03 0.  0.
        254    2    1    2    0    0  0.18199134308E+03 -0.63735932767E+03 -0.13067024075E+04  0.16953866621E+04  0.85294606557E+03 0.  0.
        -24    2    4    4    0    0  0.10465764927E+03 -0.55762252704E+03 -0.14117057287E+04  0.15235788704E+04  0.80519585345E+02 0.  0.
         24    2    4    4    0    0  0.77333693816E+02 -0.79736800631E+02  0.10500332116E+03  0.17180779176E+03  0.78445919470E+02 0.  0.
         11    1    3    3    0    0 -0.79625371286E+02  0.40558502310E+03  0.15268544789E+03  0.44062711754E+03  0.00000000000E+00 0.  1.
        -11    1    3    3    0    0 -0.10236597180E+03  0.23177430457E+03  0.17641718002E+03  0.30874122149E+03  0.00000000000E+00 0. -1.
          2    1    6    6  502    0  0.61237547850E+02 -0.78302756223E+01  0.55692053407E+02  0.83144183776E+02  0.00000000000E+00 0. -1.
          1    1    5    5  503    0  0.29018233109E+02 -0.33351631490E+03 -0.76804728417E+03  0.83783758622E+03  0.00000000000E+00 0. -1.
         -2    1    5    5    0  503  0.75639416156E+02 -0.22410621214E+03 -0.64365844452E+03  0.68574128416E+03  0.00000000000E+00 0.  1.
         -1    1    6    6    0  502  0.16096145966E+02 -0.71906525009E+02  0.49311267751E+02  0.88663607985E+02  0.00000000000E+00 0.  1.
<mgrwt>
<rscale>  0 0.22407868E+04</rscale>
<asrwt>0</asrwt>
<pdfrwt beam="1">  1        2 0.11285809E+00 0.22407868E+04</pdfrwt>
<pdfrwt beam="2">  1       -2 0.26325806E+00 0.22407868E+04</pdfrwt>
<totfact> 0.18733437E+00</totfact>
</mgrwt>
</event>
<event>
12    1  0.1598876E-007  0.1864924E+04  0.7818608E-02  0.8672516E-01
         -1   -1    0    0    0  501 -0.00000000000E+00  0.00000000000E+00  0.79048423534E+03  0.79048423534E+03  0.00000000000E+00 0.  1.
          1   -1    0    0  501    0  0.00000000000E+00 -0.00000000000E+00 -0.10999400820E+04  0.10999400820E+04  0.00000000000E+00 0. -1.
         23    2    1    2    0    0  0.60173392889E+03  0.13365062983E+03 -0.48210419442E+03  0.78764106411E+03  0.89486197693E+02 0.  0.
        254    2    1    2    0    0 -0.60173392889E+03 -0.13365062983E+03  0.17264834774E+03  0.11027832532E+04  0.89798509989E+03 0.  0.
        -24    2    4    4    0    0 -0.46078672920E+03  0.34455403605E+03  0.39795508747E+02  0.58201626599E+03  0.78213539734E+02 0.  0.
         24    2    4    4    0    0 -0.14094719969E+03 -0.47820466588E+03  0.13285283899E+03  0.52076698726E+03  0.70728796246E+02 0.  0.
         11    1    3    3    0    0  0.16916325566E+02  0.20757145391E+02 -0.14855753676E+02  0.30622125542E+02  0.00000000000E+00 0.  1.
        -11    1    3    3    0    0  0.58481760332E+03  0.11289348444E+03 -0.46724844074E+03  0.75701893857E+03  0.00000000000E+00 0. -1.
          4    1    6    6  502    0 -0.43962418867E+02 -0.26553201210E+03  0.84247249787E+02  0.28202401107E+03  0.00000000000E+00 0. -1.
          1    1    5    5  503    0 -0.43066253552E+02  0.15042335753E+02  0.19434787989E+02  0.49585129263E+02  0.00000000000E+00 0. -1.
         -2    1    5    5    0  503 -0.41772047564E+03  0.32951170030E+03  0.20360720759E+02  0.53243113672E+03  0.00000000000E+00 0.  1.
         -3    1    6    6    0  502 -0.96984780824E+02 -0.21267265378E+03  0.48605589206E+02  0.23874297618E+03  0.00000000000E+00 0.  1.
<mgrwt>
<rscale>  0 0.18649239E+04</rscale>
<asrwt>0</asrwt>
<pdfrwt beam="1">  1        1 0.16922155E+00 0.18649239E+04</pdfrwt>
<pdfrwt beam="2">  1       -1 0.12161296E+00 0.18649239E+04</pdfrwt>
<totfact> 0.71293903E+00</totfact>
</mgrwt>
</event>
<event>
12    1  0.1598876E-007  0.2405569E+04  0.7818608E-02  0.8437422E-01
         -2   -1    0    0    0  501 -0.00000000000E+00  0.00000000000E+00  0.12237374879E+04  0.12237374879E+04  0.00000000000E+00 0. -1.
          2   -1    0    0  501    0  0.00000000000E+00 -0.00000000000E+00 -0.11821901309E+04  0.11821901309E+04  0.00000000000E+00 0.  1.
         23    2    1    2    0    0 -0.73213404599E+03  0.45489811441E+03  0.58966881883E+03  0.10485359928E+04  0.93626152554E+02 0.  0.
        254    2    1    2    0    0  0.73213404599E+03 -0.45489811441E+03 -0.54812146184E+03  0.13573916260E+04  0.89393642594E+03 0.  0.
        -24    2    4    4    0    0  0.82458498173E+03 -0.68333873709E+02 -0.42619162735E+03  0.93420023749E+03  0.80503851524E+02 0.  0.
         24    2    4    4    0    0 -0.92450935737E+02 -0.38656424070E+03 -0.12192983449E+03  0.42319138852E+03  0.79025179962E+02 0.  0.
         11    1    3    3    0    0 -0.31420990605E+03  0.21509126571E+03  0.20824803189E+03  0.43400387144E+03  0.00000000000E+00 0.  1.
        -11    1    3    3    0    0 -0.41792413994E+03  0.23980684870E+03  0.38142078694E+03  0.61453212133E+03  0.00000000000E+00 0. -1.
          2    1    6    6  502    0 -0.22074108226E+02 -0.24776980907E+03 -0.88486852365E+02  0.26402096049E+03  0.00000000000E+00 0. -1.
          1    1    5    5  503    0  0.36676665691E+03 -0.16158476640E+02 -0.14716385088E+03  0.39552000707E+03  0.00000000000E+00 0. -1.
         -2    1    5    5    0  503  0.45781832482E+03 -0.52175397069E+02 -0.27902777647E+03  0.53868023042E+03  0.00000000000E+00 0.  1.
         -1    1    6    6    0  502 -0.70376827512E+02 -0.13879443164E+03 -0.33442982126E+02  0.15917042802E+03  0.00000000000E+00 0.  1.
<mgrwt>
<rscale>  0 0.24055689E+04</rscale>
<asrwt>0</asrwt>
<pdfrwt beam="1">  1        2 0.18187541E+00 0.24055689E+04</pdfrwt>
<pdfrwt beam="2">  1       -2 0.18826730E+00 0.24055689E+04</pdfrwt>
<totfact> 0.27780852E+00</totfact>
</mgrwt>
</event>
<event>
12    1  0.1598876E-007  0.1325928E+04  0.7818608E-02  0.9009253E-01
          2   -1    0    0  501    0  0.00000000000E+00  0.00000000000E+00  0.97965501382E+03  0.97965501382E+03  0.00000000000E+00 0. -1.
         -2   -1    0    0    0  501 -0.00000000000E+00 -0.00000000000E+00 -0.44864927763E+03  0.44864927763E+03  0.00000000000E+00 0.  1.
         23    2    1    2    0    0 -0.66543135385E+02 -0.12223396111E+03 -0.19830106603E+03  0.25954592233E+03  0.93121656406E+02 0.  0.
        254    2    1    2    0    0  0.66543135385E+02  0.12223396111E+03  0.72930680221E+03  0.11687583691E+04  0.90262870746E+03 0.  0.
        -24    2    4    4    0    0 -0.10282911029E+03  0.20130883644E+03  0.88219241796E+03  0.91417436808E+03  0.79700937258E+02 0.  0.
         24    2    4    4    0    0  0.16937224568E+03 -0.79074875325E+02 -0.15288561574E+03  0.25458400105E+03  0.80617669120E+02 0.  0.
         13    1    3    3    0    0 -0.27674653691E+02  0.98402843481E+01 -0.42075132749E+02  0.51313102117E+02  0.00000000000E+00 0. -1.
        -13    1    3    3    0    0 -0.38868481694E+02 -0.13207424546E+03 -0.15622593328E+03  0.20823282021E+03  0.00000000000E+00 0.  1.
          2    1    6    6  502    0  0.16696887414E+03 -0.66991126048E+02 -0.11208951434E+03  0.21196809931E+03  0.00000000000E+00 0. -1.
          3    1    5    5  503    0 -0.38927550448E+02  0.30768184211E+02  0.10805191480E+03  0.11890017509E+03  0.00000000000E+00 0. -1.
         -4    1    5    5    0  503 -0.63901559845E+02  0.17054065223E+03  0.77414050315E+03  0.79527419299E+03  0.00000000000E+00 0.  1.
         -1    1    6    6    0  502  0.24033715397E+01 -0.12083749277E+02 -0.40796101398E+02  0.42615901735E+02  0.00000000000E+00 0.  1.
<mgrwt>
<rscale>  0 0.13259284E+04</rscale>
<asrwt>0</asrwt>
<pdfrwt beam="1">  1        2 0.15071616E+00 0.13259284E+04</pdfrwt>
<pdfrwt beam="2">  1       -2 0.69022966E-01 0.13259284E+04</pdfrwt>
<totfact> 0.48705873E+01</totfact>
</mgrwt>
</event>
<event>
12    1  0.1598876E-007  0.1949380E+04  0.7818608E-02  0.8630660E-01
          1   -1    0    0  501    0  0.00000000000E+00  0.00000000000E+00  0.33777086533E+03  0.33777086533E+03  0.00000000000E+00 0. -1.
         -1   -1    0    0    0  501 -0.00000000000E+00 -0.00000000000E+00 -0.28126173462E+04  0.28126173462E+04  0.00000000000E+00 0.  1.
         23    2    1    2    0    0  0.13401699848E+03 -0.13239436612E+02 -0.21878565555E+04  0.21938069893E+04  0.89089620218E+02 0.  0.
        254    2    1    2    0    0 -0.13401699848E+03  0.13239436612E+02 -0.28698992536E+03  0.95658122219E+03  0.90252345057E+03 0.  0.
        -24    2    4    4    0    0  0.13819609791E+03  0.35924029384E+03 -0.32153648085E+03  0.50789749112E+03  0.80139894996E+02 0.  0.
         24    2    4    4    0    0 -0.27221309639E+03 -0.34600085723E+03  0.34546555490E+02  0.44868373107E+03  0.79417019489E+02 0.  0.
         13    1    3    3    0    0  0.12619330135E+03  0.19503348601E+02 -0.17640892733E+04  0.17687046374E+04  0.00000000000E+00 0.  1.
        -13    1    3    3    0    0  0.78236971235E+01 -0.32742785213E+02 -0.42376728217E+03  0.42510235198E+03  0.00000000000E+00 0. -1.
          2    1    6    6  502    0 -0.12782367508E+03 -0.12366527855E+03 -0.16817815758E+02  0.17864722768E+03  0.00000000000E+00 0. -1.
          3    1    5    5  503    0  0.19086132880E+02  0.87395783814E+02 -0.37200843075E+02  0.96882435055E+02  0.00000000000E+00 0. -1.
         -4    1    5    5    0  503  0.11910996503E+03  0.27184451003E+03 -0.28433563777E+03  0.41101505606E+03  0.00000000000E+00 0.  1.
         -1    1    6    6    0  502 -0.14438942131E+03 -0.22233557868E+03  0.51364371248E+02  0.27003650339E+03  0.00000000000E+00 0.  1.
<mgrwt>
<rscale>  0 0.19493796E+04</rscale>
<asrwt>0</asrwt>
<pdfrwt beam="1">  1        1 0.51964747E-01 0.19493796E+04</pdfrwt>
<pdfrwt beam="2">  1       -1 0.43271038E+00 0.19493796E+04</pdfrwt>
<totfact> 0.29836663E-01</totfact>
</mgrwt>
</event>
<event>
12    1  0.1598876E-007  0.1570600E+04  0.7818608E-02  0.8838816E-01
         -1   -1    0    0    0  501 -0.00000000000E+00  0.00000000000E+00  0.22665482297E+04  0.22665482297E+04  0.00000000000E+00 0.  1.
          1   -1    0    0  501    0  0.00000000000E+00 -0.00000000000E+00 -0.27208617376E+03  0.27208617376E+03  0.00000000000E+00 0. -1.
         23    2    1    2    0    0 -0.83708467685E+02  0.49240332020E+03  0.41325320308E+03  0.65456217532E+03  0.90583078999E+02 0.  0.
        254    2    1    2    0    0  0.83708467685E+02 -0.49240332020E+03  0.15812088529E+04  0.18840722282E+04  0.89444876164E+03 0.  0.
        -24    2    4    4    0    0  0.25914523104E+03  0.14038703531E+03  0.82266909545E+03  0.87754331152E+03  0.80206312349E+02 0.  0.
         24    2    4    4    0    0 -0.17543676335E+03 -0.63279035551E+03  0.75853975744E+03  0.10065289166E+04  0.80723010743E+02 0.  0.
         13    1    3    3    0    0 -0.60457563000E+02  0.19299253822E+03  0.21234334732E+03  0.29324210797E+03  0.00000000000E+00 0.  1.
        -13    1    3    3    0    0 -0.23250904685E+02  0.29941078197E+03  0.20090985576E+03  0.36132006735E+03  0.00000000000E+00 0. -1.
          2    1    6    6  502    0 -0.16799937497E+03 -0.60825681207E+03  0.74847794185E+03  0.97898895237E+03  0.00000000000E+00 0. -1.
          3    1    5    5  503    0  0.11533158791E+03  0.88107237563E+02  0.49622682423E+03  0.51701578464E+03  0.00000000000E+00 0. -1.
         -4    1    5    5    0  503  0.14381364313E+03  0.52279797748E+02  0.32644227122E+03  0.36052752688E+03  0.00000000000E+00 0.  1.
         -1    1    6    6    0  502 -0.74373883844E+01 -0.24533543435E+02  0.10061815595E+02  0.27539964280E+02  0.00000000000E+00 0.  1.
<mgrwt>
<rscale>  0 0.15706004E+04</rscale>
<asrwt>0</asrwt>
<pdfrwt beam="1">  1        1 0.41859413E-01 0.15706004E+04</pdfrwt>
<pdfrwt beam="2">  1       -1 0.34869972E+00 0.15706004E+04</pdfrwt>
<totfact> 0.15246790E+00</totfact>
</mgrwt>
</event>
<event>
12    1  0.1598876E-007  0.2062343E+04  0.7818608E-02  0.8578016E-01
          1   -1    0    0  501    0  0.00000000000E+00  0.00000000000E+00  0.90463688943E+03  0.90463688943E+03  0.00000000000E+00 0. -1.
         -1   -1    0    0    0  501 -0.00000000000E+00 -0.00000000000E+00 -0.11754043679E+04  0.11754043679E+04  0.00000000000E+00 0.  1.
         23    2    1    2    0    0  0.92673545260E+02  0.40136876606E+03 -0.84486551356E+03  0.94435373692E+03  0.91219362417E+02 0.  0.
        254    2    1    2    0    0 -0.92673545260E+02 -0.40136876606E+03  0.57409803507E+03  0.11356875204E+04  0.88910759632E+03 0.  0.
        -24    2    4    4    0    0  0.55454207832E+02 -0.60231133760E+03  0.13614668725E+03  0.62521440805E+03  0.80641298453E+02 0.  0.
         24    2    4    4    0    0 -0.14812775309E+03  0.20094257154E+03  0.43795134782E+03  0.51047311238E+03  0.80384495480E+02 0.  0.
         11    1    3    3    0    0  0.10206574720E+03  0.25575105538E+03 -0.57624770893E+03  0.63866066195E+03  0.00000000000E+00 0.  1.
        -11    1    3    3    0    0 -0.93922019374E+01  0.14561771069E+03 -0.26861780463E+03  0.30569307497E+03  0.00000000000E+00 0. -1.
          4    1    6    6  502    0 -0.56087625009E+02  0.49532738509E+02  0.71812755004E+02  0.10371299651E+03  0.00000000000E+00 0. -1.
          1    1    5    5  503    0 -0.84172622454E+01 -0.28184444977E+03  0.84719721008E+02  0.29442244360E+03  0.00000000000E+00 0. -1.
         -2    1    5    5    0  503  0.63871470078E+02 -0.32046688784E+03  0.51426966243E+02  0.33079196445E+03  0.00000000000E+00 0.  1.
         -3    1    6    6    0  502 -0.92040128082E+02  0.15140983303E+03  0.36613859281E+03  0.40676011587E+03  0.00000000000E+00 0.  1.
<mgrwt>
<rscale>  0 0.20623425E+04</rscale>
<asrwt>0</asrwt>
<pdfrwt beam="1">  1        1 0.13917491E+00 0.20623425E+04</pdfrwt>
<pdfrwt beam="2">  1       -1 0.18083144E+00 0.20623425E+04</pdfrwt>
<totfact> 0.34162393E+00</totfact>
</mgrwt>
</event>
<event>
12    1  0.1598876E-007  0.1733026E+04  0.7818608E-02  0.8742749E-01
          1   -1    0    0  501    0  0.00000000000E+00  0.00000000000E+00  0.81267749363E+03  0.81267749363E+03  0.00000000000E+00 0. -1.
         -1   -1    0    0    0  501 -0.00000000000E+00 -0.00000000000E+00 -0.92391478563E+03  0.92391478563E+03  0.00000000000E+00 0.  1.
         23    2    1    2    0    0  0.18508713145E+03  0.50162024495E+03 -0.37611000469E+03  0.66038756775E+03  0.93663694410E+02 0.  0.
        254    2    1    2    0    0 -0.18508713145E+03 -0.50162024495E+03  0.26487271269E+03  0.10762047115E+04  0.89564441091E+03 0.  0.
        -24    2    4    4    0    0 -0.10399908777E+03 -0.12989587460E+03 -0.32294968764E+03  0.37135276019E+03  0.76926089618E+02 0.  0.
         24    2    4    4    0    0 -0.81088043677E+02 -0.37172437035E+03  0.58782240032E+03  0.70485195132E+03  0.80788740679E+02 0.  0.
         11    1    3    3    0    0  0.15646398938E+03  0.30528521852E+03 -0.21549113127E+03  0.40511291300E+03  0.00000000000E+00 0. -1.
        -11    1    3    3    0    0  0.28623142061E+02  0.19633502642E+03 -0.16061887342E+03  0.25527465475E+03  0.00000000000E+00 0.  1.
          2    1    6    6  502    0 -0.77223980256E+02 -0.27191957094E+03  0.48595328426E+03  0.56218714915E+03  0.00000000000E+00 0. -1.
          3    1    5    5  503    0 -0.99021615056E+02 -0.13933615805E+03 -0.31361003138E+03  0.35717096322E+03  0.00000000000E+00 0. -1.
         -4    1    5    5    0  503 -0.49774727127E+01  0.94402834526E+01 -0.93396562588E+01  0.14181796970E+02  0.00000000000E+00 0.  1.
         -1    1    6    6    0  502 -0.38640634215E+01 -0.99804799402E+02  0.10186911606E+03  0.14266480217E+03  0.00000000000E+00 0.  1.
<mgrwt>
<rscale>  0 0.17330260E+04</rscale>
<asrwt>0</asrwt>
<pdfrwt beam="1">  1        1 0.12502731E+00 0.17330260E+04</pdfrwt>
<pdfrwt beam="2">  1       -1 0.14214074E+00 0.17330260E+04</pdfrwt>
<totfact> 0.82399483E+00</totfact>
</mgrwt>
</event>
<event>
12    1  0.1598876E-007  0.2106043E+04  0.7818608E-02  0.8558586E-01
         -1   -1    0    0    0  501 -0.00000000000E+00  0.00000000000E+00  0.10631223781E+04  0.10631223781E+04  0.00000000000E+00 0. -1.
          1   -1    0    0  501    0  0.00000000000E+00 -0.00000000000E+00 -0.10430164783E+04  0.10430164783E+04  0.00000000000E+00 0.  1.
         23    2    1    2    0    0 -0.50531529314E+03  0.20602414810E+02  0.70509855756E+03  0.87242598132E+03  0.90526858046E+02 0.  0.
        254    2    1    2    0    0  0.50531529314E+03 -0.20602414810E+02 -0.68499265775E+03  0.12337128752E+04  0.89278469530E+03 0.  0.
        -24    2    4    4    0    0  0.25952289207E+03 -0.34651357726E+03 -0.68935840813E+03  0.81772656204E+03  0.77704083961E+02 0.  0.
         24    2    4    4    0    0  0.24579240107E+03  0.32591116245E+03  0.43657503836E+01  0.41598631311E+03  0.79959756680E+02 0.  0.
         11    1    3    3    0    0 -0.38717327452E+03  0.30317455457E+02  0.47469849279E+03  0.61331961624E+03  0.00000000000E+00 0. -1.
        -11    1    3    3    0    0 -0.11814201863E+03 -0.97150406469E+01  0.23040006476E+03  0.25910636508E+03  0.00000000000E+00 0.  1.
          4    1    6    6  502    0  0.34994826062E+02  0.65757802935E+02 -0.28024319005E+02  0.79586989851E+02  0.00000000000E+00 0. -1.
          3    1    5    5  503    0  0.45718319279E+02 -0.40041790698E+02 -0.57639313566E+02  0.83760373616E+02  0.00000000000E+00 0. -1.
         -4    1    5    5    0  503  0.21380457279E+03 -0.30647178656E+03 -0.63171909457E+03  0.73396618842E+03  0.00000000000E+00 0.  1.
         -3    1    6    6    0  502  0.21079757501E+03  0.26015335951E+03  0.32390069389E+02  0.33639932326E+03  0.00000000000E+00 0.  1.
<mgrwt>
<rscale>  0 0.21060429E+04</rscale>
<asrwt>0</asrwt>
<pdfrwt beam="1">  1        1 0.16046407E+00 0.21060429E+04</pdfrwt>
<pdfrwt beam="2">  1       -1 0.16355729E+00 0.21060429E+04</pdfrwt>
<totfact> 0.35385182E+00</totfact>
</mgrwt>
</event>
<event>
12    1  0.1598876E-007  0.1042656E+04  0.7818608E-02  0.9262959E-01
         -2   -1    0    0    0  501 -0.00000000000E+00  0.00000000000E+00  0.88648354028E+02  0.88648354028E+02  0.00000000000E+00 0.  1.
          2   -1    0    0  501    0  0.00000000000E+00 -0.00000000000E+00 -0.30658564573E+04  0.30658564573E+04  0.00000000000E+00 0. -1.
         23    2    1    2    0    0 -0.47690442929E+02  0.26804713639E+02 -0.11408514341E+03  0.15554867612E+03  0.90482593214E+02 0.  0.
        254    2    1    2    0    0  0.47690442929E+02 -0.26804713639E+02 -0.28631229599E+04  0.29989561352E+04  0.89065815362E+03 0.  0.
        -24    2    4    4    0    0  0.42179702298E+03  0.16485578066E+03 -0.16389499077E+04  0.17021661425E+04  0.78247171150E+02 0.  0.
         24    2    4    4    0    0 -0.37410658005E+03 -0.19166049430E+03 -0.12241730522E+04  0.12967899927E+04  0.79844506287E+02 0.  0.
         11    1    3    3    0    0 -0.43799637229E+02  0.57282714202E+02 -0.95405632190E+02  0.11959076980E+03  0.00000000000E+00 0.  1.
        -11    1    3    3    0    0 -0.38908057003E+01 -0.30478000563E+02 -0.18679511224E+02  0.35957906320E+02  0.00000000000E+00 0. -1.
          2    1    6    6  502    0 -0.59165968619E+02 -0.45370137075E+01 -0.22071857777E+03  0.22855609138E+03  0.00000000000E+00 0. -1.
          1    1    5    5  503    0  0.99762931008E+02  0.35899390763E+02 -0.27326421283E+03  0.29311216057E+03  0.00000000000E+00 0. -1.
         -2    1    5    5    0  503  0.32203409197E+03  0.12895638990E+03 -0.13656856949E+04  0.14090539819E+04  0.00000000000E+00 0.  1.
         -1    1    6    6    0  502 -0.31494061143E+03 -0.18712348059E+03 -0.10034544744E+04  0.10682339013E+04  0.00000000000E+00 0.  1.
<mgrwt>
<rscale>  0 0.10426565E+04</rscale>
<asrwt>0</asrwt>
<pdfrwt beam="1">  1        2 0.47167018E+00 0.10426565E+04</pdfrwt>
<pdfrwt beam="2">  1       -2 0.13638209E-01 0.10426565E+04</pdfrwt>
<totfact> 0.66512913E+01</totfact>
</mgrwt>
</event>
<event>
12    1  0.1598876E-007  0.1262632E+04  0.7818608E-02  0.9059735E-01
         -2   -1    0    0    0  501 -0.00000000000E+00  0.00000000000E+00  0.49829679270E+03  0.49829679270E+03  0.00000000000E+00 0.  1.
          2   -1    0    0  501    0  0.00000000000E+00 -0.00000000000E+00 -0.79984432971E+03  0.79984432971E+03  0.00000000000E+00 0. -1.
         23    2    1    2    0    0 -0.23362069822E+03 -0.60479264577E+02  0.11059619099E+03  0.28127384600E+03  0.92989713954E+02 0.  0.
        254    2    1    2    0    0  0.23362069822E+03  0.60479264577E+02 -0.41214372800E+03  0.10168672764E+04  0.89773060169E+03 0.  0.
        -24    2    4    4    0    0  0.53545591397E+03  0.19270783544E+03 -0.34771752914E+03  0.67161080680E+03  0.79399307884E+02 0.  0.
         24    2    4    4    0    0 -0.30183521575E+03 -0.13222857086E+03 -0.64426198859E+02  0.34525646960E+03  0.80389068181E+02 0.  0.
         13    1    3    3    0    0 -0.20671460614E+02  0.14352605043E+02  0.35258181813E+02  0.43317963251E+02  0.00000000000E+00 0. -1.
        -13    1    3    3    0    0 -0.21294923761E+03 -0.74831869621E+02  0.75338009177E+02  0.23795588275E+03  0.00000000000E+00 0.  1.
          4    1    6    6  502    0 -0.15046692274E+02 -0.31979779703E+02 -0.50137782310E+01  0.35696599703E+02  0.00000000000E+00 0. -1.
          1    1    5    5  503    0  0.75468320139E+02 -0.59738662211E+00 -0.40322026231E+02  0.85566874518E+02  0.00000000000E+00 0. -1.
         -2    1    5    5    0  503  0.45998759384E+03  0.19330522206E+03 -0.30739550291E+03  0.58604393229E+03  0.00000000000E+00 0.  1.
         -3    1    6    6    0  502 -0.28678852347E+03 -0.10024879116E+03 -0.59412420628E+02  0.30955986990E+03  0.00000000000E+00 0.  1.
<mgrwt>
<rscale>  0 0.12626320E+04</rscale>
<asrwt>0</asrwt>
<pdfrwt beam="1">  1        2 0.12305297E+00 0.12626320E+04</pdfrwt>
<pdfrwt beam="2">  1       -2 0.76661046E-01 0.12626320E+04</pdfrwt>
<totfact> 0.51515401E+01</totfact>
</mgrwt>
</event>
<event>
12    1  0.1598876E-007  0.2535696E+04  0.7818608E-02  0.8390378E-01
          2   -1    0    0  501    0  0.00000000000E+00  0.00000000000E+00  0.10438444467E+04  0.10438444467E+04  0.00000000000E+00 0. -1.
         -2   -1    0    0    0  501 -0.00000000000E+00 -0.00000000000E+00 -0.15399216218E+04  0.15399216218E+04  0.00000000000E+00 0.  1.
         23    2    1    2    0    0 -0.45593669696E+03  0.89511027916E+03 -0.69021587322E+03  0.12221554535E+04  0.90362146306E+02 0.  0.
        254    2    1    2    0    0  0.45593669696E+03 -0.89511027916E+03  0.19413869814E+03  0.13616106150E+04  0.89843917391E+03 0.  0.
        -24    2    4    4    0    0  0.64809906756E+03 -0.31844916857E+03  0.17803231767E+03  0.74802848956E+03  0.80055235398E+02 0.  0.
         24    2    4    4    0    0 -0.19216237060E+03 -0.57666111058E+03  0.16106380472E+02  0.61358212542E+03  0.82214329678E+02 0.  0.
         13    1    3    3    0    0 -0.40845760956E+03  0.77173163795E+03 -0.63101880912E+03  0.10773077913E+04  0.00000000000E+00 0.  1.
        -13    1    3    3    0    0 -0.47479087403E+02  0.12337864121E+03 -0.59197064101E+02  0.14484766220E+03  0.00000000000E+00 0. -1.
          4    1    6    6  502    0 -0.12268096867E+03 -0.24341707051E+03 -0.35034518921E+01  0.27260734485E+03  0.00000000000E+00 0. -1.
          3    1    5    5  503    0  0.20790116837E+03 -0.63853020206E+02  0.66433918342E+02  0.22740617737E+03  0.00000000000E+00 0. -1.
         -4    1    5    5    0  503  0.44019789919E+03 -0.25459614837E+03  0.11159839933E+03  0.52062231219E+03  0.00000000000E+00 0.  1.
         -3    1    6    6    0  502 -0.69481401932E+02 -0.33324404007E+03  0.19609832364E+02  0.34097478057E+03  0.00000000000E+00 0.  1.
<mgrwt>
<rscale>  0 0.25356961E+04</rscale>
<asrwt>0</asrwt>
<pdfrwt beam="1">  1        2 0.16059145E+00 0.25356961E+04</pdfrwt>
<pdfrwt beam="2">  1       -2 0.23691102E+00 0.25356961E+04</pdfrwt>
<totfact> 0.16258280E+00</totfact>
</mgrwt>
</event>
<event>
12    1  0.1598876E-007  0.1601739E+04  0.7818608E-02  0.8819481E-01
          2   -1    0    0  501    0  0.00000000000E+00  0.00000000000E+00  0.10305471978E+04  0.10305471978E+04  0.00000000000E+00 0. -1.
         -2   -1    0    0    0  501 -0.00000000000E+00 -0.00000000000E+00 -0.62237977123E+03  0.62237977123E+03  0.00000000000E+00 0.  1.
         23    2    1    2    0    0  0.30552394579E+03  0.99947260164E+02 -0.30942816749E+03  0.45697661473E+03  0.98729424764E+02 0.  0.
        254    2    1    2    0    0 -0.30552394579E+03 -0.99947260164E+02  0.71759559411E+03  0.11959503543E+04  0.90112123330E+03 0.  0.
        -24    2    4    4    0    0  0.21431291918E+03 -0.71375234432E+02  0.61304198163E+03  0.65878780092E+03  0.84595768122E+02 0.  0.
         24    2    4    4    0    0 -0.51983686496E+03 -0.28572025732E+02  0.10455361248E+03  0.53716255343E+03  0.81027304617E+02 0.  0.
         11    1    3    3    0    0  0.58634517725E+02 -0.14729467420E+02 -0.32433982810E+02  0.68607048619E+02  0.00000000000E+00 0. -1.
        -11    1    3    3    0    0  0.24688942806E+03  0.11467672758E+03 -0.27699418468E+03  0.38836956611E+03  0.00000000000E+00 0.  1.
          4    1    6    6  502    0 -0.37905577591E+03 -0.26278786819E+02  0.39349672635E+02  0.38199771285E+03  0.00000000000E+00 0. -1.
          3    1    5    5  503    0  0.15030781203E+03 -0.45643338296E+02  0.30453294907E+03  0.34266028331E+03  0.00000000000E+00 0. -1.
         -4    1    5    5    0  503  0.64005107143E+02 -0.25731896136E+02  0.30850903256E+03  0.31612751761E+03  0.00000000000E+00 0.  1.
         -3    1    6    6    0  502 -0.14078108905E+03 -0.22932389139E+01  0.65203939846E+02  0.15516484058E+03  0.00000000000E+00 0.  1.
<mgrwt>
<rscale>  0 0.16017387E+04</rscale>
<asrwt>0</asrwt>
<pdfrwt beam="1">  1        2 0.15854572E+00 0.16017387E+04</pdfrwt>
<pdfrwt beam="2">  1       -2 0.95750734E-01 0.16017387E+04</pdfrwt>
<totfact> 0.21130443E+01</totfact>
</mgrwt>
</event>
<event>
12    1  0.1598876E-007  0.2015352E+04  0.7818608E-02  0.8599476E-01
          1   -1    0    0  501    0  0.00000000000E+00  0.00000000000E+00  0.98996044149E+03  0.98996044149E+03  0.00000000000E+00 0. -1.
         -1   -1    0    0    0  501 -0.00000000000E+00 -0.00000000000E+00 -0.10257089982E+04  0.10257089982E+04  0.00000000000E+00 0.  1.
         23    2    1    2    0    0  0.15056743960E+03 -0.61882792033E+03 -0.50415163897E+03  0.81729383469E+03  0.90453238160E+02 0.  0.
        254    2    1    2    0    0 -0.15056743960E+03  0.61882792033E+03  0.46840308221E+03  0.11983756051E+04  0.90060207334E+03 0.  0.
        -24    2    4    4    0    0 -0.76756870328E+02  0.50173951966E+03  0.72914453354E+03  0.89215250307E+03  0.81548606441E+02 0.  0.
         24    2    4    4    0    0 -0.73810569274E+02  0.11708840066E+03 -0.26074145132E+03  0.30622310198E+03  0.81417381715E+02 0.  0.
         11    1    3    3    0    0  0.11428277923E+01 -0.24775989123E+01 -0.17972239902E+02  0.18178172593E+02  0.00000000000E+00 0. -1.
        -11    1    3    3    0    0  0.14942461181E+03 -0.61635032141E+03 -0.48617939907E+03  0.79911566209E+03  0.00000000000E+00 0.  1.
          2    1    6    6  502    0 -0.19263899298E+02 -0.10102525334E+02 -0.43676111195E+02  0.48793047901E+02  0.00000000000E+00 0. -1.
          3    1    5    5  503    0  0.97191398066E+01  0.18992963296E+03  0.25462953847E+03  0.31781115307E+03  0.00000000000E+00 0. -1.
         -4    1    5    5    0  503 -0.86476010135E+02  0.31180988670E+03  0.47451499507E+03  0.57434135000E+03  0.00000000000E+00 0.  1.
         -1    1    6    6    0  502 -0.54546669976E+02  0.12719092600E+03 -0.21706534012E+03  0.25743005408E+03  0.00000000000E+00 0.  1.
<mgrwt>
<rscale>  0 0.20153524E+04</rscale>
<asrwt>0</asrwt>
<pdfrwt beam="1">  1        1 0.15230161E+00 0.20153524E+04</pdfrwt>
<pdfrwt beam="2">  1       -1 0.15780138E+00 0.20153524E+04</pdfrwt>
<totfact> 0.43356394E+00</totfact>
</mgrwt>
</event>
<event>
12    1  0.1598876E-007  0.1543371E+04  0.7818608E-02  0.8856113E-01
          2   -1    0    0  501    0  0.00000000000E+00  0.00000000000E+00  0.17048092086E+04  0.17048092086E+04  0.00000000000E+00 0. -1.
         -2   -1    0    0    0  501 -0.00000000000E+00 -0.00000000000E+00 -0.34930514903E+03  0.34930514903E+03  0.00000000000E+00 0.  1.
         23    2    1    2    0    0  0.46757624711E+03 -0.80712879443E+02  0.23019393321E+03  0.53525313359E+03  0.91457937708E+02 0.  0.
        254    2    1    2    0    0 -0.46757624711E+03  0.80712879443E+02  0.11253101263E+04  0.15188612240E+04  0.90303622385E+03 0.  0.
        -24    2    4    4    0    0 -0.16846101100E+03  0.27275332241E+03  0.11055828060E+04  0.11539321617E+04  0.80452506471E+02 0.  0.
         24    2    4    4    0    0 -0.29911523610E+03 -0.19204044297E+03  0.19727320290E+02  0.36492906225E+03  0.80215940485E+02 0.  0.
         11    1    3    3    0    0  0.17272843912E+03  0.92167978317E+01  0.10632260209E+03  0.20303831845E+03  0.00000000000E+00 0. -1.
        -11    1    3    3    0    0  0.29484780798E+03 -0.89929677274E+02  0.12387133112E+03  0.33221481514E+03  0.00000000000E+00 0.  1.
          4    1    6    6  502    0 -0.30248209207E+03 -0.18058214767E+03  0.21044906106E+02  0.35291389340E+03  0.00000000000E+00 0. -1.
          3    1    5    5  503    0 -0.25533399263E+00  0.25568475204E+02  0.16508336351E+03  0.16705187526E+03  0.00000000000E+00 0. -1.
         -4    1    5    5    0  503 -0.16820567701E+03  0.24718484721E+03  0.94049944251E+03  0.98688028648E+03  0.00000000000E+00 0.  1.
         -3    1    6    6    0  502  0.33668559690E+01 -0.11458295297E+02 -0.13175858155E+01  0.12015168854E+02  0.00000000000E+00 0.  1.
<mgrwt>
<rscale>  0 0.15433712E+04</rscale>
<asrwt>0</asrwt>
<pdfrwt beam="1">  1        2 0.26227833E+00 0.15433712E+04</pdfrwt>
<pdfrwt beam="2">  1       -2 0.53739255E-01 0.15433712E+04</pdfrwt>
<totfact> 0.30618666E+01</totfact>
</mgrwt>
</event>
<event>
12    1  0.1598876E-007  0.1236760E+04  0.7818608E-02  0.9081276E-01
         -1   -1    0    0    0  501 -0.00000000000E+00  0.00000000000E+00  0.95612369594E+03  0.95612369594E+03  0.00000000000E+00 0.  1.
          1   -1    0    0  501    0  0.00000000000E+00 -0.00000000000E+00 -0.39994169193E+03  0.39994169193E+03  0.00000000000E+00 0. -1.
         23    2    1    2    0    0  0.19249822399E+03  0.91013211745E+02  0.36745334698E+03  0.43465763614E+03  0.92554456902E+02 0.  0.
        254    2    1    2    0    0 -0.19249822399E+03 -0.91013211745E+02  0.18872865703E+03  0.92140775172E+03  0.87637592847E+03 0.  0.
        -24    2    4    4    0    0 -0.41886473508E+03  0.14754517200E+03 -0.11689692042E+03  0.46569847339E+03  0.77414042903E+02 0.  0.
         24    2    4    4    0    0  0.22636651109E+03 -0.23855838375E+03  0.30562557745E+03  0.45570927834E+03  0.78179619920E+02 0.  0.
         13    1    3    3    0    0  0.17431297216E+03  0.10508109967E+03  0.35307556167E+03  0.40754067529E+03  0.00000000000E+00 0.  1.
        -13    1    3    3    0    0  0.18185251833E+02 -0.14067887926E+02  0.14377785315E+02  0.27116960846E+02  0.00000000000E+00 0. -1.
          2    1    6    6  502    0  0.10528473248E+03 -0.65945975151E+02  0.84958737748E+02  0.15050492899E+03  0.00000000000E+00 0. -1.
          1    1    5    5  503    0 -0.12697172976E+03  0.31024089993E+02 -0.97374653867E+00  0.13071060592E+03  0.00000000000E+00 0. -1.
         -2    1    5    5    0  503 -0.29189300532E+03  0.11652108201E+03 -0.11592317389E+03  0.33498786747E+03  0.00000000000E+00 0.  1.
         -1    1    6    6    0  502  0.12108177861E+03 -0.17261240860E+03  0.22066683970E+03  0.30520434934E+03  0.00000000000E+00 0.  1.
<mgrwt>
<rscale>  0 0.12367598E+04</rscale>
<asrwt>0</asrwt>
<pdfrwt beam="1">  1        1 0.61529491E-01 0.12367598E+04</pdfrwt>
<pdfrwt beam="2">  1       -1 0.14709595E+00 0.12367598E+04</pdfrwt>
<totfact> 0.21784396E+01</totfact>
</mgrwt>
</event>
<event>
12    1  0.1598876E-007  0.1559360E+04  0.7818608E-02  0.8845911E-01
         -1   -1    0    0    0  501 -0.00000000000E+00  0.00000000000E+00  0.63259175978E+03  0.63259175978E+03  0.00000000000E+00 0.  1.
          1   -1    0    0  501    0  0.00000000000E+00 -0.00000000000E+00 -0.96096884920E+03  0.96096884920E+03  0.00000000000E+00 0. -1.
         23    2    1    2    0    0 -0.16686707322E+03 -0.33755946427E+02  0.38523243941E+03  0.43173208540E+03  0.94891923489E+02 0.  0.
        254    2    1    2    0    0  0.16686707322E+03  0.33755946427E+02 -0.71360952883E+03  0.11618285236E+04  0.90090114582E+03 0.  0.
        -24    2    4    4    0    0  0.40319144942E+03 -0.75224508805E+02 -0.21320172667E+02  0.41803104719E+03  0.77931604893E+02 0.  0.
         24    2    4    4    0    0 -0.23632437620E+03  0.10898045523E+03 -0.69228935617E+03  0.74379747640E+03  0.79020141905E+02 0.  0.
         13    1    3    3    0    0 -0.16358113477E+03 -0.41023556978E+02  0.38817747033E+03  0.42322980560E+03  0.00000000000E+00 0.  1.
        -13    1    3    3    0    0 -0.32859384490E+01  0.72676105510E+01 -0.29450309174E+01  0.85022797952E+01  0.00000000000E+00 0. -1.
          2    1    6    6  502    0 -0.10473684570E+03  0.91345450582E+02 -0.36954161198E+03  0.39480982913E+03  0.00000000000E+00 0. -1.
          1    1    5    5  503    0  0.37878885767E+03 -0.80093040231E+02 -0.30763610734E+01  0.38717613277E+03  0.00000000000E+00 0. -1.
         -2    1    5    5    0  503  0.24402591745E+02  0.48685314262E+01 -0.18243811594E+02  0.30854914416E+02  0.00000000000E+00 0.  1.
         -1    1    6    6    0  502 -0.13158753050E+03  0.17635004650E+02 -0.32274774419E+03  0.34898764727E+03  0.00000000000E+00 0.  1.
<mgrwt>
<rscale>  0 0.15593601E+04</rscale>
<asrwt>0</asrwt>
<pdfrwt beam="1">  1        1 0.14784136E+00 0.15593601E+04</pdfrwt>
<pdfrwt beam="2">  1       -1 0.97321810E-01 0.15593601E+04</pdfrwt>
<totfact> 0.15860282E+01</totfact>
</mgrwt>
</event>
<event>
12    1  0.1598876E-007  0.1677974E+04  0.7818608E-02  0.8774027E-01
         -2   -1    0    0    0  501 -0.00000000000E+00  0.00000000000E+00  0.18507819487E+03  0.18507819487E+03  0.00000000000E+00 0.  1.
          2   -1    0    0  501    0  0.00000000000E+00 -0.00000000000E+00 -0.38032535652E+04  0.38032535652E+04  0.00000000000E+00 0. -1.
         23    2    1    2    0    0  0.36925627825E+03  0.33563562749E+03 -0.20112881092E+04  0.20743630535E+04  0.93277789444E+02 0.  0.
        254    2    1    2    0    0 -0.36925627825E+03 -0.33563562749E+03 -0.16068872611E+04  0.19139687066E+04  0.91224342492E+03 0.  0.
        -24    2    4    4    0    0 -0.45552297819E+03  0.18673904531E+03 -0.67709427673E+03  0.84093399759E+03  0.79628349357E+02 0.  0.
         24    2    4    4    0    0  0.86266699946E+02 -0.52237467281E+03 -0.92979298441E+03  0.10730347090E+04  0.81063250194E+02 0.  0.
         13    1    3    3    0    0  0.17524641314E+03  0.22139416710E+03 -0.11429949129E+04  0.11773546847E+04  0.00000000000E+00 0. -1.
        -13    1    3    3    0    0  0.19400986511E+03  0.11424146039E+03 -0.86829319632E+03  0.89700836887E+03  0.00000000000E+00 0.  1.
          2    1    6    6  502    0  0.73966245541E+02 -0.47430275747E+03 -0.78680089120E+03  0.92167768423E+03  0.00000000000E+00 0. -1.
          3    1    5    5  503    0 -0.23190294122E+03  0.97673799545E+02 -0.41286692422E+03  0.48350619683E+03  0.00000000000E+00 0. -1.
         -4    1    5    5    0  503 -0.22362003698E+03  0.89065245768E+02 -0.26422735251E+03  0.35742780076E+03  0.00000000000E+00 0.  1.
         -1    1    6    6    0  502  0.12300454404E+02 -0.48071915340E+02 -0.14299209321E+03  0.15135702476E+03  0.00000000000E+00 0.  1.
<mgrwt>
<rscale>  0 0.16779741E+04</rscale>
<asrwt>0</asrwt>
<pdfrwt beam="1">  1        2 0.58511590E+00 0.16779741E+04</pdfrwt>
<pdfrwt beam="2">  1       -2 0.28473570E-01 0.16779741E+04</pdfrwt>
<totfact> 0.53377337E+00</totfact>
</mgrwt>
</event>
<event>
12    1  0.1598876E-007  0.1247947E+04  0.7818608E-02  0.9071893E-01
         -2   -1    0    0    0  501 -0.00000000000E+00  0.00000000000E+00  0.81130824944E+03  0.81130824944E+03  0.00000000000E+00 0.  1.
          2   -1    0    0  501    0  0.00000000000E+00 -0.00000000000E+00 -0.47989540630E+03  0.47989540630E+03  0.00000000000E+00 0. -1.
         23    2    1    2    0    0 -0.80136375814E+02  0.10559374013E+03  0.32501926312E+03  0.36293965143E+03  0.92281051696E+02 0.  0.
        254    2    1    2    0    0  0.80136375814E+02 -0.10559374013E+03  0.63935800260E+01  0.92826400430E+03  0.91872809206E+03 0.  0.
        -24    2    4    4    0    0 -0.25401774330E+03  0.61064654366E+01  0.34315405810E+03  0.43422414331E+03  0.78953126722E+02 0.  0.
         24    2    4    4    0    0  0.33415411911E+03 -0.11170020556E+03 -0.33676047807E+03  0.49403986099E+03  0.80819882543E+02 0.  0.
         13    1    3    3    0    0 -0.54495791017E+02  0.29398523823E+01  0.13168241431E+03  0.14254365019E+03  0.00000000000E+00 0. -1.
        -13    1    3    3    0    0 -0.25640584798E+02  0.10265388774E+03  0.19333684881E+03  0.22039600125E+03  0.00000000000E+00 0.  1.
          4    1    6    6  502    0  0.17992689968E+03 -0.18328816807E+02 -0.15805142818E+03  0.24018719513E+03  0.00000000000E+00 0. -1.
          1    1    5    5  503    0 -0.74695154603E+02 -0.20056318634E+02  0.59318670305E+02  0.97469619293E+02  0.00000000000E+00 0. -1.
         -4    1    5    5    0  503 -0.17932258869E+03  0.26162784071E+02  0.28383538779E+03  0.33675452402E+03  0.00000000000E+00 0.  1.
         -3    1    6    6    0  502  0.15422721943E+03 -0.93371388755E+02 -0.17870904989E+03  0.25385266586E+03  0.00000000000E+00 0.  1.
<mgrwt>
<rscale>  0 0.12479473E+04</rscale>
<asrwt>0</asrwt>
<pdfrwt beam="1">  1        2 0.73830063E-01 0.12479473E+04</pdfrwt>
<pdfrwt beam="2">  1       -2 0.12481665E+00 0.12479473E+04</pdfrwt>
<totfact> 0.30559645E+01</totfact>
</mgrwt>
</event>
<event>
12    1  0.1933635E-007  0.1855797E+04  0.7818608E-02  0.8677177E-01
          1   -1    0    0  501    0  0.00000000000E+00  0.00000000000E+00  0.22147314503E+04  0.22147314503E+04  0.00000000000E+00 0. -1.
         -1   -1    0    0    0  501 -0.00000000000E+00 -0.00000000000E+00 -0.38875844772E+03  0.38875844772E+03  0.00000000000E+00 0.  1.
         23    2    1    2    0    0  0.10508574116E+03  0.39729413519E+03 -0.10768825975E+03  0.43451125297E+03  0.91201013234E+02 0.  0.
        254    2    1    2    0    0 -0.10508574116E+03 -0.39729413519E+03  0.19336612624E+04  0.21689786451E+04  0.89248912733E+03 0.  0.
        -24    2    4    4    0    0  0.17402835211E+03 -0.27228532140E+03  0.16358814929E+03  0.37084675153E+03  0.79630816535E+02 0.  0.
         24    2    4    4    0    0 -0.27911409327E+03 -0.12500881379E+03  0.17700731131E+04  0.17981318936E+04  0.81164033963E+02 0.  0.
         11    1    3    3    0    0 -0.85732434144E+01  0.10118224991E+02 -0.15871533969E+02  0.20682953612E+02  0.00000000000E+00 0. -1.
        -11    1    3    3    0    0  0.11365898458E+03  0.38717591020E+03 -0.91816725777E+02  0.41382829936E+03  0.00000000000E+00 0.  1.
          4    1    6    6  502    0 -0.49927079966E+02  0.53230875975E+01  0.20869525263E+03  0.21465031341E+03  0.00000000000E+00 0. -1.
          3    1    5    5  503    0 -0.78209826666E+01 -0.10764817768E+02  0.13373704716E+01  0.13373018777E+02  0.00000000000E+00 0. -1.
         -4    1    5    5    0  503  0.18184933478E+03 -0.26152050364E+03  0.16225077882E+03  0.35747373275E+03  0.00000000000E+00 0.  1.
         -3    1    6    6    0  502 -0.22918701331E+03 -0.13033190139E+03  0.15613778604E+04  0.15834815801E+04  0.00000000000E+00 0.  1.
<mgrwt>
<rscale>  0 0.18557969E+04</rscale>
<asrwt>0</asrwt>
<pdfrwt beam="1">  1        1 0.34072791E+00 0.18557969E+04</pdfrwt>
<pdfrwt beam="2">  1       -1 0.59808993E-01 0.18557969E+04</pdfrwt>
<totfact> 0.56679502E+00</totfact>
</mgrwt>
</event>
<event>
12    1  0.1598876E-007  0.1156032E+04  0.7818608E-02  0.9152237E-01
         -2   -1    0    0    0  501 -0.00000000000E+00  0.00000000000E+00  0.24039961581E+03  0.24039961581E+03  0.00000000000E+00 0.  1.
          2   -1    0    0  501    0  0.00000000000E+00 -0.00000000000E+00 -0.13897794210E+04  0.13897794210E+04  0.00000000000E+00 0. -1.
         23    2    1    2    0    0 -0.13259406243E+03  0.13680781214E+03 -0.11425171472E+03  0.23910448661E+03  0.88430415292E+02 0.  0.
        254    2    1    2    0    0  0.13259406243E+03 -0.13680781214E+03 -0.10351280905E+04  0.13910745502E+04  0.90956070590E+03 0.  0.
        -24    2    4    4    0    0  0.27482708079E+03 -0.27947459299E+03 -0.76285463309E+02  0.40813083904E+03  0.84352459334E+02 0.  0.
         24    2    4    4    0    0 -0.14223301836E+03  0.14266678085E+03 -0.95884262720E+03  0.98294371120E+03  0.78835992977E+02 0.  0.
         11    1    3    3    0    0 -0.11713098596E+03  0.12642000134E+03 -0.61213569759E+02  0.18289009195E+03  0.00000000000E+00 0.  1.
        -11    1    3    3    0    0 -0.15463076472E+02  0.10387810803E+02 -0.53038144957E+02  0.56214394666E+02  0.00000000000E+00 0. -1.
          2    1    6    6  502    0 -0.14512081889E+03  0.14894730762E+03 -0.94301966010E+03  0.96567667045E+03  0.00000000000E+00 0. -1.
          3    1    5    5  503    0  0.28031227953E+03 -0.27774783636E+03 -0.77745169396E+02  0.40219789410E+03  0.00000000000E+00 0. -1.
         -4    1    5    5    0  503 -0.54851987415E+01 -0.17267566379E+01  0.14597060871E+01  0.59329449332E+01  0.00000000000E+00 0.  1.
         -1    1    6    6    0  502  0.28878005310E+01 -0.62805267696E+01 -0.15822967098E+02  0.17267040748E+02  0.00000000000E+00 0.  1.
<mgrwt>
<rscale>  0 0.11560319E+04</rscale>
<asrwt>0</asrwt>
<pdfrwt beam="1">  1        2 0.21381222E+00 0.11560319E+04</pdfrwt>
<pdfrwt beam="2">  1       -2 0.36984556E-01 0.11560319E+04</pdfrwt>
<totfact> 0.99911648E+01</totfact>
</mgrwt>
</event>
<event>
12    1  0.1637274E-007  0.1856956E+04  0.7818608E-02  0.8676584E-01
          1   -1    0    0  501    0  0.00000000000E+00  0.00000000000E+00  0.13110637206E+04  0.13110637206E+04  0.00000000000E+00 0. -1.
         -1   -1    0    0    0  501 -0.00000000000E+00 -0.00000000000E+00 -0.65753606335E+03  0.65753606335E+03  0.00000000000E+00 0.  1.
         23    2    1    2    0    0 -0.58312525831E+03  0.23049429024E+03 -0.99746445087E+02  0.64167395758E+03  0.92916251618E+02 0.  0.
        254    2    1    2    0    0  0.58312525831E+03 -0.23049429024E+03  0.75327410230E+03  0.13269258263E+04  0.89450969288E+03 0.  0.
        -24    2    4    4    0    0  0.50635233533E+03 -0.19308276786E+03  0.95004412916E+03  0.10969579105E+04  0.84018850328E+02 0.  0.
         24    2    4    4    0    0  0.76772922983E+02 -0.37411522386E+02 -0.19677002687E+03  0.22996791587E+03  0.82904132269E+02 0.  0.
         13    1    3    3    0    0 -0.69754064326E+02  0.62497644121E+02 -0.17802822123E+02  0.95333758376E+02  0.00000000000E+00 0. -1.
        -13    1    3    3    0    0 -0.51337119399E+03  0.16799664612E+03 -0.81943622964E+02  0.54634019921E+03  0.00000000000E+00 0.  1.
          2    1    6    6  502    0  0.92191142886E+02 -0.33134980269E+02 -0.18730641028E+03  0.21137839312E+03  0.00000000000E+00 0. -1.
          3    1    5    5  503    0  0.46123144102E+03 -0.16078878889E+03  0.88981513866E+03  0.10150657406E+04  0.00000000000E+00 0. -1.
         -4    1    5    5    0  503  0.45120894312E+02 -0.32293978965E+02  0.60228990503E+02  0.81892169821E+02  0.00000000000E+00 0.  1.
         -1    1    6    6    0  502 -0.15418219903E+02 -0.42765421164E+01 -0.94636165855E+01  0.18589522757E+02  0.00000000000E+00 0.  1.
<mgrwt>
<rscale>  0 0.18569563E+04</rscale>
<asrwt>0</asrwt>
<pdfrwt beam="1">  1        1 0.20170211E+00 0.18569563E+04</pdfrwt>
<pdfrwt beam="2">  1       -1 0.10115939E+00 0.18569563E+04</pdfrwt>
<totfact> 0.77423378E+00</totfact>
</mgrwt>
</event>
<event>
12    1  0.2161714E-007  0.1870436E+04  0.7818608E-02  0.8669714E-01
         -2   -1    0    0    0  501 -0.00000000000E+00  0.00000000000E+00  0.77955344618E+03  0.77955344618E+03  0.00000000000E+00 0.  1.
          2   -1    0    0  501    0  0.00000000000E+00 -0.00000000000E+00 -0.11219666723E+04  0.11219666723E+04  0.00000000000E+00 0. -1.
         23    2    1    2    0    0 -0.47114096521E+03 -0.88186526830E+02  0.41065704150E+03  0.63793151484E+03  0.92556681399E+02 0.  0.
        254    2    1    2    0    0  0.47114096521E+03  0.88186526830E+02 -0.75307026766E+03  0.12635886037E+04  0.89431015800E+03 0.  0.
        -24    2    4    4    0    0 -0.18845501259E+02  0.18949635555E+03  0.13118070087E+03  0.24449768928E+03  0.79414873282E+02 0.  0.
         24    2    4    4    0    0  0.48998646647E+03 -0.10130982872E+03 -0.88425096853E+03  0.10190909144E+04  0.79347953627E+02 0.  0.
         13    1    3    3    0    0 -0.47329320441E+03 -0.84445961120E+02  0.41226657000E+03  0.63332558959E+03  0.00000000000E+00 0.  1.
        -13    1    3    3    0    0  0.21522391970E+01 -0.37405657108E+01 -0.16095284981E+01  0.46059252473E+01  0.00000000000E+00 0. -1.
          4    1    6    6  502    0  0.79211858943E+02 -0.47083289549E+02 -0.15259257228E+03  0.17825781292E+03  0.00000000000E+00 0. -1.
          1    1    5    5  503    0  0.11880785392E+02 -0.28633967866E+00  0.23664090287E+00  0.11886591221E+02  0.00000000000E+00 0. -1.
         -4    1    5    5    0  503 -0.30726286651E+02  0.18978269523E+03  0.13094405997E+03  0.23261109806E+03  0.00000000000E+00 0.  1.
         -3    1    6    6    0  502  0.41077460753E+03 -0.54226539170E+02 -0.73165839625E+03  0.84083310148E+03  0.00000000000E+00 0.  1.
<mgrwt>
<rscale>  0 0.18704363E+04</rscale>
<asrwt>0</asrwt>
<pdfrwt beam="1">  1        2 0.17261026E+00 0.18704363E+04</pdfrwt>
<pdfrwt beam="2">  1       -2 0.11993130E+00 0.18704363E+04</pdfrwt>
<totfact> 0.10543703E+01</totfact>
</mgrwt>
</event>
<event>
12    1  0.1598876E-007  0.2512487E+04  0.7818608E-02  0.8398550E-01
         -1   -1    0    0    0  501 -0.00000000000E+00  0.00000000000E+00  0.68776862139E+03  0.68776862139E+03  0.00000000000E+00 0.  1.
          1   -1    0    0  501    0  0.00000000000E+00 -0.00000000000E+00 -0.22945919217E+04  0.22945919217E+04  0.00000000000E+00 0. -1.
         23    2    1    2    0    0  0.94373436202E+03  0.37205483655E+03 -0.11876364924E+04  0.15643953610E+04  0.88278310840E+02 0.  0.
        254    2    1    2    0    0 -0.94373436202E+03 -0.37205483655E+03 -0.41918680797E+03  0.14179651821E+04  0.89769055370E+03 0.  0.
        -24    2    4    4    0    0  0.30280540416E+02 -0.33948544666E+03  0.95311339098E+01  0.35007531077E+03  0.79338522015E+02 0.  0.
         24    2    4    4    0    0 -0.97401490243E+03 -0.32569389892E+02 -0.42871794188E+03  0.10678898713E+04  0.82606950442E+02 0.  0.
         13    1    3    3    0    0  0.13610563572E+03  0.36599187241E+02 -0.12703181396E+03  0.18974015479E+03  0.00000000000E+00 0.  1.
        -13    1    3    3    0    0  0.80762872630E+03  0.33545564931E+03 -0.10606046784E+04  0.13746552062E+04  0.00000000000E+00 0. -1.
          2    1    6    6  502    0 -0.84074697270E+03  0.35561187154E+00 -0.37153831894E+03  0.91918241988E+03  0.00000000000E+00 0. -1.
          3    1    5    5  503    0  0.35958602810E+02 -0.20183338601E+03 -0.28919196058E+02  0.20704119572E+03  0.00000000000E+00 0. -1.
         -4    1    5    5    0  503 -0.56780623935E+01 -0.13765206065E+03  0.38450329968E+02  0.14303411505E+03  0.00000000000E+00 0.  1.
         -1    1    6    6    0  502 -0.13326792973E+03 -0.32925001764E+02 -0.57179622932E+02  0.14870745144E+03  0.00000000000E+00 0.  1.
<mgrwt>
<rscale>  0 0.25124875E+04</rscale>
<asrwt>0</asrwt>
<pdfrwt beam="1">  1        1 0.35301414E+00 0.25124875E+04</pdfrwt>
<pdfrwt beam="2">  1       -1 0.10581056E+00 0.25124875E+04</pdfrwt>
<totfact> 0.13925504E+00</totfact>
</mgrwt>
</event>
<event>
12    1  0.1598876E-007  0.2358417E+04  0.7818608E-02  0.8455238E-01
         -1   -1    0    0    0  501 -0.00000000000E+00  0.00000000000E+00  0.44309747796E+03  0.44309747796E+03  0.00000000000E+00 0.  1.
          1   -1    0    0  501    0  0.00000000000E+00 -0.00000000000E+00 -0.31382085812E+04  0.31382085812E+04  0.00000000000E+00 0. -1.
         23    2    1    2    0    0  0.20282417798E+03  0.96904335105E+03 -0.89773125136E+03  0.13396181642E+04  0.92047611371E+02 0.  0.
        254    2    1    2    0    0 -0.20282417798E+03 -0.96904335105E+03 -0.17973798519E+04  0.22416878950E+04  0.90244535741E+03 0.  0.
        -24    2    4    4    0    0 -0.40702836761E+03 -0.97859810603E+03 -0.16937583606E+04  0.19994315953E+04  0.74719307023E+02 0.  0.
         24    2    4    4    0    0  0.20420418964E+03  0.95547549797E+01 -0.10362149128E+03  0.24225629971E+03  0.78486029875E+02 0.  0.
         11    1    3    3    0    0  0.51102815611E+01  0.15702537459E+03 -0.16949065140E+03  0.23110639142E+03  0.00000000000E+00 0. -1.
        -11    1    3    3    0    0  0.19771389642E+03  0.81201797646E+03 -0.72824059996E+03  0.11085117728E+04  0.00000000000E+00 0.  1.
          2    1    6    6  502    0  0.78642843205E+02  0.16259276871E+02 -0.15810973711E+01  0.80321608180E+02  0.00000000000E+00 0. -1.
          3    1    5    5  503    0 -0.12372512997E+03 -0.38990441181E+03 -0.63747094109E+03  0.75743155392E+03  0.00000000000E+00 0. -1.
         -4    1    5    5    0  503 -0.28330323764E+03 -0.58869369422E+03 -0.10562874195E+04  0.12420000413E+04  0.00000000000E+00 0.  1.
         -3    1    6    6    0  502  0.12556134643E+03 -0.67045218915E+01 -0.10204039391E+03  0.16193469153E+03  0.00000000000E+00 0.  1.
<mgrwt>
<rscale>  0 0.23584167E+04</rscale>
<asrwt>0</asrwt>
<pdfrwt beam="1">  1        1 0.48280131E+00 0.23584167E+04</pdfrwt>
<pdfrwt beam="2">  1       -1 0.68168844E-01 0.23584167E+04</pdfrwt>
<totfact> 0.92685732E-01</totfact>
</mgrwt>
</event>
<event>
12    1  0.1598876E-007  0.1982005E+04  0.7818608E-02  0.8615080E-01
          2   -1    0    0  501    0  0.00000000000E+00  0.00000000000E+00  0.20210402801E+04  0.20210402801E+04  0.00000000000E+00 0. -1.
         -2   -1    0    0    0  501 -0.00000000000E+00 -0.00000000000E+00 -0.48593115321E+03  0.48593115321E+03  0.00000000000E+00 0.  1.
         23    2    1    2    0    0  0.52240862151E+02 -0.34889637322E+03  0.14778481287E+04  0.15221617479E+04  0.92105961732E+02 0.  0.
        254    2    1    2    0    0 -0.52240862151E+02  0.34889637322E+03  0.57260998119E+02  0.98480968538E+03  0.91766742755E+03 0.  0.
        -24    2    4    4    0    0 -0.37972032777E+03  0.10258585004E+03 -0.24426924117E+03  0.47064763416E+03  0.84441396291E+02 0.  0.
         24    2    4    4    0    0  0.32747946561E+03  0.24631052318E+03  0.30153023929E+03  0.51416205123E+03  0.74367032281E+02 0.  0.
         11    1    3    3    0    0  0.44894237166E+02 -0.33420223203E+03  0.12813189594E+04  0.13249471311E+04  0.00000000000E+00 0. -1.
        -11    1    3    3    0    0  0.73466249849E+01 -0.14694141195E+02  0.19652916929E+03  0.19721461677E+03  0.00000000000E+00 0.  1.
          2    1    6    6  502    0  0.12362134043E+03  0.12348726699E+03  0.16200902202E+03  0.23828190056E+03  0.00000000000E+00 0. -1.
          1    1    5    5  503    0 -0.27029212808E+03  0.50092634726E+02 -0.20557519427E+03  0.34326122277E+03  0.00000000000E+00 0. -1.
         -2    1    5    5    0  503 -0.10942819969E+03  0.52493215319E+02 -0.38694046893E+02  0.12738641139E+03  0.00000000000E+00 0.  1.
         -1    1    6    6    0  502  0.20385812519E+03  0.12282325619E+03  0.13952121726E+03  0.27588015067E+03  0.00000000000E+00 0.  1.
<mgrwt>
<rscale>  0 0.19820055E+04</rscale>
<asrwt>0</asrwt>
<pdfrwt beam="1">  1        2 0.31092927E+00 0.19820055E+04</pdfrwt>
<pdfrwt beam="2">  1       -2 0.74758640E-01 0.19820055E+04</pdfrwt>
<totfact> 0.97306296E+00</totfact>
</mgrwt>
</event>
<event>
12    1  0.1598876E-007  0.1629145E+04  0.7818608E-02  0.8802841E-01
          1   -1    0    0  501    0  0.00000000000E+00  0.00000000000E+00  0.10834749595E+04  0.10834749595E+04  0.00000000000E+00 0. -1.
         -1   -1    0    0    0  501 -0.00000000000E+00 -0.00000000000E+00 -0.61240765194E+03  0.61240765194E+03  0.00000000000E+00 0.  1.
         23    2    1    2    0    0  0.14531789745E+03 -0.52775368316E+03  0.13796274029E+03  0.57182287528E+03  0.91139681694E+02 0.  0.
        254    2    1    2    0    0 -0.14531789745E+03  0.52775368316E+03  0.33310456729E+03  0.11240597362E+04  0.92353148097E+03 0.  0.
        -24    2    4    4    0    0  0.22543208353E+03  0.28652885269E+03  0.51659802470E+03  0.63842036597E+03  0.88253254058E+02 0.  0.
         24    2    4    4    0    0 -0.37074998098E+03  0.24122483047E+03 -0.18349345742E+03  0.48563937020E+03  0.80813252270E+02 0.  0.
         13    1    3    3    0    0  0.15661390032E+03 -0.50438228751E+03  0.13798175075E+03  0.54586479028E+03  0.00000000000E+00 0. -1.
        -13    1    3    3    0    0 -0.11296002874E+02 -0.23371395643E+02 -0.19010456445E-01  0.25958084995E+02  0.00000000000E+00 0.  1.
          2    1    6    6  502    0 -0.35588104811E+03  0.21095044577E+03 -0.18174401930E+03  0.45186535552E+03  0.00000000000E+00 0. -1.
          3    1    5    5  503    0  0.57503652967E+02  0.13336292240E+03  0.16564947239E+03  0.22029999292E+03  0.00000000000E+00 0. -1.
         -4    1    5    5    0  503  0.16792843057E+03  0.15316593028E+03  0.35094855231E+03  0.41812037305E+03  0.00000000000E+00 0.  1.
         -1    1    6    6    0  502 -0.14868932873E+02  0.30274384698E+02 -0.17494381199E+01  0.33774014677E+02  0.00000000000E+00 0.  1.
<mgrwt>
<rscale>  0 0.16291450E+04</rscale>
<asrwt>0</asrwt>
<pdfrwt beam="1">  1        1 0.16668845E+00 0.16291450E+04</pdfrwt>
<pdfrwt beam="2">  1       -1 0.94216562E-01 0.16291450E+04</pdfrwt>
<totfact> 0.13628254E+01</totfact>
</mgrwt>
</event>
<event>
12    1  0.1598876E-007  0.2044088E+04  0.7818608E-02  0.8586281E-01
          2   -1    0    0  501    0  0.00000000000E+00  0.00000000000E+00  0.67429950284E+03  0.67429950284E+03  0.00000000000E+00 0. -1.
         -2   -1    0    0    0  501 -0.00000000000E+00 -0.00000000000E+00 -0.15491251500E+04  0.15491251500E+04  0.00000000000E+00 0.  1.
         23    2    1    2    0    0  0.32561344571E+03 -0.35014752795E+03 -0.10793635364E+04  0.11838179732E+04  0.88158621203E+02 0.  0.
        254    2    1    2    0    0 -0.32561344571E+03  0.35014752795E+03  0.20453788931E+03  0.10396066796E+04  0.90017714522E+03 0.  0.
        -24    2    4    4    0    0 -0.13148523857E+03 -0.20962547542E+02  0.49871470613E+03  0.52217308888E+03  0.78870655384E+02 0.  0.
         24    2    4    4    0    0 -0.19412820714E+03  0.37111007550E+03 -0.29417681682E+03  0.51743359073E+03  0.76085953506E+02 0.  0.
         13    1    3    3    0    0  0.28123284737E+03 -0.28505137111E+03 -0.81656694838E+03  0.90946565620E+03  0.00000000000E+00 0.  1.
        -13    1    3    3    0    0  0.44380598339E+02 -0.65096156846E+02 -0.26279658805E+03  0.27435231699E+03  0.00000000000E+00 0. -1.
          2    1    6    6  502    0 -0.82740345717E+02  0.13365987968E+03 -0.68680681476E+02  0.17154580803E+03  0.00000000000E+00 0. -1.
          1    1    5    5  503    0  0.15787639539E+01 -0.73425114234E+00 -0.25865680264E+01  0.31180048937E+01  0.00000000000E+00 0. -1.
         -2    1    5    5    0  503 -0.13306400252E+03 -0.20228296400E+02  0.50130127416E+03  0.51905508399E+03  0.00000000000E+00 0.  1.
         -1    1    6    6    0  502 -0.11138786142E+03  0.23745019582E+03 -0.22549613535E+03  0.34588778270E+03  0.00000000000E+00 0.  1.
<mgrwt>
<rscale>  0 0.20440884E+04</rscale>
<asrwt>0</asrwt>
<pdfrwt beam="1">  1        2 0.10373839E+00 0.20440884E+04</pdfrwt>
<pdfrwt beam="2">  1       -2 0.23832694E+00 0.20440884E+04</pdfrwt>
<totfact> 0.30155826E+00</totfact>
</mgrwt>
</event>
<event>
12    1  0.1598876E-007  0.2115306E+04  0.7818608E-02  0.8554531E-01
          2   -1    0    0  501    0  0.00000000000E+00  0.00000000000E+00  0.17108451362E+04  0.17108451362E+04  0.00000000000E+00 0.  1.
         -2   -1    0    0    0  501 -0.00000000000E+00 -0.00000000000E+00 -0.65384633115E+03  0.65384633115E+03  0.00000000000E+00 0. -1.
         23    2    1    2    0    0 -0.17117627359E+03  0.19268022360E+03 -0.48714962602E+03  0.55875146253E+03  0.91986159539E+02 0.  0.
        254    2    1    2    0    0  0.17117627359E+03 -0.19268022360E+03  0.15441484310E+04  0.18059400048E+04  0.90033212681E+03 0.  0.
        -24    2    4    4    0    0 -0.24406040355E+03 -0.19867006485E+03  0.12478936876E+04  0.12893355860E+04  0.78181344274E+02 0.  0.
         24    2    4    4    0    0  0.41523667714E+03  0.59898412551E+01  0.29625474345E+03  0.51660441876E+03  0.81583553675E+02 0.  0.
         11    1    3    3    0    0 -0.54098259864E+02  0.12709371587E+03 -0.27458648877E+03  0.30737139449E+03  0.00000000000E+00 0.  1.
        -11    1    3    3    0    0 -0.11707801372E+03  0.65586507728E+02 -0.21256313725E+03  0.25138006805E+03  0.00000000000E+00 0. -1.
          4    1    6    6  502    0  0.31781649786E+03 -0.18931904116E+02  0.19217656829E+03  0.37188382151E+03  0.00000000000E+00 0. -1.
          3    1    5    5  503    0 -0.10763190952E+03 -0.80129550180E+02  0.68903685628E+03  0.70198088441E+03  0.00000000000E+00 0. -1.
         -4    1    5    5    0  503 -0.13642849403E+03 -0.11854051467E+03  0.55885683130E+03  0.58735470160E+03  0.00000000000E+00 0.  1.
         -3    1    6    6    0  502  0.97420179277E+02  0.24921745372E+02  0.10407817516E+03  0.14472059725E+03  0.00000000000E+00 0.  1.
<mgrwt>
<rscale>  0 0.21153059E+04</rscale>
<asrwt>0</asrwt>
<pdfrwt beam="1">  1        2 0.26320694E+00 0.21153059E+04</pdfrwt>
<pdfrwt beam="2">  1       -2 0.10059174E+00 0.21153059E+04</pdfrwt>
<totfact> 0.72507595E+00</totfact>
</mgrwt>
</event>
<event>
12    1  0.1598876E-007  0.1606846E+04  0.7818608E-02  0.8816354E-01
         -2   -1    0    0    0  501 -0.00000000000E+00  0.00000000000E+00  0.32997402516E+03  0.32997402516E+03  0.00000000000E+00 0. -1.
          2   -1    0    0  501    0  0.00000000000E+00 -0.00000000000E+00 -0.19561786969E+04  0.19561786969E+04  0.00000000000E+00 0.  1.
         23    2    1    2    0    0  0.34982387618E+03  0.41147211561E+03 -0.36955763263E+03  0.66024856195E+03  0.87574388091E+02 0.  0.
        254    2    1    2    0    0 -0.34982387618E+03 -0.41147211561E+03 -0.12566470391E+04  0.16259041601E+04  0.87904295155E+03 0.  0.
        -24    2    4    4    0    0  0.50454047090E+02 -0.37655138364E+03 -0.10196114029E+03  0.40080805525E+03  0.76905576093E+02 0.  0.
         24    2    4    4    0    0 -0.40027792327E+03 -0.34920731973E+02 -0.11546858988E+04  0.12250961048E+04  0.78224470900E+02 0.  0.
         11    1    3    3    0    0  0.11690222318E+03  0.10208056510E+03 -0.68102926115E+02  0.16948327380E+03  0.00000000000E+00 0.  1.
        -11    1    3    3    0    0  0.23292165301E+03  0.30939155051E+03 -0.30145470652E+03  0.49076528815E+03  0.00000000000E+00 0. -1.
          4    1    6    6  502    0 -0.33534352287E+03  0.17949607586E+00 -0.96019050791E+03  0.10170649547E+04  0.00000000000E+00 0. -1.
          1    1    5    5  503    0  0.45883441687E+02 -0.30003601990E+03 -0.48548813495E+02  0.30738232016E+03  0.00000000000E+00 0. -1.
         -2    1    5    5    0  503  0.45706054032E+01 -0.76515363738E+02 -0.53412326798E+02  0.93425735082E+02  0.00000000000E+00 0.  1.
         -3    1    6    6    0  502 -0.64934400404E+02 -0.35100228049E+02 -0.19449539086E+03  0.20803115014E+03  0.00000000000E+00 0.  1.
<mgrwt>
<rscale>  0 0.16068456E+04</rscale>
<asrwt>0</asrwt>
<pdfrwt beam="1">  1        2 0.30095057E+00 0.16068456E+04</pdfrwt>
<pdfrwt beam="2">  1       -2 0.50765235E-01 0.16068456E+04</pdfrwt>
<totfact> 0.24850319E+01</totfact>
</mgrwt>
</event>
<event>
12    1  0.1598876E-007  0.2544834E+04  0.7818608E-02  0.8387185E-01
         -2   -1    0    0    0  501 -0.00000000000E+00  0.00000000000E+00  0.43387330606E+03  0.43387330606E+03  0.00000000000E+00 0.  1.
          2   -1    0    0  501    0  0.00000000000E+00 -0.00000000000E+00 -0.37316064664E+04  0.37316064664E+04  0.00000000000E+00 0. -1.
         23    2    1    2    0    0  0.10501263789E+04  0.35515406799E+03 -0.16130509886E+04  0.19587798853E+04  0.77364872573E+02 0.  0.
        254    2    1    2    0    0 -0.10501263789E+04 -0.35515406799E+03 -0.16846821717E+04  0.22066998872E+04  0.89580720507E+03 0.  0.
        -24    2    4    4    0    0 -0.85687601440E+03  0.14501306364E+03 -0.90209586659E+03  0.12550748866E+04  0.78553967591E+02 0.  0.
         24    2    4    4    0    0 -0.19325036450E+03 -0.50016713163E+03 -0.78258630516E+03  0.95162500057E+03  0.75072989474E+02 0.  0.
         11    1    3    3    0    0  0.35600892663E+03  0.10189561274E+03 -0.48311124773E+03  0.60870481304E+03  0.00000000000E+00 0. -1.
        -11    1    3    3    0    0  0.69411745228E+03  0.25325845525E+03 -0.11299397409E+04  0.13500750723E+04  0.00000000000E+00 0.  1.
          2    1    6    6  502    0 -0.12268322268E+03 -0.38930894006E+03 -0.55697211866E+03  0.69052919192E+03  0.00000000000E+00 0. -1.
          3    1    5    5  503    0 -0.54863629237E+03  0.57634239957E+02 -0.54879256891E+03  0.77813673003E+03  0.00000000000E+00 0. -1.
         -4    1    5    5    0  503 -0.30823972203E+03  0.87378823686E+02 -0.35330329768E+03  0.47693815659E+03  0.00000000000E+00 0.  1.
         -1    1    6    6    0  502 -0.70567141825E+02 -0.11085819158E+03 -0.22561418650E+03  0.26109580865E+03  0.00000000000E+00 0.  1.
<mgrwt>
<rscale>  0 0.25448335E+04</rscale>
<asrwt>0</asrwt>
<pdfrwt beam="1">  1        2 0.57409332E+00 0.25448335E+04</pdfrwt>
<pdfrwt beam="2">  1       -2 0.66749737E-01 0.25448335E+04</pdfrwt>
<totfact> 0.10148238E+00</totfact>
</mgrwt>
</event>
<event>
12    1  0.1598876E-007  0.1394753E+04  0.7818608E-02  0.8957625E-01
          2   -1    0    0  501    0  0.00000000000E+00  0.00000000000E+00  0.67818989842E+03  0.67818989842E+03  0.00000000000E+00 0. -1.
         -2   -1    0    0    0  501 -0.00000000000E+00 -0.00000000000E+00 -0.71710597156E+03  0.71710597156E+03  0.00000000000E+00 0.  1.
         23    2    1    2    0    0  0.16570807187E+03  0.23479551669E+03 -0.34501812907E+03  0.45810267958E+03  0.90732882225E+02 0.  0.
        254    2    1    2    0    0 -0.16570807187E+03 -0.23479551669E+03  0.30610205593E+03  0.93719319039E+03  0.83788096274E+03 0.  0.
        -24    2    4    4    0    0  0.12186167868E+03  0.15496152801E+03  0.38429866535E+03  0.44014332687E+03  0.84719183799E+02 0.  0.
         24    2    4    4    0    0 -0.28756975055E+03 -0.38975704470E+03 -0.78196609427E+02  0.49704986351E+03  0.79604910425E+02 0.  0.
         11    1    3    3    0    0  0.10536337583E+03  0.15736099606E+03 -0.15698295771E+03  0.24598287148E+03  0.00000000000E+00 0. -1.
        -11    1    3    3    0    0  0.60344696033E+02  0.77434520634E+02 -0.18803517136E+03  0.21211980811E+03  0.00000000000E+00 0.  1.
          2    1    6    6  502    0 -0.26733022877E+03 -0.31452605250E+03 -0.61001322449E+02  0.41726879857E+03  0.00000000000E+00 0. -1.
          1    1    5    5  503    0  0.87294173764E+02  0.12953842681E+03  0.21665506817E+03  0.26709529265E+03  0.00000000000E+00 0. -1.
         -2    1    5    5    0  503  0.34567504921E+02  0.25423101202E+02  0.16764359719E+03  0.17304803422E+03  0.00000000000E+00 0.  1.
         -1    1    6    6    0  502 -0.20239521779E+02 -0.75230992200E+02 -0.17195286977E+02  0.79781064943E+02  0.00000000000E+00 0.  1.
<mgrwt>
<rscale>  0 0.13947531E+04</rscale>
<asrwt>0</asrwt>
<pdfrwt beam="1">  1        2 0.10433691E+00 0.13947531E+04</pdfrwt>
<pdfrwt beam="2">  1       -2 0.11032399E+00 0.13947531E+04</pdfrwt>
<totfact> 0.27087191E+01</totfact>
</mgrwt>
</event>
<event>
12    1  0.1598876E-007  0.1566602E+04  0.7818608E-02  0.8841332E-01
         -1   -1    0    0    0  501 -0.00000000000E+00  0.00000000000E+00  0.34623137049E+03  0.34623137049E+03  0.00000000000E+00 0.  1.
          1   -1    0    0  501    0  0.00000000000E+00 -0.00000000000E+00 -0.17721117094E+04  0.17721117094E+04  0.00000000000E+00 0. -1.
         23    2    1    2    0    0  0.13770519656E+03  0.10918277212E+03 -0.10908241707E+04  0.11113817136E+04  0.11995141871E+03 0.  0.
        254    2    1    2    0    0 -0.13770519656E+03 -0.10918277212E+03 -0.33505616814E+03  0.10069613663E+04  0.93318002472E+03 0.  0.
        -24    2    4    4    0    0  0.38013160504E+03  0.68638063542E+02 -0.16769208409E+03  0.42819164097E+03  0.77564330809E+02 0.  0.
         24    2    4    4    0    0 -0.51783680160E+03 -0.17782083566E+03 -0.16736408405E+03  0.57876972533E+03  0.84784760664E+02 0.  0.
         13    1    3    3    0    0  0.14363883148E+03  0.49982612133E+02 -0.72861994303E+03  0.74432344905E+03  0.00000000000E+00 0. -1.
        -13    1    3    3    0    0 -0.59336349160E+01  0.59200159986E+02 -0.36220422772E+03  0.36705826451E+03  0.00000000000E+00 0.  1.
          4    1    6    6  502    0 -0.43691526332E+03 -0.12123053993E+03 -0.11879709626E+03  0.46872651004E+03  0.00000000000E+00 0. -1.
          1    1    5    5  503    0  0.37415844149E+03  0.58062553050E+02 -0.17121061619E+03  0.41554647695E+03  0.00000000000E+00 0. -1.
         -2    1    5    5    0  503  0.59731635506E+01  0.10575510492E+02  0.35185321094E+01  0.12645164023E+02  0.00000000000E+00 0.  1.
         -3    1    6    6    0  502 -0.80921538285E+02 -0.56590295728E+02 -0.48566987794E+02  0.11004321529E+03  0.00000000000E+00 0.  1.
<mgrwt>
<rscale>  0 0.15666023E+04</rscale>
<asrwt>0</asrwt>
<pdfrwt beam="1">  1        1 0.27263258E+00 0.15666023E+04</pdfrwt>
<pdfrwt beam="2">  1       -1 0.53266364E-01 0.15666023E+04</pdfrwt>
<totfact> 0.14558549E+01</totfact>
</mgrwt>
</event>
<event>
12    1  0.1598876E-007  0.1220018E+04  0.7818608E-02  0.9095513E-01
         -2   -1    0    0    0  501 -0.00000000000E+00  0.00000000000E+00  0.23149909272E+03  0.23149909272E+03  0.00000000000E+00 0.  1.
          2   -1    0    0  501    0  0.00000000000E+00 -0.00000000000E+00 -0.16073966887E+04  0.16073966887E+04  0.00000000000E+00 0. -1.
         23    2    1    2    0    0  0.18428338808E+03  0.14247620619E+03 -0.58131409084E+03  0.63270912072E+03  0.90193806747E+02 0.  0.
        254    2    1    2    0    0 -0.18428338808E+03 -0.14247620619E+03 -0.79458350510E+03  0.12061866607E+04  0.87707666559E+03 0.  0.
        -24    2    4    4    0    0 -0.35878928568E+03 -0.67555298419E+02  0.11557357660E+02  0.37411304514E+03  0.80830242847E+02 0.  0.
         24    2    4    4    0    0  0.17450589760E+03 -0.74920907766E+02 -0.80614086276E+03  0.83207361552E+03  0.80112173357E+02 0.  0.
         13    1    3    3    0    0 -0.76889582701E+01  0.20915990115E+02 -0.61049927683E+02  0.64989940698E+02  0.00000000000E+00 0.  1.
        -13    1    3    3    0    0  0.19197234635E+03  0.12156021607E+03 -0.52026416316E+03  0.56771918002E+03  0.00000000000E+00 0. -1.
          4    1    6    6  502    0  0.14119363950E+03 -0.67598038616E+02 -0.75173026885E+03  0.76785645518E+03  0.00000000000E+00 0. -1.
          3    1    5    5  503    0 -0.27030382186E+03 -0.47087959117E+02  0.43574237165E+02  0.27781314971E+03  0.00000000000E+00 0. -1.
         -4    1    5    5    0  503 -0.88485463821E+02 -0.20467339302E+02 -0.32016879505E+02  0.96299895425E+02  0.00000000000E+00 0.  1.
         -3    1    6    6    0  502  0.33312258106E+02 -0.73228691496E+01 -0.54410593911E+02  0.64217160343E+02  0.00000000000E+00 0.  1.
<mgrwt>
<rscale>  0 0.12200178E+04</rscale>
<asrwt>0</asrwt>
<pdfrwt beam="1">  1        2 0.24729181E+00 0.12200178E+04</pdfrwt>
<pdfrwt beam="2">  1       -2 0.35615244E-01 0.12200178E+04</pdfrwt>
<totfact> 0.80618482E+01</totfact>
</mgrwt>
</event>
<event>
12    1  0.1598876E-007  0.1608711E+04  0.7818608E-02  0.8815214E-01
         -2   -1    0    0    0  501 -0.00000000000E+00  0.00000000000E+00  0.21217843285E+03  0.21217843285E+03  0.00000000000E+00 0.  1.
          2   -1    0    0  501    0  0.00000000000E+00 -0.00000000000E+00 -0.30492628009E+04  0.30492628009E+04  0.00000000000E+00 0. -1.
         23    2    1    2    0    0  0.55648971032E+02  0.53140789632E+03 -0.74193671185E+03  0.91879522220E+03  0.90683050721E+02 0.  0.
        254    2    1    2    0    0 -0.55648971032E+02 -0.53140789632E+03 -0.20951476562E+04  0.23426460116E+04  0.90158497878E+03 0.  0.
        -24    2    4    4    0    0 -0.24162247452E+03  0.94508862719E+02 -0.12073689706E+04  0.12377380266E+04  0.83320140642E+02 0.  0.
         24    2    4    4    0    0  0.18597350349E+03 -0.62591675904E+03 -0.88777868557E+03  0.11049079850E+04  0.79452674671E+02 0.  0.
         13    1    3    3    0    0  0.15647381568E+02  0.45812302400E+03 -0.63299441542E+03  0.78153917088E+03  0.00000000000E+00 0. -1.
        -13    1    3    3    0    0  0.40001589464E+02  0.73284872318E+02 -0.10894229644E+03  0.13725605132E+03  0.00000000000E+00 0.  1.
          2    1    6    6  502    0  0.13186421402E+03 -0.47700119526E+03 -0.61431814327E+03  0.78886316454E+03  0.00000000000E+00 0. -1.
          1    1    5    5  503    0 -0.56668852757E+02  0.15588584663E+02 -0.46188520817E+03  0.46560960940E+03  0.00000000000E+00 0. -1.
         -2    1    5    5    0  503 -0.18495362177E+03  0.78920278055E+02 -0.74548376245E+03  0.77212841715E+03  0.00000000000E+00 0.  1.
         -1    1    6    6    0  502  0.54109289473E+02 -0.14891556378E+03 -0.27346054230E+03  0.31604482046E+03  0.00000000000E+00 0.  1.
<mgrwt>
<rscale>  0 0.16087110E+04</rscale>
<asrwt>0</asrwt>
<pdfrwt beam="1">  1        2 0.46911736E+00 0.16087110E+04</pdfrwt>
<pdfrwt beam="2">  1       -2 0.32642836E-01 0.16087110E+04</pdfrwt>
<totfact> 0.13676962E+01</totfact>
</mgrwt>
</event>
<event>
12    1  0.1598876E-007  0.1143397E+04  0.7818608E-02  0.9163897E-01
         -2   -1    0    0    0  501 -0.00000000000E+00  0.00000000000E+00  0.20262784984E+03  0.20262784984E+03  0.00000000000E+00 0.  1.
          2   -1    0    0  501    0  0.00000000000E+00 -0.00000000000E+00 -0.16130027873E+04  0.16130027873E+04  0.00000000000E+00 0. -1.
         23    2    1    2    0    0 -0.74990812900E+01 -0.23341288860E+02 -0.58934453716E+03  0.59683461892E+03  0.91013882880E+02 0.  0.
        254    2    1    2    0    0  0.74990812900E+01  0.23341288860E+02 -0.82103040033E+03  0.12187960183E+04  0.90042865562E+03 0.  0.
        -24    2    4    4    0    0 -0.30588514739E+03  0.32610321854E+03 -0.46824348535E+03  0.65254234178E+03  0.81550681855E+02 0.  0.
         24    2    4    4    0    0  0.31338422868E+03 -0.30276192968E+03 -0.35278691498E+03  0.56625367647E+03  0.79436502207E+02 0.  0.
         13    1    3    3    0    0  0.38979374087E+02  0.15361992346E+01 -0.32092688239E+03  0.32328905851E+03  0.00000000000E+00 0. -1.
        -13    1    3    3    0    0 -0.46478455377E+02 -0.24877488095E+02 -0.26841765477E+03  0.27354556041E+03  0.00000000000E+00 0.  1.
          2    1    6    6  502    0  0.15023720149E+03 -0.16867253085E+03 -0.13626240355E+03  0.26379742606E+03  0.00000000000E+00 0. -1.
          1    1    5    5  503    0  0.29792370426E+01 -0.21461503727E+00  0.72303825443E+00  0.30732226225E+01  0.00000000000E+00 0. -1.
         -2    1    5    5    0  503 -0.30886438444E+03  0.32631783358E+03 -0.46896652360E+03  0.64946911916E+03  0.00000000000E+00 0.  1.
         -1    1    6    6    0  502  0.16314702719E+03 -0.13408939883E+03 -0.21652451143E+03  0.30245625041E+03  0.00000000000E+00 0.  1.
<mgrwt>
<rscale>  0 0.11433972E+04</rscale>
<asrwt>0</asrwt>
<pdfrwt beam="1">  1        2 0.24815428E+00 0.11433972E+04</pdfrwt>
<pdfrwt beam="2">  1       -2 0.31173515E-01 0.11433972E+04</pdfrwt>
<totfact> 0.10359291E+02</totfact>
</mgrwt>
</event>
<event>
12    1  0.1598876E-007  0.2446386E+04  0.7818608E-02  0.8422339E-01
         -3   -1    0    0    0  501 -0.00000000000E+00  0.00000000000E+00  0.96327548791E+03  0.96327548791E+03  0.00000000000E+00 0.  1.
          3   -1    0    0  501    0  0.00000000000E+00 -0.00000000000E+00 -0.15532433456E+04  0.15532433456E+04  0.00000000000E+00 0. -1.
         23    2    1    2    0    0  0.43266588213E+03  0.22657559486E+03  0.74209773476E+03  0.89270433293E+03  0.87611142905E+02 0.  0.
        254    2    1    2    0    0 -0.43266588213E+03 -0.22657559486E+03 -0.13320655925E+04  0.16238145006E+04  0.78983449151E+03 0.  0.
        -24    2    4    4    0    0 -0.48723867414E+03  0.12964070975E+03 -0.10192689109E+04  0.11399892864E+04  0.80363058727E+02 0.  0.
         24    2    4    4    0    0  0.54572792016E+02 -0.35621630461E+03 -0.31279668157E+03  0.48382521419E+03  0.79855047345E+02 0.  0.
         11    1    3    3    0    0  0.31555126276E+03  0.16749191145E+03  0.46739130553E+03  0.58828630132E+03  0.00000000000E+00 0.  1.
        -11    1    3    3    0    0  0.11711461937E+03  0.59083683406E+02  0.27470642922E+03  0.30441803161E+03  0.00000000000E+00 0. -1.
          4    1    6    6  502    0  0.85520580526E+01 -0.21792171800E+03 -0.14665481900E+03  0.26281295403E+03  0.00000000000E+00 0. -1.
          1    1    5    5  503    0 -0.47114322817E+03  0.12923925558E+03 -0.10085475831E+04  0.11206457755E+04  0.00000000000E+00 0. -1.
         -2    1    5    5    0  503 -0.16095445976E+02  0.40145416628E+00 -0.10721327765E+02  0.19343510945E+02  0.00000000000E+00 0.  1.
         -3    1    6    6    0  502  0.46020733963E+02 -0.13829458661E+03 -0.16614186258E+03  0.22101226016E+03  0.00000000000E+00 0.  1.
<mgrwt>
<rscale>  0 0.24463861E+04</rscale>
<asrwt>0</asrwt>
<pdfrwt beam="1">  1        3 0.23896051E+00 0.24463861E+04</pdfrwt>
<pdfrwt beam="2">  1       -3 0.14819623E+00 0.24463861E+04</pdfrwt>
<totfact> 0.66490515E-02</totfact>
</mgrwt>
</event>
<event>
12    1  0.1598876E-007  0.2253207E+04  0.7818608E-02  0.8496603E-01
         -1   -1    0    0    0  501 -0.00000000000E+00  0.00000000000E+00  0.50286905291E+03  0.50286905291E+03  0.00000000000E+00 0.  1.
          1   -1    0    0  501    0  0.00000000000E+00 -0.00000000000E+00 -0.25239887241E+04  0.25239887241E+04  0.00000000000E+00 0. -1.
         23    2    1    2    0    0 -0.27239194382E+03  0.29978056444E+03 -0.20122896090E+04  0.20545592416E+04  0.88535014944E+02 0.  0.
        254    2    1    2    0    0  0.27239194382E+03 -0.29978056444E+03 -0.88300621975E+01  0.97229853543E+03  0.88386690973E+03 0.  0.
        -24    2    4    4    0    0 -0.96074522103E+02 -0.20116020764E+03 -0.37098181671E+03  0.44015013763E+03  0.80055558163E+02 0.  0.
         24    2    4    4    0    0  0.36846646592E+03 -0.98620356803E+02  0.36215175451E+03  0.53214839780E+03  0.80836332783E+02 0.  0.
         11    1    3    3    0    0 -0.22321316979E+03  0.27108009893E+03 -0.15810330889E+04  0.16195598685E+04  0.00000000000E+00 0.  1.
        -11    1    3    3    0    0 -0.49178774030E+02  0.28700465504E+02 -0.43125652004E+03  0.43499937311E+03  0.00000000000E+00 0. -1.
          2    1    6    6  502    0  0.15216346891E+03 -0.18278429367E+01  0.12555245414E+03  0.19728274385E+03  0.00000000000E+00 0. -1.
          3    1    5    5  503    0 -0.40360628781E+02 -0.67082825156E+02 -0.66099312317E+02  0.10246074797E+03  0.00000000000E+00 0. -1.
         -4    1    5    5    0  503 -0.55713893322E+02 -0.13407738248E+03 -0.30488250439E+03  0.33768938966E+03  0.00000000000E+00 0.  1.
         -1    1    6    6    0  502  0.21630299701E+03 -0.96792513866E+02  0.23659930037E+03  0.33486565394E+03  0.00000000000E+00 0.  1.
<mgrwt>
<rscale>  0 0.22532073E+04</rscale>
<asrwt>0</asrwt>
<pdfrwt beam="1">  1        1 0.38830595E+00 0.22532073E+04</pdfrwt>
<pdfrwt beam="2">  1       -1 0.77364470E-01 0.22532073E+04</pdfrwt>
<totfact> 0.19815983E+00</totfact>
</mgrwt>
</event>
<event>
12    1  0.1598876E-007  0.1259347E+04  0.7818608E-02  0.9062439E-01
          3   -1    0    0  501    0  0.00000000000E+00  0.00000000000E+00  0.77761820963E+03  0.77761820963E+03  0.00000000000E+00 0. -1.
         -3   -1    0    0    0  501 -0.00000000000E+00 -0.00000000000E+00 -0.50987620978E+03  0.50987620978E+03  0.00000000000E+00 0.  1.
         23    2    1    2    0    0  0.13419661062E+03 -0.26053102564E+03  0.14779480639E+01  0.30669435508E+03  0.90410715565E+02 0.  0.
        254    2    1    2    0    0 -0.13419661062E+03  0.26053102564E+03  0.26626405178E+03  0.98080006432E+03  0.89732216917E+03 0.  0.
        -24    2    4    4    0    0  0.66486525611E+02  0.13599116775E+03  0.56533718173E+03  0.59064514999E+03  0.79633588200E+02 0.  0.
         24    2    4    4    0    0 -0.20068313623E+03  0.12453985789E+03 -0.29907312995E+03  0.39015491433E+03  0.83619511779E+02 0.  0.
         11    1    3    3    0    0  0.97710966160E+02 -0.22496086380E+03  0.31927742361E+02  0.24733419473E+03  0.00000000000E+00 0. -1.
        -11    1    3    3    0    0  0.36485644459E+02 -0.35570161835E+02 -0.30449794297E+02  0.59360160354E+02  0.00000000000E+00 0.  1.
          2    1    6    6  502    0 -0.16893566678E+03  0.88965420707E+02 -0.27977841193E+03  0.33871826844E+03  0.00000000000E+00 0. -1.
          1    1    5    5  503    0  0.82796910908E+02  0.97300112778E+02  0.45471487695E+03  0.47232219905E+03  0.00000000000E+00 0. -1.
         -2    1    5    5    0  503 -0.16310385297E+02  0.38691054967E+02  0.11062230478E+03  0.11832295094E+03  0.00000000000E+00 0.  1.
         -1    1    6    6    0  502 -0.31747469450E+02  0.35574437186E+02 -0.19294718020E+02  0.51436645896E+02  0.00000000000E+00 0.  1.
<mgrwt>
<rscale>  0 0.12593475E+04</rscale>
<asrwt>0</asrwt>
<pdfrwt beam="1">  1        3 0.11963357E+00 0.12593475E+04</pdfrwt>
<pdfrwt beam="2">  1       -3 0.78442494E-01 0.12593475E+04</pdfrwt>
<totfact> 0.22340310E+00</totfact>
</mgrwt>
</event>
<event>
12    1  0.1598876E-007  0.1417561E+04  0.7818608E-02  0.8941204E-01
          1   -1    0    0  501    0  0.00000000000E+00  0.00000000000E+00  0.27854971742E+03  0.27854971742E+03  0.00000000000E+00 0. -1.
         -1   -1    0    0    0  501 -0.00000000000E+00 -0.00000000000E+00 -0.18035197944E+04  0.18035197944E+04  0.00000000000E+00 0.  1.
         23    2    1    2    0    0  0.13315505089E+03  0.21725617239E+03  0.25748665065E+02  0.26767306084E+03  0.77816204792E+02 0.  0.
        254    2    1    2    0    0 -0.13315505089E+03 -0.21725617239E+03 -0.15507187421E+04  0.18143964510E+04  0.90684913431E+03 0.  0.
        -24    2    4    4    0    0 -0.74406980244E+02 -0.33494086295E+03 -0.11628866725E+03  0.37181142297E+03  0.83659427087E+02 0.  0.
         24    2    4    4    0    0 -0.58748070643E+02  0.11768469056E+03 -0.14344300748E+04  0.14425850281E+04  0.78491409437E+02 0.  0.
         13    1    3    3    0    0  0.23314636539E+02  0.59132849570E+02 -0.25422664626E+02  0.68458586400E+02  0.00000000000E+00 0.  1.
        -13    1    3    3    0    0  0.10984041435E+03  0.15812332282E+03  0.51171329691E+02  0.19921447444E+03  0.00000000000E+00 0. -1.
          4    1    6    6  502    0 -0.35414916482E+02  0.45212582307E+02 -0.99127493982E+03  0.99293725896E+03  0.00000000000E+00 0. -1.
          1    1    5    5  503    0 -0.46910052014E+02 -0.24593270319E+03 -0.44705541923E+02  0.25432662652E+03  0.00000000000E+00 0. -1.
         -2    1    5    5    0  503 -0.27496928229E+02 -0.89008159752E+02 -0.71583125328E+02  0.11748479645E+03  0.00000000000E+00 0.  1.
         -3    1    6    6    0  502 -0.23333154161E+02  0.72472108250E+02 -0.44315513503E+03  0.44964776910E+03  0.00000000000E+00 0.  1.
<mgrwt>
<rscale>  0 0.14175612E+04</rscale>
<asrwt>0</asrwt>
<pdfrwt beam="1">  1        1 0.42853804E-01 0.14175612E+04</pdfrwt>
<pdfrwt beam="2">  1       -1 0.27746458E+00 0.14175612E+04</pdfrwt>
<totfact> 0.43564345E+00</totfact>
</mgrwt>
</event>
<event>
12    1  0.1598876E-007  0.1667840E+04  0.7818608E-02  0.8779922E-01
          1   -1    0    0  501    0  0.00000000000E+00  0.00000000000E+00  0.89261176123E+03  0.89261176123E+03  0.00000000000E+00 0.  1.
         -1   -1    0    0    0  501 -0.00000000000E+00 -0.00000000000E+00 -0.77908704987E+03  0.77908704987E+03  0.00000000000E+00 0. -1.
         23    2    1    2    0    0 -0.42144455451E+03  0.38356581499E+03  0.17283958834E+03  0.60257104802E+03  0.92087445741E+02 0.  0.
        254    2    1    2    0    0  0.42144455451E+03 -0.38356581499E+03 -0.59314876971E+02  0.10691277631E+04  0.90265035988E+03 0.  0.
        -24    2    4    4    0    0  0.23366145621E+03  0.27267316379E+03 -0.96158185336E+02  0.38049177908E+03  0.81112680710E+02 0.  0.
         24    2    4    4    0    0  0.18778309830E+03 -0.65623897878E+03  0.36843308365E+02  0.68863598400E+03  0.83366658830E+02 0.  0.
         13    1    3    3    0    0 -0.37898709322E+03  0.33344831939E+03  0.12152271374E+03  0.51921745780E+03  0.00000000000E+00 0. -1.
        -13    1    3    3    0    0 -0.42457461293E+02  0.50117495605E+02  0.51316874597E+02  0.83353590226E+02  0.00000000000E+00 0.  1.
          4    1    6    6  502    0  0.19381678432E+03 -0.62969054515E+03  0.44527990580E+02  0.66034678047E+03  0.00000000000E+00 0. -1.
          3    1    5    5  503    0  0.11876614041E+03  0.18038418401E+03 -0.87000116105E+02  0.23283657391E+03  0.00000000000E+00 0. -1.
         -4    1    5    5    0  503  0.11489531580E+03  0.92288979782E+02 -0.91580692310E+01  0.14765520517E+03  0.00000000000E+00 0.  1.
         -3    1    6    6    0  502 -0.60336860199E+01 -0.26548433631E+02 -0.76846822156E+01  0.28289203523E+02  0.00000000000E+00 0.  1.
<mgrwt>
<rscale>  0 0.16678396E+04</rscale>
<asrwt>0</asrwt>
<pdfrwt beam="1">  1        1 0.13732489E+00 0.16678396E+04</pdfrwt>
<pdfrwt beam="2">  1       -1 0.11985955E+00 0.16678396E+04</pdfrwt>
<totfact> 0.10934334E+01</totfact>
</mgrwt>
</event>
<event>
12    1  0.1598876E-007  0.1496990E+04  0.7818608E-02  0.8886457E-01
         -1   -1    0    0    0  501 -0.00000000000E+00  0.00000000000E+00  0.44544910414E+03  0.44544910414E+03  0.00000000000E+00 0.  1.
          1   -1    0    0  501    0  0.00000000000E+00 -0.00000000000E+00 -0.12577069346E+04  0.12577069346E+04  0.00000000000E+00 0. -1.
         23    2    1    2    0    0 -0.39854012430E+03  0.26178060164E+03 -0.54444037435E+03  0.72749257981E+03  0.73937936018E+02 0.  0.
        254    2    1    2    0    0  0.39854012430E+03 -0.26178060164E+03 -0.26781745608E+03  0.97566345889E+03  0.80797876282E+03 0.  0.
        -24    2    4    4    0    0 -0.29829295516E+02 -0.43974468904E+03 -0.22726177503E+03  0.50319034668E+03  0.85366458234E+02 0.  0.
         24    2    4    4    0    0  0.42836941982E+03  0.17796408740E+03 -0.40555681049E+02  0.47247311221E+03  0.80090587817E+02 0.  0.
         11    1    3    3    0    0 -0.26089588400E+03  0.13248514234E+03 -0.35427573262E+03  0.45948914019E+03  0.00000000000E+00 0. -1.
        -11    1    3    3    0    0 -0.13764424030E+03  0.12929545930E+03 -0.19016464173E+03  0.26800343962E+03  0.00000000000E+00 0.  1.
          4    1    6    6  502    0  0.24197710328E+03  0.72326031954E+02  0.84396562931E+01  0.25269586702E+03  0.00000000000E+00 0. -1.
          3    1    5    5  503    0 -0.31593869744E+02 -0.27591203271E+03 -0.98006302793E+02  0.29450103189E+03  0.00000000000E+00 0. -1.
         -4    1    5    5    0  503  0.17645742283E+01 -0.16383265633E+03 -0.12925547224E+03  0.20868931479E+03  0.00000000000E+00 0.  1.
         -3    1    6    6    0  502  0.18639231654E+03  0.10563805545E+03 -0.48995337342E+02  0.21977724519E+03  0.00000000000E+00 0.  1.
<mgrwt>
<rscale>  0 0.14969895E+04</rscale>
<asrwt>0</asrwt>
<pdfrwt beam="1">  1        1 0.19349337E+00 0.14969895E+04</pdfrwt>
<pdfrwt beam="2">  1       -1 0.68530632E-01 0.14969895E+04</pdfrwt>
<totfact> 0.20229789E+01</totfact>
</mgrwt>
</event>
<event>
12    1  0.1598876E-007  0.1715053E+04  0.7818608E-02  0.8752825E-01
         -2   -1    0    0    0  501 -0.00000000000E+00  0.00000000000E+00  0.18904931912E+04  0.18904931912E+04  0.00000000000E+00 0.  1.
          2   -1    0    0  501    0  0.00000000000E+00 -0.00000000000E+00 -0.38897357886E+03  0.38897357886E+03  0.00000000000E+00 0. -1.
         23    2    1    2    0    0  0.41739141421E+03 -0.27812231752E+03  0.99900083078E+03  0.11216064483E+04  0.91819108786E+02 0.  0.
        254    2    1    2    0    0 -0.41739141421E+03  0.27812231752E+03  0.50251878152E+03  0.11578603218E+04  0.91462986107E+03 0.  0.
        -24    2    4    4    0    0 -0.31588160804E+03  0.60307940571E+03  0.26223843667E+03  0.73365377097E+03  0.77413810785E+02 0.  0.
         24    2    4    4    0    0 -0.10150980617E+03 -0.32495708819E+03  0.24028034486E+03  0.42420655079E+03  0.79468255943E+02 0.  0.
         11    1    3    3    0    0  0.44235957341E+02 -0.44158079841E-01  0.76509261937E+02  0.88376971174E+02  0.00000000000E+00 0. -1.
        -11    1    3    3    0    0  0.37315545687E+03 -0.27807815944E+03  0.92249156884E+03  0.10332294771E+04  0.00000000000E+00 0.  1.
          2    1    6    6  502    0 -0.47025149208E+02 -0.76447242623E+02  0.31584965972E+02  0.95148072173E+02  0.00000000000E+00 0. -1.
          3    1    5    5  503    0 -0.92185339019E+02  0.19168350636E+03  0.44856160951E+02  0.21737704230E+03  0.00000000000E+00 0. -1.
         -4    1    5    5    0  503 -0.22369626902E+03  0.41139589934E+03  0.21738227572E+03  0.51627672867E+03  0.00000000000E+00 0.  1.
         -3    1    6    6    0  502 -0.54484656961E+02 -0.24850984556E+03  0.20869537888E+03  0.32905847862E+03  0.00000000000E+00 0.  1.
<mgrwt>
<rscale>  0 0.17150532E+04</rscale>
<asrwt>0</asrwt>
<pdfrwt beam="1">  1        2 0.59842090E-01 0.17150532E+04</pdfrwt>
<pdfrwt beam="2">  1       -2 0.29084510E+00 0.17150532E+04</pdfrwt>
<totfact> 0.28251363E+00</totfact>
</mgrwt>
</event>
<event>
12    1  0.1598876E-007  0.1699939E+04  0.7818608E-02  0.8761399E-01
         -2   -1    0    0    0  501 -0.00000000000E+00  0.00000000000E+00  0.42696155410E+03  0.42696155410E+03  0.00000000000E+00 0.  1.
          2   -1    0    0  501    0  0.00000000000E+00 -0.00000000000E+00 -0.16920681545E+04  0.16920681545E+04  0.00000000000E+00 0. -1.
         23    2    1    2    0    0 -0.20744257283E+02  0.48650056257E+02  0.30286405249E+03  0.32154079842E+03  0.94152528219E+02 0.  0.
        254    2    1    2    0    0  0.20744257283E+02 -0.48650056257E+02 -0.15679706529E+04  0.17974889102E+04  0.87728972510E+03 0.  0.
        -24    2    4    4    0    0 -0.18911343612E+03  0.51737698186E+02 -0.15356304798E+04  0.15502374157E+04  0.81451785628E+02 0.  0.
         24    2    4    4    0    0  0.20985769341E+03 -0.10038775444E+03 -0.32340173141E+02  0.24725149455E+03  0.77262293737E+02 0.  0.
         13    1    3    3    0    0  0.14700030633E+02 -0.37437184388E+01  0.35016568318E+01  0.15568170378E+02  0.00000000000E+00 0. -1.
        -13    1    3    3    0    0 -0.35444287916E+02  0.52393774696E+02  0.29936239566E+03  0.30597262804E+03  0.00000000000E+00 0.  1.
          2    1    6    6  502    0  0.82054173998E+01 -0.18697541458E+02 -0.21142928165E+02  0.29393032212E+02  0.00000000000E+00 0. -1.
          3    1    5    5  503    0 -0.59950480236E+02  0.50500851697E+02 -0.42989816086E+03  0.43698606935E+03  0.00000000000E+00 0. -1.
         -2    1    5    5    0  503 -0.12916295589E+03  0.12368464890E+01 -0.11057323189E+04  0.11132513463E+04  0.00000000000E+00 0.  1.
         -1    1    6    6    0  502  0.20165227601E+03 -0.81690212986E+02 -0.11197244976E+02  0.21785846234E+03  0.00000000000E+00 0.  1.
<mgrwt>
<rscale>  0 0.16999389E+04</rscale>
<asrwt>0</asrwt>
<pdfrwt beam="1">  1        2 0.26031818E+00 0.16999389E+04</pdfrwt>
<pdfrwt beam="2">  1       -2 0.65686393E-01 0.16999389E+04</pdfrwt>
<totfact> 0.20118125E+01</totfact>
</mgrwt>
</event>
<event>
12    1  0.1598876E-007  0.1707145E+04  0.7818608E-02  0.8757300E-01
         -2   -1    0    0    0  501 -0.00000000000E+00  0.00000000000E+00  0.48929878225E+03  0.48929878225E+03  0.00000000000E+00 0.  1.
          2   -1    0    0  501    0  0.00000000000E+00 -0.00000000000E+00 -0.14890404774E+04  0.14890404774E+04  0.00000000000E+00 0. -1.
         23    2    1    2    0    0  0.41807330646E+03 -0.29398576810E+02 -0.89238986281E+03  0.98996072246E+03  0.89515355501E+02 0.  0.
        254    2    1    2    0    0 -0.41807330646E+03  0.29398576810E+02 -0.10735183230E+03  0.98837853715E+03  0.88866087509E+03 0.  0.
        -24    2    4    4    0    0 -0.34145602196E+03 -0.36183153698E+03  0.12805918394E+03  0.51947106231E+03  0.77050333534E+02 0.  0.
         24    2    4    4    0    0 -0.76617284504E+02  0.39123011379E+03 -0.23541101624E+03  0.46890747484E+03  0.74328077965E+02 0.  0.
         13    1    3    3    0    0  0.38384108863E+03 -0.16911040085E+02 -0.85690494049E+03  0.93909852605E+03  0.00000000000E+00 0. -1.
        -13    1    3    3    0    0  0.34232217830E+02 -0.12487536726E+02 -0.35484922315E+02  0.50862196401E+02  0.00000000000E+00 0.  1.
          4    1    6    6  502    0 -0.13421901173E+02  0.34122709844E+02 -0.48844492453E+02  0.61076109906E+02  0.00000000000E+00 0. -1.
          1    1    5    5  503    0 -0.71413787780E+02 -0.11941719120E+03  0.18251627458E+02  0.14033359022E+03  0.00000000000E+00 0. -1.
         -2    1    5    5    0  503 -0.27004223418E+03 -0.24241434578E+03  0.10980755648E+03  0.37913747209E+03  0.00000000000E+00 0.  1.
         -3    1    6    6    0  502 -0.63195383331E+02  0.35710740395E+03 -0.18656652379E+03  0.40783136494E+03  0.00000000000E+00 0.  1.
<mgrwt>
<rscale>  0 0.17071446E+04</rscale>
<asrwt>0</asrwt>
<pdfrwt beam="1">  1        2 0.22908314E+00 0.17071446E+04</pdfrwt>
<pdfrwt beam="2">  1       -2 0.75276738E-01 0.17071446E+04</pdfrwt>
<totfact> 0.19393980E+01</totfact>
</mgrwt>
</event>
<event>
12    1  0.1598876E-007  0.2336535E+04  0.7818608E-02  0.8463654E-01
         -2   -1    0    0    0  501 -0.00000000000E+00  0.00000000000E+00  0.10860403193E+04  0.10860403193E+04  0.00000000000E+00 0.  1.
          2   -1    0    0  501    0  0.00000000000E+00 -0.00000000000E+00 -0.12567201320E+04  0.12567201320E+04  0.00000000000E+00 0. -1.
         23    2    1    2    0    0 -0.55555259951E+03  0.33154245512E+03 -0.82753720538E+03  0.10543503400E+04  0.90981991466E+02 0.  0.
        254    2    1    2    0    0  0.55555259951E+03 -0.33154245512E+03  0.65685739264E+03  0.12884101113E+04  0.89998882789E+03 0.  0.
        -24    2    4    4    0    0  0.42623835812E+03 -0.37990296444E+03 -0.36551931268E+02  0.57696268158E+03  0.74461345180E+02 0.  0.
         24    2    4    4    0    0  0.12931424139E+03  0.48360509325E+02  0.69340932390E+03  0.71144742975E+03  0.79246721866E+02 0.  0.
         13    1    3    3    0    0 -0.51566755558E+02  0.52664464237E+02 -0.13286585316E+03  0.15194081416E+03  0.00000000000E+00 0.  1.
        -13    1    3    3    0    0 -0.50398584395E+03  0.27887799088E+03 -0.69467135222E+03  0.90240952582E+03  0.00000000000E+00 0. -1.
          2    1    6    6  502    0  0.12577608254E+03  0.19460659622E+02  0.50443020930E+03  0.52023857630E+03  0.00000000000E+00 0. -1.
          3    1    5    5  503    0  0.22644261665E+03 -0.21722257817E+03 -0.55340525130E+02  0.31862906463E+03  0.00000000000E+00 0. -1.
         -4    1    5    5    0  503  0.19979574147E+03 -0.16268038627E+03  0.18788593862E+02  0.25833361695E+03  0.00000000000E+00 0.  1.
         -1    1    6    6    0  502  0.35381588470E+01  0.28899849703E+02  0.18897911460E+03  0.19120885345E+03  0.00000000000E+00 0.  1.
<mgrwt>
<rscale>  0 0.23365348E+04</rscale>
<asrwt>0</asrwt>
<pdfrwt beam="1">  1        2 0.19334156E+00 0.23365348E+04</pdfrwt>
<pdfrwt beam="2">  1       -2 0.16708313E+00 0.23365348E+04</pdfrwt>
<totfact> 0.35431900E+00</totfact>
</mgrwt>
</event>
<event>
12    1  0.1598876E-007  0.1485894E+04  0.7818608E-02  0.8893888E-01
          2   -1    0    0  501    0  0.00000000000E+00  0.00000000000E+00  0.11789718452E+04  0.11789718452E+04  0.00000000000E+00 0. -1.
         -2   -1    0    0    0  501 -0.00000000000E+00 -0.00000000000E+00 -0.46817915454E+03  0.46817915454E+03  0.00000000000E+00 0.  1.
         23    2    1    2    0    0  0.40422179948E+03 -0.17694775419E+03  0.67776988380E+02  0.45549611021E+03  0.90427956844E+02 0.  0.
        254    2    1    2    0    0 -0.40422179948E+03  0.17694775419E+03  0.64301570225E+03  0.11916548895E+04  0.90103629863E+03 0.  0.
        -24    2    4    4    0    0  0.37044758257E+02  0.73009903748E+02  0.71634336270E+03  0.72483313404E+03  0.74380768736E+02 0.  0.
         24    2    4    4    0    0 -0.44126655774E+03  0.10393785044E+03 -0.73327660442E+02  0.46682175547E+03  0.83823349139E+02 0.  0.
         13    1    3    3    0    0  0.36197129734E+03 -0.15122815945E+03  0.30341715584E+02  0.39346384334E+03  0.00000000000E+00 0.  1.
        -13    1    3    3    0    0  0.42250502139E+02 -0.25719594741E+02  0.37435272796E+02  0.62032266877E+02  0.00000000000E+00 0. -1.
          2    1    6    6  502    0 -0.24402679614E+03  0.94966352945E+02 -0.61762905585E+02  0.26903966610E+03  0.00000000000E+00 0. -1.
          1    1    5    5  503    0  0.28913732004E+02  0.86139424320E+02  0.66613414856E+03  0.67230254216E+03  0.00000000000E+00 0. -1.
         -2    1    5    5    0  503  0.81310262529E+01 -0.13129520572E+02  0.50209214134E+02  0.52530591872E+02  0.00000000000E+00 0.  1.
         -1    1    6    6    0  502 -0.19723976159E+03  0.89714974971E+01 -0.11564754857E+02  0.19778208937E+03  0.00000000000E+00 0.  1.
<mgrwt>
<rscale>  0 0.14858937E+04</rscale>
<asrwt>0</asrwt>
<pdfrwt beam="1">  1        2 0.18138028E+00 0.14858937E+04</pdfrwt>
<pdfrwt beam="2">  1       -2 0.72027562E-01 0.14858937E+04</pdfrwt>
<totfact> 0.32934804E+01</totfact>
</mgrwt>
</event>
<event>
12    1  0.1598876E-007  0.1168341E+04  0.7818608E-02  0.9141028E-01
          1   -1    0    0  501    0  0.00000000000E+00  0.00000000000E+00  0.60789311680E+03  0.60789311680E+03  0.00000000000E+00 0. -1.
         -1   -1    0    0    0  501 -0.00000000000E+00 -0.00000000000E+00 -0.56137322068E+03  0.56137322068E+03  0.00000000000E+00 0.  1.
         23    2    1    2    0    0  0.21243922159E+03 -0.58031925744E+02 -0.51226490074E+02  0.24373976829E+03  0.91031830068E+02 0.  0.
        254    2    1    2    0    0 -0.21243922159E+03  0.58031925744E+02  0.97746386189E+02  0.92552656919E+03  0.89361454050E+03 0.  0.
        -24    2    4    4    0    0 -0.35800447655E+03  0.27058690279E+03 -0.22128769503E+03  0.50748488788E+03  0.84783195676E+02 0.  0.
         24    2    4    4    0    0  0.14556525496E+03 -0.21255497704E+03  0.31903408122E+03  0.41804168131E+03  0.81284934731E+02 0.  0.
         13    1    3    3    0    0  0.21483117010E+03 -0.55130851266E+02 -0.31928292178E+02  0.22407868763E+03  0.00000000000E+00 0.  1.
        -13    1    3    3    0    0 -0.23919485095E+01 -0.29010744776E+01 -0.19298197895E+02  0.19661080662E+02  0.00000000000E+00 0. -1.
          4    1    6    6  502    0  0.32065466561E+01  0.52861893370E+01  0.23333094491E+02  0.24138331295E+02  0.00000000000E+00 0. -1.
          3    1    5    5  503    0  0.28036217585E+01  0.13141126570E+02 -0.56846666390E+01  0.14589891613E+02  0.00000000000E+00 0. -1.
         -4    1    5    5    0  503 -0.36080809831E+03  0.25744577622E+03 -0.21560302839E+03  0.49289499627E+03  0.00000000000E+00 0.  1.
         -3    1    6    6    0  502  0.14235870831E+03 -0.21784116638E+03  0.29570098673E+03  0.39390335001E+03  0.00000000000E+00 0.  1.
<mgrwt>
<rscale>  0 0.11683406E+04</rscale>
<asrwt>0</asrwt>
<pdfrwt beam="1">  1        1 0.93522019E-01 0.11683406E+04</pdfrwt>
<pdfrwt beam="2">  1       -1 0.86365110E-01 0.11683406E+04</pdfrwt>
<totfact> 0.44105583E+01</totfact>
</mgrwt>
</event>
<event>
12    1  0.1598876E-007  0.1232818E+04  0.7818608E-02  0.9084606E-01
         -2   -1    0    0    0  501 -0.00000000000E+00  0.00000000000E+00  0.32271986897E+03  0.32271986897E+03  0.00000000000E+00 0.  1.
          2   -1    0    0  501    0  0.00000000000E+00 -0.00000000000E+00 -0.11773678700E+04  0.11773678700E+04  0.00000000000E+00 0. -1.
         23    2    1    2    0    0  0.24278208097E+03  0.47865132586E+02 -0.54610601352E+02  0.27276025457E+03  0.10090405806E+03 0.  0.
        254    2    1    2    0    0 -0.24278208097E+03 -0.47865132586E+02 -0.80003739970E+03  0.12273274844E+04  0.89723949051E+03 0.  0.
        -24    2    4    4    0    0 -0.36199843670E+03 -0.18568886785E+03 -0.12466404585E+02  0.41490748136E+03  0.80433718230E+02 0.  0.
         24    2    4    4    0    0  0.11921635573E+03  0.13782373527E+03 -0.78757099511E+03  0.81242000305E+03  0.80933723130E+02 0.  0.
         11    1    3    3    0    0  0.19781542056E+03  0.13801732007E+02 -0.76095001771E+02  0.21239556895E+03  0.00000000000E+00 0.  1.
        -11    1    3    3    0    0  0.44966660418E+02  0.34063400579E+02  0.21484400419E+02  0.60364685616E+02  0.00000000000E+00 0. -1.
          2    1    6    6  502    0  0.44488866608E+02  0.10336755154E+03 -0.36667172348E+03  0.38355216434E+03  0.00000000000E+00 0. -1.
          3    1    5    5  503    0 -0.30955852307E+03 -0.17974345807E+03 -0.30204535571E+02  0.35923043286E+03  0.00000000000E+00 0. -1.
         -4    1    5    5    0  503 -0.52439913631E+02 -0.59454097881E+01  0.17738130987E+02  0.55677048503E+02  0.00000000000E+00 0.  1.
         -1    1    6    6    0  502  0.74727489121E+02  0.34456183724E+02 -0.42089927163E+03  0.42886783872E+03  0.00000000000E+00 0.  1.
<mgrwt>
<rscale>  0 0.12328179E+04</rscale>
<asrwt>0</asrwt>
<pdfrwt beam="1">  1        2 0.18113352E+00 0.12328179E+04</pdfrwt>
<pdfrwt beam="2">  1       -2 0.49649210E-01 0.12328179E+04</pdfrwt>
<totfact> 0.73852740E+01</totfact>
</mgrwt>
</event>
<event>
12    1  0.1598876E-007  0.1416670E+04  0.7818608E-02  0.8941839E-01
         -1   -1    0    0    0  501 -0.00000000000E+00  0.00000000000E+00  0.59071105883E+03  0.59071105883E+03  0.00000000000E+00 0.  1.
          1   -1    0    0  501    0  0.00000000000E+00 -0.00000000000E+00 -0.84938074406E+03  0.84938074406E+03  0.00000000000E+00 0. -1.
         23    2    1    2    0    0  0.12637175243E+02 -0.28825469470E+03  0.20512001127E+03  0.36564620595E+03  0.91501156760E+02 0.  0.
        254    2    1    2    0    0 -0.12637175243E+02  0.28825469470E+03 -0.46378969649E+03  0.10744455969E+04  0.92524698919E+03 0.  0.
        -24    2    4    4    0    0  0.11308159524E+03 -0.16693718567E+03  0.17301681166E+03  0.27751808044E+03  0.80162314791E+02 0.  0.
         24    2    4    4    0    0 -0.12571877048E+03  0.45519188037E+03 -0.63680650815E+03  0.79692751650E+03  0.81031355241E+02 0.  0.
         13    1    3    3    0    0  0.13919788370E+02 -0.29232143954E+03  0.18761114726E+03  0.34762555588E+03  0.00000000000E+00 0.  1.
        -13    1    3    3    0    0 -0.12826131268E+01  0.40667448432E+01  0.17508864010E+02  0.18020650071E+02  0.00000000000E+00 0. -1.
          2    1    6    6  502    0 -0.11473077377E+03  0.29019718592E+03 -0.44766451191E+03  0.54569320354E+03  0.00000000000E+00 0. -1.
          3    1    5    5  503    0  0.11362549662E+03 -0.10523694790E+03  0.13125883501E+03  0.20301342432E+03  0.00000000000E+00 0. -1.
         -4    1    5    5    0  503 -0.54390138049E+00 -0.61700237776E+02  0.41757976645E+02  0.74504656122E+02  0.00000000000E+00 0.  1.
         -1    1    6    6    0  502 -0.10987996705E+02  0.16499469445E+03 -0.18914199624E+03  0.25123431296E+03  0.00000000000E+00 0.  1.
<mgrwt>
<rscale>  0 0.14166702E+04</rscale>
<asrwt>0</asrwt>
<pdfrwt beam="1">  1        1 0.13067396E+00 0.14166702E+04</pdfrwt>
<pdfrwt beam="2">  1       -1 0.90878624E-01 0.14166702E+04</pdfrwt>
<totfact> 0.23093570E+01</totfact>
</mgrwt>
</event>
<event>
12    1  0.1598876E-007  0.1206242E+04  0.7818608E-02  0.9107410E-01
         -1   -1    0    0    0  501 -0.00000000000E+00  0.00000000000E+00  0.89836844226E+03  0.89836844226E+03  0.00000000000E+00 0.  1.
          1   -1    0    0  501    0  0.00000000000E+00 -0.00000000000E+00 -0.40490633517E+03  0.40490633517E+03  0.00000000000E+00 0. -1.
         23    2    1    2    0    0 -0.18618366467E+03 -0.21570446770E+03  0.10679264585E+03  0.31767406244E+03  0.91210560583E+02 0.  0.
        254    2    1    2    0    0  0.18618366467E+03  0.21570446770E+03  0.38666946124E+03  0.98560071499E+03  0.86064087909E+03 0.  0.
        -24    2    4    4    0    0  0.42855819089E+03  0.34130482763E+03  0.42539797964E+03  0.69815267682E+03  0.79388983647E+02 0.  0.
         24    2    4    4    0    0 -0.24237452622E+03 -0.12560035992E+03 -0.38728518407E+02  0.28744803817E+03  0.81274935457E+02 0.  0.
         13    1    3    3    0    0 -0.15528913172E+03 -0.21826692721E+03  0.10006858729E+03  0.28595259766E+03  0.00000000000E+00 0. -1.
        -13    1    3    3    0    0 -0.30894532941E+02  0.25624595035E+01  0.67240585676E+01  0.31721464783E+02  0.00000000000E+00 0.  1.
          2    1    6    6  502    0 -0.50759895291E+02 -0.18362689349E+02  0.24011831795E+02  0.59078958998E+02  0.00000000000E+00 0. -1.
          3    1    5    5  503    0  0.22102680479E+03  0.18550414793E+03  0.17463991678E+03  0.33728880484E+03  0.00000000000E+00 0. -1.
         -4    1    5    5    0  503  0.20753138610E+03  0.15580067970E+03  0.25075806287E+03  0.36086387198E+03  0.00000000000E+00 0.  1.
         -1    1    6    6    0  502 -0.19161463093E+03 -0.10723767058E+03 -0.62740350202E+02  0.22836907917E+03  0.00000000000E+00 0.  1.
<mgrwt>
<rscale>  0 0.12062422E+04</rscale>
<asrwt>0</asrwt>
<pdfrwt beam="1">  1        1 0.62293283E-01 0.12062422E+04</pdfrwt>
<pdfrwt beam="2">  1       -1 0.13821053E+00 0.12062422E+04</pdfrwt>
<totfact> 0.25317707E+01</totfact>
</mgrwt>
</event>
<event>
12    1  0.1598876E-007  0.1209076E+04  0.7818608E-02  0.9104949E-01
          3   -1    0    0  501    0  0.00000000000E+00  0.00000000000E+00  0.12464700328E+04  0.12464700328E+04  0.00000000000E+00 0. -1.
         -3   -1    0    0    0  501 -0.00000000000E+00 -0.00000000000E+00 -0.29320110553E+03  0.29320110553E+03  0.00000000000E+00 0.  1.
         23    2    1    2    0    0 -0.11336821833E+02 -0.26070568312E+03  0.24154746602E+03  0.36737029101E+03  0.92302630702E+02 0.  0.
        254    2    1    2    0    0  0.11336821833E+02  0.26070568312E+03  0.71172146120E+03  0.11723008473E+04  0.89422919962E+03 0.  0.
        -24    2    4    4    0    0  0.41267319990E+02 -0.32344410150E+03  0.19879935158E+03  0.39013128873E+03  0.79763160441E+02 0.  0.
         24    2    4    4    0    0 -0.29930498157E+02  0.58414978461E+03  0.51292210963E+03  0.78216955855E+03  0.81076027304E+02 0.  0.
         11    1    3    3    0    0 -0.34736895405E+02 -0.21461487880E+03  0.15661567550E+03  0.26794527038E+03  0.00000000000E+00 0. -1.
        -11    1    3    3    0    0  0.23400073572E+02 -0.46090804313E+02  0.84931790527E+02  0.99425020631E+02  0.00000000000E+00 0.  1.
          2    1    6    6  502    0  0.80354959910E+01  0.12429910001E+03  0.15101596250E+03  0.19575662540E+03  0.00000000000E+00 0. -1.
          3    1    5    5  503    0 -0.16301286579E+02 -0.19563531670E+02  0.78422185499E+01  0.26645151666E+02  0.00000000000E+00 0. -1.
         -4    1    5    5    0  503  0.57568606570E+02 -0.30388056983E+03  0.19095713303E+03  0.36348613706E+03  0.00000000000E+00 0.  1.
         -1    1    6    6    0  502 -0.37965994148E+02  0.45985068460E+03  0.36190614713E+03  0.58641293315E+03  0.00000000000E+00 0.  1.
<mgrwt>
<rscale>  0 0.12090763E+04</rscale>
<asrwt>0</asrwt>
<pdfrwt beam="1">  1        3 0.19176462E+00 0.12090763E+04</pdfrwt>
<pdfrwt beam="2">  1       -3 0.45107863E-01 0.12090763E+04</pdfrwt>
<totfact> 0.21040290E+00</totfact>
</mgrwt>
</event>
<event>
12    1  0.1598876E-007  0.3408717E+04  0.7818608E-02  0.8135770E-01
          2   -1    0    0  501    0  0.00000000000E+00  0.00000000000E+00  0.15994559157E+04  0.15994559157E+04  0.00000000000E+00 0.  1.
         -2   -1    0    0    0  501 -0.00000000000E+00 -0.00000000000E+00 -0.18161407967E+04  0.18161407967E+04  0.00000000000E+00 0. -1.
         23    2    1    2    0    0  0.46748476900E+03  0.10404642563E+04  0.10005123430E+04  0.15200754716E+04  0.92177074617E+02 0.  0.
        254    2    1    2    0    0 -0.46748476900E+03 -0.10404642563E+04 -0.12171972240E+04  0.18955212408E+04  0.90017987900E+03 0.  0.
        -24    2    4    4    0    0 -0.46941854956E+03 -0.55969547010E+03 -0.12009484127E+04  0.14079097814E+04  0.79498859317E+02 0.  0.
         24    2    4    4    0    0  0.19337805641E+01 -0.48076878620E+03 -0.16248811213E+02  0.48761145941E+03  0.79740492789E+02 0.  0.
         11    1    3    3    0    0  0.33852111384E+03  0.70501003704E+03  0.63414974290E+03  0.10068672173E+04  0.00000000000E+00 0.  1.
        -11    1    3    3    0    0  0.12896365516E+03  0.33545421926E+03  0.36636260009E+03  0.51320825433E+03  0.00000000000E+00 0. -1.
          4    1    6    6  502    0  0.16231276746E+02 -0.44840677710E+03 -0.51634218637E-01  0.44870045104E+03  0.00000000000E+00 0. -1.
          1    1    5    5  503    0 -0.43781960717E+03 -0.48379130977E+03 -0.10735658080E+04  0.12562975698E+04  0.00000000000E+00 0. -1.
         -2    1    5    5    0  503 -0.31598942396E+02 -0.75904160330E+02 -0.12738260471E+03  0.15161221157E+03  0.00000000000E+00 0.  1.
         -3    1    6    6    0  502 -0.14297496182E+02 -0.32362009101E+02 -0.16197176995E+02  0.38911008374E+02  0.00000000000E+00 0.  1.
<mgrwt>
<rscale>  0 0.34087166E+04</rscale>
<asrwt>0</asrwt>
<pdfrwt beam="1">  1        2 0.24607014E+00 0.34087166E+04</pdfrwt>
<pdfrwt beam="2">  1       -2 0.27940628E+00 0.34087166E+04</pdfrwt>
<totfact> 0.39230682E-01</totfact>
</mgrwt>
</event>
<event>
12    1  0.1598876E-007  0.1539050E+04  0.7818608E-02  0.8858892E-01
          2   -1    0    0  501    0  0.00000000000E+00  0.00000000000E+00  0.32856878046E+03  0.32856878046E+03  0.00000000000E+00 0. -1.
         -2   -1    0    0    0  501 -0.00000000000E+00 -0.00000000000E+00 -0.18022682229E+04  0.18022682229E+04  0.00000000000E+00 0.  1.
         23    2    1    2    0    0  0.41903271915E+03  0.23837921650E+03 -0.65517639812E+03  0.81849274774E+03  0.90891115485E+02 0.  0.
        254    2    1    2    0    0 -0.41903271915E+03 -0.23837921650E+03 -0.81852304436E+03  0.13123442557E+04  0.90545811643E+03 0.  0.
        -24    2    4    4    0    0 -0.19131318795E+03 -0.56390786155E+02 -0.95657328069E+03  0.98040809023E+03  0.79918242136E+02 0.  0.
         24    2    4    4    0    0 -0.22771953120E+03 -0.18198843034E+03  0.13805023632E+03  0.33193616542E+03  0.78407757877E+02 0.  0.
         13    1    3    3    0    0  0.34730615301E+03  0.22755842599E+03 -0.58650884982E+03  0.71860770387E+03  0.00000000000E+00 0.  1.
        -13    1    3    3    0    0  0.71726566148E+02  0.10820790510E+02 -0.68667548302E+02  0.99885043868E+02  0.00000000000E+00 0. -1.
          2    1    6    6  502    0  0.51705528844E+01 -0.13155962321E+02  0.81382116944E+01  0.16310869115E+02  0.00000000000E+00 0. -1.
          1    1    5    5  503    0 -0.32284045867E+02 -0.41588982529E+02 -0.17807300584E+03  0.18569302220E+03  0.00000000000E+00 0. -1.
         -2    1    5    5    0  503 -0.15902914208E+03 -0.14801803626E+02 -0.77850027484E+03  0.79471506803E+03  0.00000000000E+00 0.  1.
         -1    1    6    6    0  502 -0.23289008409E+03 -0.16883246802E+03  0.12991202463E+03  0.31562529630E+03  0.00000000000E+00 0.  1.
<mgrwt>
<rscale>  0 0.15390505E+04</rscale>
<asrwt>0</asrwt>
<pdfrwt beam="1">  1        2 0.50549043E-01 0.15390505E+04</pdfrwt>
<pdfrwt beam="2">  1       -2 0.27727204E+00 0.15390505E+04</pdfrwt>
<totfact> 0.41891232E+00</totfact>
</mgrwt>
</event>
<event>
12    1  0.1598876E-007  0.3100233E+04  0.7818608E-02  0.8215674E-01
          4   -1    0    0  501    0  0.00000000000E+00  0.00000000000E+00  0.10162455468E+04  0.10162455468E+04  0.00000000000E+00 0. -1.
         -4   -1    0    0    0  501 -0.00000000000E+00 -0.00000000000E+00 -0.23644495444E+04  0.23644495444E+04  0.00000000000E+00 0.  1.
         23    2    1    2    0    0  0.13944439442E+04 -0.24996387384E+03 -0.82937008091E+03  0.16439314901E+04  0.87750562695E+02 0.  0.
        254    2    1    2    0    0 -0.13944439442E+04  0.24996387384E+03 -0.51883391669E+03  0.17367636012E+04  0.86035069691E+03 0.  0.
        -24    2    4    4    0    0 -0.11577238469E+04 -0.15539127052E+03 -0.45898421027E+03  0.12575795268E+04  0.79804814410E+02 0.  0.
         24    2    4    4    0    0 -0.23672009730E+03  0.40535514436E+03 -0.59849706418E+02  0.47918407439E+03  0.75406844946E+02 0.  0.
         13    1    3    3    0    0  0.60284234884E+03 -0.98341218904E+02 -0.40686310360E+03  0.73391244571E+03  0.00000000000E+00 0. -1.
        -13    1    3    3    0    0  0.79160159531E+03 -0.15162265493E+03 -0.42250697732E+03  0.91001904435E+03  0.00000000000E+00 0.  1.
          4    1    6    6  502    0 -0.18546556901E+02  0.42150648191E+02 -0.28883958686E+02  0.54359313693E+02  0.00000000000E+00 0. -1.
          1    1    5    5  503    0 -0.25950413363E+02 -0.15803952060E+02 -0.14505771335E+02  0.33669069730E+02  0.00000000000E+00 0. -1.
         -2    1    5    5    0  503 -0.11317734335E+04 -0.13958731846E+03 -0.44447843894E+03  0.12239104571E+04  0.00000000000E+00 0.  1.
         -1    1    6    6    0  502 -0.21817354040E+03  0.36320449617E+03 -0.30965747732E+02  0.42482476070E+03  0.00000000000E+00 0.  1.
<mgrwt>
<rscale>  0 0.31002331E+04</rscale>
<asrwt>0</asrwt>
<pdfrwt beam="1">  1        4 0.15634547E+00 0.31002331E+04</pdfrwt>
<pdfrwt beam="2">  1       -4 0.36376147E+00 0.31002331E+04</pdfrwt>
<totfact> 0.53946339E-03</totfact>
</mgrwt>
</event>
<event>
12    1  0.1724311E-007  0.2531029E+04  0.7818608E-02  0.8392014E-01
          1   -1    0    0  501    0  0.00000000000E+00  0.00000000000E+00  0.17959279084E+04  0.17959279084E+04  0.00000000000E+00 0. -1.
         -1   -1    0    0    0  501 -0.00000000000E+00 -0.00000000000E+00 -0.89175493206E+03  0.89175493206E+03  0.00000000000E+00 0.  1.
         23    2    1    2    0    0 -0.52344164104E+03  0.20552748496E+03 -0.58715410603E+03  0.81706373711E+03  0.81305028302E+02 0.  0.
        254    2    1    2    0    0  0.52344164104E+03 -0.20552748496E+03  0.14913270823E+04  0.18706191033E+04  0.97924800971E+03 0.  0.
        -24    2    4    4    0    0 -0.50548815287E+02 -0.46487755114E+03  0.81034652283E+03  0.93903070761E+03  0.80317261426E+02 0.  0.
         24    2    4    4    0    0  0.57399045633E+03  0.25935006618E+03  0.68098055951E+03  0.93158839572E+03  0.85993696381E+02 0.  0.
         13    1    3    3    0    0 -0.57388338969E+02  0.12819263449E+02 -0.31650607730E+02  0.66779607177E+02  0.00000000000E+00 0. -1.
        -13    1    3    3    0    0 -0.46605330207E+03  0.19270822151E+03 -0.55550349830E+03  0.75028412994E+03  0.00000000000E+00 0.  1.
          4    1    6    6  502    0 -0.15306357265E+01  0.25586595641E+00 -0.13883445467E+01  0.20822616779E+01  0.00000000000E+00 0. -1.
          1    1    5    5  503    0  0.98740554700E+01 -0.20106190283E+03  0.29851810958E+03  0.36005061796E+03  0.00000000000E+00 0. -1.
         -2    1    5    5    0  503 -0.60422870757E+02 -0.26381564830E+03  0.51182841325E+03  0.57898008965E+03  0.00000000000E+00 0.  1.
         -3    1    6    6    0  502  0.57552109206E+03  0.25909420022E+03  0.68236890406E+03  0.92950613404E+03  0.00000000000E+00 0.  1.
<mgrwt>
<rscale>  0 0.25310295E+04</rscale>
<asrwt>0</asrwt>
<pdfrwt beam="1">  1        1 0.27629660E+00 0.25310295E+04</pdfrwt>
<pdfrwt beam="2">  1       -1 0.13719307E+00 0.25310295E+04</pdfrwt>
<totfact> 0.16051989E+00</totfact>
</mgrwt>
</event>
<event>
12    1  0.1598876E-007  0.1525895E+04  0.7818608E-02  0.8867414E-01
          2   -1    0    0  501    0  0.00000000000E+00  0.00000000000E+00  0.11566681651E+04  0.11566681651E+04  0.00000000000E+00 0. -1.
         -2   -1    0    0    0  501 -0.00000000000E+00 -0.00000000000E+00 -0.50324601664E+03  0.50324601664E+03  0.00000000000E+00 0.  1.
         23    2    1    2    0    0  0.24978119281E+03  0.40693121490E+03  0.11196820280E+03  0.50494889906E+03  0.12022002450E+03 0.  0.
        254    2    1    2    0    0 -0.24978119281E+03 -0.40693121490E+03  0.54145394568E+03  0.11549652827E+04  0.90154798595E+03 0.  0.
        -24    2    4    4    0    0 -0.12895173840E+03 -0.36634367118E+03 -0.16741404992E+03  0.43031732703E+03  0.79431112129E+02 0.  0.
         24    2    4    4    0    0 -0.12082945441E+03 -0.40587543711E+02  0.70886799560E+03  0.72464795565E+03  0.79835572841E+02 0.  0.
         13    1    3    3    0    0  0.18625993562E+03  0.35330834511E+03  0.12973801442E+03  0.41994226118E+03  0.00000000000E+00 0.  1.
        -13    1    3    3    0    0  0.63521257191E+02  0.53622869791E+02 -0.17769811621E+02  0.85006637887E+02  0.00000000000E+00 0. -1.
          4    1    6    6  502    0 -0.82935769189E+02  0.47987553053E+01  0.52430407064E+03  0.53084473093E+03  0.00000000000E+00 0. -1.
          1    1    5    5  503    0 -0.12146877936E+03 -0.26773099336E+03 -0.14945034232E+03  0.32980290172E+03  0.00000000000E+00 0. -1.
         -2    1    5    5    0  503 -0.74829590432E+01 -0.98612677826E+02 -0.17963707606E+02  0.10051442531E+03  0.00000000000E+00 0.  1.
         -3    1    6    6    0  502 -0.37893685225E+02 -0.45386299016E+02  0.18456392496E+03  0.19380322472E+03  0.00000000000E+00 0.  1.
<mgrwt>
<rscale>  0 0.15258947E+04</rscale>
<asrwt>0</asrwt>
<pdfrwt beam="1">  1        2 0.17794895E+00 0.15258947E+04</pdfrwt>
<pdfrwt beam="2">  1       -2 0.77422464E-01 0.15258947E+04</pdfrwt>
<totfact> 0.28859552E+01</totfact>
</mgrwt>
</event>
<event>
12    1  0.1598876E-007  0.2239821E+04  0.7818608E-02  0.8502034E-01
          1   -1    0    0  501    0  0.00000000000E+00  0.00000000000E+00  0.32144819623E+04  0.32144819623E+04  0.00000000000E+00 0. -1.
         -1   -1    0    0    0  501 -0.00000000000E+00 -0.00000000000E+00 -0.39017148532E+03  0.39017148532E+03  0.00000000000E+00 0.  1.
         23    2    1    2    0    0  0.75636028018E+03  0.94797852492E+02  0.20914199690E+04  0.22278732611E+04  0.91182643268E+02 0.  0.
        254    2    1    2    0    0 -0.75636028018E+03 -0.94797852492E+02  0.73289050802E+03  0.13767801866E+04  0.88166188482E+03 0.  0.
        -24    2    4    4    0    0 -0.18391336094E+03 -0.30833020677E+03  0.66148745526E+03  0.75664735810E+03  0.77832707176E+02 0.  0.
         24    2    4    4    0    0 -0.57244691924E+03  0.21353235427E+03  0.71403052758E+02  0.62013282849E+03  0.78579815164E+02 0.  0.
         13    1    3    3    0    0  0.38705035529E+03  0.78928199908E+01  0.99439054321E+03  0.10670908240E+04  0.00000000000E+00 0.  1.
        -13    1    3    3    0    0  0.36930992490E+03  0.86905032501E+02  0.10970294258E+04  0.11607824371E+04  0.00000000000E+00 0. -1.
          2    1    6    6  502    0 -0.44299314651E+02  0.13270912811E+02 -0.15229298495E+02  0.48687554241E+02  0.00000000000E+00 0. -1.
          3    1    5    5  503    0 -0.70876245753E+02 -0.58350163411E+02  0.19345132499E+03  0.21412986462E+03  0.00000000000E+00 0. -1.
         -4    1    5    5    0  503 -0.11303711519E+03 -0.24998004336E+03  0.46803613028E+03  0.54251749348E+03  0.00000000000E+00 0.  1.
         -1    1    6    6    0  502 -0.52814760459E+03  0.20026144146E+03  0.86632351254E+02  0.57144527425E+03  0.00000000000E+00 0.  1.
<mgrwt>
<rscale>  0 0.22398207E+04</rscale>
<asrwt>0</asrwt>
<pdfrwt beam="1">  1        1 0.49453567E+00 0.22398207E+04</pdfrwt>
<pdfrwt beam="2">  1       -1 0.60026384E-01 0.22398207E+04</pdfrwt>
<totfact> 0.10613802E+00</totfact>
</mgrwt>
</event>
<event>
12    1  0.1598876E-007  0.2474095E+04  0.7818608E-02  0.8412273E-01
          1   -1    0    0  501    0  0.00000000000E+00  0.00000000000E+00  0.77735896396E+03  0.77735896396E+03  0.00000000000E+00 0. -1.
         -1   -1    0    0    0  501 -0.00000000000E+00 -0.00000000000E+00 -0.19685719389E+04  0.19685719389E+04  0.00000000000E+00 0.  1.
         23    2    1    2    0    0 -0.24622452321E+02  0.78070240773E+03 -0.13310526494E+04  0.15459168972E+04  0.89751785334E+02 0.  0.
        254    2    1    2    0    0  0.24622452321E+02 -0.78070240773E+03  0.13983967453E+03  0.12000140056E+04  0.90020884492E+03 0.  0.
        -24    2    4    4    0    0 -0.13797831098E+03 -0.93896230670E+03  0.10258259179E+03  0.95786355381E+03  0.79316907768E+02 0.  0.
         24    2    4    4    0    0  0.16260076330E+03  0.15825989897E+03  0.37257082737E+02  0.24215045179E+03  0.75918029753E+02 0.  0.
         11    1    3    3    0    0 -0.22799643791E+02  0.75544527564E+03 -0.13123948614E+04  0.15144628290E+04  0.00000000000E+00 0.  1.
        -11    1    3    3    0    0 -0.18228085308E+01  0.25257132088E+02 -0.18657788016E+02  0.31454068194E+02  0.00000000000E+00 0. -1.
          4    1    6    6  502    0  0.10542969351E+03  0.14170725819E+03  0.10623605633E+02  0.17694413891E+03  0.00000000000E+00 0. -1.
          3    1    5    5  503    0 -0.81018078247E+02 -0.52857426672E+03  0.97182081843E+02  0.54350624786E+03  0.00000000000E+00 0. -1.
         -4    1    5    5    0  503 -0.56960232731E+02 -0.41038803999E+03  0.54005099500E+01  0.41435730594E+03  0.00000000000E+00 0.  1.
         -3    1    6    6    0  502  0.57171069789E+02  0.16552640785E+02  0.26633477104E+02  0.65206312887E+02  0.00000000000E+00 0.  1.
<mgrwt>
<rscale>  0 0.24740954E+04</rscale>
<asrwt>0</asrwt>
<pdfrwt beam="1">  1        1 0.11959369E+00 0.24740954E+04</pdfrwt>
<pdfrwt beam="2">  1       -1 0.30285722E+00 0.24740954E+04</pdfrwt>
<totfact> 0.65231976E-01</totfact>
</mgrwt>
</event>
<event>
12    1  0.1598876E-007  0.1248228E+04  0.7818608E-02  0.9071660E-01
          2   -1    0    0  501    0  0.00000000000E+00  0.00000000000E+00  0.14861632439E+04  0.14861632439E+04  0.00000000000E+00 0. -1.
         -2   -1    0    0    0  501 -0.00000000000E+00 -0.00000000000E+00 -0.26209646320E+03  0.26209646320E+03  0.00000000000E+00 0.  1.
         23    2    1    2    0    0  0.42870068244E+02  0.25202057626E+03  0.49153299681E+03  0.56088740399E+03  0.87394389967E+02 0.  0.
        254    2    1    2    0    0 -0.42870068244E+02 -0.25202057626E+03  0.73253378390E+03  0.11873723031E+04  0.89882981038E+03 0.  0.
        -24    2    4    4    0    0 -0.11839870481E+02 -0.52476870189E+03  0.72833055234E+03  0.90173503685E+03  0.84488521110E+02 0.  0.
         24    2    4    4    0    0 -0.31030197763E+02  0.27274812563E+03  0.42032315646E+01  0.28563726626E+03  0.78845212360E+02 0.  0.
         13    1    3    3    0    0  0.11835071764E+01  0.21065452378E+03  0.36595275991E+03  0.42225365784E+03  0.00000000000E+00 0. -1.
        -13    1    3    3    0    0  0.41686561068E+02  0.41366052475E+02  0.12558023690E+03  0.13863374615E+03  0.00000000000E+00 0.  1.
          4    1    6    6  502    0 -0.17334681417E+01  0.23141928319E+03  0.20724708772E+02  0.23235189497E+03  0.00000000000E+00 0. -1.
          1    1    5    5  503    0  0.21780087960E+02 -0.37338092695E+03  0.47308191800E+03  0.60307063432E+03  0.00000000000E+00 0. -1.
         -2    1    5    5    0  503 -0.33619958441E+02 -0.15138777493E+03  0.25524863434E+03  0.29866440253E+03  0.00000000000E+00 0.  1.
         -3    1    6    6    0  502 -0.29296729621E+02  0.41328842442E+02 -0.16521477208E+02  0.53285371288E+02  0.00000000000E+00 0.  1.
<mgrwt>
<rscale>  0 0.12482278E+04</rscale>
<asrwt>0</asrwt>
<pdfrwt beam="1">  1        2 0.22864050E+00 0.12482278E+04</pdfrwt>
<pdfrwt beam="2">  1       -2 0.40322534E-01 0.12482278E+04</pdfrwt>
<totfact> 0.73976660E+01</totfact>
</mgrwt>
</event>
<event>
12    1  0.1598876E-007  0.2198537E+04  0.7818608E-02  0.8519037E-01
         -2   -1    0    0    0  501 -0.00000000000E+00  0.00000000000E+00  0.10651959772E+04  0.10651959772E+04  0.00000000000E+00 0.  1.
          2   -1    0    0  501    0  0.00000000000E+00 -0.00000000000E+00 -0.11344312506E+04  0.11344312506E+04  0.00000000000E+00 0. -1.
         23    2    1    2    0    0 -0.62597590593E+03  0.50834337970E+03 -0.45002751167E+03  0.92788849148E+03  0.90517759923E+02 0.  0.
        254    2    1    2    0    0  0.62597590593E+03 -0.50834337970E+03  0.38079223824E+03  0.12717387364E+04  0.90667406402E+03 0.  0.
        -24    2    4    4    0    0  0.71524039878E+03 -0.63051939022E+03  0.48315468074E+03  0.10719969059E+04  0.81335055574E+02 0.  0.
         24    2    4    4    0    0 -0.89264492847E+02  0.12217601052E+03 -0.10236244251E+03  0.19974183045E+03  0.80768818043E+02 0.  0.
         11    1    3    3    0    0 -0.48753432873E+02  0.53371681114E+02 -0.15024914561E+02  0.73832117804E+02  0.00000000000E+00 0. -1.
        -11    1    3    3    0    0 -0.57722247306E+03  0.45497169859E+03 -0.43500259711E+03  0.85405637368E+03  0.00000000000E+00 0.  1.
          4    1    6    6  502    0 -0.28291584044E+02  0.10096656733E+03 -0.47889541642E+02  0.11527388969E+03  0.00000000000E+00 0. -1.
          3    1    5    5  503    0  0.47871748178E+03 -0.37197675017E+03  0.31872088440E+03  0.68492344987E+03  0.00000000000E+00 0. -1.
         -2    1    5    5    0  503  0.23652291700E+03 -0.25854264006E+03  0.16443379634E+03  0.38707345604E+03  0.00000000000E+00 0.  1.
         -3    1    6    6    0  502 -0.60972908803E+02  0.21209443190E+02 -0.54472900864E+02  0.84467940764E+02  0.00000000000E+00 0.  1.
<mgrwt>
<rscale>  0 0.21985373E+04</rscale>
<asrwt>0</asrwt>
<pdfrwt beam="1">  1        2 0.17452788E+00 0.21985373E+04</pdfrwt>
<pdfrwt beam="2">  1       -2 0.16387630E+00 0.21985373E+04</pdfrwt>
<totfact> 0.44750532E+00</totfact>
</mgrwt>
</event>
<event>
12    1  0.1598876E-007  0.1739905E+04  0.7818608E-02  0.8738927E-01
         -2   -1    0    0    0  501 -0.00000000000E+00  0.00000000000E+00  0.33460066272E+03  0.33460066272E+03  0.00000000000E+00 0.  1.
          2   -1    0    0  501    0  0.00000000000E+00 -0.00000000000E+00 -0.22618525391E+04  0.22618525391E+04  0.00000000000E+00 0. -1.
         23    2    1    2    0    0  0.45509644206E+03  0.37892012414E+03 -0.10567820241E+04  0.12152250169E+04  0.96386530071E+02 0.  0.
        254    2    1    2    0    0 -0.45509644206E+03 -0.37892012414E+03 -0.87046985233E+03  0.13812281850E+04  0.89408070278E+03 0.  0.
        -24    2    4    4    0    0  0.13551144591E+03 -0.42591090179E+03 -0.24383403571E+03  0.51537539245E+03  0.79958176159E+02 0.  0.
         24    2    4    4    0    0 -0.59060788798E+03  0.46990777652E+02 -0.62663581662E+03  0.86585279252E+03  0.77477745973E+02 0.  0.
         11    1    3    3    0    0  0.32643852319E+03  0.32384598651E+03 -0.82366062819E+03  0.94332134654E+03  0.00000000000E+00 0. -1.
        -11    1    3    3    0    0  0.12865791888E+03  0.55074137623E+02 -0.23312139586E+03  0.27190367032E+03  0.00000000000E+00 0.  1.
          2    1    6    6  502    0 -0.43469608264E+03  0.47386429552E+02 -0.50570546313E+03  0.66853883463E+03  0.00000000000E+00 0. -1.
          3    1    5    5  503    0  0.11262510417E+03 -0.37658566831E+03 -0.18237602715E+03  0.43331535277E+03  0.00000000000E+00 0. -1.
         -4    1    5    5    0  503  0.22886341746E+02 -0.49325233476E+02 -0.61458008557E+02  0.82060039677E+02  0.00000000000E+00 0.  1.
         -1    1    6    6    0  502 -0.15591180533E+03 -0.39565189930E+00 -0.12093035349E+03  0.19731395789E+03  0.00000000000E+00 0.  1.
<mgrwt>
<rscale>  0 0.17399050E+04</rscale>
<asrwt>0</asrwt>
<pdfrwt beam="1">  1        2 0.34797732E+00 0.17399050E+04</pdfrwt>
<pdfrwt beam="2">  1       -2 0.51477024E-01 0.17399050E+04</pdfrwt>
<totfact> 0.16123725E+01</totfact>
</mgrwt>
</event>
<event>
12    1  0.1598876E-007  0.1025546E+04  0.7818608E-02  0.9280962E-01
          1   -1    0    0  501    0  0.00000000000E+00  0.00000000000E+00  0.60083951015E+03  0.60083951015E+03  0.00000000000E+00 0. -1.
         -1   -1    0    0    0  501 -0.00000000000E+00 -0.00000000000E+00 -0.43761460848E+03  0.43761460848E+03  0.00000000000E+00 0.  1.
         23    2    1    2    0    0  0.72143751881E+02 -0.10991042168E+02 -0.18514292764E+02  0.11868878859E+03  0.91753613322E+02 0.  0.
        254    2    1    2    0    0 -0.72143751881E+02  0.10991042168E+02  0.18173919444E+03  0.91976533004E+03  0.89867324629E+03 0.  0.
        -24    2    4    4    0    0  0.12572156406E+03  0.22407322261E+03 -0.26680177186E+03  0.37905887585E+03  0.80546416034E+02 0.  0.
         24    2    4    4    0    0 -0.19786531594E+03 -0.21308218044E+03  0.44854096630E+03  0.54070645418E+03  0.81361982984E+02 0.  0.
         11    1    3    3    0    0  0.24576781379E+02  0.40349788244E+02 -0.71925854693E+01  0.47789715212E+02  0.00000000000E+00 0. -1.
        -11    1    3    3    0    0  0.47566970502E+02 -0.51340830412E+02 -0.11321707295E+02  0.70899073380E+02  0.00000000000E+00 0.  1.
          2    1    6    6  502    0 -0.44006392832E+02 -0.78054725641E+02  0.85078933343E+02  0.12356183757E+03  0.00000000000E+00 0. -1.
          3    1    5    5  503    0  0.61313334277E+02  0.12917698361E+03 -0.92130526113E+02  0.17010012315E+03  0.00000000000E+00 0. -1.
         -4    1    5    5    0  503  0.64408229783E+02  0.94896239000E+02 -0.17467124575E+03  0.20895875270E+03  0.00000000000E+00 0.  1.
         -1    1    6    6    0  502 -0.15385892311E+03 -0.13502745480E+03  0.36346203295E+03  0.41714461661E+03  0.00000000000E+00 0.  1.
<mgrwt>
<rscale>  0 0.10255460E+04</rscale>
<asrwt>0</asrwt>
<pdfrwt beam="1">  1        1 0.92436848E-01 0.10255460E+04</pdfrwt>
<pdfrwt beam="2">  1       -1 0.67325324E-01 0.10255460E+04</pdfrwt>
<totfact> 0.76488974E+01</totfact>
</mgrwt>
</event>
<event>
12    1  0.1598876E-007  0.1991950E+04  0.7818608E-02  0.8610394E-01
         -1   -1    0    0    0  501 -0.00000000000E+00  0.00000000000E+00  0.10043084267E+04  0.10043084267E+04  0.00000000000E+00 0.  1.
          1   -1    0    0  501    0  0.00000000000E+00 -0.00000000000E+00 -0.98771046256E+03  0.98771046256E+03  0.00000000000E+00 0. -1.
         23    2    1    2    0    0 -0.31853868136E+03  0.67424963311E+03  0.26472137601E+03  0.79638606171E+03  0.89854844558E+02 0.  0.
        254    2    1    2    0    0  0.31853868136E+03 -0.67424963311E+03 -0.24812341186E+03  0.11956328276E+04  0.90105114813E+03 0.  0.
        -24    2    4    4    0    0  0.23912116398E+03 -0.85194323855E+03 -0.25329581839E+02  0.88901239654E+03  0.81946572282E+02 0.  0.
         24    2    4    4    0    0  0.79417517382E+02  0.17769360544E+03 -0.22279383002E+03  0.30662043101E+03  0.80602968545E+02 0.  0.
         11    1    3    3    0    0 -0.24065986312E+03  0.53872761468E+03  0.17177446856E+03  0.61453322171E+03  0.00000000000E+00 0. -1.
        -11    1    3    3    0    0 -0.77878818244E+02  0.13552201843E+03  0.92946907452E+02  0.18185284000E+03  0.00000000000E+00 0.  1.
          4    1    6    6  502    0  0.12656811755E+02  0.68267054978E+01 -0.58883796637E+02  0.60614357195E+02  0.00000000000E+00 0. -1.
          3    1    5    5  503    0  0.54041196886E+02 -0.21219307885E+03 -0.41344985560E+02  0.22283572762E+03  0.00000000000E+00 0. -1.
         -4    1    5    5    0  503  0.18507996709E+03 -0.63975015971E+03  0.16015403721E+02  0.66617666892E+03  0.00000000000E+00 0.  1.
         -3    1    6    6    0  502  0.66760705627E+02  0.17086689994E+03 -0.16391003338E+03  0.24600607382E+03  0.00000000000E+00 0.  1.
<mgrwt>
<rscale>  0 0.19919497E+04</rscale>
<asrwt>0</asrwt>
<pdfrwt beam="1">  1        1 0.15195546E+00 0.19919497E+04</pdfrwt>
<pdfrwt beam="2">  1       -1 0.15450899E+00 0.19919497E+04</pdfrwt>
<totfact> 0.46234351E+00</totfact>
</mgrwt>
</event>
<event>
12    1  0.1598876E-007  0.1576845E+04  0.7818608E-02  0.8834900E-01
         -1   -1    0    0    0  501 -0.00000000000E+00  0.00000000000E+00  0.66830619571E+03  0.66830619571E+03  0.00000000000E+00 0.  1.
          1   -1    0    0  501    0  0.00000000000E+00 -0.00000000000E+00 -0.93012789315E+03  0.93012789315E+03  0.00000000000E+00 0. -1.
         23    2    1    2    0    0 -0.15342640688E+03  0.24876593945E+03 -0.38219641417E+03  0.48928380007E+03  0.88884098983E+02 0.  0.
        254    2    1    2    0    0  0.15342640688E+03 -0.24876593945E+03  0.12037471672E+03  0.11091502888E+04  0.10631557439E+04 0.  0.
        -24    2    4    4    0    0  0.38765264622E+03  0.24043833498E+03 -0.16434492759E+03  0.49137867278E+03  0.79740690939E+02 0.  0.
         24    2    4    4    0    0 -0.23422623934E+03 -0.48920427442E+03  0.28471964432E+03  0.61777161601E+03  0.79960867813E+02 0.  0.
         11    1    3    3    0    0 -0.45616432423E+02  0.75429689501E+02 -0.55847247628E+02  0.10435234560E+03  0.00000000000E+00 0.  1.
        -11    1    3    3    0    0 -0.10780997446E+03  0.17333624994E+03 -0.32634916654E+03  0.38493145447E+03  0.00000000000E+00 0. -1.
          2    1    6    6  502    0 -0.30177575175E+01 -0.37341857881E+02  0.38161994506E+02  0.53477649865E+02  0.00000000000E+00 0. -1.
          1    1    5    5  503    0  0.89552652043E+01  0.18807673092E+02 -0.21480467448E+02  0.29922162753E+02  0.00000000000E+00 0. -1.
         -2    1    5    5    0  503  0.37869738101E+03  0.22163066188E+03 -0.14286446014E+03  0.46145651003E+03  0.00000000000E+00 0.  1.
         -1    1    6    6    0  502 -0.23120848182E+03 -0.45186241654E+03  0.24655764981E+03  0.56429396614E+03  0.00000000000E+00 0.  1.
<mgrwt>
<rscale>  0 0.15768452E+04</rscale>
<asrwt>0</asrwt>
<pdfrwt beam="1">  1        1 0.14309660E+00 0.15768452E+04</pdfrwt>
<pdfrwt beam="2">  1       -1 0.10281634E+00 0.15768452E+04</pdfrwt>
<totfact> 0.14783334E+01</totfact>
</mgrwt>
</event>
<event>
12    1  0.1598876E-007  0.2296749E+04  0.7818608E-02  0.8479204E-01
          3   -1    0    0  501    0  0.00000000000E+00  0.00000000000E+00  0.12417557992E+04  0.12417557992E+04  0.00000000000E+00 0. -1.
         -3   -1    0    0    0  501 -0.00000000000E+00 -0.00000000000E+00 -0.10620151606E+04  0.10620151606E+04  0.00000000000E+00 0.  1.
         23    2    1    2    0    0 -0.91275260151E+02 -0.69628123996E+03 -0.59358972873E+03  0.92418174296E+03  0.92867592515E+02 0.  0.
        254    2    1    2    0    0  0.91275260151E+02  0.69628123996E+03  0.77333036738E+03  0.13795892168E+04  0.90115914897E+03 0.  0.
        -24    2    4    4    0    0 -0.13531066592E+03 -0.19406660977E+02  0.57893564842E+03  0.60009368936E+03  0.79122412714E+02 0.  0.
         24    2    4    4    0    0  0.22658592607E+03  0.71568790093E+03  0.19439471896E+03  0.77949552744E+03  0.79206168344E+02 0.  0.
         11    1    3    3    0    0 -0.68227186125E+02 -0.44138807052E+03 -0.43282374370E+03  0.62194434705E+03  0.00000000000E+00 0.  1.
        -11    1    3    3    0    0 -0.23048074026E+02 -0.25489316944E+03 -0.16076598503E+03  0.30223739591E+03  0.00000000000E+00 0. -1.
          4    1    6    6  502    0  0.22809340280E+03  0.64821600112E+03  0.17181499565E+03  0.70832970942E+03  0.00000000000E+00 0. -1.
          3    1    5    5  503    0 -0.10207234399E+03  0.10346016825E+02  0.28736493954E+03  0.30513015575E+03  0.00000000000E+00 0. -1.
         -4    1    5    5    0  503 -0.33238321932E+02 -0.29752677802E+02  0.29157070888E+03  0.29496353361E+03  0.00000000000E+00 0.  1.
         -3    1    6    6    0  502 -0.15074767291E+01  0.67471899813E+02  0.22579723308E+02  0.71165818025E+02  0.00000000000E+00 0.  1.
<mgrwt>
<rscale>  0 0.22967486E+04</rscale>
<asrwt>0</asrwt>
<pdfrwt beam="1">  1        3 0.19103935E+00 0.22967486E+04</pdfrwt>
<pdfrwt beam="2">  1       -3 0.16338695E+00 0.22967486E+04</pdfrwt>
<totfact> 0.10230691E-01</totfact>
</mgrwt>
</event>
<event>
12    1  0.1598876E-007  0.1522455E+04  0.7818608E-02  0.8869657E-01
         -1   -1    0    0    0  501 -0.00000000000E+00  0.00000000000E+00  0.41979565250E+03  0.41979565250E+03  0.00000000000E+00 0.  1.
          1   -1    0    0  501    0  0.00000000000E+00 -0.00000000000E+00 -0.13803550426E+04  0.13803550426E+04  0.00000000000E+00 0. -1.
         23    2    1    2    0    0 -0.91928657021E+02  0.43831566273E+03 -0.79535988198E+02  0.46393074957E+03  0.91292216569E+02 0.  0.
        254    2    1    2    0    0  0.91928657021E+02 -0.43831566273E+03 -0.88102340192E+03  0.13362199455E+04  0.89928305331E+03 0.  0.
        -24    2    4    4    0    0 -0.22100045339E+03 -0.50551277857E+03 -0.83396890864E+03  0.10031583840E+04  0.80238601361E+02 0.  0.
         24    2    4    4    0    0  0.31292911041E+03  0.67197115842E+02 -0.47054493275E+02  0.33306156153E+03  0.79219933798E+02 0.  0.
         13    1    3    3    0    0  0.17558692851E+02  0.42796960973E+02 -0.14051253661E+02  0.48345892200E+02  0.00000000000E+00 0. -1.
        -13    1    3    3    0    0 -0.10948734987E+03  0.39551870176E+03 -0.65484734537E+02  0.41558485737E+03  0.00000000000E+00 0.  1.
          4    1    6    6  502    0  0.18559631046E+03  0.14947524327E+02  0.40579046213E+01  0.18624147102E+03  0.00000000000E+00 0. -1.
          3    1    5    5  503    0 -0.15599783773E+03 -0.25990360609E+03 -0.47067726382E+03  0.55984131369E+03  0.00000000000E+00 0. -1.
         -4    1    5    5    0  503 -0.65002615660E+02 -0.24560917248E+03 -0.36329164482E+03  0.44331707033E+03  0.00000000000E+00 0.  1.
         -3    1    6    6    0  502  0.12733279995E+03  0.52249591515E+02 -0.51112397897E+02  0.14682009050E+03  0.00000000000E+00 0.  1.
<mgrwt>
<rscale>  0 0.15224547E+04</rscale>
<asrwt>0</asrwt>
<pdfrwt beam="1">  1        1 0.21236231E+00 0.15224547E+04</pdfrwt>
<pdfrwt beam="2">  1       -1 0.64583948E-01 0.15224547E+04</pdfrwt>
<totfact> 0.18617311E+01</totfact>
</mgrwt>
</event>
<event>
12    1  0.1598876E-007  0.3507035E+04  0.7818608E-02  0.8112125E-01
         -1   -1    0    0    0  501 -0.00000000000E+00  0.00000000000E+00  0.14524211710E+04  0.14524211710E+04  0.00000000000E+00 0.  1.
          1   -1    0    0  501    0  0.00000000000E+00 -0.00000000000E+00 -0.21170327110E+04  0.21170327110E+04  0.00000000000E+00 0. -1.
         23    2    1    2    0    0 -0.30227692826E+03  0.11279673282E+04  0.85928726907E+03  0.14529301839E+04  0.94603772365E+02 0.  0.
        254    2    1    2    0    0  0.30227692826E+03 -0.11279673282E+04 -0.15238988091E+04  0.21165236981E+04  0.89091152728E+03 0.  0.
        -24    2    4    4    0    0 -0.13152821961E+02 -0.37811691645E+03 -0.11575533654E+04  0.12207658678E+04  0.84818105064E+02 0.  0.
         24    2    4    4    0    0  0.31542975022E+03 -0.74985041173E+03 -0.36634544371E+03  0.89575783034E+03  0.80009619322E+02 0.  0.
         11    1    3    3    0    0 -0.36455814486E+02  0.88096227025E+02  0.43570605780E+02  0.10482542303E+03  0.00000000000E+00 0. -1.
        -11    1    3    3    0    0 -0.26582111378E+03  0.10398711012E+04  0.81571666329E+03  0.13481047609E+04  0.00000000000E+00 0.  1.
          2    1    6    6  502    0  0.21024119805E+03 -0.47772429041E+03 -0.27552555677E+03  0.59020012829E+03  0.00000000000E+00 0. -1.
          1    1    5    5  503    0 -0.32258310410E+01 -0.29796085329E+03 -0.78724545527E+03  0.84175203173E+03  0.00000000000E+00 0. -1.
         -2    1    5    5    0  503 -0.99269909205E+01 -0.80156063167E+02 -0.37030791011E+03  0.37901383603E+03  0.00000000000E+00 0.  1.
         -1    1    6    6    0  502  0.10518855217E+03 -0.27212612132E+03 -0.90819886939E+02  0.30555770204E+03  0.00000000000E+00 0.  1.
<mgrwt>
<rscale>  0 0.35070347E+04</rscale>
<asrwt>0</asrwt>
<pdfrwt beam="1">  1        1 0.32569734E+00 0.35070347E+04</pdfrwt>
<pdfrwt beam="2">  1       -1 0.22344941E+00 0.35070347E+04</pdfrwt>
<totfact> 0.21114695E-01</totfact>
</mgrwt>
</event>
<event>
12    1  0.1598876E-007  0.1640651E+04  0.7818608E-02  0.8795956E-01
         -1   -1    0    0    0  501 -0.00000000000E+00  0.00000000000E+00  0.22485272727E+04  0.22485272727E+04  0.00000000000E+00 0. -1.
          1   -1    0    0  501    0  0.00000000000E+00 -0.00000000000E+00 -0.29927775087E+03  0.29927775087E+03  0.00000000000E+00 0.  1.
         23    2    1    2    0    0  0.45796830843E+03 -0.27067158755E+03  0.96537053367E+03  0.11060481152E+04  0.91673801796E+02 0.  0.
        254    2    1    2    0    0 -0.45796830843E+03  0.27067158755E+03  0.98387898818E+03  0.14417569084E+04  0.90975108673E+03 0.  0.
        -24    2    4    4    0    0 -0.26840450284E+02  0.21838978766E+03 -0.11059445998E+03  0.26163413023E+03  0.88355952815E+02 0.  0.
         24    2    4    4    0    0 -0.43112785815E+03  0.52281799892E+02  0.10944734482E+04  0.11801227782E+04  0.78822752094E+02 0.  0.
         11    1    3    3    0    0  0.12761607384E+03 -0.51127566313E+02  0.32362485632E+03  0.35161475790E+03  0.00000000000E+00 0. -1.
        -11    1    3    3    0    0  0.33035223459E+03 -0.21954402124E+03  0.64174567735E+03  0.75443335726E+03  0.00000000000E+00 0.  1.
          2    1    6    6  502    0 -0.21295188530E+03  0.14676837373E+02  0.43642577564E+03  0.48583060078E+03  0.00000000000E+00 0. -1.
          3    1    5    5  503    0 -0.11927913350E+02 -0.38461280270E+01 -0.14185765219E+02  0.18928913137E+02  0.00000000000E+00 0. -1.
         -4    1    5    5    0  503 -0.14912536933E+02  0.22223591569E+03 -0.96408694759E+02  0.24270521710E+03  0.00000000000E+00 0.  1.
         -1    1    6    6    0  502 -0.21817597285E+03  0.37604962520E+02  0.65804767252E+03  0.69429217743E+03  0.00000000000E+00 0.  1.
<mgrwt>
<rscale>  0 0.16406513E+04</rscale>
<asrwt>0</asrwt>
<pdfrwt beam="1">  1        1 0.46042732E-01 0.16406513E+04</pdfrwt>
<pdfrwt beam="2">  1       -1 0.34592726E+00 0.16406513E+04</pdfrwt>
<totfact> 0.13955231E+00</totfact>
</mgrwt>
</event>
<event>
12    1  0.1598876E-007  0.1719672E+04  0.7818608E-02  0.8750223E-01
         -1   -1    0    0    0  501 -0.00000000000E+00  0.00000000000E+00  0.76978553450E+03  0.76978553450E+03  0.00000000000E+00 0.  1.
          1   -1    0    0  501    0  0.00000000000E+00 -0.00000000000E+00 -0.96042115358E+03  0.96042115358E+03  0.00000000000E+00 0. -1.
         23    2    1    2    0    0  0.12048512736E+03  0.58242422356E+03 -0.20733410412E+03  0.63621050996E+03  0.89675750034E+02 0.  0.
        254    2    1    2    0    0 -0.12048512736E+03 -0.58242422356E+03  0.16698485042E+02  0.10939961781E+04  0.91804910339E+03 0.  0.
        -24    2    4    4    0    0  0.25486650414E+02 -0.42372261880E+03 -0.41796440603E+03  0.60214372412E+03  0.87706286843E+02 0.  0.
         24    2    4    4    0    0 -0.14597177778E+03 -0.15870160476E+03  0.43466289108E+03  0.49185245400E+03  0.80579453785E+02 0.  0.
         11    1    3    3    0    0  0.10017692941E+03  0.54920848098E+03 -0.17343892021E+03  0.58459082426E+03  0.00000000000E+00 0. -1.
        -11    1    3    3    0    0  0.20308197954E+02  0.33215742582E+02 -0.33895183908E+02  0.51619685698E+02  0.00000000000E+00 0.  1.
          2    1    6    6  502    0 -0.12831455151E+03 -0.13196709240E+03  0.41568582141E+03  0.45461482568E+03  0.00000000000E+00 0. -1.
          1    1    5    5  503    0  0.85516626462E+01 -0.24704122252E+03 -0.30139222912E+03  0.38979452578E+03  0.00000000000E+00 0. -1.
         -2    1    5    5    0  503  0.16934987768E+02 -0.17668139629E+03 -0.11657217692E+03  0.21234919834E+03  0.00000000000E+00 0.  1.
         -1    1    6    6    0  502 -0.17657226265E+02 -0.26734512356E+02  0.18977069669E+02  0.37237628329E+02  0.00000000000E+00 0.  1.
<mgrwt>
<rscale>  0 0.17196724E+04</rscale>
<asrwt>0</asrwt>
<pdfrwt beam="1">  1        1 0.14775710E+00 0.17196724E+04</pdfrwt>
<pdfrwt beam="2">  1       -1 0.11842854E+00 0.17196724E+04</pdfrwt>
<totfact> 0.98790889E+00</totfact>
</mgrwt>
</event>
<event>
12    1  0.1598876E-007  0.1562449E+04  0.7818608E-02  0.8843955E-01
          2   -1    0    0  501    0  0.00000000000E+00  0.00000000000E+00  0.10864748954E+04  0.10864748954E+04  0.00000000000E+00 0. -1.
         -2   -1    0    0    0  501 -0.00000000000E+00 -0.00000000000E+00 -0.56173597608E+03  0.56173597608E+03  0.00000000000E+00 0.  1.
         23    2    1    2    0    0 -0.26553611761E+03  0.30978541233E+03 -0.16441775638E+03  0.44934180820E+03  0.91642951379E+02 0.  0.
        254    2    1    2    0    0  0.26553611761E+03 -0.30978541233E+03  0.68915667568E+03  0.11988690633E+04  0.89211752352E+03 0.  0.
        -24    2    4    4    0    0  0.23510311360E+03 -0.49341834861E+03  0.79634214793E+03  0.96917661103E+03  0.80045899462E+02 0.  0.
         24    2    4    4    0    0  0.30433004006E+02  0.18363293629E+03 -0.10718547225E+03  0.22969245223E+03  0.81379814024E+02 0.  0.
         11    1    3    3    0    0 -0.20639969878E+01  0.43590364531E+02 -0.17832718328E+02  0.47142187120E+02  0.00000000000E+00 0. -1.
        -11    1    3    3    0    0 -0.26347212062E+03  0.26619504780E+03 -0.14658503805E+03  0.40219962108E+03  0.00000000000E+00 0.  1.
          4    1    6    6  502    0  0.52018061348E+02  0.14590097553E+03 -0.61579593736E+02  0.16668839111E+03  0.00000000000E+00 0. -1.
          3    1    5    5  503    0  0.12166966088E+03 -0.31592517654E+03  0.54056342456E+03  0.63782524215E+03  0.00000000000E+00 0. -1.
         -4    1    5    5    0  503  0.11343345272E+03 -0.17749317207E+03  0.25577872336E+03  0.33135136887E+03  0.00000000000E+00 0.  1.
         -3    1    6    6    0  502 -0.21585057342E+02  0.37731960756E+02 -0.45605878513E+02  0.63004061122E+02  0.00000000000E+00 0.  1.
<mgrwt>
<rscale>  0 0.15624494E+04</rscale>
<asrwt>0</asrwt>
<pdfrwt beam="1">  1        2 0.16714998E+00 0.15624494E+04</pdfrwt>
<pdfrwt beam="2">  1       -2 0.86420920E-01 0.15624494E+04</pdfrwt>
<totfact> 0.24784763E+01</totfact>
</mgrwt>
</event>
<event>
12    1  0.1598876E-007  0.1706711E+04  0.7818608E-02  0.8757546E-01
          2   -1    0    0  501    0  0.00000000000E+00  0.00000000000E+00  0.20507286784E+04  0.20507286784E+04  0.00000000000E+00 0. -1.
         -2   -1    0    0    0  501 -0.00000000000E+00 -0.00000000000E+00 -0.35510070624E+03  0.35510070624E+03  0.00000000000E+00 0.  1.
         23    2    1    2    0    0 -0.52770927033E+02 -0.38066244272E+03 -0.58236167516E+02  0.39960823751E+03  0.92771904378E+02 0.  0.
        254    2    1    2    0    0  0.52770927033E+02  0.38066244272E+03  0.17538641396E+04  0.20062211471E+04  0.89509508138E+03 0.  0.
        -24    2    4    4    0    0  0.35900467912E+03  0.50391473042E+03  0.12710527697E+04  0.14158537673E+04  0.79071688477E+02 0.  0.
         24    2    4    4    0    0 -0.30623375209E+03 -0.12325228770E+03  0.48281136999E+03  0.59036737982E+03  0.80352889312E+02 0.  0.
         11    1    3    3    0    0 -0.65814599988E+02 -0.34312334827E+03 -0.29609742885E+02  0.35063076102E+03  0.00000000000E+00 0.  1.
        -11    1    3    3    0    0  0.13043672955E+02 -0.37539094449E+02 -0.28626424630E+02  0.48977476490E+02  0.00000000000E+00 0. -1.
          2    1    6    6  502    0 -0.12730654959E+03 -0.42343602076E+02  0.26551955016E+03  0.29749045316E+03  0.00000000000E+00 0. -1.
          3    1    5    5  503    0 -0.37249177747E+01  0.10369691307E+02  0.17812600549E+02  0.20945029208E+02  0.00000000000E+00 0. -1.
         -4    1    5    5    0  503  0.36272959689E+03  0.49354503911E+03  0.12532401691E+04  0.13949087381E+04  0.00000000000E+00 0.  1.
         -1    1    6    6    0  502 -0.17892720249E+03 -0.80908685626E+02  0.21729181983E+03  0.29287692666E+03  0.00000000000E+00 0.  1.
<mgrwt>
<rscale>  0 0.17067105E+04</rscale>
<asrwt>0</asrwt>
<pdfrwt beam="1">  1        2 0.31549671E+00 0.17067105E+04</pdfrwt>
<pdfrwt beam="2">  1       -2 0.54630879E-01 0.17067105E+04</pdfrwt>
<totfact> 0.18774632E+01</totfact>
</mgrwt>
</event>
<event>
12    1  0.1598876E-007  0.1482668E+04  0.7818608E-02  0.8896061E-01
         -1   -1    0    0    0  501 -0.00000000000E+00  0.00000000000E+00  0.18403541454E+03  0.18403541454E+03  0.00000000000E+00 0.  1.
          1   -1    0    0  501    0  0.00000000000E+00 -0.00000000000E+00 -0.29862514536E+04  0.29862514536E+04  0.00000000000E+00 0. -1.
         23    2    1    2    0    0 -0.20298413661E+03 -0.11792591056E+02 -0.10918432085E+01  0.22262025432E+03  0.90647452210E+02 0.  0.
        254    2    1    2    0    0  0.20298413661E+03  0.11792591056E+02 -0.28011241959E+04  0.29476666138E+04  0.89504194357E+03 0.  0.
        -24    2    4    4    0    0 -0.66090883098E+02  0.38881744979E+03 -0.17592321762E+04  0.18046312548E+04  0.79051262982E+02 0.  0.
         24    2    4    4    0    0  0.26907501971E+03 -0.37702485873E+03 -0.10418920197E+04  0.11430353590E+04  0.80260456546E+02 0.  0.
         11    1    3    3    0    0 -0.74850583039E+02  0.31863580377E+02 -0.25114193986E+02  0.85138829422E+02  0.00000000000E+00 0. -1.
        -11    1    3    3    0    0 -0.12813355357E+03 -0.43656171433E+02  0.24022350777E+02  0.13748142490E+03  0.00000000000E+00 0.  1.
          2    1    6    6  502    0  0.89983787712E+02 -0.10412159046E+03 -0.39818765920E+03  0.42129775645E+03  0.00000000000E+00 0. -1.
          1    1    5    5  503    0 -0.23968682811E+02  0.29562437307E+02 -0.11696056296E+03  0.12299678346E+03  0.00000000000E+00 0. -1.
         -2    1    5    5    0  503 -0.42122200287E+02  0.35925501248E+03 -0.16422716132E+04  0.16816344714E+04  0.00000000000E+00 0.  1.
         -1    1    6    6    0  502  0.17909123200E+03 -0.27290326828E+03 -0.64370436050E+03  0.72173760255E+03  0.00000000000E+00 0.  1.
<mgrwt>
<rscale>  0 0.14826679E+04</rscale>
<asrwt>0</asrwt>
<pdfrwt beam="1">  1        1 0.45942327E+00 0.14826679E+04</pdfrwt>
<pdfrwt beam="2">  1       -1 0.28313142E-01 0.14826679E+04</pdfrwt>
<totfact> 0.67342745E+00</totfact>
</mgrwt>
</event>
<event>
12    1  0.1979379E-007  0.1532882E+04  0.7818608E-02  0.8862876E-01
          1   -1    0    0  501    0  0.00000000000E+00  0.00000000000E+00  0.36562318179E+03  0.36562318179E+03  0.00000000000E+00 0. -1.
         -1   -1    0    0    0  501 -0.00000000000E+00 -0.00000000000E+00 -0.16066599707E+04  0.16066599707E+04  0.00000000000E+00 0.  1.
         23    2    1    2    0    0  0.17364835140E+03  0.14866759034E+03 -0.93239435008E+03  0.96367499619E+03  0.83990903446E+02 0.  0.
        254    2    1    2    0    0 -0.17364835140E+03 -0.14866759034E+03 -0.30864243879E+03  0.10086081563E+04  0.93261699292E+03 0.  0.
        -24    2    4    4    0    0 -0.34218852407E+03 -0.37200467292E+03 -0.45391247376E+03  0.68386626199E+03  0.78460612863E+02 0.  0.
         24    2    4    4    0    0  0.16854017267E+03  0.22333708257E+03  0.14527003497E+03  0.32474189427E+03  0.77901685311E+02 0.  0.
         11    1    3    3    0    0  0.37787401759E+02  0.20390605507E+01 -0.85344688436E+02  0.93358241971E+02  0.00000000000E+00 0. -1.
        -11    1    3    3    0    0  0.13586094964E+03  0.14662852979E+03 -0.84704966165E+03  0.87031675422E+03  0.00000000000E+00 0.  1.
          2    1    6    6  502    0  0.69326582295E+01  0.32948783578E+01 -0.84601530677E+01  0.11423316657E+02  0.00000000000E+00 0. -1.
          1    1    5    5  503    0 -0.12594547432E+01 -0.13187188850E+02 -0.27639674580E+02  0.30650282003E+02  0.00000000000E+00 0. -1.
         -2    1    5    5    0  503 -0.34092906933E+03 -0.35881748407E+03 -0.42627279919E+03  0.65321597999E+03  0.00000000000E+00 0.  1.
         -1    1    6    6    0  502  0.16160751444E+03  0.22004220421E+03  0.15373018804E+03  0.31331857761E+03  0.00000000000E+00 0.  1.
<mgrwt>
<rscale>  0 0.15328824E+04</rscale>
<asrwt>0</asrwt>
<pdfrwt beam="1">  1        1 0.56249721E-01 0.15328824E+04</pdfrwt>
<pdfrwt beam="2">  1       -1 0.24717845E+00 0.15328824E+04</pdfrwt>
<totfact> 0.47470351E+00</totfact>
</mgrwt>
</event>
<event>
12    1  0.1598876E-007  0.1406189E+04  0.7818608E-02  0.8949351E-01
          1   -1    0    0  501    0  0.00000000000E+00  0.00000000000E+00  0.69620334081E+03  0.69620334081E+03  0.00000000000E+00 0. -1.
         -1   -1    0    0    0  501 -0.00000000000E+00 -0.00000000000E+00 -0.71005388551E+03  0.71005388551E+03  0.00000000000E+00 0.  1.
         23    2    1    2    0    0 -0.22139445500E+03  0.21710603227E+03 -0.26208017399E+03  0.41589709295E+03  0.90187806143E+02 0.  0.
        254    2    1    2    0    0  0.22139445500E+03 -0.21710603227E+03  0.24822962929E+03  0.99036013336E+03  0.90721811652E+03 0.  0.
        -24    2    4    4    0    0 -0.29853636584E+03  0.64829408623E-01  0.28418935128E+03  0.41996673930E+03  0.80526447872E+02 0.  0.
         24    2    4    4    0    0  0.51993082084E+03 -0.21717086168E+03 -0.35959721988E+02  0.57039339407E+03  0.81020249133E+02 0.  0.
         13    1    3    3    0    0 -0.67674476449E+02  0.15746171218E+02 -0.51812783927E+02  0.86673763325E+02  0.00000000000E+00 0. -1.
        -13    1    3    3    0    0 -0.15371997855E+03  0.20135986105E+03 -0.21026739007E+03  0.32922332963E+03  0.00000000000E+00 0.  1.
          4    1    6    6  502    0  0.38854278518E+03 -0.19572970336E+03 -0.42346730750E+02  0.43711423941E+03  0.00000000000E+00 0. -1.
          1    1    5    5  503    0 -0.30277824397E+03  0.10005149124E+01  0.27195102822E+03  0.40698037766E+03  0.00000000000E+00 0. -1.
         -2    1    5    5    0  503  0.42418781274E+01 -0.93568550377E+00  0.12238323056E+02  0.12986361639E+02  0.00000000000E+00 0.  1.
         -3    1    6    6    0  502  0.13138803566E+03 -0.21441158319E+02  0.63870087621E+01  0.13327915466E+03  0.00000000000E+00 0.  1.
<mgrwt>
<rscale>  0 0.14061890E+04</rscale>
<asrwt>0</asrwt>
<pdfrwt beam="1">  1        1 0.10710821E+00 0.14061890E+04</pdfrwt>
<pdfrwt beam="2">  1       -1 0.10923906E+00 0.14061890E+04</pdfrwt>
<totfact> 0.20779273E+01</totfact>
</mgrwt>
</event>
<event>
12    1  0.1598876E-007  0.1622810E+04  0.7818608E-02  0.8806656E-01
          2   -1    0    0  501    0  0.00000000000E+00  0.00000000000E+00  0.28403453703E+04  0.28403453703E+04  0.00000000000E+00 0. -1.
         -2   -1    0    0    0  501 -0.00000000000E+00 -0.00000000000E+00 -0.23179495696E+03  0.23179495696E+03  0.00000000000E+00 0.  1.
         23    2    1    2    0    0 -0.28176883397E+03 -0.44522954923E+03  0.11019412762E+04  0.12271304644E+04  0.11811677728E+03 0.  0.
        254    2    1    2    0    0  0.28176883397E+03  0.44522954923E+03  0.15066091372E+04  0.18450098629E+04  0.92550919758E+03 0.  0.
        -24    2    4    4    0    0  0.43568383983E+02 -0.27475866910E+03  0.55179982019E+03  0.62302121382E+03  0.79258191885E+02 0.  0.
         24    2    4    4    0    0  0.23820044998E+03  0.71998821833E+03  0.95480931699E+03  0.12219886491E+04  0.80454570164E+02 0.  0.
         13    1    3    3    0    0 -0.24921189828E+03 -0.35300395999E+03  0.79313335992E+03  0.90320478998E+03  0.00000000000E+00 0. -1.
        -13    1    3    3    0    0 -0.32556935686E+02 -0.92225589235E+02  0.30880791628E+03  0.32392567439E+03  0.00000000000E+00 0.  1.
          2    1    6    6  502    0  0.38724545731E+02  0.12154852254E+03  0.21250674346E+03  0.24785630875E+03  0.00000000000E+00 0. -1.
          3    1    5    5  503    0 -0.58226544914E+01 -0.82555215823E+01  0.23737954038E+01  0.10377468214E+02  0.00000000000E+00 0. -1.
         -4    1    5    5    0  503  0.49391038475E+02 -0.26650314752E+03  0.54942602479E+03  0.61264374561E+03  0.00000000000E+00 0.  1.
         -1    1    6    6    0  502  0.19947590425E+03  0.59843969579E+03  0.74230257353E+03  0.97413234037E+03  0.00000000000E+00 0.  1.
<mgrwt>
<rscale>  0 0.16228096E+04</rscale>
<asrwt>0</asrwt>
<pdfrwt beam="1">  1        2 0.43697619E+00 0.16228096E+04</pdfrwt>
<pdfrwt beam="2">  1       -2 0.35660765E-01 0.16228096E+04</pdfrwt>
<totfact> 0.15529084E+01</totfact>
</mgrwt>
</event>
<event>
12    1  0.1598876E-007  0.1754574E+04  0.7818608E-02  0.8730837E-01
          1   -1    0    0  501    0  0.00000000000E+00  0.00000000000E+00  0.44718372727E+03  0.44718372727E+03  0.00000000000E+00 0. -1.
         -1   -1    0    0    0  501 -0.00000000000E+00 -0.00000000000E+00 -0.17210648344E+04  0.17210648344E+04  0.00000000000E+00 0.  1.
         23    2    1    2    0    0  0.48368312213E+03  0.11303879180E+03  0.10344865606E+02  0.50528627638E+03  0.92087316019E+02 0.  0.
        254    2    1    2    0    0 -0.48368312213E+03 -0.11303879180E+03 -0.12842259728E+04  0.16629622853E+04  0.93245915845E+03 0.  0.
        -24    2    4    4    0    0 -0.21719183066E+03  0.10624152488E+03  0.68659807069E+02  0.26444669903E+03  0.82209090771E+02 0.  0.
         24    2    4    4    0    0 -0.26649129147E+03 -0.21928031669E+03 -0.13528857798E+04  0.13985155863E+04  0.80277307552E+02 0.  0.
         13    1    3    3    0    0  0.16919553907E+03  0.31971996283E+02 -0.39641293375E+02  0.17669400422E+03  0.00000000000E+00 0.  1.
        -13    1    3    3    0    0  0.31448758306E+03  0.81066795521E+02  0.49986158981E+02  0.32859227216E+03  0.00000000000E+00 0. -1.
          4    1    6    6  502    0 -0.86813612644E+02 -0.86830812004E+02 -0.63366949516E+03  0.64545582526E+03  0.00000000000E+00 0. -1.
          3    1    5    5  503    0 -0.20127010962E+03  0.65565955500E+02  0.55765557080E+02  0.21890260140E+03  0.00000000000E+00 0. -1.
         -4    1    5    5    0  503 -0.15921721045E+02  0.40675569382E+02  0.12894249989E+02  0.45544097624E+02  0.00000000000E+00 0.  1.
         -3    1    6    6    0  502 -0.17967767882E+03 -0.13244950468E+03 -0.71921628467E+03  0.75305976104E+03  0.00000000000E+00 0.  1.
<mgrwt>
<rscale>  0 0.17545737E+04</rscale>
<asrwt>0</asrwt>
<pdfrwt beam="1">  1        1 0.68797496E-01 0.17545737E+04</pdfrwt>
<pdfrwt beam="2">  1       -1 0.26477921E+00 0.17545737E+04</pdfrwt>
<totfact> 0.27338379E+00</totfact>
</mgrwt>
</event>
<event>
12    1  0.1598876E-007  0.1325650E+04  0.7818608E-02  0.9009469E-01
         -1   -1    0    0    0  501 -0.00000000000E+00  0.00000000000E+00  0.11934000521E+04  0.11934000521E+04  0.00000000000E+00 0.  1.
          1   -1    0    0  501    0  0.00000000000E+00 -0.00000000000E+00 -0.36813867399E+03  0.36813867399E+03  0.00000000000E+00 0. -1.
         23    2    1    2    0    0 -0.25549974419E+03 -0.39390164992E+02  0.50577148574E+03  0.57532076503E+03  0.91419267682E+02 0.  0.
        254    2    1    2    0    0  0.25549974419E+03  0.39390164992E+02  0.31948989237E+03  0.98621796107E+03  0.89650452929E+03 0.  0.
        -24    2    4    4    0    0  0.22335424807E+02 -0.20597911228E+03 -0.24143440282E+03  0.32637732369E+03  0.72837632180E+02 0.  0.
         24    2    4    4    0    0  0.23316431938E+03  0.24536927727E+03  0.56092429519E+03  0.65984063738E+03  0.78625185145E+02 0.  0.
         13    1    3    3    0    0 -0.10421745456E+03 -0.17583106108E+02  0.30630541078E+03  0.32402692501E+03  0.00000000000E+00 0.  1.
        -13    1    3    3    0    0 -0.15128228962E+03 -0.21807058884E+02  0.19946607496E+03  0.25129384002E+03  0.00000000000E+00 0. -1.
          2    1    6    6  502    0  0.19245165991E+03  0.17189354405E+03  0.46911923885E+03  0.53540441924E+03  0.00000000000E+00 0. -1.
          1    1    5    5  503    0  0.56478635759E+01 -0.20040290848E+03 -0.20986055611E+03  0.29023210901E+03  0.00000000000E+00 0. -1.
         -2    1    5    5    0  503  0.16687561231E+02 -0.55762038008E+01 -0.31573846710E+02  0.36145214687E+02  0.00000000000E+00 0.  1.
         -1    1    6    6    0  502  0.40712659468E+02  0.73475733220E+02  0.91805056344E+02  0.12443621813E+03  0.00000000000E+00 0.  1.
<mgrwt>
<rscale>  0 0.13256496E+04</rscale>
<asrwt>0</asrwt>
<pdfrwt beam="1">  1        1 0.56636720E-01 0.13256496E+04</pdfrwt>
<pdfrwt beam="2">  1       -1 0.18360001E+00 0.13256496E+04</pdfrwt>
<totfact> 0.12883389E+01</totfact>
</mgrwt>
</event>
<event>
12    1  0.1598876E-007  0.1699460E+04  0.7818608E-02  0.8761672E-01
         -2   -1    0    0    0  501 -0.00000000000E+00  0.00000000000E+00  0.40646299144E+03  0.40646299144E+03  0.00000000000E+00 0. -1.
          2   -1    0    0  501    0  0.00000000000E+00 -0.00000000000E+00 -0.17764009732E+04  0.17764009732E+04  0.00000000000E+00 0.  1.
         23    2    1    2    0    0 -0.39441630736E+03  0.43392934687E+03 -0.28069493226E+03  0.65654773553E+03  0.91686326410E+02 0.  0.
        254    2    1    2    0    0  0.39441630736E+03 -0.43392934687E+03 -0.10892430495E+04  0.15263162291E+04  0.89405363867E+03 0.  0.
        -24    2    4    4    0    0  0.45544271072E+02 -0.61090126453E+03 -0.42006480552E+03  0.74702246292E+03  0.79457432849E+02 0.  0.
         24    2    4    4    0    0  0.34887203629E+03  0.17697191766E+03 -0.66917824401E+03  0.77929376623E+03  0.80426951190E+02 0.  0.
         11    1    3    3    0    0 -0.33070002952E+03  0.32937248288E+03 -0.25342840855E+03  0.53110705161E+03  0.00000000000E+00 0. -1.
        -11    1    3    3    0    0 -0.63716277836E+02  0.10455686399E+03 -0.27266523711E+02  0.12544068393E+03  0.00000000000E+00 0.  1.
          4    1    6    6  502    0  0.13829941699E+03  0.29298935504E+02 -0.21398515747E+03  0.25646598991E+03  0.00000000000E+00 0. -1.
          1    1    5    5  503    0  0.24446812134E+02 -0.48916409722E+03 -0.36950833117E+03  0.61352715298E+03  0.00000000000E+00 0. -1.
         -2    1    5    5    0  503  0.21097458938E+02 -0.12173716731E+03 -0.50556474352E+02  0.13349530994E+03  0.00000000000E+00 0.  1.
         -3    1    6    6    0  502  0.21057261930E+03  0.14767298216E+03 -0.45519308654E+03  0.52282777632E+03  0.00000000000E+00 0.  1.
<mgrwt>
<rscale>  0 0.16994602E+04</rscale>
<asrwt>0</asrwt>
<pdfrwt beam="1">  1        2 0.27329246E+00 0.16994602E+04</pdfrwt>
<pdfrwt beam="2">  1       -2 0.62532768E-01 0.16994602E+04</pdfrwt>
<totfact> 0.20071284E+01</totfact>
</mgrwt>
</event>
<event>
12    1  0.1598876E-007  0.1525785E+04  0.7818608E-02  0.8867485E-01
         -2   -1    0    0    0  501 -0.00000000000E+00  0.00000000000E+00  0.20113346148E+04  0.20113346148E+04  0.00000000000E+00 0. -1.
          2   -1    0    0  501    0  0.00000000000E+00 -0.00000000000E+00 -0.28936273195E+03  0.28936273195E+03  0.00000000000E+00 0.  1.
         23    2    1    2    0    0 -0.39960728466E+02  0.15360198319E+03  0.12651690849E+04  0.12783117790E+04  0.90762117071E+02 0.  0.
        254    2    1    2    0    0  0.39960728466E+02 -0.15360198319E+03  0.45680279793E+03  0.10223855677E+04  0.90078467118E+03 0.  0.
        -24    2    4    4    0    0  0.12681555079E+03 -0.17013153727E+03  0.70886074669E+03  0.74413781589E+03  0.78934193737E+02 0.  0.
         24    2    4    4    0    0 -0.86854822327E+02  0.16529554080E+02 -0.25205794876E+03  0.27824775184E+03  0.77920572047E+02 0.  0.
         13    1    3    3    0    0  0.17316021571E+01  0.12038855246E+03  0.10386581737E+04  0.10456133147E+04  0.00000000000E+00 0. -1.
        -13    1    3    3    0    0 -0.41692330623E+02  0.33213430727E+02  0.22651091120E+03  0.23269846434E+03  0.00000000000E+00 0.  1.
          4    1    6    6  502    0 -0.75199306022E+02 -0.21367233523E+02 -0.16450318081E+03  0.18213399132E+03  0.00000000000E+00 0. -1.
          1    1    5    5  503    0 -0.78201209955E+01 -0.24876822430E+01  0.99316660395E+01  0.12883355372E+02  0.00000000000E+00 0. -1.
         -2    1    5    5    0  503  0.13463567179E+03 -0.16764385502E+03  0.69892908065E+03  0.73125446052E+03  0.00000000000E+00 0.  1.
         -3    1    6    6    0  502 -0.11655516304E+02  0.37896787602E+02 -0.87554767948E+02  0.96113760520E+02  0.00000000000E+00 0.  1.
<mgrwt>
<rscale>  0 0.15257854E+04</rscale>
<asrwt>0</asrwt>
<pdfrwt beam="1">  1        2 0.44517345E-01 0.15257854E+04</pdfrwt>
<pdfrwt beam="2">  1       -2 0.30943609E+00 0.15257854E+04</pdfrwt>
<totfact> 0.30787254E+00</totfact>
</mgrwt>
</event>
<event>
12    1  0.1598876E-007  0.1589162E+04  0.7818608E-02  0.8827234E-01
         -1   -1    0    0    0  501 -0.00000000000E+00  0.00000000000E+00  0.26781269632E+03  0.26781269632E+03  0.00000000000E+00 0.  1.
          1   -1    0    0  501    0  0.00000000000E+00 -0.00000000000E+00 -0.23574637498E+04  0.23574637498E+04  0.00000000000E+00 0. -1.
         23    2    1    2    0    0  0.27034666808E+03  0.15754664801E+03 -0.14268017375E+04  0.14640868734E+04  0.99392692962E+02 0.  0.
        254    2    1    2    0    0 -0.27034666808E+03 -0.15754664801E+03 -0.66284931602E+03  0.11611895728E+04  0.90060187705E+03 0.  0.
        -24    2    4    4    0    0 -0.42515054599E+03 -0.37417890239E+03 -0.67264287433E+03  0.88305964929E+03  0.81136120578E+02 0.  0.
         24    2    4    4    0    0  0.15480387791E+03  0.21663225438E+03  0.97935583087E+01  0.27812992349E+03  0.79790765757E+02 0.  0.
         11    1    3    3    0    0  0.18494234597E+03  0.98680143733E+02 -0.72623061516E+03  0.75587852760E+03  0.00000000000E+00 0. -1.
        -11    1    3    3    0    0  0.85404322114E+02  0.58866504276E+02 -0.70057112232E+03  0.70820834575E+03  0.00000000000E+00 0.  1.
          2    1    6    6  502    0  0.10589395409E+03  0.12520742884E+03 -0.30673896264E+02  0.16682720900E+03  0.00000000000E+00 0. -1.
          1    1    5    5  503    0 -0.41986427074E+03 -0.37820021118E+03 -0.66800687592E+03  0.87495976585E+03  0.00000000000E+00 0. -1.
         -2    1    5    5    0  503 -0.52862752551E+01  0.40213087912E+01 -0.46359984125E+01  0.80998834404E+01  0.00000000000E+00 0.  1.
         -1    1    6    6    0  502  0.48909923822E+02  0.91424825540E+02  0.40467454573E+02  0.11130271449E+03  0.00000000000E+00 0.  1.
<mgrwt>
<rscale>  0 0.15891617E+04</rscale>
<asrwt>0</asrwt>
<pdfrwt beam="1">  1        1 0.36268674E+00 0.15891617E+04</pdfrwt>
<pdfrwt beam="2">  1       -1 0.41201952E-01 0.15891617E+04</pdfrwt>
<totfact> 0.94291513E+00</totfact>
</mgrwt>
</event>
<event>
12    1  0.1598876E-007  0.2286023E+04  0.7818608E-02  0.8483452E-01
         -2   -1    0    0    0  501 -0.00000000000E+00  0.00000000000E+00  0.55292494870E+03  0.55292494870E+03  0.00000000000E+00 0.  1.
          2   -1    0    0  501    0  0.00000000000E+00 -0.00000000000E+00 -0.23628446394E+04  0.23628446394E+04  0.00000000000E+00 0. -1.
         23    2    1    2    0    0  0.86707358260E+03  0.41687924258E+03 -0.78825275847E+03  0.12471851776E+04  0.92323104123E+02 0.  0.
        254    2    1    2    0    0 -0.86707358260E+03 -0.41687924258E+03 -0.10216669323E+04  0.16685844105E+04  0.90264373588E+03 0.  0.
        -24    2    4    4    0    0 -0.52893472696E+03  0.10643081166E+03 -0.86239338797E+03  0.10200717272E+04  0.75660491472E+02 0.  0.
         24    2    4    4    0    0 -0.33813885564E+03 -0.52331005424E+03 -0.15927354430E+03  0.64851268329E+03  0.83721800723E+02 0.  0.
         11    1    3    3    0    0  0.73672930218E+03  0.33658728996E+03 -0.62249675700E+03  0.10215494510E+04  0.00000000000E+00 0. -1.
        -11    1    3    3    0    0  0.13034428042E+03  0.80291952620E+02 -0.16575600147E+03  0.22563572660E+03  0.00000000000E+00 0.  1.
          2    1    6    6  502    0 -0.32437277194E+03 -0.48320340122E+03 -0.16687322348E+03  0.60543364198E+03  0.00000000000E+00 0. -1.
          3    1    5    5  503    0 -0.31333473260E+03  0.10076026042E+03 -0.51913208868E+03  0.61467829816E+03  0.00000000000E+00 0. -1.
         -4    1    5    5    0  503 -0.21559999437E+03  0.56705512371E+01 -0.34326129929E+03  0.40539342905E+03  0.00000000000E+00 0.  1.
         -1    1    6    6    0  502 -0.13766083705E+02 -0.40106653019E+02  0.75996791813E+01  0.43079041315E+02  0.00000000000E+00 0.  1.
<mgrwt>
<rscale>  0 0.22860234E+04</rscale>
<asrwt>0</asrwt>
<pdfrwt beam="1">  1        2 0.36351457E+00 0.22860234E+04</pdfrwt>
<pdfrwt beam="2">  1       -2 0.85065375E-01 0.22860234E+04</pdfrwt>
<totfact> 0.45574622E+00</totfact>
</mgrwt>
</event>
<event>
12    1  0.1598876E-007  0.2198098E+04  0.7818608E-02  0.8519220E-01
         -2   -1    0    0    0  501 -0.00000000000E+00  0.00000000000E+00  0.44068935323E+03  0.44068935323E+03  0.00000000000E+00 0.  1.
          2   -1    0    0  501    0  0.00000000000E+00 -0.00000000000E+00 -0.27409517158E+04  0.27409517158E+04  0.00000000000E+00 0. -1.
         23    2    1    2    0    0 -0.12878661356E+03 -0.76271354344E+03 -0.16576934030E+04  0.18316385979E+04  0.92922515292E+02 0.  0.
        254    2    1    2    0    0  0.12878661356E+03  0.76271354344E+03 -0.64256895956E+03  0.13500024711E+04  0.90071852597E+03 0.  0.
        -24    2    4    4    0    0  0.10646469410E+03  0.50789237646E+02  0.19897272860E+03  0.24471551567E+03  0.79882783702E+02 0.  0.
         24    2    4    4    0    0  0.22321919465E+02  0.71192430579E+03 -0.84154168817E+03  0.11052869554E+04  0.78309358821E+02 0.  0.
         11    1    3    3    0    0 -0.36133584531E+02 -0.48313866646E+03 -0.10415476514E+04  0.11487167263E+04  0.00000000000E+00 0.  1.
        -11    1    3    3    0    0 -0.92653029031E+02 -0.27957487697E+03 -0.61614575158E+03  0.68292187167E+03  0.00000000000E+00 0. -1.
          2    1    6    6  502    0 -0.19773729252E+02  0.21448506955E+03 -0.29201399106E+03  0.36285949954E+03  0.00000000000E+00 0. -1.
          1    1    5    5  503    0  0.93397940044E+01  0.26188607122E+02  0.10033938734E+03  0.10412044730E+03  0.00000000000E+00 0. -1.
         -2    1    5    5    0  503  0.97124900093E+02  0.24600630524E+02  0.98633341264E+02  0.14059506837E+03  0.00000000000E+00 0.  1.
         -1    1    6    6    0  502  0.42095648717E+02  0.49743923624E+03 -0.54952769710E+03  0.74242745590E+03  0.00000000000E+00 0.  1.
<mgrwt>
<rscale>  0 0.21980976E+04</rscale>
<asrwt>0</asrwt>
<pdfrwt beam="1">  1        2 0.42168486E+00 0.21980976E+04</pdfrwt>
<pdfrwt beam="2">  1       -2 0.67798364E-01 0.21980976E+04</pdfrwt>
<totfact> 0.45753304E+00</totfact>
</mgrwt>
</event>
<event>
12    1  0.1598876E-007  0.1085051E+04  0.7818608E-02  0.9219886E-01
          2   -1    0    0  501    0  0.00000000000E+00  0.00000000000E+00  0.26773408699E+04  0.26773408699E+04  0.00000000000E+00 0. -1.
         -2   -1    0    0    0  501 -0.00000000000E+00 -0.00000000000E+00 -0.10993513006E+03  0.10993513006E+03  0.00000000000E+00 0.  1.
         23    2    1    2    0    0  0.11159833316E+03  0.11881267752E+03  0.33253638925E+03  0.38147162065E+03  0.91485009044E+02 0.  0.
        254    2    1    2    0    0 -0.11159833316E+03 -0.11881267752E+03  0.22348693506E+04  0.24058043793E+04  0.87560439525E+03 0.  0.
        -24    2    4    4    0    0 -0.21230768180E+03  0.35060618410E+02  0.21856301748E+04  0.21976323583E+04  0.79403541217E+02 0.  0.
         24    2    4    4    0    0  0.10070934864E+03 -0.15387329593E+03  0.49239175759E+02  0.20817202102E+03  0.84212408835E+02 0.  0.
         11    1    3    3    0    0  0.67846255592E+01  0.14437337466E+02  0.12834354119E+03  0.12933109612E+03  0.00000000000E+00 0. -1.
        -11    1    3    3    0    0  0.10481370760E+03  0.10437534005E+03  0.20419284806E+03  0.25214052453E+03  0.00000000000E+00 0.  1.
          2    1    6    6  502    0  0.11315211176E+03 -0.15169196877E+03  0.49212108599E+02  0.19553947279E+03  0.00000000000E+00 0. -1.
          1    1    5    5  503    0 -0.14194247429E+03  0.29513447576E+02  0.10707910211E+04  0.10805610212E+04  0.00000000000E+00 0. -1.
         -2    1    5    5    0  503 -0.70365207506E+02  0.55471708332E+01  0.11148391537E+04  0.11170713371E+04  0.00000000000E+00 0.  1.
         -3    1    6    6    0  502 -0.12442763118E+02 -0.21813271567E+01  0.27067159935E-01  0.12632548231E+02  0.00000000000E+00 0.  1.
<mgrwt>
<rscale>  0 0.10850508E+04</rscale>
<asrwt>0</asrwt>
<pdfrwt beam="1">  1        2 0.41189854E+00 0.10850508E+04</pdfrwt>
<pdfrwt beam="2">  1       -2 0.16913099E-01 0.10850508E+04</pdfrwt>
<totfact> 0.78858358E+01</totfact>
</mgrwt>
</event>
<event>
12    1  0.1598876E-007  0.1317336E+04  0.7818608E-02  0.9015930E-01
          2   -1    0    0  501    0  0.00000000000E+00  0.00000000000E+00  0.13548904649E+04  0.13548904649E+04  0.00000000000E+00 0. -1.
         -2   -1    0    0    0  501 -0.00000000000E+00 -0.00000000000E+00 -0.32020552130E+03  0.32020552130E+03  0.00000000000E+00 0.  1.
         23    2    1    2    0    0 -0.17948260831E+03 -0.75149298391E+02 -0.79423881946E+02  0.22950590265E+03  0.92213787432E+02 0.  0.
        254    2    1    2    0    0  0.17948260831E+03  0.75149298391E+02  0.11141088255E+04  0.14455900835E+04  0.90035037112E+03 0.  0.
        -24    2    4    4    0    0  0.32263982126E+03  0.33201817481E+03  0.25702870384E+03  0.53597047235E+03  0.82873819572E+02 0.  0.
         24    2    4    4    0    0 -0.14315721295E+03 -0.25686887642E+03  0.85708012169E+03  0.90961961119E+03  0.79661124599E+02 0.  0.
         11    1    3    3    0    0 -0.25248623027E+02 -0.49871772475E+02 -0.42080260160E+01  0.56057061442E+02  0.00000000000E+00 0. -1.
        -11    1    3    3    0    0 -0.15423398528E+03 -0.25277525916E+02 -0.75215855930E+02  0.17344884120E+03  0.00000000000E+00 0.  1.
          2    1    6    6  502    0 -0.15303137721E+03 -0.23294879852E+03  0.77865290215E+03  0.82703330475E+03  0.00000000000E+00 0. -1.
          3    1    5    5  503    0  0.24547069261E+03  0.27413854670E+03  0.23626702861E+03  0.43729842502E+03  0.00000000000E+00 0. -1.
         -4    1    5    5    0  503  0.77169128650E+02  0.57879628110E+02  0.20761675233E+02  0.98672047335E+02  0.00000000000E+00 0.  1.
         -1    1    6    6    0  502  0.98741642536E+01 -0.23920077896E+02  0.78427219543E+02  0.82586306441E+02  0.00000000000E+00 0.  1.
<mgrwt>
<rscale>  0 0.13173358E+04</rscale>
<asrwt>0</asrwt>
<pdfrwt beam="1">  1        2 0.20844468E+00 0.13173358E+04</pdfrwt>
<pdfrwt beam="2">  1       -2 0.49262389E-01 0.13173358E+04</pdfrwt>
<totfact> 0.58647169E+01</totfact>
</mgrwt>
</event>
<event>
12    1  0.1598876E-007  0.2028334E+04  0.7818608E-02  0.8593487E-01
          2   -1    0    0  501    0  0.00000000000E+00  0.00000000000E+00  0.21416250510E+04  0.21416250510E+04  0.00000000000E+00 0. -1.
         -2   -1    0    0    0  501 -0.00000000000E+00 -0.00000000000E+00 -0.48025912990E+03  0.48025912990E+03  0.00000000000E+00 0.  1.
         23    2    1    2    0    0  0.56126911130E+03  0.37800395299E+03  0.12444347181E+04  0.14196195328E+04  0.93764847835E+02 0.  0.
        254    2    1    2    0    0 -0.56126911130E+03 -0.37800395299E+03  0.41693120303E+03  0.12022646481E+04  0.90205246641E+03 0.  0.
        -24    2    4    4    0    0 -0.27893979750E+03 -0.41154526638E+03 -0.18115084711E+03  0.53532291541E+03  0.81105347866E+02 0.  0.
         24    2    4    4    0    0 -0.28232931381E+03  0.33541313393E+02  0.59808205014E+03  0.66694173265E+03  0.79210320749E+02 0.  0.
         11    1    3    3    0    0  0.43428523940E+03  0.26016631038E+03  0.85975215312E+03  0.99772939368E+03  0.00000000000E+00 0. -1.
        -11    1    3    3    0    0  0.12698387190E+03  0.11783764260E+03  0.38468256497E+03  0.42189013917E+03  0.00000000000E+00 0.  1.
          4    1    6    6  502    0 -0.15512385406E+03  0.50914842431E+02  0.38473809126E+03  0.41794632448E+03  0.00000000000E+00 0. -1.
          3    1    5    5  503    0 -0.17357387165E+03 -0.26354225471E+03 -0.73032709409E+02  0.32390768065E+03  0.00000000000E+00 0. -1.
         -4    1    5    5    0  503 -0.10536592585E+03 -0.14800301167E+03 -0.10811813770E+03  0.21141523477E+03  0.00000000000E+00 0.  1.
         -1    1    6    6    0  502 -0.12720545975E+03 -0.17373529039E+02  0.21334395888E+03  0.24899540817E+03  0.00000000000E+00 0.  1.
<mgrwt>
<rscale>  0 0.20283343E+04</rscale>
<asrwt>0</asrwt>
<pdfrwt beam="1">  1        2 0.32948077E+00 0.20283343E+04</pdfrwt>
<pdfrwt beam="2">  1       -2 0.73886022E-01 0.20283343E+04</pdfrwt>
<totfact> 0.85201866E+00</totfact>
</mgrwt>
</event>
<event>
12    1  0.1598876E-007  0.2069377E+04  0.7818608E-02  0.8574854E-01
          1   -1    0    0  501    0  0.00000000000E+00  0.00000000000E+00  0.97492786905E+03  0.97492786905E+03  0.00000000000E+00 0. -1.
         -1   -1    0    0    0  501 -0.00000000000E+00 -0.00000000000E+00 -0.10981122692E+04  0.10981122692E+04  0.00000000000E+00 0.  1.
         23    2    1    2    0    0 -0.52147948733E+03 -0.46953184834E+03  0.40532973415E+03  0.81543525834E+03  0.90782458976E+02 0.  0.
        254    2    1    2    0    0  0.52147948733E+03  0.46953184834E+03 -0.52851413429E+03  0.12576048799E+04  0.89991212432E+03 0.  0.
        -24    2    4    4    0    0  0.51526310015E+03 -0.10886877924E+03 -0.12414401705E+03  0.54738244169E+03  0.82869337067E+02 0.  0.
         24    2    4    4    0    0  0.62163871737E+01  0.57840062758E+03 -0.40437011724E+03  0.71022243821E+03  0.79465656508E+02 0.  0.
         13    1    3    3    0    0 -0.50801636758E+03 -0.43396968423E+03  0.39443635823E+03  0.77588037561E+03  0.00000000000E+00 0. -1.
        -13    1    3    3    0    0 -0.13463119751E+02 -0.35562164109E+02  0.10893375918E+02  0.39554882739E+02  0.00000000000E+00 0.  1.
          2    1    6    6  502    0  0.15477840038E+02  0.48224558482E+03 -0.36872827839E+03  0.60725687390E+03  0.00000000000E+00 0. -1.
          1    1    5    5  503    0  0.46843060573E+03 -0.75782242074E+02 -0.98836377020E+02  0.48470486899E+03  0.00000000000E+00 0. -1.
         -2    1    5    5    0  503  0.46832494421E+02 -0.33086537167E+02 -0.25307640029E+02  0.62677572698E+02  0.00000000000E+00 0.  1.
         -1    1    6    6    0  502 -0.92614528639E+01  0.96155042765E+02 -0.35641838849E+02  0.10296556432E+03  0.00000000000E+00 0.  1.
<mgrwt>
<rscale>  0 0.20693770E+04</rscale>
<asrwt>0</asrwt>
<pdfrwt beam="1">  1        1 0.14998890E+00 0.20693770E+04</pdfrwt>
<pdfrwt beam="2">  1       -1 0.16894035E+00 0.20693770E+04</pdfrwt>
<totfact> 0.36581279E+00</totfact>
</mgrwt>
</event>
<event>
12    1  0.1598876E-007  0.2391709E+04  0.7818608E-02  0.8442614E-01
         -2   -1    0    0    0  501 -0.00000000000E+00  0.00000000000E+00  0.17987370403E+04  0.17987370403E+04  0.00000000000E+00 0.  1.
          2   -1    0    0  501    0  0.00000000000E+00 -0.00000000000E+00 -0.79504007973E+03  0.79504007973E+03  0.00000000000E+00 0. -1.
         23    2    1    2    0    0 -0.81412910716E+03  0.46407502301E+03 -0.14984100611E+02  0.94203021310E+03  0.94997731642E+02 0.  0.
        254    2    1    2    0    0  0.81412910716E+03 -0.46407502301E+03  0.10186810612E+04  0.16517469069E+04  0.90132397618E+03 0.  0.
        -24    2    4    4    0    0  0.18136763612E+03  0.19847896533E+03  0.16958742515E+01  0.28054150029E+03  0.80078325937E+02 0.  0.
         24    2    4    4    0    0  0.63276147104E+03 -0.66255398834E+03  0.10169851869E+04  0.13712054066E+04  0.81120466341E+02 0.  0.
         11    1    3    3    0    0 -0.22744023297E+03  0.17737732741E+03  0.93923278974E+01  0.28858272934E+03  0.00000000000E+00 0.  1.
        -11    1    3    3    0    0 -0.58668887419E+03  0.28669769560E+03 -0.24376428509E+02  0.65344748376E+03  0.00000000000E+00 0. -1.
          2    1    6    6  502    0  0.24801964159E+03 -0.31796341434E+03  0.44700919297E+03  0.60202300128E+03  0.00000000000E+00 0. -1.
          3    1    5    5  503    0  0.70954246205E+02  0.31802129471E+02  0.18436673469E+02  0.79911147045E+02  0.00000000000E+00 0. -1.
         -2    1    5    5    0  503  0.11041338992E+03  0.16667683586E+03 -0.16740799217E+02  0.20063035325E+03  0.00000000000E+00 0.  1.
         -1    1    6    6    0  502  0.38474182944E+03 -0.34459057400E+03  0.56997599394E+03  0.76918240534E+03  0.00000000000E+00 0.  1.
<mgrwt>
<rscale>  0 0.23917090E+04</rscale>
<asrwt>0</asrwt>
<pdfrwt beam="1">  1        2 0.12231386E+00 0.23917090E+04</pdfrwt>
<pdfrwt beam="2">  1       -2 0.27672877E+00 0.23917090E+04</pdfrwt>
<totfact> 0.13781266E+00</totfact>
</mgrwt>
</event>
<event>
12    1  0.1598876E-007  0.1609372E+04  0.7818608E-02  0.8814811E-01
         -1   -1    0    0    0  501 -0.00000000000E+00  0.00000000000E+00  0.23809371285E+03  0.23809371285E+03  0.00000000000E+00 0.  1.
          1   -1    0    0  501    0  0.00000000000E+00 -0.00000000000E+00 -0.27195986055E+04  0.27195986055E+04  0.00000000000E+00 0. -1.
         23    2    1    2    0    0 -0.33371614227E+03 -0.19381439911E+03 -0.13433369584E+03  0.41873256057E+03  0.91438124043E+02 0.  0.
        254    2    1    2    0    0  0.33371614227E+03  0.19381439911E+03 -0.23471711968E+04  0.25389597578E+04  0.88779138294E+03 0.  0.
        -24    2    4    4    0    0 -0.15259557114E+03  0.34814601420E+02 -0.17064199140E+04  0.17151489667E+04  0.73277488302E+02 0.  0.
         24    2    4    4    0    0  0.48631171341E+03  0.15899979769E+03 -0.64075128284E+03  0.82381079111E+03  0.79510973022E+02 0.  0.
         11    1    3    3    0    0 -0.13069967080E+03 -0.31270933428E+02 -0.66607087720E+02  0.14998926415E+03  0.00000000000E+00 0.  1.
        -11    1    3    3    0    0 -0.20301647147E+03 -0.16254346569E+03 -0.67726608120E+02  0.26874329642E+03  0.00000000000E+00 0. -1.
          4    1    6    6  502    0  0.25552794002E+03  0.12315377234E+03 -0.37070118117E+03  0.46677697618E+03  0.00000000000E+00 0. -1.
          3    1    5    5  503    0 -0.13513116089E+03  0.15270061717E+01 -0.13116767883E+04  0.13186200208E+04  0.00000000000E+00 0. -1.
         -4    1    5    5    0  503 -0.17464410245E+02  0.33287595249E+02 -0.39474312568E+03  0.39652894584E+03  0.00000000000E+00 0.  1.
         -3    1    6    6    0  502  0.23078377339E+03  0.35846025350E+02 -0.27005010167E+03  0.35703381493E+03  0.00000000000E+00 0.  1.
<mgrwt>
<rscale>  0 0.16093717E+04</rscale>
<asrwt>0</asrwt>
<pdfrwt beam="1">  1        1 0.41839978E+00 0.16093717E+04</pdfrwt>
<pdfrwt beam="2">  1       -1 0.36629803E-01 0.16093717E+04</pdfrwt>
<totfact> 0.65356355E+00</totfact>
</mgrwt>
</event>
<event>
12    1  0.1598876E-007  0.1309545E+04  0.7818608E-02  0.9022030E-01
         -2   -1    0    0    0  501 -0.00000000000E+00  0.00000000000E+00  0.74101928011E+03  0.74101928011E+03  0.00000000000E+00 0. -1.
          2   -1    0    0  501    0  0.00000000000E+00 -0.00000000000E+00 -0.57856397989E+03  0.57856397989E+03  0.00000000000E+00 0.  1.
         23    2    1    2    0    0 -0.26004850190E+03  0.14308292942E+03  0.20432927896E+03  0.37158913817E+03  0.90719817754E+02 0.  0.
        254    2    1    2    0    0  0.26004850190E+03 -0.14308292942E+03 -0.41873978744E+02  0.94799412183E+03  0.89935614575E+03 0.  0.
        -24    2    4    4    0    0 -0.12835196340E+03  0.10733252736E+03 -0.34271220816E+03  0.39081889222E+03  0.85400532519E+02 0.  0.
         24    2    4    4    0    0  0.38840046530E+03 -0.25041545678E+03  0.30083822942E+03  0.55717522961E+03  0.79860965263E+02 0.  0.
         11    1    3    3    0    0 -0.25522878760E+03  0.11986724108E+03  0.20372571387E+03  0.34787074611E+03  0.00000000000E+00 0. -1.
        -11    1    3    3    0    0 -0.48197142972E+01  0.23215688345E+02  0.60356508891E+00  0.23718392063E+02  0.00000000000E+00 0.  1.
          4    1    6    6  502    0  0.17337872570E+03 -0.77414139665E+02  0.15454199553E+03  0.24481903506E+03  0.00000000000E+00 0. -1.
          1    1    5    5  503    0 -0.12149120533E+03  0.10153319726E+03 -0.34658332410E+03  0.38103687967E+03  0.00000000000E+00 0. -1.
         -2    1    5    5    0  503 -0.68607580675E+01  0.57993301053E+01  0.38711159442E+01  0.97820125529E+01  0.00000000000E+00 0.  1.
         -3    1    6    6    0  502  0.21502173960E+03 -0.17300131712E+03  0.14629623389E+03  0.31235619455E+03  0.00000000000E+00 0.  1.
<mgrwt>
<rscale>  0 0.13095451E+04</rscale>
<asrwt>0</asrwt>
<pdfrwt beam="1">  1        2 0.89009843E-01 0.13095451E+04</pdfrwt>
<pdfrwt beam="2">  1       -2 0.11400297E+00 0.13095451E+04</pdfrwt>
<totfact> 0.30572131E+01</totfact>
</mgrwt>
</event>
<event>
12    1  0.1598876E-007  0.1584846E+04  0.7818608E-02  0.8829912E-01
         -2   -1    0    0    0  501 -0.00000000000E+00  0.00000000000E+00  0.59216850706E+03  0.59216850706E+03  0.00000000000E+00 0.  1.
          2   -1    0    0  501    0  0.00000000000E+00 -0.00000000000E+00 -0.10603979810E+04  0.10603979810E+04  0.00000000000E+00 0. -1.
         23    2    1    2    0    0  0.18087575633E+03 -0.38696007708E+03 -0.50242447326E+03  0.66569237744E+03  0.90894716966E+02 0.  0.
        254    2    1    2    0    0 -0.18087575633E+03  0.38696007708E+03  0.34194999348E+02  0.98687411058E+03  0.88898654190E+03 0.  0.
        -24    2    4    4    0    0  0.26792573700E+02  0.63952708024E+03 -0.23960215309E+02  0.64545466577E+03  0.79529273140E+02 0.  0.
         24    2    4    4    0    0 -0.20766833002E+03 -0.25256700316E+03  0.58155214656E+02  0.34141944481E+03  0.79176902716E+02 0.  0.
         13    1    3    3    0    0  0.24318699710E+02 -0.95904188731E+02 -0.17155374213E+03  0.19803964000E+03  0.00000000000E+00 0.  1.
        -13    1    3    3    0    0  0.15655705661E+03 -0.29105588835E+03 -0.33087073112E+03  0.46765273744E+03  0.00000000000E+00 0. -1.
          4    1    6    6  502    0 -0.60293393541E+02 -0.41054965380E+02 -0.12759782393E+02  0.74051438432E+02  0.00000000000E+00 0. -1.
          3    1    5    5  503    0 -0.13637667797E+02  0.12574644940E+03 -0.30235781391E+02  0.13004752206E+03  0.00000000000E+00 0. -1.
         -4    1    5    5    0  503  0.40430241496E+02  0.51378063084E+03  0.62755660818E+01  0.51540714371E+03  0.00000000000E+00 0.  1.
         -3    1    6    6    0  502 -0.14737493648E+03 -0.21151203778E+03  0.70914997050E+02  0.26736800638E+03  0.00000000000E+00 0.  1.
<mgrwt>
<rscale>  0 0.15848461E+04</rscale>
<asrwt>0</asrwt>
<pdfrwt beam="1">  1        2 0.16313815E+00 0.15848461E+04</pdfrwt>
<pdfrwt beam="2">  1       -2 0.91102847E-01 0.15848461E+04</pdfrwt>
<totfact> 0.22749819E+01</totfact>
</mgrwt>
</event>
<event>
12    1  0.1598876E-007  0.4062168E+04  0.7818608E-02  0.7992121E-01
         -2   -1    0    0    0  501 -0.00000000000E+00  0.00000000000E+00  0.11008287511E+04  0.11008287511E+04  0.00000000000E+00 0.  1.
          2   -1    0    0  501    0  0.00000000000E+00 -0.00000000000E+00 -0.37474520741E+04  0.37474520741E+04  0.00000000000E+00 0. -1.
         23    2    1    2    0    0 -0.10698328453E+04  0.98878670453E+03 -0.27714427978E+04  0.31323631641E+04  0.92532949723E+02 0.  0.
        254    2    1    2    0    0  0.10698328453E+04 -0.98878670453E+03  0.12481947484E+03  0.17159176611E+04  0.89808243192E+03 0.  0.
        -24    2    4    4    0    0  0.47349805979E+03  0.51957543569E+02 -0.97802327830E+02  0.49331219776E+03  0.83015842916E+02 0.  0.
         24    2    4    4    0    0  0.59633478547E+03 -0.10407442481E+04  0.22262180267E+03  0.12226054633E+04  0.80248898098E+02 0.  0.
         11    1    3    3    0    0 -0.71599229104E+03  0.67355214318E+03 -0.19592652507E+04  0.21920396376E+04  0.00000000000E+00 0.  1.
        -11    1    3    3    0    0 -0.35384055422E+03  0.31523456135E+03 -0.81217754709E+03  0.94032352649E+03  0.00000000000E+00 0. -1.
          4    1    6    6  502    0  0.27360496098E+03 -0.44461399949E+03  0.13379582611E+03  0.53892727366E+03  0.00000000000E+00 0. -1.
          3    1    5    5  503    0  0.27746226833E+03  0.56074016211E+02 -0.25075279597E+02  0.28418018102E+03  0.00000000000E+00 0. -1.
         -4    1    5    5    0  503  0.19603579146E+03 -0.41164726428E+01 -0.72727048233E+02  0.20913201674E+03  0.00000000000E+00 0.  1.
         -3    1    6    6    0  502  0.32272982449E+03 -0.59613024861E+03  0.88825976556E+02  0.68367818967E+03  0.00000000000E+00 0.  1.
<mgrwt>
<rscale>  0 0.40621684E+04</rscale>
<asrwt>0</asrwt>
<pdfrwt beam="1">  1        2 0.57653109E+00 0.40621684E+04</pdfrwt>
<pdfrwt beam="2">  1       -2 0.16935827E+00 0.40621684E+04</pdfrwt>
<totfact> 0.90733723E-02</totfact>
</mgrwt>
</event>
<event>
12    1  0.1598876E-007  0.2213432E+04  0.7818608E-02  0.8512858E-01
          2   -1    0    0  501    0  0.00000000000E+00  0.00000000000E+00  0.23253107047E+04  0.23253107047E+04  0.00000000000E+00 0.  1.
         -2   -1    0    0    0  501 -0.00000000000E+00 -0.00000000000E+00 -0.52673426309E+03  0.52673426309E+03  0.00000000000E+00 0. -1.
         23    2    1    2    0    0  0.79105727695E+03  0.10018243932E+03  0.16256991152E+03  0.81983780387E+03  0.99483224548E+02 0.  0.
        254    2    1    2    0    0 -0.79105727695E+03 -0.10018243932E+03  0.16360065301E+04  0.20322071640E+04  0.90417943688E+03 0.  0.
        -24    2    4    4    0    0 -0.88321821998E+02 -0.39075819533E+03  0.80492490612E+03  0.90273724762E+03  0.80856182764E+02 0.  0.
         24    2    4    4    0    0 -0.70273545495E+03  0.29057575601E+03  0.83108162401E+03  0.11294699163E+04  0.82062394144E+02 0.  0.
         11    1    3    3    0    0  0.60668713617E+03  0.59757320622E+02  0.16318822821E+03  0.63108685329E+03  0.00000000000E+00 0. -1.
        -11    1    3    3    0    0  0.18437014078E+03  0.40425118695E+02 -0.61831669241E+00  0.18875095059E+03  0.00000000000E+00 0.  1.
          2    1    6    6  502    0 -0.58915687431E+02  0.73570152801E+01  0.43955953859E+02  0.73873606782E+02  0.00000000000E+00 0. -1.
          3    1    5    5  503    0  0.73669682279E+01 -0.65765679562E+02  0.91130408674E+02  0.11262392381E+03  0.00000000000E+00 0. -1.
         -4    1    5    5    0  503 -0.95688790226E+02 -0.32499251576E+03  0.71379449744E+03  0.79011332381E+03  0.00000000000E+00 0.  1.
         -1    1    6    6    0  502 -0.64381976752E+03  0.28321874073E+03  0.78712567016E+03  0.10555963096E+04  0.00000000000E+00 0.  1.
<mgrwt>
<rscale>  0 0.22134325E+04</rscale>
<asrwt>0</asrwt>
<pdfrwt beam="1">  1        2 0.35774010E+00 0.22134325E+04</pdfrwt>
<pdfrwt beam="2">  1       -2 0.81036042E-01 0.22134325E+04</pdfrwt>
<totfact> 0.53766607E+00</totfact>
</mgrwt>
</event>
<event>
12    1  0.1598876E-007  0.3548953E+04  0.7818608E-02  0.8102286E-01
          2   -1    0    0  501    0  0.00000000000E+00  0.00000000000E+00  0.14282503052E+04  0.14282503052E+04  0.00000000000E+00 0. -1.
         -2   -1    0    0    0  501 -0.00000000000E+00 -0.00000000000E+00 -0.22046329679E+04  0.22046329679E+04  0.00000000000E+00 0.  1.
         23    2    1    2    0    0 -0.57899546528E+03 -0.47757837202E+02  0.12252299007E+04  0.13590411600E+04  0.91038482204E+02 0.  0.
        254    2    1    2    0    0  0.57899546528E+03  0.47757837202E+02 -0.20016125634E+04  0.22738421130E+04  0.90905915144E+03 0.  0.
        -24    2    4    4    0    0  0.11738196132E+02 -0.25637041230E+02 -0.15186081550E+04  0.15209261666E+04  0.79060943046E+02 0.  0.
         24    2    4    4    0    0  0.56725726915E+03  0.73394878432E+02 -0.48300440845E+03  0.75291594639E+03  0.80134550344E+02 0.  0.
         13    1    3    3    0    0 -0.10082862977E+03 -0.43575256288E+02  0.22405696852E+03  0.24953304528E+03  0.00000000000E+00 0.  1.
        -13    1    3    3    0    0 -0.47816683551E+03 -0.41825809137E+01  0.10011729322E+04  0.11095081148E+04  0.00000000000E+00 0. -1.
          2    1    6    6  502    0  0.50980690349E+03  0.48865297185E+02 -0.40467343217E+03  0.65272619285E+03  0.00000000000E+00 0. -1.
          3    1    5    5  503    0 -0.29306824624E+02 -0.64591701609E+01 -0.96529676305E+03  0.96576314467E+03  0.00000000000E+00 0. -1.
         -4    1    5    5    0  503  0.41045020756E+02 -0.19177871070E+02 -0.55331139192E+03  0.55516302191E+03  0.00000000000E+00 0.  1.
         -1    1    6    6    0  502  0.57450365651E+02  0.24529581247E+02 -0.78330976279E+02  0.10018975354E+03  0.00000000000E+00 0.  1.
<mgrwt>
<rscale>  0 0.35489535E+04</rscale>
<asrwt>0</asrwt>
<pdfrwt beam="1">  1        2 0.21973082E+00 0.35489535E+04</pdfrwt>
<pdfrwt beam="2">  1       -2 0.33917430E+00 0.35489535E+04</pdfrwt>
<totfact> 0.20756478E-01</totfact>
</mgrwt>
</event>
<event>
12    1  0.1598876E-007  0.2054731E+04  0.7818608E-02  0.8581451E-01
          1   -1    0    0  501    0  0.00000000000E+00  0.00000000000E+00  0.15558093638E+04  0.15558093638E+04  0.00000000000E+00 0. -1.
         -1   -1    0    0    0  501 -0.00000000000E+00 -0.00000000000E+00 -0.67841207182E+03  0.67841207182E+03  0.00000000000E+00 0.  1.
         23    2    1    2    0    0 -0.63094456417E+03  0.52588998241E+03  0.25272789129E+03  0.86487732572E+03  0.97417066505E+02 0.  0.
        254    2    1    2    0    0  0.63094456417E+03 -0.52588998241E+03  0.62466940067E+03  0.13693441099E+04  0.90013338704E+03 0.  0.
        -24    2    4    4    0    0  0.26362171221E+03 -0.70050301088E+03  0.58467621701E+03  0.95317021154E+03  0.80537556673E+02 0.  0.
         24    2    4    4    0    0  0.36732285196E+03  0.17461302847E+03  0.39993183669E+02  0.41617389834E+03  0.78647769416E+02 0.  0.
         13    1    3    3    0    0 -0.55307775563E+03  0.49813567974E+03  0.23200745441E+03  0.77965480702E+03  0.00000000000E+00 0.  1.
        -13    1    3    3    0    0 -0.77866808538E+02  0.27754302669E+02  0.20720436885E+02  0.85222518698E+02  0.00000000000E+00 0. -1.
          2    1    6    6  502    0  0.51407500489E+02 -0.35330919482E+01  0.68044107849E+01  0.51976089228E+02  0.00000000000E+00 0. -1.
          3    1    5    5  503    0  0.92693623845E+02 -0.15417651651E+03  0.12594181886E+03  0.21959928935E+03  0.00000000000E+00 0. -1.
         -4    1    5    5    0  503  0.17092808837E+03 -0.54632649437E+03  0.45873439815E+03  0.73357092219E+03  0.00000000000E+00 0.  1.
         -1    1    6    6    0  502  0.31591535147E+03  0.17814612042E+03  0.33188772884E+02  0.36419780911E+03  0.00000000000E+00 0.  1.
<mgrwt>
<rscale>  0 0.20547310E+04</rscale>
<asrwt>0</asrwt>
<pdfrwt beam="1">  1        1 0.23935529E+00 0.20547310E+04</pdfrwt>
<pdfrwt beam="2">  1       -1 0.10437109E+00 0.20547310E+04</pdfrwt>
<totfact> 0.47706977E+00</totfact>
</mgrwt>
</event>
<event>
12    1  0.1598876E-007  0.2963437E+04  0.7818608E-02  0.8254249E-01
          2   -1    0    0  501    0  0.00000000000E+00  0.00000000000E+00  0.16906160505E+04  0.16906160505E+04  0.00000000000E+00 0. -1.
         -2   -1    0    0    0  501 -0.00000000000E+00 -0.00000000000E+00 -0.12986326477E+04  0.12986326477E+04  0.00000000000E+00 0.  1.
         23    2    1    2    0    0  0.63718640962E+03  0.53057695403E+03  0.12519288537E+04  0.15043861406E+04  0.91287351123E+02 0.  0.
        254    2    1    2    0    0 -0.63718640962E+03 -0.53057695403E+03 -0.85994545092E+03  0.14848625576E+04  0.88192528684E+03 0.  0.
        -24    2    4    4    0    0 -0.13424882761E+03 -0.48116612344E+03 -0.25827758583E+02  0.50627793641E+03  0.78145311578E+02 0.  0.
         24    2    4    4    0    0 -0.50293758201E+03 -0.49410830587E+02 -0.83411769234E+03  0.97858462116E+03  0.80547467492E+02 0.  0.
         11    1    3    3    0    0  0.25646910676E+03  0.15666225223E+03  0.44627479889E+03  0.53803406967E+03  0.00000000000E+00 0. -1.
        -11    1    3    3    0    0  0.38071730286E+03  0.37391470180E+03  0.80565405481E+03  0.96635207091E+03  0.00000000000E+00 0.  1.
          4    1    6    6  502    0 -0.27163024940E+03 -0.34860650404E+02 -0.52611471613E+03  0.59312304952E+03  0.00000000000E+00 0. -1.
          3    1    5    5  503    0 -0.23648828653E+02 -0.23828965615E+02 -0.11676016496E+02  0.35544564425E+02  0.00000000000E+00 0. -1.
         -2    1    5    5    0  503 -0.11059999896E+03 -0.45733715783E+03 -0.14151742088E+02  0.47073337199E+03  0.00000000000E+00 0.  1.
         -3    1    6    6    0  502 -0.23130733260E+03 -0.14550180183E+02 -0.30800297621E+03  0.38546157164E+03  0.00000000000E+00 0.  1.
<mgrwt>
<rscale>  0 0.29634367E+04</rscale>
<asrwt>0</asrwt>
<pdfrwt beam="1">  1        2 0.26009478E+00 0.29634367E+04</pdfrwt>
<pdfrwt beam="2">  1       -2 0.19978964E+00 0.29634367E+04</pdfrwt>
<totfact> 0.11371740E+00</totfact>
</mgrwt>
</event>
<event>
12    1  0.1598876E-007  0.1959429E+04  0.7818608E-02  0.8625827E-01
          2   -1    0    0  501    0  0.00000000000E+00  0.00000000000E+00  0.22930784489E+04  0.22930784489E+04  0.00000000000E+00 0. -1.
         -2   -1    0    0    0  501 -0.00000000000E+00 -0.00000000000E+00 -0.41858175867E+03  0.41858175867E+03  0.00000000000E+00 0.  1.
         23    2    1    2    0    0  0.79222580499E+02  0.14215278766E+03 -0.30097414304E+03  0.35486373151E+03  0.94123327926E+02 0.  0.
        254    2    1    2    0    0 -0.79222580499E+02 -0.14215278766E+03  0.21754708333E+04  0.23567964761E+04  0.89181424684E+03 0.  0.
        -24    2    4    4    0    0 -0.60372444606E+02 -0.70284731473E+02  0.22310879593E+04  0.22344454234E+04  0.80050559746E+02 0.  0.
         24    2    4    4    0    0 -0.18850135893E+02 -0.71868056187E+02 -0.55617126037E+02  0.12235105273E+03  0.79725593590E+02 0.  0.
         11    1    3    3    0    0 -0.14176122075E+02  0.56451092614E+02 -0.12605224126E+03  0.13884111718E+03  0.00000000000E+00 0. -1.
        -11    1    3    3    0    0  0.93398702575E+02  0.85701695046E+02 -0.17492190178E+03  0.21602261432E+03  0.00000000000E+00 0.  1.
          2    1    6    6  502    0 -0.69718764434E+01 -0.77751921003E+02 -0.14824863215E+02  0.79459076575E+02  0.00000000000E+00 0. -1.
          1    1    5    5  503    0 -0.20792673160E+02  0.11312362424E+02  0.87940275700E+03  0.87972127053E+03  0.00000000000E+00 0. -1.
         -2    1    5    5    0  503 -0.39579771446E+02 -0.81597093897E+02  0.13516852023E+04  0.13547241528E+04  0.00000000000E+00 0.  1.
         -1    1    6    6    0  502 -0.11878259450E+02  0.58838648159E+01 -0.40792262822E+02  0.42891976159E+02  0.00000000000E+00 0.  1.
<mgrwt>
<rscale>  0 0.19594293E+04</rscale>
<asrwt>0</asrwt>
<pdfrwt beam="1">  1        2 0.35278129E+00 0.19594293E+04</pdfrwt>
<pdfrwt beam="2">  1       -2 0.64397195E-01 0.19594293E+04</pdfrwt>
<totfact> 0.94997240E+00</totfact>
</mgrwt>
</event>
<event>
12    1  0.1598876E-007  0.1668791E+04  0.7818608E-02  0.8779367E-01
         -4   -1    0    0    0  501 -0.00000000000E+00  0.00000000000E+00  0.13877956227E+04  0.13877956227E+04  0.00000000000E+00 0.  1.
          4   -1    0    0  501    0  0.00000000000E+00 -0.00000000000E+00 -0.50167034125E+03  0.50167034125E+03  0.00000000000E+00 0. -1.
         23    2    1    2    0    0 -0.38699103300E+03 -0.96274358846E+02 -0.17139531354E+03  0.44382161246E+03  0.92576770252E+02 0.  0.
        254    2    1    2    0    0  0.38699103300E+03  0.96274358846E+02  0.10575205950E+04  0.14456443515E+04  0.90139168530E+03 0.  0.
        -24    2    4    4    0    0  0.10344536634E+03  0.91201375077E+02 -0.14063106278E+03  0.21182991802E+03  0.77949879518E+02 0.  0.
         24    2    4    4    0    0  0.28354566665E+03  0.50729837691E+01  0.11981516577E+04  0.12338144334E+04  0.79415243817E+02 0.  0.
         13    1    3    3    0    0 -0.34274877248E+03 -0.51909797792E+02 -0.14828406244E+03  0.37704046377E+03  0.00000000000E+00 0. -1.
        -13    1    3    3    0    0 -0.44242260515E+02 -0.44364561054E+02 -0.23111251104E+02  0.66781148692E+02  0.00000000000E+00 0.  1.
          2    1    6    6  502    0  0.42871640754E+02 -0.25699512749E+02  0.26237320922E+03  0.26709201308E+03  0.00000000000E+00 0. -1.
          3    1    5    5  503    0  0.78835324734E+02  0.24022745921E+02 -0.50122597436E+02  0.96459190963E+02  0.00000000000E+00 0. -1.
         -4    1    5    5    0  503  0.24610041609E+02  0.67178629156E+02 -0.90508465346E+02  0.11537072706E+03  0.00000000000E+00 0.  1.
         -1    1    6    6    0  502  0.24067402590E+03  0.30772496518E+02  0.93577844852E+03  0.96672242035E+03  0.00000000000E+00 0.  1.
<mgrwt>
<rscale>  0 0.16687911E+04</rscale>
<asrwt>0</asrwt>
<pdfrwt beam="1">  1        4 0.77180053E-01 0.16687911E+04</pdfrwt>
<pdfrwt beam="2">  1       -4 0.21350702E+00 0.16687911E+04</pdfrwt>
<totfact> 0.30852394E-01</totfact>
</mgrwt>
</event>
<event>
12    1  0.1598876E-007  0.1382307E+04  0.7818608E-02  0.8966726E-01
          1   -1    0    0  501    0  0.00000000000E+00  0.00000000000E+00  0.36601444763E+03  0.36601444763E+03  0.00000000000E+00 0. -1.
         -1   -1    0    0    0  501 -0.00000000000E+00 -0.00000000000E+00 -0.13051201465E+04  0.13051201465E+04  0.00000000000E+00 0.  1.
         23    2    1    2    0    0 -0.23454649341E+03 -0.26118670147E+03 -0.71893592307E+02  0.36935480917E+03  0.89575308227E+02 0.  0.
        254    2    1    2    0    0  0.23454649341E+03  0.26118670147E+03 -0.86721210657E+03  0.13017797850E+04  0.90517579518E+03 0.  0.
        -24    2    4    4    0    0 -0.58930625656E+02 -0.23563874688E+03  0.17257801923E+01  0.25561672639E+03  0.79614664627E+02 0.  0.
         24    2    4    4    0    0  0.29347711907E+03  0.49682544835E+03 -0.86893788677E+03  0.10461630586E+04  0.80248043831E+02 0.  0.
         11    1    3    3    0    0 -0.22800991559E+03 -0.26266606791E+03 -0.56259974714E+02  0.35234524204E+03  0.00000000000E+00 0. -1.
        -11    1    3    3    0    0 -0.65365778261E+01  0.14793664368E+01 -0.15633617594E+02  0.17009567125E+02  0.00000000000E+00 0.  1.
          2    1    6    6  502    0  0.11972204043E+03  0.27203971384E+03 -0.47850997888E+03  0.56330344642E+03  0.00000000000E+00 0. -1.
          3    1    5    5  503    0 -0.64814591842E+01 -0.13413152001E+03  0.30680329364E+02  0.13774816363E+03  0.00000000000E+00 0. -1.
         -4    1    5    5    0  503 -0.52449166472E+02 -0.10150722687E+03 -0.28954549172E+02  0.11786856276E+03  0.00000000000E+00 0.  1.
         -1    1    6    6    0  502  0.17375507864E+03  0.22478573451E+03 -0.39042790789E+03  0.48285961216E+03  0.00000000000E+00 0.  1.
<mgrwt>
<rscale>  0 0.13823065E+04</rscale>
<asrwt>0</asrwt>
<pdfrwt beam="1">  1        1 0.56309915E-01 0.13823065E+04</pdfrwt>
<pdfrwt beam="2">  1       -1 0.20078772E+00 0.13823065E+04</pdfrwt>
<totfact> 0.97968086E+00</totfact>
</mgrwt>
</event>
<event>
12    1  0.1598876E-007  0.1707043E+04  0.7818608E-02  0.8757358E-01
         -1   -1    0    0    0  501 -0.00000000000E+00  0.00000000000E+00  0.97368381016E+03  0.97368381016E+03  0.00000000000E+00 0.  1.
          1   -1    0    0  501    0  0.00000000000E+00 -0.00000000000E+00 -0.74818817281E+03  0.74818817281E+03  0.00000000000E+00 0. -1.
         23    2    1    2    0    0  0.30893495631E+03  0.89783013427E+02 -0.44000514380E+03  0.55233309787E+03  0.89249805081E+02 0.  0.
        254    2    1    2    0    0 -0.30893495631E+03 -0.89783013427E+02  0.66550078115E+03  0.11695388851E+04  0.90632671666E+03 0.  0.
        -24    2    4    4    0    0  0.15007379110E+03 -0.21594706527E+03 -0.75141459703E+02  0.28541699045E+03  0.81617042930E+02 0.  0.
         24    2    4    4    0    0 -0.45900874741E+03  0.12616405184E+03  0.74064224086E+03  0.88412189465E+03  0.80710578521E+02 0.  0.
         11    1    3    3    0    0  0.51613874281E+02  0.38388331606E+02 -0.46541266640E+02  0.79396130398E+02  0.00000000000E+00 0.  1.
        -11    1    3    3    0    0  0.25732108202E+03  0.51394681822E+02 -0.39346387716E+03  0.47293696747E+03  0.00000000000E+00 0. -1.
          4    1    6    6  502    0 -0.21066743561E+02  0.12197285914E+02  0.77941549083E+02  0.81654556158E+02  0.00000000000E+00 0. -1.
          3    1    5    5  503    0  0.13449908441E+02 -0.46787161948E+02 -0.44257073006E+02  0.65792302523E+02  0.00000000000E+00 0. -1.
         -4    1    5    5    0  503  0.13662388266E+03 -0.16915990332E+03 -0.30884386697E+02  0.21962468793E+03  0.00000000000E+00 0.  1.
         -3    1    6    6    0  502 -0.43794200385E+03  0.11396676593E+03  0.66270069177E+03  0.80246733849E+03  0.00000000000E+00 0.  1.
<mgrwt>
<rscale>  0 0.17070427E+04</rscale>
<asrwt>0</asrwt>
<pdfrwt beam="1">  1        1 0.11510587E+00 0.17070427E+04</pdfrwt>
<pdfrwt beam="2">  1       -1 0.14979751E+00 0.17070427E+04</pdfrwt>
<totfact> 0.81884114E+00</totfact>
</mgrwt>
</event>
<event>
12    1  0.1598876E-007  0.1796908E+04  0.7818608E-02  0.8707945E-01
          1   -1    0    0  501    0  0.00000000000E+00  0.00000000000E+00  0.99763043742E+03  0.99763043742E+03  0.00000000000E+00 0. -1.
         -1   -1    0    0    0  501 -0.00000000000E+00 -0.00000000000E+00 -0.80913693671E+03  0.80913693671E+03  0.00000000000E+00 0.  1.
         23    2    1    2    0    0 -0.39718173517E+03 -0.30478586332E+03 -0.37261017537E+03  0.63058727992E+03  0.90300728580E+02 0.  0.
        254    2    1    2    0    0  0.39718173517E+03  0.30478586332E+03  0.56110367608E+03  0.11761800942E+04  0.90438627007E+03 0.  0.
        -24    2    4    4    0    0 -0.21704498616E+03  0.23065774387E+02  0.42238974879E+03  0.48187687530E+03  0.78432564073E+02 0.  0.
         24    2    4    4    0    0  0.61422672133E+03  0.28172008893E+03  0.13871392729E+03  0.69430321891E+03  0.78579465933E+02 0.  0.
         13    1    3    3    0    0 -0.33153062471E+03 -0.22913798725E+03 -0.25867336286E+03  0.47888274241E+03  0.00000000000E+00 0.  1.
        -13    1    3    3    0    0 -0.65651110455E+02 -0.75647876066E+02 -0.11393681251E+03  0.15170453751E+03  0.00000000000E+00 0. -1.
          4    1    6    6  502    0  0.44431996074E+03  0.24022682536E+03  0.93958921610E+02  0.51376787958E+03  0.00000000000E+00 0. -1.
          3    1    5    5  503    0 -0.24325997644E+01 -0.12864212531E+02  0.14231316416E+02  0.19337421560E+02  0.00000000000E+00 0. -1.
         -4    1    5    5    0  503 -0.21461238640E+03  0.35929986918E+02  0.40815843237E+03  0.46253945374E+03  0.00000000000E+00 0.  1.
         -3    1    6    6    0  502  0.16990676059E+03  0.41493263568E+02  0.44755005679E+02  0.18053533933E+03  0.00000000000E+00 0.  1.
<mgrwt>
<rscale>  0 0.17969081E+04</rscale>
<asrwt>0</asrwt>
<pdfrwt beam="1">  1        1 0.15348161E+00 0.17969081E+04</pdfrwt>
<pdfrwt beam="2">  1       -1 0.12448261E+00 0.17969081E+04</pdfrwt>
<totfact> 0.81112631E+00</totfact>
</mgrwt>
</event>
<event>
12    1  0.1598876E-007  0.2321466E+04  0.7818608E-02  0.8469505E-01
          2   -1    0    0  501    0  0.00000000000E+00  0.00000000000E+00  0.25235077598E+04  0.25235077598E+04  0.00000000000E+00 0. -1.
         -2   -1    0    0    0  501 -0.00000000000E+00 -0.00000000000E+00 -0.53390001147E+03  0.53390001147E+03  0.00000000000E+00 0.  1.
         23    2    1    2    0    0  0.90500329069E+02  0.68567798939E+03 -0.80101407386E+02  0.70209269967E+03  0.90406353618E+02 0.  0.
        254    2    1    2    0    0 -0.90500329069E+02 -0.68567798939E+03  0.20697091557E+04  0.23553150716E+04  0.88626659788E+03 0.  0.
        -24    2    4    4    0    0  0.20950692966E+03 -0.74945188480E+03  0.12259417232E+04  0.14540460795E+04  0.75799811411E+02 0.  0.
         24    2    4    4    0    0 -0.30000725872E+03  0.63773895407E+02  0.84376743251E+03  0.90126899209E+03  0.79188704493E+02 0.  0.
         11    1    3    3    0    0  0.89514719570E+02  0.65271781988E+03 -0.55909512825E+02  0.66119536525E+03  0.00000000000E+00 0.  1.
        -11    1    3    3    0    0  0.98560949926E+00  0.32960169511E+02 -0.24191894562E+02  0.40897334421E+02  0.00000000000E+00 0. -1.
          4    1    6    6  502    0 -0.24153841534E+02  0.30324145647E+02  0.95210241624E+02  0.10280054465E+03  0.00000000000E+00 0. -1.
          1    1    5    5  503    0  0.10846026216E+03 -0.25365217751E+03  0.42944217925E+03  0.51041516527E+03  0.00000000000E+00 0. -1.
         -2    1    5    5    0  503  0.10104666750E+03 -0.49579970729E+03  0.79649954397E+03  0.94363091424E+03  0.00000000000E+00 0.  1.
         -3    1    6    6    0  502 -0.27585341719E+03  0.33449749760E+02  0.74855719089E+03  0.79846844744E+03  0.00000000000E+00 0.  1.
<mgrwt>
<rscale>  0 0.23214658E+04</rscale>
<asrwt>0</asrwt>
<pdfrwt beam="1">  1        2 0.38823196E+00 0.23214658E+04</pdfrwt>
<pdfrwt beam="2">  1       -2 0.82138465E-01 0.23214658E+04</pdfrwt>
<totfact> 0.39760042E+00</totfact>
</mgrwt>
</event>
<event>
12    1  0.1598876E-007  0.1609342E+04  0.7818608E-02  0.8814829E-01
         -2   -1    0    0    0  501 -0.00000000000E+00  0.00000000000E+00  0.46719726365E+03  0.46719726365E+03  0.00000000000E+00 0. -1.
          2   -1    0    0  501    0  0.00000000000E+00 -0.00000000000E+00 -0.13859143344E+04  0.13859143344E+04  0.00000000000E+00 0.  1.
         23    2    1    2    0    0 -0.20498277489E+01  0.22156161722E+03 -0.88490062695E+03  0.91670920092E+03  0.90624982549E+02 0.  0.
        254    2    1    2    0    0  0.20498277489E+01 -0.22156161722E+03 -0.33816443847E+02  0.93640239717E+03  0.90918213001E+03 0.  0.
        -24    2    4    4    0    0 -0.10229271378E+03 -0.53147194729E+03  0.12991617238E+03  0.56226828542E+03  0.79631544560E+02 0.  0.
         24    2    4    4    0    0  0.10434254153E+03  0.30991033008E+03 -0.16373261623E+03  0.37413411175E+03  0.78969521344E+02 0.  0.
         11    1    3    3    0    0  0.30406392020E+02  0.87091782670E+02 -0.23951341236E+03  0.25666359692E+03  0.00000000000E+00 0. -1.
        -11    1    3    3    0    0 -0.32456219769E+02  0.13446983455E+03 -0.64538721459E+03  0.66004560400E+03  0.00000000000E+00 0.  1.
          4    1    6    6  502    0  0.12700361213E+02  0.42696330257E+02  0.54156355080E+01  0.44873209160E+02  0.00000000000E+00 0. -1.
          3    1    5    5  503    0 -0.66225794789E+02 -0.15127439193E+03  0.41015968867E+02  0.17015318760E+03  0.00000000000E+00 0. -1.
         -4    1    5    5    0  503 -0.36066918990E+02 -0.38019755537E+03  0.88900203513E+02  0.39211509782E+03  0.00000000000E+00 0.  1.
         -3    1    6    6    0  502  0.91642180315E+02  0.26721399982E+03 -0.16914825174E+03  0.32926090259E+03  0.00000000000E+00 0.  1.
<mgrwt>
<rscale>  0 0.16093420E+04</rscale>
<asrwt>0</asrwt>
<pdfrwt beam="1">  1        2 0.21321759E+00 0.16093420E+04</pdfrwt>
<pdfrwt beam="2">  1       -2 0.71876502E-01 0.16093420E+04</pdfrwt>
<totfact> 0.24780478E+01</totfact>
</mgrwt>
</event>
<event>
12    1  0.1598876E-007  0.1680368E+04  0.7818608E-02  0.8772641E-01
         -3   -1    0    0    0  501 -0.00000000000E+00  0.00000000000E+00  0.13391036151E+04  0.13391036151E+04  0.00000000000E+00 0.  1.
          3   -1    0    0  501    0  0.00000000000E+00 -0.00000000000E+00 -0.52715027262E+03  0.52715027262E+03  0.00000000000E+00 0. -1.
         23    2    1    2    0    0  0.19986075305E+03  0.29487833094E+03  0.84226568209E+03  0.91779473604E+03  0.77705518586E+02 0.  0.
        254    2    1    2    0    0 -0.19986075305E+03 -0.29487833094E+03 -0.30312339652E+02  0.94845915163E+03  0.87849779380E+03 0.  0.
        -24    2    4    4    0    0 -0.53617225726E+03 -0.15625861239E+03 -0.91131411789E+02  0.57139878561E+03  0.79335960258E+02 0.  0.
         24    2    4    4    0    0  0.33631150421E+03 -0.13861971855E+03  0.60819072138E+02  0.37706036602E+03  0.78451933374E+02 0.  0.
         11    1    3    3    0    0  0.14352051689E+03  0.25369225049E+03  0.72403903234E+03  0.78050651316E+03  0.00000000000E+00 0.  1.
        -11    1    3    3    0    0  0.56340236155E+02  0.41186080449E+02  0.11822664975E+03  0.13728822289E+03  0.00000000000E+00 0. -1.
          4    1    6    6  502    0  0.26110449752E+03 -0.12816241476E+03  0.21767701187E+02  0.29167618346E+03  0.00000000000E+00 0. -1.
          1    1    5    5  503    0 -0.45434489291E+03 -0.10128313556E+03 -0.74073877940E+02  0.47135389535E+03  0.00000000000E+00 0. -1.
         -4    1    5    5    0  503 -0.81827364343E+02 -0.54975476827E+02 -0.17057533849E+02  0.10004489027E+03  0.00000000000E+00 0.  1.
         -3    1    6    6    0  502  0.75207006690E+02 -0.10457303788E+02  0.39051370950E+02  0.85384182557E+02  0.00000000000E+00 0.  1.
<mgrwt>
<rscale>  0 0.16803676E+04</rscale>
<asrwt>0</asrwt>
<pdfrwt beam="1">  1        3 0.81100043E-01 0.16803676E+04</pdfrwt>
<pdfrwt beam="2">  1       -3 0.20601594E+00 0.16803676E+04</pdfrwt>
<totfact> 0.47250327E-01</totfact>
</mgrwt>
</event>
<event>
12    1  0.1598876E-007  0.1336833E+04  0.7818608E-02  0.9000856E-01
          1   -1    0    0  501    0  0.00000000000E+00  0.00000000000E+00  0.17248390013E+04  0.17248390013E+04  0.00000000000E+00 0. -1.
         -1   -1    0    0    0  501 -0.00000000000E+00 -0.00000000000E+00 -0.25902727664E+03  0.25902727664E+03  0.00000000000E+00 0.  1.
         23    2    1    2    0    0 -0.14549580512E+03  0.11551977325E+02 -0.77722736500E+02  0.18934594840E+03  0.92242001912E+02 0.  0.
        254    2    1    2    0    0  0.14549580512E+03 -0.11551977325E+02  0.15435344611E+04  0.17945203295E+04  0.90360505911E+03 0.  0.
        -24    2    4    4    0    0 -0.36084249557E+03 -0.50530227200E+02  0.43772693319E+03  0.57509197760E+03  0.79782856475E+02 0.  0.
         24    2    4    4    0    0  0.50633830069E+03  0.38978249875E+02  0.11058075279E+04  0.12194283519E+04  0.79356397959E+02 0.  0.
         11    1    3    3    0    0 -0.88810805117E+02 -0.20950958222E+02 -0.83580275358E+02  0.12374152167E+03  0.00000000000E+00 0.  1.
        -11    1    3    3    0    0 -0.56685000005E+02  0.32502935547E+02  0.58575388585E+01  0.65604426728E+02  0.00000000000E+00 0. -1.
          4    1    6    6  502    0  0.48592987144E+03  0.25738366668E+02  0.10181695943E+04  0.11284766839E+04  0.00000000000E+00 0. -1.
          1    1    5    5  503    0 -0.31611346561E+03 -0.43568858337E+02  0.33407854803E+03  0.46198965877E+03  0.00000000000E+00 0. -1.
         -4    1    5    5    0  503 -0.44729029959E+02 -0.69613688628E+01  0.10364838517E+03  0.11310231883E+03  0.00000000000E+00 0.  1.
         -3    1    6    6    0  502  0.20408429257E+02  0.13239883206E+02  0.87637933664E+02  0.90951667983E+02  0.00000000000E+00 0.  1.
<mgrwt>
<rscale>  0 0.13368326E+04</rscale>
<asrwt>0</asrwt>
<pdfrwt beam="1">  1        1 0.26535984E+00 0.13368326E+04</pdfrwt>
<pdfrwt beam="2">  1       -1 0.39850351E-01 0.13368326E+04</pdfrwt>
<totfact> 0.27549376E+01</totfact>
</mgrwt>
</event>
<event>
12    1  0.1598876E-007  0.1706318E+04  0.7818608E-02  0.8757769E-01
         -2   -1    0    0    0  501 -0.00000000000E+00  0.00000000000E+00  0.19808661292E+03  0.19808661292E+03  0.00000000000E+00 0. -1.
          2   -1    0    0  501    0  0.00000000000E+00 -0.00000000000E+00 -0.36745543680E+04  0.36745543680E+04  0.00000000000E+00 0.  1.
         23    2    1    2    0    0 -0.57798993881E+03 -0.11867746565E+03 -0.16302903067E+04  0.17362130402E+04  0.91828790133E+02 0.  0.
        254    2    1    2    0    0  0.57798993881E+03  0.11867746565E+03 -0.18461774484E+04  0.21364279407E+04  0.89877498001E+03 0.  0.
        -24    2    4    4    0    0  0.38906384467E+03  0.49471569645E+03 -0.94002690314E+03  0.11341342905E+04  0.80595997582E+02 0.  0.
         24    2    4    4    0    0  0.18892609415E+03 -0.37603823080E+03 -0.90615054525E+03  0.10022936502E+04  0.79912016829E+02 0.  0.
         11    1    3    3    0    0 -0.36981989598E+03 -0.55656293520E+02 -0.91159362199E+03  0.98532599180E+03  0.00000000000E+00 0.  1.
        -11    1    3    3    0    0 -0.20817004283E+03 -0.63021172127E+02 -0.71869668472E+03  0.75088704843E+03  0.00000000000E+00 0. -1.
          4    1    6    6  502    0  0.67471044461E+02 -0.21555072458E+03 -0.51677416167E+03  0.56397694179E+03  0.00000000000E+00 0. -1.
          3    1    5    5  503    0  0.34525353982E+03  0.43288554615E+03 -0.86811008191E+03  0.10296625744E+04  0.00000000000E+00 0. -1.
         -4    1    5    5    0  503  0.43810304852E+02  0.61830150294E+02 -0.71916821222E+02  0.10447171613E+03  0.00000000000E+00 0.  1.
         -3    1    6    6    0  502  0.12145504968E+03 -0.16048750622E+03 -0.38937638358E+03  0.43831670837E+03  0.00000000000E+00 0.  1.
<mgrwt>
<rscale>  0 0.17063177E+04</rscale>
<asrwt>0</asrwt>
<pdfrwt beam="1">  1        2 0.56531604E+00 0.17063177E+04</pdfrwt>
<pdfrwt beam="2">  1       -2 0.30474864E-01 0.17063177E+04</pdfrwt>
<totfact> 0.58420324E+00</totfact>
</mgrwt>
</event>
<event>
12    1  0.1598876E-007  0.1763690E+04  0.7818608E-02  0.8725851E-01
          1   -1    0    0  501    0  0.00000000000E+00  0.00000000000E+00  0.11728803568E+04  0.11728803568E+04  0.00000000000E+00 0. -1.
         -1   -1    0    0    0  501 -0.00000000000E+00 -0.00000000000E+00 -0.66302634044E+03  0.66302634044E+03  0.00000000000E+00 0.  1.
         23    2    1    2    0    0  0.46527707561E+03  0.42982159889E+03  0.32628603290E+03  0.71919938623E+03  0.97753864017E+02 0.  0.
        254    2    1    2    0    0 -0.46527707561E+03 -0.42982159889E+03  0.18356798348E+03  0.11167073110E+04  0.90117071079E+03 0.  0.
        -24    2    4    4    0    0 -0.41232211577E+03  0.23601698930E+02  0.42254549241E+03  0.59622312090E+03  0.79816974321E+02 0.  0.
         24    2    4    4    0    0 -0.52954959835E+02 -0.45342329782E+03 -0.23897750893E+03  0.52048419013E+03  0.73461742521E+02 0.  0.
         11    1    3    3    0    0  0.14954339258E+03  0.14272547926E+03  0.56414852295E+02  0.21428118035E+03  0.00000000000E+00 0.  1.
        -11    1    3    3    0    0  0.31573368303E+03  0.28709611963E+03  0.26987118061E+03  0.50491820588E+03  0.00000000000E+00 0. -1.
          2    1    6    6  502    0 -0.37118047742E+02 -0.75852558093E+02 -0.45872415111E+02  0.96102229452E+02  0.00000000000E+00 0. -1.
          1    1    5    5  503    0 -0.29699900168E+02 -0.26632072991E+01  0.67775400278E+01  0.30579597642E+02  0.00000000000E+00 0. -1.
         -2    1    5    5    0  503 -0.38262221560E+03  0.26264906229E+02  0.41576795239E+03  0.56564352326E+03  0.00000000000E+00 0.  1.
         -1    1    6    6    0  502 -0.15836912093E+02 -0.37757073973E+03 -0.19310509382E+03  0.42438196067E+03  0.00000000000E+00 0.  1.
<mgrwt>
<rscale>  0 0.17636900E+04</rscale>
<asrwt>0</asrwt>
<pdfrwt beam="1">  1        1 0.18044313E+00 0.17636900E+04</pdfrwt>
<pdfrwt beam="2">  1       -1 0.10200405E+00 0.17636900E+04</pdfrwt>
<totfact> 0.96432153E+00</totfact>
</mgrwt>
</event>
<event>
12    1  0.1598876E-007  0.1157910E+04  0.7818608E-02  0.9150517E-01
         -2   -1    0    0    0  501 -0.00000000000E+00  0.00000000000E+00  0.15560729921E+03  0.15560729921E+03  0.00000000000E+00 0.  1.
          2   -1    0    0  501    0  0.00000000000E+00 -0.00000000000E+00 -0.21540675626E+04  0.21540675626E+04  0.00000000000E+00 0. -1.
         23    2    1    2    0    0  0.18099676717E+02  0.93503325990E+02 -0.76291672267E+03  0.77438669805E+03  0.92533032577E+02 0.  0.
        254    2    1    2    0    0 -0.18099676717E+02 -0.93503325990E+02 -0.12355435407E+04  0.15352881637E+04  0.90635061344E+03 0.  0.
        -24    2    4    4    0    0 -0.94602769567E+01 -0.38564924713E+03 -0.11576438799E+04  0.12227844821E+04  0.79042383058E+02 0.  0.
         24    2    4    4    0    0 -0.86393997605E+01  0.29214592114E+03 -0.77899660763E+02  0.31250368162E+03  0.78525890075E+02 0.  0.
         11    1    3    3    0    0  0.38354758644E+02  0.97918700678E+02 -0.70645753735E+03  0.71424184387E+03  0.00000000000E+00 0. -1.
        -11    1    3    3    0    0 -0.20255081926E+02 -0.44153746887E+01 -0.56459185315E+02  0.60144854177E+02  0.00000000000E+00 0.  1.
          2    1    6    6  502    0  0.19492975710E+02  0.24920598033E+03 -0.53333554525E+02  0.25559355386E+03  0.00000000000E+00 0. -1.
          3    1    5    5  503    0 -0.40906002495E+02 -0.29299881926E+03 -0.88157571732E+03  0.92989104442E+03  0.00000000000E+00 0. -1.
         -4    1    5    5    0  503  0.31445725538E+02 -0.92650427863E+02 -0.27606816261E+03  0.29289343770E+03  0.00000000000E+00 0.  1.
         -1    1    6    6    0  502 -0.28132375470E+02  0.42939940806E+02 -0.24566106238E+02  0.56910127761E+02  0.00000000000E+00 0.  1.
<mgrwt>
<rscale>  0 0.11579096E+04</rscale>
<asrwt>0</asrwt>
<pdfrwt beam="1">  1        2 0.33139502E+00 0.11579096E+04</pdfrwt>
<pdfrwt beam="2">  1       -2 0.23939584E-01 0.11579096E+04</pdfrwt>
<totfact> 0.84386448E+01</totfact>
</mgrwt>
</event>
<event>
12    1  0.1598876E-007  0.2222707E+04  0.7818608E-02  0.8509036E-01
         -1   -1    0    0    0  501 -0.00000000000E+00  0.00000000000E+00  0.19296353618E+04  0.19296353618E+04  0.00000000000E+00 0.  1.
          1   -1    0    0  501    0  0.00000000000E+00 -0.00000000000E+00 -0.64007261925E+03  0.64007261925E+03  0.00000000000E+00 0. -1.
         23    2    1    2    0    0 -0.72706013179E+03  0.80394052297E+02 -0.11446620622E+03  0.74638974268E+03  0.94421908099E+02 0.  0.
        254    2    1    2    0    0  0.72706013179E+03 -0.80394052297E+02  0.14040289488E+04  0.18233182383E+04  0.90449569953E+03 0.  0.
        -24    2    4    4    0    0  0.59275151801E+01 -0.16145670376E+03  0.94292229520E+03  0.95999530975E+03  0.79907054293E+02 0.  0.
         24    2    4    4    0    0  0.72113261661E+03  0.81062651463E+02  0.46110665355E+03  0.86332292860E+03  0.78126364897E+02 0.  0.
         13    1    3    3    0    0 -0.67082473201E+02  0.34386879521E+02 -0.26599352933E+01  0.75429377233E+02  0.00000000000E+00 0.  1.
        -13    1    3    3    0    0 -0.65997765859E+03  0.46007172776E+02 -0.11180627093E+03  0.67096036545E+03  0.00000000000E+00 0. -1.
          2    1    6    6  502    0  0.79622318929E+02 -0.14507989046E+02  0.59659217218E+02  0.10054559969E+03  0.00000000000E+00 0. -1.
          3    1    5    5  503    0  0.11725807703E+01 -0.33070010943E+02  0.67269843711E+02  0.74968209545E+02  0.00000000000E+00 0. -1.
         -4    1    5    5    0  503  0.47549344098E+01 -0.12838669282E+03  0.87565245149E+03  0.88502710020E+03  0.00000000000E+00 0.  1.
         -3    1    6    6    0  502  0.64151029768E+03  0.95570640509E+02  0.40144743633E+03  0.76277732891E+03  0.00000000000E+00 0.  1.
<mgrwt>
<rscale>  0 0.22227071E+04</rscale>
<asrwt>0</asrwt>
<pdfrwt beam="1">  1        1 0.98472712E-01 0.22227071E+04</pdfrwt>
<pdfrwt beam="2">  1       -1 0.29686698E+00 0.22227071E+04</pdfrwt>
<totfact> 0.98144917E-01</totfact>
</mgrwt>
</event>
<event>
12    1  0.1598876E-007  0.1788924E+04  0.7818608E-02  0.8712212E-01
         -2   -1    0    0    0  501 -0.00000000000E+00  0.00000000000E+00  0.11232576912E+04  0.11232576912E+04  0.00000000000E+00 0.  1.
          2   -1    0    0  501    0  0.00000000000E+00 -0.00000000000E+00 -0.71226996297E+03  0.71226996297E+03  0.00000000000E+00 0. -1.
         23    2    1    2    0    0  0.63936216995E+03 -0.17278402756E+03  0.28158954973E+03  0.72492782897E+03  0.87117037159E+02 0.  0.
        254    2    1    2    0    0 -0.63936216995E+03  0.17278402756E+03  0.12939817847E+03  0.11105998252E+04  0.88207130014E+03 0.  0.
        -24    2    4    4    0    0 -0.47592548627E+03 -0.13706253399E+03  0.41538272823E+03  0.65125119179E+03  0.79335346439E+02 0.  0.
         24    2    4    4    0    0 -0.16343668368E+03  0.30984656155E+03 -0.28598454975E+03  0.45934863338E+03  0.80607462553E+02 0.  0.
         13    1    3    3    0    0  0.13647016627E+03 -0.62721162846E+02  0.35475739069E+02  0.15432620845E+03  0.00000000000E+00 0. -1.
        -13    1    3    3    0    0  0.50289200367E+03 -0.11006286472E+03  0.24611381066E+03  0.57060162053E+03  0.00000000000E+00 0.  1.
          4    1    6    6  502    0 -0.92512808611E+02  0.24673467029E+03 -0.22510530830E+03  0.34656747843E+03  0.00000000000E+00 0. -1.
          1    1    5    5  503    0 -0.42221290807E+03 -0.11055685017E+03  0.33097360017E+03  0.54775001677E+03  0.00000000000E+00 0. -1.
         -2    1    5    5    0  503 -0.53712578197E+02 -0.26505683815E+02  0.84409128055E+02  0.10350117502E+03  0.00000000000E+00 0.  1.
         -3    1    6    6    0  502 -0.70923875070E+02  0.63111891256E+02 -0.60879241456E+02  0.11278115496E+03  0.00000000000E+00 0.  1.
<mgrwt>
<rscale>  0 0.17889245E+04</rscale>
<asrwt>0</asrwt>
<pdfrwt beam="1">  1        2 0.10957999E+00 0.17889245E+04</pdfrwt>
<pdfrwt beam="2">  1       -2 0.17280888E+00 0.17889245E+04</pdfrwt>
<totfact> 0.77043361E+00</totfact>
</mgrwt>
</event>
<event>
12    1  0.1598876E-007  0.2848750E+04  0.7818608E-02  0.8288291E-01
         -2   -1    0    0    0  501 -0.00000000000E+00  0.00000000000E+00  0.13000543691E+04  0.13000543691E+04  0.00000000000E+00 0.  1.
          2   -1    0    0  501    0  0.00000000000E+00 -0.00000000000E+00 -0.15605844295E+04  0.15605844295E+04  0.00000000000E+00 0. -1.
         23    2    1    2    0    0 -0.67989758431E+03 -0.44621324524E+03 -0.11119917685E+04  0.13807348823E+04  0.92391214984E+02 0.  0.
        254    2    1    2    0    0  0.67989758431E+03  0.44621324524E+03  0.85146170803E+03  0.14799039164E+04  0.89652750995E+03 0.  0.
        -24    2    4    4    0    0  0.45655720171E+02  0.35255850483E+03  0.73915796666E+03  0.82408529435E+03  0.79875707046E+02 0.  0.
         24    2    4    4    0    0  0.63424186414E+03  0.93654740415E+02  0.11230374137E+03  0.65581862203E+03  0.80324230777E+02 0.  0.
         11    1    3    3    0    0 -0.25357701964E+01 -0.14489192940E+02 -0.27274572627E+02  0.30988209927E+02  0.00000000000E+00 0.  1.
        -11    1    3    3    0    0 -0.67736181411E+03 -0.43172405230E+03 -0.10847171958E+04  0.13497466723E+04  0.00000000000E+00 0. -1.
          2    1    6    6  502    0  0.40392133925E+03  0.97178285439E+02  0.62080842744E+02  0.42005963683E+03  0.00000000000E+00 0. -1.
          3    1    5    5  503    0 -0.18798886514E+02  0.34933753912E+02  0.96277511801E+02  0.10413032495E+03  0.00000000000E+00 0. -1.
         -4    1    5    5    0  503  0.64454606686E+02  0.31762475092E+03  0.64288045486E+03  0.71995496939E+03  0.00000000000E+00 0.  1.
         -1    1    6    6    0  502  0.23032052489E+03 -0.35235450239E+01  0.50222898630E+02  0.23575898520E+03  0.00000000000E+00 0.  1.
<mgrwt>
<rscale>  0 0.28487503E+04</rscale>
<asrwt>0</asrwt>
<pdfrwt beam="1">  1        2 0.24008991E+00 0.28487503E+04</pdfrwt>
<pdfrwt beam="2">  1       -2 0.20000837E+00 0.28487503E+04</pdfrwt>
<totfact> 0.13525895E+00</totfact>
</mgrwt>
</event>
<event>
12    1  0.1598876E-007  0.1652399E+04  0.7818608E-02  0.8788989E-01
         -3   -1    0    0    0  501 -0.00000000000E+00  0.00000000000E+00  0.25394195656E+04  0.25394195656E+04  0.00000000000E+00 0.  1.
          3   -1    0    0  501    0  0.00000000000E+00 -0.00000000000E+00 -0.26880375099E+03  0.26880375099E+03  0.00000000000E+00 0. -1.
         23    2    1    2    0    0  0.23143554433E+03 -0.22270039778E+03 -0.71529456657E+01  0.33398536037E+03  0.91308148383E+02 0.  0.
        254    2    1    2    0    0 -0.23143554433E+03  0.22270039778E+03  0.22777687602E+04  0.24742379562E+04  0.91129855720E+03 0.  0.
        -24    2    4    4    0    0 -0.16375097346E+03 -0.33318499648E+03  0.67215051629E+03  0.77192326986E+03  0.79073350799E+02 0.  0.
         24    2    4    4    0    0 -0.67684570870E+02  0.55588539426E+03  0.16056182439E+04  0.17023146863E+04  0.79218516153E+02 0.  0.
         11    1    3    3    0    0  0.97199649138E+02 -0.12504114173E+03  0.36105525516E+02  0.16243973618E+03  0.00000000000E+00 0. -1.
        -11    1    3    3    0    0  0.13423589519E+03 -0.97659256045E+02 -0.43258471182E+02  0.17154562419E+03  0.00000000000E+00 0.  1.
          2    1    6    6  502    0 -0.25842753551E+02  0.26528530415E+03  0.88228319706E+03  0.92166576389E+03  0.00000000000E+00 0. -1.
          1    1    5    5  503    0 -0.14382710586E+03 -0.22065101231E+03  0.43190449627E+03  0.50588002482E+03  0.00000000000E+00 0. -1.
         -4    1    5    5    0  503 -0.19923867600E+02 -0.11253398418E+03  0.24024602003E+03  0.26604324505E+03  0.00000000000E+00 0.  1.
         -1    1    6    6    0  502 -0.41841817320E+02  0.29060009011E+03  0.72333504687E+03  0.78064892242E+03  0.00000000000E+00 0.  1.
<mgrwt>
<rscale>  0 0.16523989E+04</rscale>
<asrwt>0</asrwt>
<pdfrwt beam="1">  1        3 0.41354425E-01 0.16523989E+04</pdfrwt>
<pdfrwt beam="2">  1       -3 0.39067992E+00 0.16523989E+04</pdfrwt>
<totfact> 0.17452245E-01</totfact>
</mgrwt>
</event>
<event>
12    1  0.1598876E-007  0.2366818E+04  0.7818608E-02  0.8452032E-01
         -1   -1    0    0    0  501 -0.00000000000E+00  0.00000000000E+00  0.11069670959E+04  0.11069670959E+04  0.00000000000E+00 0.  1.
          1   -1    0    0  501    0  0.00000000000E+00 -0.00000000000E+00 -0.12651301093E+04  0.12651301093E+04  0.00000000000E+00 0. -1.
         23    2    1    2    0    0  0.12624592637E+03  0.27026992177E+03 -0.10119958486E+04  0.10592238870E+04  0.93998833078E+02 0.  0.
        254    2    1    2    0    0 -0.12624592637E+03 -0.27026992177E+03  0.85383283524E+03  0.13128733182E+04  0.95164172594E+03 0.  0.
        -24    2    4    4    0    0  0.68534748358E+02  0.30723238396E+02  0.93053679435E+03  0.93700045891E+03  0.80188560566E+02 0.  0.
         24    2    4    4    0    0 -0.19478067473E+03 -0.30099316017E+03 -0.76703959107E+02  0.37587285929E+03  0.82828227624E+02 0.  0.
         11    1    3    3    0    0  0.14126957211E+03  0.25202522206E+03 -0.92465225131E+03  0.96873917564E+03  0.00000000000E+00 0. -1.
        -11    1    3    3    0    0 -0.15023645739E+02  0.18244699706E+02 -0.87343597341E+02  0.90484711389E+02  0.00000000000E+00 0.  1.
          4    1    6    6  502    0 -0.14979700715E+03 -0.21868860374E+03 -0.19010168815E+02  0.26575408797E+03  0.00000000000E+00 0. -1.
          1    1    5    5  503    0  0.21173907820E+02  0.28205682039E+02  0.73306940910E+03  0.73391733419E+03  0.00000000000E+00 0. -1.
         -2    1    5    5    0  503  0.47360840538E+02  0.25175563569E+01  0.19746738525E+03  0.20308312471E+03  0.00000000000E+00 0.  1.
         -3    1    6    6    0  502 -0.44983667584E+02 -0.82304556430E+02 -0.57693790292E+02  0.11011877132E+03  0.00000000000E+00 0.  1.
<mgrwt>
<rscale>  0 0.23668185E+04</rscale>
<asrwt>0</asrwt>
<pdfrwt beam="1">  1        1 0.19463540E+00 0.23668185E+04</pdfrwt>
<pdfrwt beam="2">  1       -1 0.17030263E+00 0.23668185E+04</pdfrwt>
<totfact> 0.21083676E+00</totfact>
</mgrwt>
</event>
<event>
12    1  0.1901825E-007  0.1810693E+04  0.7818608E-02  0.8700633E-01
         -2   -1    0    0    0  501 -0.00000000000E+00  0.00000000000E+00  0.53680965768E+03  0.53680965768E+03  0.00000000000E+00 0. -1.
          2   -1    0    0  501    0  0.00000000000E+00 -0.00000000000E+00 -0.15268963821E+04  0.15268963821E+04  0.00000000000E+00 0.  1.
         23    2    1    2    0    0 -0.42908147289E+03 -0.11254142592E+03  0.20945821178E+03  0.49883420047E+03  0.90478362861E+02 0.  0.
        254    2    1    2    0    0  0.42908147289E+03  0.11254142592E+03 -0.11995449362E+04  0.15648718393E+04  0.90174238927E+03 0.  0.
        -24    2    4    4    0    0 -0.23618450996E+03  0.17566416820E+03 -0.21796804294E+03  0.37477193530E+03  0.79390887459E+02 0.  0.
         24    2    4    4    0    0  0.66526598285E+03 -0.63122742286E+02 -0.98157689328E+03  0.11900999040E+04  0.79254499178E+02 0.  0.
         13    1    3    3    0    0 -0.35074203984E+02  0.14997319566E+02  0.24010756365E+02  0.45073670812E+02  0.00000000000E+00 0.  1.
        -13    1    3    3    0    0 -0.39400726891E+03 -0.12753874548E+03  0.18544745542E+03  0.45376052965E+03  0.00000000000E+00 0. -1.
          2    1    6    6  502    0  0.60863151860E+03 -0.69635582358E+02 -0.86064671199E+03  0.10564062678E+04  0.00000000000E+00 0. -1.
          3    1    5    5  503    0 -0.20818345218E+03  0.17482714670E+03 -0.17443838240E+03  0.32300716747E+03  0.00000000000E+00 0. -1.
         -4    1    5    5    0  503 -0.28001057779E+02  0.83702150343E+00 -0.43529660535E+02  0.51764767825E+02  0.00000000000E+00 0.  1.
         -1    1    6    6    0  502  0.56634464245E+02  0.65128400728E+01 -0.12093018129E+03  0.13369363625E+03  0.00000000000E+00 0.  1.
<mgrwt>
<rscale>  0 0.18106935E+04</rscale>
<asrwt>0</asrwt>
<pdfrwt beam="1">  1        2 0.23490713E+00 0.18106935E+04</pdfrwt>
<pdfrwt beam="2">  1       -2 0.82586102E-01 0.18106935E+04</pdfrwt>
<totfact> 0.14874097E+01</totfact>
</mgrwt>
</event>
<event>
12    1  0.1598876E-007  0.1940032E+04  0.7818608E-02  0.8635182E-01
          1   -1    0    0  501    0  0.00000000000E+00  0.00000000000E+00  0.24622126677E+04  0.24622126677E+04  0.00000000000E+00 0. -1.
         -1   -1    0    0    0  501 -0.00000000000E+00 -0.00000000000E+00 -0.38214860805E+03  0.38214860805E+03  0.00000000000E+00 0.  1.
         23    2    1    2    0    0 -0.55675137759E+03 -0.30963112685E+03  0.14464229239E+04  0.15839147182E+04  0.10393761777E+03 0.  0.
        254    2    1    2    0    0  0.55675137759E+03  0.30963112685E+03  0.63364113569E+03  0.12604465576E+04  0.88395752412E+03 0.  0.
        -24    2    4    4    0    0  0.12814704354E+03  0.43807625185E+03 -0.20566093692E+02  0.46386413674E+03  0.80090610809E+02 0.  0.
         24    2    4    4    0    0  0.42860433405E+03 -0.12844512500E+03  0.65420722938E+03  0.79658242081E+03  0.79728469627E+02 0.  0.
         13    1    3    3    0    0 -0.22440303776E+03 -0.15754168649E+03  0.72672183007E+03  0.77672435564E+03  0.00000000000E+00 0. -1.
        -13    1    3    3    0    0 -0.33234833983E+03 -0.15208944036E+03  0.71970109385E+03  0.80719036252E+03  0.00000000000E+00 0.  1.
          4    1    6    6  502    0  0.13205026236E+03 -0.50073641569E+02  0.14706538480E+03  0.20389425881E+03  0.00000000000E+00 0. -1.
          3    1    5    5  503    0  0.11382414198E+03  0.27785610364E+03 -0.35287390812E+02  0.30233284568E+03  0.00000000000E+00 0. -1.
         -4    1    5    5    0  503  0.14322901559E+02  0.16022014822E+03  0.14721297120E+02  0.16153129106E+03  0.00000000000E+00 0.  1.
         -3    1    6    6    0  502  0.29655407169E+03 -0.78371483432E+02  0.50714184458E+03  0.59268816200E+03  0.00000000000E+00 0.  1.
<mgrwt>
<rscale>  0 0.19400321E+04</rscale>
<asrwt>0</asrwt>
<pdfrwt beam="1">  1        1 0.37880194E+00 0.19400321E+04</pdfrwt>
<pdfrwt beam="2">  1       -1 0.58792095E-01 0.19400321E+04</pdfrwt>
<totfact> 0.39364225E+00</totfact>
</mgrwt>
</event>
<event>
12    1  0.1598876E-007  0.1545946E+04  0.7818608E-02  0.8854461E-01
         -2   -1    0    0    0  501 -0.00000000000E+00  0.00000000000E+00  0.59753234031E+03  0.59753234031E+03  0.00000000000E+00 0.  1.
          2   -1    0    0  501    0  0.00000000000E+00 -0.00000000000E+00 -0.99992493821E+03  0.99992493821E+03  0.00000000000E+00 0. -1.
         23    2    1    2    0    0 -0.38627569781E+03  0.15309144094E+03  0.16123317257E+03  0.45498550951E+03  0.91486468532E+02 0.  0.
        254    2    1    2    0    0  0.38627569781E+03 -0.15309144094E+03 -0.56362577047E+03  0.11424717690E+04  0.90273020877E+03 0.  0.
        -24    2    4    4    0    0 -0.21331167640E+03  0.18515381077E+03 -0.23022763192E+03  0.37285026607E+03  0.78922452281E+02 0.  0.
         24    2    4    4    0    0  0.59958737421E+03 -0.33824525171E+03 -0.33339813855E+03  0.76962150294E+03  0.85135594072E+02 0.  0.
         13    1    3    3    0    0 -0.20975308504E+03  0.39920673238E+02  0.57943449053E+02  0.22124072890E+03  0.00000000000E+00 0. -1.
        -13    1    3    3    0    0 -0.17652261277E+03  0.11317076770E+03  0.10328972352E+03  0.23374478062E+03  0.00000000000E+00 0.  1.
          2    1    6    6  502    0  0.38055295941E+03 -0.22056908384E+03 -0.16726720606E+03  0.47058431113E+03  0.00000000000E+00 0. -1.
          1    1    5    5  503    0 -0.18548971256E+03  0.18883281461E+03 -0.20128492606E+03  0.33253554216E+03  0.00000000000E+00 0. -1.
         -2    1    5    5    0  503 -0.27821963836E+02 -0.36790038423E+01 -0.28942705856E+02  0.40314723901E+02  0.00000000000E+00 0.  1.
         -1    1    6    6    0  502  0.21903441480E+03 -0.11767616787E+03 -0.16613093249E+03  0.29903719180E+03  0.00000000000E+00 0.  1.
<mgrwt>
<rscale>  0 0.15459463E+04</rscale>
<asrwt>0</asrwt>
<pdfrwt beam="1">  1        2 0.15383461E+00 0.15459463E+04</pdfrwt>
<pdfrwt beam="2">  1       -2 0.91928053E-01 0.15459463E+04</pdfrwt>
<totfact> 0.24411769E+01</totfact>
</mgrwt>
</event>
<event>
12    1  0.1598876E-007  0.2601014E+04  0.7818608E-02  0.8367857E-01
          2   -1    0    0  501    0  0.00000000000E+00  0.00000000000E+00  0.11216574185E+04  0.11216574185E+04  0.00000000000E+00 0.  1.
         -2   -1    0    0    0  501 -0.00000000000E+00 -0.00000000000E+00 -0.15078741283E+04  0.15078741283E+04  0.00000000000E+00 0. -1.
         23    2    1    2    0    0 -0.36345232062E+03 -0.66001554311E+03 -0.10387153614E+04  0.12863424066E+04  0.89605124678E+02 0.  0.
        254    2    1    2    0    0  0.36345232062E+03  0.66001554311E+03  0.65249865166E+03  0.13431891403E+04  0.90038018061E+03 0.  0.
        -24    2    4    4    0    0  0.69390432007E+02  0.56738419514E+03  0.80474394350E+03  0.99034706282E+03  0.80216166057E+02 0.  0.
         24    2    4    4    0    0  0.29406188861E+03  0.92631347969E+02 -0.15224529184E+03  0.35284207746E+03  0.79157701958E+02 0.  0.
         13    1    3    3    0    0 -0.30018442883E+03 -0.54379201612E+03 -0.90967644654E+03  0.11015133615E+04  0.00000000000E+00 0. -1.
        -13    1    3    3    0    0 -0.63267891790E+02 -0.11622352699E+03 -0.12903891488E+03  0.18482904509E+03  0.00000000000E+00 0.  1.
          2    1    6    6  502    0  0.99569653603E+01 -0.66751665419E+01 -0.21693955110E+02  0.24785614696E+02  0.00000000000E+00 0. -1.
          1    1    5    5  503    0 -0.13208845749E+02  0.32061936865E+02  0.62557324666E+02  0.71525242194E+02  0.00000000000E+00 0. -1.
         -2    1    5    5    0  503  0.82599277757E+02  0.53532225827E+03  0.74218661883E+03  0.91882182063E+03  0.00000000000E+00 0.  1.
         -1    1    6    6    0  502  0.28410492325E+03  0.99306514511E+02 -0.13055133673E+03  0.32805646276E+03  0.00000000000E+00 0.  1.
<mgrwt>
<rscale>  0 0.26010138E+04</rscale>
<asrwt>0</asrwt>
<pdfrwt beam="1">  1        2 0.17256268E+00 0.26010138E+04</pdfrwt>
<pdfrwt beam="2">  1       -2 0.23198063E+00 0.26010138E+04</pdfrwt>
<totfact> 0.15526564E+00</totfact>
</mgrwt>
</event>
<event>
12    1  0.1598876E-007  0.1481304E+04  0.7818608E-02  0.8896982E-01
         -2   -1    0    0    0  501 -0.00000000000E+00  0.00000000000E+00  0.24073914042E+03  0.24073914042E+03  0.00000000000E+00 0.  1.
          2   -1    0    0  501    0  0.00000000000E+00 -0.00000000000E+00 -0.22786714606E+04  0.22786714606E+04  0.00000000000E+00 0. -1.
         23    2    1    2    0    0 -0.42375102687E+03 -0.37870477590E+02 -0.78035743983E+03  0.89351972281E+03  0.91764128639E+02 0.  0.
        254    2    1    2    0    0  0.42375102687E+03  0.37870477590E+02 -0.12575748803E+04  0.16258908782E+04  0.93863063145E+03 0.  0.
        -24    2    4    4    0    0  0.36823848226E+03  0.37795073137E+03 -0.31659886830E+03  0.62048182289E+03  0.79476499420E+02 0.  0.
         24    2    4    4    0    0  0.55512544610E+02 -0.34008025378E+03 -0.94097601203E+03  0.10054090553E+04  0.81702458025E+02 0.  0.
         13    1    3    3    0    0 -0.40453442635E+03 -0.26381521066E+02 -0.76674047289E+03  0.86731484452E+03  0.00000000000E+00 0. -1.
        -13    1    3    3    0    0 -0.19216600517E+02 -0.11488956523E+02 -0.13616966937E+02  0.26204878286E+02  0.00000000000E+00 0.  1.
          4    1    6    6  502    0 -0.14384387935E+01  0.27797885807E+01 -0.33620669780E+02  0.33766044589E+02  0.00000000000E+00 0. -1.
          1    1    5    5  503    0  0.50929788324E+02  0.50791221009E+02 -0.13628333411E+02  0.73207396770E+02  0.00000000000E+00 0. -1.
         -2    1    5    5    0  503  0.31730869393E+03  0.32715951036E+03 -0.30297053489E+03  0.54727442612E+03  0.00000000000E+00 0.  1.
         -3    1    6    6    0  502  0.56950983404E+02 -0.34286004236E+03 -0.90735534225E+03  0.97164301072E+03  0.00000000000E+00 0.  1.
<mgrwt>
<rscale>  0 0.14813040E+04</rscale>
<asrwt>0</asrwt>
<pdfrwt beam="1">  1        2 0.35056484E+00 0.14813040E+04</pdfrwt>
<pdfrwt beam="2">  1       -2 0.37036791E-01 0.14813040E+04</pdfrwt>
<totfact> 0.31036661E+01</totfact>
</mgrwt>
</event>
<event>
12    1  0.1598876E-007  0.1810330E+04  0.7818608E-02  0.8700825E-01
          2   -1    0    0  501    0  0.00000000000E+00  0.00000000000E+00  0.88299022874E+03  0.88299022874E+03  0.00000000000E+00 0. -1.
         -2   -1    0    0    0  501 -0.00000000000E+00 -0.00000000000E+00 -0.92789636338E+03  0.92789636338E+03  0.00000000000E+00 0.  1.
         23    2    1    2    0    0 -0.63052682007E+03 -0.53583365104E+02 -0.26823095414E+03  0.69332457099E+03  0.91191381927E+02 0.  0.
        254    2    1    2    0    0  0.63052682007E+03  0.53583365104E+02  0.22332481950E+03  0.11175620211E+04  0.89366416972E+03 0.  0.
        -24    2    4    4    0    0  0.29943589247E+03  0.37778484559E+03  0.38399535748E+03  0.62148390933E+03  0.80041062816E+02 0.  0.
         24    2    4    4    0    0  0.33109092760E+03 -0.32420148048E+03 -0.16067053797E+03  0.49607811181E+03  0.74502811737E+02 0.  0.
         11    1    3    3    0    0 -0.28159243162E+03  0.12863111338E+02 -0.89950210569E+02  0.29588984025E+03  0.00000000000E+00 0. -1.
        -11    1    3    3    0    0 -0.34893438845E+03 -0.66446476442E+02 -0.17828074357E+03  0.39743473074E+03  0.00000000000E+00 0.  1.
          2    1    6    6  502    0  0.11751051039E+03 -0.15405373052E+03 -0.92098401959E+02  0.21453062155E+03  0.00000000000E+00 0. -1.
          3    1    5    5  503    0  0.11629923435E+03  0.98220991123E+02  0.93321351940E+02  0.17855461275E+03  0.00000000000E+00 0. -1.
         -4    1    5    5    0  503  0.18313665812E+03  0.27956385446E+03  0.29067400554E+03  0.44292929657E+03  0.00000000000E+00 0.  1.
         -1    1    6    6    0  502  0.21358041721E+03 -0.17014774996E+03 -0.68572136016E+02  0.28154749026E+03  0.00000000000E+00 0.  1.
<mgrwt>
<rscale>  0 0.18103297E+04</rscale>
<asrwt>0</asrwt>
<pdfrwt beam="1">  1        2 0.13584465E+00 0.18103297E+04</pdfrwt>
<pdfrwt beam="2">  1       -2 0.14275329E+00 0.18103297E+04</pdfrwt>
<totfact> 0.96951358E+00</totfact>
</mgrwt>
</event>
<event>
12    1  0.1598876E-007  0.1749599E+04  0.7818608E-02  0.8733571E-01
          1   -1    0    0  501    0  0.00000000000E+00  0.00000000000E+00  0.67175627256E+03  0.67175627256E+03  0.00000000000E+00 0. -1.
         -1   -1    0    0    0  501 -0.00000000000E+00 -0.00000000000E+00 -0.11392139180E+04  0.11392139180E+04  0.00000000000E+00 0.  1.
         23    2    1    2    0    0  0.26160948150E+03 -0.27810146545E+03 -0.69899393959E+03  0.80098098561E+03  0.84841415806E+02 0.  0.
        254    2    1    2    0    0 -0.26160948150E+03  0.27810146545E+03  0.23153629412E+03  0.10099892050E+04  0.90591897694E+03 0.  0.
        -24    2    4    4    0    0 -0.24081539200E+03  0.44745867928E+03  0.47610358317E+03  0.70100632881E+03  0.80770839041E+02 0.  0.
         24    2    4    4    0    0 -0.20794089502E+02 -0.16935721383E+03 -0.24456728905E+03  0.30898287617E+03  0.80888805502E+02 0.  0.
         13    1    3    3    0    0  0.12320145828E+03 -0.71501222569E+02 -0.25431601652E+03  0.29149212753E+03  0.00000000000E+00 0. -1.
        -13    1    3    3    0    0  0.13840802322E+03 -0.20660024288E+03 -0.44467792307E+03  0.50948885808E+03  0.00000000000E+00 0.  1.
          2    1    6    6  502    0 -0.24889167208E+02 -0.11126133884E+03 -0.21570823923E+03  0.24398483690E+03  0.00000000000E+00 0. -1.
          3    1    5    5  503    0 -0.14189534935E+03  0.27376767568E+03  0.23423674098E+03  0.38723362617E+03  0.00000000000E+00 0. -1.
         -4    1    5    5    0  503 -0.98920042643E+02  0.17369100360E+03  0.24186684220E+03  0.31377270264E+03  0.00000000000E+00 0.  1.
         -1    1    6    6    0  502  0.40950777061E+01 -0.58095874991E+02 -0.28859049827E+02  0.64998039273E+02  0.00000000000E+00 0.  1.
<mgrwt>
<rscale>  0 0.17495989E+04</rscale>
<asrwt>0</asrwt>
<pdfrwt beam="1">  1        1 0.10334712E+00 0.17495989E+04</pdfrwt>
<pdfrwt beam="2">  1       -1 0.17526368E+00 0.17495989E+04</pdfrwt>
<totfact> 0.61871031E+00</totfact>
</mgrwt>
</event>
<event>
12    1  0.1598876E-007  0.1731701E+04  0.7818608E-02  0.8743488E-01
         -1   -1    0    0    0  501 -0.00000000000E+00  0.00000000000E+00  0.89030212441E+03  0.89030212441E+03  0.00000000000E+00 0.  1.
          1   -1    0    0  501    0  0.00000000000E+00 -0.00000000000E+00 -0.84207063762E+03  0.84207063762E+03  0.00000000000E+00 0. -1.
         23    2    1    2    0    0 -0.38014057142E+02 -0.14436966280E+03  0.61602492735E+03  0.64028821037E+03  0.90524102559E+02 0.  0.
        254    2    1    2    0    0  0.38014057142E+02  0.14436966280E+03 -0.56779344057E+03  0.10920845517E+04  0.92085373906E+03 0.  0.
        -24    2    4    4    0    0 -0.15995207328E+03  0.86346829846E+02  0.20683455416E+03  0.28649074082E+03  0.79094696447E+02 0.  0.
         24    2    4    4    0    0  0.19796613043E+03  0.58022832952E+02 -0.77462799473E+03  0.80559381084E+03  0.79847479083E+02 0.  0.
         11    1    3    3    0    0  0.28941938563E+02 -0.27633592639E+02  0.14218055914E+03  0.14770430815E+03  0.00000000000E+00 0. -1.
        -11    1    3    3    0    0 -0.66955995704E+02 -0.11673607016E+03  0.47384436821E+03  0.49258390222E+03  0.00000000000E+00 0.  1.
          2    1    6    6  502    0  0.17344931986E+02  0.31905797025E+02 -0.89786553261E+02  0.96852732000E+02  0.00000000000E+00 0. -1.
          1    1    5    5  503    0 -0.86302640605E+02  0.66772925103E+02  0.69327964509E+02  0.12927929442E+03  0.00000000000E+00 0. -1.
         -2    1    5    5    0  503 -0.73649432678E+02  0.19573904743E+02  0.13750658965E+03  0.15721144640E+03  0.00000000000E+00 0.  1.
         -1    1    6    6    0  502  0.18062119844E+03  0.26117035926E+02 -0.68484144147E+03  0.70874107884E+03  0.00000000000E+00 0.  1.
<mgrwt>
<rscale>  0 0.17317012E+04</rscale>
<asrwt>0</asrwt>
<pdfrwt beam="1">  1        1 0.12954933E+00 0.17317012E+04</pdfrwt>
<pdfrwt beam="2">  1       -1 0.13696956E+00 0.17317012E+04</pdfrwt>
<totfact> 0.85679350E+00</totfact>
</mgrwt>
</event>
<event>
12    1  0.1598876E-007  0.1591243E+04  0.7818608E-02  0.8825946E-01
          1   -1    0    0  501    0  0.00000000000E+00  0.00000000000E+00  0.18598855771E+04  0.18598855771E+04  0.00000000000E+00 0. -1.
         -1   -1    0    0    0  501 -0.00000000000E+00 -0.00000000000E+00 -0.34035093591E+03  0.34035093591E+03  0.00000000000E+00 0.  1.
         23    2    1    2    0    0  0.24314255740E+02 -0.10626468928E+02  0.12557905225E+04  0.12601412383E+04  0.10120276205E+03 0.  0.
        254    2    1    2    0    0 -0.24314255740E+02  0.10626468928E+02  0.26374411865E+03  0.94009527474E+03  0.90195014307E+03 0.  0.
        -24    2    4    4    0    0 -0.25085022939E+03  0.13345739526E+03 -0.23244153464E+03  0.37538051237E+03  0.78388443743E+02 0.  0.
         24    2    4    4    0    0  0.22653597365E+03 -0.12283092633E+03  0.49618565329E+03  0.56471476236E+03  0.79350970221E+02 0.  0.
         11    1    3    3    0    0  0.31049208405E+02  0.35158459459E+02  0.34477931348E+03  0.34795537878E+03  0.00000000000E+00 0.  1.
        -11    1    3    3    0    0 -0.67349526648E+01 -0.45784928387E+02  0.91101120905E+03  0.91218585950E+03  0.00000000000E+00 0. -1.
          2    1    6    6  502    0  0.21377245921E+03 -0.11471135102E+03  0.49270026885E+03  0.54919114459E+03  0.00000000000E+00 0. -1.
          3    1    5    5  503    0 -0.19823728860E+03  0.99517999012E+02 -0.21824845741E+03  0.31118201086E+03  0.00000000000E+00 0. -1.
         -4    1    5    5    0  503 -0.52612940783E+02  0.33939396248E+02 -0.14193077227E+02  0.64198501514E+02  0.00000000000E+00 0.  1.
         -1    1    6    6    0  502  0.12763514434E+02 -0.81195753092E+01  0.34853844395E+01  0.15523617768E+02  0.00000000000E+00 0.  1.
<mgrwt>
<rscale>  0 0.15912433E+04</rscale>
<asrwt>0</asrwt>
<pdfrwt beam="1">  1        1 0.28613624E+00 0.15912433E+04</pdfrwt>
<pdfrwt beam="2">  1       -1 0.52361684E-01 0.15912433E+04</pdfrwt>
<totfact> 0.13090485E+01</totfact>
</mgrwt>
</event>
<event>
12    1  0.1598876E-007  0.1294053E+04  0.7818608E-02  0.9034295E-01
         -2   -1    0    0    0  501 -0.00000000000E+00  0.00000000000E+00  0.31716347281E+03  0.31716347281E+03  0.00000000000E+00 0.  1.
          2   -1    0    0  501    0  0.00000000000E+00 -0.00000000000E+00 -0.13199601489E+04  0.13199601489E+04  0.00000000000E+00 0. -1.
         23    2    1    2    0    0  0.16541703810E+03 -0.22420237139E+03 -0.53792266484E+03  0.61220906083E+03  0.88372173156E+02 0.  0.
        254    2    1    2    0    0 -0.16541703810E+03  0.22420237139E+03 -0.46487401122E+03  0.10249145608E+04  0.86989224096E+03 0.  0.
        -24    2    4    4    0    0 -0.16144798064E+03  0.38471686555E+03 -0.64394565322E+03  0.77158432191E+03  0.81264041375E+02 0.  0.
         24    2    4    4    0    0 -0.39690574540E+01 -0.16051449416E+03  0.17907164200E+03  0.25333023893E+03  0.79554388550E+02 0.  0.
         11    1    3    3    0    0 -0.20062101518E+01 -0.51068512910E+02 -0.83227319505E+02  0.97666803992E+02  0.00000000000E+00 0.  1.
        -11    1    3    3    0    0  0.16742324825E+03 -0.17313385848E+03 -0.45469534533E+03  0.51454225684E+03  0.00000000000E+00 0. -1.
          2    1    6    6  502    0 -0.62131638647E+01 -0.11798184697E+03  0.72632993557E+02  0.13868623354E+03  0.00000000000E+00 0. -1.
          3    1    5    5  503    0  0.26096089878E+01  0.16619740492E+02 -0.78335285499E+01  0.18557747779E+02  0.00000000000E+00 0. -1.
         -4    1    5    5    0  503 -0.16405758963E+03  0.36809712506E+03 -0.63611212467E+03  0.75302657413E+03  0.00000000000E+00 0.  1.
         -1    1    6    6    0  502  0.22441064107E+01 -0.42532647183E+02  0.10643864844E+03  0.11464400539E+03  0.00000000000E+00 0.  1.
<mgrwt>
<rscale>  0 0.12940528E+04</rscale>
<asrwt>0</asrwt>
<pdfrwt beam="1">  1        2 0.20307079E+00 0.12940528E+04</pdfrwt>
<pdfrwt beam="2">  1       -2 0.48794380E-01 0.12940528E+04</pdfrwt>
<totfact> 0.62750155E+01</totfact>
</mgrwt>
</event>
<event>
12    1  0.1598876E-007  0.2273149E+04  0.7818608E-02  0.8488584E-01
         -1   -1    0    0    0  501 -0.00000000000E+00  0.00000000000E+00  0.42642743254E+03  0.42642743254E+03  0.00000000000E+00 0.  1.
          1   -1    0    0  501    0  0.00000000000E+00 -0.00000000000E+00 -0.30293576960E+04  0.30293576960E+04  0.00000000000E+00 0. -1.
         23    2    1    2    0    0 -0.27347036609E+03 -0.11290505973E+03  0.27726878114E+03  0.41706871112E+03  0.97645988947E+02 0.  0.
        254    2    1    2    0    0  0.27347036609E+03  0.11290505973E+03 -0.28801990446E+04  0.30387164174E+04  0.92234339339E+03 0.  0.
        -24    2    4    4    0    0 -0.30795947904E+03 -0.83594117087E+02 -0.71827004464E+03  0.78992051453E+03  0.78965467842E+02 0.  0.
         24    2    4    4    0    0  0.58142984513E+03  0.19649917682E+03 -0.21619289999E+04  0.22487959029E+04  0.80457570660E+02 0.  0.
         13    1    3    3    0    0 -0.19634681805E+03 -0.11863390911E+03  0.23713897049E+03  0.32994085632E+03  0.00000000000E+00 0.  1.
        -13    1    3    3    0    0 -0.77123548044E+02  0.57288493818E+01  0.40129810651E+02  0.87127854794E+02  0.00000000000E+00 0. -1.
          2    1    6    6  502    0  0.39016895247E+03  0.15329659835E+03 -0.15828602891E+04  0.16374304118E+04  0.00000000000E+00 0. -1.
          1    1    5    5  503    0 -0.26138920607E+03 -0.99204412459E+02 -0.61471481627E+03  0.67530743950E+03  0.00000000000E+00 0. -1.
         -2    1    5    5    0  503 -0.46570272961E+02  0.15610295371E+02 -0.10355522837E+03  0.11461307503E+03  0.00000000000E+00 0.  1.
         -1    1    6    6    0  502  0.19126089265E+03  0.43202578468E+02 -0.57906871081E+03  0.61136549108E+03  0.00000000000E+00 0.  1.
<mgrwt>
<rscale>  0 0.22731487E+04</rscale>
<asrwt>0</asrwt>
<pdfrwt beam="1">  1        1 0.46605503E+00 0.22731487E+04</pdfrwt>
<pdfrwt beam="2">  1       -1 0.65604220E-01 0.22731487E+04</pdfrwt>
<totfact> 0.12147546E+00</totfact>
</mgrwt>
</event>
<event>
12    1  0.1598876E-007  0.1111508E+04  0.7818608E-02  0.9194048E-01
          1   -1    0    0  501    0  0.00000000000E+00  0.00000000000E+00  0.40387137865E+03  0.40387137865E+03  0.00000000000E+00 0. -1.
         -1   -1    0    0    0  501 -0.00000000000E+00 -0.00000000000E+00 -0.76475407986E+03  0.76475407986E+03  0.00000000000E+00 0.  1.
         23    2    1    2    0    0  0.87583545806E+02 -0.50590676741E+02  0.80903417670E+02  0.15867019992E+03  0.91654652265E+02 0.  0.
        254    2    1    2    0    0 -0.87583545806E+02  0.50590676741E+02 -0.44178611888E+03  0.10099552586E+04  0.90255435041E+03 0.  0.
        -24    2    4    4    0    0  0.12544831866E+01 -0.41738297321E+03 -0.20601580325E+03  0.47250795163E+03  0.81308874677E+02 0.  0.
         24    2    4    4    0    0 -0.88838028992E+02  0.46797364996E+03 -0.23577031563E+03  0.53744730697E+03  0.79814995987E+02 0.  0.
         13    1    3    3    0    0  0.39197330819E+02 -0.31352679999E+01 -0.14270026817E+02  0.41831738120E+02  0.00000000000E+00 0.  1.
        -13    1    3    3    0    0  0.48386214987E+02 -0.47455408741E+02  0.95173444486E+02  0.11683846180E+03  0.00000000000E+00 0. -1.
          2    1    6    6  502    0 -0.45673283871E+02  0.82046626427E+02 -0.57884359804E+02  0.11031000352E+03  0.00000000000E+00 0. -1.
          1    1    5    5  503    0  0.13906384183E+02 -0.15726668850E+03 -0.37357010637E+02  0.16223977650E+03  0.00000000000E+00 0. -1.
         -2    1    5    5    0  503 -0.12651900997E+02 -0.26011628471E+03 -0.16865879262E+03  0.31026817513E+03  0.00000000000E+00 0.  1.
         -1    1    6    6    0  502 -0.43164745122E+02  0.38592702353E+03 -0.17788595583E+03  0.42713730344E+03  0.00000000000E+00 0.  1.
<mgrwt>
<rscale>  0 0.11115076E+04</rscale>
<asrwt>0</asrwt>
<pdfrwt beam="1">  1        1 0.62134058E-01 0.11115076E+04</pdfrwt>
<pdfrwt beam="2">  1       -1 0.11765447E+00 0.11115076E+04</pdfrwt>
<totfact> 0.38329134E+01</totfact>
</mgrwt>
</event>
<event>
12    1  0.1598876E-007  0.1510700E+04  0.7818608E-02  0.8877369E-01
          2   -1    0    0  501    0  0.00000000000E+00  0.00000000000E+00  0.15550891298E+04  0.15550891298E+04  0.00000000000E+00 0.  1.
         -2   -1    0    0    0  501 -0.00000000000E+00 -0.00000000000E+00 -0.36689426260E+03  0.36689426260E+03  0.00000000000E+00 0. -1.
         23    2    1    2    0    0 -0.81003627965E+02 -0.47400111278E+03  0.30647543924E+03  0.57694399406E+03  0.87741294519E+02 0.  0.
        254    2    1    2    0    0  0.81003627965E+02  0.47400111278E+03  0.88171942792E+03  0.13450393983E+04  0.89468608504E+03 0.  0.
        -24    2    4    4    0    0  0.81723806764E+02  0.83039574776E+02  0.93220179438E+03  0.94289185197E+03  0.80439464835E+02 0.  0.
         24    2    4    4    0    0 -0.72017879830E+00  0.39096153801E+03 -0.50482366458E+02  0.40214754633E+03  0.79515638962E+02 0.  0.
         11    1    3    3    0    0 -0.60037864747E+02 -0.36290340835E+03  0.18768445578E+03  0.41295143048E+03  0.00000000000E+00 0. -1.
        -11    1    3    3    0    0 -0.20965763218E+02 -0.11109770443E+03  0.11879098347E+03  0.16399256358E+03  0.00000000000E+00 0.  1.
          4    1    6    6  502    0 -0.39512431451E+02  0.21131960917E+03 -0.33589936342E+02  0.21759019574E+03  0.00000000000E+00 0. -1.
          3    1    5    5  503    0  0.49258993105E+02  0.62989739525E+02  0.33260680730E+03  0.34208397207E+03  0.00000000000E+00 0. -1.
         -4    1    5    5    0  503  0.32464813658E+02  0.20049835251E+02  0.59959498708E+03  0.60080787990E+03  0.00000000000E+00 0.  1.
         -3    1    6    6    0  502  0.38792252653E+02  0.17964192884E+03 -0.16892430116E+02  0.18455735059E+03  0.00000000000E+00 0.  1.
<mgrwt>
<rscale>  0 0.15106995E+04</rscale>
<asrwt>0</asrwt>
<pdfrwt beam="1">  1        2 0.23924448E+00 0.15106995E+04</pdfrwt>
<pdfrwt beam="2">  1       -2 0.56445272E-01 0.15106995E+04</pdfrwt>
<totfact> 0.33596804E+01</totfact>
</mgrwt>
</event>
<event>
12    1  0.1598876E-007  0.1657277E+04  0.7818608E-02  0.8786113E-01
          2   -1    0    0  501    0  0.00000000000E+00  0.00000000000E+00  0.84565079869E+03  0.84565079869E+03  0.00000000000E+00 0. -1.
         -2   -1    0    0    0  501 -0.00000000000E+00 -0.00000000000E+00 -0.81196806528E+03  0.81196806528E+03  0.00000000000E+00 0.  1.
         23    2    1    2    0    0  0.21500498958E+01  0.25071445453E+03  0.53209753257E+03  0.59914833833E+03  0.11396748105E+03 0.  0.
        254    2    1    2    0    0 -0.21500498958E+01 -0.25071445453E+03 -0.49841479916E+03  0.10584705256E+04  0.89948884441E+03 0.  0.
        -24    2    4    4    0    0  0.82952658422E+02  0.17481161404E+03 -0.57421934242E+03  0.61126856157E+03  0.80505634692E+02 0.  0.
         24    2    4    4    0    0 -0.85102708318E+02 -0.42552606857E+03  0.75804543261E+02  0.44720196407E+03  0.76995856346E+02 0.  0.
         13    1    3    3    0    0 -0.27636775079E+02  0.95201232031E+02  0.31644103503E+03  0.33160517874E+03  0.00000000000E+00 0. -1.
        -13    1    3    3    0    0  0.29786824975E+02  0.15551322250E+03  0.21565649753E+03  0.26754315959E+03  0.00000000000E+00 0.  1.
          4    1    6    6  502    0 -0.38169319839E+02 -0.59443736504E+02  0.23421202111E+02  0.74424508698E+02  0.00000000000E+00 0. -1.
          3    1    5    5  503    0  0.18579820052E+02  0.10364758473E+03 -0.21424405180E+03  0.23872273722E+03  0.00000000000E+00 0. -1.
         -4    1    5    5    0  503  0.64372838371E+02  0.71164029309E+02 -0.35997529062E+03  0.37254582435E+03  0.00000000000E+00 0.  1.
         -3    1    6    6    0  502 -0.46933388479E+02 -0.36608233206E+03  0.52383341150E+02  0.37277745537E+03  0.00000000000E+00 0.  1.
<mgrwt>
<rscale>  0 0.16572766E+04</rscale>
<asrwt>0</asrwt>
<pdfrwt beam="1">  1        2 0.13010012E+00 0.16572766E+04</pdfrwt>
<pdfrwt beam="2">  1       -2 0.12491816E+00 0.16572766E+04</pdfrwt>
<totfact> 0.14654057E+01</totfact>
</mgrwt>
</event>
<event>
12    1  0.1598876E-007  0.2488401E+04  0.7818608E-02  0.8407130E-01
         -1   -1    0    0    0  501 -0.00000000000E+00  0.00000000000E+00  0.11511348235E+04  0.11511348235E+04  0.00000000000E+00 0.  1.
          1   -1    0    0  501    0  0.00000000000E+00 -0.00000000000E+00 -0.13447898665E+04  0.13447898665E+04  0.00000000000E+00 0. -1.
         23    2    1    2    0    0 -0.32780706808E+03 -0.76015678349E+03  0.60657825086E+03  0.10303079341E+04  0.91112321854E+02 0.  0.
        254    2    1    2    0    0  0.32780706808E+03  0.76015678349E+03 -0.80023329385E+03  0.14656167560E+04  0.90684251201E+03 0.  0.
        -24    2    4    4    0    0  0.62184231484E+03  0.62092604167E+03 -0.49080519019E+03  0.10096592661E+04  0.79278528600E+02 0.  0.
         24    2    4    4    0    0 -0.29403524676E+03  0.13923074182E+03 -0.30942810366E+03  0.45595748995E+03  0.79432710572E+02 0.  0.
         11    1    3    3    0    0 -0.14979228213E+03 -0.38235268852E+03  0.35444117884E+03  0.54245723838E+03  0.00000000000E+00 0. -1.
        -11    1    3    3    0    0 -0.17801478595E+03 -0.37780409497E+03  0.25213707201E+03  0.48785069568E+03  0.00000000000E+00 0.  1.
          4    1    6    6  502    0 -0.21744063856E+03  0.79196953128E+02 -0.25540240207E+03  0.34464906160E+03  0.00000000000E+00 0. -1.
          1    1    5    5  503    0  0.43938097668E+03  0.47447164737E+03 -0.33225148660E+03  0.72702822310E+03  0.00000000000E+00 0. -1.
         -2    1    5    5    0  503  0.18246133815E+03  0.14645439430E+03 -0.15855370359E+03  0.28263104297E+03  0.00000000000E+00 0.  1.
         -3    1    6    6    0  502 -0.76594608200E+02  0.60033788691E+02 -0.54025701588E+02  0.11130842835E+03  0.00000000000E+00 0.  1.
<mgrwt>
<rscale>  0 0.24884006E+04</rscale>
<asrwt>0</asrwt>
<pdfrwt beam="1">  1        1 0.20689075E+00 0.24884006E+04</pdfrwt>
<pdfrwt beam="2">  1       -1 0.17709767E+00 0.24884006E+04</pdfrwt>
<totfact> 0.16324165E+00</totfact>
</mgrwt>
</event>
<event>
12    1  0.1598876E-007  0.1289647E+04  0.7818608E-02  0.9037816E-01
         -1   -1    0    0    0  501 -0.00000000000E+00  0.00000000000E+00  0.49956335241E+03  0.49956335241E+03  0.00000000000E+00 0.  1.
          1   -1    0    0  501    0  0.00000000000E+00 -0.00000000000E+00 -0.83232095445E+03  0.83232095445E+03  0.00000000000E+00 0. -1.
         23    2    1    2    0    0  0.18133518385E+02 -0.24732427703E+03 -0.29686899328E+03  0.39741778342E+03  0.91167828280E+02 0.  0.
        254    2    1    2    0    0 -0.18133518385E+02  0.24732427703E+03 -0.35888608764E+02  0.93446652343E+03  0.90024528250E+03 0.  0.
        -24    2    4    4    0    0 -0.20348540051E+03 -0.27760394780E+03  0.75234932371E+02  0.36133756867E+03  0.80213985273E+02 0.  0.
         24    2    4    4    0    0  0.18535188213E+03  0.52492822483E+03 -0.11112354114E+03  0.57312895475E+03  0.78888503290E+02 0.  0.
         11    1    3    3    0    0  0.21375210792E+02 -0.21882139330E+03 -0.20294113603E+03  0.29920696265E+03  0.00000000000E+00 0. -1.
        -11    1    3    3    0    0 -0.32416924075E+01 -0.28502883730E+02 -0.93927857246E+02  0.98210820775E+02  0.00000000000E+00 0.  1.
          2    1    6    6  502    0  0.68322644713E+02  0.29518976119E+03 -0.39647908243E+02  0.30557639883E+03  0.00000000000E+00 0. -1.
          3    1    5    5  503    0 -0.66345144906E+01 -0.17543574637E+02  0.25117131506E+02  0.31347473401E+02  0.00000000000E+00 0. -1.
         -4    1    5    5    0  503 -0.19685088602E+03 -0.26006037316E+03  0.50117800865E+02  0.32999009527E+03  0.00000000000E+00 0.  1.
         -1    1    6    6    0  502  0.11702923742E+03  0.22973846364E+03 -0.71475632892E+02  0.26755255593E+03  0.00000000000E+00 0.  1.
<mgrwt>
<rscale>  0 0.12896465E+04</rscale>
<asrwt>0</asrwt>
<pdfrwt beam="1">  1        1 0.12804938E+00 0.12896465E+04</pdfrwt>
<pdfrwt beam="2">  1       -1 0.76855900E-01 0.12896465E+04</pdfrwt>
<totfact> 0.34635470E+01</totfact>
</mgrwt>
</event>
<event>
12    1  0.1598876E-007  0.1563902E+04  0.7818608E-02  0.8843037E-01
         -2   -1    0    0    0  501 -0.00000000000E+00  0.00000000000E+00  0.34761930604E+03  0.34761930604E+03  0.00000000000E+00 0.  1.
          2   -1    0    0  501    0  0.00000000000E+00 -0.00000000000E+00 -0.17589563912E+04  0.17589563912E+04  0.00000000000E+00 0. -1.
         23    2    1    2    0    0  0.44958718137E+03 -0.83673602760E+02 -0.14263190602E+03  0.48784466168E+03  0.92296521418E+02 0.  0.
        254    2    1    2    0    0 -0.44958718137E+03  0.83673602760E+02 -0.12687051792E+04  0.16187310356E+04  0.89529181190E+03 0.  0.
        -24    2    4    4    0    0  0.17677548871E+03  0.19763048372E+03 -0.73110730819E+03  0.78172485843E+03  0.79173712177E+02 0.  0.
         24    2    4    4    0    0 -0.62636267007E+03 -0.11395688096E+03 -0.53759787098E+03  0.83700617715E+03  0.79066456383E+02 0.  0.
         11    1    3    3    0    0  0.39770141135E+03 -0.41885023526E+02 -0.12311235142E+03  0.41842253627E+03  0.00000000000E+00 0.  1.
        -11    1    3    3    0    0  0.51885770014E+02 -0.41788579234E+02 -0.19519554601E+02  0.69422125408E+02  0.00000000000E+00 0. -1.
          4    1    6    6  502    0 -0.12793774435E+03 -0.32053529913E+02 -0.15392710654E+03  0.20270433971E+03  0.00000000000E+00 0. -1.
          1    1    5    5  503    0  0.54012724636E+02  0.15712619664E+02 -0.12383137674E+03  0.13600908317E+03  0.00000000000E+00 0. -1.
         -2    1    5    5    0  503  0.12276276407E+03  0.18191786406E+03 -0.60727593145E+03  0.64571577526E+03  0.00000000000E+00 0.  1.
         -3    1    6    6    0  502 -0.49842492572E+03 -0.81903351050E+02 -0.38367076444E+03  0.63430183744E+03  0.00000000000E+00 0.  1.
<mgrwt>
<rscale>  0 0.15639018E+04</rscale>
<asrwt>0</asrwt>
<pdfrwt beam="1">  1        2 0.27060868E+00 0.15639018E+04</pdfrwt>
<pdfrwt beam="2">  1       -2 0.53479892E-01 0.15639018E+04</pdfrwt>
<totfact> 0.28811915E+01</totfact>
</mgrwt>
</event>
<event>
12    1  0.1598876E-007  0.3984066E+04  0.7818608E-02  0.8007769E-01
          4   -1    0    0  501    0  0.00000000000E+00  0.00000000000E+00  0.25808787535E+04  0.25808787535E+04  0.00000000000E+00 0. -1.
         -4   -1    0    0    0  501 -0.00000000000E+00 -0.00000000000E+00 -0.15375364438E+04  0.15375364438E+04  0.00000000000E+00 0.  1.
         23    2    1    2    0    0  0.81891870707E+03 -0.12711592214E+04  0.16743084279E+04  0.22577318195E+04  0.87009435671E+02 0.  0.
        254    2    1    2    0    0 -0.81891870707E+03  0.12711592214E+04 -0.63096611823E+03  0.18606833779E+04  0.88178839599E+03 0.  0.
        -24    2    4    4    0    0 -0.32937924512E+03  0.10794653388E+04 -0.69115042391E+03  0.13257383809E+04  0.78468092134E+02 0.  0.
         24    2    4    4    0    0 -0.48953946195E+03  0.19169388264E+03  0.60184305673E+02  0.53494499692E+03  0.78412815509E+02 0.  0.
         13    1    3    3    0    0  0.96944912376E+02 -0.10405941313E+03  0.15302389484E+03  0.20890904693E+03  0.00000000000E+00 0.  1.
        -13    1    3    3    0    0  0.72197379469E+03 -0.11670998083E+04  0.15212845331E+04  0.20488227726E+04  0.00000000000E+00 0. -1.
          4    1    6    6  502    0 -0.90881974167E+02  0.63671276457E+02 -0.55591324960E+01  0.11110566425E+03  0.00000000000E+00 0. -1.
          1    1    5    5  503    0 -0.12527318384E+03  0.54121747053E+03 -0.35021063937E+03  0.65670176863E+03  0.00000000000E+00 0. -1.
         -2    1    5    5    0  503 -0.20410606128E+03  0.53824786824E+03 -0.34093978454E+03  0.66903661230E+03  0.00000000000E+00 0.  1.
         -3    1    6    6    0  502 -0.39865748778E+03  0.12802260618E+03  0.65743438169E+02  0.42383933267E+03  0.00000000000E+00 0.  1.
<mgrwt>
<rscale>  0 0.39840658E+04</rscale>
<asrwt>0</asrwt>
<pdfrwt beam="1">  1        4 0.39705827E+00 0.39840658E+04</pdfrwt>
<pdfrwt beam="2">  1       -4 0.23654407E+00 0.39840658E+04</pdfrwt>
<totfact> 0.84630363E-04</totfact>
</mgrwt>
</event>
<event>
12    1  0.1598876E-007  0.2054494E+04  0.7818608E-02  0.8581558E-01
          1   -1    0    0  501    0  0.00000000000E+00  0.00000000000E+00  0.13368307975E+04  0.13368307975E+04  0.00000000000E+00 0. -1.
         -1   -1    0    0    0  501 -0.00000000000E+00 -0.00000000000E+00 -0.78935694499E+03  0.78935694499E+03  0.00000000000E+00 0.  1.
         23    2    1    2    0    0 -0.74976589127E+03  0.34540200256E+03  0.19360247220E+03  0.85444698097E+03  0.10557599617E+03 0.  0.
        254    2    1    2    0    0  0.74976589127E+03 -0.34540200256E+03  0.35387138030E+03  0.12717407615E+04  0.90036002555E+03 0.  0.
        -24    2    4    4    0    0  0.32932616348E+03 -0.43585496303E+03  0.56134328383E+03  0.78693799079E+03  0.75761786491E+02 0.  0.
         24    2    4    4    0    0  0.42043972779E+03  0.90452960471E+02 -0.20747190353E+03  0.48480277072E+03  0.83891793307E+02 0.  0.
         11    1    3    3    0    0 -0.73900957206E+03  0.32823930964E+03  0.17587795134E+03  0.82753202098E+03  0.00000000000E+00 0. -1.
        -11    1    3    3    0    0 -0.10756319209E+02  0.17162692916E+02  0.17724520868E+02  0.26914959986E+02  0.00000000000E+00 0.  1.
          2    1    6    6  502    0  0.13979654552E+02  0.17887381650E+02  0.40420247811E-01  0.22702220100E+02  0.00000000000E+00 0. -1.
          1    1    5    5  503    0  0.14506333237E+03 -0.17450240159E+03  0.18271765086E+03  0.29134206441E+03  0.00000000000E+00 0. -1.
         -2    1    5    5    0  503  0.18426283111E+03 -0.26135256143E+03  0.37862563297E+03  0.49559592638E+03  0.00000000000E+00 0.  1.
         -1    1    6    6    0  502  0.40646007324E+03  0.72565578821E+02 -0.20751232378E+03  0.46210055062E+03  0.00000000000E+00 0.  1.
<mgrwt>
<rscale>  0 0.20544943E+04</rscale>
<asrwt>0</asrwt>
<pdfrwt beam="1">  1        1 0.20566628E+00 0.20544943E+04</pdfrwt>
<pdfrwt beam="2">  1       -1 0.12143953E+00 0.20544943E+04</pdfrwt>
<totfact> 0.47266077E+00</totfact>
</mgrwt>
</event>
<event>
12    1  0.1598876E-007  0.1611212E+04  0.7818608E-02  0.8813690E-01
         -1   -1    0    0    0  501 -0.00000000000E+00  0.00000000000E+00  0.29144887781E+03  0.29144887781E+03  0.00000000000E+00 0.  1.
          1   -1    0    0  501    0  0.00000000000E+00 -0.00000000000E+00 -0.22268085698E+04  0.22268085698E+04  0.00000000000E+00 0. -1.
         23    2    1    2    0    0  0.19139604190E+03  0.26118077252E+03  0.22878536686E+02  0.33752567023E+03  0.92478699352E+02 0.  0.
        254    2    1    2    0    0 -0.19139604190E+03 -0.26118077252E+03 -0.19582382286E+04  0.21807317773E+04  0.90335280141E+03 0.  0.
        -24    2    4    4    0    0  0.10195595857E+03 -0.19743902787E+02 -0.17198669743E+04  0.17250851356E+04  0.84802572496E+02 0.  0.
         24    2    4    4    0    0 -0.29335200047E+03 -0.24143686973E+03 -0.23837125430E+03  0.45564664179E+03  0.80286045171E+02 0.  0.
         11    1    3    3    0    0  0.16703502364E+03  0.20301541515E+03  0.52118774676E+02  0.26801553049E+03  0.00000000000E+00 0. -1.
        -11    1    3    3    0    0  0.24361018259E+02  0.58165357367E+02 -0.29240237990E+02  0.69510139735E+02  0.00000000000E+00 0.  1.
          2    1    6    6  502    0 -0.38465590856E+02 -0.40971827248E+02 -0.55983811254E+01  0.56476846399E+02  0.00000000000E+00 0. -1.
          1    1    5    5  503    0  0.50777658347E+02  0.33015728922E+02 -0.76980093483E+03  0.77217995844E+03  0.00000000000E+00 0. -1.
         -2    1    5    5    0  503  0.51178300223E+02 -0.52759631709E+02 -0.95006603950E+03  0.95290517711E+03  0.00000000000E+00 0.  1.
         -1    1    6    6    0  502 -0.25488640962E+03 -0.20046504248E+03 -0.23277287317E+03  0.39916979539E+03  0.00000000000E+00 0.  1.
<mgrwt>
<rscale>  0 0.16112118E+04</rscale>
<asrwt>0</asrwt>
<pdfrwt beam="1">  1        1 0.34258594E+00 0.16112118E+04</pdfrwt>
<pdfrwt beam="2">  1       -1 0.44838289E-01 0.16112118E+04</pdfrwt>
<totfact> 0.98817679E+00</totfact>
</mgrwt>
</event>
<event>
12    1  0.1598876E-007  0.1918458E+04  0.7818608E-02  0.8645723E-01
          1   -1    0    0  501    0  0.00000000000E+00  0.00000000000E+00  0.11493779887E+04  0.11493779887E+04  0.00000000000E+00 0. -1.
         -1   -1    0    0    0  501 -0.00000000000E+00 -0.00000000000E+00 -0.80053784556E+03  0.80053784556E+03  0.00000000000E+00 0.  1.
         23    2    1    2    0    0  0.22896563616E+03  0.64033850498E+03 -0.16862185161E+03  0.70708303280E+03  0.95259765547E+02 0.  0.
        254    2    1    2    0    0 -0.22896563616E+03 -0.64033850498E+03  0.51746199471E+03  0.12428328014E+04  0.90244545142E+03 0.  0.
        -24    2    4    4    0    0 -0.55664641879E+03 -0.53711971566E+03  0.35353864553E+03  0.85411432940E+03  0.78542277042E+02 0.  0.
         24    2    4    4    0    0  0.32768078264E+03 -0.10321878932E+03  0.16392334918E+03  0.38871847201E+03  0.78755141424E+02 0.  0.
         11    1    3    3    0    0  0.23212667986E+03  0.61896297195E+03 -0.14844722274E+03  0.67752087354E+03  0.00000000000E+00 0.  1.
        -11    1    3    3    0    0 -0.31610437069E+01  0.21375533037E+02 -0.20174628878E+02  0.29562159263E+02  0.00000000000E+00 0. -1.
          4    1    6    6  502    0  0.21998668422E+03 -0.40872698481E+02  0.75822371273E+02  0.23624934011E+03  0.00000000000E+00 0. -1.
          1    1    5    5  503    0 -0.39048884077E+01 -0.17873692779E+01  0.11047828971E+02  0.11853158541E+02  0.00000000000E+00 0. -1.
         -2    1    5    5    0  503 -0.55274153039E+03 -0.53533234639E+03  0.34249081656E+03  0.84226117086E+03  0.00000000000E+00 0.  1.
         -3    1    6    6    0  502  0.10769409842E+03 -0.62346090838E+02  0.88100977904E+02  0.15246913191E+03  0.00000000000E+00 0.  1.
<mgrwt>
<rscale>  0 0.19184583E+04</rscale>
<asrwt>0</asrwt>
<pdfrwt beam="1">  1        1 0.17682738E+00 0.19184583E+04</pdfrwt>
<pdfrwt beam="2">  1       -1 0.12315967E+00 0.19184583E+04</pdfrwt>
<totfact> 0.63168863E+00</totfact>
</mgrwt>
</event>
<event>
12    1  0.1598876E-007  0.1914029E+04  0.7818608E-02  0.8647905E-01
         -2   -1    0    0    0  501 -0.00000000000E+00  0.00000000000E+00  0.55113786799E+03  0.55113786799E+03  0.00000000000E+00 0. -1.
          2   -1    0    0  501    0  0.00000000000E+00 -0.00000000000E+00 -0.16617916173E+04  0.16617916173E+04  0.00000000000E+00 0.  1.
         23    2    1    2    0    0  0.70790919662E+03 -0.17952822438E+03 -0.42037849047E+03  0.84756582084E+03  0.91016105133E+02 0.  0.
        254    2    1    2    0    0 -0.70790919662E+03  0.17952822438E+03 -0.69027525889E+03  0.13653636645E+04  0.92432255695E+03 0.  0.
        -24    2    4    4    0    0  0.84500306090E+02 -0.10623953137E+03 -0.46322703194E+03  0.48921856465E+03  0.79551122677E+02 0.  0.
         24    2    4    4    0    0 -0.79240950271E+03  0.28576775575E+03 -0.22704822695E+03  0.87614509985E+03  0.80643092778E+02 0.  0.
         13    1    3    3    0    0  0.28032402366E+03 -0.53822591977E+02 -0.11735077092E+03  0.30862539281E+03  0.00000000000E+00 0.  1.
        -13    1    3    3    0    0  0.42758517296E+03 -0.12570563240E+03 -0.30302771955E+03  0.53894042803E+03  0.00000000000E+00 0. -1.
          2    1    6    6  502    0 -0.12216220566E+03  0.21333520370E+02 -0.14097673239E+02  0.12480972708E+03  0.00000000000E+00 0. -1.
          1    1    5    5  503    0 -0.10486704405E+02  0.41154848164E+01 -0.24624465867E+02  0.27079004853E+02  0.00000000000E+00 0. -1.
         -2    1    5    5    0  503  0.94987010496E+02 -0.11035501618E+03 -0.43860256608E+03  0.46213955980E+03  0.00000000000E+00 0.  1.
         -1    1    6    6    0  502 -0.67024729705E+03  0.26443423538E+03 -0.21295055371E+03  0.75133537276E+03  0.00000000000E+00 0.  1.
<mgrwt>
<rscale>  0 0.19140285E+04</rscale>
<asrwt>0</asrwt>
<pdfrwt beam="1">  1        2 0.25566025E+00 0.19140285E+04</pdfrwt>
<pdfrwt beam="2">  1       -2 0.84790441E-01 0.19140285E+04</pdfrwt>
<totfact> 0.11674980E+01</totfact>
</mgrwt>
</event>
<event>
12    1  0.1598876E-007  0.2395242E+04  0.7818608E-02  0.8441287E-01
         -2   -1    0    0    0  501 -0.00000000000E+00  0.00000000000E+00  0.11083605391E+04  0.11083605391E+04  0.00000000000E+00 0.  1.
          2   -1    0    0  501    0  0.00000000000E+00 -0.00000000000E+00 -0.12940704385E+04  0.12940704385E+04  0.00000000000E+00 0. -1.
         23    2    1    2    0    0 -0.17912139215E+03 -0.97301834468E+02  0.86036517732E+03  0.88889137401E+03  0.91364743359E+02 0.  0.
        254    2    1    2    0    0  0.17912139215E+03  0.97301834468E+02 -0.10460750767E+04  0.15135396036E+04  0.10746985370E+04 0.  0.
        -24    2    4    4    0    0  0.61078652177E+03 -0.76924564891E+02 -0.56338194672E+03  0.83812681923E+03  0.77972965651E+02 0.  0.
         24    2    4    4    0    0 -0.43166512962E+03  0.17422639936E+03 -0.48269313002E+03  0.67541278440E+03  0.80623502786E+02 0.  0.
         13    1    3    3    0    0 -0.85007183102E+01 -0.28496163822E+01  0.20325200525E+03  0.20344965020E+03  0.00000000000E+00 0. -1.
        -13    1    3    3    0    0 -0.17062067384E+03 -0.94452218086E+02  0.65711317207E+03  0.68544172381E+03  0.00000000000E+00 0.  1.
          2    1    6    6  502    0 -0.25336899517E+03  0.86892350684E+02 -0.32954505256E+03  0.42467172025E+03  0.00000000000E+00 0. -1.
          3    1    5    5  503    0  0.58003674296E+03 -0.79671249350E+02 -0.50999723483E+03  0.77645818348E+03  0.00000000000E+00 0. -1.
         -2    1    5    5    0  503  0.30749778806E+02  0.27466844586E+01 -0.53384711892E+02  0.61668635755E+02  0.00000000000E+00 0.  1.
         -1    1    6    6    0  502 -0.17829613445E+03  0.87334048675E+02 -0.15314807746E+03  0.25074106415E+03  0.00000000000E+00 0.  1.
<mgrwt>
<rscale>  0 0.23952425E+04</rscale>
<asrwt>0</asrwt>
<pdfrwt beam="1">  1        2 0.19908776E+00 0.23952425E+04</pdfrwt>
<pdfrwt beam="2">  1       -2 0.17051701E+00 0.23952425E+04</pdfrwt>
<totfact> 0.31682846E+00</totfact>
</mgrwt>
</event>
<event>
12    1  0.1598876E-007  0.1762734E+04  0.7818608E-02  0.8726372E-01
         -1   -1    0    0    0  501 -0.00000000000E+00  0.00000000000E+00  0.44686267241E+03  0.44686267241E+03  0.00000000000E+00 0.  1.
          1   -1    0    0  501    0  0.00000000000E+00 -0.00000000000E+00 -0.17383597922E+04  0.17383597922E+04  0.00000000000E+00 0. -1.
         23    2    1    2    0    0  0.42824558754E+03 -0.38957644659E+03 -0.78862631834E+03  0.98244045504E+03  0.89964919451E+02 0.  0.
        254    2    1    2    0    0 -0.42824558754E+03  0.38957644659E+03 -0.50287080141E+03  0.12027820095E+04  0.92662906739E+03 0.  0.
        -24    2    4    4    0    0 -0.11793099527E+03 -0.83042705582E+02  0.22433003382E+03  0.27821718928E+03  0.79227708185E+02 0.  0.
         24    2    4    4    0    0 -0.31031459227E+03  0.47261915217E+03 -0.72720083523E+03  0.92456482024E+03  0.79592982681E+02 0.  0.
         11    1    3    3    0    0  0.14011400055E+03 -0.17505175072E+03 -0.34740065069E+03  0.41347582841E+03  0.00000000000E+00 0.  1.
        -11    1    3    3    0    0  0.28813158699E+03 -0.21452469586E+03 -0.44122566765E+03  0.56896462662E+03  0.00000000000E+00 0. -1.
          4    1    6    6  502    0 -0.11218969614E+02  0.36517590646E+02 -0.81093041130E+02  0.89640844627E+02  0.00000000000E+00 0. -1.
          3    1    5    5  503    0  0.62635336430E+01 -0.84944047524E+01 -0.72248125435E+00  0.10578692970E+02  0.00000000000E+00 0. -1.
         -4    1    5    5    0  503 -0.12419452891E+03 -0.74548300830E+02  0.22505251507E+03  0.26763849631E+03  0.00000000000E+00 0.  1.
         -3    1    6    6    0  502 -0.29909562266E+03  0.43610156152E+03 -0.64610779410E+03  0.83492397561E+03  0.00000000000E+00 0.  1.
<mgrwt>
<rscale>  0 0.17627344E+04</rscale>
<asrwt>0</asrwt>
<pdfrwt beam="1">  1        1 0.26743997E+00 0.17627344E+04</pdfrwt>
<pdfrwt beam="2">  1       -1 0.68748103E-01 0.17627344E+04</pdfrwt>
<totfact> 0.90943195E+00</totfact>
</mgrwt>
</event>
<event>
12    1  0.1598876E-007  0.2824506E+04  0.7818608E-02  0.8295700E-01
         -2   -1    0    0    0  501 -0.00000000000E+00  0.00000000000E+00  0.61972485753E+03  0.61972485753E+03  0.00000000000E+00 0.  1.
          2   -1    0    0  501    0  0.00000000000E+00 -0.00000000000E+00 -0.32182962213E+04  0.32182962213E+04  0.00000000000E+00 0. -1.
         23    2    1    2    0    0  0.34779535848E+03 -0.55581259129E+03 -0.26453220365E+04  0.27269262885E+04  0.92244553203E+02 0.  0.
        254    2    1    2    0    0 -0.34779535848E+03  0.55581259129E+03  0.46750672738E+02  0.11110947904E+04  0.89579950875E+03 0.  0.
        -24    2    4    4    0    0 -0.55714263752E+03  0.14197452402E+03 -0.15288054155E+03  0.60014917892E+03  0.79005651459E+02 0.  0.
         24    2    4    4    0    0  0.20934727903E+03  0.41383806727E+03  0.19963121429E+03  0.51094561150E+03  0.78259613031E+02 0.  0.
         11    1    3    3    0    0  0.32225859487E+03 -0.45227124190E+03 -0.21985591030E+04  0.22676115205E+04  0.00000000000E+00 0. -1.
        -11    1    3    3    0    0  0.25536763611E+02 -0.10354134939E+03 -0.44676293350E+03  0.45931476798E+03  0.00000000000E+00 0.  1.
          2    1    6    6  502    0  0.43769581122E+02  0.35127667020E+02  0.34343403878E+02  0.65796645901E+02  0.00000000000E+00 0. -1.
          1    1    5    5  503    0 -0.40251794322E+03  0.13665293847E+03 -0.10043783688E+03  0.43678653743E+03  0.00000000000E+00 0. -1.
         -2    1    5    5    0  503 -0.15462469430E+03  0.53215855439E+01 -0.52442704673E+02  0.16336264149E+03  0.00000000000E+00 0.  1.
         -1    1    6    6    0  502  0.16557769791E+03  0.37871040025E+03  0.16528781041E+03  0.44514896560E+03  0.00000000000E+00 0.  1.
<mgrwt>
<rscale>  0 0.28245057E+04</rscale>
<asrwt>0</asrwt>
<pdfrwt beam="1">  1        2 0.49512248E+00 0.28245057E+04</pdfrwt>
<pdfrwt beam="2">  1       -2 0.95342288E-01 0.28245057E+04</pdfrwt>
<totfact> 0.10120371E+00</totfact>
</mgrwt>
</event>
<event>
12    1  0.1598876E-007  0.2599526E+04  0.7818608E-02  0.8368362E-01
         -2   -1    0    0    0  501 -0.00000000000E+00  0.00000000000E+00  0.49371884222E+03  0.49371884222E+03  0.00000000000E+00 0. -1.
          2   -1    0    0  501    0  0.00000000000E+00 -0.00000000000E+00 -0.34217526839E+04  0.34217526839E+04  0.00000000000E+00 0.  1.
         23    2    1    2    0    0 -0.10932214823E+04 -0.18743835975E+03 -0.88251232029E+03  0.14204159074E+04  0.92124950159E+02 0.  0.
        254    2    1    2    0    0  0.10932214823E+04  0.18743835975E+03 -0.20455215214E+04  0.24950556188E+04  0.90048758898E+03 0.  0.
        -24    2    4    4    0    0  0.10729574819E+04  0.79440554149E+02 -0.11027941720E+04  0.15426618239E+04  0.78115027790E+02 0.  0.
         24    2    4    4    0    0  0.20264000426E+02  0.10799780560E+03 -0.94272734947E+03  0.95239379487E+03  0.79024865256E+02 0.  0.
         13    1    3    3    0    0 -0.10017869101E+04 -0.14536689949E+03 -0.80705362672E+03  0.12946212207E+04  0.00000000000E+00 0. -1.
        -13    1    3    3    0    0 -0.91434572196E+02 -0.42071460260E+02 -0.75458693573E+02  0.12579468668E+03  0.00000000000E+00 0.  1.
          4    1    6    6  502    0 -0.23277983329E+02  0.64629045390E+01 -0.20990811569E+03  0.21129375447E+03  0.00000000000E+00 0. -1.
          3    1    5    5  503    0  0.74695518951E+03  0.23628417805E+02 -0.73947043189E+03  0.10513405143E+04  0.00000000000E+00 0. -1.
         -4    1    5    5    0  503  0.32600229238E+03  0.55812136344E+02 -0.36332374006E+03  0.49132130963E+03  0.00000000000E+00 0.  1.
         -3    1    6    6    0  502  0.43541983754E+02  0.10153490107E+03 -0.73281923378E+03  0.74110004040E+03  0.00000000000E+00 0.  1.
<mgrwt>
<rscale>  0 0.25995259E+04</rscale>
<asrwt>0</asrwt>
<pdfrwt beam="1">  1        2 0.52642345E+00 0.25995259E+04</pdfrwt>
<pdfrwt beam="2">  1       -2 0.75956750E-01 0.25995259E+04</pdfrwt>
<totfact> 0.12657999E+00</totfact>
</mgrwt>
</event>
<event>
12    1  0.1598876E-007  0.2282513E+04  0.7818608E-02  0.8484848E-01
         -1   -1    0    0    0  501 -0.00000000000E+00  0.00000000000E+00  0.14067791514E+04  0.14067791514E+04  0.00000000000E+00 0.  1.
          1   -1    0    0  501    0  0.00000000000E+00 -0.00000000000E+00 -0.92585022118E+03  0.92585022118E+03  0.00000000000E+00 0. -1.
         23    2    1    2    0    0 -0.59378501333E+03 -0.13614980428E+03  0.99186793002E+03  0.11677129231E+04  0.92919690532E+02 0.  0.
        254    2    1    2    0    0  0.59378501333E+03  0.13614980428E+03 -0.51093899975E+03  0.11649164495E+04  0.85138373350E+03 0.  0.
        -24    2    4    4    0    0  0.66868319301E+03 -0.94161942728E+02 -0.10730337390E+03  0.68780746882E+03  0.74574902186E+02 0.  0.
         24    2    4    4    0    0 -0.74898179682E+02  0.23031174701E+03 -0.40363562585E+03  0.47710898072E+03  0.77833301939E+02 0.  0.
         13    1    3    3    0    0 -0.15465649009E+03 -0.52122796829E+02  0.19788567411E+03  0.25650371517E+03  0.00000000000E+00 0. -1.
        -13    1    3    3    0    0 -0.43912852324E+03 -0.84027007456E+02  0.79398225591E+03  0.91120920793E+03  0.00000000000E+00 0.  1.
          4    1    6    6  502    0 -0.69675979365E+02  0.97807249538E+02 -0.21936393795E+03  0.25008306108E+03  0.00000000000E+00 0. -1.
          3    1    5    5  503    0  0.37589826918E+03 -0.20980089784E+02 -0.40006924239E+02  0.37860299382E+03  0.00000000000E+00 0. -1.
         -4    1    5    5    0  503  0.29278492383E+03 -0.73181852945E+02 -0.67296449661E+02  0.30920447500E+03  0.00000000000E+00 0.  1.
         -3    1    6    6    0  502 -0.52222003169E+01  0.13250449748E+03 -0.18427168790E+03  0.22702591964E+03  0.00000000000E+00 0.  1.
<mgrwt>
<rscale>  0 0.22825133E+04</rscale>
<asrwt>0</asrwt>
<pdfrwt beam="1">  1        1 0.14243850E+00 0.22825133E+04</pdfrwt>
<pdfrwt beam="2">  1       -1 0.21642756E+00 0.22825133E+04</pdfrwt>
<totfact> 0.18249189E+00</totfact>
</mgrwt>
</event>
<event>
12    1  0.1598876E-007  0.2731260E+04  0.7818608E-02  0.8324933E-01
         -1   -1    0    0    0  501 -0.00000000000E+00  0.00000000000E+00  0.73723606680E+03  0.73723606680E+03  0.00000000000E+00 0.  1.
          1   -1    0    0  501    0  0.00000000000E+00 -0.00000000000E+00 -0.25296444409E+04  0.25296444409E+04  0.00000000000E+00 0. -1.
         23    2    1    2    0    0  0.81638228344E+03  0.21001807420E+03  0.24739898517E+03  0.88319436736E+03  0.90765678872E+02 0.  0.
        254    2    1    2    0    0 -0.81638228344E+03 -0.21001807420E+03 -0.20398073592E+04  0.23836861403E+04  0.90030990694E+03 0.  0.
        -24    2    4    4    0    0  0.15682342890E+03 -0.18655062012E+03 -0.39301777674E+03  0.46896592033E+03  0.77918803069E+02 0.  0.
         24    2    4    4    0    0 -0.97320571234E+03 -0.23467454076E+02 -0.16467895825E+04  0.19147202200E+04  0.80978465731E+02 0.  0.
         13    1    3    3    0    0  0.15149190675E+03  0.57057758558E+01  0.31001701857E+02  0.15473674162E+03  0.00000000000E+00 0. -1.
        -13    1    3    3    0    0  0.66489037669E+03  0.20431229834E+03  0.21639728331E+03  0.72845762574E+03  0.00000000000E+00 0.  1.
          4    1    6    6  502    0 -0.23890240014E+03  0.17248317171E+02 -0.45755873357E+03  0.51646089484E+03  0.00000000000E+00 0. -1.
          3    1    5    5  503    0  0.45109339929E+02 -0.11396408240E+03 -0.18278365560E+03  0.22007391800E+03  0.00000000000E+00 0. -1.
         -4    1    5    5    0  503  0.11171408897E+03 -0.72586537720E+02 -0.21023412114E+03  0.24889200233E+03  0.00000000000E+00 0.  1.
         -1    1    6    6    0  502 -0.73430331219E+03 -0.40715771247E+02 -0.11892308489E+04  0.13982593252E+04  0.00000000000E+00 0.  1.
<mgrwt>
<rscale>  0 0.27312599E+04</rscale>
<asrwt>0</asrwt>
<pdfrwt beam="1">  1        1 0.38917607E+00 0.27312599E+04</pdfrwt>
<pdfrwt beam="2">  1       -1 0.11342093E+00 0.27312599E+04</pdfrwt>
<totfact> 0.79791738E-01</totfact>
</mgrwt>
</event>
<event>
12    1  0.1598876E-007  0.1121328E+04  0.7818608E-02  0.9184650E-01
          1   -1    0    0  501    0  0.00000000000E+00  0.00000000000E+00  0.12533959481E+04  0.12533959481E+04  0.00000000000E+00 0. -1.
         -1   -1    0    0    0  501 -0.00000000000E+00 -0.00000000000E+00 -0.25079386846E+03  0.25079386846E+03  0.00000000000E+00 0.  1.
         23    2    1    2    0    0 -0.84541143874E+02  0.45618026866E+02 -0.23887299556E+02  0.13466858445E+03  0.91306161753E+02 0.  0.
        254    2    1    2    0    0  0.84541143874E+02 -0.45618026866E+02  0.10264893792E+04  0.13695212321E+04  0.90148752085E+03 0.  0.
        -24    2    4    4    0    0 -0.10154745575E+03  0.37737694087E+03  0.67223052292E+03  0.78186881387E+03  0.81851847227E+02 0.  0.
         24    2    4    4    0    0  0.18608859962E+03 -0.42299496773E+03  0.35425885629E+03  0.58765241826E+03  0.79261073608E+02 0.  0.
         11    1    3    3    0    0 -0.97170282288E+02  0.41861281615E+02 -0.40652933589E+02  0.11334501166E+03  0.00000000000E+00 0.  1.
        -11    1    3    3    0    0  0.12629138414E+02  0.37567452515E+01  0.16765634032E+02  0.21323572789E+02  0.00000000000E+00 0. -1.
          2    1    6    6  502    0  0.49980062018E+02 -0.77120652007E+02  0.10788708080E+03  0.14172234746E+03  0.00000000000E+00 0. -1.
          1    1    5    5  503    0 -0.51890784667E+01  0.69244918262E+02  0.70233098594E+02  0.98764737526E+02  0.00000000000E+00 0. -1.
         -2    1    5    5    0  503 -0.96358377283E+02  0.30813202261E+03  0.60199742432E+03  0.68310407634E+03  0.00000000000E+00 0.  1.
         -1    1    6    6    0  502  0.13610853761E+03 -0.34587431573E+03  0.24637177549E+03  0.44593007081E+03  0.00000000000E+00 0.  1.
<mgrwt>
<rscale>  0 0.11213278E+04</rscale>
<asrwt>0</asrwt>
<pdfrwt beam="1">  1        1 0.19283014E+00 0.11213278E+04</pdfrwt>
<pdfrwt beam="2">  1       -1 0.38583673E-01 0.11213278E+04</pdfrwt>
<totfact> 0.63216814E+01</totfact>
</mgrwt>
</event>
<event>
12    1  0.1598876E-007  0.1767873E+04  0.7818608E-02  0.8723573E-01
         -2   -1    0    0    0  501 -0.00000000000E+00  0.00000000000E+00  0.18860803432E+03  0.18860803432E+03  0.00000000000E+00 0.  1.
          2   -1    0    0  501    0  0.00000000000E+00 -0.00000000000E+00 -0.41426837575E+04  0.41426837575E+04  0.00000000000E+00 0. -1.
         23    2    1    2    0    0  0.25148923676E+03  0.40777785284E+03 -0.25499594233E+04  0.25960168107E+04  0.86490505528E+02 0.  0.
        254    2    1    2    0    0 -0.25148923676E+03 -0.40777785284E+03 -0.14041162999E+04  0.17352749812E+04  0.90005947750E+03 0.  0.
        -24    2    4    4    0    0 -0.42129623715E+03 -0.59376857392E+03 -0.85628274215E+03  0.11267643444E+04  0.79536874981E+02 0.  0.
         24    2    4    4    0    0  0.16980700039E+03  0.18599072109E+03 -0.54783355778E+03  0.60851063677E+03  0.82076929216E+02 0.  0.
         11    1    3    3    0    0  0.54241345164E+02  0.11987753187E+03 -0.89872796461E+03  0.90830870333E+03  0.00000000000E+00 0.  1.
        -11    1    3    3    0    0  0.19724789160E+03  0.28790032097E+03 -0.16512314587E+04  0.16877081074E+04  0.00000000000E+00 0. -1.
          2    1    6    6  502    0  0.55503677720E+02  0.28299597688E+02 -0.77430263439E+02  0.99382952089E+02  0.00000000000E+00 0. -1.
          1    1    5    5  503    0 -0.17499095177E+03 -0.29679006576E+03 -0.36238998416E+03  0.50003267589E+03  0.00000000000E+00 0. -1.
         -2    1    5    5    0  503 -0.24630528538E+03 -0.29697850816E+03 -0.49389275799E+03  0.62673166851E+03  0.00000000000E+00 0.  1.
         -1    1    6    6    0  502  0.11430332267E+03  0.15769112340E+03 -0.47040329435E+03  0.50912768468E+03  0.00000000000E+00 0.  1.
<mgrwt>
<rscale>  0 0.17678727E+04</rscale>
<asrwt>0</asrwt>
<pdfrwt beam="1">  1        2 0.63733596E+00 0.17678727E+04</pdfrwt>
<pdfrwt beam="2">  1       -2 0.29016621E-01 0.17678727E+04</pdfrwt>
<totfact> 0.27378835E+00</totfact>
</mgrwt>
</event>
<event>
12    1  0.1598876E-007  0.2951960E+04  0.7818608E-02  0.8257583E-01
          2   -1    0    0  501    0  0.00000000000E+00  0.00000000000E+00  0.28808181324E+04  0.28808181324E+04  0.00000000000E+00 0. -1.
         -2   -1    0    0    0  501 -0.00000000000E+00 -0.00000000000E+00 -0.75621488404E+03  0.75621488404E+03  0.00000000000E+00 0.  1.
         23    2    1    2    0    0  0.71778691208E+03  0.87148061181E+03  0.18717424087E+04  0.21875750581E+04  0.85839865382E+02 0.  0.
        254    2    1    2    0    0 -0.71778691208E+03 -0.87148061181E+03  0.25286083968E+03  0.14494579583E+04  0.87309407332E+03 0.  0.
        -24    2    4    4    0    0 -0.41947954957E+03  0.12032643906E+01 -0.13216534381E+03  0.44676721063E+03  0.78541212327E+02 0.  0.
         24    2    4    4    0    0 -0.29830736251E+03 -0.87268387620E+03  0.38502618350E+03  0.10026907477E+04  0.81111918252E+02 0.  0.
         11    1    3    3    0    0  0.55430401657E+03  0.69762729658E+03  0.15344723922E+04  0.17744132298E+04  0.00000000000E+00 0. -1.
        -11    1    3    3    0    0  0.16348289551E+03  0.17385331522E+03  0.33727001646E+03  0.41316182827E+03  0.00000000000E+00 0.  1.
          4    1    6    6  502    0 -0.90441055961E+02 -0.16651274056E+03  0.87330741531E+02  0.20864499944E+03  0.00000000000E+00 0. -1.
          1    1    5    5  503    0 -0.28422651733E+03  0.32836246946E+02 -0.10775711978E+03  0.30573604486E+03  0.00000000000E+00 0. -1.
         -2    1    5    5    0  503 -0.13525303224E+03 -0.31632982556E+02 -0.24408224033E+02  0.14103116576E+03  0.00000000000E+00 0.  1.
         -3    1    6    6    0  502 -0.20786630655E+03 -0.70617113563E+03  0.29769544197E+03  0.79404574828E+03  0.00000000000E+00 0.  1.
<mgrwt>
<rscale>  0 0.29519604E+04</rscale>
<asrwt>0</asrwt>
<pdfrwt beam="1">  1        2 0.44320278E+00 0.29519604E+04</pdfrwt>
<pdfrwt beam="2">  1       -2 0.11634075E+00 0.29519604E+04</pdfrwt>
<totfact> 0.10163613E+00</totfact>
</mgrwt>
</event>
<event>
12    1  0.1598876E-007  0.1285698E+04  0.7818608E-02  0.9040985E-01
         -2   -1    0    0    0  501 -0.00000000000E+00  0.00000000000E+00  0.21434499734E+03  0.21434499734E+03  0.00000000000E+00 0.  1.
          2   -1    0    0  501    0  0.00000000000E+00 -0.00000000000E+00 -0.19279879965E+04  0.19279879965E+04  0.00000000000E+00 0. -1.
         23    2    1    2    0    0  0.10904319037E+03 -0.19628447561E+03 -0.44193713908E+03  0.50401328560E+03  0.91120494021E+02 0.  0.
        254    2    1    2    0    0 -0.10904319037E+03  0.19628447561E+03 -0.12717058600E+04  0.16383197082E+04  0.10081853297E+04 0.  0.
        -24    2    4    4    0    0 -0.20021404909E+03  0.42659734216E+03 -0.12921872284E+04  0.13777479756E+04  0.79816623467E+02 0.  0.
         24    2    4    4    0    0  0.91170858721E+02 -0.23031286654E+03  0.20481368325E+02  0.26057173257E+03  0.78243206684E+02 0.  0.
         13    1    3    3    0    0  0.10884228525E+03 -0.19738050830E+03 -0.44604240665E+03  0.49975947879E+03  0.00000000000E+00 0. -1.
        -13    1    3    3    0    0  0.20090512187E+00  0.10960326840E+01  0.41052675711E+01  0.42538068060E+01  0.00000000000E+00 0.  1.
          4    1    6    6  502    0  0.13279328803E+01 -0.12860256135E+02  0.21731950031E+02  0.25286898697E+02  0.00000000000E+00 0. -1.
          3    1    5    5  503    0 -0.45982193299E+02  0.11082851986E+03 -0.23812595039E+03  0.26664825363E+03  0.00000000000E+00 0. -1.
         -4    1    5    5    0  503 -0.15423185579E+03  0.31576882230E+03 -0.10540612780E+04  0.11110997220E+04  0.00000000000E+00 0.  1.
         -3    1    6    6    0  502  0.89842925841E+02 -0.21745261041E+03 -0.12505817058E+01  0.23528483388E+03  0.00000000000E+00 0.  1.
<mgrwt>
<rscale>  0 0.12856976E+04</rscale>
<asrwt>0</asrwt>
<pdfrwt beam="1">  1        2 0.29661354E+00 0.12856976E+04</pdfrwt>
<pdfrwt beam="2">  1       -2 0.32976153E-01 0.12856976E+04</pdfrwt>
<totfact> 0.61725514E+01</totfact>
</mgrwt>
</event>
<event>
12    1  0.1598876E-007  0.1635986E+04  0.7818608E-02  0.8798740E-01
          1   -1    0    0  501    0  0.00000000000E+00  0.00000000000E+00  0.70650969759E+03  0.70650969759E+03  0.00000000000E+00 0. -1.
         -1   -1    0    0    0  501 -0.00000000000E+00 -0.00000000000E+00 -0.94706781558E+03  0.94706781558E+03  0.00000000000E+00 0.  1.
         23    2    1    2    0    0  0.84657065235E+02 -0.20279003974E+03  0.44120938798E+03  0.50208523793E+03  0.95568002964E+02 0.  0.
        254    2    1    2    0    0 -0.84657065235E+02  0.20279003974E+03 -0.68176750598E+03  0.11514922752E+04  0.90157468289E+03 0.  0.
        -24    2    4    4    0    0 -0.88918312578E+02  0.50744873946E+03 -0.16691473669E+03  0.54775107563E+03  0.82219353214E+02 0.  0.
         24    2    4    4    0    0  0.42612473422E+01 -0.30465869972E+03 -0.51485276929E+03  0.60374119961E+03  0.81209485394E+02 0.  0.
         13    1    3    3    0    0  0.35456271870E+02 -0.18119206249E+03  0.31883319369E+03  0.36843224089E+03  0.00000000000E+00 0. -1.
        -13    1    3    3    0    0  0.49200793365E+02 -0.21597977243E+02  0.12237619429E+03  0.13365299704E+03  0.00000000000E+00 0.  1.
          4    1    6    6  502    0 -0.31262699460E+02 -0.57897464513E+02 -0.98521364621E+02  0.11847333903E+03  0.00000000000E+00 0. -1.
          3    1    5    5  503    0 -0.18954971882E+02  0.20147699912E+02  0.78511045101E+00  0.27673763192E+02  0.00000000000E+00 0. -1.
         -4    1    5    5    0  503 -0.69963340695E+02  0.48730103955E+03 -0.16769984714E+03  0.52007731244E+03  0.00000000000E+00 0.  1.
         -3    1    6    6    0  502  0.35523946802E+02 -0.24676123521E+03 -0.41633140467E+03  0.48526786058E+03  0.00000000000E+00 0.  1.
<mgrwt>
<rscale>  0 0.16359861E+04</rscale>
<asrwt>0</asrwt>
<pdfrwt beam="1">  1        1 0.10869380E+00 0.16359861E+04</pdfrwt>
<pdfrwt beam="2">  1       -1 0.14570274E+00 0.16359861E+04</pdfrwt>
<totfact> 0.96944278E+00</totfact>
</mgrwt>
</event>
<event>
12    1  0.1598876E-007  0.1648839E+04  0.7818608E-02  0.8791093E-01
         -1   -1    0    0    0  501 -0.00000000000E+00  0.00000000000E+00  0.48585230490E+03  0.48585230490E+03  0.00000000000E+00 0.  1.
          1   -1    0    0  501    0  0.00000000000E+00 -0.00000000000E+00 -0.13989183550E+04  0.13989183550E+04  0.00000000000E+00 0. -1.
         23    2    1    2    0    0 -0.18840110259E+03  0.54269778501E+02  0.29958715282E+03  0.36922605492E+03  0.90195527484E+02 0.  0.
        254    2    1    2    0    0  0.18840110259E+03 -0.54269778501E+02 -0.12126532029E+04  0.15155446050E+04  0.88764152383E+03 0.  0.
        -24    2    4    4    0    0  0.26028838782E+03  0.35213808971E+03 -0.85231497521E+03  0.96176270882E+03  0.82434289280E+02 0.  0.
         24    2    4    4    0    0 -0.71887285226E+02 -0.40640786821E+03 -0.36033822770E+03  0.55378189615E+03  0.80595366141E+02 0.  0.
         13    1    3    3    0    0 -0.11831422763E+03  0.67671147418E+02  0.14522073185E+03  0.19916501101E+03  0.00000000000E+00 0. -1.
        -13    1    3    3    0    0 -0.70086874960E+02 -0.13401368916E+02  0.15436642097E+03  0.17006104390E+03  0.00000000000E+00 0.  1.
          4    1    6    6  502    0  0.19717107613E+00 -0.63945522864E+02 -0.95367085264E+02  0.11482138182E+03  0.00000000000E+00 0. -1.
          1    1    5    5  503    0  0.16867651102E+03  0.15892149972E+03 -0.44448691190E+03  0.50127479818E+03  0.00000000000E+00 0. -1.
         -2    1    5    5    0  503  0.91611876795E+02  0.19321658999E+03 -0.40782806331E+03  0.46048791064E+03  0.00000000000E+00 0.  1.
         -3    1    6    6    0  502 -0.72084456302E+02 -0.34246234535E+03 -0.26497114243E+03  0.43896051433E+03  0.00000000000E+00 0.  1.
<mgrwt>
<rscale>  0 0.16488392E+04</rscale>
<asrwt>0</asrwt>
<pdfrwt beam="1">  1        1 0.21521821E+00 0.16488392E+04</pdfrwt>
<pdfrwt beam="2">  1       -1 0.74746509E-01 0.16488392E+04</pdfrwt>
<totfact> 0.13243779E+01</totfact>
</mgrwt>
</event>
<event>
12    1  0.1598876E-007  0.2198200E+04  0.7818608E-02  0.8519178E-01
          2   -1    0    0  501    0  0.00000000000E+00  0.00000000000E+00  0.10947892319E+04  0.10947892319E+04  0.00000000000E+00 0. -1.
         -2   -1    0    0    0  501 -0.00000000000E+00 -0.00000000000E+00 -0.11034279857E+04  0.11034279857E+04  0.00000000000E+00 0.  1.
         23    2    1    2    0    0  0.41835920318E+03  0.24976578176E+03  0.76861710386E+03  0.91457329680E+03  0.90910363788E+02 0.  0.
        254    2    1    2    0    0 -0.41835920318E+03 -0.24976578176E+03 -0.77725585759E+03  0.12836439208E+04  0.89789068302E+03 0.  0.
        -24    2    4    4    0    0 -0.19793597156E+03 -0.51285481246E+03 -0.74687072124E+03  0.93035715847E+03  0.74497386398E+02 0.  0.
         24    2    4    4    0    0 -0.22042323162E+03  0.26308903070E+03 -0.30385136348E+02  0.35328676234E+03  0.78013081095E+02 0.  0.
         13    1    3    3    0    0  0.19648902482E+03  0.12525742179E+03  0.28514780322E+03  0.36824805264E+03  0.00000000000E+00 0. -1.
        -13    1    3    3    0    0  0.22187017836E+03  0.12450835997E+03  0.48346930063E+03  0.54632524416E+03  0.00000000000E+00 0.  1.
          4    1    6    6  502    0 -0.90640280670E+02  0.15554160248E+03  0.87979396697E+01  0.18023943610E+03  0.00000000000E+00 0. -1.
          3    1    5    5  503    0 -0.14797882630E+03 -0.28277953746E+03 -0.41886818440E+03  0.52660474337E+03  0.00000000000E+00 0. -1.
         -4    1    5    5    0  503 -0.49957145265E+02 -0.23007527500E+03 -0.32800253684E+03  0.40375241510E+03  0.00000000000E+00 0.  1.
         -3    1    6    6    0  502 -0.12978295095E+03  0.10754742822E+03 -0.39183076018E+02  0.17304732624E+03  0.00000000000E+00 0.  1.
<mgrwt>
<rscale>  0 0.21982002E+04</rscale>
<asrwt>0</asrwt>
<pdfrwt beam="1">  1        2 0.16842911E+00 0.21982002E+04</pdfrwt>
<pdfrwt beam="2">  1       -2 0.16975815E+00 0.21982002E+04</pdfrwt>
<totfact> 0.42931766E+00</totfact>
</mgrwt>
</event>
<event>
12    1  0.1598876E-007  0.1929765E+04  0.7818608E-02  0.8640181E-01
         -2   -1    0    0    0  501 -0.00000000000E+00  0.00000000000E+00  0.60695530393E+03  0.60695530393E+03  0.00000000000E+00 0.  1.
          2   -1    0    0  501    0  0.00000000000E+00 -0.00000000000E+00 -0.15338821809E+04  0.15338821809E+04  0.00000000000E+00 0. -1.
         23    2    1    2    0    0  0.69493454085E+03 -0.30122454238E+03 -0.12865591454E+03  0.77348529312E+03  0.89760310445E+02 0.  0.
        254    2    1    2    0    0 -0.69493454085E+03  0.30122454238E+03 -0.79827096245E+03  0.13673521917E+04  0.81163122522E+03 0.  0.
        -24    2    4    4    0    0 -0.76067209509E+03  0.45723063834E+01 -0.70399336503E+03  0.10396059165E+04  0.80813744620E+02 0.  0.
         24    2    4    4    0    0  0.65737554235E+02  0.29665223600E+03 -0.94277597415E+02  0.32774627526E+03  0.78774237009E+02 0.  0.
         11    1    3    3    0    0  0.52171984138E+03 -0.19687912481E+03 -0.12381188014E+03  0.57121131321E+03  0.00000000000E+00 0. -1.
        -11    1    3    3    0    0  0.17321469947E+03 -0.10434541757E+03 -0.48440344017E+01  0.20227397991E+03  0.00000000000E+00 0.  1.
          2    1    6    6  502    0  0.77329003006E+02  0.24567473292E+03 -0.97437005170E+02  0.27537214651E+03  0.00000000000E+00 0. -1.
          3    1    5    5  503    0 -0.67405158263E+03  0.28516268804E+02 -0.63233169874E+03  0.92466323105E+03  0.00000000000E+00 0. -1.
         -4    1    5    5    0  503 -0.86620512457E+02 -0.23943962421E+02 -0.71661666296E+02  0.11494268542E+03  0.00000000000E+00 0.  1.
         -1    1    6    6    0  502 -0.11591448771E+02  0.50977503079E+02  0.31594077550E+01  0.52374128748E+02  0.00000000000E+00 0.  1.
<mgrwt>
<rscale>  0 0.19297647E+04</rscale>
<asrwt>0</asrwt>
<pdfrwt beam="1">  1        2 0.23598187E+00 0.19297647E+04</pdfrwt>
<pdfrwt beam="2">  1       -2 0.93377740E-01 0.19297647E+04</pdfrwt>
<totfact> 0.11012483E+01</totfact>
</mgrwt>
</event>
<event>
12    1  0.1598876E-007  0.2385030E+04  0.7818608E-02  0.8445129E-01
          1   -1    0    0  501    0  0.00000000000E+00  0.00000000000E+00  0.26205251131E+04  0.26205251131E+04  0.00000000000E+00 0. -1.
         -1   -1    0    0    0  501 -0.00000000000E+00 -0.00000000000E+00 -0.54267441726E+03  0.54267441726E+03  0.00000000000E+00 0.  1.
         23    2    1    2    0    0 -0.22472958970E+03 -0.96456687904E+03  0.11505638567E+04  0.15208564189E+04  0.91183364780E+02 0.  0.
        254    2    1    2    0    0  0.22472958970E+03  0.96456687904E+03  0.92728683920E+03  0.16423431115E+04  0.92549303675E+03 0.  0.
        -24    2    4    4    0    0 -0.28424174237E+03  0.16499577250E+03  0.49043626552E+03  0.59567065654E+03  0.79239052712E+02 0.  0.
         24    2    4    4    0    0  0.50897133207E+03  0.79957110654E+03  0.43685057368E+03  0.10466724550E+04  0.79492345185E+02 0.  0.
         11    1    3    3    0    0  0.47043282883E+01 -0.84059444751E+02  0.11121054545E+03  0.13948443059E+03  0.00000000000E+00 0. -1.
        -11    1    3    3    0    0 -0.22943391799E+03 -0.88050743429E+03  0.10393533112E+04  0.13813719883E+04  0.00000000000E+00 0.  1.
          2    1    6    6  502    0  0.51171517265E+03  0.79703783374E+03  0.43654554160E+03  0.10429255660E+04  0.00000000000E+00 0. -1.
          1    1    5    5  503    0 -0.14356130735E+03  0.89524349850E+02  0.18281075994E+03  0.24908679638E+03  0.00000000000E+00 0. -1.
         -4    1    5    5    0  503 -0.14068043502E+03  0.75471422646E+02  0.30762550558E+03  0.34658386015E+03  0.00000000000E+00 0.  1.
         -1    1    6    6    0  502 -0.27438405820E+01  0.25332728027E+01  0.30503208792E+00  0.37468889504E+01  0.00000000000E+00 0.  1.
<mgrwt>
<rscale>  0 0.23850299E+04</rscale>
<asrwt>0</asrwt>
<pdfrwt beam="1">  1        1 0.40315770E+00 0.23850299E+04</pdfrwt>
<pdfrwt beam="2">  1       -1 0.83488373E-01 0.23850299E+04</pdfrwt>
<totfact> 0.14254277E+00</totfact>
</mgrwt>
</event>
<event>
12    1  0.1598876E-007  0.1746947E+04  0.7818608E-02  0.8735032E-01
         -2   -1    0    0    0  501 -0.00000000000E+00  0.00000000000E+00  0.76868414919E+03  0.76868414919E+03  0.00000000000E+00 0.  1.
          2   -1    0    0  501    0  0.00000000000E+00 -0.00000000000E+00 -0.99254843185E+03  0.99254843185E+03  0.00000000000E+00 0. -1.
         23    2    1    2    0    0 -0.20527054186E+03  0.54270269116E+03  0.18952671032E+03  0.61763484377E+03  0.94287963023E+02 0.  0.
        254    2    1    2    0    0  0.20527054186E+03 -0.54270269116E+03 -0.41339099297E+03  0.11435977373E+04  0.89457334259E+03 0.  0.
        -24    2    4    4    0    0  0.28307742532E+03  0.33654112158E+02 -0.46918372386E+03  0.55417346818E+03  0.75560823881E+02 0.  0.
         24    2    4    4    0    0 -0.77806883461E+02 -0.57635680331E+03  0.55792730889E+02  0.58942426909E+03  0.77891362382E+02 0.  0.
         11    1    3    3    0    0 -0.25600291022E+02  0.37341408215E+02  0.41048364309E+02  0.61112387291E+02  0.00000000000E+00 0. -1.
        -11    1    3    3    0    0 -0.17967025084E+03  0.50536128294E+03  0.14847834601E+03  0.55652245648E+03  0.00000000000E+00 0.  1.
          4    1    6    6  502    0 -0.88774507455E+02 -0.47385927767E+03  0.29305811623E+02  0.48299312501E+03  0.00000000000E+00 0. -1.
          1    1    5    5  503    0  0.22966105373E+03  0.26493973347E+02 -0.31420265183E+03  0.39008901118E+03  0.00000000000E+00 0. -1.
         -2    1    5    5    0  503  0.53416371593E+02  0.71601388110E+01 -0.15498107203E+03  0.16408445700E+03  0.00000000000E+00 0.  1.
         -3    1    6    6    0  502  0.10967623994E+02 -0.10249752564E+03  0.26486919266E+02  0.10643114408E+03  0.00000000000E+00 0.  1.
<mgrwt>
<rscale>  0 0.17469473E+04</rscale>
<asrwt>0</asrwt>
<pdfrwt beam="1">  1        2 0.15269976E+00 0.17469473E+04</pdfrwt>
<pdfrwt beam="2">  1       -2 0.11825910E+00 0.17469473E+04</pdfrwt>
<totfact> 0.13295848E+01</totfact>
</mgrwt>
</event>
<event>
12    1  0.1598876E-007  0.1763720E+04  0.7818608E-02  0.8725834E-01
          2   -1    0    0  501    0  0.00000000000E+00  0.00000000000E+00  0.11601668197E+04  0.11601668197E+04  0.00000000000E+00 0. -1.
         -2   -1    0    0    0  501 -0.00000000000E+00 -0.00000000000E+00 -0.67031485492E+03  0.67031485492E+03  0.00000000000E+00 0.  1.
         23    2    1    2    0    0 -0.47759179023E+02 -0.62220793631E+03  0.36357985010E+03  0.72811074036E+03  0.92364969787E+02 0.  0.
        254    2    1    2    0    0  0.47759179023E+02  0.62220793631E+03  0.12627211464E+03  0.11023709342E+04  0.89991853769E+03 0.  0.
        -24    2    4    4    0    0 -0.36856744053E+03  0.44450819225E+03 -0.98321495168E+02  0.59127429086E+03  0.80676387088E+02 0.  0.
         24    2    4    4    0    0  0.41632661955E+03  0.17769974407E+03  0.22459360981E+03  0.51109664335E+03  0.76631821619E+02 0.  0.
         11    1    3    3    0    0 -0.24768259067E+02 -0.45592809715E+03  0.31005457873E+03  0.55192185880E+03  0.00000000000E+00 0. -1.
        -11    1    3    3    0    0 -0.22990919956E+02 -0.16627983916E+03  0.53525271371E+02  0.17618888156E+03  0.00000000000E+00 0.  1.
          4    1    6    6  502    0  0.19700092615E+03  0.83799212869E+02  0.14898189453E+03  0.26082039391E+03  0.00000000000E+00 0. -1.
          1    1    5    5  503    0 -0.34153692668E+03  0.43664335299E+03 -0.88009751535E+02  0.56129368994E+03  0.00000000000E+00 0. -1.
         -2    1    5    5    0  503 -0.27030513845E+02  0.78648392588E+01 -0.10311743634E+02  0.29980600929E+02  0.00000000000E+00 0.  1.
         -3    1    6    6    0  502  0.21932569340E+03  0.93900531197E+02  0.75611715283E+02  0.25027624944E+03  0.00000000000E+00 0.  1.
<mgrwt>
<rscale>  0 0.17637200E+04</rscale>
<asrwt>0</asrwt>
<pdfrwt beam="1">  1        2 0.17848720E+00 0.17637200E+04</pdfrwt>
<pdfrwt beam="2">  1       -2 0.10312536E+00 0.17637200E+04</pdfrwt>
<totfact> 0.14548313E+01</totfact>
</mgrwt>
</event>
<event>
12    1  0.1598876E-007  0.1507392E+04  0.7818608E-02  0.8879552E-01
         -2   -1    0    0    0  501 -0.00000000000E+00  0.00000000000E+00  0.47619399168E+03  0.47619399168E+03  0.00000000000E+00 0.  1.
          2   -1    0    0  501    0  0.00000000000E+00 -0.00000000000E+00 -0.11929125799E+04  0.11929125799E+04  0.00000000000E+00 0. -1.
         23    2    1    2    0    0 -0.30173610577E+03 -0.21771053292E+03  0.10172034010E+03  0.39601990798E+03  0.89678237323E+02 0.  0.
        254    2    1    2    0    0  0.30173610577E+03  0.21771053292E+03 -0.81843892835E+03  0.12730866636E+04  0.90136830431E+03 0.  0.
        -24    2    4    4    0    0  0.43105056155E+03  0.46061184629E+03 -0.35376215685E+03  0.72749213667E+03  0.78289755041E+02 0.  0.
         24    2    4    4    0    0 -0.12931445578E+03 -0.24290131337E+03 -0.46467677150E+03  0.54559452696E+03  0.77624798660E+02 0.  0.
         13    1    3    3    0    0 -0.20105287675E+03 -0.14486950697E+03  0.22907961203E+02  0.24886584335E+03  0.00000000000E+00 0. -1.
        -13    1    3    3    0    0 -0.10068322902E+03 -0.72841025950E+02  0.78812378898E+02  0.14715406463E+03  0.00000000000E+00 0.  1.
          2    1    6    6  502    0 -0.24461392109E+02 -0.60913585867E+01 -0.26292446267E+02  0.36424676856E+02  0.00000000000E+00 0. -1.
          1    1    5    5  503    0  0.15106938129E+03  0.16466018061E+03 -0.83280135185E+02  0.23847539487E+03  0.00000000000E+00 0. -1.
         -2    1    5    5    0  503  0.27998118026E+03  0.29595166568E+03 -0.27048202166E+03  0.48901674180E+03  0.00000000000E+00 0.  1.
         -1    1    6    6    0  502 -0.10485306367E+03 -0.23680995478E+03 -0.43838432523E+03  0.50916985010E+03  0.00000000000E+00 0.  1.
<mgrwt>
<rscale>  0 0.15073922E+04</rscale>
<asrwt>0</asrwt>
<pdfrwt beam="1">  1        2 0.18352501E+00 0.15073922E+04</pdfrwt>
<pdfrwt beam="2">  1       -2 0.73260615E-01 0.15073922E+04</pdfrwt>
<totfact> 0.31069214E+01</totfact>
</mgrwt>
</event>
<event>
12    1  0.1598876E-007  0.1583177E+04  0.7818608E-02  0.8830950E-01
          2   -1    0    0  501    0  0.00000000000E+00  0.00000000000E+00  0.19417538929E+04  0.19417538929E+04  0.00000000000E+00 0.  1.
         -2   -1    0    0    0  501 -0.00000000000E+00 -0.00000000000E+00 -0.32270423956E+03  0.32270423956E+03  0.00000000000E+00 0. -1.
         23    2    1    2    0    0 -0.45173238774E+03  0.21863817350E+03  0.35582084015E+03  0.62218816095E+03  0.92977611820E+02 0.  0.
        254    2    1    2    0    0  0.45173238774E+03 -0.21863817350E+03  0.12632288132E+04  0.16422699715E+04  0.92165005494E+03 0.  0.
        -24    2    4    4    0    0  0.55746809795E+03 -0.37360736121E+03  0.46955599933E+03  0.82291937321E+03  0.79751600066E+02 0.  0.
         24    2    4    4    0    0 -0.10573571022E+03  0.15496918771E+03  0.79367281385E+03  0.81935059828E+03  0.78888388923E+02 0.  0.
         11    1    3    3    0    0 -0.42534151791E+03  0.18513073469E+03  0.30205004929E+03  0.55355490067E+03  0.00000000000E+00 0. -1.
        -11    1    3    3    0    0 -0.26390869821E+02  0.33507438819E+02  0.53770790861E+02  0.68633260275E+02  0.00000000000E+00 0.  1.
          4    1    6    6  502    0  0.78546921724E+01  0.44076980773E+02  0.17408124473E+03  0.17974636628E+03  0.00000000000E+00 0. -1.
          3    1    5    5  503    0  0.70043366899E+02 -0.52547945309E+02  0.31125972060E+02  0.92931081665E+02  0.00000000000E+00 0. -1.
         -4    1    5    5    0  503  0.48742473105E+03 -0.32105941590E+03  0.43843002727E+03  0.72998829154E+03  0.00000000000E+00 0.  1.
         -3    1    6    6    0  502 -0.11359040239E+03  0.11089220693E+03  0.61959156912E+03  0.63960423200E+03  0.00000000000E+00 0.  1.
<mgrwt>
<rscale>  0 0.15831768E+04</rscale>
<asrwt>0</asrwt>
<pdfrwt beam="1">  1        2 0.29873136E+00 0.15831768E+04</pdfrwt>
<pdfrwt beam="2">  1       -2 0.49646807E-01 0.15831768E+04</pdfrwt>
<totfact> 0.26540887E+01</totfact>
</mgrwt>
</event>
<event>
12    1  0.1598876E-007  0.3159757E+04  0.7818608E-02  0.8199527E-01
          2   -1    0    0  501    0  0.00000000000E+00  0.00000000000E+00  0.10406362953E+04  0.10406362953E+04  0.00000000000E+00 0. -1.
         -2   -1    0    0    0  501 -0.00000000000E+00 -0.00000000000E+00 -0.23985476945E+04  0.23985476945E+04  0.00000000000E+00 0.  1.
         23    2    1    2    0    0  0.71550306531E+03 -0.50058057533E+03 -0.18774859555E+04  0.20724441681E+04  0.86866380339E+02 0.  0.
        254    2    1    2    0    0 -0.71550306531E+03  0.50058057533E+03  0.51957455636E+03  0.13667398216E+04  0.91405386689E+03 0.  0.
        -24    2    4    4    0    0  0.19710299024E+03  0.18092531820E+01  0.14752812679E+03  0.25919800038E+03  0.81032049536E+02 0.  0.
         24    2    4    4    0    0 -0.91260605554E+03  0.49877132215E+03  0.37204642957E+03  0.11075418213E+04  0.81287733699E+02 0.  0.
         13    1    3    3    0    0  0.10916433181E+03 -0.50429248669E+02 -0.21152338516E+03  0.24331482267E+03  0.00000000000E+00 0. -1.
        -13    1    3    3    0    0  0.60633873349E+03 -0.45015132666E+03 -0.16659625704E+04  0.18291293455E+04  0.00000000000E+00 0.  1.
          4    1    6    6  502    0 -0.81169935399E+02  0.27068178952E+02  0.48465620414E+02  0.98336977209E+02  0.00000000000E+00 0. -1.
          3    1    5    5  503    0  0.14237740928E+03 -0.46636019149E+01  0.57453394664E+02  0.15360328257E+03  0.00000000000E+00 0. -1.
         -4    1    5    5    0  503  0.54725580956E+02  0.64728550970E+01  0.90074732123E+02  0.10559471782E+03  0.00000000000E+00 0.  1.
         -3    1    6    6    0  502 -0.83143612015E+03  0.47170314320E+03  0.32358080916E+03  0.10092048440E+04  0.00000000000E+00 0.  1.
<mgrwt>
<rscale>  0 0.31597568E+04</rscale>
<asrwt>0</asrwt>
<pdfrwt beam="1">  1        2 0.16009789E+00 0.31597568E+04</pdfrwt>
<pdfrwt beam="2">  1       -2 0.36900734E+00 0.31597568E+04</pdfrwt>
<totfact> 0.23605555E-01</totfact>
</mgrwt>
</event>
<event>
12    1  0.1598876E-007  0.3257755E+04  0.7818608E-02  0.8173729E-01
          2   -1    0    0  501    0  0.00000000000E+00  0.00000000000E+00  0.10563376506E+04  0.10563376506E+04  0.00000000000E+00 0. -1.
         -2   -1    0    0    0  501 -0.00000000000E+00 -0.00000000000E+00 -0.25117368264E+04  0.25117368264E+04  0.00000000000E+00 0.  1.
         23    2    1    2    0    0 -0.57265000062E+03 -0.79464356320E+03 -0.19186521224E+04  0.21561519800E+04  0.91536758536E+02 0.  0.
        254    2    1    2    0    0  0.57265000062E+03  0.79464356320E+03  0.46325294656E+03  0.14119224970E+04  0.90528196119E+03 0.  0.
        -24    2    4    4    0    0  0.66573664464E+03  0.50091760483E+03  0.63474808693E+03  0.10503844239E+04  0.79237473654E+02 0.  0.
         24    2    4    4    0    0 -0.93086644018E+02  0.29372595836E+03 -0.17149514037E+03  0.36153807310E+03  0.79744173597E+02 0.  0.
         11    1    3    3    0    0 -0.13213902184E+03 -0.13475474700E+03 -0.41920525977E+03  0.45973102218E+03  0.00000000000E+00 0. -1.
        -11    1    3    3    0    0 -0.44051097878E+03 -0.65988881619E+03 -0.14994468627E+04  0.16964209578E+04  0.00000000000E+00 0.  1.
          4    1    6    6  502    0 -0.61906019384E+02  0.12956140505E+03 -0.11868590451E+03  0.18629239610E+03  0.00000000000E+00 0. -1.
          1    1    5    5  503    0  0.54051501449E+03  0.41489874105E+03  0.47968906996E+03  0.83330609625E+03  0.00000000000E+00 0. -1.
         -2    1    5    5    0  503  0.12522163015E+03  0.86018863787E+02  0.15505901697E+03  0.21707832764E+03  0.00000000000E+00 0.  1.
         -3    1    6    6    0  502 -0.31180624634E+02  0.16416455331E+03 -0.52809235856E+02  0.17524567701E+03  0.00000000000E+00 0.  1.
<mgrwt>
<rscale>  0 0.32577552E+04</rscale>
<asrwt>0</asrwt>
<pdfrwt beam="1">  1        2 0.16251348E+00 0.32577552E+04</pdfrwt>
<pdfrwt beam="2">  1       -2 0.38642105E+00 0.32577552E+04</pdfrwt>
<totfact> 0.17673743E-01</totfact>
</mgrwt>
</event>
<event>
12    1  0.1598876E-007  0.1375550E+04  0.7818608E-02  0.8971709E-01
          2   -1    0    0  501    0  0.00000000000E+00  0.00000000000E+00  0.19731088194E+04  0.19731088194E+04  0.00000000000E+00 0. -1.
         -2   -1    0    0    0  501 -0.00000000000E+00 -0.00000000000E+00 -0.23974077279E+03  0.23974077279E+03  0.00000000000E+00 0.  1.
         23    2    1    2    0    0  0.25684022421E+03  0.24037483460E+03  0.25053806753E+03  0.44304237352E+03  0.98844623340E+02 0.  0.
        254    2    1    2    0    0 -0.25684022421E+03 -0.24037483460E+03  0.14828299790E+04  0.17698072186E+04  0.89982547335E+03 0.  0.
        -24    2    4    4    0    0 -0.34522879537E+03 -0.35298482475E+00  0.14581107052E+04  0.15004930210E+04  0.78799947069E+02 0.  0.
         24    2    4    4    0    0  0.88388571159E+02 -0.24002184978E+03  0.24719273849E+02  0.26931419765E+03  0.80598180358E+02 0.  0.
         13    1    3    3    0    0  0.21175491040E+03  0.19040053853E+03  0.24474067116E+03  0.37548702144E+03  0.00000000000E+00 0.  1.
        -13    1    3    3    0    0  0.45085313810E+02  0.49974296073E+02  0.57973963782E+01  0.67555352076E+02  0.00000000000E+00 0. -1.
          4    1    6    6  502    0  0.50619550285E+02 -0.14850702500E+03  0.54233970658E+02  0.16600602073E+03  0.00000000000E+00 0. -1.
          3    1    5    5  503    0 -0.47405782045E+02  0.12585396374E+01  0.34431621037E+03  0.34756660487E+03  0.00000000000E+00 0. -1.
         -4    1    5    5    0  503 -0.29782301333E+03 -0.16115244621E+01  0.11137944948E+04  0.11529264161E+04  0.00000000000E+00 0.  1.
         -3    1    6    6    0  502  0.37769020874E+02 -0.91514824774E+02 -0.29514696809E+02  0.10330817692E+03  0.00000000000E+00 0.  1.
<mgrwt>
<rscale>  0 0.13755503E+04</rscale>
<asrwt>0</asrwt>
<pdfrwt beam="1">  1        2 0.30355519E+00 0.13755503E+04</pdfrwt>
<pdfrwt beam="2">  1       -2 0.36883197E-01 0.13755503E+04</pdfrwt>
<totfact> 0.46725272E+01</totfact>
</mgrwt>
</event>
<event>
12    1  0.1598876E-007  0.1957882E+04  0.7818608E-02  0.8626570E-01
          1   -1    0    0  501    0  0.00000000000E+00  0.00000000000E+00  0.22607557256E+04  0.22607557256E+04  0.00000000000E+00 0. -1.
         -1   -1    0    0    0  501 -0.00000000000E+00 -0.00000000000E+00 -0.42389590223E+03  0.42389590223E+03  0.00000000000E+00 0.  1.
         23    2    1    2    0    0 -0.33645179954E+03  0.58612043993E+03  0.12149186466E+04  0.13933710800E+04  0.93373793265E+02 0.  0.
        254    2    1    2    0    0  0.33645179954E+03 -0.58612043993E+03  0.62194117680E+03  0.12912805478E+04  0.90766604119E+03 0.  0.
        -24    2    4    4    0    0  0.19994585757E+03 -0.38062031794E+03  0.84371739117E+03  0.95037578977E+03  0.80653166308E+02 0.  0.
         24    2    4    4    0    0  0.13650594197E+03 -0.20550012199E+03 -0.22177621437E+03  0.34090475807E+03  0.78531474510E+02 0.  0.
         13    1    3    3    0    0 -0.30153742431E+03  0.52264937323E+03  0.11355888714E+04  0.12859429499E+04  0.00000000000E+00 0. -1.
        -13    1    3    3    0    0 -0.34914375228E+02  0.63471066703E+02  0.79329775248E+02  0.10742813015E+03  0.00000000000E+00 0.  1.
          4    1    6    6  502    0 -0.17871073900E+00  0.19319393668E+01  0.44880517848E+01  0.48894719621E+01  0.00000000000E+00 0. -1.
          1    1    5    5  503    0  0.89326374656E+02 -0.15767105180E+03  0.27204723767E+03  0.32687774673E+03  0.00000000000E+00 0. -1.
         -2    1    5    5    0  503  0.11061948292E+03 -0.22294926614E+03  0.57167015350E+03  0.62349804304E+03  0.00000000000E+00 0.  1.
         -3    1    6    6    0  502  0.13668465270E+03 -0.20743206136E+03 -0.22626426615E+03  0.33601528611E+03  0.00000000000E+00 0.  1.
<mgrwt>
<rscale>  0 0.19578816E+04</rscale>
<asrwt>0</asrwt>
<pdfrwt beam="1">  1        1 0.34780857E+00 0.19578816E+04</pdfrwt>
<pdfrwt beam="2">  1       -1 0.65214756E-01 0.19578816E+04</pdfrwt>
<totfact> 0.43949476E+00</totfact>
</mgrwt>
</event>
<event>
12    1  0.1598876E-007  0.1698590E+04  0.7818608E-02  0.8762169E-01
          1   -1    0    0  501    0  0.00000000000E+00  0.00000000000E+00  0.35722710879E+03  0.35722710879E+03  0.00000000000E+00 0. -1.
         -1   -1    0    0    0  501 -0.00000000000E+00 -0.00000000000E+00 -0.20191685787E+04  0.20191685787E+04  0.00000000000E+00 0.  1.
         23    2    1    2    0    0  0.34348312985E+03  0.42913495403E+03 -0.23473500397E+03  0.60467828605E+03  0.91639719947E+02 0.  0.
        254    2    1    2    0    0 -0.34348312985E+03 -0.42913495403E+03 -0.14272064660E+04  0.17717174014E+04  0.89438626155E+03 0.  0.
        -24    2    4    4    0    0 -0.33221706774E+03  0.21249094579E+03 -0.56732959789E+03  0.69554184235E+03  0.79968741902E+02 0.  0.
         24    2    4    4    0    0 -0.11266062108E+02 -0.64162589982E+03 -0.85987686807E+03  0.10761755591E+04  0.83395960762E+02 0.  0.
         11    1    3    3    0    0  0.81508577766E+01 -0.37624612430E+01 -0.79449773456E+01  0.11988130051E+02  0.00000000000E+00 0.  1.
        -11    1    3    3    0    0  0.33533227208E+03  0.43289741527E+03 -0.22679002662E+03  0.59269015600E+03  0.00000000000E+00 0. -1.
          2    1    6    6  502    0  0.35147370812E+02 -0.34825824968E+03 -0.47343682326E+03  0.58877973110E+03  0.00000000000E+00 0. -1.
          3    1    5    5  503    0 -0.22603894004E+03  0.98605394170E+02 -0.34127843521E+03  0.42105533664E+03  0.00000000000E+00 0. -1.
         -4    1    5    5    0  503 -0.10617812770E+03  0.11388555162E+03 -0.22605116268E+03  0.27448650571E+03  0.00000000000E+00 0.  1.
         -1    1    6    6    0  502 -0.46413432920E+02 -0.29336765014E+03 -0.38644004481E+03  0.48739582799E+03  0.00000000000E+00 0.  1.
<mgrwt>
<rscale>  0 0.16985897E+04</rscale>
<asrwt>0</asrwt>
<pdfrwt beam="1">  1        1 0.54958018E-01 0.16985897E+04</pdfrwt>
<pdfrwt beam="2">  1       -1 0.31064131E+00 0.16985897E+04</pdfrwt>
<totfact> 0.18722030E+00</totfact>
</mgrwt>
</event>
<event>
12    1  0.1598876E-007  0.1491481E+04  0.7818608E-02  0.8890138E-01
         -2   -1    0    0    0  501 -0.00000000000E+00  0.00000000000E+00  0.39343488525E+03  0.39343488525E+03  0.00000000000E+00 0.  1.
          2   -1    0    0  501    0  0.00000000000E+00 -0.00000000000E+00 -0.14135220739E+04  0.14135220739E+04  0.00000000000E+00 0. -1.
         23    2    1    2    0    0 -0.20193494021E+03  0.18449585967E+03  0.12106913990E+03  0.31145088582E+03  0.86761024265E+02 0.  0.
        254    2    1    2    0    0  0.20193494021E+03 -0.18449585967E+03 -0.11411563286E+04  0.14955060733E+04  0.92708371082E+03 0.  0.
        -24    2    4    4    0    0 -0.31495117262E+03 -0.28686180445E+03 -0.48911713795E+03  0.65326262728E+03  0.77669489387E+02 0.  0.
         24    2    4    4    0    0  0.51688611283E+03  0.10236594478E+03 -0.65203919061E+03  0.84224344606E+03  0.81048602941E+02 0.  0.
         13    1    3    3    0    0 -0.17637333643E+03  0.11018053904E+03  0.95195712444E+02  0.22871276452E+03  0.00000000000E+00 0. -1.
        -13    1    3    3    0    0 -0.25561603772E+02  0.74315320630E+02  0.25873427460E+02  0.82738121300E+02  0.00000000000E+00 0.  1.
          2    1    6    6  502    0  0.40355038323E+03  0.94385012880E+02 -0.46042699916E+03  0.61947918771E+03  0.00000000000E+00 0. -1.
          3    1    5    5  503    0 -0.14357937125E+03 -0.15618364617E+03 -0.29395769170E+03  0.36251826394E+03  0.00000000000E+00 0. -1.
         -4    1    5    5    0  503 -0.17137180137E+03 -0.13067815827E+03 -0.19515944625E+03  0.29074436334E+03  0.00000000000E+00 0.  1.
         -1    1    6    6    0  502  0.11333572960E+03  0.79809318990E+01 -0.19161219146E+03  0.22276425834E+03  0.00000000000E+00 0.  1.
<mgrwt>
<rscale>  0 0.14914810E+04</rscale>
<asrwt>0</asrwt>
<pdfrwt beam="1">  1        2 0.21746493E+00 0.14914810E+04</pdfrwt>
<pdfrwt beam="2">  1       -2 0.60528445E-01 0.14914810E+04</pdfrwt>
<totfact> 0.34935014E+01</totfact>
</mgrwt>
</event>
<event>
12    1  0.1598876E-007  0.1401683E+04  0.7818608E-02  0.8952602E-01
          2   -1    0    0  501    0  0.00000000000E+00  0.00000000000E+00  0.91942956034E+03  0.91942956034E+03  0.00000000000E+00 0. -1.
         -2   -1    0    0    0  501 -0.00000000000E+00 -0.00000000000E+00 -0.53422089735E+03  0.53422089735E+03  0.00000000000E+00 0.  1.
         23    2    1    2    0    0  0.72998515262E+02 -0.39008338809E+03  0.20768559140E+03  0.45708140744E+03  0.91083891320E+02 0.  0.
        254    2    1    2    0    0 -0.72998515262E+02  0.39008338809E+03  0.17752307158E+03  0.99656905025E+03  0.89673942596E+03 0.  0.
        -24    2    4    4    0    0  0.15899337168E+03  0.23784175747E+03  0.48875130697E+03  0.57173828781E+03  0.78480799225E+02 0.  0.
         24    2    4    4    0    0 -0.23199188694E+03  0.15224163061E+03 -0.31122823539E+03  0.42483076243E+03  0.81365917350E+02 0.  0.
         13    1    3    3    0    0  0.37484970928E+02 -0.23758290846E+03  0.75292135371E+02  0.25203108357E+03  0.00000000000E+00 0. -1.
        -13    1    3    3    0    0  0.35513544333E+02 -0.15250047963E+03  0.13239345603E+03  0.20505032387E+03  0.00000000000E+00 0.  1.
          2    1    6    6  502    0 -0.85666608634E+02  0.70613224149E+02 -0.18218024053E+03  0.21334159299E+03  0.00000000000E+00 0. -1.
          3    1    5    5  503    0  0.14482338711E+03  0.15410086016E+03  0.35924424025E+03  0.41686606088E+03  0.00000000000E+00 0. -1.
         -4    1    5    5    0  503  0.14169984569E+02  0.83740897313E+02  0.12950706672E+03  0.15487222694E+03  0.00000000000E+00 0.  1.
         -1    1    6    6    0  502 -0.14632527831E+03  0.81628406464E+02 -0.12904799486E+03  0.21148916944E+03  0.00000000000E+00 0.  1.
<mgrwt>
<rscale>  0 0.14016825E+04</rscale>
<asrwt>0</asrwt>
<pdfrwt beam="1">  1        2 0.14145070E+00 0.14016825E+04</pdfrwt>
<pdfrwt beam="2">  1       -2 0.82187831E-01 0.14016825E+04</pdfrwt>
<totfact> 0.36022091E+01</totfact>
</mgrwt>
</event>
<event>
12    1  0.1598876E-007  0.4531673E+04  0.7818608E-02  0.7905115E-01
          2   -1    0    0  501    0  0.00000000000E+00  0.00000000000E+00  0.16367931645E+04  0.16367931645E+04  0.00000000000E+00 0. -1.
         -2   -1    0    0    0  501 -0.00000000000E+00 -0.00000000000E+00 -0.31366309380E+04  0.31366309380E+04  0.00000000000E+00 0.  1.
         23    2    1    2    0    0 -0.35620259678E+03  0.20643597714E+04 -0.10145291912E+03  0.20992279521E+04  0.89463648125E+02 0.  0.
        254    2    1    2    0    0  0.35620259678E+03 -0.20643597714E+04 -0.13983848544E+04  0.26741961504E+04  0.89854509843E+03 0.  0.
        -24    2    4    4    0    0 -0.10606771130E+03 -0.64039230431E+02 -0.32328526721E+03  0.35532169786E+03  0.79929735138E+02 0.  0.
         24    2    4    4    0    0  0.46227030808E+03 -0.20003205410E+04 -0.10750995872E+04  0.23188744525E+04  0.79771547368E+02 0.  0.
         13    1    3    3    0    0 -0.25994180157E+02  0.10255339051E+03  0.12683879176E+02  0.10655409939E+03  0.00000000000E+00 0. -1.
        -13    1    3    3    0    0 -0.33020841663E+03  0.19618063809E+04 -0.11413679830E+03  0.19926738527E+04  0.00000000000E+00 0.  1.
          4    1    6    6  502    0  0.13390668865E+03 -0.61033745943E+03 -0.36819031653E+03  0.72526334861E+03  0.00000000000E+00 0. -1.
          3    1    5    5  503    0 -0.70464040586E+02 -0.23731727282E+01 -0.11183506685E+03  0.13220399064E+03  0.00000000000E+00 0. -1.
         -4    1    5    5    0  503 -0.35603670716E+02 -0.61666057702E+02 -0.21145020037E+03  0.22311770722E+03  0.00000000000E+00 0.  1.
         -3    1    6    6    0  502  0.32836361943E+03 -0.13899830815E+04 -0.70690927065E+03  0.15936111039E+04  0.00000000000E+00 0.  1.
<mgrwt>
<rscale>  0 0.45316735E+04</rscale>
<asrwt>0</asrwt>
<pdfrwt beam="1">  1        2 0.25181433E+00 0.45316735E+04</pdfrwt>
<pdfrwt beam="2">  1       -2 0.48255860E+00 0.45316735E+04</pdfrwt>
<totfact> 0.17143428E-02</totfact>
</mgrwt>
</event>
<event>
12    1  0.1598876E-007  0.1811284E+04  0.7818608E-02  0.8700322E-01
         -1   -1    0    0    0  501 -0.00000000000E+00  0.00000000000E+00  0.33517030483E+03  0.33517030483E+03  0.00000000000E+00 0.  1.
          1   -1    0    0  501    0  0.00000000000E+00 -0.00000000000E+00 -0.24470755370E+04  0.24470755370E+04  0.00000000000E+00 0. -1.
         23    2    1    2    0    0  0.21830963337E+03  0.30850373088E+03 -0.16948848830E+04  0.17390357276E+04  0.93684828673E+02 0.  0.
        254    2    1    2    0    0 -0.21830963337E+03 -0.30850373088E+03 -0.41702034912E+03  0.10432101142E+04  0.87837789296E+03 0.  0.
        -24    2    4    4    0    0  0.18204214286E+03 -0.10737855883E+03 -0.52862857210E+03  0.57492476482E+03  0.80130027422E+02 0.  0.
         24    2    4    4    0    0 -0.40035177623E+03 -0.20112517205E+03  0.11160822298E+03  0.46828534940E+03  0.78114617469E+02 0.  0.
         13    1    3    3    0    0  0.14822844372E+01  0.36285470004E+02 -0.94266496763E+02  0.10101982435E+03  0.00000000000E+00 0.  1.
        -13    1    3    3    0    0  0.21682734893E+03  0.27221826087E+03 -0.16006183862E+04  0.16380159032E+04  0.00000000000E+00 0. -1.
          2    1    6    6  502    0 -0.15332561908E+03 -0.11684773192E+03  0.32037499943E+02  0.19541888170E+03  0.00000000000E+00 0. -1.
          1    1    5    5  503    0  0.11038400396E+03 -0.10620597946E+03 -0.38653206308E+03  0.41577803476E+03  0.00000000000E+00 0. -1.
         -2    1    5    5    0  503  0.71658138901E+02 -0.11725793663E+01 -0.14209650902E+03  0.15914673006E+03  0.00000000000E+00 0.  1.
         -1    1    6    6    0  502 -0.24702615715E+03 -0.84277440127E+02  0.79570723036E+02  0.27286646770E+03  0.00000000000E+00 0.  1.
<mgrwt>
<rscale>  0 0.18112836E+04</rscale>
<asrwt>0</asrwt>
<pdfrwt beam="1">  1        1 0.37647316E+00 0.18112836E+04</pdfrwt>
<pdfrwt beam="2">  1       -1 0.51564662E-01 0.18112836E+04</pdfrwt>
<totfact> 0.52634363E+00</totfact>
</mgrwt>
</event>
<event>
12    1  0.1598876E-007  0.1305561E+04  0.7818608E-02  0.9025167E-01
         -2   -1    0    0    0  501 -0.00000000000E+00  0.00000000000E+00  0.42305129287E+03  0.42305129287E+03  0.00000000000E+00 0.  1.
          2   -1    0    0  501    0  0.00000000000E+00 -0.00000000000E+00 -0.10072594089E+04  0.10072594089E+04  0.00000000000E+00 0. -1.
         23    2    1    2    0    0 -0.24874326453E+03  0.12688057229E+03  0.40190025797E+02  0.29657847559E+03  0.91496790849E+02 0.  0.
        254    2    1    2    0    0  0.24874326453E+03 -0.12688057229E+03 -0.62439814183E+03  0.11337322262E+04  0.90415918394E+03 0.  0.
        -24    2    4    4    0    0  0.46201718955E+03  0.48373340266E+02 -0.28458178935E+02  0.47212825395E+03  0.79343284207E+02 0.  0.
         24    2    4    4    0    0 -0.21327392502E+03 -0.17525391256E+03 -0.59593996290E+03  0.66160397224E+03  0.79847828664E+02 0.  0.
         11    1    3    3    0    0 -0.13564707992E+03  0.60489934551E+02 -0.24198122425E+02  0.15048159888E+03  0.00000000000E+00 0. -1.
        -11    1    3    3    0    0 -0.11309618461E+03  0.66390637740E+02  0.64388148222E+02  0.14609687671E+03  0.00000000000E+00 0.  1.
          4    1    6    6  502    0 -0.10412592938E+03 -0.69746258834E+02 -0.35858251614E+03  0.37985282765E+03  0.00000000000E+00 0. -1.
          1    1    5    5  503    0  0.66275658398E+02 -0.20889153936E+02 -0.25388406446E+01  0.69536072366E+02  0.00000000000E+00 0. -1.
         -2    1    5    5    0  503  0.39574153115E+03  0.69262494201E+02 -0.25919338291E+02  0.40259218159E+03  0.00000000000E+00 0.  1.
         -3    1    6    6    0  502 -0.10914799564E+03 -0.10550765372E+03 -0.23735744676E+03  0.28175114459E+03  0.00000000000E+00 0.  1.
<mgrwt>
<rscale>  0 0.13055610E+04</rscale>
<asrwt>0</asrwt>
<pdfrwt beam="1">  1        2 0.15496299E+00 0.13055610E+04</pdfrwt>
<pdfrwt beam="2">  1       -2 0.65084815E-01 0.13055610E+04</pdfrwt>
<totfact> 0.53164533E+01</totfact>
</mgrwt>
</event>
<event>
12    1  0.1598876E-007  0.1238540E+04  0.7818608E-02  0.9079776E-01
         -1   -1    0    0    0  501 -0.00000000000E+00  0.00000000000E+00  0.43878532457E+03  0.43878532457E+03  0.00000000000E+00 0.  1.
          1   -1    0    0  501    0  0.00000000000E+00 -0.00000000000E+00 -0.87399314590E+03  0.87399314590E+03  0.00000000000E+00 0. -1.
         23    2    1    2    0    0  0.19444923075E+03  0.18473473736E+03 -0.19612530849E+03  0.34400762231E+03  0.89099276369E+02 0.  0.
        254    2    1    2    0    0 -0.19444923075E+03 -0.18473473736E+03 -0.23908251284E+03  0.96877084816E+03  0.89967720976E+03 0.  0.
        -24    2    4    4    0    0  0.71721782860E+02 -0.23419141497E+03  0.27839565707E+03  0.37944430558E+03  0.80524568798E+02 0.  0.
         24    2    4    4    0    0 -0.26617101361E+03  0.49456677611E+02 -0.51747816991E+03  0.58932654257E+03  0.78924939061E+02 0.  0.
         11    1    3    3    0    0  0.16273522503E+01  0.30291973440E+01 -0.32341025850E+02  0.32523318787E+02  0.00000000000E+00 0.  1.
        -11    1    3    3    0    0  0.19282187850E+03  0.18170554002E+03 -0.16378428264E+03  0.31148430352E+03  0.00000000000E+00 0. -1.
          2    1    6    6  502    0 -0.18629472184E+03  0.53706944183E+02 -0.42447035671E+03  0.46665323632E+03  0.00000000000E+00 0. -1.
          3    1    5    5  503    0 -0.12903282642E+01 -0.28524722925E+00 -0.47859759797E+01  0.49650658696E+01  0.00000000000E+00 0. -1.
         -4    1    5    5    0  503  0.73012111124E+02 -0.23390616774E+03  0.28318163305E+03  0.37447923971E+03  0.00000000000E+00 0.  1.
         -1    1    6    6    0  502 -0.79876291763E+02 -0.42502665723E+01 -0.93007813193E+02  0.12267330625E+03  0.00000000000E+00 0.  1.
<mgrwt>
<rscale>  0 0.12385401E+04</rscale>
<asrwt>0</asrwt>
<pdfrwt beam="1">  1        1 0.13446048E+00 0.12385401E+04</pdfrwt>
<pdfrwt beam="2">  1       -1 0.67505435E-01 0.12385401E+04</pdfrwt>
<totfact> 0.41949789E+01</totfact>
</mgrwt>
</event>
<event>
12    1  0.1879759E-007  0.2202287E+04  0.7818608E-02  0.8517477E-01
         -1   -1    0    0    0  501 -0.00000000000E+00  0.00000000000E+00  0.54821904658E+03  0.54821904658E+03  0.00000000000E+00 0.  1.
          1   -1    0    0  501    0  0.00000000000E+00 -0.00000000000E+00 -0.22117385611E+04  0.22117385611E+04  0.00000000000E+00 0. -1.
         23    2    1    2    0    0 -0.54961485484E+03  0.37235300173E+03  0.93787258225E+02  0.67649183217E+03  0.90121599138E+02 0.  0.
        254    2    1    2    0    0  0.54961485484E+03 -0.37235300173E+03 -0.17573067727E+04  0.20834657755E+04  0.90109893883E+03 0.  0.
        -24    2    4    4    0    0  0.23950574699E+02 -0.47165400430E+03 -0.40696224737E+03  0.62866999292E+03  0.81095988863E+02 0.  0.
         24    2    4    4    0    0  0.52566428015E+03  0.99301002575E+02 -0.13503445253E+04  0.14547957825E+04  0.82563958663E+02 0.  0.
         11    1    3    3    0    0 -0.39982867975E+03  0.27760129615E+03  0.28406692548E+02  0.48757808909E+03  0.00000000000E+00 0. -1.
        -11    1    3    3    0    0 -0.14978617509E+03  0.94751705576E+02  0.65380565677E+02  0.18891374309E+03  0.00000000000E+00 0.  1.
          2    1    6    6  502    0  0.12230805046E+02 -0.10182953396E+02 -0.50222657241E+02  0.52683967507E+02  0.00000000000E+00 0. -1.
          1    1    5    5  503    0  0.20110435768E+01 -0.23889088076E+02 -0.50573265410E+02  0.55967740705E+02  0.00000000000E+00 0. -1.
         -2    1    5    5    0  503  0.21939531122E+02 -0.44776491623E+03 -0.35638898196E+03  0.57270225222E+03  0.00000000000E+00 0.  1.
         -1    1    6    6    0  502  0.51343347510E+03  0.10948395597E+03 -0.13001218681E+04  0.14021118150E+04  0.00000000000E+00 0.  1.
<mgrwt>
<rscale>  0 0.22022872E+04</rscale>
<asrwt>0</asrwt>
<pdfrwt beam="1">  1        1 0.34026747E+00 0.22022872E+04</pdfrwt>
<pdfrwt beam="2">  1       -1 0.84341393E-01 0.22022872E+04</pdfrwt>
<totfact> 0.27140869E+00</totfact>
</mgrwt>
</event>
<event>
12    1  0.1598876E-007  0.1347696E+04  0.7818608E-02  0.8992574E-01
          2   -1    0    0  501    0  0.00000000000E+00  0.00000000000E+00  0.21302527750E+04  0.21302527750E+04  0.00000000000E+00 0. -1.
         -2   -1    0    0    0  501 -0.00000000000E+00 -0.00000000000E+00 -0.21315348404E+03  0.21315348404E+03  0.00000000000E+00 0.  1.
         23    2    1    2    0    0  0.33879697101E+03  0.13239966357E+03  0.89266457870E+03  0.96831305776E+03  0.92016679366E+02 0.  0.
        254    2    1    2    0    0 -0.33879697101E+03 -0.13239966357E+03  0.10244347123E+04  0.13750932013E+04  0.84208180960E+03 0.  0.
        -24    2    4    4    0    0  0.11731443604E+02 -0.60838005603E+02 -0.12994321566E+03  0.16400036671E+03  0.78562021928E+02 0.  0.
         24    2    4    4    0    0 -0.35052841462E+03 -0.71561657971E+02  0.11543779280E+04  0.12110928346E+04  0.78525238687E+02 0.  0.
         11    1    3    3    0    0  0.30028908310E+03  0.13878226511E+03  0.83974691553E+03  0.90255688612E+03  0.00000000000E+00 0. -1.
        -11    1    3    3    0    0  0.38507887908E+02 -0.63826015338E+01  0.52917663174E+02  0.65756171644E+02  0.00000000000E+00 0.  1.
          2    1    6    6  502    0 -0.39920891348E+02 -0.48396127057E+01  0.23393028787E+03  0.23736149435E+03  0.00000000000E+00 0. -1.
          1    1    5    5  503    0  0.75815937009E+01  0.17654906880E+02 -0.13390042385E+02  0.23419426446E+02  0.00000000000E+00 0. -1.
         -2    1    5    5    0  503  0.41498499035E+01 -0.78492912483E+02 -0.11655317328E+03  0.14058094027E+03  0.00000000000E+00 0.  1.
         -1    1    6    6    0  502 -0.31060752327E+03 -0.66722045265E+02  0.92044764009E+03  0.97373134024E+03  0.00000000000E+00 0.  1.
<mgrwt>
<rscale>  0 0.13476955E+04</rscale>
<asrwt>0</asrwt>
<pdfrwt beam="1">  1        2 0.32773118E+00 0.13476955E+04</pdfrwt>
<pdfrwt beam="2">  1       -2 0.32792845E-01 0.13476955E+04</pdfrwt>
<totfact> 0.47949991E+01</totfact>
</mgrwt>
</event>
<event>
12    1  0.1598876E-007  0.2183246E+04  0.7818608E-02  0.8525434E-01
         -1   -1    0    0    0  501 -0.00000000000E+00  0.00000000000E+00  0.96013652831E+03  0.96013652831E+03  0.00000000000E+00 0.  1.
          1   -1    0    0  501    0  0.00000000000E+00 -0.00000000000E+00 -0.12411158307E+04  0.12411158307E+04  0.00000000000E+00 0. -1.
         23    2    1    2    0    0  0.69612426990E+03 -0.32348653517E+03 -0.59923865829E+03  0.97773737178E+03  0.87469200330E+02 0.  0.
        254    2    1    2    0    0 -0.69612426990E+03  0.32348653517E+03  0.31825935593E+03  0.12235149872E+04  0.89803528253E+03 0.  0.
        -24    2    4    4    0    0 -0.20654120988E+03  0.43649795650E+03 -0.16984649135E+03  0.51812655822E+03  0.80109689193E+02 0.  0.
         24    2    4    4    0    0 -0.48958306003E+03 -0.11301142133E+03  0.48810584728E+03  0.70538842898E+03  0.82839384177E+02 0.  0.
         13    1    3    3    0    0  0.48624069898E+03 -0.26914977221E+03 -0.42815849020E+03  0.70156347536E+03  0.00000000000E+00 0. -1.
        -13    1    3    3    0    0  0.20988357092E+03 -0.54336762956E+02 -0.17108016809E+03  0.27617389643E+03  0.00000000000E+00 0.  1.
          4    1    6    6  502    0 -0.43567032775E+03 -0.86390688307E+02  0.39405438257E+03  0.59375991944E+03  0.00000000000E+00 0. -1.
          3    1    5    5  503    0 -0.13574895239E+03  0.22448295837E+03 -0.12303826705E+03  0.28975643536E+03  0.00000000000E+00 0. -1.
         -2    1    5    5    0  503 -0.70792257485E+02  0.21201499813E+03 -0.46808224293E+02  0.22837012286E+03  0.00000000000E+00 0.  1.
         -3    1    6    6    0  502 -0.53912732278E+02 -0.26620733025E+02  0.94051464707E+02  0.11162850954E+03  0.00000000000E+00 0.  1.
<mgrwt>
<rscale>  0 0.21832459E+04</rscale>
<asrwt>0</asrwt>
<pdfrwt beam="1">  1        1 0.19094090E+00 0.21832459E+04</pdfrwt>
<pdfrwt beam="2">  1       -1 0.14771331E+00 0.21832459E+04</pdfrwt>
<totfact> 0.33115506E+00</totfact>
</mgrwt>
</event>
<event>
12    1  0.1598876E-007  0.2551068E+04  0.7818608E-02  0.8385015E-01
          2   -1    0    0  501    0  0.00000000000E+00  0.00000000000E+00  0.31328195631E+04  0.31328195631E+04  0.00000000000E+00 0. -1.
         -2   -1    0    0    0  501 -0.00000000000E+00 -0.00000000000E+00 -0.51933630175E+03  0.51933630175E+03  0.00000000000E+00 0.  1.
         23    2    1    2    0    0  0.77872996605E+03 -0.46614418321E+01  0.22850122766E+04  0.24158670971E+04  0.93223588641E+02 0.  0.
        254    2    1    2    0    0 -0.77872996605E+03  0.46614418321E+01  0.32847098467E+03  0.12362887677E+04  0.90226084936E+03 0.  0.
        -24    2    4    4    0    0 -0.58183346498E+03  0.27241334732E+03  0.53198934687E+03  0.83822418565E+03  0.82872839060E+02 0.  0.
         24    2    4    4    0    0 -0.19689650107E+03 -0.26775190549E+03 -0.20351836221E+03  0.39806458204E+03  0.81094837670E+02 0.  0.
         11    1    3    3    0    0  0.37421797430E+03 -0.22975595703E+02  0.97057694384E+03  0.10404742064E+04  0.00000000000E+00 0.  1.
        -11    1    3    3    0    0  0.40451199174E+03  0.18314153871E+02  0.13144353328E+04  0.13753928907E+04  0.00000000000E+00 0. -1.
          4    1    6    6  502    0 -0.46469112962E+02 -0.26078112628E+02 -0.10997800281E+02  0.54409539869E+02  0.00000000000E+00 0. -1.
          1    1    5    5  503    0 -0.56794178536E+02  0.13301689229E+02  0.24006415852E+02  0.63077901471E+02  0.00000000000E+00 0. -1.
         -2    1    5    5    0  503 -0.52503928645E+03  0.25911165809E+03  0.50798293102E+03  0.77514628418E+03  0.00000000000E+00 0.  1.
         -3    1    6    6    0  502 -0.15042738810E+03 -0.24167379286E+03 -0.19252056192E+03  0.34365504217E+03  0.00000000000E+00 0.  1.
<mgrwt>
<rscale>  0 0.25510680E+04</rscale>
<asrwt>0</asrwt>
<pdfrwt beam="1">  1        2 0.48197223E+00 0.25510680E+04</pdfrwt>
<pdfrwt beam="2">  1       -2 0.79897895E-01 0.25510680E+04</pdfrwt>
<totfact> 0.17654271E+00</totfact>
</mgrwt>
</event>
<event>
12    1  0.1598876E-007  0.1351697E+04  0.7818608E-02  0.8989544E-01
          2   -1    0    0  501    0  0.00000000000E+00  0.00000000000E+00  0.11609929594E+04  0.11609929594E+04  0.00000000000E+00 0. -1.
         -2   -1    0    0    0  501 -0.00000000000E+00 -0.00000000000E+00 -0.39343153982E+03  0.39343153982E+03  0.00000000000E+00 0.  1.
         23    2    1    2    0    0  0.18153122087E+03  0.23971505943E+03  0.48317154044E+03  0.57643656857E+03  0.91692345475E+02 0.  0.
        254    2    1    2    0    0 -0.18153122087E+03 -0.23971505943E+03  0.28438987918E+03  0.97798793069E+03  0.88609587254E+03 0.  0.
        -24    2    4    4    0    0 -0.19617944565E+03  0.27976357401E+03  0.28442064402E+03  0.45204688764E+03  0.81836749970E+02 0.  0.
         24    2    4    4    0    0  0.14648224780E+02 -0.51947863344E+03 -0.30764839414E-01  0.52594104305E+03  0.80878666677E+02 0.  0.
         13    1    3    3    0    0  0.17143925175E+03  0.17017190398E+03  0.40278384162E+03  0.46966447280E+03  0.00000000000E+00 0. -1.
        -13    1    3    3    0    0  0.10091969112E+02  0.69543155455E+02  0.80387698824E+02  0.10677209576E+03  0.00000000000E+00 0.  1.
          2    1    6    6  502    0 -0.25699824048E+02 -0.36662533102E+03 -0.85285626442E+01  0.36762392562E+03  0.00000000000E+00 0. -1.
          3    1    5    5  503    0 -0.20275057623E+03  0.25770860205E+03  0.25984959014E+03  0.41838179839E+03  0.00000000000E+00 0. -1.
         -4    1    5    5    0  503  0.65711305835E+01  0.22054971962E+02  0.24571053878E+02  0.33665089248E+02  0.00000000000E+00 0.  1.
         -1    1    6    6    0  502  0.40348048828E+02 -0.15285330242E+03  0.84977978048E+01  0.15831711743E+03  0.00000000000E+00 0.  1.
<mgrwt>
<rscale>  0 0.13516971E+04</rscale>
<asrwt>0</asrwt>
<pdfrwt beam="1">  1        2 0.17861430E+00 0.13516971E+04</pdfrwt>
<pdfrwt beam="2">  1       -2 0.60527930E-01 0.13516971E+04</pdfrwt>
<totfact> 0.49643034E+01</totfact>
</mgrwt>
</event>
<event>
12    1  0.1764697E-007  0.1797209E+04  0.7818608E-02  0.8707785E-01
         -2   -1    0    0    0  501 -0.00000000000E+00  0.00000000000E+00  0.80004733624E+03  0.80004733624E+03  0.00000000000E+00 0. -1.
          2   -1    0    0  501    0  0.00000000000E+00 -0.00000000000E+00 -0.10093026983E+04  0.10093026983E+04  0.00000000000E+00 0.  1.
         23    2    1    2    0    0  0.13119727592E+03 -0.60189783352E+03  0.18031074359E+03  0.64653962873E+03  0.77509999683E+02 0.  0.
        254    2    1    2    0    0 -0.13119727592E+03  0.60189783352E+03 -0.38956610565E+03  0.11628104058E+04  0.90602017747E+03 0.  0.
        -24    2    4    4    0    0  0.26864866724E+03  0.44596539410E+03 -0.48562903097E+03  0.71636636113E+03  0.79296711729E+02 0.  0.
         24    2    4    4    0    0 -0.39984594316E+03  0.15593243942E+03  0.96062925319E+02  0.44644404468E+03  0.76762591736E+02 0.  0.
         11    1    3    3    0    0  0.10456805727E+02 -0.30018752257E+02  0.28420120321E+02  0.42640045874E+02  0.00000000000E+00 0.  1.
        -11    1    3    3    0    0  0.12074047019E+03 -0.57187908127E+03  0.15189062327E+03  0.60389958285E+03  0.00000000000E+00 0. -1.
          2    1    6    6  502    0 -0.28640886157E+03  0.73328845160E+02  0.63490411865E+02  0.30238747977E+03  0.00000000000E+00 0. -1.
          3    1    5    5  503    0  0.22974299109E+03  0.42233638934E+03 -0.45057545048E+03  0.65891433760E+03  0.00000000000E+00 0. -1.
         -4    1    5    5    0  503  0.38905676149E+02  0.23629004759E+02 -0.35053580483E+02  0.57452023525E+02  0.00000000000E+00 0.  1.
         -1    1    6    6    0  502 -0.11343708158E+03  0.82603594264E+02  0.32572513454E+02  0.14405656492E+03  0.00000000000E+00 0.  1.
<mgrwt>
<rscale>  0 0.17972089E+04</rscale>
<asrwt>0</asrwt>
<pdfrwt beam="1">  1        2 0.15527734E+00 0.17972089E+04</pdfrwt>
<pdfrwt beam="2">  1       -2 0.12308421E+00 0.17972089E+04</pdfrwt>
<totfact> 0.11693435E+01</totfact>
</mgrwt>
</event>
<event>
12    1  0.1598876E-007  0.3127738E+04  0.7818608E-02  0.8208167E-01
         -1   -1    0    0    0  501 -0.00000000000E+00  0.00000000000E+00  0.81732261796E+03  0.81732261796E+03  0.00000000000E+00 0.  1.
          1   -1    0    0  501    0  0.00000000000E+00 -0.00000000000E+00 -0.29923139590E+04  0.29923139590E+04  0.00000000000E+00 0. -1.
         23    2    1    2    0    0 -0.83169118778E+03 -0.91777554395E+03 -0.11641912415E+03  0.12473910342E+04  0.91699503592E+02 0.  0.
        254    2    1    2    0    0  0.83169118778E+03  0.91777554395E+03 -0.20585722169E+04  0.25622455427E+04  0.89070784666E+03 0.  0.
        -24    2    4    4    0    0 -0.91407161547E+02  0.15396304512E+03 -0.20908717876E+02  0.19706289145E+03  0.79603519140E+02 0.  0.
         24    2    4    4    0    0  0.92309834932E+03  0.76381249883E+03 -0.20376634990E+04  0.23651826513E+04  0.80599892848E+02 0.  0.
         11    1    3    3    0    0 -0.55194393568E+03 -0.54348950416E+03 -0.78410265022E+02  0.77856991910E+03  0.00000000000E+00 0.  1.
        -11    1    3    3    0    0 -0.27974725209E+03 -0.37428603979E+03 -0.38008859125E+02  0.46882111515E+03  0.00000000000E+00 0. -1.
          4    1    6    6  502    0  0.51877185442E+03  0.47892862993E+03 -0.11776417053E+04  0.13730756919E+04  0.00000000000E+00 0. -1.
          1    1    5    5  503    0 -0.92494680844E+02  0.11645539493E+03  0.91281440548E+01  0.14899814766E+03  0.00000000000E+00 0. -1.
         -2    1    5    5    0  503  0.10875192967E+01  0.37507650189E+02 -0.30036861930E+02  0.48064743790E+02  0.00000000000E+00 0.  1.
         -3    1    6    6    0  502  0.40432649491E+03  0.28488386891E+03 -0.86002179367E+03  0.99210695937E+03  0.00000000000E+00 0.  1.
<mgrwt>
<rscale>  0 0.31277378E+04</rscale>
<asrwt>0</asrwt>
<pdfrwt beam="1">  1        1 0.46035598E+00 0.31277378E+04</pdfrwt>
<pdfrwt beam="2">  1       -1 0.12574194E+00 0.31277378E+04</pdfrwt>
<totfact> 0.28085591E-01</totfact>
</mgrwt>
</event>
<event>
12    1  0.1598876E-007  0.3062596E+04  0.7818608E-02  0.8226079E-01
         -2   -1    0    0    0  501 -0.00000000000E+00  0.00000000000E+00  0.98427419122E+03  0.98427419122E+03  0.00000000000E+00 0.  1.
          2   -1    0    0  501    0  0.00000000000E+00 -0.00000000000E+00 -0.23823379331E+04  0.23823379331E+04  0.00000000000E+00 0. -1.
         23    2    1    2    0    0  0.46430814945E+03  0.41389529001E+03 -0.20334959747E+04  0.21286664298E+04  0.96039166225E+02 0.  0.
        254    2    1    2    0    0 -0.46430814945E+03 -0.41389529001E+03  0.63543223280E+03  0.12379456945E+04  0.86130369291E+03 0.  0.
        -24    2    4    4    0    0 -0.21861489205E+02 -0.36284461747E+03 -0.90375145853E+02  0.38283010291E+03  0.79101703975E+02 0.  0.
         24    2    4    4    0    0 -0.44244666024E+03 -0.51050672540E+02  0.72580737866E+03  0.85511559163E+03  0.77853104074E+02 0.  0.
         13    1    3    3    0    0  0.26209939479E+03  0.27026729861E+03 -0.10933620866E+04  0.11563654949E+04  0.00000000000E+00 0.  1.
        -13    1    3    3    0    0  0.20220875466E+03  0.14362799140E+03 -0.94013388809E+03  0.97230093485E+03  0.00000000000E+00 0. -1.
          2    1    6    6  502    0  0.16384320350E+01 -0.40845080266E+01  0.24980358649E+01  0.50604197983E+01  0.00000000000E+00 0. -1.
          1    1    5    5  503    0  0.19340374873E+02 -0.61587702131E+02 -0.36103589996E+02  0.73963263615E+02  0.00000000000E+00 0. -1.
         -2    1    5    5    0  503 -0.41201864078E+02 -0.30125691534E+03 -0.54271555858E+02  0.30886683930E+03  0.00000000000E+00 0.  1.
         -1    1    6    6    0  502 -0.44408509228E+03 -0.46966164513E+02  0.72330934279E+03  0.85005517183E+03  0.00000000000E+00 0.  1.
<mgrwt>
<rscale>  0 0.30625961E+04</rscale>
<asrwt>0</asrwt>
<pdfrwt beam="1">  1        2 0.36651353E+00 0.30625961E+04</pdfrwt>
<pdfrwt beam="2">  1       -2 0.15142680E+00 0.30625961E+04</pdfrwt>
<totfact> 0.10123915E+00</totfact>
</mgrwt>
</event>
<event>
12    1  0.1598876E-007  0.1620353E+04  0.7818608E-02  0.8808141E-01
         -2   -1    0    0    0  501 -0.00000000000E+00  0.00000000000E+00  0.11036452297E+04  0.11036452297E+04  0.00000000000E+00 0.  1.
          2   -1    0    0  501    0  0.00000000000E+00 -0.00000000000E+00 -0.59474385081E+03  0.59474385081E+03  0.00000000000E+00 0. -1.
         23    2    1    2    0    0 -0.35135989824E+03  0.42067802068E+03  0.25112531024E+03  0.60996393152E+03  0.92565118349E+02 0.  0.
        254    2    1    2    0    0  0.35135989824E+03 -0.42067802068E+03  0.25777606870E+03  0.10884251490E+04  0.90432130811E+03 0.  0.
        -24    2    4    4    0    0 -0.43325708560E+02 -0.33839600168E+03  0.50089667331E+03  0.61088512444E+03  0.76773608405E+02 0.  0.
         24    2    4    4    0    0  0.39468560680E+03 -0.82282019002E+02 -0.24312060462E+03  0.47754002460E+03  0.79936148533E+02 0.  0.
         11    1    3    3    0    0 -0.27093915498E+03  0.33972403512E+03  0.23705366224E+03  0.49498978224E+03  0.00000000000E+00 0. -1.
        -11    1    3    3    0    0 -0.80420743263E+02  0.80953985559E+02  0.14071647996E+02  0.11497414928E+03  0.00000000000E+00 0.  1.
          4    1    6    6  502    0  0.15906798587E+03 -0.53612116319E+02 -0.14070575134E+03  0.21903194198E+03  0.00000000000E+00 0. -1.
          1    1    5    5  503    0 -0.56319946137E+02 -0.32843976517E+03  0.47445628296E+03  0.57978735768E+03  0.00000000000E+00 0. -1.
         -2    1    5    5    0  503  0.12994237576E+02 -0.99562365062E+01  0.26440390350E+02  0.31097766759E+02  0.00000000000E+00 0.  1.
         -3    1    6    6    0  502  0.23561762093E+03 -0.28669902683E+02 -0.10241485328E+03  0.25850808263E+03  0.00000000000E+00 0.  1.
<mgrwt>
<rscale>  0 0.16203533E+04</rscale>
<asrwt>0</asrwt>
<pdfrwt beam="1">  1        2 0.91499054E-01 0.16203533E+04</pdfrwt>
<pdfrwt beam="2">  1       -2 0.16979157E+00 0.16203533E+04</pdfrwt>
<totfact> 0.10254903E+01</totfact>
</mgrwt>
</event>
<event>
12    1  0.1598876E-007  0.1277290E+04  0.7818608E-02  0.9047771E-01
          1   -1    0    0  501    0  0.00000000000E+00  0.00000000000E+00  0.11134112898E+04  0.11134112898E+04  0.00000000000E+00 0. -1.
         -1   -1    0    0    0  501 -0.00000000000E+00 -0.00000000000E+00 -0.36632208779E+03  0.36632208779E+03  0.00000000000E+00 0.  1.
         23    2    1    2    0    0 -0.13668613509E+03  0.27624690560E+03  0.28595101862E+03  0.42602086414E+03  0.68777461809E+02 0.  0.
        254    2    1    2    0    0  0.13668613509E+03 -0.27624690560E+03  0.46113818340E+03  0.10537125135E+04  0.89591639367E+03 0.  0.
        -24    2    4    4    0    0  0.24477299229E+03  0.20048144622E+03  0.45335094056E+03  0.55798300226E+03  0.75573325115E+02 0.  0.
         24    2    4    4    0    0 -0.10808685720E+03 -0.47672835182E+03  0.77872428332E+01  0.49572951119E+03  0.82063493636E+02 0.  0.
         13    1    3    3    0    0 -0.11085842521E+03  0.18276560939E+03  0.15974258407E+03  0.26685305241E+03  0.00000000000E+00 0.  1.
        -13    1    3    3    0    0 -0.25827709880E+02  0.93481296207E+02  0.12620843455E+03  0.15916781172E+03  0.00000000000E+00 0. -1.
          2    1    6    6  502    0 -0.34877859713E+02 -0.25302030907E+03  0.38692200461E+02  0.25832697939E+03  0.00000000000E+00 0. -1.
          1    1    5    5  503    0  0.86561556250E+02  0.11392500928E+03  0.17113802152E+03  0.22306957024E+03  0.00000000000E+00 0. -1.
         -2    1    5    5    0  503  0.15821143604E+03  0.86556436948E+02  0.28221291905E+03  0.33491343202E+03  0.00000000000E+00 0.  1.
         -1    1    6    6    0  502 -0.73208997486E+02 -0.22370804275E+03 -0.30904957628E+02  0.23740253181E+03  0.00000000000E+00 0.  1.
<mgrwt>
<rscale>  0 0.12772895E+04</rscale>
<asrwt>0</asrwt>
<pdfrwt beam="1">  1        1 0.17129404E+00 0.12772895E+04</pdfrwt>
<pdfrwt beam="2">  1       -1 0.56357245E-01 0.12772895E+04</pdfrwt>
<totfact> 0.38839352E+01</totfact>
</mgrwt>
</event>
<event>
12    1  0.1598876E-007  0.1247327E+04  0.7818608E-02  0.9072411E-01
          1   -1    0    0  501    0  0.00000000000E+00  0.00000000000E+00  0.18968578705E+04  0.18968578705E+04  0.00000000000E+00 0. -1.
         -1   -1    0    0    0  501 -0.00000000000E+00 -0.00000000000E+00 -0.20505292517E+03  0.20505292517E+03  0.00000000000E+00 0.  1.
         23    2    1    2    0    0  0.20893380306E+03  0.51160328732E+02  0.87126456985E+02  0.24944802631E+03  0.91447170680E+02 0.  0.
        254    2    1    2    0    0 -0.20893380306E+03 -0.51160328732E+02  0.16046784883E+04  0.18524627694E+04  0.90019694935E+03 0.  0.
        -24    2    4    4    0    0  0.24354363305E+02 -0.44128402012E+03  0.62379589098E+03  0.76859268354E+03  0.79301186357E+02 0.  0.
         24    2    4    4    0    0 -0.23328816636E+03  0.39012369139E+03  0.98088259737E+03  0.10838700858E+04  0.77613336325E+02 0.  0.
         11    1    3    3    0    0  0.19003220942E+03  0.44120241871E+02  0.10582771784E+03  0.22194220469E+03  0.00000000000E+00 0. -1.
        -11    1    3    3    0    0  0.18901593645E+02  0.70400868606E+01 -0.18701260858E+02  0.27505821620E+02  0.00000000000E+00 0.  1.
          4    1    6    6  502    0  0.54482355873E+01  0.12823500299E+02  0.41549843863E+02  0.43823680310E+02  0.00000000000E+00 0. -1.
          1    1    5    5  503    0  0.16618526092E+00 -0.43189911235E+02  0.27460705516E+02  0.51180918294E+02  0.00000000000E+00 0. -1.
         -2    1    5    5    0  503  0.24188178044E+02 -0.39809410889E+03  0.59633518546E+03  0.71741176524E+03  0.00000000000E+00 0.  1.
         -3    1    6    6    0  502 -0.23873640195E+03  0.37730019109E+03  0.93933275351E+03  0.10400464055E+04  0.00000000000E+00 0.  1.
<mgrwt>
<rscale>  0 0.12473272E+04</rscale>
<asrwt>0</asrwt>
<pdfrwt beam="1">  1        1 0.29182428E+00 0.12473272E+04</pdfrwt>
<pdfrwt beam="2">  1       -1 0.31546605E-01 0.12473272E+04</pdfrwt>
<totfact> 0.32281906E+01</totfact>
</mgrwt>
</event>
<event>
12    1  0.1598876E-007  0.1396238E+04  0.7818608E-02  0.8956546E-01
          1   -1    0    0  501    0  0.00000000000E+00  0.00000000000E+00  0.81230514781E+03  0.81230514781E+03  0.00000000000E+00 0. -1.
         -1   -1    0    0    0  501 -0.00000000000E+00 -0.00000000000E+00 -0.59998383904E+03  0.59998383904E+03  0.00000000000E+00 0.  1.
         23    2    1    2    0    0  0.17678834267E+03  0.75624094445E+02 -0.28716753037E+03  0.35706011588E+03  0.89741930491E+02 0.  0.
        254    2    1    2    0    0 -0.17678834267E+03 -0.75624094445E+02  0.49948883915E+03  0.10552288710E+04  0.90942055613E+03 0.  0.
        -24    2    4    4    0    0 -0.41901859452E+03 -0.21825994290E+03  0.57973254476E+03  0.75190380285E+03  0.77817222131E+02 0.  0.
         24    2    4    4    0    0  0.24223025185E+03  0.14263584845E+03 -0.80243705613E+02  0.30332506811E+03  0.80910842789E+02 0.  0.
         13    1    3    3    0    0  0.18450695321E+03  0.77489365421E+02 -0.28596006527E+03  0.34902804539E+03  0.00000000000E+00 0.  1.
        -13    1    3    3    0    0 -0.77186105398E+01 -0.18652709760E+01 -0.12074651024E+01  0.80320704960E+01  0.00000000000E+00 0. -1.
          2    1    6    6  502    0  0.15203582157E+03  0.12931486347E+03 -0.70301606081E+02  0.21161176898E+03  0.00000000000E+00 0. -1.
          3    1    5    5  503    0 -0.30065255973E+03 -0.13185603080E+03  0.35423717935E+03  0.48297200102E+03  0.00000000000E+00 0. -1.
         -4    1    5    5    0  503 -0.11836603479E+03 -0.86403912091E+02  0.22549536541E+03  0.26893180183E+03  0.00000000000E+00 0.  1.
         -1    1    6    6    0  502  0.90194430282E+02  0.13320984984E+02 -0.99420995322E+01  0.91713299134E+02  0.00000000000E+00 0.  1.
<mgrwt>
<rscale>  0 0.13962377E+04</rscale>
<asrwt>0</asrwt>
<pdfrwt beam="1">  1        1 0.12497002E+00 0.13962377E+04</pdfrwt>
<pdfrwt beam="2">  1       -1 0.92305206E-01 0.13962377E+04</pdfrwt>
<totfact> 0.24037099E+01</totfact>
</mgrwt>
</event>
<event>
12    1  0.1598876E-007  0.3016097E+04  0.7818608E-02  0.8239149E-01
          1   -1    0    0  501    0  0.00000000000E+00  0.00000000000E+00  0.27487758132E+04  0.27487758132E+04  0.00000000000E+00 0. -1.
         -1   -1    0    0    0  501 -0.00000000000E+00 -0.00000000000E+00 -0.82735361480E+03  0.82735361480E+03  0.00000000000E+00 0.  1.
         23    2    1    2    0    0 -0.32927147819E+03  0.11913060803E+04  0.17834977529E+03  0.12519473536E+04  0.89071042466E+02 0.  0.
        254    2    1    2    0    0  0.32927147819E+03 -0.11913060803E+04  0.17430724231E+04  0.23241820744E+04  0.91427072535E+03 0.  0.
        -24    2    4    4    0    0 -0.14338628710E+03 -0.46111165166E+03  0.15714286492E+03  0.51365886300E+03  0.77252604570E+02 0.  0.
         24    2    4    4    0    0  0.47265776530E+03 -0.73019442865E+03  0.15859295582E+04  0.18105232114E+04  0.78945985489E+02 0.  0.
         13    1    3    3    0    0 -0.93409149282E+01  0.88670059584E+02  0.31109417921E+02  0.94432134582E+02  0.00000000000E+00 0. -1.
        -13    1    3    3    0    0 -0.31993056327E+03  0.11026360207E+04  0.14724035737E+03  0.11575152191E+04  0.00000000000E+00 0.  1.
          2    1    6    6  502    0  0.20574307346E+03 -0.28468344234E+03  0.56975857007E+03  0.66932779921E+03  0.00000000000E+00 0. -1.
          1    1    5    5  503    0  0.41677192983E+01 -0.64566586797E+02  0.33478509055E+02  0.72849327953E+02  0.00000000000E+00 0. -1.
         -2    1    5    5    0  503 -0.14755400640E+03 -0.39654506486E+03  0.12366435587E+03  0.44080953504E+03  0.00000000000E+00 0.  1.
         -1    1    6    6    0  502  0.26691469184E+03 -0.44551098631E+03  0.10161709881E+04  0.11411954122E+04  0.00000000000E+00 0.  1.
<mgrwt>
<rscale>  0 0.30160966E+04</rscale>
<asrwt>0</asrwt>
<pdfrwt beam="1">  1        1 0.42288858E+00 0.30160966E+04</pdfrwt>
<pdfrwt beam="2">  1       -1 0.12728517E+00 0.30160966E+04</pdfrwt>
<totfact> 0.41174624E-01</totfact>
</mgrwt>
</event>
<event>
12    1  0.1598876E-007  0.1626567E+04  0.7818608E-02  0.8804391E-01
          1   -1    0    0  501    0  0.00000000000E+00  0.00000000000E+00  0.65150439009E+03  0.65150439009E+03  0.00000000000E+00 0. -1.
         -1   -1    0    0    0  501 -0.00000000000E+00 -0.00000000000E+00 -0.10152352250E+04  0.10152352250E+04  0.00000000000E+00 0.  1.
         23    2    1    2    0    0 -0.48663216618E+03 -0.27972162671E+03 -0.21152116338E+03  0.60663722290E+03  0.90622646383E+02 0.  0.
        254    2    1    2    0    0  0.48663216618E+03  0.27972162671E+03 -0.15220967148E+03  0.10601023921E+04  0.88633754526E+03 0.  0.
        -24    2    4    4    0    0  0.56229469528E+03  0.45700334062E+03  0.96245900552E+02  0.73540225041E+03  0.80782540474E+02 0.  0.
         24    2    4    4    0    0 -0.75662529105E+02 -0.17728171391E+03 -0.24845557204E+03  0.32470014174E+03  0.80909742151E+02 0.  0.
         11    1    3    3    0    0 -0.46744036982E+03 -0.28621865165E+03 -0.20688111766E+03  0.58585101582E+03  0.00000000000E+00 0.  1.
        -11    1    3    3    0    0 -0.19191796360E+02  0.64970249385E+01 -0.46400457258E+01  0.20786207084E+02  0.00000000000E+00 0. -1.
          2    1    6    6  502    0 -0.73726244464E+02 -0.15519946987E+03 -0.16451336956E+03  0.23788039712E+03  0.00000000000E+00 0. -1.
          3    1    5    5  503    0  0.15941524300E+00  0.55107275570E+00  0.56056066077E+01  0.56348841907E+01  0.00000000000E+00 0. -1.
         -2    1    5    5    0  503  0.56213528004E+03  0.45645226787E+03  0.90640293945E+02  0.72976736622E+03  0.00000000000E+00 0.  1.
         -1    1    6    6    0  502 -0.19362846403E+01 -0.22082244042E+02 -0.83942202470E+02  0.86819744619E+02  0.00000000000E+00 0.  1.
<mgrwt>
<rscale>  0 0.16265672E+04</rscale>
<asrwt>0</asrwt>
<pdfrwt beam="1">  1        1 0.10023144E+00 0.16265672E+04</pdfrwt>
<pdfrwt beam="2">  1       -1 0.15619003E+00 0.16265672E+04</pdfrwt>
<totfact> 0.90807446E+00</totfact>
</mgrwt>
</event>
<event>
12    1  0.1598876E-007  0.2576029E+04  0.7818608E-02  0.8376389E-01
         -2   -1    0    0    0  501 -0.00000000000E+00  0.00000000000E+00  0.13125120497E+04  0.13125120497E+04  0.00000000000E+00 0.  1.
          2   -1    0    0  501    0  0.00000000000E+00 -0.00000000000E+00 -0.12639745751E+04  0.12639745751E+04  0.00000000000E+00 0. -1.
         23    2    1    2    0    0 -0.53914428531E+03  0.15860026064E+03 -0.95637101844E+03  0.11130595269E+04  0.91789882408E+02 0.  0.
        254    2    1    2    0    0  0.53914428531E+03 -0.15860026064E+03  0.10049084931E+04  0.14634270978E+04  0.90329795093E+03 0.  0.
        -24    2    4    4    0    0  0.72696304692E+03  0.78849492111E+02  0.58553737530E+03  0.94011721610E+03  0.79207626774E+02 0.  0.
         24    2    4    4    0    0 -0.18781876160E+03 -0.23744975275E+03  0.41937111777E+03  0.52330988174E+03  0.79516197150E+02 0.  0.
         13    1    3    3    0    0 -0.53265373914E+02  0.22787669328E+02 -0.53821315180E+02  0.79077252730E+02  0.00000000000E+00 0.  1.
        -13    1    3    3    0    0 -0.48587891140E+03  0.13581259131E+03 -0.90254970326E+03  0.10339822742E+04  0.00000000000E+00 0. -1.
          4    1    6    6  502    0 -0.18771405259E+03 -0.21138796793E+03  0.35465698149E+03  0.45354494049E+03  0.00000000000E+00 0. -1.
          1    1    5    5  503    0  0.66444579316E+03  0.76283211128E+02  0.56087596556E+03  0.87286264045E+03  0.00000000000E+00 0. -1.
         -2    1    5    5    0  503  0.62517253758E+02  0.25662809833E+01  0.24661409745E+02  0.67254575652E+02  0.00000000000E+00 0.  1.
         -3    1    6    6    0  502 -0.10470901210E+00 -0.26061784823E+02  0.64714136286E+02  0.69764941248E+02  0.00000000000E+00 0.  1.
<mgrwt>
<rscale>  0 0.25760294E+04</rscale>
<asrwt>0</asrwt>
<pdfrwt beam="1">  1        2 0.19445763E+00 0.25760294E+04</pdfrwt>
<pdfrwt beam="2">  1       -2 0.20192493E+00 0.25760294E+04</pdfrwt>
<totfact> 0.19872458E+00</totfact>
</mgrwt>
</event>
<event>
12    1  0.1602357E-007  0.2123578E+04  0.7818608E-02  0.8550928E-01
         -2   -1    0    0    0  501 -0.00000000000E+00  0.00000000000E+00  0.52205473847E+03  0.52205473847E+03  0.00000000000E+00 0.  1.
          2   -1    0    0  501    0  0.00000000000E+00 -0.00000000000E+00 -0.21595350121E+04  0.21595350121E+04  0.00000000000E+00 0. -1.
         23    2    1    2    0    0  0.69128680229E+03  0.37995515267E+03 -0.23260283576E+03  0.82756049866E+03  0.92243908674E+02 0.  0.
        254    2    1    2    0    0 -0.69128680229E+03 -0.37995515267E+03 -0.14048774379E+04  0.18540292519E+04  0.91733335841E+03 0.  0.
        -24    2    4    4    0    0  0.98014061581E+02 -0.39549943571E+03 -0.50015751352E+03  0.65017635165E+03  0.80902348555E+02 0.  0.
         24    2    4    4    0    0 -0.78930086387E+03  0.15544283045E+02 -0.90471992437E+03  0.12038529003E+04  0.86638245063E+02 0.  0.
         11    1    3    3    0    0  0.56123321198E+02  0.32142033417E+02 -0.47131789984E+02  0.80027139906E+02  0.00000000000E+00 0.  1.
        -11    1    3    3    0    0  0.63516348109E+03  0.34781311925E+03 -0.18547104578E+03  0.74753335875E+03  0.00000000000E+00 0. -1.
          2    1    6    6  502    0 -0.47191604731E+01 -0.67138772349E+00 -0.22996555660E+02  0.23485374370E+02  0.00000000000E+00 0. -1.
          3    1    5    5  503    0  0.16778457549E+02 -0.18780428747E+02 -0.60468043373E+02  0.65502713005E+02  0.00000000000E+00 0. -1.
         -4    1    5    5    0  503  0.81235604032E+02 -0.37671900697E+03 -0.43968947014E+03  0.58467363865E+03  0.00000000000E+00 0.  1.
         -1    1    6    6    0  502 -0.78458170339E+03  0.16215670769E+02 -0.88172336871E+03  0.11803675259E+04  0.00000000000E+00 0.  1.
<mgrwt>
<rscale>  0 0.21235776E+04</rscale>
<asrwt>0</asrwt>
<pdfrwt beam="1">  1        2 0.33223615E+00 0.21235776E+04</pdfrwt>
<pdfrwt beam="2">  1       -2 0.80316114E-01 0.21235776E+04</pdfrwt>
<totfact> 0.68565796E+00</totfact>
</mgrwt>
</event>
<event>
12    1  0.1598876E-007  0.1448940E+04  0.7818608E-02  0.8919135E-01
         -2   -1    0    0    0  501 -0.00000000000E+00  0.00000000000E+00  0.32504819667E+03  0.32504819667E+03  0.00000000000E+00 0.  1.
          2   -1    0    0  501    0  0.00000000000E+00 -0.00000000000E+00 -0.16147053357E+04  0.16147053357E+04  0.00000000000E+00 0. -1.
         23    2    1    2    0    0  0.20677152847E+03 -0.22403816364E+03  0.36898814657E+02  0.32048432008E+03  0.91657586395E+02 0.  0.
        254    2    1    2    0    0 -0.20677152847E+03  0.22403816364E+03 -0.13265559537E+04  0.16192692123E+04  0.87711716428E+03 0.  0.
        -24    2    4    4    0    0 -0.45075168469E+03 -0.13073401483E+03 -0.83345694761E+03  0.95973553413E+03  0.78570656465E+02 0.  0.
         24    2    4    4    0    0  0.24398015622E+03  0.35477217847E+03 -0.49309900607E+03  0.65953367817E+03  0.80302102123E+02 0.  0.
         11    1    3    3    0    0  0.16314347796E+03 -0.21816829631E+03  0.19393954327E+02  0.27311046370E+03  0.00000000000E+00 0.  1.
        -11    1    3    3    0    0  0.43628050504E+02 -0.58698673246E+01  0.17504860329E+02  0.47373856380E+02  0.00000000000E+00 0. -1.
          4    1    6    6  502    0  0.23742317162E+03  0.29957215550E+03 -0.42447188685E+03  0.57121766561E+03  0.00000000000E+00 0. -1.
          1    1    5    5  503    0 -0.30951707033E+03 -0.12494976814E+03 -0.60912466647E+03  0.69458341521E+03  0.00000000000E+00 0. -1.
         -2    1    5    5    0  503 -0.14123461436E+03 -0.57842466905E+01 -0.22433228115E+03  0.26515211892E+03  0.00000000000E+00 0.  1.
         -3    1    6    6    0  502  0.65569846026E+01  0.55200022962E+02 -0.68627119216E+02  0.88316012557E+02  0.00000000000E+00 0.  1.
<mgrwt>
<rscale>  0 0.14489404E+04</rscale>
<asrwt>0</asrwt>
<pdfrwt beam="1">  1        2 0.24841621E+00 0.14489404E+04</pdfrwt>
<pdfrwt beam="2">  1       -2 0.50007415E-01 0.14489404E+04</pdfrwt>
<totfact> 0.40141758E+01</totfact>
</mgrwt>
</event>
<event>
12    1  0.1598876E-007  0.3794155E+04  0.7818608E-02  0.8047410E-01
         -2   -1    0    0    0  501 -0.00000000000E+00  0.00000000000E+00  0.10184373979E+04  0.10184373979E+04  0.00000000000E+00 0.  1.
          2   -1    0    0  501    0  0.00000000000E+00 -0.00000000000E+00 -0.35337490152E+04  0.35337490152E+04  0.00000000000E+00 0. -1.
         23    2    1    2    0    0 -0.54223142110E+03 -0.71704021624E+03 -0.30431891616E+04  0.31745022177E+04  0.91117899314E+02 0.  0.
        254    2    1    2    0    0  0.54223142110E+03  0.71704021624E+03  0.52787754429E+03  0.13776841953E+04  0.90066500682E+03 0.  0.
        -24    2    4    4    0    0  0.58843367292E+03  0.86717321354E+03  0.56651766528E+03  0.11940077957E+04  0.80428735213E+02 0.  0.
         24    2    4    4    0    0 -0.46202251819E+02 -0.15013299730E+03 -0.38640120992E+02  0.18367639959E+03  0.87002275054E+02 0.  0.
         13    1    3    3    0    0 -0.15137024779E+03 -0.23755816835E+03 -0.83072205578E+03  0.87718069360E+03  0.00000000000E+00 0.  1.
        -13    1    3    3    0    0 -0.39086117331E+03 -0.47948204788E+03 -0.22124671058E+04  0.22973215241E+04  0.00000000000E+00 0. -1.
          4    1    6    6  502    0 -0.31285226185E+02 -0.83397229252E+02  0.22584249054E+02  0.91890758675E+02  0.00000000000E+00 0. -1.
          1    1    5    5  503    0  0.58373579694E+03  0.84639497657E+03  0.54480997054E+03  0.11635935033E+04  0.00000000000E+00 0. -1.
         -2    1    5    5    0  503  0.46978759774E+01  0.20778236974E+02  0.21707694743E+02  0.30414292388E+02  0.00000000000E+00 0.  1.
         -3    1    6    6    0  502 -0.14917025634E+02 -0.66735768050E+02 -0.61224370046E+02  0.91785640917E+02  0.00000000000E+00 0.  1.
<mgrwt>
<rscale>  0 0.37941545E+04</rscale>
<asrwt>0</asrwt>
<pdfrwt beam="1">  1        2 0.54365370E+00 0.37941545E+04</pdfrwt>
<pdfrwt beam="2">  1       -2 0.15668267E+00 0.37941545E+04</pdfrwt>
<totfact> 0.16433293E-01</totfact>
</mgrwt>
</event>
<event>
12    1  0.1598876E-007  0.1872636E+04  0.7818608E-02  0.8668598E-01
          2   -1    0    0  501    0  0.00000000000E+00  0.00000000000E+00  0.23015129881E+04  0.23015129881E+04  0.00000000000E+00 0. -1.
         -2   -1    0    0    0  501 -0.00000000000E+00 -0.00000000000E+00 -0.38091959874E+03  0.38091959874E+03  0.00000000000E+00 0.  1.
         23    2    1    2    0    0 -0.38275734529E+02 -0.32970061000E+03  0.16584953261E+04  0.16936431393E+04  0.87480354868E+02 0.  0.
        254    2    1    2    0    0  0.38275734529E+02  0.32970061000E+03  0.26209806324E+03  0.98878944753E+03  0.89377942061E+03 0.  0.
        -24    2    4    4    0    0 -0.66801598736E+02  0.46465071666E+03 -0.17876799561E+03  0.50910399504E+03  0.82862171270E+02 0.  0.
         24    2    4    4    0    0  0.10507733326E+03 -0.13495010666E+03  0.44086605885E+03  0.47968545249E+03  0.80513813951E+02 0.  0.
         13    1    3    3    0    0 -0.42450229778E+02 -0.61946200404E+02  0.39662983672E+03  0.40367633214E+03  0.00000000000E+00 0.  1.
        -13    1    3    3    0    0  0.41744952490E+01 -0.26775440960E+03  0.12618654894E+04  0.12899668072E+04  0.00000000000E+00 0. -1.
          2    1    6    6  502    0  0.11591031525E+03 -0.13534719887E+03  0.41527182835E+03  0.45189020441E+03  0.00000000000E+00 0. -1.
          3    1    5    5  503    0 -0.72626162626E+02  0.28850248521E+03 -0.13926885912E+03  0.32848753186E+03  0.00000000000E+00 0. -1.
         -4    1    5    5    0  503  0.58245638900E+01  0.17614823145E+03 -0.39499136492E+02  0.18061646318E+03  0.00000000000E+00 0.  1.
         -1    1    6    6    0  502 -0.10832981987E+02  0.39709221736E+00  0.25594230502E+02  0.27795248083E+02  0.00000000000E+00 0.  1.
<mgrwt>
<rscale>  0 0.18726360E+04</rscale>
<asrwt>0</asrwt>
<pdfrwt beam="1">  1        2 0.35407891E+00 0.18726360E+04</pdfrwt>
<pdfrwt beam="2">  1       -2 0.58603017E-01 0.18726360E+04</pdfrwt>
<totfact> 0.11564575E+01</totfact>
</mgrwt>
</event>
<event>
12    1  0.1598876E-007  0.1317761E+04  0.7818608E-02  0.9015598E-01
          1   -1    0    0  501    0  0.00000000000E+00  0.00000000000E+00  0.14490057210E+04  0.14490057210E+04  0.00000000000E+00 0. -1.
         -1   -1    0    0    0  501 -0.00000000000E+00 -0.00000000000E+00 -0.29960084014E+03  0.29960084014E+03  0.00000000000E+00 0.  1.
         23    2    1    2    0    0 -0.16877130580E+03  0.27654368629E+03  0.45524758322E+03  0.56624317180E+03  0.91764936121E+02 0.  0.
        254    2    1    2    0    0  0.16877130580E+03 -0.27654368629E+03  0.69415729762E+03  0.11823633893E+04  0.90064902512E+03 0.  0.
        -24    2    4    4    0    0 -0.30809485274E+03 -0.12035139551E+03  0.23706245521E+02  0.34109815160E+03  0.79869056960E+02 0.  0.
         24    2    4    4    0    0  0.47686615854E+03 -0.15619229079E+03  0.67045105210E+03  0.84126523771E+03  0.80157482841E+02 0.  0.
         11    1    3    3    0    0 -0.74652401700E+02  0.18057028837E+03  0.32409659714E+03  0.37844050311E+03  0.00000000000E+00 0. -1.
        -11    1    3    3    0    0 -0.94118904100E+02  0.95973397920E+02  0.13115098608E+03  0.18780266869E+03  0.00000000000E+00 0.  1.
          4    1    6    6  502    0  0.16822360119E+03 -0.27452319823E+02  0.27299652498E+03  0.32183833288E+03  0.00000000000E+00 0. -1.
          1    1    5    5  503    0 -0.73044194912E+02  0.62198073405E+01  0.46100457042E+01  0.73453338489E+02  0.00000000000E+00 0. -1.
         -2    1    5    5    0  503 -0.23505065783E+03 -0.12657120285E+03  0.19096199817E+02  0.26764481311E+03  0.00000000000E+00 0.  1.
         -3    1    6    6    0  502  0.30864255735E+03 -0.12873997096E+03  0.39745452712E+03  0.51942690483E+03  0.00000000000E+00 0.  1.
<mgrwt>
<rscale>  0 0.13177607E+04</rscale>
<asrwt>0</asrwt>
<pdfrwt beam="1">  1        1 0.22292395E+00 0.13177607E+04</pdfrwt>
<pdfrwt beam="2">  1       -1 0.46092438E-01 0.13177607E+04</pdfrwt>
<totfact> 0.32607786E+01</totfact>
</mgrwt>
</event>
<event>
12    1  0.1598876E-007  0.1536998E+04  0.7818608E-02  0.8860215E-01
          2   -1    0    0  501    0  0.00000000000E+00  0.00000000000E+00  0.13975118749E+04  0.13975118749E+04  0.00000000000E+00 0. -1.
         -2   -1    0    0    0  501 -0.00000000000E+00 -0.00000000000E+00 -0.42260183902E+03  0.42260183902E+03  0.00000000000E+00 0.  1.
         23    2    1    2    0    0 -0.18665180316E+03  0.41100715552E+03  0.58892250904E+03  0.74804751791E+03  0.94760697951E+02 0.  0.
        254    2    1    2    0    0  0.18665180316E+03 -0.41100715552E+03  0.38598752680E+03  0.10720661960E+04  0.89250982079E+03 0.  0.
        -24    2    4    4    0    0  0.39075884998E+03 -0.17112509696E+03 -0.13751410060E+03  0.45566414844E+03  0.82118272423E+02 0.  0.
         24    2    4    4    0    0 -0.20410704682E+03 -0.23988205856E+03  0.52350162740E+03  0.61640204753E+03  0.81819568157E+02 0.  0.
         11    1    3    3    0    0 -0.14264408062E+03  0.34135223165E+03  0.53165406438E+03  0.64770728262E+03  0.00000000000E+00 0. -1.
        -11    1    3    3    0    0 -0.44007722547E+02  0.69654923867E+02  0.57268444658E+02  0.10034023528E+03  0.00000000000E+00 0.  1.
          4    1    6    6  502    0 -0.40660588937E+02 -0.10487541538E+03  0.20426391780E+03  0.23318637258E+03  0.00000000000E+00 0. -1.
          3    1    5    5  503    0  0.11432170079E+03 -0.15374486231E+02 -0.55133858672E+02  0.12784978870E+03  0.00000000000E+00 0. -1.
         -4    1    5    5    0  503  0.27643714919E+03 -0.15575061072E+03 -0.82380241930E+02  0.32781435974E+03  0.00000000000E+00 0.  1.
         -3    1    6    6    0  502 -0.16344645788E+03 -0.13500664318E+03  0.31923770960E+03  0.38321567495E+03  0.00000000000E+00 0.  1.
<mgrwt>
<rscale>  0 0.15369985E+04</rscale>
<asrwt>0</asrwt>
<pdfrwt beam="1">  1        2 0.21500183E+00 0.15369985E+04</pdfrwt>
<pdfrwt beam="2">  1       -2 0.65015668E-01 0.15369985E+04</pdfrwt>
<totfact> 0.30521278E+01</totfact>
</mgrwt>
</event>
<event>
12    1  0.1598876E-007  0.1382418E+04  0.7818608E-02  0.8966644E-01
          3   -1    0    0  501    0  0.00000000000E+00  0.00000000000E+00  0.23101818051E+04  0.23101818051E+04  0.00000000000E+00 0. -1.
         -3   -1    0    0    0  501 -0.00000000000E+00 -0.00000000000E+00 -0.20681060044E+03  0.20681060044E+03  0.00000000000E+00 0.  1.
         23    2    1    2    0    0  0.89509228332E+02 -0.23950985335E+02  0.13162308573E+04  0.13226210774E+04  0.90979629465E+02 0.  0.
        254    2    1    2    0    0 -0.89509228332E+02  0.23950985335E+02  0.78714034737E+03  0.11943713282E+04  0.89350287712E+03 0.  0.
        -24    2    4    4    0    0 -0.21411828171E+03  0.28758070074E+03  0.81037796153E+03  0.88988192437E+03  0.81413148710E+02 0.  0.
         24    2    4    4    0    0  0.12460905338E+03 -0.26362971540E+03 -0.23237614163E+02  0.30448940379E+03  0.84532640313E+02 0.  0.
         13    1    3    3    0    0 -0.22976850558E+01 -0.37040973594E+02  0.38343966925E+03  0.38523147981E+03  0.00000000000E+00 0.  1.
        -13    1    3    3    0    0  0.91806913388E+02  0.13089988259E+02  0.93279118804E+03  0.93738959757E+03  0.00000000000E+00 0. -1.
          2    1    6    6  502    0 -0.52696932373E+01 -0.59946673804E+02  0.87563703647E+01  0.60811572821E+02  0.00000000000E+00 0. -1.
          3    1    5    5  503    0 -0.47784391554E+02  0.10318901900E+03  0.18698823817E+03  0.21885137179E+03  0.00000000000E+00 0. -1.
         -2    1    5    5    0  503 -0.16633389016E+03  0.18439168174E+03  0.62338972336E+03  0.67103055258E+03  0.00000000000E+00 0.  1.
         -3    1    6    6    0  502  0.12987874662E+03 -0.20368304160E+03 -0.31993984528E+02  0.24367783097E+03  0.00000000000E+00 0.  1.
<mgrwt>
<rscale>  0 0.13824183E+04</rscale>
<asrwt>0</asrwt>
<pdfrwt beam="1">  1        3 0.35541257E+00 0.13824183E+04</pdfrwt>
<pdfrwt beam="2">  1       -3 0.31817017E-01 0.13824183E+04</pdfrwt>
<totfact> 0.48254977E-01</totfact>
</mgrwt>
</event>
<event>
12    1  0.1598876E-007  0.1910665E+04  0.7818608E-02  0.8649566E-01
         -1   -1    0    0    0  501 -0.00000000000E+00  0.00000000000E+00  0.85149919233E+03  0.85149919233E+03  0.00000000000E+00 0.  1.
          1   -1    0    0  501    0  0.00000000000E+00 -0.00000000000E+00 -0.10718275041E+04  0.10718275041E+04  0.00000000000E+00 0. -1.
         23    2    1    2    0    0 -0.28047914255E+02 -0.73888601035E+03 -0.82544870160E+02  0.74958138742E+03  0.91210629798E+02 0.  0.
        254    2    1    2    0    0  0.28047914255E+02  0.73888601035E+03 -0.13778344159E+03  0.11737453090E+04  0.90108520785E+03 0.  0.
        -24    2    4    4    0    0 -0.38865744801E+03  0.52046892780E+03  0.61585282422E+02  0.65738011463E+03  0.80083402775E+02 0.  0.
         24    2    4    4    0    0  0.41670536226E+03  0.21841708254E+03 -0.19936872401E+03  0.51636519435E+03  0.74402586924E+02 0.  0.
         11    1    3    3    0    0 -0.41570248752E+02 -0.40467825856E+03 -0.82556554805E+02  0.41510018463E+03  0.00000000000E+00 0. -1.
        -11    1    3    3    0    0  0.13522334497E+02 -0.33420775178E+03  0.11684644469E-01  0.33448120279E+03  0.00000000000E+00 0.  1.
          4    1    6    6  502    0  0.31144446099E+03  0.16010357839E+03 -0.11200901456E+03  0.36766401433E+03  0.00000000000E+00 0. -1.
          1    1    5    5  503    0 -0.31319688110E+03  0.36541504835E+03  0.59432064736E+02  0.48492536973E+03  0.00000000000E+00 0. -1.
         -2    1    5    5    0  503 -0.75460566913E+02  0.15505387946E+03  0.21532176862E+01  0.17245474490E+03  0.00000000000E+00 0.  1.
         -3    1    6    6    0  502  0.10526090127E+03  0.58313504157E+02 -0.87359709452E+02  0.14870118002E+03  0.00000000000E+00 0.  1.
<mgrwt>
<rscale>  0 0.19106651E+04</rscale>
<asrwt>0</asrwt>
<pdfrwt beam="1">  1        1 0.16489654E+00 0.19106651E+04</pdfrwt>
<pdfrwt beam="2">  1       -1 0.13099988E+00 0.19106651E+04</pdfrwt>
<totfact> 0.61927423E+00</totfact>
</mgrwt>
</event>
<event>
12    1  0.1598876E-007  0.2828258E+04  0.7818608E-02  0.8294549E-01
         -1   -1    0    0    0  501 -0.00000000000E+00  0.00000000000E+00  0.78439089693E+03  0.78439089693E+03  0.00000000000E+00 0.  1.
          1   -1    0    0  501    0  0.00000000000E+00 -0.00000000000E+00 -0.25494440637E+04  0.25494440637E+04  0.00000000000E+00 0. -1.
         23    2    1    2    0    0 -0.11952805826E+04 -0.36088823552E+03 -0.47793794176E+03  0.13402611276E+04  0.94547471298E+02 0.  0.
        254    2    1    2    0    0  0.11952805826E+04  0.36088823552E+03 -0.12871152250E+04  0.19935738330E+04  0.87105397967E+03 0.  0.
        -24    2    4    4    0    0  0.85288089188E+01  0.29613040457E+03 -0.42177598370E+03  0.52153681844E+03  0.79622330204E+02 0.  0.
         24    2    4    4    0    0  0.11867517737E+04  0.64757830941E+02 -0.86533924127E+03  0.14720370145E+04  0.74213345676E+02 0.  0.
         13    1    3    3    0    0 -0.37108480860E+03 -0.11722276586E+03 -0.19606010765E+03  0.43575759066E+03  0.00000000000E+00 0. -1.
        -13    1    3    3    0    0 -0.82419577400E+03 -0.24366546965E+03 -0.28187783411E+03  0.90450353694E+03  0.00000000000E+00 0.  1.
          4    1    6    6  502    0  0.10104412407E+04  0.43465328876E+02 -0.76453451770E+03  0.12678303374E+04  0.00000000000E+00 0. -1.
          1    1    5    5  503    0  0.21712871265E+02  0.14191617173E+03 -0.26403740379E+03  0.30054516995E+03  0.00000000000E+00 0. -1.
         -2    1    5    5    0  503 -0.13184062347E+02  0.15421423285E+03 -0.15773857990E+03  0.22099164849E+03  0.00000000000E+00 0.  1.
         -3    1    6    6    0  502  0.17631053302E+03  0.21292502066E+02 -0.10080472357E+03  0.20420667715E+03  0.00000000000E+00 0.  1.
<mgrwt>
<rscale>  0 0.28282579E+04</rscale>
<asrwt>0</asrwt>
<pdfrwt beam="1">  1        1 0.39222217E+00 0.28282579E+04</pdfrwt>
<pdfrwt beam="2">  1       -1 0.12067552E+00 0.28282579E+04</pdfrwt>
<totfact> 0.65970703E-01</totfact>
</mgrwt>
</event>
<event>
12    1  0.1598876E-007  0.1714489E+04  0.7818608E-02  0.8753143E-01
          1   -1    0    0  501    0  0.00000000000E+00  0.00000000000E+00  0.34430620651E+03  0.34430620651E+03  0.00000000000E+00 0. -1.
         -1   -1    0    0    0  501 -0.00000000000E+00 -0.00000000000E+00 -0.21343454448E+04  0.21343454448E+04  0.00000000000E+00 0.  1.
         23    2    1    2    0    0 -0.38995110549E+03 -0.19927711141E+03 -0.14375028543E+04  0.15055160869E+04  0.91602402721E+02 0.  0.
        254    2    1    2    0    0  0.38995110549E+03  0.19927711141E+03 -0.35253638403E+03  0.97313556439E+03  0.79431586464E+03 0.  0.
        -24    2    4    4    0    0  0.52276736158E+03 -0.98979745500E+02 -0.87708032087E+02  0.54534989685E+03  0.81431607774E+02 0.  0.
         24    2    4    4    0    0 -0.13281625609E+03  0.29825685691E+03 -0.26482835194E+03  0.42778566755E+03  0.79178347987E+02 0.  0.
         13    1    3    3    0    0 -0.14688324785E+03 -0.33308281410E+02 -0.41450607709E+03  0.44102088165E+03  0.00000000000E+00 0. -1.
        -13    1    3    3    0    0 -0.24306785763E+03 -0.16596883000E+03 -0.10229967772E+04  0.10644952053E+04  0.00000000000E+00 0.  1.
          2    1    6    6  502    0 -0.12966673079E+03  0.29070012819E+03 -0.23182014712E+03  0.39377735614E+03  0.00000000000E+00 0. -1.
          3    1    5    5  503    0  0.43500675278E+03 -0.10716790267E+03 -0.55184537849E+02  0.45139912222E+03  0.00000000000E+00 0. -1.
         -4    1    5    5    0  503  0.87760608801E+02  0.81881571673E+01 -0.32523494238E+02  0.93950774624E+02  0.00000000000E+00 0.  1.
         -1    1    6    6    0  502 -0.31495253087E+01  0.75567287157E+01 -0.33008204825E+02  0.34008311400E+02  0.00000000000E+00 0.  1.
<mgrwt>
<rscale>  0 0.17144893E+04</rscale>
<asrwt>0</asrwt>
<pdfrwt beam="1">  1        1 0.52970185E-01 0.17144893E+04</pdfrwt>
<pdfrwt beam="2">  1       -1 0.32836084E+00 0.17144893E+04</pdfrwt>
<totfact> 0.15045800E+00</totfact>
</mgrwt>
</event>
<event>
12    1  0.1598876E-007  0.2696994E+04  0.7818608E-02  0.8335981E-01
         -2   -1    0    0    0  501 -0.00000000000E+00  0.00000000000E+00  0.21646441339E+04  0.21646441339E+04  0.00000000000E+00 0.  1.
          2   -1    0    0  501    0  0.00000000000E+00 -0.00000000000E+00 -0.84006624982E+03  0.84006624982E+03  0.00000000000E+00 0. -1.
         23    2    1    2    0    0 -0.30628004670E+03  0.10137635608E+04  0.12098434335E+04  0.16101451216E+04  0.85569589602E+02 0.  0.
        254    2    1    2    0    0  0.30628004670E+03 -0.10137635608E+04  0.11473445054E+03  0.13945652621E+04  0.90006902613E+03 0.  0.
        -24    2    4    4    0    0  0.56440429246E+03 -0.85544830054E+03  0.24262589673E+03  0.10562825703E+04  0.80756066601E+02 0.  0.
         24    2    4    4    0    0 -0.25812424576E+03 -0.15831526030E+03 -0.12789144619E+03  0.33828269180E+03  0.79919394847E+02 0.  0.
         13    1    3    3    0    0 -0.30839119737E+03  0.96052503701E+03  0.11581014409E+04  0.15358751332E+04  0.00000000000E+00 0.  1.
        -13    1    3    3    0    0  0.21111506675E+01  0.53238523831E+02  0.51741992581E+02  0.74269988374E+02  0.00000000000E+00 0. -1.
          4    1    6    6  502    0 -0.19421932976E+03 -0.13094595270E+03 -0.13157993931E+03  0.26866572355E+03  0.00000000000E+00 0. -1.
          3    1    5    5  503    0  0.10966984667E+03 -0.15394319029E+03  0.76671277607E+02  0.20397172822E+03  0.00000000000E+00 0. -1.
         -4    1    5    5    0  503  0.45473444580E+03 -0.70150511026E+03  0.16595461912E+03  0.85231084207E+03  0.00000000000E+00 0.  1.
         -3    1    6    6    0  502 -0.63904916000E+02 -0.27369307602E+02  0.36884931225E+01  0.69616968255E+02  0.00000000000E+00 0.  1.
<mgrwt>
<rscale>  0 0.26969942E+04</rscale>
<asrwt>0</asrwt>
<pdfrwt beam="1">  1        2 0.12924096E+00 0.26969942E+04</pdfrwt>
<pdfrwt beam="2">  1       -2 0.33302217E+00 0.26969942E+04</pdfrwt>
<totfact> 0.56265004E-01</totfact>
</mgrwt>
</event>
<event>
12    1  0.1598876E-007  0.1311588E+04  0.7818608E-02  0.9020426E-01
          2   -1    0    0  501    0  0.00000000000E+00  0.00000000000E+00  0.61735118677E+03  0.61735118677E+03  0.00000000000E+00 0. -1.
         -2   -1    0    0    0  501 -0.00000000000E+00 -0.00000000000E+00 -0.69663071277E+03  0.69663071277E+03  0.00000000000E+00 0.  1.
         23    2    1    2    0    0  0.29087985340E+03 -0.15217526689E+03 -0.13970122545E+02  0.34980005418E+03  0.11998546834E+03 0.  0.
        254    2    1    2    0    0 -0.29087985340E+03  0.15217526689E+03 -0.65309403453E+02  0.96418184536E+03  0.90421950420E+03 0.  0.
        -24    2    4    4    0    0 -0.22416503474E+03 -0.35777171601E+03  0.45428392133E+02  0.43219317407E+03  0.80477557934E+02 0.  0.
         24    2    4    4    0    0 -0.66714818661E+02  0.50994698290E+03 -0.11073779559E+03  0.53198867129E+03  0.79071452591E+02 0.  0.
         11    1    3    3    0    0  0.24003363497E+03 -0.12655906195E+03  0.36396612376E+02  0.27378468816E+03  0.00000000000E+00 0. -1.
        -11    1    3    3    0    0  0.50846218434E+02 -0.25616204935E+02 -0.50366734921E+02  0.76015366018E+02  0.00000000000E+00 0.  1.
          4    1    6    6  502    0 -0.12391382943E+01  0.15033163320E+03 -0.98596497207E+00  0.15033997317E+03  0.00000000000E+00 0. -1.
          1    1    5    5  503    0 -0.13070717398E+03 -0.14540544862E+03 -0.12581655637E+01  0.19552159165E+03  0.00000000000E+00 0. -1.
         -2    1    5    5    0  503 -0.93457860761E+02 -0.21236626738E+03  0.46686557697E+02  0.23667158243E+03  0.00000000000E+00 0.  1.
         -1    1    6    6    0  502 -0.65475680367E+02  0.35961534969E+03 -0.10975183061E+03  0.38164869812E+03  0.00000000000E+00 0.  1.
<mgrwt>
<rscale>  0 0.13115880E+04</rscale>
<asrwt>0</asrwt>
<pdfrwt beam="1">  1        2 0.94977106E-01 0.13115880E+04</pdfrwt>
<pdfrwt beam="2">  1       -2 0.10717396E+00 0.13115880E+04</pdfrwt>
<totfact> 0.32831812E+01</totfact>
</mgrwt>
</event>
<event>
12    1  0.1598876E-007  0.1850250E+04  0.7818608E-02  0.8680024E-01
         -2   -1    0    0    0  501 -0.00000000000E+00  0.00000000000E+00  0.10132404358E+04  0.10132404358E+04  0.00000000000E+00 0.  1.
          2   -1    0    0  501    0  0.00000000000E+00 -0.00000000000E+00 -0.84467263513E+03  0.84467263513E+03  0.00000000000E+00 0. -1.
         23    2    1    2    0    0 -0.88848875805E+02 -0.26020121437E+03  0.71199228785E+03  0.76892684674E+03  0.93363177943E+02 0.  0.
        254    2    1    2    0    0  0.88848875805E+02  0.26020121437E+03 -0.54342448716E+03  0.10889862242E+04  0.90276355075E+03 0.  0.
        -24    2    4    4    0    0  0.29583887099E+03  0.11523448711E+03  0.13971882945E+03  0.35619794792E+03  0.80969143484E+02 0.  0.
         24    2    4    4    0    0 -0.20698999518E+03  0.14496672726E+03 -0.68314331661E+03  0.73278827628E+03  0.80210078508E+02 0.  0.
         13    1    3    3    0    0 -0.64993550952E+02 -0.20665992569E+03  0.43693299038E+03  0.48769142358E+03  0.00000000000E+00 0. -1.
        -13    1    3    3    0    0 -0.23855324853E+02 -0.53541288675E+02  0.27505929747E+03  0.28123542316E+03  0.00000000000E+00 0.  1.
          4    1    6    6  502    0 -0.78005036224E+02  0.16157285307E+02 -0.15876719496E+03  0.17763126341E+03  0.00000000000E+00 0. -1.
          3    1    5    5  503    0  0.10185715063E+03  0.45777237072E+02  0.92036989071E+02  0.14471089083E+03  0.00000000000E+00 0. -1.
         -4    1    5    5    0  503  0.19398172036E+03  0.69457250034E+02  0.47681840382E+02  0.21148705709E+03  0.00000000000E+00 0.  1.
         -3    1    6    6    0  502 -0.12898495896E+03  0.12880944195E+03 -0.52437612166E+03  0.55515701287E+03  0.00000000000E+00 0.  1.
<mgrwt>
<rscale>  0 0.18502502E+04</rscale>
<asrwt>0</asrwt>
<pdfrwt beam="1">  1        2 0.12994964E+00 0.18502502E+04</pdfrwt>
<pdfrwt beam="2">  1       -2 0.15588314E+00 0.18502502E+04</pdfrwt>
<totfact> 0.81349423E+00</totfact>
</mgrwt>
</event>
<event>
12    1  0.1598876E-007  0.1263182E+04  0.7818608E-02  0.9059283E-01
          2   -1    0    0  501    0  0.00000000000E+00  0.00000000000E+00  0.28148947173E+04  0.28148947173E+04  0.00000000000E+00 0. -1.
         -2   -1    0    0    0  501 -0.00000000000E+00 -0.00000000000E+00 -0.14171293924E+03  0.14171293924E+03  0.00000000000E+00 0.  1.
         23    2    1    2    0    0  0.26632027625E+03 -0.96382023128E+02  0.10213576993E+04  0.10638004289E+04  0.91015486000E+02 0.  0.
        254    2    1    2    0    0 -0.26632027625E+03  0.96382023128E+02  0.16518240788E+04  0.18928072277E+04  0.87976157562E+03 0.  0.
        -24    2    4    4    0    0 -0.32921241307E+03  0.27910672238E+02  0.17195601286E+04  0.17527691171E+04  0.78439296024E+02 0.  0.
         24    2    4    4    0    0  0.62892136816E+02  0.68471350890E+02 -0.67736049843E+02  0.14003811062E+03  0.79867097183E+02 0.  0.
         11    1    3    3    0    0  0.11222914459E+03 -0.45814405304E+02  0.60393334021E+03  0.61597874967E+03  0.00000000000E+00 0. -1.
        -11    1    3    3    0    0  0.15409113166E+03 -0.50567617824E+02  0.41742435909E+03  0.44782167923E+03  0.00000000000E+00 0.  1.
          2    1    6    6  502    0  0.25876764321E+02  0.69751233473E+02 -0.15483867617E+02  0.75990734034E+02  0.00000000000E+00 0. -1.
          3    1    5    5  503    0 -0.19471726184E+03 -0.22226089467E+02  0.97638457128E+03  0.99585924816E+03  0.00000000000E+00 0. -1.
         -4    1    5    5    0  503 -0.13449515122E+03  0.50136761705E+02  0.74317555736E+03  0.75690986889E+03  0.00000000000E+00 0.  1.
         -1    1    6    6    0  502  0.37015372495E+02 -0.12798825832E+01 -0.52252182226E+02  0.64047376588E+02  0.00000000000E+00 0.  1.
<mgrwt>
<rscale>  0 0.12631817E+04</rscale>
<asrwt>0</asrwt>
<pdfrwt beam="1">  1        2 0.43306068E+00 0.12631817E+04</pdfrwt>
<pdfrwt beam="2">  1       -2 0.21801993E-01 0.12631817E+04</pdfrwt>
<totfact> 0.41222029E+01</totfact>
</mgrwt>
</event>
<event>
12    1  0.1598876E-007  0.2852966E+04  0.7818608E-02  0.8287011E-01
          2   -1    0    0  501    0  0.00000000000E+00  0.00000000000E+00  0.86737146567E+03  0.86737146567E+03  0.00000000000E+00 0. -1.
         -2   -1    0    0    0  501 -0.00000000000E+00 -0.00000000000E+00 -0.23460008294E+04  0.23460008294E+04  0.00000000000E+00 0.  1.
         23    2    1    2    0    0 -0.66414601235E+03 -0.43781940318E+03 -0.18019131577E+04  0.19718201099E+04  0.91693851399E+02 0.  0.
        254    2    1    2    0    0  0.66414601235E+03  0.43781940318E+03  0.32328379395E+03  0.12415521852E+04  0.89675172796E+03 0.  0.
        -24    2    4    4    0    0 -0.16539010058E+03  0.12216618152E+03 -0.11461341078E+03  0.24866963312E+03  0.80136703376E+02 0.  0.
         24    2    4    4    0    0  0.82953611294E+03  0.31565322166E+03  0.43789720473E+03  0.99288255207E+03  0.79339027534E+02 0.  0.
         13    1    3    3    0    0 -0.20854399984E+03 -0.16145399136E+03 -0.69389351896E+03  0.74232486611E+03  0.00000000000E+00 0. -1.
        -13    1    3    3    0    0 -0.45560201251E+03 -0.27636541182E+03 -0.11080196387E+04  0.12294952437E+04  0.00000000000E+00 0.  1.
          4    1    6    6  502    0  0.54837808105E+02  0.94537306498E+00  0.30074910069E+02  0.62550612656E+02  0.00000000000E+00 0. -1.
          1    1    5    5  503    0 -0.12291043850E+03  0.41882114051E+02 -0.67892255437E+02  0.14652796906E+03  0.00000000000E+00 0. -1.
         -2    1    5    5    0  503 -0.42479662083E+02  0.80284067465E+02 -0.46721155344E+02  0.10214166406E+03  0.00000000000E+00 0.  1.
         -3    1    6    6    0  502  0.77469830483E+03  0.31470784860E+03  0.40782229466E+03  0.93033193941E+03  0.00000000000E+00 0.  1.
<mgrwt>
<rscale>  0 0.28529663E+04</rscale>
<asrwt>0</asrwt>
<pdfrwt beam="1">  1        2 0.13344176E+00 0.28529663E+04</pdfrwt>
<pdfrwt beam="2">  1       -2 0.36092320E+00 0.28529663E+04</pdfrwt>
<totfact> 0.35475812E-01</totfact>
</mgrwt>
</event>
<event>
12    1  0.1598876E-007  0.2130573E+04  0.7818608E-02  0.8547894E-01
         -2   -1    0    0    0  501 -0.00000000000E+00  0.00000000000E+00  0.38897763387E+03  0.38897763387E+03  0.00000000000E+00 0.  1.
          2   -1    0    0  501    0  0.00000000000E+00 -0.00000000000E+00 -0.29174834808E+04  0.29174834808E+04  0.00000000000E+00 0. -1.
         23    2    1    2    0    0  0.69809758926E+03  0.30405803291E+03 -0.37383934050E+03  0.85190555489E+03  0.78712708229E+02 0.  0.
        254    2    1    2    0    0 -0.69809758926E+03 -0.30405803291E+03 -0.21546665064E+04  0.24545555597E+04  0.89580338836E+03 0.  0.
        -24    2    4    4    0    0 -0.30712908255E+03  0.24309380770E+03 -0.13223576929E+04  0.13815232800E+04  0.80955744391E+02 0.  0.
         24    2    4    4    0    0 -0.39096850671E+03 -0.54715184061E+03 -0.83230881347E+03  0.10730322797E+04  0.80179812940E+02 0.  0.
         11    1    3    3    0    0  0.17048499779E+03  0.82405180691E+02 -0.13088752894E+03  0.23018969028E+03  0.00000000000E+00 0. -1.
        -11    1    3    3    0    0  0.52761259147E+03  0.22165285222E+03 -0.24295181156E+03  0.62171586461E+03  0.00000000000E+00 0.  1.
          4    1    6    6  502    0 -0.81212518378E+02 -0.16814565955E+03 -0.25685795274E+03  0.31756014210E+03  0.00000000000E+00 0. -1.
          3    1    5    5  503    0 -0.91086119142E+02  0.28528459951E+02 -0.32331002744E+03  0.33710521795E+03  0.00000000000E+00 0. -1.
         -4    1    5    5    0  503 -0.21604296341E+03  0.21456534775E+03 -0.99904766548E+03  0.10444180621E+04  0.00000000000E+00 0.  1.
         -1    1    6    6    0  502 -0.30975598833E+03 -0.37900618106E+03 -0.57545086073E+03  0.75547213761E+03  0.00000000000E+00 0.  1.
<mgrwt>
<rscale>  0 0.21305735E+04</rscale>
<asrwt>0</asrwt>
<pdfrwt beam="1">  1        2 0.44884361E+00 0.21305735E+04</pdfrwt>
<pdfrwt beam="2">  1       -2 0.59842713E-01 0.21305735E+04</pdfrwt>
<totfact> 0.46979967E+00</totfact>
</mgrwt>
</event>
<event>
12    1  0.1598876E-007  0.1214051E+04  0.7818608E-02  0.9100646E-01
          1   -1    0    0  501    0  0.00000000000E+00  0.00000000000E+00  0.58100498194E+03  0.58100498194E+03  0.00000000000E+00 0. -1.
         -1   -1    0    0    0  501 -0.00000000000E+00 -0.00000000000E+00 -0.63421130674E+03  0.63421130674E+03  0.00000000000E+00 0.  1.
         23    2    1    2    0    0  0.15556854547E+02 -0.13353787609E+03 -0.24895501652E+03  0.29560237719E+03  0.85602482881E+02 0.  0.
        254    2    1    2    0    0 -0.15556854547E+02  0.13353787609E+03  0.19574869172E+03  0.91961391149E+03  0.88842434445E+03 0.  0.
        -24    2    4    4    0    0  0.17863902143E+03 -0.31766403421E+03 -0.25945114483E+02  0.37429065847E+03  0.81228132111E+02 0.  0.
         24    2    4    4    0    0 -0.19419587598E+03  0.45120191030E+03  0.22169380620E+03  0.54532325301E+03  0.83271270339E+02 0.  0.
         13    1    3    3    0    0 -0.15587646112E+02 -0.82933643480E+02 -0.20500803111E+03  0.22169631650E+03  0.00000000000E+00 0.  1.
        -13    1    3    3    0    0  0.31144500659E+02 -0.50604232611E+02 -0.43946985413E+02  0.73906060687E+02  0.00000000000E+00 0. -1.
          2    1    6    6  502    0 -0.18173211188E+03  0.44372889556E+03  0.20074506858E+03  0.51982735192E+03  0.00000000000E+00 0. -1.
          1    1    5    5  503    0  0.16703384645E+03 -0.23026271066E+03 -0.29899706867E+02  0.28603358938E+03  0.00000000000E+00 0. -1.
         -2    1    5    5    0  503  0.11605174981E+02 -0.87401323551E+02  0.39545923837E+01  0.88257069098E+02  0.00000000000E+00 0.  1.
         -1    1    6    6    0  502 -0.12463764096E+02  0.74730147403E+01  0.20948737619E+02  0.25495901094E+02  0.00000000000E+00 0.  1.
<mgrwt>
<rscale>  0 0.12140510E+04</rscale>
<asrwt>0</asrwt>
<pdfrwt beam="1">  1        1 0.89385382E-01 0.12140510E+04</pdfrwt>
<pdfrwt beam="2">  1       -1 0.97570970E-01 0.12140510E+04</pdfrwt>
<totfact> 0.35776344E+01</totfact>
</mgrwt>
</event>
<event>
12    1  0.1598876E-007  0.1760459E+04  0.7818608E-02  0.8727614E-01
          2   -1    0    0  501    0  0.00000000000E+00  0.00000000000E+00  0.27151800181E+04  0.27151800181E+04  0.00000000000E+00 0.  1.
         -2   -1    0    0    0  501 -0.00000000000E+00 -0.00000000000E+00 -0.28536014229E+03  0.28536014229E+03  0.00000000000E+00 0. -1.
         23    2    1    2    0    0  0.35283557414E+03  0.33061640654E+03  0.16349128273E+04  0.17074394249E+04  0.92786238378E+02 0.  0.
        254    2    1    2    0    0 -0.35283557414E+03 -0.33061640654E+03  0.79490704846E+03  0.12931007355E+04  0.89801567122E+03 0.  0.
        -24    2    4    4    0    0  0.23981178063E+03 -0.31736004029E+03  0.21276422416E+03  0.45839116335E+03  0.81404903143E+02 0.  0.
         24    2    4    4    0    0 -0.59264735477E+03 -0.13256366252E+02  0.58214282430E+03  0.83470957213E+03  0.80269443487E+02 0.  0.
         11    1    3    3    0    0  0.33816524414E+03  0.29650252463E+03  0.15641587411E+04  0.16275325025E+04  0.00000000000E+00 0. -1.
        -11    1    3    3    0    0  0.14670329994E+02  0.34113881905E+02  0.70754086248E+02  0.79906922363E+02  0.00000000000E+00 0.  1.
          4    1    6    6  502    0 -0.37841705118E+03  0.26127527719E+02  0.34551891084E+03  0.51309397782E+03  0.00000000000E+00 0. -1.
          3    1    5    5  503    0  0.40270428395E+02 -0.11468466092E+03  0.60300698257E+02  0.13568512470E+03  0.00000000000E+00 0. -1.
         -4    1    5    5    0  503  0.19954135224E+03 -0.20267537937E+03  0.15246352590E+03  0.32270603866E+03  0.00000000000E+00 0.  1.
         -3    1    6    6    0  502 -0.21423030358E+03 -0.39383893971E+02  0.23662391346E+03  0.32161559430E+03  0.00000000000E+00 0.  1.
<mgrwt>
<rscale>  0 0.17604592E+04</rscale>
<asrwt>0</asrwt>
<pdfrwt beam="1">  1        2 0.41771999E+00 0.17604592E+04</pdfrwt>
<pdfrwt beam="2">  1       -2 0.43901562E-01 0.17604592E+04</pdfrwt>
<totfact> 0.12147378E+01</totfact>
</mgrwt>
</event>
<event>
12    1  0.1598876E-007  0.1229353E+04  0.7818608E-02  0.9087545E-01
         -1   -1    0    0    0  501 -0.00000000000E+00  0.00000000000E+00  0.89954386653E+03  0.89954386653E+03  0.00000000000E+00 0.  1.
          1   -1    0    0  501    0  0.00000000000E+00 -0.00000000000E+00 -0.42002093072E+03  0.42002093072E+03  0.00000000000E+00 0. -1.
         23    2    1    2    0    0 -0.56362092643E+02 -0.72922081603E+00  0.40001559226E+03  0.41410599789E+03  0.91071873739E+02 0.  0.
        254    2    1    2    0    0  0.56362092643E+02  0.72922081603E+00  0.79507343559E+02  0.90545879936E+03  0.90019831282E+03 0.  0.
        -24    2    4    4    0    0 -0.53631642314E+02 -0.43358691145E+03  0.12183146579E+02  0.44502522235E+03  0.83815610875E+02 0.  0.
         24    2    4    4    0    0  0.10999373496E+03  0.43431613227E+03  0.67324196980E+02  0.46043357701E+03  0.82081708455E+02 0.  0.
         11    1    3    3    0    0 -0.57457716020E+02 -0.25278799900E+02  0.37012647105E+03  0.37541178914E+03  0.00000000000E+00 0.  1.
        -11    1    3    3    0    0  0.10956233768E+01  0.24549579084E+02  0.29889121205E+02  0.38694208743E+02  0.00000000000E+00 0. -1.
          2    1    6    6  502    0  0.67548062940E+02  0.19183534302E+03 -0.63438711418E+01  0.20347919879E+03  0.00000000000E+00 0. -1.
          1    1    5    5  503    0 -0.23640873380E+02 -0.24738917601E+03 -0.34064695885E+02  0.25083998646E+03  0.00000000000E+00 0. -1.
         -2    1    5    5    0  503 -0.29990768934E+02 -0.18619773544E+03  0.46247842464E+02  0.19418523589E+03  0.00000000000E+00 0.  1.
         -1    1    6    6    0  502  0.42445672017E+02  0.24248078925E+03  0.73668068122E+02  0.25695437822E+03  0.00000000000E+00 0.  1.
<mgrwt>
<rscale>  0 0.12293531E+04</rscale>
<asrwt>0</asrwt>
<pdfrwt beam="1">  1        1 0.64618605E-01 0.12293531E+04</pdfrwt>
<pdfrwt beam="2">  1       -1 0.13839136E+00 0.12293531E+04</pdfrwt>
<totfact> 0.23982579E+01</totfact>
</mgrwt>
</event>
<event>
12    1  0.1598876E-007  0.2129968E+04  0.7818608E-02  0.8548156E-01
         -2   -1    0    0    0  501 -0.00000000000E+00  0.00000000000E+00  0.73493801133E+03  0.73493801133E+03  0.00000000000E+00 0.  1.
          2   -1    0    0  501    0  0.00000000000E+00 -0.00000000000E+00 -0.15432467142E+04  0.15432467142E+04  0.00000000000E+00 0. -1.
         23    2    1    2    0    0 -0.20045839598E+03  0.37777227753E+02 -0.12342995540E+04  0.12543435415E+04  0.90948576691E+02 0.  0.
        254    2    1    2    0    0  0.20045839598E+03 -0.37777227753E+02  0.42599085115E+03  0.10238411840E+04  0.90838971670E+03 0.  0.
        -24    2    4    4    0    0 -0.32616231971E+03  0.13492590916E+03  0.23943934266E+03  0.43380953127E+03  0.79200068468E+02 0.  0.
         24    2    4    4    0    0  0.52662071569E+03 -0.17270313691E+03  0.18655150849E+03  0.59003165276E+03  0.78613829858E+02 0.  0.
         13    1    3    3    0    0 -0.56473114470E+02  0.11429518341E+01 -0.60995545079E+03  0.61256523812E+03  0.00000000000E+00 0.  1.
        -13    1    3    3    0    0 -0.14398528151E+03  0.36634275919E+02 -0.62434410321E+03  0.64177830337E+03  0.00000000000E+00 0. -1.
          2    1    6    6  502    0  0.47139866120E+03 -0.12996385231E+03  0.15162270103E+03  0.51195384963E+03  0.00000000000E+00 0. -1.
          1    1    5    5  503    0 -0.30004650624E+03  0.97891557863E+02  0.21865542587E+03  0.38395423982E+03  0.00000000000E+00 0. -1.
         -2    1    5    5    0  503 -0.26115813470E+02  0.37034351293E+02  0.20783916785E+02  0.49855291453E+02  0.00000000000E+00 0.  1.
         -1    1    6    6    0  502  0.55222054499E+02 -0.42739284603E+02  0.34928807460E+02  0.78077803132E+02  0.00000000000E+00 0.  1.
<mgrwt>
<rscale>  0 0.21299678E+04</rscale>
<asrwt>0</asrwt>
<pdfrwt beam="1">  1        2 0.23742257E+00 0.21299678E+04</pdfrwt>
<pdfrwt beam="2">  1       -2 0.11306739E+00 0.21299678E+04</pdfrwt>
<totfact> 0.67806907E+00</totfact>
</mgrwt>
</event>
<event>
12    1  0.1598876E-007  0.2140391E+04  0.7818608E-02  0.8543657E-01
          2   -1    0    0  501    0  0.00000000000E+00  0.00000000000E+00  0.19883649921E+04  0.19883649921E+04  0.00000000000E+00 0. -1.
         -2   -1    0    0    0  501 -0.00000000000E+00 -0.00000000000E+00 -0.57601008115E+03  0.57601008115E+03  0.00000000000E+00 0.  1.
         23    2    1    2    0    0  0.22174714185E+03 -0.16660445490E+03  0.15736877295E+04  0.16003316261E+04  0.87403685744E+02 0.  0.
        254    2    1    2    0    0 -0.22174714185E+03  0.16660445490E+03 -0.16133281855E+03  0.96404344713E+03  0.90907791212E+03 0.  0.
        -24    2    4    4    0    0  0.64741189298E+02  0.19950328724E+03 -0.47737614723E+03  0.52773542140E+03  0.81386152624E+02 0.  0.
         24    2    4    4    0    0 -0.28648833115E+03 -0.32898832336E+02  0.31604332869E+03  0.43630802574E+03  0.85576928322E+02 0.  0.
         13    1    3    3    0    0  0.71070652733E+02 -0.19367320909E+02  0.57247501285E+03  0.57719474282E+03  0.00000000000E+00 0. -1.
        -13    1    3    3    0    0  0.15067648912E+03 -0.14723713399E+03  0.10012127166E+04  0.10231368833E+04  0.00000000000E+00 0.  1.
          2    1    6    6  502    0 -0.19870841166E+03 -0.16846115246E+02  0.27066553209E+03  0.33619734491E+03  0.00000000000E+00 0. -1.
          1    1    5    5  503    0  0.58499210022E+02  0.14814590640E+03 -0.42609298365E+03  0.45488965461E+03  0.00000000000E+00 0. -1.
         -2    1    5    5    0  503  0.62419792766E+01  0.51357380834E+02 -0.51283163586E+02  0.72845766787E+02  0.00000000000E+00 0.  1.
         -1    1    6    6    0  502 -0.87779919487E+02 -0.16052717090E+02  0.45377796595E+02  0.10011068082E+03  0.00000000000E+00 0.  1.
<mgrwt>
<rscale>  0 0.21403909E+04</rscale>
<asrwt>0</asrwt>
<pdfrwt beam="1">  1        2 0.30590230E+00 0.21403909E+04</pdfrwt>
<pdfrwt beam="2">  1       -2 0.88616936E-01 0.21403909E+04</pdfrwt>
<totfact> 0.68215374E+00</totfact>
</mgrwt>
</event>
<event>
12    1  0.1598876E-007  0.1708121E+04  0.7818608E-02  0.8756746E-01
         -2   -1    0    0    0  501 -0.00000000000E+00  0.00000000000E+00  0.68349959541E+03  0.68349959541E+03  0.00000000000E+00 0.  1.
          2   -1    0    0  501    0  0.00000000000E+00 -0.00000000000E+00 -0.10671827989E+04  0.10671827989E+04  0.00000000000E+00 0. -1.
         23    2    1    2    0    0  0.30578263988E+03  0.49128053836E+03  0.50814586749E+02  0.59006334081E+03  0.10360035580E+03 0.  0.
        254    2    1    2    0    0 -0.30578263988E+03 -0.49128053836E+03 -0.43449779025E+03  0.11606190535E+04  0.90740766329E+03 0.  0.
        -24    2    4    4    0    0 -0.45527583943E+03 -0.20014154485E+03 -0.60166277495E+03  0.78470350035E+03  0.80179553293E+02 0.  0.
         24    2    4    4    0    0  0.14949319955E+03 -0.29113899351E+03  0.16716498470E+03  0.37591555315E+03  0.79109043320E+02 0.  0.
         13    1    3    3    0    0  0.28510989219E+03  0.42858180963E+03  0.74099642792E+02  0.52005843444E+03  0.00000000000E+00 0.  1.
        -13    1    3    3    0    0  0.20672747692E+02  0.62698728734E+02 -0.23285056044E+02  0.70004906377E+02  0.00000000000E+00 0. -1.
          2    1    6    6  502    0  0.94870340445E+02 -0.23430110060E+03  0.15399439406E+03  0.29599266991E+03  0.00000000000E+00 0. -1.
          3    1    5    5  503    0 -0.38936125912E+03 -0.20022201934E+03 -0.52436799944E+03  0.68311993528E+03  0.00000000000E+00 0. -1.
         -4    1    5    5    0  503 -0.65914580308E+02  0.80474489832E-01 -0.77294775507E+02  0.10158356508E+03  0.00000000000E+00 0.  1.
         -1    1    6    6    0  502  0.54622859106E+02 -0.56837892916E+02  0.13170590640E+02  0.79922883243E+02  0.00000000000E+00 0.  1.
<mgrwt>
<rscale>  0 0.17081206E+04</rscale>
<asrwt>0</asrwt>
<pdfrwt beam="1">  1        2 0.16418197E+00 0.17081206E+04</pdfrwt>
<pdfrwt beam="2">  1       -2 0.10515378E+00 0.17081206E+04</pdfrwt>
<totfact> 0.15908287E+01</totfact>
</mgrwt>
</event>
<event>
12    1  0.1598876E-007  0.1406868E+04  0.7818608E-02  0.8948862E-01
          1   -1    0    0  501    0  0.00000000000E+00  0.00000000000E+00  0.60548225397E+03  0.60548225397E+03  0.00000000000E+00 0. -1.
         -1   -1    0    0    0  501 -0.00000000000E+00 -0.00000000000E+00 -0.81723207160E+03  0.81723207160E+03  0.00000000000E+00 0.  1.
         23    2    1    2    0    0 -0.11335893989E+03 -0.79164175723E+02 -0.44817518059E+03  0.47778139304E+03  0.91087052161E+02 0.  0.
        254    2    1    2    0    0  0.11335893989E+03  0.79164175723E+02  0.23642536296E+03  0.94493293253E+03  0.90436943709E+03 0.  0.
        -24    2    4    4    0    0 -0.38368315164E+03  0.11752603597E+03  0.12646284322E+03  0.42820145166E+03  0.79614712887E+02 0.  0.
         24    2    4    4    0    0  0.49704209153E+03 -0.38361860250E+02  0.10996251974E+03  0.51673148086E+03  0.79982463705E+02 0.  0.
         11    1    3    3    0    0 -0.49190345670E+02 -0.37587561847E+02 -0.76938247801E+02  0.98752260164E+02  0.00000000000E+00 0. -1.
        -11    1    3    3    0    0 -0.64168594220E+02 -0.41576613876E+02 -0.37123693279E+03  0.37902913288E+03  0.00000000000E+00 0.  1.
          4    1    6    6  502    0  0.10156222019E+02  0.41322977501E+01 -0.84638028326E+01  0.13851378588E+02  0.00000000000E+00 0. -1.
          3    1    5    5  503    0 -0.65745372439E+02 -0.71974565130E+01  0.75607975266E+01  0.66568934471E+02  0.00000000000E+00 0. -1.
         -4    1    5    5    0  503 -0.31793777920E+03  0.12472349249E+03  0.11890204570E+03  0.36163251719E+03  0.00000000000E+00 0.  1.
         -3    1    6    6    0  502  0.48688586951E+03 -0.42494158000E+02  0.11842632257E+03  0.50288010228E+03  0.00000000000E+00 0.  1.
<mgrwt>
<rscale>  0 0.14068682E+04</rscale>
<asrwt>0</asrwt>
<pdfrwt beam="1">  1        1 0.93151116E-01 0.14068682E+04</pdfrwt>
<pdfrwt beam="2">  1       -1 0.12572801E+00 0.14068682E+04</pdfrwt>
<totfact> 0.18174099E+01</totfact>
</mgrwt>
</event>
<event>
12    1  0.1598876E-007  0.1656444E+04  0.7818608E-02  0.8786603E-01
         -2   -1    0    0    0  501 -0.00000000000E+00  0.00000000000E+00  0.38207617914E+03  0.38207617914E+03  0.00000000000E+00 0.  1.
          2   -1    0    0  501    0  0.00000000000E+00 -0.00000000000E+00 -0.17953268458E+04  0.17953268458E+04  0.00000000000E+00 0. -1.
         23    2    1    2    0    0  0.21723322860E+03  0.10140882002E+03 -0.11849244752E+04  0.12126042451E+04  0.94281593988E+02 0.  0.
        254    2    1    2    0    0 -0.21723322860E+03 -0.10140882002E+03 -0.22832619140E+03  0.96479877977E+03  0.90621730914E+03 0.  0.
        -24    2    4    4    0    0 -0.12611573391E+03 -0.27348494307E+03  0.27732089281E+03  0.41723276525E+03  0.80480496914E+02 0.  0.
         24    2    4    4    0    0 -0.91117494688E+02  0.17207612305E+03 -0.50564708421E+03  0.54756601452E+03  0.78974530887E+02 0.  0.
         11    1    3    3    0    0  0.13770070339E+03  0.71951806257E+02 -0.95460253694E+03  0.96716314532E+03  0.00000000000E+00 0. -1.
        -11    1    3    3    0    0  0.79532525203E+02  0.29457013765E+02 -0.23032193829E+03  0.24544109982E+03  0.00000000000E+00 0.  1.
          4    1    6    6  502    0 -0.90660488990E+02  0.89093154597E+02 -0.30994898312E+03  0.33500042775E+03  0.00000000000E+00 0. -1.
          3    1    5    5  503    0 -0.31296196932E+02 -0.19655574262E+02  0.14354624687E+02  0.39646548297E+02  0.00000000000E+00 0. -1.
         -4    1    5    5    0  503 -0.94819536976E+02 -0.25382936881E+03  0.26296626812E+03  0.37758621695E+03  0.00000000000E+00 0.  1.
         -3    1    6    6    0  502 -0.45700569841E+00  0.82982968450E+02 -0.19569810110E+03  0.21256558677E+03  0.00000000000E+00 0.  1.
<mgrwt>
<rscale>  0 0.16564439E+04</rscale>
<asrwt>0</asrwt>
<pdfrwt beam="1">  1        2 0.27620413E+00 0.16564439E+04</pdfrwt>
<pdfrwt beam="2">  1       -2 0.58780951E-01 0.16564439E+04</pdfrwt>
<totfact> 0.22415008E+01</totfact>
</mgrwt>
</event>
<event>
12    1  0.1916525E-007  0.1382109E+04  0.7818608E-02  0.8966872E-01
          2   -1    0    0  501    0  0.00000000000E+00  0.00000000000E+00  0.64355654257E+03  0.64355654257E+03  0.00000000000E+00 0. -1.
         -2   -1    0    0    0  501 -0.00000000000E+00 -0.00000000000E+00 -0.74205762455E+03  0.74205762455E+03  0.00000000000E+00 0.  1.
         23    2    1    2    0    0 -0.34858569131E+02  0.17607538081E+02  0.35341417780E+03  0.36720636174E+03  0.91726690760E+02 0.  0.
        254    2    1    2    0    0  0.34858569131E+02 -0.17607538081E+02 -0.45191525978E+03  0.10184078054E+04  0.91181243180E+03 0.  0.
        -24    2    4    4    0    0 -0.41670921713E+03 -0.10312783031E+03 -0.29377638978E+03  0.52631008008E+03  0.80098765158E+02 0.  0.
         24    2    4    4    0    0  0.45156778626E+03  0.85520292226E+02 -0.15813886999E+03  0.49209772529E+03  0.76974561136E+02 0.  0.
         13    1    3    3    0    0 -0.27684568462E+02  0.47573845395E+02  0.30421624969E+03  0.30915567708E+03  0.00000000000E+00 0. -1.
        -13    1    3    3    0    0 -0.71740006695E+01 -0.29966307314E+02  0.49197928107E+02  0.58050684662E+02  0.00000000000E+00 0.  1.
          2    1    6    6  502    0  0.44085095849E+03  0.70077009959E+02 -0.15726968130E+03  0.47328015760E+03  0.00000000000E+00 0. -1.
          1    1    5    5  503    0 -0.34277119318E+03 -0.89045557403E+02 -0.20232591689E+03  0.40786882550E+03  0.00000000000E+00 0. -1.
         -2    1    5    5    0  503 -0.73938023945E+02 -0.14082272904E+02 -0.91450472889E+02  0.11844125458E+03  0.00000000000E+00 0.  1.
         -1    1    6    6    0  502  0.10716827771E+02  0.15443282267E+02 -0.86918869755E+00  0.18817567686E+02  0.00000000000E+00 0.  1.
<mgrwt>
<rscale>  0 0.13821086E+04</rscale>
<asrwt>0</asrwt>
<pdfrwt beam="1">  1        2 0.99008698E-01 0.13821086E+04</pdfrwt>
<pdfrwt beam="2">  1       -2 0.11416271E+00 0.13821086E+04</pdfrwt>
<totfact> 0.26627766E+01</totfact>
</mgrwt>
</event>
<event>
12    1  0.1598876E-007  0.1124931E+04  0.7818608E-02  0.9181227E-01
          2   -1    0    0  501    0  0.00000000000E+00  0.00000000000E+00  0.10260683444E+04  0.10260683444E+04  0.00000000000E+00 0. -1.
         -2   -1    0    0    0  501 -0.00000000000E+00 -0.00000000000E+00 -0.30833002799E+03  0.30833002799E+03  0.00000000000E+00 0.  1.
         23    2    1    2    0    0 -0.65285482174E+01 -0.85715610442E+02 -0.50056648820E+02  0.14159671324E+03  0.10076791798E+03 0.  0.
        254    2    1    2    0    0  0.65285482174E+01  0.85715610442E+02  0.76779496520E+03  0.11928016591E+04  0.90877769648E+03 0.  0.
        -24    2    4    4    0    0 -0.28665760442E+03  0.34717593867E+03  0.60875199167E+03  0.76133883906E+03  0.79712771443E+02 0.  0.
         24    2    4    4    0    0  0.29318615264E+03 -0.26146032823E+03  0.15904297353E+03  0.43146282007E+03  0.80906577820E+02 0.  0.
         13    1    3    3    0    0 -0.44437580498E+02 -0.82961330717E+02 -0.31068372431E+02  0.99108651087E+02  0.00000000000E+00 0.  1.
        -13    1    3    3    0    0  0.37909032280E+02 -0.27542797254E+01 -0.18988276389E+02  0.42488062152E+02  0.00000000000E+00 0. -1.
          4    1    6    6  502    0  0.37905686590E+02 -0.97536122243E+01 -0.30424184872E+00  0.39141622224E+02  0.00000000000E+00 0. -1.
          1    1    5    5  503    0 -0.65922496226E+01 -0.37996829482E+01  0.58386818054E+01  0.95909098014E+01  0.00000000000E+00 0. -1.
         -2    1    5    5    0  503 -0.28006535480E+03  0.35097562162E+03  0.60291330987E+03  0.75174792926E+03  0.00000000000E+00 0.  1.
         -3    1    6    6    0  502  0.25528046605E+03 -0.25170671600E+03  0.15934721538E+03  0.39232119784E+03  0.00000000000E+00 0.  1.
<mgrwt>
<rscale>  0 0.11249314E+04</rscale>
<asrwt>0</asrwt>
<pdfrwt beam="1">  1        2 0.15785667E+00 0.11249314E+04</pdfrwt>
<pdfrwt beam="2">  1       -2 0.47435389E-01 0.11249314E+04</pdfrwt>
<totfact> 0.10117854E+02</totfact>
</mgrwt>
</event>
<event>
12    1  0.1598876E-007  0.1619609E+04  0.7818608E-02  0.8808591E-01
         -1   -1    0    0    0  501 -0.00000000000E+00  0.00000000000E+00  0.70132780711E+03  0.70132780711E+03  0.00000000000E+00 0.  1.
          1   -1    0    0  501    0  0.00000000000E+00 -0.00000000000E+00 -0.93506019779E+03  0.93506019779E+03  0.00000000000E+00 0. -1.
         23    2    1    2    0    0 -0.98666640145E+02 -0.25237557497E+03 -0.57106669173E+03  0.64000981654E+03  0.10033375382E+03 0.  0.
        254    2    1    2    0    0  0.98666640145E+02  0.25237557497E+03  0.33733430104E+03  0.99637818835E+03  0.89752243807E+03 0.  0.
        -24    2    4    4    0    0  0.48534314542E+03  0.58852283737E+02  0.20327162397E+03  0.53567842238E+03  0.81304729160E+02 0.  0.
         24    2    4    4    0    0 -0.38667650528E+03  0.19352329123E+03  0.13406267707E+03  0.46069976597E+03  0.85448750720E+02 0.  0.
         13    1    3    3    0    0 -0.90339565176E+02 -0.22138420616E+03 -0.55458459148E+03  0.60393399713E+03  0.00000000000E+00 0. -1.
        -13    1    3    3    0    0 -0.83270749696E+01 -0.30991368811E+02 -0.16482100243E+02  0.36075819419E+02  0.00000000000E+00 0.  1.
          2    1    6    6  502    0 -0.30589100888E+03  0.17569719445E+03  0.79524761077E+02  0.36161167166E+03  0.00000000000E+00 0. -1.
          1    1    5    5  503    0  0.33398269542E+03  0.72096228872E+02  0.11819152845E+03  0.36154051565E+03  0.00000000000E+00 0. -1.
         -2    1    5    5    0  503  0.15136045000E+03 -0.13243945135E+02  0.85080095520E+02  0.17413790673E+03  0.00000000000E+00 0.  1.
         -1    1    6    6    0  502 -0.80785496392E+02  0.17826096781E+02  0.54537915992E+02  0.99088094312E+02  0.00000000000E+00 0.  1.
<mgrwt>
<rscale>  0 0.16196095E+04</rscale>
<asrwt>0</asrwt>
<pdfrwt beam="1">  1        1 0.14385542E+00 0.16196095E+04</pdfrwt>
<pdfrwt beam="2">  1       -1 0.10789659E+00 0.16196095E+04</pdfrwt>
<totfact> 0.13042088E+01</totfact>
</mgrwt>
</event>
<event>
12    1  0.1598876E-007  0.1602458E+04  0.7818608E-02  0.8819040E-01
         -1   -1    0    0    0  501 -0.00000000000E+00  0.00000000000E+00  0.98447758866E+03  0.98447758866E+03  0.00000000000E+00 0.  1.
          1   -1    0    0  501    0  0.00000000000E+00 -0.00000000000E+00 -0.65208967068E+03  0.65208967068E+03  0.00000000000E+00 0. -1.
         23    2    1    2    0    0 -0.41857834377E+02  0.28146576486E+03  0.58632906909E+03  0.65815669283E+03  0.91724587568E+02 0.  0.
        254    2    1    2    0    0  0.41857834377E+02 -0.28146576486E+03 -0.25394115111E+03  0.97841056652E+03  0.90101391407E+03 0.  0.
        -24    2    4    4    0    0  0.31147535887E+03 -0.37928265791E+03 -0.40813352559E+03  0.64336862603E+03  0.80485902357E+02 0.  0.
         24    2    4    4    0    0 -0.26961752449E+03  0.97816893052E+02  0.15419237448E+03  0.33504194048E+03  0.78841990431E+02 0.  0.
         13    1    3    3    0    0 -0.47827277362E+02  0.24459978284E+03  0.42613939608E+03  0.49367123384E+03  0.00000000000E+00 0.  1.
        -13    1    3    3    0    0  0.59694429850E+01  0.36865982018E+02  0.16018967301E+03  0.16448545899E+03  0.00000000000E+00 0. -1.
          4    1    6    6  502    0 -0.25064249972E+03  0.10957993862E+03  0.15108969096E+03  0.31250203252E+03  0.00000000000E+00 0. -1.
          3    1    5    5  503    0  0.27978562461E+03 -0.36479175359E+03 -0.39504285595E+03  0.60614509588E+03  0.00000000000E+00 0. -1.
         -4    1    5    5    0  503  0.31689734257E+02 -0.14490904328E+02 -0.13090669645E+02  0.37223530156E+02  0.00000000000E+00 0.  1.
         -3    1    6    6    0  502 -0.18975024769E+02 -0.11763045564E+02  0.31026835187E+01  0.22539907963E+02  0.00000000000E+00 0.  1.
<mgrwt>
<rscale>  0 0.16024577E+04</rscale>
<asrwt>0</asrwt>
<pdfrwt beam="1">  1        1 0.10032149E+00 0.16024577E+04</pdfrwt>
<pdfrwt beam="2">  1       -1 0.15145809E+00 0.16024577E+04</pdfrwt>
<totfact> 0.98842021E+00</totfact>
</mgrwt>
</event>
<event>
12    1  0.1623522E-007  0.1677849E+04  0.7818608E-02  0.8774100E-01
         -2   -1    0    0    0  501 -0.00000000000E+00  0.00000000000E+00  0.49491316927E+03  0.49491316927E+03  0.00000000000E+00 0.  1.
          2   -1    0    0  501    0  0.00000000000E+00 -0.00000000000E+00 -0.14220557473E+04  0.14220557473E+04  0.00000000000E+00 0. -1.
         23    2    1    2    0    0  0.12952551165E+03 -0.43433739395E+03  0.10487395708E+03  0.47416930255E+03  0.91717777199E+02 0.  0.
        254    2    1    2    0    0 -0.12952551165E+03  0.43433739395E+03 -0.10320165351E+04  0.14427996140E+04  0.90065907395E+03 0.  0.
        -24    2    4    4    0    0  0.18032142614E+03 -0.32931389719E+02  0.63022618836E+02  0.20992609845E+03  0.80602873222E+02 0.  0.
         24    2    4    4    0    0 -0.30984693779E+03  0.46726878367E+03 -0.10950391539E+04  0.12328735155E+04  0.80753425050E+02 0.  0.
         13    1    3    3    0    0  0.65879304051E+02 -0.28190867904E+03  0.24694578783E+02  0.29055534454E+03  0.00000000000E+00 0. -1.
        -13    1    3    3    0    0  0.63646207598E+02 -0.15242871491E+03  0.80179378299E+02  0.18361395801E+03  0.00000000000E+00 0.  1.
          2    1    6    6  502    0  0.12030103974E+01  0.27182039027E+02 -0.62196699769E+02  0.67887700962E+02  0.00000000000E+00 0. -1.
          1    1    5    5  503    0 -0.83875577365E+01 -0.17406088051E+01  0.55564615800E+01  0.10210539118E+02  0.00000000000E+00 0. -1.
         -2    1    5    5    0  503  0.18870898387E+03 -0.31190780913E+02  0.57466157256E+02  0.19971555933E+03  0.00000000000E+00 0.  1.
         -1    1    6    6    0  502 -0.31104994818E+03  0.44008674465E+03 -0.10328424542E+04  0.11649858146E+04  0.00000000000E+00 0.  1.
<mgrwt>
<rscale>  0 0.16778488E+04</rscale>
<asrwt>0</asrwt>
<pdfrwt beam="1">  1        2 0.21877780E+00 0.16778488E+04</pdfrwt>
<pdfrwt beam="2">  1       -2 0.76140488E-01 0.16778488E+04</pdfrwt>
<totfact> 0.20688673E+01</totfact>
</mgrwt>
</event>
<event>
12    1  0.1598876E-007  0.1413581E+04  0.7818608E-02  0.8944046E-01
         -1   -1    0    0    0  501 -0.00000000000E+00  0.00000000000E+00  0.42905787439E+03  0.42905787439E+03  0.00000000000E+00 0.  1.
          1   -1    0    0  501    0  0.00000000000E+00 -0.00000000000E+00 -0.11643020346E+04  0.11643020346E+04  0.00000000000E+00 0. -1.
         23    2    1    2    0    0  0.11676039631E+03  0.31605661578E+03 -0.47144399106E+03  0.58690040025E+03  0.93101388727E+02 0.  0.
        254    2    1    2    0    0 -0.11676039631E+03 -0.31605661578E+03 -0.26380016920E+03  0.10064595088E+04  0.91095852761E+03 0.  0.
        -24    2    4    4    0    0  0.97574903491E+02  0.28674693053E+03 -0.16070696681E+03  0.35354761009E+03  0.86165651293E+02 0.  0.
         24    2    4    4    0    0 -0.21433529980E+03 -0.60280354631E+03 -0.10309320238E+03  0.65291189869E+03  0.79711999681E+02 0.  0.
         13    1    3    3    0    0  0.13016052088E+03  0.30314280114E+03 -0.45533018359E+03  0.56228364299E+03  0.00000000000E+00 0. -1.
        -13    1    3    3    0    0 -0.13400124574E+02  0.12913814636E+02 -0.16113807475E+02  0.24616757268E+02  0.00000000000E+00 0.  1.
          2    1    6    6  502    0 -0.21850277074E+03 -0.58521396202E+03 -0.10853576412E+03  0.63403379583E+03  0.00000000000E+00 0. -1.
          3    1    5    5  503    0  0.84288216151E+02  0.18192371085E+03 -0.14333686372E+03  0.24646743487E+03  0.00000000000E+00 0. -1.
         -4    1    5    5    0  503  0.13286687340E+02  0.10482321968E+03 -0.17370103092E+02  0.10708017522E+03  0.00000000000E+00 0.  1.
         -3    1    6    6    0  502  0.41674709338E+01 -0.17589584282E+02  0.54425617354E+01  0.18878102856E+02  0.00000000000E+00 0.  1.
<mgrwt>
<rscale>  0 0.14135812E+04</rscale>
<asrwt>0</asrwt>
<pdfrwt beam="1">  1        1 0.17912338E+00 0.14135812E+04</pdfrwt>
<pdfrwt beam="2">  1       -1 0.66008906E-01 0.14135812E+04</pdfrwt>
<totfact> 0.25720158E+01</totfact>
</mgrwt>
</event>
<event>
12    1  0.1598876E-007  0.2534036E+04  0.7818608E-02  0.8390960E-01
          2   -1    0    0  501    0  0.00000000000E+00  0.00000000000E+00  0.11861169911E+04  0.11861169911E+04  0.00000000000E+00 0.  1.
         -2   -1    0    0    0  501 -0.00000000000E+00 -0.00000000000E+00 -0.13534366992E+04  0.13534366992E+04  0.00000000000E+00 0. -1.
         23    2    1    2    0    0 -0.10914174227E+04 -0.10898473154E+03 -0.17793219179E+03  0.11164919749E+04  0.10874190981E+03 0.  0.
        254    2    1    2    0    0  0.10914174227E+04  0.10898473154E+03  0.10612483680E+02  0.14230617154E+04  0.90659933758E+03 0.  0.
        -24    2    4    4    0    0 -0.55781958388E+02 -0.57829076426E+02 -0.21174366930E+03  0.23991242641E+03  0.79162882052E+02 0.  0.
         24    2    4    4    0    0  0.11471993811E+04  0.16681380796E+03  0.22235615298E+03  0.11831492890E+04  0.80664210913E+02 0.  0.
         13    1    3    3    0    0 -0.54030042709E+03 -0.50666736882E+02 -0.14301270515E+03  0.56119898750E+03  0.00000000000E+00 0.  1.
        -13    1    3    3    0    0 -0.55111699559E+03 -0.58317994655E+02 -0.34919486640E+02  0.55529298742E+03  0.00000000000E+00 0. -1.
          2    1    6    6  502    0  0.33037722328E+03  0.44038120117E+02  0.10112344208E+03  0.34830219096E+03  0.00000000000E+00 0. -1.
          1    1    5    5  503    0 -0.25716976258E+02 -0.62039860733E+02 -0.19271871960E+03  0.20408530587E+03  0.00000000000E+00 0. -1.
         -2    1    5    5    0  503 -0.30064982130E+02  0.42107843070E+01 -0.19024949697E+02  0.35827120536E+02  0.00000000000E+00 0.  1.
         -1    1    6    6    0  502  0.81682215778E+03  0.12277568784E+03  0.12123271090E+03  0.83484709808E+03  0.00000000000E+00 0.  1.
<mgrwt>
<rscale>  0 0.25340357E+04</rscale>
<asrwt>0</asrwt>
<pdfrwt beam="1">  1        2 0.18247954E+00 0.25340357E+04</pdfrwt>
<pdfrwt beam="2">  1       -2 0.20822103E+00 0.25340357E+04</pdfrwt>
<totfact> 0.20188507E+00</totfact>
</mgrwt>
</event>
<event>
12    1  0.1598876E-007  0.1717789E+04  0.7818608E-02  0.8751283E-01
          1   -1    0    0  501    0  0.00000000000E+00  0.00000000000E+00  0.22663022647E+04  0.22663022647E+04  0.00000000000E+00 0. -1.
         -1   -1    0    0    0  501 -0.00000000000E+00 -0.00000000000E+00 -0.32550829661E+03  0.32550829661E+03  0.00000000000E+00 0.  1.
         23    2    1    2    0    0 -0.32854131073E+03  0.51902693222E+03  0.74340431352E+03  0.96853682628E+03  0.89918080899E+02 0.  0.
        254    2    1    2    0    0  0.32854131073E+03 -0.51902693222E+03  0.11973896545E+04  0.16232737350E+04  0.90771542053E+03 0.  0.
        -24    2    4    4    0    0  0.26042150925E+03 -0.54951788449E+03  0.13221167740E+04  0.14571810201E+04  0.74796347289E+02 0.  0.
         24    2    4    4    0    0  0.68119801483E+02  0.30490952268E+02 -0.12472711944E+03  0.16609271485E+03  0.80373690220E+02 0.  0.
         13    1    3    3    0    0 -0.10773063698E+03  0.14957671417E+03  0.16376620502E+03  0.24657342410E+03  0.00000000000E+00 0. -1.
        -13    1    3    3    0    0 -0.22081067375E+03  0.36945021805E+03  0.57963810850E+03  0.72196340218E+03  0.00000000000E+00 0.  1.
          2    1    6    6  502    0  0.79307304181E+01 -0.23503483835E+02 -0.50800949643E+02  0.56533589325E+02  0.00000000000E+00 0. -1.
          3    1    5    5  503    0  0.53112941617E+02 -0.15208778594E+03  0.28579969299E+03  0.32807490565E+03  0.00000000000E+00 0. -1.
         -4    1    5    5    0  503  0.20730856763E+03 -0.39743009855E+03  0.10363170810E+04  0.11291061145E+04  0.00000000000E+00 0.  1.
         -1    1    6    6    0  502  0.60189071065E+02  0.53994436104E+02 -0.73926169794E+02  0.10955912553E+03  0.00000000000E+00 0.  1.
<mgrwt>
<rscale>  0 0.17177895E+04</rscale>
<asrwt>0</asrwt>
<pdfrwt beam="1">  1        1 0.34866188E+00 0.17177895E+04</pdfrwt>
<pdfrwt beam="2">  1       -1 0.50078201E-01 0.17177895E+04</pdfrwt>
<totfact> 0.74691718E+00</totfact>
</mgrwt>
</event>
<event>
12    1  0.1598876E-007  0.3025428E+04  0.7818608E-02  0.8236507E-01
         -2   -1    0    0    0  501 -0.00000000000E+00  0.00000000000E+00  0.13534513682E+04  0.13534513682E+04  0.00000000000E+00 0.  1.
          2   -1    0    0  501    0  0.00000000000E+00 -0.00000000000E+00 -0.16907172361E+04  0.16907172361E+04  0.00000000000E+00 0. -1.
         23    2    1    2    0    0  0.58510016167E+03 -0.10548460695E+04 -0.82468985368E+03  0.14635090700E+04  0.81871934661E+02 0.  0.
        254    2    1    2    0    0 -0.58510016167E+03  0.10548460695E+04  0.48742398572E+03  0.15806595343E+04  0.89769704914E+03 0.  0.
        -24    2    4    4    0    0 -0.80417835643E+03  0.83516255285E+03  0.48723537410E+03  0.12602291369E+04  0.81116268754E+02 0.  0.
         24    2    4    4    0    0  0.21907819476E+03  0.21968351662E+03  0.18861162036E+00  0.32043039740E+03  0.80121789248E+02 0.  0.
         13    1    3    3    0    0  0.57784775083E+03 -0.10135341452E+04 -0.80268516624E+03  0.14161436942E+04  0.00000000000E+00 0. -1.
        -13    1    3    3    0    0  0.72524108361E+01 -0.41311924259E+02 -0.22004687438E+02  0.47365375731E+02  0.00000000000E+00 0.  1.
          2    1    6    6  502    0  0.84496592934E+02  0.81627401151E+02  0.38949516449E+02  0.12377306520E+03  0.00000000000E+00 0. -1.
          1    1    5    5  503    0 -0.19972467691E+03  0.17260840537E+03  0.13707466098E+03  0.29744423150E+03  0.00000000000E+00 0. -1.
         -2    1    5    5    0  503 -0.60445367952E+03  0.66255414748E+03  0.35016071312E+03  0.96278490539E+03  0.00000000000E+00 0.  1.
         -1    1    6    6    0  502  0.13458160182E+03  0.13805611547E+03 -0.38760904829E+02  0.19665733221E+03  0.00000000000E+00 0.  1.
<mgrwt>
<rscale>  0 0.30254279E+04</rscale>
<asrwt>0</asrwt>
<pdfrwt beam="1">  1        2 0.26011034E+00 0.30254279E+04</pdfrwt>
<pdfrwt beam="2">  1       -2 0.20822329E+00 0.30254279E+04</pdfrwt>
<totfact> 0.99681796E-01</totfact>
</mgrwt>
</event>
<event>
12    1  0.1598876E-007  0.1303868E+04  0.7818608E-02  0.9026504E-01
         -2   -1    0    0    0  501 -0.00000000000E+00  0.00000000000E+00  0.46098520857E+03  0.46098520857E+03  0.00000000000E+00 0.  1.
          2   -1    0    0  501    0  0.00000000000E+00 -0.00000000000E+00 -0.92197697564E+03  0.92197697564E+03  0.00000000000E+00 0. -1.
         23    2    1    2    0    0 -0.12485606068E+03  0.86928993280E+02  0.17639615810E+03  0.25002009105E+03  0.90822660040E+02 0.  0.
        254    2    1    2    0    0  0.12485606068E+03 -0.86928993280E+02 -0.63738792517E+03  0.11329420932E+04  0.92420167364E+03 0.  0.
        -24    2    4    4    0    0 -0.23097090376E+03  0.21429227703E+03  0.17352464409E+02  0.32523684756E+03  0.78798227167E+02 0.  0.
         24    2    4    4    0    0  0.35582696444E+03 -0.30122127031E+03 -0.65474038957E+03  0.80770524561E+03  0.79722667603E+02 0.  0.
         13    1    3    3    0    0 -0.11690853143E+03  0.98943460268E+02  0.12824506288E+03  0.19976037947E+03  0.00000000000E+00 0.  1.
        -13    1    3    3    0    0 -0.79475292507E+01 -0.12014466989E+02  0.48151095215E+02  0.50259711585E+02  0.00000000000E+00 0. -1.
          4    1    6    6  502    0  0.11036768137E+03 -0.98786372082E+02 -0.27446939633E+03  0.31188655297E+03  0.00000000000E+00 0. -1.
          1    1    5    5  503    0 -0.14715479040E+03  0.17566151661E+03  0.33357824980E+02  0.23156909389E+03  0.00000000000E+00 0. -1.
         -2    1    5    5    0  503 -0.83816113364E+02  0.38630760420E+02 -0.16005360571E+02  0.93667753668E+02  0.00000000000E+00 0.  1.
         -3    1    6    6    0  502  0.24545928308E+03 -0.20243489823E+03 -0.38027099324E+03  0.49581869264E+03  0.00000000000E+00 0.  1.
<mgrwt>
<rscale>  0 0.13038677E+04</rscale>
<asrwt>0</asrwt>
<pdfrwt beam="1">  1        2 0.14184261E+00 0.13038677E+04</pdfrwt>
<pdfrwt beam="2">  1       -2 0.70920801E-01 0.13038677E+04</pdfrwt>
<totfact> 0.50181493E+01</totfact>
</mgrwt>
</event>
<event>
12    1  0.1598876E-007  0.1019879E+04  0.7818608E-02  0.9287006E-01
         -1   -1    0    0    0  501 -0.00000000000E+00  0.00000000000E+00  0.32158723413E+03  0.32158723413E+03  0.00000000000E+00 0.  1.
          1   -1    0    0  501    0  0.00000000000E+00 -0.00000000000E+00 -0.80860937591E+03  0.80860937591E+03  0.00000000000E+00 0. -1.
         23    2    1    2    0    0  0.33427505629E+02 -0.26171739106E+02  0.29038737988E+02  0.10244626535E+03  0.88598142872E+02 0.  0.
        254    2    1    2    0    0 -0.33427505629E+02  0.26171739106E+02 -0.51606087977E+03  0.10277503447E+04  0.88777788963E+03 0.  0.
        -24    2    4    4    0    0  0.14204573183E+03  0.41495998191E+03 -0.33539957713E+03  0.55796468806E+03  0.80392414209E+02 0.  0.
         24    2    4    4    0    0 -0.17547323746E+03 -0.38878824281E+03 -0.18066130264E+03  0.46978565662E+03  0.78185050260E+02 0.  0.
         11    1    3    3    0    0  0.34789537629E+02 -0.13532213163E+02 -0.26301897894E+02  0.45664237148E+02  0.00000000000E+00 0. -1.
        -11    1    3    3    0    0 -0.13620320006E+01 -0.12639525943E+02  0.55340635882E+02  0.56782028205E+02  0.00000000000E+00 0.  1.
          2    1    6    6  502    0 -0.60947744069E+02 -0.21185355321E+03 -0.11724992372E+03  0.24968800558E+03  0.00000000000E+00 0. -1.
          3    1    5    5  503    0  0.12230415929E+03  0.40394767017E+03 -0.32676202267E+03  0.53376534832E+03  0.00000000000E+00 0. -1.
         -4    1    5    5    0  503  0.19741572548E+02  0.11012311743E+02 -0.86375544628E+01  0.24199339736E+02  0.00000000000E+00 0.  1.
         -1    1    6    6    0  502 -0.11452549339E+03 -0.17693468959E+03 -0.63411378919E+02  0.22009765104E+03  0.00000000000E+00 0.  1.
<mgrwt>
<rscale>  0 0.10198793E+04</rscale>
<asrwt>0</asrwt>
<pdfrwt beam="1">  1        1 0.12440144E+00 0.10198793E+04</pdfrwt>
<pdfrwt beam="2">  1       -1 0.49474959E-01 0.10198793E+04</pdfrwt>
<totfact> 0.89093484E+01</totfact>
</mgrwt>
</event>
<event>
12    1  0.1598876E-007  0.2479855E+04  0.7818608E-02  0.8410197E-01
          2   -1    0    0  501    0  0.00000000000E+00  0.00000000000E+00  0.33607559918E+04  0.33607559918E+04  0.00000000000E+00 0.  1.
         -2   -1    0    0    0  501 -0.00000000000E+00 -0.00000000000E+00 -0.45746274496E+03  0.45746274496E+03  0.00000000000E+00 0. -1.
         23    2    1    2    0    0 -0.41727963131E+03  0.93168471256E+03  0.18625146232E+04  0.21257943257E+04  0.88781187897E+02 0.  0.
        254    2    1    2    0    0  0.41727963131E+03 -0.93168471256E+03  0.10407786236E+04  0.16924244110E+04  0.85960546141E+03 0.  0.
        -24    2    4    4    0    0 -0.74839048207E+02  0.42149031422E+01  0.48160001616E+03  0.49357766726E+03  0.77856852715E+02 0.  0.
         24    2    4    4    0    0  0.49211867951E+03 -0.93589961570E+03  0.55917860746E+03  0.11988467437E+04  0.80398473592E+02 0.  0.
         11    1    3    3    0    0 -0.38383650207E+03  0.78313757363E+03  0.15668034461E+04  0.17931837491E+04  0.00000000000E+00 0.  1.
        -11    1    3    3    0    0 -0.33443129233E+02  0.14854713893E+03  0.29571117715E+03  0.33261057660E+03  0.00000000000E+00 0. -1.
          2    1    6    6  502    0  0.27846160101E+03 -0.59303647261E+03  0.37460992421E+03  0.75469577738E+03  0.00000000000E+00 0. -1.
          1    1    5    5  503    0 -0.12933090324E+02  0.27416233858E+02  0.64469016144E+02  0.71240218605E+02  0.00000000000E+00 0. -1.
         -2    1    5    5    0  503 -0.61905957883E+02 -0.23201330716E+02  0.41713100001E+03  0.42233744866E+03  0.00000000000E+00 0.  1.
         -3    1    6    6    0  502  0.21365707851E+03 -0.34286314309E+03  0.18456868325E+03  0.44415096636E+03  0.00000000000E+00 0.  1.
<mgrwt>
<rscale>  0 0.24798554E+04</rscale>
<asrwt>0</asrwt>
<pdfrwt beam="1">  1        2 0.51703937E+00 0.24798554E+04</pdfrwt>
<pdfrwt beam="2">  1       -2 0.70378886E-01 0.24798554E+04</pdfrwt>
<totfact> 0.16655819E+00</totfact>
</mgrwt>
</event>
<event>
12    1  0.1598876E-007  0.1546703E+04  0.7818608E-02  0.8853977E-01
          2   -1    0    0  501    0  0.00000000000E+00  0.00000000000E+00  0.77390111285E+03  0.77390111285E+03  0.00000000000E+00 0. -1.
         -2   -1    0    0    0  501 -0.00000000000E+00 -0.00000000000E+00 -0.77280184559E+03  0.77280184559E+03  0.00000000000E+00 0.  1.
         23    2    1    2    0    0 -0.19296707869E+03 -0.37680907823E+03  0.34586913403E+03  0.55434023893E+03  0.91903578380E+02 0.  0.
        254    2    1    2    0    0  0.19296707869E+03  0.37680907823E+03 -0.34476986677E+03  0.99236271952E+03  0.82867130466E+03 0.  0.
        -24    2    4    4    0    0 -0.18912279998E+02  0.57843373275E+03 -0.79735797873E+02  0.58960396317E+03  0.79572472636E+02 0.  0.
         24    2    4    4    0    0  0.21187935868E+03 -0.20162465452E+03 -0.26503406890E+03  0.40275875635E+03  0.80163546530E+02 0.  0.
         13    1    3    3    0    0 -0.84809357434E+02 -0.12471128126E+03  0.73510241189E+02  0.16777749057E+03  0.00000000000E+00 0.  1.
        -13    1    3    3    0    0 -0.10815772125E+03 -0.25209779697E+03  0.27235889284E+03  0.38656274835E+03  0.00000000000E+00 0. -1.
          2    1    6    6  502    0  0.21547202631E+03 -0.18123629422E+03 -0.23775550061E+03  0.36851386206E+03  0.00000000000E+00 0. -1.
          3    1    5    5  503    0 -0.46051879750E+02  0.45253149786E+03 -0.51736403265E+02  0.45780147183E+03  0.00000000000E+00 0. -1.
         -4    1    5    5    0  503  0.27139599751E+02  0.12590223489E+03 -0.27999394608E+02  0.13180249134E+03  0.00000000000E+00 0.  1.
         -1    1    6    6    0  502 -0.35926676282E+01 -0.20388360303E+02 -0.27278568293E+02  0.34244894286E+02  0.00000000000E+00 0.  1.
<mgrwt>
<rscale>  0 0.15467026E+04</rscale>
<asrwt>0</asrwt>
<pdfrwt beam="1">  1        2 0.11906171E+00 0.15467026E+04</pdfrwt>
<pdfrwt beam="2">  1       -2 0.11889259E+00 0.15467026E+04</pdfrwt>
<totfact> 0.18829374E+01</totfact>
</mgrwt>
</event>
<event>
12    1  0.1598876E-007  0.1239978E+04  0.7818608E-02  0.9078566E-01
          1   -1    0    0  501    0  0.00000000000E+00  0.00000000000E+00  0.81159643532E+03  0.81159643532E+03  0.00000000000E+00 0. -1.
         -1   -1    0    0    0  501 -0.00000000000E+00 -0.00000000000E+00 -0.47361759369E+03  0.47361759369E+03  0.00000000000E+00 0.  1.
         23    2    1    2    0    0  0.20201158385E+03  0.10251740464E+03 -0.78285576611E+02  0.25630023681E+03  0.90789215318E+02 0.  0.
        254    2    1    2    0    0 -0.20201158385E+03 -0.10251740464E+03  0.41626441824E+03  0.10289137922E+04  0.91327379663E+03 0.  0.
        -24    2    4    4    0    0 -0.27712364521E+03  0.14697773803E+03  0.61256042048E+03  0.69288912086E+03  0.80405813571E+02 0.  0.
         24    2    4    4    0    0  0.75112061353E+02 -0.24949514267E+03 -0.19629600224E+03  0.33602467134E+03  0.80565571292E+02 0.  0.
         13    1    3    3    0    0  0.19464934040E+03  0.11724905046E+03 -0.69450813850E+02  0.23761128150E+03  0.00000000000E+00 0. -1.
        -13    1    3    3    0    0  0.73622434509E+01 -0.14731645825E+02 -0.88347627612E+01  0.18688955305E+02  0.00000000000E+00 0.  1.
          4    1    6    6  502    0  0.66138852858E+02 -0.13242172637E+03 -0.70521039686E+02  0.16396060048E+03  0.00000000000E+00 0. -1.
          1    1    5    5  503    0 -0.27049226920E+03  0.14340716392E+03  0.54660566091E+03  0.62650573094E+03  0.00000000000E+00 0. -1.
         -2    1    5    5    0  503 -0.66313760035E+01  0.35705741158E+01  0.65954759570E+02  0.66383389919E+02  0.00000000000E+00 0.  1.
         -3    1    6    6    0  502  0.89732084950E+01 -0.11707341630E+03 -0.12577496255E+03  0.17206407086E+03  0.00000000000E+00 0.  1.
<mgrwt>
<rscale>  0 0.12399780E+04</rscale>
<asrwt>0</asrwt>
<pdfrwt beam="1">  1        1 0.12486099E+00 0.12399780E+04</pdfrwt>
<pdfrwt beam="2">  1       -1 0.72864245E-01 0.12399780E+04</pdfrwt>
<totfact> 0.40497749E+01</totfact>
</mgrwt>
</event>
<event>
12    1  0.2266107E-007  0.2390500E+04  0.7818608E-02  0.8443069E-01
         -4   -1    0    0    0  501 -0.00000000000E+00  0.00000000000E+00  0.82442484351E+03  0.82442484351E+03  0.00000000000E+00 0.  1.
          4   -1    0    0  501    0  0.00000000000E+00 -0.00000000000E+00 -0.17328721518E+04  0.17328721518E+04  0.00000000000E+00 0. -1.
         23    2    1    2    0    0 -0.42200792167E+02  0.88402743802E+03 -0.93860439048E+03  0.12939846546E+04  0.10066114656E+03 0.  0.
        254    2    1    2    0    0  0.42200792167E+02 -0.88402743802E+03  0.30157082189E+02  0.12633123407E+04  0.90097902450E+03 0.  0.
        -24    2    4    4    0    0 -0.38291099820E+02 -0.10461343037E+04 -0.45842230266E+02  0.10508758437E+04  0.79845721009E+02 0.  0.
         24    2    4    4    0    0  0.80491891987E+02  0.16210686563E+03  0.75999312456E+02  0.21243649704E+03  0.81214464368E+02 0.  0.
         11    1    3    3    0    0 -0.16262025940E+02  0.24510730615E+02 -0.45628527064E+02  0.54288045507E+02  0.00000000000E+00 0.  1.
        -11    1    3    3    0    0 -0.25938766227E+02  0.85951670741E+03 -0.89297586341E+03  0.12396966091E+04  0.00000000000E+00 0. -1.
          4    1    6    6  502    0  0.92407731329E+02  0.12951637027E+03  0.78943558734E+02  0.17761127341E+03  0.00000000000E+00 0. -1.
          3    1    5    5  503    0 -0.17809312707E+02 -0.80475172731E+03 -0.66830968314E+02  0.80771832501E+03  0.00000000000E+00 0. -1.
         -4    1    5    5    0  503 -0.20481787113E+02 -0.24138257634E+03  0.20988738047E+02  0.24315751868E+03  0.00000000000E+00 0.  1.
         -3    1    6    6    0  502 -0.11915839342E+02  0.32590495353E+02 -0.29442462778E+01  0.34825223628E+02  0.00000000000E+00 0.  1.
<mgrwt>
<rscale>  0 0.23905002E+04</rscale>
<asrwt>0</asrwt>
<pdfrwt beam="1">  1        4 0.26659571E+00 0.23905002E+04</pdfrwt>
<pdfrwt beam="2">  1       -4 0.12683459E+00 0.23905002E+04</pdfrwt>
<totfact> 0.41218488E-02</totfact>
</mgrwt>
</event>
<event>
12    1  0.2547395E-007  0.2280185E+04  0.7818608E-02  0.8485775E-01
         -1   -1    0    0    0  501 -0.00000000000E+00  0.00000000000E+00  0.10232726305E+04  0.10232726305E+04  0.00000000000E+00 0.  1.
          1   -1    0    0  501    0  0.00000000000E+00 -0.00000000000E+00 -0.12702490693E+04  0.12702490693E+04  0.00000000000E+00 0. -1.
         23    2    1    2    0    0  0.31063364357E+03  0.20279526410E+03  0.73515839188E+03  0.83188372442E+03  0.11812489214E+03 0.  0.
        254    2    1    2    0    0 -0.31063364357E+03 -0.20279526410E+03 -0.98213483068E+03  0.14616379754E+04  0.10169452128E+04 0.  0.
        -24    2    4    4    0    0  0.34407703115E+03  0.55367644040E+02 -0.45053930093E+03  0.57606403047E+03  0.86078604496E+02 0.  0.
         24    2    4    4    0    0 -0.65471067472E+03 -0.25816290814E+03 -0.53159552975E+03  0.88557394494E+03  0.79707276781E+02 0.  0.
         13    1    3    3    0    0  0.18890234661E+02 -0.14943599266E+02  0.63491728927E+02  0.67906934599E+02  0.00000000000E+00 0. -1.
        -13    1    3    3    0    0  0.29174340890E+03  0.21773886337E+03  0.67166666295E+03  0.76397678982E+03  0.00000000000E+00 0.  1.
          2    1    6    6  502    0 -0.13376988175E+03 -0.43702531363E+02 -0.69563686824E+02  0.15698216152E+03  0.00000000000E+00 0. -1.
          1    1    5    5  503    0 -0.11975968378E+01  0.83232314767E+01 -0.23096162358E+02  0.24579323344E+02  0.00000000000E+00 0. -1.
         -2    1    5    5    0  503  0.34527462799E+03  0.47044412564E+02 -0.42744313857E+03  0.55148470713E+03  0.00000000000E+00 0.  1.
         -1    1    6    6    0  502 -0.52094079297E+03 -0.21446037678E+03 -0.46203184293E+03  0.72859178342E+03  0.00000000000E+00 0.  1.
<mgrwt>
<rscale>  0 0.22801852E+04</rscale>
<asrwt>0</asrwt>
<pdfrwt beam="1">  1        1 0.19542293E+00 0.22801852E+04</pdfrwt>
<pdfrwt beam="2">  1       -1 0.15742656E+00 0.22801852E+04</pdfrwt>
<totfact> 0.26304053E+00</totfact>
</mgrwt>
</event>
<event>
12    1  0.1598876E-007  0.1382988E+04  0.7818608E-02  0.8966225E-01
          1   -1    0    0  501    0  0.00000000000E+00  0.00000000000E+00  0.10555997032E+04  0.10555997032E+04  0.00000000000E+00 0. -1.
         -1   -1    0    0    0  501 -0.00000000000E+00 -0.00000000000E+00 -0.45297861304E+03  0.45297861304E+03  0.00000000000E+00 0.  1.
         23    2    1    2    0    0  0.24395458597E+03  0.29220940808E+03  0.10601197773E+03  0.40439655693E+03  0.86010799594E+02 0.  0.
        254    2    1    2    0    0 -0.24395458597E+03 -0.29220940808E+03  0.49660911241E+03  0.11041817593E+04  0.90977830753E+03 0.  0.
        -24    2    4    4    0    0 -0.46802736383E+03  0.11212071047E+03  0.11986795281E+03  0.50232236549E+03  0.79616366132E+02 0.  0.
         24    2    4    4    0    0  0.22407277786E+03 -0.40433011855E+03  0.37674115960E+03  0.60185939381E+03  0.81298056706E+02 0.  0.
         13    1    3    3    0    0  0.10879508088E+03  0.11680655552E+03  0.17322536906E+01  0.15963440024E+03  0.00000000000E+00 0. -1.
        -13    1    3    3    0    0  0.13515950509E+03  0.17540285256E+03  0.10427972404E+03  0.24476215669E+03  0.00000000000E+00 0.  1.
          4    1    6    6  502    0  0.20397439045E+03 -0.31903806468E+03  0.33134619707E+03  0.50317108521E+03  0.00000000000E+00 0. -1.
          1    1    5    5  503    0 -0.38789023850E+03  0.61883238719E+02  0.10491594608E+03  0.40656577340E+03  0.00000000000E+00 0. -1.
         -2    1    5    5    0  503 -0.80137125323E+02  0.50237471755E+02  0.14952006722E+02  0.95756592089E+02  0.00000000000E+00 0.  1.
         -1    1    6    6    0  502  0.20098387405E+02 -0.85292053876E+02  0.45394962535E+02  0.98688308599E+02  0.00000000000E+00 0.  1.
<mgrwt>
<rscale>  0 0.13829882E+04</rscale>
<asrwt>0</asrwt>
<pdfrwt beam="1">  1        1 0.16239995E+00 0.13829882E+04</pdfrwt>
<pdfrwt beam="2">  1       -1 0.69689018E-01 0.13829882E+04</pdfrwt>
<totfact> 0.27861450E+01</totfact>
</mgrwt>
</event>
<event>
12    1  0.1598876E-007  0.1743161E+04  0.7818608E-02  0.8737124E-01
          2   -1    0    0  501    0  0.00000000000E+00  0.00000000000E+00  0.21093714898E+04  0.21093714898E+04  0.00000000000E+00 0.  1.
         -2   -1    0    0    0  501 -0.00000000000E+00 -0.00000000000E+00 -0.36013229473E+03  0.36013229473E+03  0.00000000000E+00 0. -1.
         23    2    1    2    0    0  0.50446058615E+03 -0.36686867151E+03  0.50745173273E+03  0.80924578160E+03  0.91095383355E+02 0.  0.
        254    2    1    2    0    0 -0.50446058615E+03  0.36686867151E+03  0.12417874624E+04  0.16602580030E+04  0.90848633979E+03 0.  0.
        -24    2    4    4    0    0 -0.58565188571E+03  0.85253566938E+02  0.29523393115E+03  0.66602692924E+03  0.78565224223E+02 0.  0.
         24    2    4    4    0    0  0.81191299568E+02  0.28161510457E+03  0.94655353121E+03  0.99423107371E+03  0.81441673849E+02 0.  0.
         13    1    3    3    0    0  0.50446729082E+03 -0.36878979770E+03  0.49649824842E+03  0.79812509864E+03  0.00000000000E+00 0. -1.
        -13    1    3    3    0    0 -0.67046776394E-02  0.19211261902E+01  0.10953484312E+02  0.11120682954E+02  0.00000000000E+00 0.  1.
          4    1    6    6  502    0  0.94582491063E+02  0.25405658567E+03  0.88299996991E+03  0.92367718560E+03  0.00000000000E+00 0. -1.
          1    1    5    5  503    0 -0.12686882522E+03  0.51720291349E+02  0.66795380222E+02  0.15242148854E+03  0.00000000000E+00 0. -1.
         -2    1    5    5    0  503 -0.45878306049E+03  0.33533275589E+02  0.22843855093E+03  0.51360544070E+03  0.00000000000E+00 0.  1.
         -3    1    6    6    0  502 -0.13391191495E+02  0.27558518898E+02  0.63553561299E+02  0.70553888109E+02  0.00000000000E+00 0.  1.
<mgrwt>
<rscale>  0 0.17431613E+04</rscale>
<asrwt>0</asrwt>
<pdfrwt beam="1">  1        2 0.32451868E+00 0.17431613E+04</pdfrwt>
<pdfrwt beam="2">  1       -2 0.55404970E-01 0.17431613E+04</pdfrwt>
<totfact> 0.16860391E+01</totfact>
</mgrwt>
</event>
<event>
12    1  0.1598876E-007  0.1655926E+04  0.7818608E-02  0.8786908E-01
          1   -1    0    0  501    0  0.00000000000E+00  0.00000000000E+00  0.72265995902E+03  0.72265995902E+03  0.00000000000E+00 0. -1.
         -1   -1    0    0    0  501 -0.00000000000E+00 -0.00000000000E+00 -0.94861066133E+03  0.94861066133E+03  0.00000000000E+00 0.  1.
         23    2    1    2    0    0 -0.43550317883E+03  0.31348793947E+03 -0.29924659601E+03  0.62095691952E+03  0.90007020369E+02 0.  0.
        254    2    1    2    0    0  0.43550317883E+03 -0.31348793947E+03  0.73295893698E+02  0.10503137008E+04  0.89991603783E+03 0.  0.
        -24    2    4    4    0    0  0.65033864520E+03 -0.22775001248E+03 -0.15939072033E+03  0.71261982305E+03  0.87242127775E+02 0.  0.
         24    2    4    4    0    0 -0.21483546637E+03 -0.85737926995E+02  0.23268661403E+03  0.33769387777E+03  0.79930125719E+02 0.  0.
         11    1    3    3    0    0 -0.25014106915E+02  0.15246103468E+02 -0.44307401873E+02  0.53115864640E+02  0.00000000000E+00 0. -1.
        -11    1    3    3    0    0 -0.41048907191E+03  0.29824183601E+03 -0.25493919414E+03  0.56784105488E+03  0.00000000000E+00 0.  1.
          4    1    6    6  502    0 -0.22006500291E+03 -0.87580195400E+02  0.21765224304E+03  0.32166969865E+03  0.00000000000E+00 0. -1.
          3    1    5    5  503    0  0.38436195629E+03 -0.14469569877E+03 -0.51895719474E+02  0.41396150109E+03  0.00000000000E+00 0. -1.
         -4    1    5    5    0  503  0.26597668891E+03 -0.83054313711E+02 -0.10749500086E+03  0.29865832197E+03  0.00000000000E+00 0.  1.
         -3    1    6    6    0  502  0.52295365367E+01  0.18422684043E+01  0.15034370992E+02  0.16024179117E+02  0.00000000000E+00 0.  1.
<mgrwt>
<rscale>  0 0.16559263E+04</rscale>
<asrwt>0</asrwt>
<pdfrwt beam="1">  1        1 0.11117845E+00 0.16559263E+04</pdfrwt>
<pdfrwt beam="2">  1       -1 0.14594010E+00 0.16559263E+04</pdfrwt>
<totfact> 0.93079136E+00</totfact>
</mgrwt>
</event>
<event>
12    1  0.1598876E-007  0.1802819E+04  0.7818608E-02  0.8704802E-01
          1   -1    0    0  501    0  0.00000000000E+00  0.00000000000E+00  0.21441642672E+04  0.21441642672E+04  0.00000000000E+00 0. -1.
         -1   -1    0    0    0  501 -0.00000000000E+00 -0.00000000000E+00 -0.37895376837E+03  0.37895376837E+03  0.00000000000E+00 0.  1.
         23    2    1    2    0    0 -0.40774465346E+02  0.24555222804E+03  0.15194699694E+04  0.15433274979E+04  0.10541500863E+03 0.  0.
        254    2    1    2    0    0  0.40774465346E+02 -0.24555222804E+03  0.24574052944E+03  0.97979053771E+03  0.91522818808E+03 0.  0.
        -24    2    4    4    0    0  0.99516598159E+02  0.33493861525E+03  0.69132507279E+02  0.36513918525E+03  0.80373451754E+02 0.  0.
         24    2    4    4    0    0 -0.58742132813E+02 -0.58049084328E+03  0.17660802217E+03  0.61465135246E+03  0.78648803470E+02 0.  0.
         11    1    3    3    0    0 -0.58029512525E+02  0.20593000151E+03  0.10319224079E+04  0.10538683247E+04  0.00000000000E+00 0. -1.
        -11    1    3    3    0    0  0.17255047179E+02  0.39622226523E+02  0.48754756150E+03  0.48945917319E+03  0.00000000000E+00 0.  1.
          4    1    6    6  502    0 -0.30122290481E+02 -0.14910430815E+03  0.79114963976E+02  0.17146027125E+03  0.00000000000E+00 0. -1.
          1    1    5    5  503    0  0.31918148186E+02  0.25795801099E+02 -0.84286896945E+00  0.41047557371E+02  0.00000000000E+00 0. -1.
         -2    1    5    5    0  503  0.67598449973E+02  0.30914281415E+03  0.69975376248E+02  0.32409162788E+03  0.00000000000E+00 0.  1.
         -3    1    6    6    0  502 -0.28619842332E+02 -0.43138653514E+03  0.97493058190E+02  0.44319108121E+03  0.00000000000E+00 0.  1.
<mgrwt>
<rscale>  0 0.18028190E+04</rscale>
<asrwt>0</asrwt>
<pdfrwt beam="1">  1        1 0.32987142E+00 0.18028190E+04</pdfrwt>
<pdfrwt beam="2">  1       -1 0.58300581E-01 0.18028190E+04</pdfrwt>
<totfact> 0.66898192E+00</totfact>
</mgrwt>
</event>
<event>
12    1  0.1598876E-007  0.2901452E+04  0.7818608E-02  0.8272446E-01
         -1   -1    0    0    0  501 -0.00000000000E+00  0.00000000000E+00  0.69349855043E+03  0.69349855043E+03  0.00000000000E+00 0.  1.
          1   -1    0    0  501    0  0.00000000000E+00 -0.00000000000E+00 -0.30347664313E+04  0.30347664313E+04  0.00000000000E+00 0. -1.
         23    2    1    2    0    0 -0.38256476325E+03 -0.12094697539E+04 -0.14727398471E+04  0.19458708949E+04  0.90983507555E+02 0.  0.
        254    2    1    2    0    0  0.38256476325E+03  0.12094697539E+04 -0.86852803373E+03  0.17823940868E+04  0.90189514458E+03 0.  0.
        -24    2    4    4    0    0 -0.21132499210E+03  0.92997277376E+02  0.34185399050E+01  0.24438109802E+03  0.80023051477E+02 0.  0.
         24    2    4    4    0    0  0.59388975534E+03  0.11164724765E+04 -0.87194657363E+03  0.15380129888E+04  0.77312962929E+02 0.  0.
         13    1    3    3    0    0 -0.29696350960E+03 -0.93171158595E+03 -0.10747956442E+04  0.14530861923E+04  0.00000000000E+00 0. -1.
        -13    1    3    3    0    0 -0.85601253642E+02 -0.27775816791E+03 -0.39794420291E+03  0.49278470258E+03  0.00000000000E+00 0.  1.
          2    1    6    6  502    0  0.94008208339E+02  0.22915315431E+03 -0.19310561722E+03  0.31406765317E+03  0.00000000000E+00 0. -1.
          3    1    5    5  503    0 -0.23763628232E+02  0.14409948850E+02 -0.27013583890E+02  0.38756810591E+02  0.00000000000E+00 0. -1.
         -4    1    5    5    0  503 -0.18756136387E+03  0.78587328526E+02  0.30432123795E+02  0.20562428742E+03  0.00000000000E+00 0.  1.
         -1    1    6    6    0  502  0.49988154701E+03  0.88731932218E+03 -0.67884095642E+03  0.12239453356E+04  0.00000000000E+00 0.  1.
<mgrwt>
<rscale>  0 0.29014521E+04</rscale>
<asrwt>0</asrwt>
<pdfrwt beam="1">  1        1 0.46688714E+00 0.29014521E+04</pdfrwt>
<pdfrwt beam="2">  1       -1 0.10669209E+00 0.29014521E+04</pdfrwt>
<totfact> 0.39650868E-01</totfact>
</mgrwt>
</event>
<event>
12    1  0.1598876E-007  0.3084443E+04  0.7818608E-02  0.8220021E-01
         -1   -1    0    0    0  501 -0.00000000000E+00  0.00000000000E+00  0.11462469797E+04  0.11462469797E+04  0.00000000000E+00 0.  1.
          1   -1    0    0  501    0  0.00000000000E+00 -0.00000000000E+00 -0.20749860083E+04  0.20749860083E+04  0.00000000000E+00 0. -1.
         23    2    1    2    0    0  0.65808417114E+03  0.22217077961E+03 -0.17052589698E+04  0.18435107690E+04  0.90494030973E+02 0.  0.
        254    2    1    2    0    0 -0.65808417114E+03 -0.22217077961E+03  0.77651994122E+03  0.13777222190E+04  0.90149911927E+03 0.  0.
        -24    2    4    4    0    0 -0.63765215534E+03 -0.49841575924E+03  0.71473116767E+03  0.10828541897E+04  0.81939085897E+02 0.  0.
         24    2    4    4    0    0 -0.20432015796E+02  0.27624497963E+03  0.61788773545E+02  0.29486802934E+03  0.80003413366E+02 0.  0.
         13    1    3    3    0    0  0.15501649404E+03  0.14562277276E+02 -0.40969870122E+03  0.43828666319E+03  0.00000000000E+00 0.  1.
        -13    1    3    3    0    0  0.50306767710E+03  0.20760850233E+03 -0.12955602686E+04  0.14052241058E+04  0.00000000000E+00 0. -1.
          2    1    6    6  502    0 -0.15906399275E+02  0.98612881347E+01  0.15827352395E+02  0.24510479910E+02  0.00000000000E+00 0. -1.
          1    1    5    5  503    0 -0.17201359140E+03 -0.96893852555E+02  0.19943038921E+03  0.28062354575E+03  0.00000000000E+00 0. -1.
         -2    1    5    5    0  503 -0.46563856394E+03 -0.40152190668E+03  0.51530077846E+03  0.80223064393E+03  0.00000000000E+00 0.  1.
         -1    1    6    6    0  502 -0.45256165207E+01  0.26638369149E+03  0.45961421149E+02  0.27035754943E+03  0.00000000000E+00 0.  1.
<mgrwt>
<rscale>  0 0.30844425E+04</rscale>
<asrwt>0</asrwt>
<pdfrwt beam="1">  1        1 0.31922862E+00 0.30844425E+04</pdfrwt>
<pdfrwt beam="2">  1       -1 0.17634569E+00 0.30844425E+04</pdfrwt>
<totfact> 0.49520623E-01</totfact>
</mgrwt>
</event>
<event>
12    1  0.1598876E-007  0.1273735E+04  0.7818608E-02  0.9050656E-01
         -2   -1    0    0    0  501 -0.00000000000E+00  0.00000000000E+00  0.86154983988E+03  0.86154983988E+03  0.00000000000E+00 0.  1.
          2   -1    0    0  501    0  0.00000000000E+00 -0.00000000000E+00 -0.47078004957E+03  0.47078004957E+03  0.00000000000E+00 0. -1.
         23    2    1    2    0    0 -0.11622517352E+03 -0.15440782286E+03  0.35910062578E+03  0.41780442883E+03  0.90869216986E+02 0.  0.
        254    2    1    2    0    0  0.11622517352E+03  0.15440782286E+03  0.31669164534E+02  0.91452546063E+03  0.89331059293E+03 0.  0.
        -24    2    4    4    0    0 -0.94776353486E+02 -0.33810803306E+03  0.84201582445E+02  0.36975847939E+03  0.79572780508E+02 0.  0.
         24    2    4    4    0    0  0.21100152700E+03  0.49251585592E+03 -0.52532417911E+02  0.54476698124E+03  0.83173891275E+02 0.  0.
         11    1    3    3    0    0 -0.12196777192E+03 -0.14326135964E+03  0.35894216471E+03  0.40526464460E+03  0.00000000000E+00 0.  1.
        -11    1    3    3    0    0  0.57425984025E+01 -0.11146463218E+02  0.15846106793E+00  0.12539784232E+02  0.00000000000E+00 0. -1.
          2    1    6    6  502    0  0.15743027823E+03  0.30229093093E+03 -0.64101994806E+02  0.34680421734E+03  0.00000000000E+00 0. -1.
          3    1    5    5  503    0 -0.96770796450E+02 -0.24426979840E+03  0.84190053559E+02  0.27589905142E+03  0.00000000000E+00 0. -1.
         -4    1    5    5    0  503  0.19944429634E+01 -0.93838234659E+02  0.11528886314E-01  0.93859427974E+02  0.00000000000E+00 0.  1.
         -1    1    6    6    0  502  0.53571248770E+02  0.19022492498E+03  0.11569576895E+02  0.19796276390E+03  0.00000000000E+00 0.  1.
<mgrwt>
<rscale>  0 0.12737354E+04</rscale>
<asrwt>0</asrwt>
<pdfrwt beam="1">  1        2 0.72427700E-01 0.12737354E+04</pdfrwt>
<pdfrwt beam="2">  1       -2 0.13254613E+00 0.12737354E+04</pdfrwt>
<totfact> 0.26788684E+01</totfact>
</mgrwt>
</event>
<event>
12    1  0.1598876E-007  0.1788079E+04  0.7818608E-02  0.8712664E-01
         -2   -1    0    0    0  501 -0.00000000000E+00  0.00000000000E+00  0.58847559349E+03  0.58847559349E+03  0.00000000000E+00 0.  1.
          2   -1    0    0  501    0  0.00000000000E+00 -0.00000000000E+00 -0.13582671315E+04  0.13582671315E+04  0.00000000000E+00 0. -1.
         23    2    1    2    0    0  0.49812036197E+03 -0.41266013749E+03 -0.69233049831E+02  0.65667184246E+03  0.89512062941E+02 0.  0.
        254    2    1    2    0    0 -0.49812036197E+03  0.41266013749E+03 -0.70055848820E+03  0.12900708825E+04  0.86895822829E+03 0.  0.
        -24    2    4    4    0    0 -0.39075709790E+03 -0.15282892310E+03 -0.53757772814E+03  0.68657991641E+03  0.79714355800E+02 0.  0.
         24    2    4    4    0    0 -0.10736326407E+03  0.56548906059E+03 -0.16298076006E+03  0.60349096614E+03  0.79585613920E+02 0.  0.
         13    1    3    3    0    0  0.25746832783E+02 -0.23633607350E+02 -0.25309545559E+02  0.43151128504E+02  0.00000000000E+00 0. -1.
        -13    1    3    3    0    0  0.47237352919E+03 -0.38902653013E+03 -0.43923504272E+02  0.61352071396E+03  0.00000000000E+00 0.  1.
          2    1    6    6  502    0 -0.11795978913E+03  0.53668519612E+03 -0.14666296424E+03  0.56873151546E+03  0.00000000000E+00 0. -1.
          1    1    5    5  503    0 -0.37401506738E+03 -0.12614466288E+03 -0.48539685874E+03  0.62562757059E+03  0.00000000000E+00 0. -1.
         -2    1    5    5    0  503 -0.16742030522E+02 -0.26684260225E+02 -0.52180869398E+02  0.60952345819E+02  0.00000000000E+00 0.  1.
         -1    1    6    6    0  502  0.10596525062E+02  0.28803864465E+02 -0.16317795816E+02  0.34759450683E+02  0.00000000000E+00 0.  1.
<mgrwt>
<rscale>  0 0.17880795E+04</rscale>
<asrwt>0</asrwt>
<pdfrwt beam="1">  1        2 0.20896417E+00 0.17880795E+04</pdfrwt>
<pdfrwt beam="2">  1       -2 0.90534708E-01 0.17880795E+04</pdfrwt>
<totfact> 0.15066044E+01</totfact>
</mgrwt>
</event>
<event>
12    1  0.1598876E-007  0.1053548E+04  0.7818608E-02  0.9251688E-01
         -1   -1    0    0    0  501 -0.00000000000E+00  0.00000000000E+00  0.17341895279E+03  0.17341895279E+03  0.00000000000E+00 0.  1.
          1   -1    0    0  501    0  0.00000000000E+00 -0.00000000000E+00 -0.16001193898E+04  0.16001193898E+04  0.00000000000E+00 0. -1.
         23    2    1    2    0    0  0.11064755669E+03 -0.12135988392E+02 -0.18086074833E+03  0.23417279034E+03  0.98671786417E+02 0.  0.
        254    2    1    2    0    0 -0.11064755669E+03  0.12135988392E+02 -0.12458396887E+04  0.15393655522E+04  0.89729572023E+03 0.  0.
        -24    2    4    4    0    0  0.30676473282E+03 -0.19248464768E+03 -0.27962477282E+03  0.46419687550E+03  0.78318482804E+02 0.  0.
         24    2    4    4    0    0 -0.41741228951E+03  0.20462063607E+03 -0.96621491584E+03  0.10751686767E+04  0.79459396662E+02 0.  0.
         13    1    3    3    0    0  0.53607561004E+01 -0.24592991444E+02 -0.75883460132E+00  0.25181913431E+02  0.00000000000E+00 0.  1.
        -13    1    3    3    0    0  0.10528680059E+03  0.12457003052E+02 -0.18010191373E+03  0.20899087691E+03  0.00000000000E+00 0. -1.
          4    1    6    6  502    0 -0.27783422285E+03  0.12157491827E+03 -0.54450578703E+03  0.62326468554E+03  0.00000000000E+00 0. -1.
          1    1    5    5  503    0  0.13639469334E+03 -0.62806018533E+02 -0.15792299778E+03  0.21791691435E+03  0.00000000000E+00 0. -1.
         -2    1    5    5    0  503  0.17037003948E+03 -0.12967862914E+03 -0.12170177505E+03  0.24627996114E+03  0.00000000000E+00 0.  1.
         -3    1    6    6    0  502 -0.13957806665E+03  0.83045717797E+02 -0.42170912881E+03  0.45190399120E+03  0.00000000000E+00 0.  1.
<mgrwt>
<rscale>  0 0.10535483E+04</rscale>
<asrwt>0</asrwt>
<pdfrwt beam="1">  1        1 0.24617222E+00 0.10535483E+04</pdfrwt>
<pdfrwt beam="2">  1       -1 0.26679839E-01 0.10535483E+04</pdfrwt>
<totfact> 0.69836177E+01</totfact>
</mgrwt>
</event>
<event>
12    1  0.1598876E-007  0.1361112E+04  0.7818608E-02  0.8982459E-01
          2   -1    0    0  501    0  0.00000000000E+00  0.00000000000E+00  0.36026208484E+04  0.36026208484E+04  0.00000000000E+00 0. -1.
         -2   -1    0    0    0  501 -0.00000000000E+00 -0.00000000000E+00 -0.12856089434E+03  0.12856089434E+03  0.00000000000E+00 0.  1.
         23    2    1    2    0    0 -0.77384157063E+02  0.27508707894E+03  0.16090281930E+04  0.16371600954E+04  0.98286536895E+02 0.  0.
        254    2    1    2    0    0  0.77384157063E+02 -0.27508707894E+03  0.18650317611E+04  0.20940216474E+04  0.90825215717E+03 0.  0.
        -24    2    4    4    0    0  0.11716267597E+02 -0.55689419914E+03  0.74036192885E+03  0.92997569143E+03  0.80315509089E+02 0.  0.
         24    2    4    4    0    0  0.65667889466E+02  0.28180712020E+03  0.11246698322E+04  0.11640459559E+04  0.79957684310E+02 0.  0.
         11    1    3    3    0    0 -0.14370611527E+02  0.25291048583E+02  0.39652411382E+03  0.39758964330E+03  0.00000000000E+00 0.  1.
        -11    1    3    3    0    0 -0.63013545536E+02  0.24979603036E+03  0.12125040792E+04  0.12395704521E+04  0.00000000000E+00 0. -1.
          4    1    6    6  502    0  0.13541701162E+02  0.79739626034E+01  0.24461201849E+02  0.29074252284E+02  0.00000000000E+00 0. -1.
          3    1    5    5  503    0 -0.25902166462E+02 -0.74106336195E+02  0.10627736909E+03  0.13212702401E+03  0.00000000000E+00 0. -1.
         -4    1    5    5    0  503  0.37618434059E+02 -0.48278786294E+03  0.63408455975E+03  0.79784866742E+03  0.00000000000E+00 0.  1.
         -3    1    6    6    0  502  0.52126188304E+02  0.27383315759E+03  0.11002086304E+04  0.11349717036E+04  0.00000000000E+00 0.  1.
<mgrwt>
<rscale>  0 0.13611115E+04</rscale>
<asrwt>0</asrwt>
<pdfrwt beam="1">  1        2 0.55424928E+00 0.13611115E+04</pdfrwt>
<pdfrwt beam="2">  1       -2 0.19778602E-01 0.13611115E+04</pdfrwt>
<totfact> 0.14929986E+01</totfact>
</mgrwt>
</event>
<event>
12    1  0.1598876E-007  0.2560688E+04  0.7818608E-02  0.8381678E-01
         -2   -1    0    0    0  501 -0.00000000000E+00  0.00000000000E+00  0.57924933239E+03  0.57924933239E+03  0.00000000000E+00 0.  1.
          2   -1    0    0  501    0  0.00000000000E+00 -0.00000000000E+00 -0.28300090650E+04  0.28300090650E+04  0.00000000000E+00 0. -1.
         23    2    1    2    0    0  0.38733519087E+03 -0.13088933998E+03 -0.22509148828E+04  0.22895622653E+04  0.91197519536E+02 0.  0.
        254    2    1    2    0    0 -0.38733519087E+03  0.13088933998E+03  0.15515026439E+00  0.11196961320E+04  0.10423813288E+04 0.  0.
        -24    2    4    4    0    0  0.33944302314E+03 -0.68118533670E+02  0.54234719511E+02  0.35975104325E+03  0.81349294580E+02 0.  0.
         24    2    4    4    0    0 -0.72677821402E+03  0.19900787365E+03 -0.54079569247E+02  0.75994508879E+03  0.82348236327E+02 0.  0.
         13    1    3    3    0    0  0.41996482661E+01 -0.15884161400E+02 -0.15052196747E+03  0.15141600418E+03  0.00000000000E+00 0.  1.
        -13    1    3    3    0    0  0.38313554261E+03 -0.11500517858E+03 -0.21003929154E+04  0.21381462611E+04  0.00000000000E+00 0. -1.
          4    1    6    6  502    0 -0.56049109286E+03  0.15570465796E+03 -0.76231014337E+02  0.58669018505E+03  0.00000000000E+00 0. -1.
          1    1    5    5  503    0  0.14282178344E+03 -0.21847307340E+02  0.62881501439E+02  0.15757363322E+03  0.00000000000E+00 0. -1.
         -2    1    5    5    0  503  0.19662123970E+03 -0.46271226330E+02 -0.86467819278E+01  0.20217741003E+03  0.00000000000E+00 0.  1.
         -3    1    6    6    0  502 -0.16628712116E+03  0.43303215694E+02  0.22151445091E+02  0.17325490375E+03  0.00000000000E+00 0.  1.
<mgrwt>
<rscale>  0 0.25606881E+04</rscale>
<asrwt>0</asrwt>
<pdfrwt beam="1">  1        2 0.43538601E+00 0.25606881E+04</pdfrwt>
<pdfrwt beam="2">  1       -2 0.89115282E-01 0.25606881E+04</pdfrwt>
<totfact> 0.21272649E+00</totfact>
</mgrwt>
</event>
<event>
12    1  0.1598876E-007  0.1999656E+04  0.7818608E-02  0.8606781E-01
          2   -1    0    0  501    0  0.00000000000E+00  0.00000000000E+00  0.30771229999E+04  0.30771229999E+04  0.00000000000E+00 0. -1.
         -2   -1    0    0    0  501 -0.00000000000E+00 -0.00000000000E+00 -0.32486711461E+03  0.32486711461E+03  0.00000000000E+00 0.  1.
         23    2    1    2    0    0 -0.23788082452E+03 -0.56077890925E+03  0.19734518498E+04  0.20672779511E+04  0.89808973313E+02 0.  0.
        254    2    1    2    0    0  0.23788082452E+03  0.56077890925E+03  0.77880403542E+03  0.13347121634E+04  0.89658271330E+03 0.  0.
        -24    2    4    4    0    0  0.52482504745E+03  0.43611188257E+03  0.73988681113E+03  0.10097367863E+04  0.80628654108E+02 0.  0.
         24    2    4    4    0    0 -0.28694422293E+03  0.12466702669E+03  0.38917224297E+02  0.32497537706E+03  0.78839017844E+02 0.  0.
         11    1    3    3    0    0 -0.20353365127E+03 -0.51206863026E+03  0.18476866826E+04  0.19281043297E+04  0.00000000000E+00 0. -1.
        -11    1    3    3    0    0 -0.34347173248E+02 -0.48710278996E+02  0.12576516727E+03  0.13917362138E+03  0.00000000000E+00 0.  1.
          4    1    6    6  502    0 -0.39608864119E+02  0.45013830895E+02 -0.93549172782E+01  0.60684607323E+02  0.00000000000E+00 0. -1.
          1    1    5    5  503    0  0.29586180961E+03  0.21591885444E+03  0.44444490393E+03  0.57592224711E+03  0.00000000000E+00 0. -1.
         -2    1    5    5    0  503  0.22896323784E+03  0.22019302813E+03  0.29544190719E+03  0.43381453923E+03  0.00000000000E+00 0.  1.
         -3    1    6    6    0  502 -0.24733535881E+03  0.79653195791E+02  0.48272141575E+02  0.26429076974E+03  0.00000000000E+00 0.  1.
<mgrwt>
<rscale>  0 0.19996560E+04</rscale>
<asrwt>0</asrwt>
<pdfrwt beam="1">  1        2 0.47340352E+00 0.19996560E+04</pdfrwt>
<pdfrwt beam="2">  1       -2 0.49979558E-01 0.19996560E+04</pdfrwt>
<totfact> 0.54917534E+00</totfact>
</mgrwt>
</event>
<event>
12    1  0.1598876E-007  0.1550681E+04  0.7818608E-02  0.8851433E-01
         -2   -1    0    0    0  501 -0.00000000000E+00  0.00000000000E+00  0.15996084744E+04  0.15996084744E+04  0.00000000000E+00 0.  1.
          2   -1    0    0  501    0  0.00000000000E+00 -0.00000000000E+00 -0.37581248655E+03  0.37581248655E+03  0.00000000000E+00 0. -1.
         23    2    1    2    0    0 -0.40403680208E+03 -0.65772887828E+02  0.27639133958E+02  0.42006126263E+03  0.90087359978E+02 0.  0.
        254    2    1    2    0    0  0.40403680208E+03  0.65772887828E+02  0.11961568539E+04  0.15553596983E+04  0.90596951485E+03 0.  0.
        -24    2    4    4    0    0 -0.16997182719E+03 -0.85961527037E+02 -0.12322924602E+02  0.20635796391E+03  0.78434358727E+02 0.  0.
         24    2    4    4    0    0  0.57400862927E+03  0.15173441487E+03  0.12084797785E+04  0.13490017344E+04  0.82903952025E+02 0.  0.
         11    1    3    3    0    0 -0.57229049520E+02 -0.42179410608E+02 -0.25854368089E+01  0.71140363168E+02  0.00000000000E+00 0.  1.
        -11    1    3    3    0    0 -0.34680775256E+03 -0.23593477220E+02  0.30224570767E+02  0.34892089946E+03  0.00000000000E+00 0. -1.
          2    1    6    6  502    0  0.39306190540E+02  0.45093860558E+01  0.43839958129E+02  0.59052968648E+02  0.00000000000E+00 0. -1.
          1    1    5    5  503    0 -0.16491217896E+02 -0.28480922077E+02  0.21099422269E+02  0.39093590397E+02  0.00000000000E+00 0. -1.
         -2    1    5    5    0  503 -0.15348060930E+03 -0.57480604960E+02 -0.33422346871E+02  0.16726437352E+03  0.00000000000E+00 0.  1.
         -1    1    6    6    0  502  0.53470243873E+03  0.14722502881E+03  0.11646398204E+04  0.12899487658E+04  0.00000000000E+00 0.  1.
<mgrwt>
<rscale>  0 0.15506809E+04</rscale>
<asrwt>0</asrwt>
<pdfrwt beam="1">  1        2 0.57817307E-01 0.15506809E+04</pdfrwt>
<pdfrwt beam="2">  1       -2 0.24609361E+00 0.15506809E+04</pdfrwt>
<totfact> 0.55789863E+00</totfact>
</mgrwt>
</event>
<event>
12    1  0.1598876E-007  0.2243108E+04  0.7818608E-02  0.8500697E-01
         -2   -1    0    0    0  501 -0.00000000000E+00  0.00000000000E+00  0.63886375904E+03  0.63886375904E+03  0.00000000000E+00 0.  1.
          2   -1    0    0  501    0  0.00000000000E+00 -0.00000000000E+00 -0.19689388508E+04  0.19689388508E+04  0.00000000000E+00 0. -1.
         23    2    1    2    0    0  0.76092846092E+03  0.32014479793E+03 -0.10782753643E+04  0.13611477540E+04  0.92415543311E+02 0.  0.
        254    2    1    2    0    0 -0.76092846092E+03 -0.32014479793E+03 -0.25179972746E+03  0.12466548559E+04  0.89957790803E+03 0.  0.
        -24    2    4    4    0    0 -0.89271415645E+03 -0.56371495932E+02 -0.28316192948E+03  0.94169874891E+03  0.80619753858E+02 0.  0.
         24    2    4    4    0    0  0.13178569553E+03 -0.26377330200E+03  0.31362202012E+02  0.30495610696E+03  0.71209655702E+02 0.  0.
         11    1    3    3    0    0  0.68531395670E+03  0.28325246913E+03 -0.10088683716E+04  0.12520792993E+04  0.00000000000E+00 0. -1.
        -11    1    3    3    0    0  0.75614504224E+02  0.36892328801E+02 -0.69406992716E+02  0.10906845470E+03  0.00000000000E+00 0.  1.
          4    1    6    6  502    0  0.28545446846E+02 -0.54234675481E+02 -0.22407503268E+02  0.65255948103E+02  0.00000000000E+00 0. -1.
          3    1    5    5  503    0 -0.24116849393E+03  0.18832062314E+02 -0.87909125110E+02  0.25738085266E+03  0.00000000000E+00 0. -1.
         -4    1    5    5    0  503 -0.65154566252E+03 -0.75203558246E+02 -0.19525280437E+03  0.68431789625E+03  0.00000000000E+00 0.  1.
         -3    1    6    6    0  502  0.10324024868E+03 -0.20953862652E+03  0.53769705280E+02  0.23970015886E+03  0.00000000000E+00 0.  1.
<mgrwt>
<rscale>  0 0.22431083E+04</rscale>
<asrwt>0</asrwt>
<pdfrwt beam="1">  1        2 0.30291367E+00 0.22431083E+04</pdfrwt>
<pdfrwt beam="2">  1       -2 0.98286732E-01 0.22431083E+04</pdfrwt>
<totfact> 0.54484132E+00</totfact>
</mgrwt>
</event>
<event>
12    1  0.1598876E-007  0.1560069E+04  0.7818608E-02  0.8845462E-01
         -1   -1    0    0    0  501 -0.00000000000E+00  0.00000000000E+00  0.17397947014E+03  0.17397947014E+03  0.00000000000E+00 0.  1.
          1   -1    0    0  501    0  0.00000000000E+00 -0.00000000000E+00 -0.34972737937E+04  0.34972737937E+04  0.00000000000E+00 0. -1.
         23    2    1    2    0    0  0.35283695531E+03  0.32180636107E+03 -0.65471996927E+03  0.81597402177E+03  0.95405005087E+02 0.  0.
        254    2    1    2    0    0 -0.35283695531E+03 -0.32180636107E+03 -0.26685743543E+04  0.28552792420E+04  0.89625733730E+03 0.  0.
        -24    2    4    4    0    0  0.27801369629E+03 -0.18629903281E+03 -0.66206294488E+03  0.74604990435E+03  0.79146521341E+02 0.  0.
         24    2    4    4    0    0 -0.63085065160E+03 -0.13550732826E+03 -0.20065114094E+04  0.21092293377E+04  0.80159730035E+02 0.  0.
         11    1    3    3    0    0  0.43611064859E+02  0.43971734654E+01 -0.56936574868E+02  0.71854252973E+02  0.00000000000E+00 0. -1.
        -11    1    3    3    0    0  0.30922589045E+03  0.31740918761E+03 -0.59778339440E+03  0.74411976880E+03  0.00000000000E+00 0.  1.
          4    1    6    6  502    0 -0.11581406528E+03  0.52906090122E+01 -0.33286764638E+03  0.35247944375E+03  0.00000000000E+00 0. -1.
          3    1    5    5  503    0  0.13765702807E+02  0.65753659600E+01 -0.17499950136E+02  0.23215905454E+02  0.00000000000E+00 0. -1.
         -4    1    5    5    0  503  0.26424799348E+03 -0.19287439877E+03 -0.64456299475E+03  0.72283399890E+03  0.00000000000E+00 0.  1.
         -3    1    6    6    0  502 -0.51503658631E+03 -0.14079793728E+03 -0.16736437630E+04  0.17567498939E+04  0.00000000000E+00 0.  1.
<mgrwt>
<rscale>  0 0.15600690E+04</rscale>
<asrwt>0</asrwt>
<pdfrwt beam="1">  1        1 0.53804211E+00 0.15600690E+04</pdfrwt>
<pdfrwt beam="2">  1       -1 0.26766073E-01 0.15600690E+04</pdfrwt>
<totfact> 0.30416499E+00</totfact>
</mgrwt>
</event>
<event>
12    1  0.1598876E-007  0.2687866E+04  0.7818608E-02  0.8338953E-01
          1   -1    0    0  501    0  0.00000000000E+00  0.00000000000E+00  0.14597308454E+04  0.14597308454E+04  0.00000000000E+00 0. -1.
         -1   -1    0    0    0  501 -0.00000000000E+00 -0.00000000000E+00 -0.12373213757E+04  0.12373213757E+04  0.00000000000E+00 0.  1.
         23    2    1    2    0    0  0.11160201920E+03  0.92622905500E+03  0.84226191674E+03  0.12629204782E+04  0.12331960450E+03 0.  0.
        254    2    1    2    0    0 -0.11160201920E+03 -0.92622905500E+03 -0.61985244705E+03  0.14341317429E+04  0.89563470617E+03 0.  0.
        -24    2    4    4    0    0 -0.11283773589E+03  0.15020289368E+03 -0.16682991440E+03  0.26356691879E+03  0.79636903685E+02 0.  0.
         24    2    4    4    0    0  0.12357166877E+01 -0.10764319487E+04 -0.45302253264E+03  0.11705648241E+04  0.79280043200E+02 0.  0.
         13    1    3    3    0    0  0.41790407762E+02  0.82520528204E+02  0.60041363326E+02  0.11027711034E+03  0.00000000000E+00 0.  1.
        -13    1    3    3    0    0  0.69811611437E+02  0.84370852679E+03  0.78222055341E+03  0.11526433679E+04  0.00000000000E+00 0. -1.
          2    1    6    6  502    0  0.50845968787E+01 -0.55175724238E+03 -0.18947707099E+03  0.58340677754E+03  0.00000000000E+00 0. -1.
          3    1    5    5  503    0 -0.64595163492E+02  0.88254286870E+02 -0.14583923289E+03  0.18229217248E+03  0.00000000000E+00 0. -1.
         -4    1    5    5    0  503 -0.48242572395E+02  0.61948606813E+02 -0.20990681517E+02  0.81274746311E+02  0.00000000000E+00 0.  1.
         -1    1    6    6    0  502 -0.38488801911E+01 -0.52467470630E+03 -0.26354546165E+03  0.58715804658E+03  0.00000000000E+00 0.  1.
<mgrwt>
<rscale>  0 0.26878662E+04</rscale>
<asrwt>0</asrwt>
<pdfrwt beam="1">  1        1 0.22457398E+00 0.26878662E+04</pdfrwt>
<pdfrwt beam="2">  1       -1 0.19035713E+00 0.26878662E+04</pdfrwt>
<totfact> 0.10714984E+00</totfact>
</mgrwt>
</event>
<event>
12    1  0.1598876E-007  0.2020396E+04  0.7818608E-02  0.8597144E-01
          1   -1    0    0  501    0  0.00000000000E+00  0.00000000000E+00  0.21981753184E+04  0.21981753184E+04  0.00000000000E+00 0. -1.
         -1   -1    0    0    0  501 -0.00000000000E+00 -0.00000000000E+00 -0.46424887835E+03  0.46424887835E+03  0.00000000000E+00 0.  1.
         23    2    1    2    0    0 -0.45136978806E+03  0.73779285301E+02 -0.17725343427E+03  0.49898604744E+03  0.91598182666E+02 0.  0.
        254    2    1    2    0    0  0.45136978806E+03 -0.73779285301E+02  0.19111798743E+04  0.21634381493E+04  0.90480829202E+03 0.  0.
        -24    2    4    4    0    0  0.52085941937E+03 -0.29649459010E+03  0.69039039972E+03  0.91778425318E+03  0.80532320586E+02 0.  0.
         24    2    4    4    0    0 -0.69489631306E+02  0.22271530480E+03  0.12207894746E+04  0.12456538961E+04  0.83040783740E+02 0.  0.
         11    1    3    3    0    0 -0.16389199343E+03  0.59821791430E+01 -0.22502454502E+02  0.16553770699E+03  0.00000000000E+00 0. -1.
        -11    1    3    3    0    0 -0.28747779463E+03  0.67797106158E+02 -0.15475097977E+03  0.33344834045E+03  0.00000000000E+00 0.  1.
          2    1    6    6  502    0  0.13563077772E+02  0.64383287690E+02  0.42207314562E+03  0.42717081486E+03  0.00000000000E+00 0. -1.
          3    1    5    5  503    0  0.14246163201E+03 -0.11958840390E+03  0.18864421154E+03  0.26492138737E+03  0.00000000000E+00 0. -1.
         -2    1    5    5    0  503  0.37839778736E+03 -0.17690618620E+03  0.50174618818E+03  0.65286286581E+03  0.00000000000E+00 0.  1.
         -1    1    6    6    0  502 -0.83052709078E+02  0.15833201711E+03  0.79871632895E+03  0.81848308123E+03  0.00000000000E+00 0.  1.
<mgrwt>
<rscale>  0 0.20203964E+04</rscale>
<asrwt>0</asrwt>
<pdfrwt beam="1">  1        1 0.33818081E+00 0.20203964E+04</pdfrwt>
<pdfrwt beam="2">  1       -1 0.71422905E-01 0.20203964E+04</pdfrwt>
<totfact> 0.40046882E+00</totfact>
</mgrwt>
</event>
<event>
12    1  0.1598876E-007  0.1579912E+04  0.7818608E-02  0.8832985E-01
         -2   -1    0    0    0  501 -0.00000000000E+00  0.00000000000E+00  0.65720871172E+03  0.65720871172E+03  0.00000000000E+00 0.  1.
          2   -1    0    0  501    0  0.00000000000E+00 -0.00000000000E+00 -0.94951653084E+03  0.94951653084E+03  0.00000000000E+00 0. -1.
         23    2    1    2    0    0 -0.28659457511E+02 -0.54327441329E+02  0.43589272900E+03  0.44987287234E+03  0.92791673589E+02 0.  0.
        254    2    1    2    0    0  0.28659457511E+02  0.54327441329E+02 -0.72820054812E+03  0.11568523702E+04  0.89680462355E+03 0.  0.
        -24    2    4    4    0    0  0.29368690790E+03  0.31088705964E+03 -0.13782749632E+03  0.45626111659E+03  0.79215049391E+02 0.  0.
         24    2    4    4    0    0 -0.26502745039E+03 -0.25655961831E+03 -0.59037305180E+03  0.70059125363E+03  0.78901059353E+02 0.  0.
         11    1    3    3    0    0  0.10390246120E+02  0.17396673328E+02  0.18306471075E+03  0.18418276189E+03  0.00000000000E+00 0. -1.
        -11    1    3    3    0    0 -0.39049703631E+02 -0.71724114656E+02  0.25282801825E+03  0.26569011045E+03  0.00000000000E+00 0.  1.
          4    1    6    6  502    0 -0.24047593100E+03 -0.24883778813E+03 -0.51097442204E+03  0.61712541527E+03  0.00000000000E+00 0. -1.
          1    1    5    5  503    0  0.16926990678E+03  0.21035676955E+03 -0.52828922637E+02  0.27512391191E+03  0.00000000000E+00 0. -1.
         -2    1    5    5    0  503  0.12441700112E+03  0.10053029009E+03 -0.84998573681E+02  0.18113720468E+03  0.00000000000E+00 0.  1.
         -3    1    6    6    0  502 -0.24551519387E+02 -0.77218301759E+01 -0.79398629762E+02  0.83465838362E+02  0.00000000000E+00 0.  1.
<mgrwt>
<rscale>  0 0.15799121E+04</rscale>
<asrwt>0</asrwt>
<pdfrwt beam="1">  1        2 0.14607947E+00 0.15799121E+04</pdfrwt>
<pdfrwt beam="2">  1       -2 0.10110903E+00 0.15799121E+04</pdfrwt>
<totfact> 0.20999470E+01</totfact>
</mgrwt>
</event>
<event>
12    1  0.1598876E-007  0.1641843E+04  0.7818608E-02  0.8795247E-01
         -1   -1    0    0    0  501 -0.00000000000E+00  0.00000000000E+00  0.43852976559E+03  0.43852976559E+03  0.00000000000E+00 0.  1.
          1   -1    0    0  501    0  0.00000000000E+00 -0.00000000000E+00 -0.15367536267E+04  0.15367536267E+04  0.00000000000E+00 0. -1.
         23    2    1    2    0    0 -0.47264815381E+03  0.22029299991E+03 -0.12277987050E+03  0.54350286000E+03  0.91625210058E+02 0.  0.
        254    2    1    2    0    0  0.47264815381E+03 -0.22029299991E+03 -0.97544399057E+03  0.14317805323E+04  0.90916402848E+03 0.  0.
        -24    2    4    4    0    0  0.64827205111E+03  0.10201893267E+03 -0.51974217384E+03  0.84133908101E+03  0.83994089644E+02 0.  0.
         24    2    4    4    0    0 -0.17562389730E+03 -0.32231193258E+03 -0.45570181673E+03  0.59044145124E+03  0.78919112914E+02 0.  0.
         11    1    3    3    0    0 -0.16067902490E+03  0.53132630866E+02 -0.11013193372E+01  0.16923958878E+03  0.00000000000E+00 0.  1.
        -11    1    3    3    0    0 -0.31196912891E+03  0.16716036905E+03 -0.12167855117E+03  0.37426327122E+03  0.00000000000E+00 0. -1.
          2    1    6    6  502    0 -0.12330033876E+03 -0.26440409255E+03 -0.31360898197E+03  0.42832591712E+03  0.00000000000E+00 0. -1.
          1    1    5    5  503    0  0.28340057372E+03  0.79237106484E+02 -0.26235420073E+03  0.39423867247E+03  0.00000000000E+00 0. -1.
         -2    1    5    5    0  503  0.36487147739E+03  0.22781826182E+02 -0.25738797311E+03  0.44710040854E+03  0.00000000000E+00 0.  1.
         -1    1    6    6    0  502 -0.52323558538E+02 -0.57907840022E+02 -0.14209283476E+03  0.16211553412E+03  0.00000000000E+00 0.  1.
<mgrwt>
<rscale>  0 0.16418431E+04</rscale>
<asrwt>0</asrwt>
<pdfrwt beam="1">  1        1 0.23642363E+00 0.16418431E+04</pdfrwt>
<pdfrwt beam="2">  1       -1 0.67466118E-01 0.16418431E+04</pdfrwt>
<totfact> 0.13125492E+01</totfact>
</mgrwt>
</event>
<event>
12    1  0.1598876E-007  0.2142015E+04  0.7818608E-02  0.8542958E-01
          1   -1    0    0  501    0  0.00000000000E+00  0.00000000000E+00  0.47924044506E+03  0.47924044506E+03  0.00000000000E+00 0. -1.
         -1   -1    0    0    0  501 -0.00000000000E+00 -0.00000000000E+00 -0.23934892515E+04  0.23934892515E+04  0.00000000000E+00 0.  1.
         23    2    1    2    0    0 -0.58288852387E+03  0.35463709449E+03 -0.15272635889E+04  0.16751676531E+04  0.90144861251E+02 0.  0.
        254    2    1    2    0    0  0.58288852387E+03 -0.35463709449E+03 -0.38698521754E+03  0.11975620434E+04  0.90491479669E+03 0.  0.
        -24    2    4    4    0    0 -0.10592694134E+03 -0.39972884918E+03 -0.24895805987E+03  0.48903034477E+03  0.78529566155E+02 0.  0.
         24    2    4    4    0    0  0.68881546521E+03  0.45091754690E+02 -0.13802715766E+03  0.70853169868E+03  0.80409329818E+02 0.  0.
         11    1    3    3    0    0 -0.30687101288E+03  0.18430807029E+03 -0.91008263015E+03  0.97795177643E+03  0.00000000000E+00 0. -1.
        -11    1    3    3    0    0 -0.27601751099E+03  0.17032902420E+03 -0.61718095878E+03  0.69721587672E+03  0.00000000000E+00 0.  1.
          2    1    6    6  502    0  0.57031614108E+03  0.32990776857E+02 -0.82810441739E+02  0.57724038442E+03  0.00000000000E+00 0. -1.
          3    1    5    5  503    0 -0.69159099247E+02 -0.34490555333E+03 -0.23022663751E+03  0.42041304255E+03  0.00000000000E+00 0. -1.
         -4    1    5    5    0  503 -0.36767842095E+02 -0.54823295846E+02 -0.18731422363E+02  0.68617302217E+02  0.00000000000E+00 0.  1.
         -1    1    6    6    0  502  0.11849932413E+03  0.12100977833E+02 -0.55216715923E+02  0.13129131426E+03  0.00000000000E+00 0.  1.
<mgrwt>
<rscale>  0 0.21420148E+04</rscale>
<asrwt>0</asrwt>
<pdfrwt beam="1">  1        1 0.73729300E-01 0.21420148E+04</pdfrwt>
<pdfrwt beam="2">  1       -1 0.36822911E+00 0.21420148E+04</pdfrwt>
<totfact> 0.50624393E-01</totfact>
</mgrwt>
</event>
<event>
12    1  0.1598876E-007  0.2122167E+04  0.7818608E-02  0.8551541E-01
         -1   -1    0    0    0  501 -0.00000000000E+00  0.00000000000E+00  0.32398498977E+03  0.32398498977E+03  0.00000000000E+00 0.  1.
          1   -1    0    0  501    0  0.00000000000E+00 -0.00000000000E+00 -0.34751558690E+04  0.34751558690E+04  0.00000000000E+00 0. -1.
         23    2    1    2    0    0 -0.73369288896E+03 -0.47038402308E+03 -0.14958381157E+04  0.17333218374E+04  0.85478296343E+02 0.  0.
        254    2    1    2    0    0  0.73369288896E+03  0.47038402308E+03 -0.16553327635E+04  0.20658190214E+04  0.87630775791E+03 0.  0.
        -24    2    4    4    0    0  0.25681575301E+03  0.71839136303E+02  0.17953571981E+02  0.27921217783E+03  0.80758386588E+02 0.  0.
         24    2    4    4    0    0  0.47687713595E+03  0.39854488678E+03 -0.16732863355E+04  0.17866068435E+04  0.76334941077E+02 0.  0.
         13    1    3    3    0    0 -0.75853614030E+02 -0.25117486100E+02 -0.16749806586E+03  0.18558087438E+03  0.00000000000E+00 0. -1.
        -13    1    3    3    0    0 -0.65783927493E+03 -0.44526653698E+03 -0.13283400498E+04  0.15477409630E+04  0.00000000000E+00 0.  1.
          2    1    6    6  502    0  0.74297083208E+02  0.10052089847E+03 -0.35575757121E+03  0.37707818431E+03  0.00000000000E+00 0. -1.
          3    1    5    5  503    0  0.48027539648E+02  0.35130712629E+02 -0.22090094955E+02  0.63472701452E+02  0.00000000000E+00 0. -1.
         -4    1    5    5    0  503  0.20878821336E+03  0.36708423674E+02  0.40043666936E+02  0.21573947638E+03  0.00000000000E+00 0.  1.
         -1    1    6    6    0  502  0.40258005274E+03  0.29802398831E+03 -0.13175287643E+04  0.14095286592E+04  0.00000000000E+00 0.  1.
<mgrwt>
<rscale>  0 0.21221671E+04</rscale>
<asrwt>0</asrwt>
<pdfrwt beam="1">  1        1 0.53463939E+00 0.21221671E+04</pdfrwt>
<pdfrwt beam="2">  1       -1 0.49843842E-01 0.21221671E+04</pdfrwt>
<totfact> 0.97200587E-01</totfact>
</mgrwt>
</event>
<event>
12    1  0.1598876E-007  0.1652093E+04  0.7818608E-02  0.8789169E-01
          1   -1    0    0  501    0  0.00000000000E+00  0.00000000000E+00  0.28394818531E+04  0.28394818531E+04  0.00000000000E+00 0. -1.
         -1   -1    0    0    0  501 -0.00000000000E+00 -0.00000000000E+00 -0.24030904105E+03  0.24030904105E+03  0.00000000000E+00 0.  1.
         23    2    1    2    0    0  0.48800169258E+03  0.35960092025E+02  0.34276856857E+03  0.60451088959E+03  0.92218999444E+02 0.  0.
        254    2    1    2    0    0 -0.48800169258E+03 -0.35960092025E+02  0.22564042434E+04  0.24752800045E+04  0.89230724009E+03 0.  0.
        -24    2    4    4    0    0  0.11541866527E+02  0.14576741246E+03  0.16757111973E+04  0.16840440358E+04  0.81332308100E+02 0.  0.
         24    2    4    4    0    0 -0.49954355911E+03 -0.18172750448E+03  0.58069304610E+03  0.79123596873E+03  0.79254596635E+02 0.  0.
         13    1    3    3    0    0  0.88903817173E+02 -0.29129077326E+02  0.62644109165E+02  0.11259074681E+03  0.00000000000E+00 0. -1.
        -13    1    3    3    0    0  0.39909787541E+03  0.65089169351E+02  0.28012445940E+03  0.49192014278E+03  0.00000000000E+00 0.  1.
          4    1    6    6  502    0 -0.21661066084E+03 -0.53330371000E+02  0.19782771833E+03  0.29816121981E+03  0.00000000000E+00 0. -1.
          1    1    5    5  503    0  0.22363130818E+02  0.56083434595E+02  0.10625734623E+04  0.10642874725E+04  0.00000000000E+00 0. -1.
         -2    1    5    5    0  503 -0.10821264291E+02  0.89683977863E+02  0.61313773502E+03  0.61975656329E+03  0.00000000000E+00 0.  1.
         -3    1    6    6    0  502 -0.28293289827E+03 -0.12839713348E+03  0.38286532777E+03  0.49307474892E+03  0.00000000000E+00 0.  1.
<mgrwt>
<rscale>  0 0.16520934E+04</rscale>
<asrwt>0</asrwt>
<pdfrwt beam="1">  1        1 0.43684334E+00 0.16520934E+04</pdfrwt>
<pdfrwt beam="2">  1       -1 0.36970624E-01 0.16520934E+04</pdfrwt>
<totfact> 0.52635101E+00</totfact>
</mgrwt>
</event>
<event>
12    1  0.1598876E-007  0.2204434E+04  0.7818608E-02  0.8516585E-01
         -2   -1    0    0    0  501 -0.00000000000E+00  0.00000000000E+00  0.73377928803E+03  0.73377928803E+03  0.00000000000E+00 0. -1.
          2   -1    0    0  501    0  0.00000000000E+00 -0.00000000000E+00 -0.16556507860E+04  0.16556507860E+04  0.00000000000E+00 0.  1.
         23    2    1    2    0    0  0.21691621712E+03 -0.77724546805E+03  0.81075482479E+02  0.81614236699E+03  0.91389093926E+02 0.  0.
        254    2    1    2    0    0 -0.21691621712E+03  0.77724546805E+03 -0.10029469804E+04  0.15732877070E+04  0.90452661689E+03 0.  0.
        -24    2    4    4    0    0 -0.53670042215E+03  0.62006186003E+03 -0.82357242127E+03  0.11649904548E+04  0.80044820354E+02 0.  0.
         24    2    4    4    0    0  0.31978420503E+03  0.15718360801E+03 -0.17937455916E+03  0.40829725223E+03  0.86964298942E+02 0.  0.
         13    1    3    3    0    0  0.20535270096E+03 -0.77284656236E+03  0.81147967715E+02  0.80377019937E+03  0.00000000000E+00 0.  1.
        -13    1    3    3    0    0  0.11563516167E+02 -0.43989056873E+01 -0.72485235970E-01  0.12372167615E+02  0.00000000000E+00 0. -1.
          4    1    6    6  502    0  0.23694479170E+03  0.89714612647E+02 -0.89564282543E+02  0.26872533699E+03  0.00000000000E+00 0. -1.
          1    1    5    5  503    0 -0.39224075373E+03  0.44309072537E+03 -0.64245034428E+03  0.87345557681E+03  0.00000000000E+00 0. -1.
         -2    1    5    5    0  503 -0.14445966843E+03  0.17697113466E+03 -0.18112207700E+03  0.29153487799E+03  0.00000000000E+00 0.  1.
         -3    1    6    6    0  502  0.82839413334E+02  0.67468995365E+02 -0.89810276617E+02  0.13957191524E+03  0.00000000000E+00 0.  1.
<mgrwt>
<rscale>  0 0.22044339E+04</rscale>
<asrwt>0</asrwt>
<pdfrwt beam="1">  1        2 0.25471550E+00 0.22044339E+04</pdfrwt>
<pdfrwt beam="2">  1       -2 0.11288912E+00 0.22044339E+04</pdfrwt>
<totfact> 0.58522471E+00</totfact>
</mgrwt>
</event>
<event>
12    1  0.1598876E-007  0.1653584E+04  0.7818608E-02  0.8788289E-01
          1   -1    0    0  501    0  0.00000000000E+00  0.00000000000E+00  0.97652406201E+03  0.97652406201E+03  0.00000000000E+00 0. -1.
         -1   -1    0    0    0  501 -0.00000000000E+00 -0.00000000000E+00 -0.70001840284E+03  0.70001840284E+03  0.00000000000E+00 0.  1.
         23    2    1    2    0    0  0.55067059749E+03  0.12361996060E+03 -0.28105758324E+02  0.57246192595E+03  0.91666359220E+02 0.  0.
        254    2    1    2    0    0 -0.55067059749E+03 -0.12361996060E+03  0.30461141749E+03  0.11040805389E+04  0.89871336872E+03 0.  0.
        -24    2    4    4    0    0 -0.41124888691E+02  0.34868119460E+03  0.83135415876E+02  0.36997669404E+03  0.81862230733E+02 0.  0.
         24    2    4    4    0    0 -0.50954570880E+03 -0.47230115520E+03  0.22147600161E+03  0.73410384486E+03  0.84567282060E+02 0.  0.
         11    1    3    3    0    0  0.86659644579E+02  0.11080566839E+02 -0.37094261855E+02  0.94913946407E+02  0.00000000000E+00 0.  1.
        -11    1    3    3    0    0  0.46401095291E+03  0.11253939376E+03  0.89885035315E+01  0.47754797954E+03  0.00000000000E+00 0. -1.
          4    1    6    6  502    0 -0.22653816205E+03 -0.20805241592E+03  0.54195971577E+02  0.31231802697E+03  0.00000000000E+00 0. -1.
          1    1    5    5  503    0  0.18690251971E+02  0.72026239443E+02  0.37317919515E+02  0.83245010685E+02  0.00000000000E+00 0. -1.
         -2    1    5    5    0  503 -0.59815140662E+02  0.27665495516E+03  0.45817496361E+02  0.28673168335E+03  0.00000000000E+00 0.  1.
         -3    1    6    6    0  502 -0.28300754675E+03 -0.26424873927E+03  0.16728003004E+03  0.42178581789E+03  0.00000000000E+00 0.  1.
<mgrwt>
<rscale>  0 0.16535838E+04</rscale>
<asrwt>0</asrwt>
<pdfrwt beam="1">  1        1 0.15023447E+00 0.16535838E+04</pdfrwt>
<pdfrwt beam="2">  1       -1 0.10769514E+00 0.16535838E+04</pdfrwt>
<totfact> 0.12103516E+01</totfact>
</mgrwt>
</event>
<event>
12    1  0.1598876E-007  0.1690359E+04  0.7818608E-02  0.8766882E-01
          2   -1    0    0  501    0  0.00000000000E+00  0.00000000000E+00  0.15338381030E+04  0.15338381030E+04  0.00000000000E+00 0.  1.
         -2   -1    0    0    0  501 -0.00000000000E+00 -0.00000000000E+00 -0.46571305744E+03  0.46571305744E+03  0.00000000000E+00 0. -1.
         23    2    1    2    0    0 -0.41965106028E+03 -0.18567079861E+02  0.89051067576E+03  0.98832878954E+03  0.85631674885E+02 0.  0.
        254    2    1    2    0    0  0.41965106028E+03  0.18567079861E+02  0.17761436976E+03  0.10112223709E+04  0.90253646472E+03 0.  0.
        -24    2    4    4    0    0  0.26636216575E+03  0.31246808946E+03  0.42045277162E+03  0.59286091518E+03  0.78220338234E+02 0.  0.
         24    2    4    4    0    0  0.15328889453E+03 -0.29390100960E+03 -0.24283840186E+03  0.41836145568E+03  0.78616344075E+02 0.  0.
         11    1    3    3    0    0 -0.23075589508E+03 -0.49923358410E+02  0.45586580779E+03  0.51337535931E+03  0.00000000000E+00 0. -1.
        -11    1    3    3    0    0 -0.18889516520E+03  0.31356278549E+02  0.43464486797E+03  0.47495343023E+03  0.00000000000E+00 0.  1.
          4    1    6    6  502    0  0.11419345807E+03 -0.18504915571E+03 -0.11506348998E+03  0.24601411061E+03  0.00000000000E+00 0. -1.
          1    1    5    5  503    0  0.22982141461E+03  0.30227616865E+03  0.37534629857E+03  0.53392284892E+03  0.00000000000E+00 0. -1.
         -2    1    5    5    0  503  0.36540751137E+02  0.10191920804E+02  0.45106473049E+02  0.58938066258E+02  0.00000000000E+00 0.  1.
         -3    1    6    6    0  502  0.39095436466E+02 -0.10885185388E+03 -0.12777491188E+03  0.17234734507E+03  0.00000000000E+00 0.  1.
<mgrwt>
<rscale>  0 0.16903591E+04</rscale>
<asrwt>0</asrwt>
<pdfrwt beam="1">  1        2 0.23597509E+00 0.16903591E+04</pdfrwt>
<pdfrwt beam="2">  1       -2 0.71648164E-01 0.16903591E+04</pdfrwt>
<totfact> 0.20433128E+01</totfact>
</mgrwt>
</event>
<event>
12    1  0.1598876E-007  0.1793613E+04  0.7818608E-02  0.8709704E-01
          2   -1    0    0  501    0  0.00000000000E+00  0.00000000000E+00  0.17347992241E+04  0.17347992241E+04  0.00000000000E+00 0.  1.
         -2   -1    0    0    0  501 -0.00000000000E+00 -0.00000000000E+00 -0.46360499468E+03  0.46360499468E+03  0.00000000000E+00 0. -1.
         23    2    1    2    0    0  0.22095830535E+03  0.14073692710E+03 -0.27169875469E+03  0.38825045851E+03  0.91042571796E+02 0.  0.
        254    2    1    2    0    0 -0.22095830535E+03 -0.14073692710E+03  0.15428929841E+04  0.18101537602E+04  0.90967489799E+03 0.  0.
        -24    2    4    4    0    0 -0.17177118664E+03  0.86904680435E+02 -0.35835291807E+02  0.21231527287E+03  0.82072181122E+02 0.  0.
         24    2    4    4    0    0 -0.49187118703E+02 -0.22764160754E+03  0.15787282759E+04  0.15978384874E+04  0.80403908357E+02 0.  0.
         11    1    3    3    0    0  0.22823515834E+03  0.14336281698E+03 -0.26251171174E+03  0.37624006113E+03  0.00000000000E+00 0. -1.
        -11    1    3    3    0    0 -0.72768529915E+01 -0.26258898797E+01 -0.91870429498E+01  0.12010397382E+02  0.00000000000E+00 0.  1.
          2    1    6    6  502    0 -0.45653046297E+02 -0.14940826022E+03  0.79483166585E+03  0.81003975575E+03  0.00000000000E+00 0. -1.
          1    1    5    5  503    0 -0.52823378107E+02  0.64477411810E+02  0.76374979059E+01  0.83701716127E+02  0.00000000000E+00 0. -1.
         -2    1    5    5    0  503 -0.11894780854E+03  0.22427268626E+02 -0.43472789713E+02  0.12861355675E+03  0.00000000000E+00 0.  1.
         -1    1    6    6    0  502 -0.35340724059E+01 -0.78233347319E+02  0.78389661005E+03  0.78779873162E+03  0.00000000000E+00 0.  1.
<mgrwt>
<rscale>  0 0.17936127E+04</rscale>
<asrwt>0</asrwt>
<pdfrwt beam="1">  1        2 0.26689218E+00 0.17936127E+04</pdfrwt>
<pdfrwt beam="2">  1       -2 0.71323847E-01 0.17936127E+04</pdfrwt>
<totfact> 0.15804617E+01</totfact>
</mgrwt>
</event>
<event>
12    1  0.1598876E-007  0.2340746E+04  0.7818608E-02  0.8462027E-01
         -2   -1    0    0    0  501 -0.00000000000E+00  0.00000000000E+00  0.40791444336E+03  0.40791444336E+03  0.00000000000E+00 0. -1.
          2   -1    0    0  501    0  0.00000000000E+00 -0.00000000000E+00 -0.33579898639E+04  0.33579898639E+04  0.00000000000E+00 0.  1.
         23    2    1    2    0    0 -0.60690830877E+03 -0.42720873009E+03 -0.23459564462E+04  0.24621941672E+04  0.89685421464E+02 0.  0.
        254    2    1    2    0    0  0.60690830877E+03  0.42720873009E+03 -0.60411897436E+03  0.13037101402E+04  0.88535608657E+03 0.  0.
        -24    2    4    4    0    0  0.68934389490E+02 -0.24568955158E+03 -0.25637212239E+03  0.37116767603E+03  0.83207408206E+02 0.  0.
         24    2    4    4    0    0  0.53797391928E+03  0.67289828167E+03 -0.34774685197E+03  0.93254246412E+03  0.80619718631E+02 0.  0.
         13    1    3    3    0    0 -0.44877873655E+03 -0.27489051911E+03 -0.17299480307E+04  0.18082276795E+04  0.00000000000E+00 0.  1.
        -13    1    3    3    0    0 -0.15812957222E+03 -0.15231821098E+03 -0.61600841553E+03  0.65396648768E+03  0.00000000000E+00 0. -1.
          4    1    6    6  502    0  0.45001294329E+03  0.60257870523E+03 -0.29066054596E+03  0.80628549417E+03  0.00000000000E+00 0. -1.
          1    1    5    5  503    0  0.29427701146E+02 -0.14403380247E+03 -0.20051785184E+03  0.24863454056E+03  0.00000000000E+00 0. -1.
         -2    1    5    5    0  503  0.39506688344E+02 -0.10165574911E+03 -0.55854270544E+02  0.12253313547E+03  0.00000000000E+00 0.  1.
         -3    1    6    6    0  502  0.87960975989E+02  0.70319576439E+02 -0.57086306019E+02  0.12625696996E+03  0.00000000000E+00 0.  1.
<mgrwt>
<rscale>  0 0.23407457E+04</rscale>
<asrwt>0</asrwt>
<pdfrwt beam="1">  1        2 0.51661381E+00 0.23407457E+04</pdfrwt>
<pdfrwt beam="2">  1       -2 0.62756070E-01 0.23407457E+04</pdfrwt>
<totfact> 0.21697255E+00</totfact>
</mgrwt>
</event>
<event>
12    1  0.1598876E-007  0.1486482E+04  0.7818608E-02  0.8893492E-01
         -2   -1    0    0    0  501 -0.00000000000E+00  0.00000000000E+00  0.33125941939E+03  0.33125941939E+03  0.00000000000E+00 0.  1.
          2   -1    0    0  501    0  0.00000000000E+00 -0.00000000000E+00 -0.16675967632E+04  0.16675967632E+04  0.00000000000E+00 0. -1.
         23    2    1    2    0    0  0.38265002070E+03 -0.27080439576E+03 -0.41742522455E+03  0.63256818946E+03  0.78374977627E+02 0.  0.
        254    2    1    2    0    0 -0.38265002070E+03  0.27080439576E+03 -0.91891211929E+03  0.13662879932E+04  0.89587238946E+03 0.  0.
        -24    2    4    4    0    0  0.12907566542E+02  0.36566095855E+03 -0.87289987251E+03  0.95025867795E+03  0.84633478698E+02 0.  0.
         24    2    4    4    0    0 -0.39555758724E+03 -0.94856562789E+02 -0.46012246779E+02  0.41602931521E+03  0.74159907852E+02 0.  0.
         13    1    3    3    0    0  0.33625941269E+03 -0.22672212113E+03 -0.39096818185E+03  0.56332000857E+03  0.00000000000E+00 0. -1.
        -13    1    3    3    0    0  0.46390608009E+02 -0.44082274631E+02 -0.26457042697E+02  0.69248180888E+02  0.00000000000E+00 0.  1.
          4    1    6    6  502    0 -0.16228940407E+03 -0.14895228655E+02  0.95628157096E+01  0.16325184824E+03  0.00000000000E+00 0. -1.
          1    1    5    5  503    0  0.19360462291E+02  0.22190593814E+03 -0.62645123474E+03  0.66487459147E+03  0.00000000000E+00 0. -1.
         -2    1    5    5    0  503 -0.64528957489E+01  0.14375502041E+03 -0.24644863777E+03  0.28538408648E+03  0.00000000000E+00 0.  1.
         -3    1    6    6    0  502 -0.23326818317E+03 -0.79961334134E+02 -0.55575062489E+02  0.25277746697E+03  0.00000000000E+00 0.  1.
<mgrwt>
<rscale>  0 0.14864819E+04</rscale>
<asrwt>0</asrwt>
<pdfrwt beam="1">  1        2 0.25655335E+00 0.14864819E+04</pdfrwt>
<pdfrwt beam="2">  1       -2 0.50962987E-01 0.14864819E+04</pdfrwt>
<totfact> 0.35978637E+01</totfact>
</mgrwt>
</event>
<event>
12    1  0.1598876E-007  0.2739114E+04  0.7818608E-02  0.8322424E-01
         -2   -1    0    0    0  501 -0.00000000000E+00  0.00000000000E+00  0.11502339930E+04  0.11502339930E+04  0.00000000000E+00 0.  1.
          2   -1    0    0  501    0  0.00000000000E+00 -0.00000000000E+00 -0.16306997896E+04  0.16306997896E+04  0.00000000000E+00 0. -1.
         23    2    1    2    0    0  0.10653002482E+04  0.56865093048E+03 -0.37376819191E+03  0.12672320097E+04  0.89139247429E+02 0.  0.
        254    2    1    2    0    0 -0.10653002482E+04 -0.56865093048E+03 -0.10669760472E+03  0.15137017729E+04  0.90646576256E+03 0.  0.
        -24    2    4    4    0    0 -0.98974499512E+03 -0.48710918513E+03 -0.41098839907E+03  0.11801615945E+04  0.83662485157E+02 0.  0.
         24    2    4    4    0    0 -0.75555253117E+02 -0.81541745349E+02  0.30429079435E+03  0.33354017834E+03  0.79363156029E+02 0.  0.
         13    1    3    3    0    0  0.19464710780E+03  0.71823190937E+02 -0.45387126866E+02  0.21238186979E+03  0.00000000000E+00 0.  1.
        -13    1    3    3    0    0  0.87065314044E+03  0.49682773954E+03 -0.32838106504E+03  0.10548501399E+04  0.00000000000E+00 0. -1.
          2    1    6    6  502    0  0.76980979135E+01 -0.40550593108E+02  0.12531404858E+03  0.13193643199E+03  0.00000000000E+00 0. -1.
          1    1    5    5  503    0 -0.85600485283E+03 -0.42152422540E+03 -0.32403419116E+03  0.10076830542E+04  0.00000000000E+00 0. -1.
         -2    1    5    5    0  503 -0.13374014229E+03 -0.65584959732E+02 -0.86954207907E+02  0.17247854033E+03  0.00000000000E+00 0.  1.
         -1    1    6    6    0  502 -0.83253351031E+02 -0.40991152241E+02  0.17897674576E+03  0.20160374635E+03  0.00000000000E+00 0.  1.
<mgrwt>
<rscale>  0 0.27391140E+04</rscale>
<asrwt>0</asrwt>
<pdfrwt beam="1">  1        2 0.25087689E+00 0.27391140E+04</pdfrwt>
<pdfrwt beam="2">  1       -2 0.17695908E+00 0.27391140E+04</pdfrwt>
<totfact> 0.17848390E+00</totfact>
</mgrwt>
</event>
<event>
12    1  0.1598876E-007  0.3096996E+04  0.7818608E-02  0.8216563E-01
          1   -1    0    0  501    0  0.00000000000E+00  0.00000000000E+00  0.30010418880E+04  0.30010418880E+04  0.00000000000E+00 0.  1.
         -1   -1    0    0    0  501 -0.00000000000E+00 -0.00000000000E+00 -0.79900438267E+03  0.79900438267E+03  0.00000000000E+00 0. -1.
         23    2    1    2    0    0  0.67166607383E+03 -0.10801378458E+04  0.24093105875E+03  0.12975864563E+04  0.88598848217E+02 0.  0.
        254    2    1    2    0    0 -0.67166607383E+03  0.10801378458E+04  0.19611064465E+04  0.25024598143E+04  0.89360704294E+03 0.  0.
        -24    2    4    4    0    0 -0.25055210497E+03  0.84945069065E+03  0.64309538823E+03  0.10974281471E+04  0.80212383446E+02 0.  0.
         24    2    4    4    0    0 -0.42111396886E+03  0.23068715511E+03  0.13180110583E+04  0.14050316673E+04  0.80045599080E+02 0.  0.
         13    1    3    3    0    0  0.92619638029E+02 -0.15738309508E+03  0.66361356885E+02  0.19429787866E+03  0.00000000000E+00 0.  1.
        -13    1    3    3    0    0  0.57904643580E+03 -0.92275475067E+03  0.17456970186E+03  0.11032885776E+04  0.00000000000E+00 0. -1.
          2    1    6    6  502    0 -0.68698318816E+02  0.20091603715E+02  0.27414769165E+03  0.28333741085E+03  0.00000000000E+00 0. -1.
          1    1    5    5  503    0 -0.30203036952E+02  0.41770428468E+02  0.46346753422E+02  0.69318206038E+02  0.00000000000E+00 0. -1.
         -2    1    5    5    0  503 -0.22034906801E+03  0.80768026218E+03  0.59674863481E+03  0.10281099410E+04  0.00000000000E+00 0.  1.
         -1    1    6    6    0  502 -0.35241565004E+03  0.21059555139E+03  0.10438633667E+04  0.11216942564E+04  0.00000000000E+00 0.  1.
<mgrwt>
<rscale>  0 0.30969957E+04</rscale>
<asrwt>0</asrwt>
<pdfrwt beam="1">  1        1 0.46169874E+00 0.30969957E+04</pdfrwt>
<pdfrwt beam="2">  1       -1 0.12292375E+00 0.30969957E+04</pdfrwt>
<totfact> 0.29358928E-01</totfact>
</mgrwt>
</event>
<event>
12    1  0.1598876E-007  0.3110593E+04  0.7818608E-02  0.8212837E-01
         -1   -1    0    0    0  501 -0.00000000000E+00  0.00000000000E+00  0.74359681228E+03  0.74359681228E+03  0.00000000000E+00 0.  1.
          1   -1    0    0  501    0  0.00000000000E+00 -0.00000000000E+00 -0.32530350873E+04  0.32530350873E+04  0.00000000000E+00 0. -1.
         23    2    1    2    0    0  0.29848609301E+03 -0.18339096489E+03  0.62921323839E+03  0.72580447145E+03  0.90314105714E+02 0.  0.
        254    2    1    2    0    0 -0.29848609301E+03  0.18339096489E+03 -0.31386515134E+04  0.32708274281E+04  0.85114778286E+03 0.  0.
        -24    2    4    4    0    0 -0.47886540745E+03 -0.72115037588E+02 -0.25745555847E+04  0.26209027260E+04  0.79258967041E+02 0.  0.
         24    2    4    4    0    0  0.18037931444E+03  0.25550600248E+03 -0.56409592871E+03  0.64992470203E+03  0.79861675089E+02 0.  0.
         13    1    3    3    0    0  0.20139329009E+03 -0.14796792747E+03  0.51062251130E+03  0.56849724177E+03  0.00000000000E+00 0.  1.
        -13    1    3    3    0    0  0.97092802916E+02 -0.35423037421E+02  0.11859072709E+03  0.15730722968E+03  0.00000000000E+00 0. -1.
          2    1    6    6  502    0  0.61533142311E+01  0.47417447541E+02 -0.54019396881E+02  0.72141339375E+02  0.00000000000E+00 0. -1.
          1    1    5    5  503    0 -0.91614036909E+02 -0.35992582873E+02 -0.65350751640E+03  0.66087871185E+03  0.00000000000E+00 0. -1.
         -2    1    5    5    0  503 -0.38725137054E+03 -0.36122454714E+02 -0.19210480682E+04  0.19600240142E+04  0.00000000000E+00 0.  1.
         -1    1    6    6    0  502  0.17422600021E+03  0.20808855494E+03 -0.51007653183E+03  0.57778336266E+03  0.00000000000E+00 0.  1.
<mgrwt>
<rscale>  0 0.31105926E+04</rscale>
<asrwt>0</asrwt>
<pdfrwt beam="1">  1        1 0.50046694E+00 0.31105926E+04</pdfrwt>
<pdfrwt beam="2">  1       -1 0.11439951E+00 0.31105926E+04</pdfrwt>
<totfact> 0.22696636E-01</totfact>
</mgrwt>
</event>
<event>
12    1  0.1598876E-007  0.1292508E+04  0.7818608E-02  0.9035527E-01
         -1   -1    0    0    0  501 -0.00000000000E+00  0.00000000000E+00  0.36199286627E+03  0.36199286627E+03  0.00000000000E+00 0.  1.
          1   -1    0    0  501    0  0.00000000000E+00 -0.00000000000E+00 -0.11537362875E+04  0.11537362875E+04  0.00000000000E+00 0. -1.
         23    2    1    2    0    0  0.10070056940E+03  0.50454035839E+02  0.13813125996E+03  0.20078335164E+03  0.92452663079E+02 0.  0.
        254    2    1    2    0    0 -0.10070056940E+03 -0.50454035839E+02 -0.92987468120E+03  0.13149458021E+04  0.92289182759E+03 0.  0.
        -24    2    4    4    0    0  0.13396196163E+02  0.36717562033E+03 -0.12225190729E+03  0.39509626446E+03  0.78473786186E+02 0.  0.
         24    2    4    4    0    0 -0.11409676556E+03 -0.41762965617E+03 -0.80762277390E+03  0.91984953768E+03  0.80224842913E+02 0.  0.
         13    1    3    3    0    0  0.11742800531E+02 -0.25921038517E+02  0.25845121939E+02  0.38441695203E+02  0.00000000000E+00 0. -1.
        -13    1    3    3    0    0  0.88957768869E+02  0.76375074356E+02  0.11228613802E+03  0.16234165644E+03  0.00000000000E+00 0.  1.
          4    1    6    6  502    0 -0.15148410610E+02 -0.95888042784E+01 -0.17266491896E+02  0.24890786526E+02  0.00000000000E+00 0. -1.
          3    1    5    5  503    0  0.24559028942E+02  0.11519495998E+03 -0.71580907021E+02  0.13782906427E+03  0.00000000000E+00 0. -1.
         -4    1    5    5    0  503 -0.11162832779E+02  0.25198066035E+03 -0.50671000269E+02  0.25726720019E+03  0.00000000000E+00 0.  1.
         -3    1    6    6    0  502 -0.98948354953E+02 -0.40804085189E+03 -0.79035628201E+03  0.89495875116E+03  0.00000000000E+00 0.  1.
<mgrwt>
<rscale>  0 0.12925081E+04</rscale>
<asrwt>0</asrwt>
<pdfrwt beam="1">  1        1 0.17749790E+00 0.12925081E+04</pdfrwt>
<pdfrwt beam="2">  1       -1 0.55691209E-01 0.12925081E+04</pdfrwt>
<totfact> 0.37047595E+01</totfact>
</mgrwt>
</event>
<event>
12    1  0.1598876E-007  0.2088903E+04  0.7818608E-02  0.8566147E-01
          1   -1    0    0  501    0  0.00000000000E+00  0.00000000000E+00  0.86758612664E+03  0.86758612664E+03  0.00000000000E+00 0.  1.
         -1   -1    0    0    0  501 -0.00000000000E+00 -0.00000000000E+00 -0.12573725746E+04  0.12573725746E+04  0.00000000000E+00 0. -1.
         23    2    1    2    0    0  0.24347178496E+03  0.18366006745E+02  0.66486328744E+03  0.71419318206E+03  0.91721807845E+02 0.  0.
        254    2    1    2    0    0 -0.24347178496E+03 -0.18366006745E+02 -0.10546497354E+04  0.14107655191E+04  0.90463112117E+03 0.  0.
        -24    2    4    4    0    0  0.13715991634E+03 -0.29944103414E+03 -0.11832880928E+03  0.35905633006E+03  0.80261855683E+02 0.  0.
         24    2    4    4    0    0 -0.38063170130E+03  0.28107502739E+03 -0.93632092609E+03  0.10517091891E+04  0.74240680714E+02 0.  0.
         11    1    3    3    0    0  0.19196518663E+03  0.49642554071E+02  0.46679499745E+03  0.50716130146E+03  0.00000000000E+00 0.  1.
        -11    1    3    3    0    0  0.51506598330E+02 -0.31276547326E+02  0.19806828999E+03  0.20703188060E+03  0.00000000000E+00 0. -1.
          2    1    6    6  502    0 -0.96408627062E+02  0.34192552840E+02 -0.21222411475E+03  0.23559038377E+03  0.00000000000E+00 0. -1.
          3    1    5    5  503    0  0.18721023081E+02 -0.12125134433E+03 -0.23026486011E+02  0.12483022176E+03  0.00000000000E+00 0. -1.
         -4    1    5    5    0  503  0.11843889326E+03 -0.17818968981E+03 -0.95302323264E+02  0.23422610830E+03  0.00000000000E+00 0.  1.
         -1    1    6    6    0  502 -0.28422307424E+03  0.24688247455E+03 -0.72409681134E+03  0.81611880530E+03  0.00000000000E+00 0.  1.
<mgrwt>
<rscale>  0 0.20889031E+04</rscale>
<asrwt>0</asrwt>
<pdfrwt beam="1">  1        1 0.13347479E+00 0.20889031E+04</pdfrwt>
<pdfrwt beam="2">  1       -1 0.19344193E+00 0.20889031E+04</pdfrwt>
<totfact> 0.29784273E+00</totfact>
</mgrwt>
</event>
<event>
12    1  0.1598876E-007  0.3093001E+04  0.7818608E-02  0.8217661E-01
         -1   -1    0    0    0  501 -0.00000000000E+00  0.00000000000E+00  0.17606438287E+04  0.17606438287E+04  0.00000000000E+00 0.  1.
          1   -1    0    0  501    0  0.00000000000E+00 -0.00000000000E+00 -0.13584032175E+04  0.13584032175E+04  0.00000000000E+00 0. -1.
         23    2    1    2    0    0  0.52892584711E+03  0.14509499189E+03 -0.11674786433E+04  0.12936663988E+04  0.98748470492E+02 0.  0.
        254    2    1    2    0    0 -0.52892584711E+03 -0.14509499189E+03  0.15697192545E+04  0.18253806474E+04  0.75311410933E+03 0.  0.
        -24    2    4    4    0    0 -0.60775783231E+03 -0.29381730411E+03  0.14583151576E+04  0.16088815959E+04  0.78222119016E+02 0.  0.
         24    2    4    4    0    0  0.78831985198E+02  0.14872231222E+03  0.11140409691E+03  0.21649905152E+03  0.78282555251E+02 0.  0.
         11    1    3    3    0    0  0.49004603176E+02  0.11773477936E+02 -0.19033308914E+03  0.19689273916E+03  0.00000000000E+00 0.  1.
        -11    1    3    3    0    0  0.47992124394E+03  0.13332151396E+03 -0.97714555413E+03  0.10967736596E+04  0.00000000000E+00 0. -1.
          2    1    6    6  502    0  0.51892304404E+02  0.12283766843E+03  0.45785060068E+02  0.14098998463E+03  0.00000000000E+00 0. -1.
          3    1    5    5  503    0 -0.56154972094E+03 -0.24657765086E+03  0.13273665865E+04  0.14622040494E+04  0.00000000000E+00 0. -1.
         -4    1    5    5    0  503 -0.46208111372E+02 -0.47239653255E+02  0.13094857106E+03  0.14667754654E+03  0.00000000000E+00 0.  1.
         -1    1    6    6    0  502  0.26939680795E+02  0.25884643791E+02  0.65619036841E+02  0.75509066883E+02  0.00000000000E+00 0.  1.
<mgrwt>
<rscale>  0 0.30930013E+04</rscale>
<asrwt>0</asrwt>
<pdfrwt beam="1">  1        1 0.20898511E+00 0.30930013E+04</pdfrwt>
<pdfrwt beam="2">  1       -1 0.27086828E+00 0.30930013E+04</pdfrwt>
<totfact> 0.35395907E-01</totfact>
</mgrwt>
</event>
<event>
12    1  0.1598876E-007  0.2223125E+04  0.7818608E-02  0.8508864E-01
         -1   -1    0    0    0  501 -0.00000000000E+00  0.00000000000E+00  0.19820025722E+04  0.19820025722E+04  0.00000000000E+00 0.  1.
          1   -1    0    0  501    0  0.00000000000E+00 -0.00000000000E+00 -0.62339527571E+03  0.62339527571E+03  0.00000000000E+00 0. -1.
         23    2    1    2    0    0 -0.53752576338E+03 -0.23185174476E+03  0.14302295906E+04  0.15480150615E+04  0.90026501669E+02 0.  0.
        254    2    1    2    0    0  0.53752576338E+03  0.23185174476E+03 -0.71622294027E+02  0.10573827865E+04  0.87763285392E+03 0.  0.
        -24    2    4    4    0    0  0.24076568205E+03  0.52913611122E+03 -0.18466389944E+03  0.61516404259E+03  0.79830480915E+02 0.  0.
         24    2    4    4    0    0  0.29676008132E+03 -0.29728436646E+03  0.11304160541E+03  0.44221874388E+03  0.79589399264E+02 0.  0.
         11    1    3    3    0    0 -0.39565552608E+02 -0.10336183009E+02  0.53539499330E+02  0.67370228001E+02  0.00000000000E+00 0. -1.
        -11    1    3    3    0    0 -0.49796021077E+03 -0.22151556175E+03  0.13766900912E+04  0.14806448335E+04  0.00000000000E+00 0.  1.
          4    1    6    6  502    0  0.22284487806E+01 -0.17999814623E+02  0.17564047238E+02  0.25247872501E+02  0.00000000000E+00 0. -1.
          1    1    5    5  503    0  0.13308556289E+03  0.31678156929E+03 -0.69001664191E+02  0.35046192283E+03  0.00000000000E+00 0. -1.
         -2    1    5    5    0  503  0.10768011917E+03  0.21235454193E+03 -0.11566223525E+03  0.26470211976E+03  0.00000000000E+00 0.  1.
         -3    1    6    6    0  502  0.29453163254E+03 -0.27928455184E+03  0.95477558177E+02  0.41697087138E+03  0.00000000000E+00 0.  1.
<mgrwt>
<rscale>  0 0.22231249E+04</rscale>
<asrwt>0</asrwt>
<pdfrwt beam="1">  1        1 0.95906966E-01 0.22231249E+04</pdfrwt>
<pdfrwt beam="2">  1       -1 0.30492347E+00 0.22231249E+04</pdfrwt>
<totfact> 0.90465234E-01</totfact>
</mgrwt>
</event>
<event>
12    1  0.1598876E-007  0.1643308E+04  0.7818608E-02  0.8794375E-01
          1   -1    0    0  501    0  0.00000000000E+00  0.00000000000E+00  0.21816670791E+04  0.21816670791E+04  0.00000000000E+00 0. -1.
         -1   -1    0    0    0  501 -0.00000000000E+00 -0.00000000000E+00 -0.30944945987E+03  0.30944945987E+03  0.00000000000E+00 0.  1.
         23    2    1    2    0    0  0.38364645225E+03 -0.64167412023E+02  0.73062822363E+02  0.41180105373E+03  0.11375357027E+03 0.  0.
        254    2    1    2    0    0 -0.38364645225E+03  0.64167412023E+02  0.17991547969E+04  0.20793154852E+04  0.96710539601E+03 0.  0.
        -24    2    4    4    0    0  0.30866210896E+03 -0.13516986179E+02  0.77364246571E+03  0.83685396587E+03  0.79667364790E+02 0.  0.
         24    2    4    4    0    0 -0.69230856122E+03  0.77684398202E+02  0.10255123311E+04  0.12424615194E+04  0.81908950184E+02 0.  0.
         13    1    3    3    0    0  0.69462826393E+02 -0.14681005215E+02 -0.30552156977E+02  0.77291981865E+02  0.00000000000E+00 0. -1.
        -13    1    3    3    0    0  0.31418362586E+03 -0.49486406808E+02  0.10361497934E+03  0.33450907187E+03  0.00000000000E+00 0.  1.
          4    1    6    6  502    0 -0.34793983552E+03  0.49184173969E+02  0.44669904480E+03  0.56834958321E+03  0.00000000000E+00 0. -1.
          1    1    5    5  503    0  0.18889440037E+03  0.13647722527E+02  0.55024593118E+03  0.58192606026E+03  0.00000000000E+00 0. -1.
         -4    1    5    5    0  503  0.11976770859E+03 -0.27164708706E+02  0.22339653453E+03  0.25492790561E+03  0.00000000000E+00 0.  1.
         -3    1    6    6    0  502 -0.34436872570E+03  0.28500224233E+02  0.57881328634E+03  0.67411193616E+03  0.00000000000E+00 0.  1.
<mgrwt>
<rscale>  0 0.16433085E+04</rscale>
<asrwt>0</asrwt>
<pdfrwt beam="1">  1        1 0.33564108E+00 0.16433085E+04</pdfrwt>
<pdfrwt beam="2">  1       -1 0.47607611E-01 0.16433085E+04</pdfrwt>
<totfact> 0.94512062E+00</totfact>
</mgrwt>
</event>
<event>
12    1  0.1598876E-007  0.1191607E+04  0.7818608E-02  0.9120235E-01
          1   -1    0    0  501    0  0.00000000000E+00  0.00000000000E+00  0.42944607962E+03  0.42944607962E+03  0.00000000000E+00 0. -1.
         -1   -1    0    0    0  501 -0.00000000000E+00 -0.00000000000E+00 -0.82660340321E+03  0.82660340321E+03  0.00000000000E+00 0.  1.
         23    2    1    2    0    0  0.23167737043E+03 -0.81763078758E+02 -0.77506914887E+02  0.27315519860E+03  0.90812089781E+02 0.  0.
        254    2    1    2    0    0 -0.23167737043E+03  0.81763078758E+02 -0.31965040871E+03  0.98289428423E+03  0.89640681901E+03 0.  0.
        -24    2    4    4    0    0 -0.17368817223E+03  0.38235488477E+03  0.11709334918E+03  0.44367664338E+03  0.82312042718E+02 0.  0.
         24    2    4    4    0    0 -0.57989198197E+02 -0.30059180602E+03 -0.43674375789E+03  0.53921764085E+03  0.79324480421E+02 0.  0.
         11    1    3    3    0    0  0.17774739532E+03 -0.78158326186E+02 -0.21562773491E+02  0.19536584577E+03  0.00000000000E+00 0.  1.
        -11    1    3    3    0    0  0.53929975111E+02 -0.36047525716E+01 -0.55944141396E+02  0.77789352826E+02  0.00000000000E+00 0. -1.
          2    1    6    6  502    0 -0.57847925013E+02 -0.26985134967E+03 -0.34116080059E+03  0.43881297292E+03  0.00000000000E+00 0. -1.
          1    1    5    5  503    0 -0.16716116263E+03  0.28538968859E+03  0.92293966286E+02  0.34337778737E+03  0.00000000000E+00 0. -1.
         -2    1    5    5    0  503 -0.65270095990E+01  0.96965196186E+02  0.24799382898E+02  0.10029885601E+03  0.00000000000E+00 0.  1.
         -1    1    6    6    0  502 -0.14127318399E+00 -0.30740456344E+02 -0.95582957305E+02  0.10040466793E+03  0.00000000000E+00 0.  1.
<mgrwt>
<rscale>  0 0.11916066E+04</rscale>
<asrwt>0</asrwt>
<pdfrwt beam="1">  1        1 0.66068628E-01 0.11916066E+04</pdfrwt>
<pdfrwt beam="2">  1       -1 0.12716975E+00 0.11916066E+04</pdfrwt>
<totfact> 0.28965205E+01</totfact>
</mgrwt>
</event>
<event>
12    1  0.1716085E-007  0.1749250E+04  0.7818608E-02  0.8733763E-01
         -2   -1    0    0    0  501 -0.00000000000E+00  0.00000000000E+00  0.89080142851E+03  0.89080142851E+03  0.00000000000E+00 0.  1.
          2   -1    0    0  501    0  0.00000000000E+00 -0.00000000000E+00 -0.85874265957E+03  0.85874265957E+03  0.00000000000E+00 0. -1.
         23    2    1    2    0    0  0.51073480761E+03  0.39442635701E+03 -0.26724309046E+02  0.65245198918E+03  0.92505214338E+02 0.  0.
        254    2    1    2    0    0 -0.51073480761E+03 -0.39442635701E+03  0.58783077980E+02  0.10970920989E+04  0.88528720109E+03 0.  0.
        -24    2    4    4    0    0 -0.27468641025E+03 -0.52574653257E+03 -0.27582199046E+03  0.65903208007E+03  0.79896631101E+02 0.  0.
         24    2    4    4    0    0 -0.23604839737E+03  0.13132017556E+03  0.33460506844E+03  0.43806001883E+03  0.83499663860E+02 0.  0.
         11    1    3    3    0    0  0.47462927912E+02  0.84786549775E+01 -0.10037983586E+02  0.49248129210E+02  0.00000000000E+00 0. -1.
        -11    1    3    3    0    0  0.46327187970E+03  0.38594770203E+03 -0.16686325460E+02  0.60320385997E+03  0.00000000000E+00 0.  1.
          2    1    6    6  502    0 -0.23974200618E+03  0.13685528906E+03  0.32752717793E+03  0.42834524855E+03  0.00000000000E+00 0. -1.
          1    1    5    5  503    0 -0.24644507429E+03 -0.50664259318E+03 -0.26871547925E+03  0.62420341288E+03  0.00000000000E+00 0. -1.
         -2    1    5    5    0  503 -0.28241335952E+02 -0.19103939388E+02 -0.71065112121E+01  0.34828667189E+02  0.00000000000E+00 0.  1.
         -1    1    6    6    0  502  0.36936088146E+01 -0.55351135030E+01  0.70778905128E+01  0.97147702843E+01  0.00000000000E+00 0.  1.
<mgrwt>
<rscale>  0 0.17492503E+04</rscale>
<asrwt>0</asrwt>
<pdfrwt beam="1">  1        2 0.13211426E+00 0.17492503E+04</pdfrwt>
<pdfrwt beam="2">  1       -2 0.13704637E+00 0.17492503E+04</pdfrwt>
<totfact> 0.11258031E+01</totfact>
</mgrwt>
</event>
<event>
12    1  0.1651703E-007  0.2319636E+04  0.7818608E-02  0.8470219E-01
         -2   -1    0    0    0  501 -0.00000000000E+00  0.00000000000E+00  0.96384047245E+03  0.96384047245E+03  0.00000000000E+00 0. -1.
          2   -1    0    0  501    0  0.00000000000E+00 -0.00000000000E+00 -0.13956442020E+04  0.13956442020E+04  0.00000000000E+00 0.  1.
         23    2    1    2    0    0  0.82665119675E+03 -0.30820084182E+03 -0.64510510529E+03  0.10967378017E+04  0.91286629498E+02 0.  0.
        254    2    1    2    0    0 -0.82665119675E+03  0.30820084182E+03  0.21330137578E+03  0.12627468727E+04  0.87789078349E+03 0.  0.
        -24    2    4    4    0    0 -0.34675854876E+03  0.58433546035E+03  0.90513829078E+02  0.69007790991E+03  0.79532050918E+02 0.  0.
         24    2    4    4    0    0 -0.47989264799E+03 -0.27613461853E+03  0.12278754670E+03  0.57266896284E+03  0.79534132519E+02 0.  0.
         11    1    3    3    0    0  0.58474630094E+03 -0.22326985126E+03 -0.40529488079E+03  0.74568197198E+03  0.00000000000E+00 0. -1.
        -11    1    3    3    0    0  0.24190489581E+03 -0.84930990562E+02 -0.23981022450E+03  0.35105582968E+03  0.00000000000E+00 0.  1.
          2    1    6    6  502    0 -0.34944309213E+03 -0.17043468846E+03  0.11115737527E+03  0.40436916270E+03  0.00000000000E+00 0. -1.
          1    1    5    5  503    0 -0.34248193808E+03  0.58383905564E+03  0.83719509875E+02  0.68203436653E+03  0.00000000000E+00 0. -1.
         -2    1    5    5    0  503 -0.42766106832E+01  0.49640471352E+00  0.67943192027E+01  0.80435433737E+01  0.00000000000E+00 0.  1.
         -1    1    6    6    0  502 -0.13044955586E+03 -0.10569993007E+03  0.11630171433E+02  0.16829980014E+03  0.00000000000E+00 0.  1.
<mgrwt>
<rscale>  0 0.23196365E+04</rscale>
<asrwt>0</asrwt>
<pdfrwt beam="1">  1        2 0.21471449E+00 0.23196365E+04</pdfrwt>
<pdfrwt beam="2">  1       -2 0.14828315E+00 0.23196365E+04</pdfrwt>
<totfact> 0.40699936E+00</totfact>
</mgrwt>
</event>
<event>
12    1  0.1598876E-007  0.1548678E+04  0.7818608E-02  0.8852712E-01
          2   -1    0    0  501    0  0.00000000000E+00  0.00000000000E+00  0.19246468412E+04  0.19246468412E+04  0.00000000000E+00 0. -1.
         -2   -1    0    0    0  501 -0.00000000000E+00 -0.00000000000E+00 -0.31153820023E+03  0.31153820023E+03  0.00000000000E+00 0.  1.
         23    2    1    2    0    0  0.21065956505E+03 -0.27283551345E+03  0.10804602841E+04  0.11377863548E+04  0.91360242848E+02 0.  0.
        254    2    1    2    0    0 -0.21065956505E+03  0.27283551345E+03  0.53264835691E+03  0.10983986866E+04  0.89663188262E+03 0.  0.
        -24    2    4    4    0    0 -0.40580068044E+03 -0.26088605368E+02 -0.43161925753E+02  0.41694513265E+03  0.81397077528E+02 0.  0.
         24    2    4    4    0    0  0.19514111540E+03  0.29892411882E+03  0.57581028267E+03  0.68145355398E+03  0.73387879654E+02 0.  0.
         11    1    3    3    0    0  0.21286473689E+03 -0.27637960503E+03  0.10365610646E+04  0.10936891345E+04  0.00000000000E+00 0. -1.
        -11    1    3    3    0    0 -0.22051718412E+01  0.35440915736E+01  0.43899219487E+02  0.44097220315E+02  0.00000000000E+00 0.  1.
          4    1    6    6  502    0  0.94861556587E+02  0.20748609284E+03  0.34198161478E+03  0.41109684806E+03  0.00000000000E+00 0. -1.
          1    1    5    5  503    0 -0.13400675300E+03 -0.37247222985E+02 -0.40669153838E+02  0.14491081928E+03  0.00000000000E+00 0. -1.
         -2    1    5    5    0  503 -0.27179392744E+03  0.11158617617E+02 -0.24927719155E+01  0.27203431338E+03  0.00000000000E+00 0.  1.
         -3    1    6    6    0  502  0.10027955881E+03  0.91438025986E+02  0.23382866789E+03  0.27035670592E+03  0.00000000000E+00 0.  1.
<mgrwt>
<rscale>  0 0.15486782E+04</rscale>
<asrwt>0</asrwt>
<pdfrwt beam="1">  1        2 0.29609951E+00 0.15486782E+04</pdfrwt>
<pdfrwt beam="2">  1       -2 0.47928955E-01 0.15486782E+04</pdfrwt>
<totfact> 0.29218158E+01</totfact>
</mgrwt>
</event>
<event>
12    1  0.1598876E-007  0.1374766E+04  0.7818608E-02  0.8972290E-01
         -2   -1    0    0    0  501 -0.00000000000E+00  0.00000000000E+00  0.20939444813E+03  0.20939444813E+03  0.00000000000E+00 0.  1.
          2   -1    0    0  501    0  0.00000000000E+00 -0.00000000000E+00 -0.22564840467E+04  0.22564840467E+04  0.00000000000E+00 0. -1.
         23    2    1    2    0    0 -0.89616065564E+02 -0.33206507387E+03 -0.29586622123E+03  0.46538335912E+03  0.10366579762E+03 0.  0.
        254    2    1    2    0    0  0.89616065564E+02  0.33206507387E+03 -0.17512233774E+04  0.20004951357E+04  0.90382477180E+03 0.  0.
        -24    2    4    4    0    0 -0.20760472335E+03 -0.10944287540E+03 -0.12176293957E+04  0.12426892520E+04  0.81103437365E+02 0.  0.
         24    2    4    4    0    0  0.29722078891E+03  0.44150794927E+03 -0.53359398166E+03  0.75780588375E+03  0.79232275936E+02 0.  0.
         13    1    3    3    0    0 -0.15796505313E+02 -0.59490924709E+02 -0.11381881436E+03  0.12939637632E+03  0.00000000000E+00 0. -1.
        -13    1    3    3    0    0 -0.73819560252E+02 -0.27257414916E+03 -0.18204740687E+03  0.33598698280E+03  0.00000000000E+00 0.  1.
          4    1    6    6  502    0  0.26775985886E+03  0.36574389048E+03 -0.48131087760E+03  0.66115361025E+03  0.00000000000E+00 0. -1.
          3    1    5    5  503    0 -0.20279432207E+03 -0.10900771365E+03 -0.12159811733E+04  0.12375857274E+04  0.00000000000E+00 0. -1.
         -4    1    5    5    0  503 -0.48104012749E+01 -0.43516174875E+00 -0.16482223468E+01  0.51035245741E+01  0.00000000000E+00 0.  1.
         -1    1    6    6    0  502  0.29460930054E+02  0.75764058788E+02 -0.52283104058E+02  0.96652273505E+02  0.00000000000E+00 0.  1.
<mgrwt>
<rscale>  0 0.13747658E+04</rscale>
<asrwt>0</asrwt>
<pdfrwt beam="1">  1        2 0.34715140E+00 0.13747658E+04</pdfrwt>
<pdfrwt beam="2">  1       -2 0.32214530E-01 0.13747658E+04</pdfrwt>
<totfact> 0.42054765E+01</totfact>
</mgrwt>
</event>
<event>
12    1  0.1598876E-007  0.2107363E+04  0.7818608E-02  0.8558007E-01
          1   -1    0    0  501    0  0.00000000000E+00  0.00000000000E+00  0.85222633303E+03  0.85222633303E+03  0.00000000000E+00 0. -1.
         -1   -1    0    0    0  501 -0.00000000000E+00 -0.00000000000E+00 -0.13027583067E+04  0.13027583067E+04  0.00000000000E+00 0.  1.
         23    2    1    2    0    0 -0.39479846900E+03  0.66164089255E+03 -0.52567292777E+03  0.93760972107E+03  0.95631899636E+02 0.  0.
        254    2    1    2    0    0  0.39479846900E+03 -0.66164089255E+03  0.75140954110E+02  0.12173749187E+04  0.93953234525E+03 0.  0.
        -24    2    4    4    0    0 -0.17194994546E+03 -0.65328297765E+02  0.30015880669E+03  0.36069931153E+03  0.78575529730E+02 0.  0.
         24    2    4    4    0    0  0.56674841445E+03 -0.59631259479E+03 -0.22501785258E+03  0.85667560713E+03  0.80421302442E+02 0.  0.
         13    1    3    3    0    0 -0.19539251093E+03  0.33475636331E+03 -0.32198376775E+03  0.50389840523E+03  0.00000000000E+00 0.  1.
        -13    1    3    3    0    0 -0.19940595806E+03  0.32688452924E+03 -0.20368916002E+03  0.43371131583E+03  0.00000000000E+00 0. -1.
          4    1    6    6  502    0  0.33531406684E+03 -0.38569300521E+03 -0.10645108120E+03  0.52204065970E+03  0.00000000000E+00 0. -1.
          3    1    5    5  503    0 -0.90974632466E+02  0.38576697260E+00  0.17936040561E+03  0.20111361881E+03  0.00000000000E+00 0. -1.
         -4    1    5    5    0  503 -0.80975312990E+02 -0.65714064737E+02  0.12079840107E+03  0.15958569272E+03  0.00000000000E+00 0.  1.
         -3    1    6    6    0  502  0.23143434761E+03 -0.21061958957E+03 -0.11856677137E+03  0.33463494743E+03  0.00000000000E+00 0.  1.
<mgrwt>
<rscale>  0 0.21073632E+04</rscale>
<asrwt>0</asrwt>
<pdfrwt beam="1">  1        1 0.13111174E+00 0.21073632E+04</pdfrwt>
<pdfrwt beam="2">  1       -1 0.20042435E+00 0.21073632E+04</pdfrwt>
<totfact> 0.27396541E+00</totfact>
</mgrwt>
</event>
<event>
12    1  0.1598876E-007  0.1488857E+04  0.7818608E-02  0.8891897E-01
          2   -1    0    0  501    0  0.00000000000E+00  0.00000000000E+00  0.13428585012E+04  0.13428585012E+04  0.00000000000E+00 0. -1.
         -2   -1    0    0    0  501 -0.00000000000E+00 -0.00000000000E+00 -0.41268243407E+03  0.41268243407E+03  0.00000000000E+00 0.  1.
         23    2    1    2    0    0 -0.86807783539E+02  0.31040750445E+03 -0.10650962988E+03  0.35172057365E+03  0.92057865317E+02 0.  0.
        254    2    1    2    0    0  0.86807783539E+02 -0.31040750445E+03  0.10366856970E+04  0.14038203616E+04  0.89000335009E+03 0.  0.
        -24    2    4    4    0    0 -0.25948195898E+03 -0.46890775433E+03  0.47472105027E+03  0.72031351796E+03  0.79285052070E+02 0.  0.
         24    2    4    4    0    0  0.34628974252E+03  0.15850024988E+03  0.56196464670E+03  0.68350684362E+03  0.79614233292E+02 0.  0.
         11    1    3    3    0    0 -0.86268666227E+02  0.31096755246E+03 -0.11545365434E+03  0.34274283035E+03  0.00000000000E+00 0.  1.
        -11    1    3    3    0    0 -0.53911731148E+00 -0.56004800953E+00  0.89440244562E+01  0.89777432978E+01  0.00000000000E+00 0. -1.
          2    1    6    6  502    0  0.24014939905E+03  0.14271872110E+03  0.37041376167E+03  0.46394689573E+03  0.00000000000E+00 0. -1.
          1    1    5    5  503    0 -0.16502945014E+03 -0.26942551485E+03  0.32715658280E+03  0.45481453048E+03  0.00000000000E+00 0. -1.
         -2    1    5    5    0  503 -0.94452508847E+02 -0.19948223948E+03  0.14756446747E+03  0.26549898748E+03  0.00000000000E+00 0.  1.
         -1    1    6    6    0  502  0.10614034347E+03  0.15781528775E+02  0.19155088503E+03  0.21955994789E+03  0.00000000000E+00 0.  1.
<mgrwt>
<rscale>  0 0.14888574E+04</rscale>
<asrwt>0</asrwt>
<pdfrwt beam="1">  1        2 0.20659361E+00 0.14888574E+04</pdfrwt>
<pdfrwt beam="2">  1       -2 0.63489606E-01 0.14888574E+04</pdfrwt>
<totfact> 0.34658164E+01</totfact>
</mgrwt>
</event>
<event>
12    1  0.1598876E-007  0.1968401E+04  0.7818608E-02  0.8621538E-01
         -1   -1    0    0    0  501 -0.00000000000E+00  0.00000000000E+00  0.45919148618E+03  0.45919148618E+03  0.00000000000E+00 0.  1.
          1   -1    0    0  501    0  0.00000000000E+00 -0.00000000000E+00 -0.21094707105E+04  0.21094707105E+04  0.00000000000E+00 0. -1.
         23    2    1    2    0    0  0.61082778013E+02  0.66971610105E+03 -0.13589682094E+03  0.69216336634E+03  0.91495453312E+02 0.  0.
        254    2    1    2    0    0 -0.61082778013E+02 -0.66971610105E+03 -0.15143824034E+04  0.18764988304E+04  0.88070598661E+03 0.  0.
        -24    2    4    4    0    0 -0.23581214919E+03 -0.64008427811E+03 -0.51557122793E+03  0.85878864337E+03  0.79931158707E+02 0.  0.
         24    2    4    4    0    0  0.17472937118E+03 -0.29631822945E+02 -0.99881117546E+03  0.10177101870E+04  0.81864903208E+02 0.  0.
         13    1    3    3    0    0  0.62153598590E+02  0.21461803355E+03 -0.37798097907E+02  0.22661126704E+03  0.00000000000E+00 0. -1.
        -13    1    3    3    0    0 -0.10708205773E+01  0.45509806750E+03 -0.98098723031E+02  0.46555209929E+03  0.00000000000E+00 0.  1.
          2    1    6    6  502    0  0.17040789294E+03 -0.44801725552E+02 -0.95563662926E+03  0.97174451981E+03  0.00000000000E+00 0. -1.
          3    1    5    5  503    0 -0.20875853792E+03 -0.61585751082E+03 -0.49296366169E+03  0.81601088996E+03  0.00000000000E+00 0. -1.
         -4    1    5    5    0  503 -0.27053611266E+02 -0.24226767292E+02 -0.22607566237E+02  0.42777753414E+02  0.00000000000E+00 0.  1.
         -1    1    6    6    0  502  0.43214782364E+01  0.15169902607E+02 -0.43174546200E+02  0.45965667175E+02  0.00000000000E+00 0.  1.
<mgrwt>
<rscale>  0 0.19684014E+04</rscale>
<asrwt>0</asrwt>
<pdfrwt beam="1">  1        1 0.32453396E+00 0.19684014E+04</pdfrwt>
<pdfrwt beam="2">  1       -1 0.70644844E-01 0.19684014E+04</pdfrwt>
<totfact> 0.47288078E+00</totfact>
</mgrwt>
</event>
<event>
12    1  0.1598876E-007  0.1887812E+04  0.7818608E-02  0.8660947E-01
          2   -1    0    0  501    0  0.00000000000E+00  0.00000000000E+00  0.15294842056E+04  0.15294842056E+04  0.00000000000E+00 0.  1.
         -2   -1    0    0    0  501 -0.00000000000E+00 -0.00000000000E+00 -0.58252225824E+03  0.58252225824E+03  0.00000000000E+00 0. -1.
         23    2    1    2    0    0 -0.23471091416E+03 -0.46114140844E+03  0.94646331005E+03  0.10825775230E+04  0.91873197004E+02 0.  0.
        254    2    1    2    0    0  0.23471091416E+03  0.46114140844E+03  0.49863728513E+00  0.10294289408E+04  0.88993431424E+03 0.  0.
        -24    2    4    4    0    0 -0.31678889705E+03  0.24934037468E+03  0.10563305982E+03  0.42425671369E+03  0.79432915412E+02 0.  0.
         24    2    4    4    0    0  0.55149981121E+03  0.21180103376E+03 -0.10513442254E+03  0.60517222708E+03  0.78539531193E+02 0.  0.
         13    1    3    3    0    0  0.21552910492E+01  0.28600889258E+01  0.14019047087E+02  0.14469245640E+02  0.00000000000E+00 0. -1.
        -13    1    3    3    0    0 -0.23686620521E+03 -0.46400149737E+03  0.93244426296E+03  0.10681082774E+04  0.00000000000E+00 0.  1.
          2    1    6    6  502    0  0.76108797669E+02  0.42037311370E+02  0.96880923735E+01  0.87484534426E+02  0.00000000000E+00 0. -1.
          1    1    5    5  503    0 -0.26369894277E+02  0.24835875057E+02  0.35148742249E+02  0.50474014064E+02  0.00000000000E+00 0. -1.
         -2    1    5    5    0  503 -0.29041900277E+03  0.22450449962E+03  0.70484317575E+02  0.37378269963E+03  0.00000000000E+00 0.  1.
         -1    1    6    6    0  502  0.47539101354E+03  0.16976372239E+03 -0.11482251491E+03  0.51768769265E+03  0.00000000000E+00 0.  1.
<mgrwt>
<rscale>  0 0.18878121E+04</rscale>
<asrwt>0</asrwt>
<pdfrwt beam="1">  1        2 0.23530526E+00 0.18878121E+04</pdfrwt>
<pdfrwt beam="2">  1       -2 0.89618810E-01 0.18878121E+04</pdfrwt>
<totfact> 0.12223143E+01</totfact>
</mgrwt>
</event>
<event>
12    1  0.1598876E-007  0.1555836E+04  0.7818608E-02  0.8848148E-01
         -2   -1    0    0    0  501 -0.00000000000E+00  0.00000000000E+00  0.31888021347E+03  0.31888021347E+03  0.00000000000E+00 0.  1.
          2   -1    0    0  501    0  0.00000000000E+00 -0.00000000000E+00 -0.18977556645E+04  0.18977556645E+04  0.00000000000E+00 0. -1.
         23    2    1    2    0    0 -0.41857150880E+03 -0.26692186239E+03 -0.36519574638E+03  0.62414089537E+03  0.98663749681E+02 0.  0.
        254    2    1    2    0    0  0.41857150880E+03  0.26692186239E+03 -0.12136797046E+04  0.15924949825E+04  0.90364398713E+03 0.  0.
        -24    2    4    4    0    0  0.36592492478E+03  0.46198542263E+03 -0.12378082239E+04  0.13735609772E+04  0.84669814831E+02 0.  0.
         24    2    4    4    0    0  0.52646584019E+02 -0.19506356024E+03  0.24128519292E+02  0.21893400539E+03  0.80798873307E+02 0.  0.
         11    1    3    3    0    0 -0.87723418419E+02 -0.70632077906E+02 -0.37226550881E+02  0.11861747198E+03  0.00000000000E+00 0. -1.
        -11    1    3    3    0    0 -0.33084809038E+03 -0.19628978448E+03 -0.32796919550E+03  0.50552342339E+03  0.00000000000E+00 0.  1.
          4    1    6    6  502    0  0.14282726485E+02 -0.19508142078E+02  0.30746222866E+02  0.39113860762E+02  0.00000000000E+00 0. -1.
          3    1    5    5  503    0  0.40919840666E+02  0.42273714031E+02 -0.75054828731E+02  0.95366281116E+02  0.00000000000E+00 0. -1.
         -4    1    5    5    0  503  0.32500508411E+03  0.41971170860E+03 -0.11627533952E+04  0.12781946960E+04  0.00000000000E+00 0.  1.
         -3    1    6    6    0  502  0.38363857535E+02 -0.17555541816E+03 -0.66177035744E+01  0.17982014462E+03  0.00000000000E+00 0.  1.
<mgrwt>
<rscale>  0 0.15558364E+04</rscale>
<asrwt>0</asrwt>
<pdfrwt beam="1">  1        2 0.29196240E+00 0.15558364E+04</pdfrwt>
<pdfrwt beam="2">  1       -2 0.49058495E-01 0.15558364E+04</pdfrwt>
<totfact> 0.28825785E+01</totfact>
</mgrwt>
</event>
<event>
12    1  0.1598876E-007  0.1929699E+04  0.7818608E-02  0.8640213E-01
          2   -1    0    0  501    0  0.00000000000E+00  0.00000000000E+00  0.16235818897E+04  0.16235818897E+04  0.00000000000E+00 0. -1.
         -2   -1    0    0    0  501 -0.00000000000E+00 -0.00000000000E+00 -0.57338328577E+03  0.57338328577E+03  0.00000000000E+00 0.  1.
         23    2    1    2    0    0  0.95812853347E+02 -0.34878368764E+03 -0.32968172542E+03  0.49767815313E+03  0.90351205822E+02 0.  0.
        254    2    1    2    0    0 -0.95812853347E+02  0.34878368764E+03  0.13798803293E+04  0.16992870223E+04  0.92340483934E+03 0.  0.
        -24    2    4    4    0    0  0.16489772057E+03 -0.15515968841E+03  0.43486702403E+02  0.24530144684E+03  0.83761085113E+02 0.  0.
         24    2    4    4    0    0 -0.26071057392E+03  0.50394337605E+03  0.13363936269E+04  0.14539855755E+04  0.78722283953E+02 0.  0.
         11    1    3    3    0    0  0.32910583434E+02 -0.11195229534E+03 -0.53227424273E+02  0.12825592239E+03  0.00000000000E+00 0. -1.
        -11    1    3    3    0    0  0.62902269913E+02 -0.23683139231E+03 -0.27645430115E+03  0.36942223074E+03  0.00000000000E+00 0.  1.
          2    1    6    6  502    0 -0.26740128218E+02  0.45143348192E+02  0.19208891495E+03  0.19912585867E+03  0.00000000000E+00 0. -1.
          3    1    5    5  503    0  0.97121190272E+02 -0.90575029690E+02  0.67039161378E+02  0.14876360698E+03  0.00000000000E+00 0. -1.
         -4    1    5    5    0  503  0.67776530300E+02 -0.64584658716E+02 -0.23552458975E+02  0.96537839860E+02  0.00000000000E+00 0.  1.
         -1    1    6    6    0  502 -0.23397044570E+03  0.45880002785E+03  0.11443047120E+04  0.12548597168E+04  0.00000000000E+00 0.  1.
<mgrwt>
<rscale>  0 0.19296992E+04</rscale>
<asrwt>0</asrwt>
<pdfrwt beam="1">  1        2 0.24978183E+00 0.19296992E+04</pdfrwt>
<pdfrwt beam="2">  1       -2 0.88212814E-01 0.19296992E+04</pdfrwt>
<totfact> 0.11187412E+01</totfact>
</mgrwt>
</event>
<event>
12    1  0.1598876E-007  0.2835225E+04  0.7818608E-02  0.8292415E-01
         -1   -1    0    0    0  501 -0.00000000000E+00  0.00000000000E+00  0.14616522542E+04  0.14616522542E+04  0.00000000000E+00 0.  1.
          1   -1    0    0  501    0  0.00000000000E+00 -0.00000000000E+00 -0.13748997515E+04  0.13748997515E+04  0.00000000000E+00 0. -1.
         23    2    1    2    0    0 -0.23257374166E+03  0.31515563505E+03  0.12503417727E+04  0.13134656267E+04  0.91781176625E+02 0.  0.
        254    2    1    2    0    0  0.23257374166E+03 -0.31515563505E+03 -0.11635892700E+04  0.15230863790E+04  0.90135370914E+03 0.  0.
        -24    2    4    4    0    0 -0.17713332646E+03 -0.26314593269E+03 -0.47832221997E+02  0.33059746741E+03  0.79904735551E+02 0.  0.
         24    2    4    4    0    0  0.40970706812E+03 -0.52009702357E+02 -0.11157570480E+04  0.11924889116E+04  0.80939009378E+02 0.  0.
         11    1    3    3    0    0  0.68411271257E+01  0.23503547756E+02  0.62105199912E+02  0.66755326630E+02  0.00000000000E+00 0. -1.
        -11    1    3    3    0    0 -0.23941486878E+03  0.29165208729E+03  0.11882365727E+04  0.12467103000E+04  0.00000000000E+00 0.  1.
          4    1    6    6  502    0  0.36980074834E+03 -0.23377892689E+02 -0.95373020064E+03  0.10231815161E+04  0.00000000000E+00 0. -1.
          1    1    5    5  503    0 -0.81157987918E+02 -0.12740383852E+03  0.17309575306E+02  0.15204597486E+03  0.00000000000E+00 0. -1.
         -2    1    5    5    0  503 -0.95975338542E+02 -0.13574209417E+03 -0.65141797303E+02  0.17855149255E+03  0.00000000000E+00 0.  1.
         -3    1    6    6    0  502  0.39906319779E+02 -0.28631809668E+02 -0.16202684739E+03  0.16930739546E+03  0.00000000000E+00 0.  1.
<mgrwt>
<rscale>  0 0.28352251E+04</rscale>
<asrwt>0</asrwt>
<pdfrwt beam="1">  1        1 0.21152304E+00 0.28352251E+04</pdfrwt>
<pdfrwt beam="2">  1       -1 0.22486958E+00 0.28352251E+04</pdfrwt>
<totfact> 0.70523153E-01</totfact>
</mgrwt>
</event>
<event>
12    1  0.1598876E-007  0.1692864E+04  0.7818608E-02  0.8765445E-01
         -2   -1    0    0    0  501 -0.00000000000E+00  0.00000000000E+00  0.35273811350E+03  0.35273811350E+03  0.00000000000E+00 0.  1.
          2   -1    0    0  501    0  0.00000000000E+00 -0.00000000000E+00 -0.20311027533E+04  0.20311027533E+04  0.00000000000E+00 0. -1.
         23    2    1    2    0    0  0.27256115871E+03 -0.27843990769E+03  0.29656074358E+02  0.40549967293E+03  0.10831497848E+03 0.  0.
        254    2    1    2    0    0 -0.27256115871E+03  0.27843990769E+03 -0.17080207142E+04  0.19783411939E+04  0.91906515109E+03 0.  0.
        -24    2    4    4    0    0 -0.48426635881E+03  0.47033523849E+03 -0.13576681540E+04  0.15184901688E+04  0.82585915606E+02 0.  0.
         24    2    4    4    0    0  0.21170520010E+03 -0.19189533079E+03 -0.35035256021E+03  0.45985102514E+03  0.84101956872E+02 0.  0.
         13    1    3    3    0    0  0.20024725221E+03 -0.18387693494E+03  0.68352397008E+02  0.28032434678E+03  0.00000000000E+00 0. -1.
        -13    1    3    3    0    0  0.72313906504E+02 -0.94562972750E+02 -0.38696322650E+02  0.12517532615E+03  0.00000000000E+00 0.  1.
          2    1    6    6  502    0  0.93128476368E+01 -0.49396985707E+01  0.37440278873E+01  0.11186934249E+02  0.00000000000E+00 0. -1.
          1    1    5    5  503    0 -0.26556188954E+03  0.20212969421E+03 -0.64389852959E+03  0.72524812779E+03  0.00000000000E+00 0. -1.
         -2    1    5    5    0  503 -0.21870446927E+03  0.26820554428E+03 -0.71376962440E+03  0.79324204098E+03  0.00000000000E+00 0.  1.
         -1    1    6    6    0  502  0.20239235246E+03 -0.18695563222E+03 -0.35409658810E+03  0.44866409089E+03  0.00000000000E+00 0.  1.
<mgrwt>
<rscale>  0 0.16928643E+04</rscale>
<asrwt>0</asrwt>
<pdfrwt beam="1">  1        2 0.31247735E+00 0.16928643E+04</pdfrwt>
<pdfrwt beam="2">  1       -2 0.54267402E-01 0.16928643E+04</pdfrwt>
<totfact> 0.19543435E+01</totfact>
</mgrwt>
</event>
<event>
12    1  0.1598876E-007  0.3248227E+04  0.7818608E-02  0.8176195E-01
          2   -1    0    0  501    0  0.00000000000E+00  0.00000000000E+00  0.44872220584E+04  0.44872220584E+04  0.00000000000E+00 0. -1.
         -2   -1    0    0    0  501 -0.00000000000E+00 -0.00000000000E+00 -0.58783465476E+03  0.58783465476E+03  0.00000000000E+00 0.  1.
         23    2    1    2    0    0 -0.89587317779E+02 -0.30287271173E+03  0.40870398738E+04  0.41002257823E+04  0.90547056116E+02 0.  0.
        254    2    1    2    0    0  0.89587317779E+02  0.30287271173E+03 -0.18765247008E+03  0.97483093087E+03  0.90295300389E+03 0.  0.
        -24    2    4    4    0    0  0.13631073524E+02 -0.16519343521E+03 -0.40641387202E+03  0.44609750552E+03  0.79724976364E+02 0.  0.
         24    2    4    4    0    0  0.75956244255E+02  0.46806614693E+03  0.21876140194E+03  0.52873342535E+03  0.82747901225E+02 0.  0.
         13    1    3    3    0    0  0.49777691454E+01 -0.81275146578E+02  0.72345448249E+03  0.72802253802E+03  0.00000000000E+00 0.  1.
        -13    1    3    3    0    0 -0.94565086925E+02 -0.22159756515E+03  0.33635853913E+04  0.33722032443E+04  0.00000000000E+00 0. -1.
          4    1    6    6  502    0  0.77669966231E+02  0.47130691309E+03  0.21661545018E+03  0.52448554150E+03  0.00000000000E+00 0. -1.
          1    1    5    5  503    0  0.43024812809E+02 -0.11778747960E+03 -0.31455650915E+03  0.33863080532E+03  0.00000000000E+00 0. -1.
         -2    1    5    5    0  503 -0.29393739285E+02 -0.47405955605E+02 -0.91857362877E+02  0.10746670019E+03  0.00000000000E+00 0.  1.
         -3    1    6    6    0  502 -0.17137219757E+01 -0.32407661565E+01  0.21459517574E+01  0.42478838539E+01  0.00000000000E+00 0.  1.
<mgrwt>
<rscale>  0 0.32482270E+04</rscale>
<asrwt>0</asrwt>
<pdfrwt beam="1">  1        2 0.69034183E+00 0.32482270E+04</pdfrwt>
<pdfrwt beam="2">  1       -2 0.90436104E-01 0.32482270E+04</pdfrwt>
<totfact> 0.11068142E-01</totfact>
</mgrwt>
</event>
<event>
12    1  0.1598876E-007  0.1706781E+04  0.7818608E-02  0.8757506E-01
          1   -1    0    0  501    0  0.00000000000E+00  0.00000000000E+00  0.43438887461E+03  0.43438887461E+03  0.00000000000E+00 0. -1.
         -1   -1    0    0    0  501 -0.00000000000E+00 -0.00000000000E+00 -0.16765524601E+04  0.16765524601E+04  0.00000000000E+00 0.  1.
         23    2    1    2    0    0  0.50435478240E+03 -0.33738222541E+03 -0.63540873976E+03  0.88321662677E+03  0.90148936184E+02 0.  0.
        254    2    1    2    0    0 -0.50435478240E+03  0.33738222541E+03 -0.60675484572E+03  0.12277247079E+04  0.87804100307E+03 0.  0.
        -24    2    4    4    0    0 -0.51263254228E+02  0.74380835284E+02  0.21716107815E+03  0.24817737025E+03  0.79200021140E+02 0.  0.
         24    2    4    4    0    0 -0.45309152817E+03  0.26300139013E+03 -0.82391592387E+03  0.97954733767E+03  0.78828123254E+02 0.  0.
         11    1    3    3    0    0  0.79371849617E+02 -0.93431307133E+02 -0.14615544052E+03  0.19076349875E+03  0.00000000000E+00 0. -1.
        -11    1    3    3    0    0  0.42498293278E+03 -0.24395091828E+03 -0.48925329924E+03  0.69245312802E+03  0.00000000000E+00 0.  1.
          2    1    6    6  502    0 -0.23336253625E+03  0.13889416012E+03 -0.49935125183E+03  0.56842003285E+03  0.00000000000E+00 0. -1.
          3    1    5    5  503    0 -0.71768222598E+02  0.60266625196E+02  0.15381973616E+03  0.18012011304E+03  0.00000000000E+00 0. -1.
         -4    1    5    5    0  503  0.20504968370E+02  0.14114210088E+02  0.63341341991E+02  0.68057257214E+02  0.00000000000E+00 0.  1.
         -1    1    6    6    0  502 -0.21972899192E+03  0.12410723001E+03 -0.32456467204E+03  0.41112730482E+03  0.00000000000E+00 0.  1.
<mgrwt>
<rscale>  0 0.17067815E+04</rscale>
<asrwt>0</asrwt>
<pdfrwt beam="1">  1        1 0.66829057E-01 0.17067815E+04</pdfrwt>
<pdfrwt beam="2">  1       -1 0.25793115E+00 0.17067815E+04</pdfrwt>
<totfact> 0.31626574E+00</totfact>
</mgrwt>
</event>
<event>
12    1  0.1598876E-007  0.1581484E+04  0.7818608E-02  0.8832004E-01
          2   -1    0    0  501    0  0.00000000000E+00  0.00000000000E+00  0.10050828625E+04  0.10050828625E+04  0.00000000000E+00 0. -1.
         -2   -1    0    0    0  501 -0.00000000000E+00 -0.00000000000E+00 -0.62211084442E+03  0.62211084442E+03  0.00000000000E+00 0.  1.
         23    2    1    2    0    0  0.10808035458E+03 -0.27166591638E+03 -0.32425742716E+03  0.44575274863E+03  0.89827059815E+02 0.  0.
        254    2    1    2    0    0 -0.10808035458E+03  0.27166591638E+03  0.70722944522E+03  0.11814409583E+04  0.90008083888E+03 0.  0.
        -24    2    4    4    0    0  0.12651513240E+03 -0.12909221832E+03  0.68128997546E+03  0.70934643604E+03  0.79658371230E+02 0.  0.
         24    2    4    4    0    0 -0.23459548699E+03  0.40075813470E+03  0.25939469760E+02  0.47209452223E+03  0.80983064821E+02 0.  0.
         13    1    3    3    0    0  0.10358850698E+03 -0.19274206960E+03 -0.18923957146E+03  0.28929517724E+03  0.00000000000E+00 0. -1.
        -13    1    3    3    0    0  0.44918476023E+01 -0.78923846780E+02 -0.13501785571E+03  0.15645757139E+03  0.00000000000E+00 0.  1.
          2    1    6    6  502    0 -0.15287149562E+03  0.31387250777E+03  0.42387342983E+02  0.35168498995E+03  0.00000000000E+00 0. -1.
          3    1    5    5  503    0 -0.71997723427E+01 -0.27074484872E+02  0.12938687046E+03  0.13238514531E+03  0.00000000000E+00 0. -1.
         -4    1    5    5    0  503  0.13371490475E+03 -0.10201773345E+03  0.55190310500E+03  0.57696129073E+03  0.00000000000E+00 0.  1.
         -1    1    6    6    0  502 -0.81723991369E+02  0.86885626922E+02 -0.16447873223E+02  0.12040953228E+03  0.00000000000E+00 0.  1.
<mgrwt>
<rscale>  0 0.15814840E+04</rscale>
<asrwt>0</asrwt>
<pdfrwt beam="1">  1        2 0.15462813E+00 0.15814840E+04</pdfrwt>
<pdfrwt beam="2">  1       -2 0.95709361E-01 0.15814840E+04</pdfrwt>
<totfact> 0.21992834E+01</totfact>
</mgrwt>
</event>
<event>
12    1  0.1598876E-007  0.1242806E+04  0.7818608E-02  0.9076192E-01
          1   -1    0    0  501    0  0.00000000000E+00  0.00000000000E+00  0.16168040082E+04  0.16168040082E+04  0.00000000000E+00 0. -1.
         -1   -1    0    0    0  501 -0.00000000000E+00 -0.00000000000E+00 -0.23883041168E+03  0.23883041168E+03  0.00000000000E+00 0.  1.
         23    2    1    2    0    0  0.27590690813E+02 -0.11705976763E+03  0.69860566637E+03  0.71468572660E+03  0.90893208311E+02 0.  0.
        254    2    1    2    0    0 -0.27590690813E+02  0.11705976763E+03  0.67936793017E+03  0.11409486933E+04  0.90871277132E+03 0.  0.
        -24    2    4    4    0    0 -0.46106251972E+03  0.47630911294E+02  0.35040380170E+03  0.58670893294E+03  0.81223130574E+02 0.  0.
         24    2    4    4    0    0  0.43347182891E+03  0.69428856332E+02  0.32896412847E+03  0.55423976036E+03  0.79032408484E+02 0.  0.
         13    1    3    3    0    0  0.58421538770E+02 -0.52725253552E+02  0.33155618408E+03  0.34076756265E+03  0.00000000000E+00 0. -1.
        -13    1    3    3    0    0 -0.30830847956E+02 -0.64334514074E+02  0.36704948229E+03  0.37391816395E+03  0.00000000000E+00 0.  1.
          2    1    6    6  502    0  0.28892920588E+03  0.60518329042E+02  0.17640289584E+03  0.34389029620E+03  0.00000000000E+00 0. -1.
          3    1    5    5  503    0 -0.42940892888E+03  0.65129012739E+02  0.32033677844E+03  0.53967533585E+03  0.00000000000E+00 0. -1.
         -4    1    5    5    0  503 -0.31653590837E+02 -0.17498101445E+02  0.30067023262E+02  0.47033597086E+02  0.00000000000E+00 0.  1.
         -3    1    6    6    0  502  0.14454262303E+03  0.89105272898E+01  0.15256123264E+03  0.21034946416E+03  0.00000000000E+00 0.  1.
<mgrwt>
<rscale>  0 0.12428064E+04</rscale>
<asrwt>0</asrwt>
<pdfrwt beam="1">  1        1 0.24873907E+00 0.12428064E+04</pdfrwt>
<pdfrwt beam="2">  1       -1 0.36743141E-01 0.12428064E+04</pdfrwt>
<totfact> 0.38116028E+01</totfact>
</mgrwt>
</event>
<event>
12    1  0.1598876E-007  0.1838766E+04  0.7818608E-02  0.8685951E-01
         -2   -1    0    0    0  501 -0.00000000000E+00  0.00000000000E+00  0.72436520410E+03  0.72436520410E+03  0.00000000000E+00 0.  1.
          2   -1    0    0  501    0  0.00000000000E+00 -0.00000000000E+00 -0.11669049800E+04  0.11669049800E+04  0.00000000000E+00 0. -1.
         23    2    1    2    0    0 -0.36742596323E+03  0.22478341207E+02 -0.78114428494E+03  0.86844969854E+03  0.92257090289E+02 0.  0.
        254    2    1    2    0    0  0.36742596323E+03 -0.22478341207E+02  0.33860450904E+03  0.10228204856E+04  0.89218922761E+03 0.  0.
        -24    2    4    4    0    0 -0.17986697656E+02 -0.22548788587E+03  0.49700145483E+03  0.55187277498E+03  0.79904979188E+02 0.  0.
         24    2    4    4    0    0  0.38541266089E+03  0.20300954467E+03 -0.15839694578E+03  0.47094771058E+03  0.83344821464E+02 0.  0.
         13    1    3    3    0    0 -0.32115144591E+03  0.14944194987E+02 -0.73692502221E+03  0.80400253018E+03  0.00000000000E+00 0. -1.
        -13    1    3    3    0    0 -0.46274517326E+02  0.75341462197E+01 -0.44219262735E+02  0.64447168362E+02  0.00000000000E+00 0.  1.
          2    1    6    6  502    0  0.34077431582E+03  0.18847612024E+03 -0.16611492653E+03  0.42337282747E+03  0.00000000000E+00 0. -1.
          3    1    5    5  503    0  0.49256109604E+01 -0.12825022080E+03  0.36090173445E+03  0.38304365640E+03  0.00000000000E+00 0. -1.
         -4    1    5    5    0  503 -0.22912308616E+02 -0.97237665073E+02  0.13609972037E+03  0.16882911858E+03  0.00000000000E+00 0.  1.
         -1    1    6    6    0  502  0.44638345073E+02  0.14533424424E+02  0.77179807418E+01  0.47574883112E+02  0.00000000000E+00 0.  1.
<mgrwt>
<rscale>  0 0.18387663E+04</rscale>
<asrwt>0</asrwt>
<pdfrwt beam="1">  1        2 0.17952384E+00 0.18387663E+04</pdfrwt>
<pdfrwt beam="2">  1       -2 0.11144080E+00 0.18387663E+04</pdfrwt>
<totfact> 0.11882247E+01</totfact>
</mgrwt>
</event>
<event>
12    1  0.1598876E-007  0.1593285E+04  0.7818608E-02  0.8824684E-01
         -2   -1    0    0    0  501 -0.00000000000E+00  0.00000000000E+00  0.26372411234E+03  0.26372411234E+03  0.00000000000E+00 0.  1.
          2   -1    0    0  501    0  0.00000000000E+00 -0.00000000000E+00 -0.24064513163E+04  0.24064513163E+04  0.00000000000E+00 0. -1.
         23    2    1    2    0    0 -0.10881235431E+02  0.14792138045E+03  0.13082343376E+03  0.21702970782E+03  0.89375540147E+02 0.  0.
        254    2    1    2    0    0  0.10881235431E+02 -0.14792138045E+03 -0.22735506378E+04  0.24531457209E+04  0.90933618054E+03 0.  0.
        -24    2    4    4    0    0  0.17275332555E+03  0.34594986252E+03 -0.89449408763E+03  0.97723813900E+03  0.73141565750E+02 0.  0.
         24    2    4    4    0    0 -0.16187209012E+03 -0.49387124297E+03 -0.13790565501E+04  0.14759075819E+04  0.79967765676E+02 0.  0.
         13    1    3    3    0    0  0.69659957758E+01  0.14874180338E+03  0.13218498107E+03  0.19911182383E+03  0.00000000000E+00 0.  1.
        -13    1    3    3    0    0 -0.17847231207E+02 -0.82042293098E+00 -0.13615473055E+01  0.17917883988E+02  0.00000000000E+00 0. -1.
          2    1    6    6  502    0  0.91915231852E+01 -0.29387086944E+02 -0.86340411435E+02  0.91666524011E+02  0.00000000000E+00 0. -1.
          1    1    5    5  503    0  0.38695484383E+02  0.85981375575E+02 -0.30373232434E+03  0.31803059963E+03  0.00000000000E+00 0. -1.
         -2    1    5    5    0  503  0.13405784117E+03  0.25996848695E+03 -0.59076176330E+03  0.65920753937E+03  0.00000000000E+00 0.  1.
         -1    1    6    6    0  502 -0.17106361330E+03 -0.46448415603E+03 -0.12927161387E+04  0.13842410578E+04  0.00000000000E+00 0.  1.
<mgrwt>
<rscale>  0 0.15932850E+04</rscale>
<asrwt>0</asrwt>
<pdfrwt beam="1">  1        2 0.37022329E+00 0.15932850E+04</pdfrwt>
<pdfrwt beam="2">  1       -2 0.40572939E-01 0.15932850E+04</pdfrwt>
<totfact> 0.21787416E+01</totfact>
</mgrwt>
</event>
<event>
12    1  0.1598876E-007  0.1817732E+04  0.7818608E-02  0.8696926E-01
          1   -1    0    0  501    0  0.00000000000E+00  0.00000000000E+00  0.16795144484E+04  0.16795144484E+04  0.00000000000E+00 0. -1.
         -1   -1    0    0    0  501 -0.00000000000E+00 -0.00000000000E+00 -0.49183112830E+03  0.49183112830E+03  0.00000000000E+00 0.  1.
         23    2    1    2    0    0 -0.37060882336E+03  0.23238799842E+03 -0.17610192188E+03  0.48059540432E+03  0.92762999101E+02 0.  0.
        254    2    1    2    0    0  0.37060882336E+03 -0.23238799842E+03  0.13637852420E+04  0.16907501724E+04  0.89853818918E+03 0.  0.
        -24    2    4    4    0    0 -0.28892700449E+03 -0.12100173252E+03  0.39343436318E+03  0.50949736958E+03  0.81711310615E+02 0.  0.
         24    2    4    4    0    0  0.65953582786E+03 -0.11138626590E+03  0.97035087880E+03  0.11812528028E+04  0.79893351927E+02 0.  0.
         13    1    3    3    0    0 -0.37610446422E+03  0.22849517884E+03 -0.17092805047E+03  0.47210275703E+03  0.00000000000E+00 0.  1.
        -13    1    3    3    0    0  0.54956408545E+01  0.38928195797E+01 -0.51738714089E+01  0.84926472926E+01  0.00000000000E+00 0. -1.
          4    1    6    6  502    0  0.10638350670E+03 -0.32059144496E+02  0.21074635736E+03  0.23824203321E+03  0.00000000000E+00 0. -1.
          1    1    5    5  503    0 -0.28493006084E+02 -0.43084617443E+02  0.55978336987E+02  0.76168956063E+02  0.00000000000E+00 0. -1.
         -2    1    5    5    0  503 -0.26043399841E+03 -0.77917115075E+02  0.33745602619E+03  0.43332841352E+03  0.00000000000E+00 0.  1.
         -3    1    6    6    0  502  0.55315232115E+03 -0.79327121406E+02  0.75960452144E+03  0.94301076960E+03  0.00000000000E+00 0.  1.
<mgrwt>
<rscale>  0 0.18177321E+04</rscale>
<asrwt>0</asrwt>
<pdfrwt beam="1">  1        1 0.25838684E+00 0.18177321E+04</pdfrwt>
<pdfrwt beam="2">  1       -1 0.75666328E-01 0.18177321E+04</pdfrwt>
<totfact> 0.81383774E+00</totfact>
</mgrwt>
</event>
<event>
12    1  0.1598876E-007  0.1190675E+04  0.7818608E-02  0.9121058E-01
          1   -1    0    0  501    0  0.00000000000E+00  0.00000000000E+00  0.11405087365E+04  0.11405087365E+04  0.00000000000E+00 0. -1.
         -1   -1    0    0    0  501 -0.00000000000E+00 -0.00000000000E+00 -0.31076187120E+03  0.31076187120E+03  0.00000000000E+00 0.  1.
         23    2    1    2    0    0 -0.14251613665E+03 -0.35371653861E+01 -0.59838261987E+02  0.17827816956E+03  0.88764448970E+02 0.  0.
        254    2    1    2    0    0  0.14251613665E+03  0.35371653861E+01  0.88958512732E+03  0.12729924382E+04  0.89934681193E+03 0.  0.
        -24    2    4    4    0    0 -0.22710741373E+02  0.34891009491E+03  0.72709999625E+02  0.36737339844E+03  0.86153570604E+02 0.  0.
         24    2    4    4    0    0  0.16522687802E+03 -0.34537292953E+03  0.81687512769E+03  0.90561903972E+03  0.79236918163E+02 0.  0.
         11    1    3    3    0    0 -0.33888033645E+02 -0.21557238955E+02 -0.54941851350E+02  0.68056744011E+02  0.00000000000E+00 0. -1.
        -11    1    3    3    0    0 -0.10862810300E+03  0.18020073569E+02 -0.48964106370E+01  0.11022142555E+03  0.00000000000E+00 0.  1.
          2    1    6    6  502    0  0.15536125178E+03 -0.25893516943E+03  0.67013407524E+03  0.73502667933E+03  0.00000000000E+00 0. -1.
          3    1    5    5  503    0  0.21700376878E+02  0.19538117262E+03  0.13899987114E+02  0.19707338383E+03  0.00000000000E+00 0. -1.
         -4    1    5    5    0  503 -0.44411118250E+02  0.15352892229E+03  0.58810012511E+02  0.17030001461E+03  0.00000000000E+00 0.  1.
         -1    1    6    6    0  502  0.98656262348E+01 -0.86437760094E+02  0.14674105245E+03  0.17059236039E+03  0.00000000000E+00 0.  1.
<mgrwt>
<rscale>  0 0.11906748E+04</rscale>
<asrwt>0</asrwt>
<pdfrwt beam="1">  1        1 0.17546288E+00 0.11906748E+04</pdfrwt>
<pdfrwt beam="2">  1       -1 0.47809519E-01 0.11906748E+04</pdfrwt>
<totfact> 0.51153278E+01</totfact>
</mgrwt>
</event>
<event>
12    1  0.1598876E-007  0.2501044E+04  0.7818608E-02  0.8402614E-01
          2   -1    0    0  501    0  0.00000000000E+00  0.00000000000E+00  0.18144367790E+04  0.18144367790E+04  0.00000000000E+00 0. -1.
         -2   -1    0    0    0  501 -0.00000000000E+00 -0.00000000000E+00 -0.86186799522E+03  0.86186799522E+03  0.00000000000E+00 0.  1.
         23    2    1    2    0    0 -0.67154664951E+03  0.83126876159E+03  0.61074769179E+03  0.12342085267E+04  0.90968609053E+02 0.  0.
        254    2    1    2    0    0  0.67154664951E+03 -0.83126876159E+03  0.34182109203E+03  0.14420962476E+04  0.90598966432E+03 0.  0.
        -24    2    4    4    0    0 -0.14657178132E+03 -0.20082145334E+03 -0.14181518087E+03  0.29884876503E+03  0.85944724297E+02 0.  0.
         24    2    4    4    0    0  0.81811843083E+03 -0.63044730825E+03  0.48363627290E+03  0.11432474825E+04  0.79556184767E+02 0.  0.
         13    1    3    3    0    0 -0.43685130908E+03  0.53389382990E+03  0.34376504631E+03  0.77075034539E+03  0.00000000000E+00 0. -1.
        -13    1    3    3    0    0 -0.23469534043E+03  0.29737493169E+03  0.26698264548E+03  0.46345818129E+03  0.00000000000E+00 0.  1.
          4    1    6    6  502    0  0.10612169361E+03 -0.50087726336E+02  0.54997324720E+02  0.12959668171E+03  0.00000000000E+00 0. -1.
          3    1    5    5  503    0  0.42609673784E+01 -0.46110928418E+02 -0.17060766427E+02  0.49350210877E+02  0.00000000000E+00 0. -1.
         -4    1    5    5    0  503 -0.15083274870E+03 -0.15471052492E+03 -0.12475441444E+03  0.24949855416E+03  0.00000000000E+00 0.  1.
         -3    1    6    6    0  502  0.71199673722E+03 -0.58035958192E+03  0.42863894818E+03  0.10136508008E+04  0.00000000000E+00 0.  1.
<mgrwt>
<rscale>  0 0.25010438E+04</rscale>
<asrwt>0</asrwt>
<pdfrwt beam="1">  1        2 0.27914412E+00 0.25010438E+04</pdfrwt>
<pdfrwt beam="2">  1       -2 0.13259508E+00 0.25010438E+04</pdfrwt>
<totfact> 0.31205766E+00</totfact>
</mgrwt>
</event>
<event>
12    1  0.1598876E-007  0.1588032E+04  0.7818608E-02  0.8827934E-01
          2   -1    0    0  501    0  0.00000000000E+00  0.00000000000E+00  0.15116560155E+04  0.15116560155E+04  0.00000000000E+00 0. -1.
         -2   -1    0    0    0  501 -0.00000000000E+00 -0.00000000000E+00 -0.41706677990E+03  0.41706677990E+03  0.00000000000E+00 0.  1.
         23    2    1    2    0    0  0.20205487029E+03  0.60188478929E+02  0.94750544593E+03  0.97495277638E+03  0.91200452321E+02 0.  0.
        254    2    1    2    0    0 -0.20205487029E+03 -0.60188478929E+02  0.14708378965E+03  0.95377001901E+03  0.91847416098E+03 0.  0.
        -24    2    4    4    0    0 -0.56145904853E+03  0.72591040665E+01  0.97658441494E+02  0.57617978788E+03  0.84599166614E+02 0.  0.
         24    2    4    4    0    0  0.35940417825E+03 -0.67447582996E+02  0.49425348161E+02  0.37759023113E+03  0.80068581928E+02 0.  0.
         13    1    3    3    0    0  0.20395618057E+00  0.21646235980E+02  0.55265230143E+02  0.59353574391E+02  0.00000000000E+00 0.  1.
        -13    1    3    3    0    0  0.20185091410E+03  0.38542242949E+02  0.89224021578E+03  0.91559920199E+03  0.00000000000E+00 0. -1.
          4    1    6    6  502    0  0.47824871957E+02 -0.52829247020E+01 -0.20443032515E+02  0.52278535266E+02  0.00000000000E+00 0. -1.
          3    1    5    5  503    0 -0.28835296215E+03  0.30178608988E+01  0.72251319687E+01  0.28845925327E+03  0.00000000000E+00 0. -1.
         -2    1    5    5    0  503 -0.27310608638E+03  0.42412431676E+01  0.90433309525E+02  0.28772053461E+03  0.00000000000E+00 0.  1.
         -3    1    6    6    0  502  0.31157930629E+03 -0.62164658294E+02  0.69868380677E+02  0.32531169587E+03  0.00000000000E+00 0.  1.
<mgrwt>
<rscale>  0 0.15880321E+04</rscale>
<asrwt>0</asrwt>
<pdfrwt beam="1">  1        2 0.23256246E+00 0.15880321E+04</pdfrwt>
<pdfrwt beam="2">  1       -2 0.64164121E-01 0.15880321E+04</pdfrwt>
<totfact> 0.26934770E+01</totfact>
</mgrwt>
</event>
<event>
12    1  0.1598876E-007  0.2505610E+04  0.7818608E-02  0.8400990E-01
          2   -1    0    0  501    0  0.00000000000E+00  0.00000000000E+00  0.87065891779E+03  0.87065891779E+03  0.00000000000E+00 0. -1.
         -2   -1    0    0    0  501 -0.00000000000E+00 -0.00000000000E+00 -0.18026807204E+04  0.18026807204E+04  0.00000000000E+00 0.  1.
         23    2    1    2    0    0 -0.30331378192E+03  0.44242247441E+03 -0.14201196134E+04  0.15207926853E+04  0.91289535184E+02 0.  0.
        254    2    1    2    0    0  0.30331378192E+03 -0.44242247441E+03  0.48809781074E+03  0.11525469529E+04  0.89576119007E+03 0.  0.
        -24    2    4    4    0    0 -0.18303476024E+03  0.11584029445E+03  0.31068293125E+03  0.38705858084E+03  0.79810801007E+02 0.  0.
         24    2    4    4    0    0  0.48634854215E+03 -0.55826276886E+03  0.17741487949E+03  0.76548837207E+03  0.79398896438E+02 0.  0.
         11    1    3    3    0    0 -0.20460145675E+03  0.25198385229E+03 -0.75133268278E+03  0.81844878772E+03  0.00000000000E+00 0. -1.
        -11    1    3    3    0    0 -0.98712325164E+02  0.19043862212E+03 -0.66878693061E+03  0.70234389759E+03  0.00000000000E+00 0.  1.
          4    1    6    6  502    0  0.45865375929E+03 -0.49120183844E+03  0.16266975031E+03  0.69145062344E+03  0.00000000000E+00 0. -1.
          1    1    5    5  503    0 -0.31310540524E+02 -0.26588708682E+01  0.16525657193E+02  0.35503758785E+02  0.00000000000E+00 0. -1.
         -2    1    5    5    0  503 -0.15172421971E+03  0.11849916532E+03  0.29415727405E+03  0.35155482205E+03  0.00000000000E+00 0.  1.
         -3    1    6    6    0  502  0.27694782868E+02 -0.67060930417E+02  0.14745129178E+02  0.74037748622E+02  0.00000000000E+00 0.  1.
<mgrwt>
<rscale>  0 0.25056097E+04</rscale>
<asrwt>0</asrwt>
<pdfrwt beam="1">  1        2 0.13394753E+00 0.25056097E+04</pdfrwt>
<pdfrwt beam="2">  1       -2 0.27733549E+00 0.25056097E+04</pdfrwt>
<totfact> 0.11967972E+00</totfact>
</mgrwt>
</event>
<event>
12    1  0.1598876E-007  0.2523990E+04  0.7818608E-02  0.8394488E-01
         -2   -1    0    0    0  501 -0.00000000000E+00  0.00000000000E+00  0.12394210167E+04  0.12394210167E+04  0.00000000000E+00 0.  1.
          2   -1    0    0  501    0  0.00000000000E+00 -0.00000000000E+00 -0.12849802686E+04  0.12849802686E+04  0.00000000000E+00 0. -1.
         23    2    1    2    0    0  0.20512520846E+03 -0.25087567753E+03 -0.10748163123E+04  0.11261831623E+04  0.89685300507E+02 0.  0.
        254    2    1    2    0    0 -0.20512520846E+03  0.25087567753E+03  0.10292570604E+04  0.13982181231E+04  0.88917313642E+03 0.  0.
        -24    2    4    4    0    0 -0.54436765721E+03  0.22144638159E+03  0.70629949431E+03  0.92230985269E+03  0.80136399778E+02 0.  0.
         24    2    4    4    0    0  0.33924244876E+03  0.29429295932E+02  0.32295756611E+03  0.47590827038E+03  0.78965624211E+02 0.  0.
         13    1    3    3    0    0  0.17640775634E+03 -0.15130483056E+03 -0.76129105054E+03  0.79597544679E+03  0.00000000000E+00 0. -1.
        -13    1    3    3    0    0  0.28717452120E+02 -0.99570846962E+02 -0.31352526172E+03  0.33020771547E+03  0.00000000000E+00 0.  1.
          2    1    6    6  502    0  0.14441139307E+03  0.43069037984E+02  0.17461922234E+03  0.23065442830E+03  0.00000000000E+00 0. -1.
          1    1    5    5  503    0 -0.53447661000E+03  0.20654779354E+03  0.69653120160E+03  0.90193289798E+03  0.00000000000E+00 0. -1.
         -2    1    5    5    0  503 -0.98910472113E+01  0.14898588051E+02  0.97682927095E+01  0.20376954712E+02  0.00000000000E+00 0.  1.
         -1    1    6    6    0  502  0.19483105569E+03 -0.13639742052E+02  0.14833834377E+03  0.24525384208E+03  0.00000000000E+00 0.  1.
<mgrwt>
<rscale>  0 0.25239901E+04</rscale>
<asrwt>0</asrwt>
<pdfrwt beam="1">  1        2 0.19768927E+00 0.25239901E+04</pdfrwt>
<pdfrwt beam="2">  1       -2 0.19068016E+00 0.25239901E+04</pdfrwt>
<totfact> 0.23031950E+00</totfact>
</mgrwt>
</event>
<event>
12    1  0.1598876E-007  0.1444695E+04  0.7818608E-02  0.8922087E-01
         -1   -1    0    0    0  501 -0.00000000000E+00  0.00000000000E+00  0.91539544389E+03  0.91539544389E+03  0.00000000000E+00 0.  1.
          1   -1    0    0  501    0  0.00000000000E+00 -0.00000000000E+00 -0.57001137245E+03  0.57001137245E+03  0.00000000000E+00 0. -1.
         23    2    1    2    0    0  0.19256815105E+03  0.38262483621E+03  0.34118396725E+02  0.43920227933E+03  0.90831267107E+02 0.  0.
        254    2    1    2    0    0 -0.19256815105E+03 -0.38262483621E+03  0.31126567472E+03  0.10462045370E+04  0.90231555174E+03 0.  0.
        -24    2    4    4    0    0 -0.26938903404E+03 -0.31267231818E+03  0.59796599561E+03  0.73099827142E+03  0.80378546270E+02 0.  0.
         24    2    4    4    0    0  0.76820882987E+02 -0.69952518028E+02 -0.28670032089E+03  0.31520626559E+03  0.79769123266E+02 0.  0.
         11    1    3    3    0    0  0.16226292223E+03  0.37179441771E+03  0.30215666458E+02  0.40678413375E+03  0.00000000000E+00 0.  1.
        -11    1    3    3    0    0  0.30305228827E+02  0.10830418502E+02  0.39027302669E+01  0.32418145578E+02  0.00000000000E+00 0. -1.
          4    1    6    6  502    0  0.69290283914E+00  0.48688287471E+01  0.34746338738E+01  0.60215187677E+01  0.00000000000E+00 0. -1.
          3    1    5    5  503    0 -0.24936112185E+03 -0.30085098863E+03  0.52529192892E+03  0.65469374294E+03  0.00000000000E+00 0. -1.
         -4    1    5    5    0  503 -0.20027912187E+02 -0.11821329559E+02  0.72674066682E+02  0.76304528484E+02  0.00000000000E+00 0.  1.
         -3    1    6    6    0  502  0.76127980148E+02 -0.74821346775E+02 -0.29017495476E+03  0.30918474682E+03  0.00000000000E+00 0.  1.
<mgrwt>
<rscale>  0 0.14446949E+04</rscale>
<asrwt>0</asrwt>
<pdfrwt beam="1">  1        1 0.87694058E-01 0.14446949E+04</pdfrwt>
<pdfrwt beam="2">  1       -1 0.14083007E+00 0.14446949E+04</pdfrwt>
<totfact> 0.14787220E+01</totfact>
</mgrwt>
</event>
<event>
12    1  0.1598876E-007  0.2330712E+04  0.7818608E-02  0.8465909E-01
         -1   -1    0    0    0  501 -0.00000000000E+00  0.00000000000E+00  0.10889739123E+04  0.10889739123E+04  0.00000000000E+00 0.  1.
          1   -1    0    0  501    0  0.00000000000E+00 -0.00000000000E+00 -0.12470955780E+04  0.12470955780E+04  0.00000000000E+00 0. -1.
         23    2    1    2    0    0 -0.75543521269E+03 -0.20985398683E+03 -0.70357922283E+03  0.10573078909E+04  0.90306129008E+02 0.  0.
        254    2    1    2    0    0  0.75543521269E+03  0.20985398683E+03  0.54545755718E+03  0.12787615995E+04  0.85028596672E+03 0.  0.
        -24    2    4    4    0    0  0.57532188565E+03  0.51205106638E+03  0.25077820672E+03  0.81302575037E+03  0.70211075415E+02 0.  0.
         24    2    4    4    0    0  0.18011332704E+03 -0.30219707955E+03  0.29467935046E+03  0.46573584908E+03  0.79435987216E+02 0.  0.
         11    1    3    3    0    0 -0.38958240172E+03 -0.11080766671E+03 -0.30294237734E+03  0.50579330829E+03  0.00000000000E+00 0.  1.
        -11    1    3    3    0    0 -0.36585281097E+03 -0.99046320123E+02 -0.40063684549E+03  0.55151458257E+03  0.00000000000E+00 0. -1.
          4    1    6    6  502    0  0.85713481078E+02 -0.83098554584E+02  0.72142853945E+02  0.13948749760E+03  0.00000000000E+00 0. -1.
          3    1    5    5  503    0  0.28210051884E+03  0.29793660249E+03  0.13138451897E+03  0.43082341355E+03  0.00000000000E+00 0. -1.
         -4    1    5    5    0  503  0.29322136680E+03  0.21411446389E+03  0.11939368774E+03  0.38220233682E+03  0.00000000000E+00 0.  1.
         -3    1    6    6    0  502  0.94399845965E+02 -0.21909852497E+03  0.22253649652E+03  0.32624835148E+03  0.00000000000E+00 0.  1.
<mgrwt>
<rscale>  0 0.23307120E+04</rscale>
<asrwt>0</asrwt>
<pdfrwt beam="1">  1        1 0.19186086E+00 0.23307120E+04</pdfrwt>
<pdfrwt beam="2">  1       -1 0.16753445E+00 0.23307120E+04</pdfrwt>
<totfact> 0.22843634E+00</totfact>
</mgrwt>
</event>
<event>
12    1  0.1598876E-007  0.2806952E+04  0.7818608E-02  0.8301113E-01
          1   -1    0    0  501    0  0.00000000000E+00  0.00000000000E+00  0.16322589972E+04  0.16322589972E+04  0.00000000000E+00 0. -1.
         -1   -1    0    0    0  501 -0.00000000000E+00 -0.00000000000E+00 -0.12067597035E+04  0.12067597035E+04  0.00000000000E+00 0.  1.
         23    2    1    2    0    0  0.72606668605E+03  0.13301228319E+03  0.12232994132E+04  0.14316852280E+04  0.91629893890E+02 0.  0.
        254    2    1    2    0    0 -0.72606668605E+03 -0.13301228319E+03 -0.79780011947E+03  0.14073334727E+04  0.89400076776E+03 0.  0.
        -24    2    4    4    0    0 -0.65680910364E+03  0.27462236592E+03 -0.37114504662E+03  0.80680895750E+03  0.79852399957E+02 0.  0.
         24    2    4    4    0    0 -0.69257582410E+02 -0.40763464911E+03 -0.42665507285E+03  0.60052451523E+03  0.87364308070E+02 0.  0.
         11    1    3    3    0    0  0.15046395860E+03  0.52000025018E+01  0.19527611534E+03  0.24657494618E+03  0.00000000000E+00 0.  1.
        -11    1    3    3    0    0  0.57560272745E+03  0.12781228069E+03  0.10280232979E+04  0.11851102818E+04  0.00000000000E+00 0. -1.
          4    1    6    6  502    0 -0.77741717779E+02 -0.36128423841E+03 -0.40620935776E+03  0.54915946495E+03  0.00000000000E+00 0. -1.
          1    1    5    5  503    0 -0.50909898627E+03  0.24582922082E+03 -0.28018966711E+03  0.63096753735E+03  0.00000000000E+00 0. -1.
         -2    1    5    5    0  503 -0.14771011737E+03  0.28793145091E+02 -0.90955379504E+02  0.17584142014E+03  0.00000000000E+00 0.  1.
         -3    1    6    6    0  502  0.84841353689E+01 -0.46350410695E+02 -0.20445715087E+02  0.51365050277E+02  0.00000000000E+00 0.  1.
<mgrwt>
<rscale>  0 0.28069516E+04</rscale>
<asrwt>0</asrwt>
<pdfrwt beam="1">  1        1 0.25111677E+00 0.28069516E+04</pdfrwt>
<pdfrwt beam="2">  1       -1 0.18565534E+00 0.28069516E+04</pdfrwt>
<totfact> 0.87005889E-01</totfact>
</mgrwt>
</event>
<event>
12    1  0.1598876E-007  0.2102073E+04  0.7818608E-02  0.8560331E-01
          2   -1    0    0  501    0  0.00000000000E+00  0.00000000000E+00  0.26805478855E+04  0.26805478855E+04  0.00000000000E+00 0. -1.
         -2   -1    0    0    0  501 -0.00000000000E+00 -0.00000000000E+00 -0.41210887690E+03  0.41210887690E+03  0.00000000000E+00 0.  1.
         23    2    1    2    0    0  0.81721720795E+03  0.11185647274E+03  0.12636550485E+04  0.15116358740E+04  0.88674113533E+02 0.  0.
        254    2    1    2    0    0 -0.81721720795E+03 -0.11185647274E+03  0.10047839601E+04  0.15810208884E+04  0.89982243123E+03 0.  0.
        -24    2    4    4    0    0 -0.31050915609E+03 -0.10174175507E+03  0.10135916809E+04  0.10679216377E+04  0.79506025583E+02 0.  0.
         24    2    4    4    0    0 -0.50670805186E+03 -0.10114717670E+02 -0.88077207501E+01  0.51309925070E+03  0.79610977882E+02 0.  0.
         13    1    3    3    0    0  0.66608900029E+03  0.11705695776E+03  0.98936845611E+03  0.11984268145E+04  0.00000000000E+00 0. -1.
        -13    1    3    3    0    0  0.15112820766E+03 -0.52004850211E+01  0.27428659240E+03  0.31320905952E+03  0.00000000000E+00 0.  1.
          2    1    6    6  502    0 -0.50675309675E+03 -0.14254988690E+02 -0.42907681101E+01  0.50697171169E+03  0.00000000000E+00 0. -1.
          1    1    5    5  503    0 -0.26251282012E+03 -0.10990987468E+03  0.80836185873E+03  0.85699594860E+03  0.00000000000E+00 0. -1.
         -2    1    5    5    0  503 -0.47996335967E+02  0.81681196104E+01  0.20522982213E+03  0.21092568914E+03  0.00000000000E+00 0.  1.
         -1    1    6    6    0  502  0.45044893421E-01  0.41402710201E+01 -0.45169526400E+01  0.61275390096E+01  0.00000000000E+00 0.  1.
<mgrwt>
<rscale>  0 0.21020729E+04</rscale>
<asrwt>0</asrwt>
<pdfrwt beam="1">  1        2 0.41239197E+00 0.21020729E+04</pdfrwt>
<pdfrwt beam="2">  1       -2 0.63401367E-01 0.21020729E+04</pdfrwt>
<totfact> 0.57913470E+00</totfact>
</mgrwt>
</event>
<event>
12    1  0.1598876E-007  0.1560418E+04  0.7818608E-02  0.8845241E-01
         -2   -1    0    0    0  501 -0.00000000000E+00  0.00000000000E+00  0.17917590611E+04  0.17917590611E+04  0.00000000000E+00 0.  1.
          2   -1    0    0  501    0  0.00000000000E+00 -0.00000000000E+00 -0.33973637589E+03  0.33973637589E+03  0.00000000000E+00 0. -1.
         23    2    1    2    0    0 -0.17089453416E+03  0.92607641587E+02 -0.16567153821E+03  0.27129304947E+03  0.91497229649E+02 0.  0.
        254    2    1    2    0    0  0.17089453416E+03 -0.92607641587E+02  0.16176942234E+04  0.18602023875E+04  0.89757295242E+03 0.  0.
        -24    2    4    4    0    0  0.48628661685E+03  0.10610506383E+03  0.66758135611E+03  0.83672398300E+03  0.81909696610E+02 0.  0.
         24    2    4    4    0    0 -0.31539208268E+03 -0.19871270542E+03  0.95011286732E+03  0.10234784045E+04  0.76385068982E+02 0.  0.
         13    1    3    3    0    0 -0.15633602948E+02 -0.11069617383E+02  0.33581097496E+01  0.19447952881E+02  0.00000000000E+00 0.  1.
        -13    1    3    3    0    0 -0.15526093121E+03  0.10367725897E+03 -0.16902964796E+03  0.25184509659E+03  0.00000000000E+00 0. -1.
          4    1    6    6  502    0 -0.25641557544E+03 -0.19337015410E+03  0.79174259305E+03  0.85439879300E+03  0.00000000000E+00 0. -1.
          1    1    5    5  503    0  0.43398336990E+03  0.73136157703E+02  0.55538877330E+03  0.70862342074E+03  0.00000000000E+00 0. -1.
         -2    1    5    5    0  503  0.52303246947E+02  0.32968906130E+02  0.11219258281E+03  0.12810056226E+03  0.00000000000E+00 0.  1.
         -3    1    6    6    0  502 -0.58976507242E+02 -0.53425513151E+01  0.15837027427E+03  0.16907961152E+03  0.00000000000E+00 0.  1.
<mgrwt>
<rscale>  0 0.15604175E+04</rscale>
<asrwt>0</asrwt>
<pdfrwt beam="1">  1        2 0.52267136E-01 0.15604175E+04</pdfrwt>
<pdfrwt beam="2">  1       -2 0.27565523E+00 0.15604175E+04</pdfrwt>
<totfact> 0.41205580E+00</totfact>
</mgrwt>
</event>
<event>
12    1  0.1598876E-007  0.1054996E+04  0.7818608E-02  0.9250201E-01
          3   -1    0    0  501    0  0.00000000000E+00  0.00000000000E+00  0.35984916551E+03  0.35984916551E+03  0.00000000000E+00 0. -1.
         -3   -1    0    0    0  501 -0.00000000000E+00 -0.00000000000E+00 -0.77325279124E+03  0.77325279124E+03  0.00000000000E+00 0.  1.
         23    2    1    2    0    0  0.16837315277E+02 -0.92070832048E+02 -0.36336381543E+02  0.13617555278E+03  0.91994104434E+02 0.  0.
        254    2    1    2    0    0 -0.16837315277E+02  0.92070832048E+02 -0.37706724419E+03  0.99692640398E+03  0.91810784498E+03 0.  0.
        -24    2    4    4    0    0 -0.45932685518E+03  0.61570371138E+02 -0.22303948786E+03  0.52073763856E+03  0.81541428580E+02 0.  0.
         24    2    4    4    0    0  0.44248953990E+03  0.30500460910E+02 -0.15402775633E+03  0.47618876542E+03  0.79397226362E+02 0.  0.
         11    1    3    3    0    0  0.11856691913E+02 -0.86679353015E+02 -0.63458313070E+02  0.10807797592E+03  0.00000000000E+00 0.  1.
        -11    1    3    3    0    0  0.49806233640E+01 -0.53914790333E+01  0.27121931527E+02  0.28097576853E+02  0.00000000000E+00 0. -1.
          4    1    6    6  502    0  0.32291979016E+03  0.13478683957E+01 -0.14122082710E+03  0.35245188272E+03  0.00000000000E+00 0. -1.
          1    1    5    5  503    0 -0.28831830832E+03  0.38419809357E+02 -0.95462915909E+02  0.30613182940E+03  0.00000000000E+00 0. -1.
         -2    1    5    5    0  503 -0.17100854686E+03  0.23150561781E+02 -0.12757657195E+03  0.21460580915E+03  0.00000000000E+00 0.  1.
         -3    1    6    6    0  502  0.11956974974E+03  0.29152592514E+02 -0.12806929225E+02  0.12373688270E+03  0.00000000000E+00 0.  1.
<mgrwt>
<rscale>  0 0.10549964E+04</rscale>
<asrwt>0</asrwt>
<pdfrwt beam="1">  1        3 0.55361411E-01 0.10549964E+04</pdfrwt>
<pdfrwt beam="2">  1       -3 0.11896197E+00 0.10549964E+04</pdfrwt>
<totfact> 0.48435746E+00</totfact>
</mgrwt>
</event>
<event>
12    1  0.1598876E-007  0.1530699E+04  0.7818608E-02  0.8864291E-01
          2   -1    0    0  501    0  0.00000000000E+00  0.00000000000E+00  0.15858643941E+04  0.15858643941E+04  0.00000000000E+00 0. -1.
         -2   -1    0    0    0  501 -0.00000000000E+00 -0.00000000000E+00 -0.36936306881E+03  0.36936306881E+03  0.00000000000E+00 0.  1.
         23    2    1    2    0    0 -0.10043349408E+03 -0.42487471733E+03  0.12270695193E+03  0.46244829114E+03  0.90531838434E+02 0.  0.
        254    2    1    2    0    0  0.10043349408E+03  0.42487471733E+03  0.10937943733E+04  0.14927791717E+04  0.91727755465E+03 0.  0.
        -24    2    4    4    0    0  0.30857363475E+03  0.60070932420E+03  0.96361742480E+03  0.11793997300E+04  0.79723280731E+02 0.  0.
         24    2    4    4    0    0 -0.20814014066E+03 -0.17583460687E+03  0.13017694853E+03  0.31337944173E+03  0.83788480380E+02 0.  0.
         13    1    3    3    0    0 -0.10597855239E+03 -0.34277024487E+03  0.72443086654E+02  0.36602034798E+03  0.00000000000E+00 0.  1.
        -13    1    3    3    0    0  0.55450583099E+01 -0.82104472464E+02  0.50263865272E+02  0.96427943162E+02  0.00000000000E+00 0. -1.
          2    1    6    6  502    0 -0.17405896663E+02 -0.21916295677E+02  0.46731087018E+02  0.54470944077E+02  0.00000000000E+00 0. -1.
          3    1    5    5  503    0 -0.99473391771E+00  0.16452521434E+02  0.11055529326E+02  0.19846906202E+02  0.00000000000E+00 0. -1.
         -4    1    5    5    0  503  0.30956836866E+03  0.58425680277E+03  0.95256189548E+03  0.11595528238E+04  0.00000000000E+00 0.  1.
         -1    1    6    6    0  502 -0.19073424400E+03 -0.15391831119E+03  0.83445861508E+02  0.25890849766E+03  0.00000000000E+00 0.  1.
<mgrwt>
<rscale>  0 0.15306988E+04</rscale>
<asrwt>0</asrwt>
<pdfrwt beam="1">  1        2 0.24397913E+00 0.15306988E+04</pdfrwt>
<pdfrwt beam="2">  1       -2 0.56825088E-01 0.15306988E+04</pdfrwt>
<totfact> 0.31788804E+01</totfact>
</mgrwt>
</event>
<event>
12    1  0.1598876E-007  0.1872997E+04  0.7818608E-02  0.8668415E-01
         -2   -1    0    0    0  501 -0.00000000000E+00  0.00000000000E+00  0.89309304193E+03  0.89309304193E+03  0.00000000000E+00 0.  1.
          2   -1    0    0  501    0  0.00000000000E+00 -0.00000000000E+00 -0.98201395551E+03  0.98201395551E+03  0.00000000000E+00 0. -1.
         23    2    1    2    0    0 -0.64563998464E+03 -0.19539149696E+03  0.21244266821E+03  0.71203543099E+03  0.82666443434E+02 0.  0.
        254    2    1    2    0    0  0.64563998464E+03  0.19539149696E+03 -0.30136358179E+03  0.11630715665E+04  0.89826868665E+03 0.  0.
        -24    2    4    4    0    0  0.24143096730E+03  0.20633247596E+02 -0.58151276650E+03  0.63493798448E+03  0.79211764647E+02 0.  0.
         24    2    4    4    0    0  0.40420901734E+03  0.17475824936E+03  0.28014918471E+03  0.52813358197E+03  0.80722607129E+02 0.  0.
         11    1    3    3    0    0 -0.21279944692E+03 -0.79571599824E+02  0.10993750913E+03  0.25239156092E+03  0.00000000000E+00 0. -1.
        -11    1    3    3    0    0 -0.43284053771E+03 -0.11581989713E+03  0.10250515908E+03  0.45964387008E+03  0.00000000000E+00 0.  1.
          4    1    6    6  502    0  0.15469877015E+03  0.28940865754E+02  0.79582878786E+02  0.17635962631E+03  0.00000000000E+00 0. -1.
          1    1    5    5  503    0  0.12645482254E+03 -0.11803922549E+02 -0.21799492792E+03  0.25229336759E+03  0.00000000000E+00 0. -1.
         -2    1    5    5    0  503  0.11497614476E+03  0.32437170144E+02 -0.36351783858E+03  0.38264461689E+03  0.00000000000E+00 0.  1.
         -3    1    6    6    0  502  0.24951024719E+03  0.14581738361E+03  0.20056630592E+03  0.35177395567E+03  0.00000000000E+00 0.  1.
<mgrwt>
<rscale>  0 0.18729974E+04</rscale>
<asrwt>0</asrwt>
<pdfrwt beam="1">  1        2 0.15107907E+00 0.18729974E+04</pdfrwt>
<pdfrwt beam="2">  1       -2 0.13739893E+00 0.18729974E+04</pdfrwt>
<totfact> 0.91556836E+00</totfact>
</mgrwt>
</event>
<event>
12    1  0.1598876E-007  0.1721960E+04  0.7818608E-02  0.8748938E-01
         -1   -1    0    0    0  501 -0.00000000000E+00  0.00000000000E+00  0.43145737086E+03  0.43145737086E+03  0.00000000000E+00 0.  1.
          1   -1    0    0  501    0  0.00000000000E+00 -0.00000000000E+00 -0.17181000549E+04  0.17181000549E+04  0.00000000000E+00 0. -1.
         23    2    1    2    0    0 -0.14554432491E+03  0.28030735910E+03  0.20089800345E+03  0.38468341846E+03  0.88690239442E+02 0.  0.
        254    2    1    2    0    0  0.14554432491E+03 -0.28030735910E+03 -0.14875406875E+04  0.17648740073E+04  0.89568275556E+03 0.  0.
        -24    2    4    4    0    0 -0.25062458570E+03  0.16905814944E+03 -0.74136912483E+03  0.80469973286E+03  0.80747383636E+02 0.  0.
         24    2    4    4    0    0  0.39616891061E+03 -0.44936550854E+03 -0.74617156268E+03  0.96017427445E+03  0.79268344108E+02 0.  0.
         11    1    3    3    0    0 -0.77239369978E+02  0.22666590923E+03  0.16445267012E+03  0.29049618826E+03  0.00000000000E+00 0.  1.
        -11    1    3    3    0    0 -0.68304954934E+02  0.53641449865E+02  0.36445333327E+02  0.94187230204E+02  0.00000000000E+00 0. -1.
          2    1    6    6  502    0  0.30687879798E+03 -0.31703385542E+03 -0.50084718238E+03  0.66748255575E+03  0.00000000000E+00 0. -1.
          1    1    5    5  503    0 -0.25127927463E+03  0.14845477999E+03 -0.70220362704E+03  0.76044068105E+03  0.00000000000E+00 0. -1.
         -2    1    5    5    0  503  0.65468893335E+00  0.20603369448E+02 -0.39165497783E+02  0.44259051806E+02  0.00000000000E+00 0.  1.
         -3    1    6    6    0  502  0.89290112634E+02 -0.13233165312E+03 -0.24532438029E+03  0.29269171870E+03  0.00000000000E+00 0.  1.
<mgrwt>
<rscale>  0 0.17219604E+04</rscale>
<asrwt>0</asrwt>
<pdfrwt beam="1">  1        1 0.26432309E+00 0.17219604E+04</pdfrwt>
<pdfrwt beam="2">  1       -1 0.66378057E-01 0.17219604E+04</pdfrwt>
<totfact> 0.10119337E+01</totfact>
</mgrwt>
</event>
<event>
12    1  0.1598876E-007  0.1712148E+04  0.7818608E-02  0.8754466E-01
          1   -1    0    0  501    0  0.00000000000E+00  0.00000000000E+00  0.40147986998E+03  0.40147986998E+03  0.00000000000E+00 0. -1.
         -1   -1    0    0    0  501 -0.00000000000E+00 -0.00000000000E+00 -0.18254037072E+04  0.18254037072E+04  0.00000000000E+00 0.  1.
         23    2    1    2    0    0 -0.24833860466E+03  0.96675683268E+02  0.20210989528E+03  0.34876999324E+03  0.98862774133E+02 0.  0.
        254    2    1    2    0    0  0.24833860466E+03 -0.96675683268E+02 -0.16260337325E+04  0.18781135839E+04  0.90128058043E+03 0.  0.
        -24    2    4    4    0    0 -0.30736394043E+03 -0.12166018816E+03 -0.88444649604E+03  0.94755982945E+03  0.79688347814E+02 0.  0.
         24    2    4    4    0    0  0.55570254509E+03  0.24984504896E+02 -0.74158723644E+03  0.93055375447E+03  0.80926612474E+02 0.  0.
         11    1    3    3    0    0 -0.12637949946E+03  0.71726503929E+02  0.16281156914E+03  0.21822941207E+03  0.00000000000E+00 0. -1.
        -11    1    3    3    0    0 -0.12195910521E+03  0.24949179339E+02  0.39298326144E+02  0.13054058116E+03  0.00000000000E+00 0.  1.
          2    1    6    6  502    0  0.28465182422E+03 -0.25519487779E+02 -0.35575638402E+03  0.45633377045E+03  0.00000000000E+00 0. -1.
          1    1    5    5  503    0 -0.27216207080E+03 -0.76768378533E+02 -0.72329438413E+03  0.77660822996E+03  0.00000000000E+00 0. -1.
         -2    1    5    5    0  503 -0.35201869632E+02 -0.44891809631E+02 -0.16115211191E+03  0.17095159949E+03  0.00000000000E+00 0.  1.
         -1    1    6    6    0  502  0.27105072088E+03  0.50503992675E+02 -0.38583085243E+03  0.47421998402E+03  0.00000000000E+00 0.  1.
<mgrwt>
<rscale>  0 0.17121482E+04</rscale>
<asrwt>0</asrwt>
<pdfrwt beam="1">  1        1 0.61766133E-01 0.17121482E+04</pdfrwt>
<pdfrwt beam="2">  1       -1 0.28083134E+00 0.17121482E+04</pdfrwt>
<totfact> 0.24971483E+00</totfact>
</mgrwt>
</event>
<event>
12    1  0.1598876E-007  0.2062581E+04  0.7818608E-02  0.8577908E-01
          1   -1    0    0  501    0  0.00000000000E+00  0.00000000000E+00  0.76004839277E+03  0.76004839277E+03  0.00000000000E+00 0. -1.
         -1   -1    0    0    0  501 -0.00000000000E+00 -0.00000000000E+00 -0.13993314092E+04  0.13993314092E+04  0.00000000000E+00 0.  1.
         23    2    1    2    0    0  0.16975398959E+03 -0.78497935352E+03 -0.49160519855E+03  0.94614320517E+03  0.92207868560E+02 0.  0.
        254    2    1    2    0    0 -0.16975398959E+03  0.78497935352E+03 -0.14767781788E+03  0.12132365968E+04  0.89728774619E+03 0.  0.
        -24    2    4    4    0    0  0.13586968685E+01  0.66776577257E+03  0.28175312967E+03  0.72910544902E+03  0.79353365651E+02 0.  0.
         24    2    4    4    0    0 -0.17111268646E+03  0.11721358095E+03 -0.42943094755E+03  0.48413114776E+03  0.83387376116E+02 0.  0.
         13    1    3    3    0    0  0.17505726074E+03 -0.72024643264E+03 -0.43159721725E+03  0.85771564414E+03  0.00000000000E+00 0. -1.
        -13    1    3    3    0    0 -0.53032711508E+01 -0.64732920877E+02 -0.60007981299E+02  0.88427561030E+02  0.00000000000E+00 0.  1.
          4    1    6    6  502    0  0.93310105049E+01  0.83588627710E+01 -0.30193154864E+02  0.32688911645E+02  0.00000000000E+00 0. -1.
          1    1    5    5  503    0 -0.12120499574E+02  0.64684900536E+03  0.27701807712E+03  0.70377521787E+03  0.00000000000E+00 0. -1.
         -2    1    5    5    0  503  0.13479196442E+02  0.20916767214E+02  0.47350525526E+01  0.25330231150E+02  0.00000000000E+00 0.  1.
         -3    1    6    6    0  502 -0.18044369697E+03  0.10885471818E+03 -0.39923779269E+03  0.45144223612E+03  0.00000000000E+00 0.  1.
<mgrwt>
<rscale>  0 0.20625805E+04</rscale>
<asrwt>0</asrwt>
<pdfrwt beam="1">  1        1 0.11693052E+00 0.20625805E+04</pdfrwt>
<pdfrwt beam="2">  1       -1 0.21528175E+00 0.20625805E+04</pdfrwt>
<totfact> 0.26199202E+00</totfact>
</mgrwt>
</event>
<event>
12    1  0.1598876E-007  0.1421954E+04  0.7818608E-02  0.8938079E-01
          1   -1    0    0  501    0  0.00000000000E+00  0.00000000000E+00  0.10469207197E+04  0.10469207197E+04  0.00000000000E+00 0. -1.
         -1   -1    0    0    0  501 -0.00000000000E+00 -0.00000000000E+00 -0.48283341732E+03  0.48283341732E+03  0.00000000000E+00 0.  1.
         23    2    1    2    0    0  0.16634595527E+03  0.16019047483E+03  0.53716359732E+03  0.59174632374E+03  0.91033050666E+02 0.  0.
        254    2    1    2    0    0 -0.16634595527E+03 -0.16019047483E+03  0.26923705106E+02  0.93800781332E+03  0.90873637921E+03 0.  0.
        -24    2    4    4    0    0 -0.44655472861E+03  0.84225949054E+02 -0.19185466454E+03  0.49933044789E+03  0.77572854457E+02 0.  0.
         24    2    4    4    0    0  0.28020877334E+03 -0.24441642389E+03  0.21877836965E+03  0.43867736543E+03  0.79482771701E+02 0.  0.
         11    1    3    3    0    0  0.14420398335E+03  0.15389476913E+03  0.39542885697E+03  0.44815440386E+03  0.00000000000E+00 0. -1.
        -11    1    3    3    0    0  0.22141971913E+02  0.62957056998E+01  0.14173474035E+03  0.14359191987E+03  0.00000000000E+00 0.  1.
          4    1    6    6  502    0  0.27251100732E+03 -0.25000723776E+03  0.20799415114E+03  0.42429639988E+03  0.00000000000E+00 0. -1.
          3    1    5    5  503    0 -0.34470507716E+03  0.33550649544E+02 -0.15774870981E+03  0.38056785433E+03  0.00000000000E+00 0. -1.
         -4    1    5    5    0  503 -0.10184965145E+03  0.50675299510E+02 -0.34105954728E+02  0.11876259356E+03  0.00000000000E+00 0.  1.
         -3    1    6    6    0  502  0.76977660176E+01  0.55908138729E+01  0.10784218509E+02  0.14380965555E+02  0.00000000000E+00 0.  1.
<mgrwt>
<rscale>  0 0.14219540E+04</rscale>
<asrwt>0</asrwt>
<pdfrwt beam="1">  1        1 0.16106473E+00 0.14219540E+04</pdfrwt>
<pdfrwt beam="2">  1       -1 0.74282065E-01 0.14219540E+04</pdfrwt>
<totfact> 0.24712737E+01</totfact>
</mgrwt>
</event>
<event>
12    1  0.1598876E-007  0.2177470E+04  0.7818608E-02  0.8527865E-01
         -2   -1    0    0    0  501 -0.00000000000E+00  0.00000000000E+00  0.33992964737E+03  0.33992964737E+03  0.00000000000E+00 0.  1.
          2   -1    0    0  501    0  0.00000000000E+00 -0.00000000000E+00 -0.34870264943E+04  0.34870264943E+04  0.00000000000E+00 0. -1.
         23    2    1    2    0    0 -0.13606143746E+03  0.58351099599E+03 -0.24881453422E+04  0.25609641309E+04  0.93124855537E+02 0.  0.
        254    2    1    2    0    0  0.13606143746E+03 -0.58351099599E+03 -0.65895150476E+03  0.12659920108E+04  0.89973378759E+03 0.  0.
        -24    2    4    4    0    0 -0.24425780674E+03  0.30575018502E+02 -0.43338580763E+03  0.50462782967E+03  0.78925789905E+02 0.  0.
         24    2    4    4    0    0  0.38031924420E+03 -0.61408601449E+03 -0.22556569713E+03  0.76136418111E+03  0.83971256160E+02 0.  0.
         11    1    3    3    0    0 -0.35342720503E+02  0.41380964241E+02 -0.19457447080E+03  0.20204137393E+03  0.00000000000E+00 0.  1.
        -11    1    3    3    0    0 -0.10071871696E+03  0.54213003175E+03 -0.22935708714E+04  0.23589227570E+04  0.00000000000E+00 0. -1.
          4    1    6    6  502    0  0.34664845002E+03 -0.57652800149E+03 -0.18806870948E+03  0.69851236488E+03  0.00000000000E+00 0. -1.
          3    1    5    5  503    0 -0.17801205432E+03  0.52449060346E+02 -0.27739176696E+03  0.33374449477E+03  0.00000000000E+00 0. -1.
         -4    1    5    5    0  503 -0.66245752415E+02 -0.21874041845E+02 -0.15599404067E+03  0.17088333490E+03  0.00000000000E+00 0.  1.
         -3    1    6    6    0  502  0.33670794183E+02 -0.37558013000E+02 -0.37496987651E+02  0.62851816238E+02  0.00000000000E+00 0.  1.
<mgrwt>
<rscale>  0 0.21774698E+04</rscale>
<asrwt>0</asrwt>
<pdfrwt beam="1">  1        2 0.53646562E+00 0.21774698E+04</pdfrwt>
<pdfrwt beam="2">  1       -2 0.52296869E-01 0.21774698E+04</pdfrwt>
<totfact> 0.26330871E+00</totfact>
</mgrwt>
</event>
<event>
12    1  0.1598876E-007  0.1738074E+04  0.7818608E-02  0.8739942E-01
          1   -1    0    0  501    0  0.00000000000E+00  0.00000000000E+00  0.24443761394E+04  0.24443761394E+04  0.00000000000E+00 0. -1.
         -1   -1    0    0    0  501 -0.00000000000E+00 -0.00000000000E+00 -0.30896456151E+03  0.30896456151E+03  0.00000000000E+00 0.  1.
         23    2    1    2    0    0 -0.34908831880E+02  0.16726961910E+03 -0.17977141150E+03  0.26443091841E+03  0.91696227847E+02 0.  0.
        254    2    1    2    0    0  0.34908831880E+02 -0.16726961910E+03  0.23151829894E+04  0.24889097825E+04  0.89744185274E+03 0.  0.
        -24    2    4    4    0    0  0.50856672705E+01 -0.52358864685E+03  0.16006977055E+04  0.16860981003E+04  0.80763383508E+02 0.  0.
         24    2    4    4    0    0  0.29823164610E+02  0.35631902775E+03  0.71448528384E+03  0.80281168222E+03  0.78515639180E+02 0.  0.
         13    1    3    3    0    0 -0.37406191697E+02  0.17443686906E+03 -0.14810460368E+03  0.23186724240E+03  0.00000000000E+00 0. -1.
        -13    1    3    3    0    0  0.24973598169E+01 -0.71672499618E+01 -0.31666807816E+02  0.32563676011E+02  0.00000000000E+00 0.  1.
          2    1    6    6  502    0 -0.16426999435E+02  0.10484003941E+03  0.15719784555E+03  0.18966402616E+03  0.00000000000E+00 0. -1.
          3    1    5    5  503    0  0.23237184007E+02 -0.55494052509E+02  0.14888682985E+03  0.16058282812E+03  0.00000000000E+00 0. -1.
         -4    1    5    5    0  503 -0.18151516736E+02 -0.46809459434E+03  0.14518108757E+04  0.15255152722E+04  0.00000000000E+00 0.  1.
         -1    1    6    6    0  502  0.46250164045E+02  0.25147898834E+03  0.55728743829E+03  0.61314765606E+03  0.00000000000E+00 0.  1.
<mgrwt>
<rscale>  0 0.17380743E+04</rscale>
<asrwt>0</asrwt>
<pdfrwt beam="1">  1        1 0.37605786E+00 0.17380743E+04</pdfrwt>
<pdfrwt beam="2">  1       -1 0.47533011E-01 0.17380743E+04</pdfrwt>
<totfact> 0.62122780E+00</totfact>
</mgrwt>
</event>
<event>
12    1  0.1598876E-007  0.3346401E+04  0.7818608E-02  0.8151188E-01
         -2   -1    0    0    0  501 -0.00000000000E+00  0.00000000000E+00  0.10872644733E+04  0.10872644733E+04  0.00000000000E+00 0.  1.
          2   -1    0    0  501    0  0.00000000000E+00 -0.00000000000E+00 -0.25749026287E+04  0.25749026287E+04  0.00000000000E+00 0. -1.
         23    2    1    2    0    0 -0.70058515861E+03  0.91027384710E+03  0.45126507747E+03  0.12374893339E+04  0.91223025056E+02 0.  0.
        254    2    1    2    0    0  0.70058515861E+03 -0.91027384710E+03 -0.19389032328E+04  0.24246777680E+04  0.89459403715E+03 0.  0.
        -24    2    4    4    0    0 -0.17296609217E+03 -0.11513571903E+03 -0.11296671829E+03  0.24849082162E+03  0.76241105371E+02 0.  0.
         24    2    4    4    0    0  0.87355125079E+03 -0.79513812807E+03 -0.18259365145E+04  0.21761869464E+04  0.80056480982E+02 0.  0.
         11    1    3    3    0    0 -0.28285803819E+03  0.36134762512E+03  0.22837959858E+03  0.51257976647E+03  0.00000000000E+00 0. -1.
        -11    1    3    3    0    0 -0.41772712043E+03  0.54892622198E+03  0.22288547889E+03  0.72490956747E+03  0.00000000000E+00 0.  1.
          4    1    6    6  502    0  0.51655858523E+03 -0.42699596582E+03 -0.99098912794E+03  0.11963351447E+04  0.00000000000E+00 0. -1.
          1    1    5    5  503    0 -0.10377266086E+03 -0.85800790210E+02 -0.10898759917E+03  0.17323059059E+03  0.00000000000E+00 0. -1.
         -2    1    5    5    0  503 -0.69193431315E+02 -0.29334928820E+02 -0.39791191250E+01  0.75260231032E+02  0.00000000000E+00 0.  1.
         -3    1    6    6    0  502  0.35699266555E+03 -0.36814216225E+03 -0.83494738658E+03  0.97985180168E+03  0.00000000000E+00 0.  1.
<mgrwt>
<rscale>  0 0.33464011E+04</rscale>
<asrwt>0</asrwt>
<pdfrwt beam="1">  1        2 0.39613886E+00 0.33464011E+04</pdfrwt>
<pdfrwt beam="2">  1       -2 0.16727146E+00 0.33464011E+04</pdfrwt>
<totfact> 0.58384155E-01</totfact>
</mgrwt>
</event>
<event>
12    1  0.1598876E-007  0.3428104E+04  0.7818608E-02  0.8131043E-01
          1   -1    0    0  501    0  0.00000000000E+00  0.00000000000E+00  0.32474092314E+04  0.32474092314E+04  0.00000000000E+00 0. -1.
         -1   -1    0    0    0  501 -0.00000000000E+00 -0.00000000000E+00 -0.90471346778E+03  0.90471346778E+03  0.00000000000E+00 0.  1.
         23    2    1    2    0    0  0.51176563050E+03  0.26902155289E+03 -0.70685737915E+03  0.91780879631E+03  0.91918309681E+02 0.  0.
        254    2    1    2    0    0 -0.51176563050E+03 -0.26902155289E+03  0.30495531428E+04  0.32343139029E+04  0.90924990803E+03 0.  0.
        -24    2    4    4    0    0 -0.49492704988E+03 -0.49952993171E+03  0.14207877692E+04  0.15872913197E+04  0.79830515043E+02 0.  0.
         24    2    4    4    0    0 -0.16838580611E+02  0.23050837881E+03  0.16287653736E+04  0.16470225832E+04  0.79931826076E+02 0.  0.
         13    1    3    3    0    0  0.68087039359E+02  0.51205341511E+02 -0.15576502265E+03  0.17754034530E+03  0.00000000000E+00 0. -1.
        -13    1    3    3    0    0  0.44367859114E+03  0.21781621138E+03 -0.55109235650E+03  0.74026845101E+03  0.00000000000E+00 0.  1.
          2    1    6    6  502    0  0.75571919521E+01  0.80009851358E+02  0.82654380992E+03  0.83044166392E+03  0.00000000000E+00 0. -1.
          1    1    5    5  503    0 -0.41177201092E+03 -0.36918040208E+03  0.11187930228E+04  0.12480177026E+04  0.00000000000E+00 0. -1.
         -2    1    5    5    0  503 -0.83155038962E+02 -0.13034952963E+03  0.30199474643E+03  0.33927361708E+03  0.00000000000E+00 0.  1.
         -1    1    6    6    0  502 -0.24395772563E+02  0.15049852745E+03  0.80222156364E+03  0.81658091923E+03  0.00000000000E+00 0.  1.
<mgrwt>
<rscale>  0 0.34281044E+04</rscale>
<asrwt>0</asrwt>
<pdfrwt beam="1">  1        1 0.49960142E+00 0.34281044E+04</pdfrwt>
<pdfrwt beam="2">  1       -1 0.13918669E+00 0.34281044E+04</pdfrwt>
<totfact> 0.13660927E-01</totfact>
</mgrwt>
</event>
<event>
12    1  0.1598876E-007  0.1209490E+04  0.7818608E-02  0.9104591E-01
          2   -1    0    0  501    0  0.00000000000E+00  0.00000000000E+00  0.96046810207E+03  0.96046810207E+03  0.00000000000E+00 0. -1.
         -2   -1    0    0    0  501 -0.00000000000E+00 -0.00000000000E+00 -0.38076887219E+03  0.38076887219E+03  0.00000000000E+00 0.  1.
         23    2    1    2    0    0  0.25724947725E+03 -0.34866836791E+02  0.14777633944E+03  0.31224271531E+03  0.90910268457E+02 0.  0.
        254    2    1    2    0    0 -0.25724947725E+03  0.34866836791E+02  0.43192289045E+03  0.10289942589E+04  0.89715038416E+03 0.  0.
        -24    2    4    4    0    0 -0.22423174888E+03 -0.32685041551E+02  0.69906113294E+03  0.73907377548E+03  0.78710792642E+02 0.  0.
         24    2    4    4    0    0 -0.33017728376E+02  0.67551878342E+02 -0.26713824249E+03  0.28992048346E+03  0.83890520778E+02 0.  0.
         13    1    3    3    0    0 -0.64782747140E+01 -0.59509581318E+01  0.53052997918E+00  0.88126844954E+01  0.00000000000E+00 0. -1.
        -13    1    3    3    0    0  0.26372775197E+03 -0.28915878659E+02  0.14724580946E+03  0.30343003081E+03  0.00000000000E+00 0.  1.
          4    1    6    6  502    0 -0.14346085026E+02  0.27070039382E+02 -0.15444811519E+02  0.34309465029E+02  0.00000000000E+00 0. -1.
          1    1    5    5  503    0 -0.24241287559E+02  0.14773839995E+02  0.42653763701E+02  0.51237192825E+02  0.00000000000E+00 0. -1.
         -2    1    5    5    0  503 -0.19999046132E+03 -0.47458881546E+02  0.65640736924E+03  0.68783658266E+03  0.00000000000E+00 0.  1.
         -3    1    6    6    0  502 -0.18671643350E+02  0.40481838960E+02 -0.25169343097E+03  0.25561101843E+03  0.00000000000E+00 0.  1.
<mgrwt>
<rscale>  0 0.12094897E+04</rscale>
<asrwt>0</asrwt>
<pdfrwt beam="1">  1        2 0.14776432E+00 0.12094897E+04</pdfrwt>
<pdfrwt beam="2">  1       -2 0.58579827E-01 0.12094897E+04</pdfrwt>
<totfact> 0.71802010E+01</totfact>
</mgrwt>
</event>
<event>
12    1  0.1598876E-007  0.2277573E+04  0.7818608E-02  0.8486817E-01
          1   -1    0    0  501    0  0.00000000000E+00  0.00000000000E+00  0.24643521216E+04  0.24643521216E+04  0.00000000000E+00 0. -1.
         -1   -1    0    0    0  501 -0.00000000000E+00 -0.00000000000E+00 -0.52623754841E+03  0.52623754841E+03  0.00000000000E+00 0.  1.
         23    2    1    2    0    0  0.40108764211E+03 -0.70708572126E+03  0.12382371481E+04  0.14840058976E+04  0.90558022626E+02 0.  0.
        254    2    1    2    0    0 -0.40108764211E+03  0.70708572126E+03  0.69987742512E+03  0.15065837724E+04  0.10578869217E+04 0.  0.
        -24    2    4    4    0    0 -0.67257250878E+03  0.22734167702E+03  0.61666663576E+03  0.94353283758E+03  0.77061392762E+02 0.  0.
         24    2    4    4    0    0  0.27148486667E+03  0.47974404424E+03  0.83210789365E+02  0.56305093482E+03  0.79018598577E+02 0.  0.
         13    1    3    3    0    0  0.36471958364E+03 -0.65224720375E+03  0.11765301152E+04  0.13937969370E+04  0.00000000000E+00 0. -1.
        -13    1    3    3    0    0  0.36368058472E+02 -0.54838517508E+02  0.61707032867E+02  0.90208960668E+02  0.00000000000E+00 0.  1.
          2    1    6    6  502    0  0.16985621937E+02  0.63663267765E+02  0.30051506619E+02  0.72419721521E+02  0.00000000000E+00 0. -1.
          1    1    5    5  503    0 -0.27635143338E+03  0.11994182998E+03  0.22352483568E+03  0.37512599147E+03  0.00000000000E+00 0. -1.
         -2    1    5    5    0  503 -0.39622107540E+03  0.10739984704E+03  0.39314180007E+03  0.56840684611E+03  0.00000000000E+00 0.  1.
         -1    1    6    6    0  502  0.25449924473E+03  0.41608077648E+03  0.53159282746E+02  0.49063121330E+03  0.00000000000E+00 0.  1.
<mgrwt>
<rscale>  0 0.22775729E+04</rscale>
<asrwt>0</asrwt>
<pdfrwt beam="1">  1        1 0.37913109E+00 0.22775729E+04</pdfrwt>
<pdfrwt beam="2">  1       -1 0.80959624E-01 0.22775729E+04</pdfrwt>
<totfact> 0.19747487E+00</totfact>
</mgrwt>
</event>
<event>
12    1  0.1598876E-007  0.1380819E+04  0.7818608E-02  0.8967821E-01
          2   -1    0    0  501    0  0.00000000000E+00  0.00000000000E+00  0.14358670305E+04  0.14358670305E+04  0.00000000000E+00 0. -1.
         -2   -1    0    0    0  501 -0.00000000000E+00 -0.00000000000E+00 -0.33197026537E+03  0.33197026537E+03  0.00000000000E+00 0.  1.
         23    2    1    2    0    0 -0.22003320272E+03 -0.31629171696E+03  0.26237426420E+03  0.47505567497E+03  0.91556426810E+02 0.  0.
        254    2    1    2    0    0  0.22003320272E+03  0.31629171696E+03  0.84152250092E+03  0.12927816209E+04  0.90259023882E+03 0.  0.
        -24    2    4    4    0    0 -0.19509509734E+03 -0.88788742666E+02 -0.42103138218E+02  0.23270932614E+03  0.80221059545E+02 0.  0.
         24    2    4    4    0    0  0.41512830006E+03  0.40508045963E+03  0.88362563913E+03  0.10600722947E+04  0.80853668086E+02 0.  0.
         11    1    3    3    0    0 -0.35792277059E+02 -0.28039303616E+02  0.26736925928E+01  0.45546001761E+02  0.00000000000E+00 0. -1.
        -11    1    3    3    0    0 -0.18424092566E+03 -0.28825241335E+03  0.25970057161E+03  0.42950967321E+03  0.00000000000E+00 0.  1.
          4    1    6    6  502    0  0.18027975442E+03  0.21235415248E+03  0.47869900820E+03  0.55384818893E+03  0.00000000000E+00 0. -1.
          3    1    5    5  503    0 -0.14773440381E+03 -0.54261613311E+02 -0.64332956208E+02  0.17002501582E+03  0.00000000000E+00 0. -1.
         -4    1    5    5    0  503 -0.47360693528E+02 -0.34527129355E+02  0.22229817990E+02  0.62684310325E+02  0.00000000000E+00 0.  1.
         -3    1    6    6    0  502  0.23484854565E+03  0.19272630715E+03  0.40492663093E+03  0.50622410581E+03  0.00000000000E+00 0.  1.
<mgrwt>
<rscale>  0 0.13808188E+04</rscale>
<asrwt>0</asrwt>
<pdfrwt beam="1">  1        2 0.22090262E+00 0.13808188E+04</pdfrwt>
<pdfrwt beam="2">  1       -2 0.51072350E-01 0.13808188E+04</pdfrwt>
<totfact> 0.48735886E+01</totfact>
</mgrwt>
</event>
<event>
12    1  0.1598876E-007  0.2080871E+04  0.7818608E-02  0.8569717E-01
          2   -1    0    0  501    0  0.00000000000E+00  0.00000000000E+00  0.11410951540E+04  0.11410951540E+04  0.00000000000E+00 0. -1.
         -2   -1    0    0    0  501 -0.00000000000E+00 -0.00000000000E+00 -0.94865547853E+03  0.94865547853E+03  0.00000000000E+00 0.  1.
         23    2    1    2    0    0  0.44822126630E+03  0.49247078423E+03  0.57859482935E+03  0.88726967442E+03  0.95108999144E+02 0.  0.
        254    2    1    2    0    0 -0.44822126630E+03 -0.49247078423E+03 -0.38615515384E+03  0.12024809581E+04  0.92380456535E+03 0.  0.
        -24    2    4    4    0    0 -0.38383675474E+03  0.64756950205E+02  0.14838093539E+03  0.42406122248E+03  0.79289983862E+02 0.  0.
         24    2    4    4    0    0 -0.64384511567E+02 -0.55722773443E+03 -0.53453608923E+03  0.77841973565E+03  0.74567692795E+02 0.  0.
         13    1    3    3    0    0  0.12896602653E+03  0.84569830068E+02  0.11919345584E+03  0.19491375547E+03  0.00000000000E+00 0.  1.
        -13    1    3    3    0    0  0.31925523977E+03  0.40790095416E+03  0.45940137350E+03  0.69235591895E+03  0.00000000000E+00 0. -1.
          4    1    6    6  502    0  0.77772835578E+01 -0.10459010533E+02 -0.21718711212E+02  0.25329418816E+02  0.00000000000E+00 0. -1.
          3    1    5    5  503    0 -0.69507139357E+02 -0.13630160070E+02  0.45395005525E+02  0.84129247065E+02  0.00000000000E+00 0. -1.
         -4    1    5    5    0  503 -0.31432961538E+03  0.78387110276E+02  0.10298592987E+03  0.33993197542E+03  0.00000000000E+00 0.  1.
         -3    1    6    6    0  502 -0.72161795125E+02 -0.54676872390E+03 -0.51281737802E+03  0.75309031684E+03  0.00000000000E+00 0.  1.
<mgrwt>
<rscale>  0 0.20808711E+04</rscale>
<asrwt>0</asrwt>
<pdfrwt beam="1">  1        2 0.17555310E+00 0.20808711E+04</pdfrwt>
<pdfrwt beam="2">  1       -2 0.14594700E+00 0.20808711E+04</pdfrwt>
<totfact> 0.61121450E+00</totfact>
</mgrwt>
</event>
<event>
12    1  0.1598876E-007  0.1331096E+04  0.7818608E-02  0.9005263E-01
         -2   -1    0    0    0  501 -0.00000000000E+00  0.00000000000E+00  0.55470706777E+03  0.55470706777E+03  0.00000000000E+00 0.  1.
          2   -1    0    0  501    0  0.00000000000E+00 -0.00000000000E+00 -0.79853705702E+03  0.79853705702E+03  0.00000000000E+00 0. -1.
         23    2    1    2    0    0 -0.11336456194E+03 -0.33334702357E+03 -0.10963749066E+03  0.37933398551E+03  0.88893932162E+02 0.  0.
        254    2    1    2    0    0  0.11336456194E+03  0.33334702357E+03 -0.13419249859E+03  0.97391013928E+03  0.89806546013E+03 0.  0.
        -24    2    4    4    0    0 -0.92605187701E+02  0.55950852809E+03 -0.26494874393E+03  0.63117423720E+03  0.80978805885E+02 0.  0.
         24    2    4    4    0    0  0.20596974965E+03 -0.22616150452E+03  0.13075624534E+03  0.34273590207E+03  0.82450827645E+02 0.  0.
         13    1    3    3    0    0 -0.11670026009E+03 -0.33787835349E+03 -0.10872841660E+03  0.37363431459E+03  0.00000000000E+00 0.  1.
        -13    1    3    3    0    0  0.33356981425E+01  0.45313299207E+01 -0.90907406562E+00  0.56996709207E+01  0.00000000000E+00 0. -1.
          2    1    6    6  502    0  0.20484603896E+03 -0.22160693756E+03  0.13976838396E+03  0.33257590954E+03  0.00000000000E+00 0. -1.
          3    1    5    5  503    0 -0.89940931148E+02  0.52674301843E+03 -0.22596245530E+03  0.58017808453E+03  0.00000000000E+00 0. -1.
         -2    1    5    5    0  503 -0.26642565524E+01  0.32765509660E+02 -0.38986288635E+02  0.50996152676E+02  0.00000000000E+00 0.  1.
         -1    1    6    6    0  502  0.11237106885E+01 -0.45545669578E+01 -0.90121386156E+01  0.10159992535E+02  0.00000000000E+00 0.  1.
<mgrwt>
<rscale>  0 0.13310960E+04</rscale>
<asrwt>0</asrwt>
<pdfrwt beam="1">  1        2 0.12285186E+00 0.13310960E+04</pdfrwt>
<pdfrwt beam="2">  1       -2 0.85339548E-01 0.13310960E+04</pdfrwt>
<totfact> 0.40340542E+01</totfact>
</mgrwt>
</event>
<event>
12    1  0.1598876E-007  0.1676320E+04  0.7818608E-02  0.8774986E-01
          1   -1    0    0  501    0  0.00000000000E+00  0.00000000000E+00  0.12714965753E+04  0.12714965753E+04  0.00000000000E+00 0. -1.
         -1   -1    0    0    0  501 -0.00000000000E+00 -0.00000000000E+00 -0.55250797264E+03  0.55250797264E+03  0.00000000000E+00 0.  1.
         23    2    1    2    0    0 -0.16642704679E+03  0.49674123356E+03 -0.77362784323E+02  0.53747817149E+03  0.91912835913E+02 0.  0.
        254    2    1    2    0    0  0.16642704679E+03 -0.49674123356E+03  0.79635138701E+03  0.12865263765E+04  0.86401664959E+03 0.  0.
        -24    2    4    4    0    0  0.50271883970E+03 -0.36795345399E+03  0.40071471603E+03  0.74500650176E+03  0.79664470928E+02 0.  0.
         24    2    4    4    0    0 -0.33629179291E+03 -0.12878777957E+03  0.39563667098E+03  0.54151987472E+03  0.83886453895E+02 0.  0.
         13    1    3    3    0    0 -0.20397943365E+02  0.12689560766E+03 -0.53243024021E+02  0.13911646539E+03  0.00000000000E+00 0. -1.
        -13    1    3    3    0    0 -0.14602910342E+03  0.36984562590E+03 -0.24119760302E+02  0.39836170610E+03  0.00000000000E+00 0.  1.
          4    1    6    6  502    0 -0.38268822369E+02 -0.31011900542E+02  0.95224119714E+02  0.10720948520E+03  0.00000000000E+00 0. -1.
          1    1    5    5  503    0  0.69963507740E+02 -0.84567453573E+02  0.54418585961E+02  0.12250685335E+03  0.00000000000E+00 0. -1.
         -2    1    5    5    0  503  0.43275533196E+03 -0.28338600042E+03  0.34629613007E+03  0.62249964841E+03  0.00000000000E+00 0.  1.
         -3    1    6    6    0  502 -0.29802297054E+03 -0.97775879027E+02  0.30041255127E+03  0.43431038953E+03  0.00000000000E+00 0.  1.
<mgrwt>
<rscale>  0 0.16763198E+04</rscale>
<asrwt>0</asrwt>
<pdfrwt beam="1">  1        1 0.19561486E+00 0.16763198E+04</pdfrwt>
<pdfrwt beam="2">  1       -1 0.85001227E-01 0.16763198E+04</pdfrwt>
<totfact> 0.12378362E+01</totfact>
</mgrwt>
</event>
<event>
12    1  0.1598876E-007  0.1139051E+04  0.7818608E-02  0.9167945E-01
          2   -1    0    0  501    0  0.00000000000E+00  0.00000000000E+00  0.30487621161E+04  0.30487621161E+04  0.00000000000E+00 0. -1.
         -2   -1    0    0    0  501 -0.00000000000E+00 -0.00000000000E+00 -0.10639041776E+03  0.10639041776E+03  0.00000000000E+00 0.  1.
         23    2    1    2    0    0 -0.93788842632E+02  0.17933057584E+03  0.82349993626E+03  0.85323652672E+03  0.94364310378E+02 0.  0.
        254    2    1    2    0    0  0.93788842632E+02 -0.17933057584E+03  0.21188717621E+04  0.23019160072E+04  0.87649526947E+03 0.  0.
        -24    2    4    4    0    0  0.40186788606E+03  0.15152478133E+03  0.11319891204E+04  0.12135143195E+04  0.82219691300E+02 0.  0.
         24    2    4    4    0    0 -0.30807904343E+03 -0.33085535716E+03  0.98688264168E+03  0.10884016877E+04  0.79390937377E+02 0.  0.
         13    1    3    3    0    0  0.10098852346E+01  0.70476778484E+02  0.39050621222E+03  0.39681620173E+03  0.00000000000E+00 0. -1.
        -13    1    3    3    0    0 -0.94798727866E+02  0.10885379735E+03  0.43299372404E+03  0.45642032499E+03  0.00000000000E+00 0.  1.
          2    1    6    6  502    0 -0.20645029114E+03 -0.16461781567E+03  0.55597898164E+03  0.61549441587E+03  0.00000000000E+00 0. -1.
          1    1    5    5  503    0  0.28135935686E+03  0.11367303935E+03  0.68892038299E+03  0.75279209723E+03  0.00000000000E+00 0. -1.
         -2    1    5    5    0  503  0.12050852921E+03  0.37851741979E+02  0.44306873745E+03  0.46072222226E+03  0.00000000000E+00 0.  1.
         -1    1    6    6    0  502 -0.10162875230E+03 -0.16623754149E+03  0.43090366004E+03  0.47290727181E+03  0.00000000000E+00 0.  1.
<mgrwt>
<rscale>  0 0.11390506E+04</rscale>
<asrwt>0</asrwt>
<pdfrwt beam="1">  1        2 0.46904026E+00 0.11390506E+04</pdfrwt>
<pdfrwt beam="2">  1       -2 0.16367759E-01 0.11390506E+04</pdfrwt>
<totfact> 0.49516341E+01</totfact>
</mgrwt>
</event>
<event>
12    1  0.1598876E-007  0.1727460E+04  0.7818608E-02  0.8745856E-01
         -1   -1    0    0    0  501 -0.00000000000E+00  0.00000000000E+00  0.18323744860E+03  0.18323744860E+03  0.00000000000E+00 0.  1.
          1   -1    0    0  501    0  0.00000000000E+00 -0.00000000000E+00 -0.40713790258E+04  0.40713790258E+04  0.00000000000E+00 0. -1.
         23    2    1    2    0    0  0.58904802005E+03  0.12334941562E+02 -0.19456061557E+04  0.20347977410E+04  0.88818989363E+02 0.  0.
        254    2    1    2    0    0 -0.58904802005E+03 -0.12334941562E+02 -0.19425354215E+04  0.22198187334E+04  0.89834382325E+03 0.  0.
        -24    2    4    4    0    0 -0.10791983886E+03 -0.23719597226E+03 -0.14975636616E+04  0.15221106884E+04  0.78837847653E+02 0.  0.
         24    2    4    4    0    0 -0.48112818119E+03  0.22486103069E+03 -0.44497175981E+03  0.69770804497E+03  0.82157404604E+02 0.  0.
         11    1    3    3    0    0  0.46582217867E+03  0.39575022955E+02 -0.14575319867E+04  0.15306717404E+04  0.00000000000E+00 0. -1.
        -11    1    3    3    0    0  0.12322584139E+03 -0.27240081393E+02 -0.48807416903E+03  0.50412600062E+03  0.00000000000E+00 0.  1.
          2    1    6    6  502    0 -0.36880498590E+03  0.20511099808E+03 -0.36989487895E+03  0.56116829974E+03  0.00000000000E+00 0. -1.
          3    1    5    5  503    0 -0.10751563974E+03 -0.24302212209E+03 -0.14777556910E+04  0.15014597054E+04  0.00000000000E+00 0. -1.
         -4    1    5    5    0  503 -0.40419912328E+00  0.58261498363E+01 -0.19807970641E+02  0.20650983021E+02  0.00000000000E+00 0.  1.
         -1    1    6    6    0  502 -0.11232319529E+03  0.19750032610E+02 -0.75076880856E+02  0.13653974523E+03  0.00000000000E+00 0.  1.
<mgrwt>
<rscale>  0 0.17274595E+04</rscale>
<asrwt>0</asrwt>
<pdfrwt beam="1">  1        1 0.62636599E+00 0.17274595E+04</pdfrwt>
<pdfrwt beam="2">  1       -1 0.28190377E-01 0.17274595E+04</pdfrwt>
<totfact> 0.90841292E-01</totfact>
</mgrwt>
</event>
<event>
12    1  0.1598876E-007  0.1495807E+04  0.7818608E-02  0.8887246E-01
          1   -1    0    0  501    0  0.00000000000E+00  0.00000000000E+00  0.11613967273E+04  0.11613967273E+04  0.00000000000E+00 0. -1.
         -1   -1    0    0    0  501 -0.00000000000E+00 -0.00000000000E+00 -0.48162671513E+03  0.48162671513E+03  0.00000000000E+00 0.  1.
         23    2    1    2    0    0  0.42093786120E+03 -0.15255550031E+03  0.38427985320E+03  0.59703105023E+03  0.91176782675E+02 0.  0.
        254    2    1    2    0    0 -0.42093786120E+03  0.15255550031E+03  0.29549015895E+03  0.10459923922E+04  0.89795533674E+03 0.  0.
        -24    2    4    4    0    0 -0.62732985764E+03  0.32249419199E+03  0.13116222737E+03  0.72195083945E+03  0.80400438636E+02 0.  0.
         24    2    4    4    0    0  0.20639199644E+03 -0.16993869168E+03  0.16432793158E+03  0.32404155272E+03  0.80761647252E+02 0.  0.
         11    1    3    3    0    0  0.57945919265E+02 -0.57401684439E+02  0.63912936901E+02  0.10362213296E+03  0.00000000000E+00 0.  1.
        -11    1    3    3    0    0  0.36299194193E+03 -0.95153815873E+02  0.32036691629E+03  0.49340891727E+03  0.00000000000E+00 0. -1.
          2    1    6    6  502    0  0.89102120353E+02 -0.71776698051E+02  0.11769471347E+03  0.16414361947E+03  0.00000000000E+00 0. -1.
          3    1    5    5  503    0 -0.41806760027E+03  0.23511629690E+03  0.55286158564E+02  0.48282165526E+03  0.00000000000E+00 0. -1.
         -4    1    5    5    0  503 -0.20926225737E+03  0.87377895094E+02  0.75876068802E+02  0.23912918418E+03  0.00000000000E+00 0.  1.
         -1    1    6    6    0  502  0.11728987609E+03 -0.98161993628E+02  0.46633218114E+02  0.15989793325E+03  0.00000000000E+00 0.  1.
<mgrwt>
<rscale>  0 0.14958071E+04</rscale>
<asrwt>0</asrwt>
<pdfrwt beam="1">  1        1 0.17867642E+00 0.14958071E+04</pdfrwt>
<pdfrwt beam="2">  1       -1 0.74096418E-01 0.14958071E+04</pdfrwt>
<totfact> 0.20246257E+01</totfact>
</mgrwt>
</event>
<event>
12    1  0.1598876E-007  0.2203334E+04  0.7818608E-02  0.8517042E-01
         -2   -1    0    0    0  501 -0.00000000000E+00  0.00000000000E+00  0.12303880123E+04  0.12303880123E+04  0.00000000000E+00 0.  1.
          2   -1    0    0  501    0  0.00000000000E+00 -0.00000000000E+00 -0.98641289106E+03  0.98641289106E+03  0.00000000000E+00 0. -1.
         23    2    1    2    0    0  0.91211727777E+03  0.16396200956E+02  0.50289186923E+02  0.91801098892E+03  0.89377903622E+02 0.  0.
        254    2    1    2    0    0 -0.91211727777E+03 -0.16396200956E+02  0.19368593437E+03  0.12987899145E+04  0.90394371339E+03 0.  0.
        -24    2    4    4    0    0 -0.88524162139E+03 -0.21919680022E+03 -0.11281442835E+03  0.92246418356E+03  0.80703836538E+02 0.  0.
         24    2    4    4    0    0 -0.26875656372E+02  0.20280059927E+03  0.30650036271E+03  0.37632573092E+03  0.76342644951E+02 0.  0.
         13    1    3    3    0    0  0.73138196075E+02  0.14010597913E+02  0.25327288181E+02  0.78657257171E+02  0.00000000000E+00 0. -1.
        -13    1    3    3    0    0  0.83897908169E+03  0.23856030432E+01  0.24961898742E+02  0.83935373175E+03  0.00000000000E+00 0.  1.
          2    1    6    6  502    0  0.20582499809E+02  0.31449269696E+02  0.32482325820E+02  0.49676929791E+02  0.00000000000E+00 0. -1.
          3    1    5    5  503    0 -0.18251877325E+03 -0.52024873850E+02  0.86676742936E+01  0.18998636442E+03  0.00000000000E+00 0. -1.
         -4    1    5    5    0  503 -0.70272284815E+03 -0.16717192637E+03 -0.12148210264E+03  0.73247781915E+03  0.00000000000E+00 0.  1.
         -1    1    6    6    0  502 -0.47458156181E+02  0.17135132957E+03  0.27401803689E+03  0.32664880113E+03  0.00000000000E+00 0.  1.
<mgrwt>
<rscale>  0 0.22033344E+04</rscale>
<asrwt>0</asrwt>
<pdfrwt beam="1">  1        2 0.15175583E+00 0.22033344E+04</pdfrwt>
<pdfrwt beam="2">  1       -2 0.18929046E+00 0.22033344E+04</pdfrwt>
<totfact> 0.36797719E+00</totfact>
</mgrwt>
</event>
<event>
12    1  0.1598876E-007  0.1747393E+04  0.7818608E-02  0.8734787E-01
         -2   -1    0    0    0  501 -0.00000000000E+00  0.00000000000E+00  0.50859931897E+03  0.50859931897E+03  0.00000000000E+00 0. -1.
          2   -1    0    0  501    0  0.00000000000E+00 -0.00000000000E+00 -0.15008779860E+04  0.15008779860E+04  0.00000000000E+00 0.  1.
         23    2    1    2    0    0  0.49797292791E+03  0.34791515632E+03 -0.14202196553E+03  0.62990950817E+03  0.87142164661E+02 0.  0.
        254    2    1    2    0    0 -0.49797292791E+03 -0.34791515632E+03 -0.85025670144E+03  0.13795677968E+04  0.90069354087E+03 0.  0.
        -24    2    4    4    0    0 -0.23028748695E+03  0.41162346025E+02  0.13804097994E+03  0.28135473674E+03  0.73338328084E+02 0.  0.
         24    2    4    4    0    0 -0.26768544096E+03 -0.38907750235E+03 -0.98829768139E+03  0.10982130600E+04  0.79390301706E+02 0.  0.
         13    1    3    3    0    0  0.30887798330E+02  0.36511477313E+02  0.88026016373E+01  0.48627459905E+02  0.00000000000E+00 0.  1.
        -13    1    3    3    0    0  0.46708512958E+03  0.31140367901E+03 -0.15082456717E+03  0.58128204827E+03  0.00000000000E+00 0. -1.
          2    1    6    6  502    0 -0.20754701247E+03 -0.29645599241E+03 -0.67287844687E+03  0.76402049847E+03  0.00000000000E+00 0. -1.
          3    1    5    5  503    0 -0.13832618416E+03  0.57154335148E+02  0.10284542682E+03  0.18159827386E+03  0.00000000000E+00 0. -1.
         -4    1    5    5    0  503 -0.91961302796E+02 -0.15991989123E+02  0.35195553126E+02  0.99756462888E+02  0.00000000000E+00 0.  1.
         -1    1    6    6    0  502 -0.60138428488E+02 -0.92621509938E+02 -0.31541923452E+03  0.33419256154E+03  0.00000000000E+00 0.  1.
<mgrwt>
<rscale>  0 0.17473929E+04</rscale>
<asrwt>0</asrwt>
<pdfrwt beam="1">  1        2 0.23090431E+00 0.17473929E+04</pdfrwt>
<pdfrwt beam="2">  1       -2 0.78246049E-01 0.17473929E+04</pdfrwt>
<totfact> 0.17463198E+01</totfact>
</mgrwt>
</event>
<event>
12    1  0.1598876E-007  0.1500333E+04  0.7818608E-02  0.8884232E-01
          2   -1    0    0  501    0  0.00000000000E+00  0.00000000000E+00  0.62770373080E+03  0.62770373080E+03  0.00000000000E+00 0. -1.
         -2   -1    0    0    0  501 -0.00000000000E+00 -0.00000000000E+00 -0.89652107197E+03  0.89652107197E+03  0.00000000000E+00 0.  1.
         23    2    1    2    0    0  0.39120387736E+03 -0.20328644333E+03  0.95930370671E+02  0.46029480938E+03  0.91119832189E+02 0.  0.
        254    2    1    2    0    0 -0.39120387736E+03  0.20328644333E+03 -0.36474771184E+03  0.10639299934E+04  0.89696169697E+03 0.  0.
        -24    2    4    4    0    0  0.43238760186E+02  0.43093908826E+02 -0.54995481403E+03  0.55896793793E+03  0.79171856125E+02 0.  0.
         24    2    4    4    0    0 -0.43444263755E+03  0.16019253450E+03  0.18520710219E+03  0.50496205546E+03  0.79265082630E+02 0.  0.
         13    1    3    3    0    0  0.35656230780E+03 -0.16567162555E+03  0.10803753985E+03  0.40774486738E+03  0.00000000000E+00 0. -1.
        -13    1    3    3    0    0  0.34641569558E+02 -0.37614817779E+02 -0.12107169184E+02  0.52549941994E+02  0.00000000000E+00 0.  1.
          2    1    6    6  502    0 -0.18853372378E+03  0.10422756164E+03  0.61343345893E+02  0.22398963300E+03  0.00000000000E+00 0. -1.
          3    1    5    5  503    0 -0.11194880400E+01 -0.19953471502E+02 -0.67609852961E+02  0.70501677256E+02  0.00000000000E+00 0. -1.
         -4    1    5    5    0  503  0.44358248226E+02  0.63047380328E+02 -0.48234496106E+03  0.48846626067E+03  0.00000000000E+00 0.  1.
         -1    1    6    6    0  502 -0.24590891377E+03  0.55964972862E+02  0.12386375629E+03  0.28097242246E+03  0.00000000000E+00 0.  1.
<mgrwt>
<rscale>  0 0.15003328E+04</rscale>
<asrwt>0</asrwt>
<pdfrwt beam="1">  1        2 0.96569805E-01 0.15003328E+04</pdfrwt>
<pdfrwt beam="2">  1       -2 0.13792632E+00 0.15003328E+04</pdfrwt>
<totfact> 0.16923149E+01</totfact>
</mgrwt>
</event>
<event>
12    1  0.1598876E-007  0.1354881E+04  0.7818608E-02  0.8987142E-01
         -2   -1    0    0    0  501 -0.00000000000E+00  0.00000000000E+00  0.24984224883E+03  0.24984224883E+03  0.00000000000E+00 0.  1.
          2   -1    0    0  501    0  0.00000000000E+00 -0.00000000000E+00 -0.18368602510E+04  0.18368602510E+04  0.00000000000E+00 0. -1.
         23    2    1    2    0    0 -0.12281169614E+03 -0.20896084711E+03 -0.14071444140E+02  0.25881188699E+03  0.89656226633E+02 0.  0.
        254    2    1    2    0    0  0.12281169614E+03  0.20896084711E+03 -0.15729465580E+04  0.18278906128E+04  0.89904163960E+03 0.  0.
        -24    2    4    4    0    0 -0.13474803964E+03  0.14828416040E+03  0.14651528125E+02  0.21638022159E+03  0.80377276707E+02 0.  0.
         24    2    4    4    0    0  0.25755973578E+03  0.60676686716E+02 -0.15875980861E+04  0.16115103912E+04  0.80494596778E+02 0.  0.
         13    1    3    3    0    0 -0.78559827066E+02 -0.52503315332E+02 -0.17908247435E+02  0.96171460817E+02  0.00000000000E+00 0. -1.
        -13    1    3    3    0    0 -0.44251869075E+02 -0.15645753178E+03  0.38368032951E+01  0.16264042618E+03  0.00000000000E+00 0.  1.
          4    1    6    6  502    0  0.13468801198E+03  0.60955147038E+01 -0.61085440156E+03  0.62555664474E+03  0.00000000000E+00 0. -1.
          3    1    5    5  503    0 -0.14562338608E+03  0.14062449153E+03  0.15637293964E+02  0.20304172762E+03  0.00000000000E+00 0. -1.
         -4    1    5    5    0  503  0.10875346441E+02  0.76596688658E+01 -0.98576583845E+00  0.13338493979E+02  0.00000000000E+00 0.  1.
         -3    1    6    6    0  502  0.12287172379E+03  0.54581172012E+02 -0.97674368457E+03  0.98595374648E+03  0.00000000000E+00 0.  1.
<mgrwt>
<rscale>  0 0.13548805E+04</rscale>
<asrwt>0</asrwt>
<pdfrwt beam="1">  1        2 0.28259389E+00 0.13548805E+04</pdfrwt>
<pdfrwt beam="2">  1       -2 0.38437268E-01 0.13548805E+04</pdfrwt>
<totfact> 0.51394026E+01</totfact>
</mgrwt>
</event>
<event>
12    1  0.1598876E-007  0.2170501E+04  0.7818608E-02  0.8530808E-01
          2   -1    0    0  501    0  0.00000000000E+00  0.00000000000E+00  0.15114142338E+04  0.15114142338E+04  0.00000000000E+00 0.  1.
         -2   -1    0    0    0  501 -0.00000000000E+00 -0.00000000000E+00 -0.77924916522E+03  0.77924916522E+03  0.00000000000E+00 0. -1.
         23    2    1    2    0    0  0.47310747460E+03  0.20078874027E+03  0.10795732203E+04  0.11991489780E+04  0.91285994139E+02 0.  0.
        254    2    1    2    0    0 -0.47310747460E+03 -0.20078874027E+03 -0.34740815165E+03  0.10915144211E+04  0.89808936460E+03 0.  0.
        -24    2    4    4    0    0 -0.26898804850E+03 -0.37045648117E+02 -0.63416050417E+03  0.69474788752E+03  0.82390120033E+02 0.  0.
         24    2    4    4    0    0 -0.20411942610E+03 -0.16374309215E+03  0.28675235252E+03  0.39676653354E+03  0.81977009750E+02 0.  0.
         13    1    3    3    0    0  0.20366386748E+02 -0.73554198836E+01  0.27207334167E+02  0.34772560206E+02  0.00000000000E+00 0. -1.
        -13    1    3    3    0    0  0.45274108786E+03  0.20814416015E+03  0.10523658861E+04  0.11643764178E+04  0.00000000000E+00 0.  1.
          4    1    6    6  502    0 -0.29986183928E+02 -0.57005835241E+02  0.10595704874E+03  0.12399892200E+03  0.00000000000E+00 0. -1.
          3    1    5    5  503    0 -0.26471092271E+02  0.20459072330E+02 -0.57415519354E+02  0.66451743614E+02  0.00000000000E+00 0. -1.
         -4    1    5    5    0  503 -0.24251695623E+03 -0.57504720448E+02 -0.57674498482E+03  0.62829614391E+03  0.00000000000E+00 0.  1.
         -3    1    6    6    0  502 -0.17413324217E+03 -0.10673725691E+03  0.18079530378E+03  0.27276761155E+03  0.00000000000E+00 0.  1.
<mgrwt>
<rscale>  0 0.21705007E+04</rscale>
<asrwt>0</asrwt>
<pdfrwt beam="1">  1        2 0.23252527E+00 0.21705007E+04</pdfrwt>
<pdfrwt beam="2">  1       -2 0.11988449E+00 0.21705007E+04</pdfrwt>
<totfact> 0.61005460E+00</totfact>
</mgrwt>
</event>
<event>
12    1  0.1598876E-007  0.1271726E+04  0.7818608E-02  0.9052292E-01
         -1   -1    0    0    0  501 -0.00000000000E+00  0.00000000000E+00  0.20779237387E+03  0.20779237387E+03  0.00000000000E+00 0.  1.
          1   -1    0    0  501    0  0.00000000000E+00 -0.00000000000E+00 -0.19457967506E+04  0.19457967506E+04  0.00000000000E+00 0. -1.
         23    2    1    2    0    0  0.11443927263E+03  0.26937140318E+02 -0.93019516450E+03  0.94197750936E+03  0.90755867232E+02 0.  0.
        254    2    1    2    0    0 -0.11443927263E+03 -0.26937140318E+02 -0.80780921224E+03  0.12116116151E+04  0.89533514722E+03 0.  0.
        -24    2    4    4    0    0 -0.26887832263E+03  0.50315889713E+02  0.86020682440E+02  0.29735797635E+03  0.78708113629E+02 0.  0.
         24    2    4    4    0    0  0.15443905000E+03 -0.77253030031E+02 -0.89382989468E+03  0.91425363876E+03  0.84311236222E+02 0.  0.
         13    1    3    3    0    0 -0.14435490333E+02  0.11044083464E+02 -0.91228943017E+02  0.93021907123E+02  0.00000000000E+00 0.  1.
        -13    1    3    3    0    0  0.12887476297E+03  0.15893056854E+02 -0.83896622148E+03  0.84895560224E+03  0.00000000000E+00 0. -1.
          2    1    6    6  502    0  0.16283640231E+03 -0.61087604719E+02 -0.80407382962E+03  0.82266768069E+03  0.00000000000E+00 0. -1.
          3    1    5    5  503    0 -0.15873413361E+03  0.13987877440E+02  0.86631600931E+02  0.18137590845E+03  0.00000000000E+00 0. -1.
         -4    1    5    5    0  503 -0.11014418903E+03  0.36328012273E+02 -0.61091849087E+00  0.11598206790E+03  0.00000000000E+00 0.  1.
         -1    1    6    6    0  502 -0.83973523139E+01 -0.16165425312E+02 -0.89756065059E+02  0.91585958074E+02  0.00000000000E+00 0.  1.
<mgrwt>
<rscale>  0 0.12717260E+04</rscale>
<asrwt>0</asrwt>
<pdfrwt beam="1">  1        1 0.29935334E+00 0.12717260E+04</pdfrwt>
<pdfrwt beam="2">  1       -1 0.31968058E-01 0.12717260E+04</pdfrwt>
<totfact> 0.29161371E+01</totfact>
</mgrwt>
</event>
<event>
12    1  0.1598876E-007  0.1633788E+04  0.7818608E-02  0.8800056E-01
         -1   -1    0    0    0  501 -0.00000000000E+00  0.00000000000E+00  0.60486560283E+03  0.60486560283E+03  0.00000000000E+00 0.  1.
          1   -1    0    0  501    0  0.00000000000E+00 -0.00000000000E+00 -0.11032460193E+04  0.11032460193E+04  0.00000000000E+00 0. -1.
         23    2    1    2    0    0  0.25832228240E+03 -0.18618419602E+01  0.34835163675E+03  0.44524484452E+03  0.10079801933E+03 0.  0.
        254    2    1    2    0    0 -0.25832228240E+03  0.18618419602E+01 -0.84673205321E+03  0.12628667776E+04  0.90063503153E+03 0.  0.
        -24    2    4    4    0    0 -0.36868211618E+03  0.34298705291E+03 -0.26429211212E+03  0.57430728997E+03  0.80074474921E+02 0.  0.
         24    2    4    4    0    0  0.11035983378E+03 -0.34112521095E+03 -0.58243994109E+03  0.68855948764E+03  0.79574999706E+02 0.  0.
         11    1    3    3    0    0  0.58852983727E+02  0.31143987199E+01  0.22356142839E+02  0.63033088895E+02  0.00000000000E+00 0. -1.
        -11    1    3    3    0    0  0.19946929867E+03 -0.49762406801E+01  0.32599549391E+03  0.38221175562E+03  0.00000000000E+00 0.  1.
          4    1    6    6  502    0  0.64854709460E+02 -0.16087493224E+03 -0.21059439140E+03  0.27283122045E+03  0.00000000000E+00 0. -1.
          3    1    5    5  503    0 -0.50575026922E+02  0.30575934663E+02 -0.58806812210E+02  0.83372431241E+02  0.00000000000E+00 0. -1.
         -4    1    5    5    0  503 -0.31810708926E+03  0.31241111825E+03 -0.20548529991E+03  0.49093485873E+03  0.00000000000E+00 0.  1.
         -3    1    6    6    0  502  0.45505124317E+02 -0.18025027871E+03 -0.37184554969E+03  0.41572826719E+03  0.00000000000E+00 0.  1.
<mgrwt>
<rscale>  0 0.16337877E+04</rscale>
<asrwt>0</asrwt>
<pdfrwt beam="1">  1        1 0.16973016E+00 0.16337877E+04</pdfrwt>
<pdfrwt beam="2">  1       -1 0.93056247E-01 0.16337877E+04</pdfrwt>
<totfact> 0.13532318E+01</totfact>
</mgrwt>
</event>
<event>
12    1  0.1598876E-007  0.1498493E+04  0.7818608E-02  0.8885456E-01
          1   -1    0    0  501    0  0.00000000000E+00  0.00000000000E+00  0.13705034313E+04  0.13705034313E+04  0.00000000000E+00 0. -1.
         -1   -1    0    0    0  501 -0.00000000000E+00 -0.00000000000E+00 -0.40960866665E+03  0.40960866665E+03  0.00000000000E+00 0.  1.
         23    2    1    2    0    0 -0.47624829739E+02 -0.38361576650E+03  0.62700713040E+03  0.74220624088E+03  0.91120698589E+02 0.  0.
        254    2    1    2    0    0  0.47624829739E+02  0.38361576650E+03  0.33388763429E+03  0.10379058571E+04  0.90351449085E+03 0.  0.
        -24    2    4    4    0    0 -0.37124372986E+03 -0.37347242116E+02  0.15778582080E+03  0.41316485538E+03  0.81191803892E+02 0.  0.
         24    2    4    4    0    0  0.41886855960E+03  0.42096300862E+03  0.17610181349E+03  0.62474100173E+03  0.81417109311E+02 0.  0.
         11    1    3    3    0    0 -0.49603450208E+02 -0.37072240015E+03  0.62586656254E+03  0.72911216857E+03  0.00000000000E+00 0. -1.
        -11    1    3    3    0    0  0.19786204682E+01 -0.12893366349E+02  0.11405678648E+01  0.13094072316E+02  0.00000000000E+00 0.  1.
          4    1    6    6  502    0  0.14506084335E+03  0.11107797382E+03  0.83991149421E+02  0.20108574719E+03  0.00000000000E+00 0. -1.
          1    1    5    5  503    0 -0.11383201504E+03  0.24324128049E+02  0.36380572875E+02  0.12195465115E+03  0.00000000000E+00 0. -1.
         -2    1    5    5    0  503 -0.25741171482E+03 -0.61671370165E+02  0.12140524793E+03  0.29121020423E+03  0.00000000000E+00 0.  1.
         -1    1    6    6    0  502  0.27380771625E+03  0.30988503480E+03  0.92110664067E+02  0.42365525455E+03  0.00000000000E+00 0.  1.
<mgrwt>
<rscale>  0 0.14984927E+04</rscale>
<asrwt>0</asrwt>
<pdfrwt beam="1">  1        1 0.21084668E+00 0.14984927E+04</pdfrwt>
<pdfrwt beam="2">  1       -1 0.63016719E-01 0.14984927E+04</pdfrwt>
<totfact> 0.19914424E+01</totfact>
</mgrwt>
</event>
<event>
12    1  0.1598876E-007  0.2365432E+04  0.7818608E-02  0.8452560E-01
         -2   -1    0    0    0  501 -0.00000000000E+00  0.00000000000E+00  0.12480001477E+04  0.12480001477E+04  0.00000000000E+00 0. -1.
          2   -1    0    0  501    0  0.00000000000E+00 -0.00000000000E+00 -0.11208466388E+04  0.11208466388E+04  0.00000000000E+00 0.  1.
         23    2    1    2    0    0  0.55228528213E+01 -0.72065677125E+03 -0.65709388199E+03  0.97959052356E+03  0.91915941279E+02 0.  0.
        254    2    1    2    0    0 -0.55228528213E+01  0.72065677125E+03  0.78424739094E+03  0.13892562630E+04  0.89197102538E+03 0.  0.
        -24    2    4    4    0    0  0.12260686219E+03  0.32230717576E+03 -0.13291401879E+03  0.37787247832E+03  0.78785247856E+02 0.  0.
         24    2    4    4    0    0 -0.12812971502E+03  0.39834959549E+03  0.91716140973E+03  0.10113837846E+04  0.81317182849E+02 0.  0.
         13    1    3    3    0    0 -0.19276992867E+02 -0.92230990123E+02 -0.11980604563E+03  0.15241931164E+03  0.00000000000E+00 0. -1.
        -13    1    3    3    0    0  0.24799845688E+02 -0.62842578112E+03 -0.53728783636E+03  0.82717121192E+03  0.00000000000E+00 0.  1.
          2    1    6    6  502    0 -0.91079566928E+02  0.15509619621E+03  0.40784761812E+03  0.44574656162E+03  0.00000000000E+00 0. -1.
          3    1    5    5  503    0  0.13974009798E-01 -0.74474878609E+00 -0.11660147331E+02  0.11683915517E+02  0.00000000000E+00 0. -1.
         -4    1    5    5    0  503  0.12259288819E+03  0.32305192454E+03 -0.12125387146E+03  0.36618856280E+03  0.00000000000E+00 0.  1.
         -1    1    6    6    0  502 -0.37050148089E+02  0.24325339928E+03  0.50931379161E+03  0.56563722301E+03  0.00000000000E+00 0.  1.
<mgrwt>
<rscale>  0 0.23654317E+04</rscale>
<asrwt>0</asrwt>
<pdfrwt beam="1">  1        2 0.17243794E+00 0.23654317E+04</pdfrwt>
<pdfrwt beam="2">  1       -2 0.19200002E+00 0.23654317E+04</pdfrwt>
<totfact> 0.28664155E+00</totfact>
</mgrwt>
</event>
<event>
12    1  0.1598876E-007  0.1813617E+04  0.7818608E-02  0.8699091E-01
         -2   -1    0    0    0  501 -0.00000000000E+00  0.00000000000E+00  0.54259880070E+03  0.54259880070E+03  0.00000000000E+00 0.  1.
          2   -1    0    0  501    0  0.00000000000E+00 -0.00000000000E+00 -0.15154880290E+04  0.15154880290E+04  0.00000000000E+00 0. -1.
         23    2    1    2    0    0 -0.52368370548E+03  0.20020837672E+03 -0.80840966129E+03  0.98785312991E+03  0.89440529470E+02 0.  0.
        254    2    1    2    0    0  0.52368370548E+03 -0.20020837672E+03 -0.16447956701E+03  0.10702336998E+04  0.89667085751E+03 0.  0.
        -24    2    4    4    0    0  0.62546905438E+03 -0.64558196042E+02  0.19525757720E+03  0.66325942785E+03  0.80051536595E+02 0.  0.
         24    2    4    4    0    0 -0.10178534890E+03 -0.13565018068E+03 -0.35973714422E+03  0.40697427194E+03  0.86348227086E+02 0.  0.
         11    1    3    3    0    0 -0.16485654346E+03  0.34047997492E+02 -0.29710559729E+03  0.34148013412E+03  0.00000000000E+00 0.  1.
        -11    1    3    3    0    0 -0.35882716202E+03  0.16616037923E+03 -0.51130406400E+03  0.64637299579E+03  0.00000000000E+00 0. -1.
          2    1    6    6  502    0 -0.84541249849E+02 -0.14431756836E+03 -0.34223918675E+03  0.38092314765E+03  0.00000000000E+00 0. -1.
          1    1    5    5  503    0  0.34173925345E+03 -0.34820664419E+01  0.13098729245E+03  0.36599933459E+03  0.00000000000E+00 0. -1.
         -2    1    5    5    0  503  0.28372980094E+03 -0.61076129600E+02  0.64270284750E+02  0.29726009326E+03  0.00000000000E+00 0.  1.
         -1    1    6    6    0  502 -0.17244099053E+02  0.86673876838E+01 -0.17497957463E+02  0.26051124290E+02  0.00000000000E+00 0.  1.
<mgrwt>
<rscale>  0 0.18136174E+04</rscale>
<asrwt>0</asrwt>
<pdfrwt beam="1">  1        2 0.23315200E+00 0.18136174E+04</pdfrwt>
<pdfrwt beam="2">  1       -2 0.83476739E-01 0.18136174E+04</pdfrwt>
<totfact> 0.14729865E+01</totfact>
</mgrwt>
</event>
<event>
12    1  0.1598876E-007  0.1152631E+04  0.7818608E-02  0.9155359E-01
         -2   -1    0    0    0  501 -0.00000000000E+00  0.00000000000E+00  0.42141480762E+03  0.42141480762E+03  0.00000000000E+00 0.  1.
          2   -1    0    0  501    0  0.00000000000E+00 -0.00000000000E+00 -0.78815397667E+03  0.78815397667E+03  0.00000000000E+00 0. -1.
         23    2    1    2    0    0 -0.14773929416E+03 -0.15651701161E+03 -0.60379200550E+02  0.24178355380E+03  0.92136665169E+02 0.  0.
        254    2    1    2    0    0  0.14773929416E+03  0.15651701161E+03 -0.30635996850E+03  0.96778523049E+03  0.89242778313E+03 0.  0.
        -24    2    4    4    0    0 -0.25834151880E+03  0.46612048265E+02 -0.44082833373E+03  0.51887089337E+03  0.77358650403E+02 0.  0.
         24    2    4    4    0    0  0.40608081297E+03  0.10990496334E+03  0.13446836523E+03  0.44891433712E+03  0.80384160141E+02 0.  0.
         13    1    3    3    0    0  0.73721836118E+01 -0.33756303309E+02 -0.19896597100E+02  0.39871188601E+02  0.00000000000E+00 0.  1.
        -13    1    3    3    0    0 -0.15511147778E+03 -0.12276070830E+03 -0.40482603450E+02  0.20191236520E+03  0.00000000000E+00 0. -1.
          2    1    6    6  502    0  0.37166142783E+03  0.11144746182E+03  0.14282217395E+03  0.41346212288E+03  0.00000000000E+00 0. -1.
          1    1    5    5  503    0 -0.24657724924E+03  0.31024356177E+02 -0.37239981242E+03  0.44771025319E+03  0.00000000000E+00 0. -1.
         -2    1    5    5    0  503 -0.11764269557E+02  0.15587692088E+02 -0.68428521307E+02  0.71160640182E+02  0.00000000000E+00 0.  1.
         -1    1    6    6    0  502  0.34419385133E+02 -0.15424984831E+01 -0.83538087216E+01  0.35452214242E+02  0.00000000000E+00 0.  1.
<mgrwt>
<rscale>  0 0.11526313E+04</rscale>
<asrwt>0</asrwt>
<pdfrwt beam="1">  1        2 0.12125446E+00 0.11526313E+04</pdfrwt>
<pdfrwt beam="2">  1       -2 0.64833048E-01 0.11526313E+04</pdfrwt>
<totfact> 0.76371384E+01</totfact>
</mgrwt>
</event>
<event>
12    1  0.1598876E-007  0.2019212E+04  0.7818608E-02  0.8597691E-01
         -2   -1    0    0    0  501 -0.00000000000E+00  0.00000000000E+00  0.10558471851E+04  0.10558471851E+04  0.00000000000E+00 0. -1.
          2   -1    0    0  501    0  0.00000000000E+00 -0.00000000000E+00 -0.96538967575E+03  0.96538967575E+03  0.00000000000E+00 0.  1.
         23    2    1    2    0    0 -0.12058153024E+03 -0.19259479056E+03  0.80966330080E+03  0.84597620098E+03  0.92132584765E+02 0.  0.
        254    2    1    2    0    0  0.12058153024E+03  0.19259479056E+03 -0.71920579148E+03  0.11752606598E+04  0.90130349453E+03 0.  0.
        -24    2    4    4    0    0 -0.27238582487E+03 -0.65072554911E+02 -0.62468834664E+03  0.68943955826E+03  0.81626583095E+02 0.  0.
         24    2    4    4    0    0  0.39296735511E+03  0.25766734547E+03 -0.94517444843E+02  0.48582110157E+03  0.79200961174E+02 0.  0.
         13    1    3    3    0    0 -0.98719599941E+02 -0.71811409035E+02  0.38035747891E+03  0.39946745755E+03  0.00000000000E+00 0.  1.
        -13    1    3    3    0    0 -0.21861930299E+02 -0.12078338152E+03  0.42930582189E+03  0.44650874343E+03  0.00000000000E+00 0. -1.
          4    1    6    6  502    0  0.18597645502E+03  0.12950361924E+03 -0.57834055759E+01  0.22669776576E+03  0.00000000000E+00 0. -1.
          3    1    5    5  503    0 -0.26549038018E+03 -0.78180593561E+02 -0.59724799244E+03  0.65825717744E+03  0.00000000000E+00 0. -1.
         -4    1    5    5    0  503 -0.68954446892E+01  0.13108038650E+02 -0.27440354195E+02  0.31182380811E+02  0.00000000000E+00 0.  1.
         -3    1    6    6    0  502  0.20699090009E+03  0.12816372623E+03 -0.88734039267E+02  0.25912333582E+03  0.00000000000E+00 0.  1.
<mgrwt>
<rscale>  0 0.20192117E+04</rscale>
<asrwt>0</asrwt>
<pdfrwt beam="1">  1        2 0.14852149E+00 0.20192117E+04</pdfrwt>
<pdfrwt beam="2">  1       -2 0.16243803E+00 0.20192117E+04</pdfrwt>
<totfact> 0.59456929E+00</totfact>
</mgrwt>
</event>
<event>
12    1  0.1598876E-007  0.2005957E+04  0.7818608E-02  0.8603841E-01
         -2   -1    0    0    0  501 -0.00000000000E+00  0.00000000000E+00  0.11909345731E+04  0.11909345731E+04  0.00000000000E+00 0.  1.
          2   -1    0    0  501    0  0.00000000000E+00 -0.00000000000E+00 -0.84468587535E+03  0.84468587535E+03  0.00000000000E+00 0. -1.
         23    2    1    2    0    0 -0.35162859838E+03 -0.44104418024E+03 -0.42950547117E+03  0.71558930191E+03  0.97110551046E+02 0.  0.
        254    2    1    2    0    0  0.35162859838E+03  0.44104418024E+03  0.77575416893E+03  0.13200311465E+04  0.90693167169E+03 0.  0.
        -24    2    4    4    0    0  0.62000306777E+03  0.34384178173E+03  0.72825528737E+03  0.10196440695E+04  0.81775852118E+02 0.  0.
         24    2    4    4    0    0 -0.26837446939E+03  0.97202398506E+02  0.47498881558E+02  0.30038707703E+03  0.80641739818E+02 0.  0.
         11    1    3    3    0    0 -0.30153914181E+03 -0.38980336874E+03 -0.41066757797E+03  0.64149854241E+03  0.00000000000E+00 0. -1.
        -11    1    3    3    0    0 -0.50089456574E+02 -0.51240811493E+02 -0.18837893199E+02  0.74090759495E+02  0.00000000000E+00 0.  1.
          2    1    6    6  502    0 -0.82567234867E+02  0.69918596486E+02  0.80830719938E+01  0.10849559650E+03  0.00000000000E+00 0. -1.
          1    1    5    5  503    0  0.59696686571E+03  0.34545227457E+03  0.71276757741E+03  0.99183886401E+03  0.00000000000E+00 0. -1.
         -2    1    5    5    0  503  0.23036202068E+02 -0.16104928399E+01  0.15487709956E+02  0.27805205495E+02  0.00000000000E+00 0.  1.
         -1    1    6    6    0  502 -0.18580723453E+03  0.27283802020E+02  0.39415809565E+02  0.19189148053E+03  0.00000000000E+00 0.  1.
<mgrwt>
<rscale>  0 0.20059567E+04</rscale>
<asrwt>0</asrwt>
<pdfrwt beam="1">  1        2 0.12995167E+00 0.20059567E+04</pdfrwt>
<pdfrwt beam="2">  1       -2 0.18322070E+00 0.20059567E+04</pdfrwt>
<totfact> 0.51197950E+00</totfact>
</mgrwt>
</event>
<event>
12    1  0.1598876E-007  0.1167919E+04  0.7818608E-02  0.9141410E-01
          2   -1    0    0  501    0  0.00000000000E+00  0.00000000000E+00  0.41742208060E+03  0.41742208060E+03  0.00000000000E+00 0. -1.
         -2   -1    0    0    0  501 -0.00000000000E+00 -0.00000000000E+00 -0.81693945556E+03  0.81693945556E+03  0.00000000000E+00 0.  1.
         23    2    1    2    0    0 -0.40874812155E+02 -0.12884357221E+02 -0.31313934214E+03  0.32852460090E+03  0.89640442164E+02 0.  0.
        254    2    1    2    0    0  0.40874812155E+02  0.12884357221E+02 -0.86378032830E+02  0.90583693526E+03  0.90069008643E+03 0.  0.
        -24    2    4    4    0    0  0.91710410933E+02  0.24978202184E+03  0.32144684259E+03  0.42498985964E+03  0.80538501845E+02 0.  0.
         24    2    4    4    0    0 -0.50835598779E+02 -0.23689766462E+03 -0.40782487542E+03  0.48084707562E+03  0.78663965819E+02 0.  0.
         11    1    3    3    0    0 -0.48926911053E+01  0.14102350540E+01  0.55269017235E+01  0.75149073062E+01  0.00000000000E+00 0. -1.
        -11    1    3    3    0    0 -0.35982121049E+02 -0.14294592275E+02 -0.31866624386E+03  0.32100969359E+03  0.00000000000E+00 0.  1.
          4    1    6    6  502    0  0.18387424799E+02 -0.94058029491E+02 -0.14502278921E+03  0.17382928318E+03  0.00000000000E+00 0. -1.
          1    1    5    5  503    0  0.26995768661E+02  0.31320022490E+02  0.16957667521E+02  0.44690914313E+02  0.00000000000E+00 0. -1.
         -2    1    5    5    0  503  0.64714642272E+02  0.21846199935E+03  0.30448917507E+03  0.38029894533E+03  0.00000000000E+00 0.  1.
         -3    1    6    6    0  502 -0.69223023578E+02 -0.14283963513E+03 -0.26280208621E+03  0.30701779244E+03  0.00000000000E+00 0.  1.
<mgrwt>
<rscale>  0 0.11679188E+04</rscale>
<asrwt>0</asrwt>
<pdfrwt beam="1">  1        2 0.64218783E-01 0.11679188E+04</pdfrwt>
<pdfrwt beam="2">  1       -2 0.12568299E+00 0.11679188E+04</pdfrwt>
<totfact> 0.35414986E+01</totfact>
</mgrwt>
</event>
<event>
12    1  0.1598876E-007  0.2231318E+04  0.7818608E-02  0.8505505E-01
          2   -1    0    0  501    0  0.00000000000E+00  0.00000000000E+00  0.11809310392E+04  0.11809310392E+04  0.00000000000E+00 0. -1.
         -2   -1    0    0    0  501 -0.00000000000E+00 -0.00000000000E+00 -0.10539950174E+04  0.10539950174E+04  0.00000000000E+00 0.  1.
         23    2    1    2    0    0  0.33972698678E+03 -0.59155577170E+03 -0.57945771273E+03  0.89960228872E+03  0.90334824217E+02 0.  0.
        254    2    1    2    0    0 -0.33972698678E+03  0.59155577170E+03  0.70639373458E+03  0.13353237679E+04  0.90484518027E+03 0.  0.
        -24    2    4    4    0    0  0.11200581769E+03  0.27628204835E+03  0.71464379150E+03  0.77843945686E+03  0.79844635550E+02 0.  0.
         24    2    4    4    0    0 -0.45173280446E+03  0.31527372334E+03 -0.82500569245E+01  0.55688431102E+03  0.81191287499E+02 0.  0.
         11    1    3    3    0    0  0.20392149471E+03 -0.36196594479E+03 -0.29432368480E+03  0.50914610146E+03  0.00000000000E+00 0. -1.
        -11    1    3    3    0    0  0.13580549206E+03 -0.22958982691E+03 -0.28513402793E+03  0.39045618727E+03  0.00000000000E+00 0.  1.
          2    1    6    6  502    0 -0.18507784187E+03  0.99805014238E+02  0.28062951262E+02  0.21213763846E+03  0.00000000000E+00 0. -1.
          1    1    5    5  503    0  0.96819440425E+02  0.22734219289E+03  0.65353862776E+03  0.69869250367E+03  0.00000000000E+00 0. -1.
         -2    1    5    5    0  503  0.15186377261E+02  0.48939855458E+02  0.61105163740E+02  0.79746953185E+02  0.00000000000E+00 0.  1.
         -1    1    6    6    0  502 -0.26665496259E+03  0.21546870911E+03 -0.36313008187E+02  0.34474667256E+03  0.00000000000E+00 0.  1.
<mgrwt>
<rscale>  0 0.22313184E+04</rscale>
<asrwt>0</asrwt>
<pdfrwt beam="1">  1        2 0.18168170E+00 0.22313184E+04</pdfrwt>
<pdfrwt beam="2">  1       -2 0.16215308E+00 0.22313184E+04</pdfrwt>
<totfact> 0.43058961E+00</totfact>
</mgrwt>
</event>
<event>
12    1  0.1599819E-007  0.2422340E+04  0.7818608E-02  0.8431187E-01
         -1   -1    0    0    0  501 -0.00000000000E+00  0.00000000000E+00  0.70114192616E+03  0.70114192616E+03  0.00000000000E+00 0. -1.
          1   -1    0    0  501    0  0.00000000000E+00 -0.00000000000E+00 -0.20922054978E+04  0.20922054978E+04  0.00000000000E+00 0.  1.
         23    2    1    2    0    0 -0.63780843674E+03  0.77894925141E+03 -0.66199708282E+03  0.12083690221E+04  0.91400316067E+02 0.  0.
        254    2    1    2    0    0  0.63780843674E+03 -0.77894925141E+03 -0.72906648878E+03  0.15849784018E+04  0.98339058912E+03 0.  0.
        -24    2    4    4    0    0  0.12411445433E+03 -0.75987629198E+03 -0.11872136325E+03  0.78312113934E+03  0.79797117193E+02 0.  0.
         24    2    4    4    0    0  0.51369398241E+03 -0.19072959434E+02 -0.61034512554E+03  0.80185726243E+03  0.78794744131E+02 0.  0.
         13    1    3    3    0    0 -0.46619864247E+03  0.58557064045E+03 -0.53698265255E+03  0.92118647316E+03  0.00000000000E+00 0.  1.
        -13    1    3    3    0    0 -0.17160979426E+03  0.19337861096E+03 -0.12501443026E+03  0.28718254898E+03  0.00000000000E+00 0. -1.
          4    1    6    6  502    0  0.11520149458E+03  0.27707755393E+02 -0.15145933656E+03  0.19229933618E+03  0.00000000000E+00 0. -1.
          3    1    5    5  503    0  0.71772518995E+01 -0.83584104812E+02 -0.37885550827E+02  0.92049608818E+02  0.00000000000E+00 0. -1.
         -4    1    5    5    0  503  0.11693720243E+03 -0.67629218716E+03 -0.80835812418E+02  0.69107153052E+03  0.00000000000E+00 0.  1.
         -3    1    6    6    0  502  0.39849248783E+03 -0.46780714828E+02 -0.45888578897E+03  0.60955792625E+03  0.00000000000E+00 0.  1.
<mgrwt>
<rscale>  0 0.24223402E+04</rscale>
<asrwt>0</asrwt>
<pdfrwt beam="1">  1        1 0.32187777E+00 0.24223402E+04</pdfrwt>
<pdfrwt beam="2">  1       -1 0.10786799E+00 0.24223402E+04</pdfrwt>
<totfact> 0.18437399E+00</totfact>
</mgrwt>
</event>
<event>
12    1  0.1598876E-007  0.1477079E+04  0.7818608E-02  0.8899840E-01
          2   -1    0    0  501    0  0.00000000000E+00  0.00000000000E+00  0.76172940521E+03  0.76172940521E+03  0.00000000000E+00 0. -1.
         -2   -1    0    0    0  501 -0.00000000000E+00 -0.00000000000E+00 -0.71605524772E+03  0.71605524772E+03  0.00000000000E+00 0.  1.
         23    2    1    2    0    0 -0.39097316964E+03 -0.23205235261E+03 -0.23534454555E+02  0.46921433970E+03  0.11357778084E+03 0.  0.
        254    2    1    2    0    0  0.39097316964E+03  0.23205235261E+03  0.69208612044E+02  0.10085703132E+04  0.89761680634E+03 0.  0.
        -24    2    4    4    0    0 -0.56349935202E+01 -0.15059280565E+03  0.34657614284E+03  0.38644841262E+03  0.80730456250E+02 0.  0.
         24    2    4    4    0    0  0.39660816316E+03  0.38264515825E+03 -0.27736753079E+03  0.62212190061E+03  0.79922211363E+02 0.  0.
         11    1    3    3    0    0 -0.18281034765E+03 -0.62673839514E+02 -0.49789528893E+02  0.19956610573E+03  0.00000000000E+00 0.  1.
        -11    1    3    3    0    0 -0.20816282199E+03 -0.16937851309E+03  0.26255074338E+02  0.26964823397E+03  0.00000000000E+00 0. -1.
          2    1    6    6  502    0  0.29345458599E+03  0.31829242754E+03 -0.19216973145E+03  0.47366113325E+03  0.00000000000E+00 0. -1.
          3    1    5    5  503    0 -0.30139588095E+02 -0.56574161512E+02  0.78735505747E+02  0.10152984973E+03  0.00000000000E+00 0. -1.
         -2    1    5    5    0  503  0.24504594575E+02 -0.94018644133E+02  0.26784063709E+03  0.28491856288E+03  0.00000000000E+00 0.  1.
         -1    1    6    6    0  502  0.10315357717E+03  0.64352730707E+02 -0.85197799346E+02  0.14846076736E+03  0.00000000000E+00 0.  1.
<mgrwt>
<rscale>  0 0.14770787E+04</rscale>
<asrwt>0</asrwt>
<pdfrwt beam="1">  1        2 0.11718914E+00 0.14770787E+04</pdfrwt>
<pdfrwt beam="2">  1       -2 0.11016235E+00 0.14770787E+04</pdfrwt>
<totfact> 0.23286827E+01</totfact>
</mgrwt>
</event>
<event>
12    1  0.1598876E-007  0.1824638E+04  0.7818608E-02  0.8693306E-01
         -2   -1    0    0    0  501 -0.00000000000E+00  0.00000000000E+00  0.11098730118E+04  0.11098730118E+04  0.00000000000E+00 0.  1.
          2   -1    0    0  501    0  0.00000000000E+00 -0.00000000000E+00 -0.74992931884E+03  0.74992931884E+03  0.00000000000E+00 0. -1.
         23    2    1    2    0    0  0.63356855950E+03 -0.15195579739E+03 -0.11612219503E+03  0.66788137335E+03  0.89897056419E+02 0.  0.
        254    2    1    2    0    0 -0.63356855950E+03  0.15195579739E+03  0.47606588798E+03  0.11919209573E+04  0.87723266855E+03 0.  0.
        -24    2    4    4    0    0 -0.48178331562E+03 -0.28786725521E+03  0.73704420924E+02  0.57168344490E+03  0.80043111302E+02 0.  0.
         24    2    4    4    0    0 -0.15178524387E+03  0.43982305260E+03  0.40236146706E+03  0.62023751239E+03  0.79477945014E+02 0.  0.
         11    1    3    3    0    0  0.53824666124E+03 -0.12589026498E+03 -0.64888263143E+02  0.55656833709E+03  0.00000000000E+00 0. -1.
        -11    1    3    3    0    0  0.95321898253E+02 -0.26065532416E+02 -0.51233931882E+02  0.11131303627E+03  0.00000000000E+00 0.  1.
          2    1    6    6  502    0 -0.15569531860E+03  0.43027308119E+03  0.40321366643E+03  0.60988295387E+03  0.00000000000E+00 0. -1.
          1    1    5    5  503    0 -0.32946302418E+03 -0.21008396655E+03  0.15614077157E+02  0.39105620659E+03  0.00000000000E+00 0. -1.
         -2    1    5    5    0  503 -0.15232029144E+03 -0.77783288662E+02  0.58090343767E+02  0.18062723831E+03  0.00000000000E+00 0.  1.
         -1    1    6    6    0  502  0.39100747272E+01  0.95499714131E+01 -0.85219936638E+00  0.10354558519E+02  0.00000000000E+00 0.  1.
<mgrwt>
<rscale>  0 0.18246384E+04</rscale>
<asrwt>0</asrwt>
<pdfrwt beam="1">  1        2 0.11537374E+00 0.18246384E+04</pdfrwt>
<pdfrwt beam="2">  1       -2 0.17074969E+00 0.18246384E+04</pdfrwt>
<totfact> 0.74352264E+00</totfact>
</mgrwt>
</event>
<event>
12    1  0.1598876E-007  0.1664963E+04  0.7818608E-02  0.8781604E-01
         -2   -1    0    0    0  501 -0.00000000000E+00  0.00000000000E+00  0.79447372319E+03  0.79447372319E+03  0.00000000000E+00 0.  1.
          2   -1    0    0  501    0  0.00000000000E+00 -0.00000000000E+00 -0.87230734197E+03  0.87230734197E+03  0.00000000000E+00 0. -1.
         23    2    1    2    0    0  0.23718128000E+03  0.34839713660E+03  0.38508003730E+03  0.57818207236E+03  0.91500542589E+02 0.  0.
        254    2    1    2    0    0 -0.23718128000E+03 -0.34839713660E+03 -0.46291365609E+03  0.10885989928E+04  0.89057464019E+03 0.  0.
        -24    2    4    4    0    0  0.23920967286E+03 -0.97519956386E+02  0.11584575267E+03  0.29403164796E+03  0.79391196648E+02 0.  0.
         24    2    4    4    0    0 -0.47639095287E+03 -0.25087718022E+03 -0.57875940876E+03  0.79456734484E+03  0.80542614335E+02 0.  0.
         13    1    3    3    0    0  0.11831153934E+03  0.18323666474E+03  0.13804017130E+03  0.25812474609E+03  0.00000000000E+00 0. -1.
        -13    1    3    3    0    0  0.11886974066E+03  0.16516047186E+03  0.24703986600E+03  0.32005732628E+03  0.00000000000E+00 0.  1.
          4    1    6    6  502    0 -0.45283110524E+03 -0.21523836122E+03 -0.52595281330E+03  0.72664291356E+03  0.00000000000E+00 0. -1.
          3    1    5    5  503    0  0.18291484233E+03 -0.10870031443E+03  0.94114785784E+02  0.23266110720E+03  0.00000000000E+00 0. -1.
         -4    1    5    5    0  503  0.56294830537E+02  0.11180358046E+02  0.21730966885E+02  0.61370540758E+02  0.00000000000E+00 0.  1.
         -3    1    6    6    0  502 -0.23559847630E+02 -0.35638818997E+02 -0.52806595463E+02  0.67924431276E+02  0.00000000000E+00 0.  1.
<mgrwt>
<rscale>  0 0.16649628E+04</rscale>
<asrwt>0</asrwt>
<pdfrwt beam="1">  1        2 0.13420113E+00 0.16649628E+04</pdfrwt>
<pdfrwt beam="2">  1       -2 0.12222673E+00 0.16649628E+04</pdfrwt>
<totfact> 0.14821619E+01</totfact>
</mgrwt>
</event>
<event>
12    1  0.1598876E-007  0.2286311E+04  0.7818608E-02  0.8483338E-01
         -1   -1    0    0    0  501 -0.00000000000E+00  0.00000000000E+00  0.56870130863E+03  0.56870130863E+03  0.00000000000E+00 0.  1.
          1   -1    0    0  501    0  0.00000000000E+00 -0.00000000000E+00 -0.22978742677E+04  0.22978742677E+04  0.00000000000E+00 0. -1.
         23    2    1    2    0    0  0.25638809052E+03 -0.80558898256E+03 -0.12928501769E+04  0.15474642531E+04  0.92062875597E+02 0.  0.
        254    2    1    2    0    0 -0.25638809052E+03  0.80558898256E+03 -0.43632278216E+03  0.13191113232E+04  0.91376619052E+03 0.  0.
        -24    2    4    4    0    0 -0.71179745005E+01  0.28864593824E+03 -0.63858960575E+03  0.70544975235E+03  0.80594821733E+02 0.  0.
         24    2    4    4    0    0 -0.24927011602E+03  0.51694304432E+03  0.20226682360E+03  0.61366157083E+03  0.79391144242E+02 0.  0.
         13    1    3    3    0    0  0.19527331144E+03 -0.50925898735E+03 -0.88641969069E+03  0.10407767534E+04  0.00000000000E+00 0. -1.
        -13    1    3    3    0    0  0.61114779076E+02 -0.29632999521E+03 -0.40643048620E+03  0.50668749974E+03  0.00000000000E+00 0.  1.
          4    1    6    6  502    0 -0.17018761057E+03  0.32505953881E+03  0.90386910685E+02  0.37788532677E+03  0.00000000000E+00 0. -1.
          1    1    5    5  503    0  0.17927069998E+02  0.81177934464E+02 -0.26060760747E+03  0.27354627023E+03  0.00000000000E+00 0. -1.
         -4    1    5    5    0  503 -0.25045044498E+02  0.20746800378E+03 -0.37798199828E+03  0.43190348212E+03  0.00000000000E+00 0.  1.
         -3    1    6    6    0  502 -0.79082505451E+02  0.19188350551E+03  0.11187991291E+03  0.23577624407E+03  0.00000000000E+00 0.  1.
<mgrwt>
<rscale>  0 0.22863107E+04</rscale>
<asrwt>0</asrwt>
<pdfrwt beam="1">  1        1 0.35351912E+00 0.22863107E+04</pdfrwt>
<pdfrwt beam="2">  1       -1 0.87492508E-01 0.22863107E+04</pdfrwt>
<totfact> 0.21718792E+00</totfact>
</mgrwt>
</event>
<event>
12    1  0.1598876E-007  0.2482522E+04  0.7818608E-02  0.8409239E-01
          1   -1    0    0  501    0  0.00000000000E+00  0.00000000000E+00  0.17585741340E+04  0.17585741340E+04  0.00000000000E+00 0. -1.
         -1   -1    0    0    0  501 -0.00000000000E+00 -0.00000000000E+00 -0.87612422579E+03  0.87612422579E+03  0.00000000000E+00 0.  1.
         23    2    1    2    0    0  0.61449809177E+03  0.80753203842E+03  0.88035627100E+01  0.10188949635E+04  0.91397735021E+02 0.  0.
        254    2    1    2    0    0 -0.61449809177E+03 -0.80753203842E+03  0.87364634551E+03  0.16158033963E+04  0.90434881584E+03 0.  0.
        -24    2    4    4    0    0 -0.66201466898E+03 -0.96618920806E+03  0.77381283957E+03  0.14060315456E+04  0.79708147724E+02 0.  0.
         24    2    4    4    0    0  0.47516577208E+02  0.15865716964E+03  0.99833505934E+02  0.20977185073E+03  0.81287009196E+02 0.  0.
         11    1    3    3    0    0  0.15912732069E+03  0.14770670518E+03  0.54120817994E+01  0.21718210233E+03  0.00000000000E+00 0.  1.
        -11    1    3    3    0    0  0.45537077109E+03  0.65982533324E+03  0.33914809107E+01  0.80171286112E+03  0.00000000000E+00 0. -1.
          4    1    6    6  502    0 -0.16648772496E+01 -0.91704284997E+01  0.77698591914E+01  0.12134219669E+02  0.00000000000E+00 0. -1.
          1    1    5    5  503    0 -0.22366308688E+03 -0.38723605641E+03  0.27367574055E+03  0.52428556225E+03  0.00000000000E+00 0. -1.
         -2    1    5    5    0  503 -0.43835158210E+03 -0.57895315165E+03  0.50013709902E+03  0.88174598335E+03  0.00000000000E+00 0.  1.
         -3    1    6    6    0  502  0.49181454458E+02  0.16782759814E+03  0.92063646743E+02  0.19763763106E+03  0.00000000000E+00 0.  1.
<mgrwt>
<rscale>  0 0.24825224E+04</rscale>
<asrwt>0</asrwt>
<pdfrwt beam="1">  1        1 0.27054987E+00 0.24825224E+04</pdfrwt>
<pdfrwt beam="2">  1       -1 0.13478834E+00 0.24825224E+04</pdfrwt>
<totfact> 0.17888343E+00</totfact>
</mgrwt>
</event>
<event>
12    1  0.1598876E-007  0.2357009E+04  0.7818608E-02  0.8455776E-01
          2   -1    0    0  501    0  0.00000000000E+00  0.00000000000E+00  0.16361552821E+04  0.16361552821E+04  0.00000000000E+00 0. -1.
         -2   -1    0    0    0  501 -0.00000000000E+00 -0.00000000000E+00 -0.84886371014E+03  0.84886371014E+03  0.00000000000E+00 0.  1.
         23    2    1    2    0    0  0.47913572439E+03  0.36248306768E+03 -0.51069326885E+03  0.79391025542E+03  0.92308515738E+02 0.  0.
        254    2    1    2    0    0 -0.47913572439E+03 -0.36248306768E+03  0.12979848408E+04  0.16911087368E+04  0.90228548475E+03 0.  0.
        -24    2    4    4    0    0  0.14454599624E+03 -0.31426649444E+03  0.83796949573E+03  0.91015601107E+03  0.80833867539E+02 0.  0.
         24    2    4    4    0    0 -0.62368172063E+03 -0.48216573231E+02  0.46001534509E+03  0.78095272575E+03  0.83482426603E+02 0.  0.
         11    1    3    3    0    0  0.37793080845E+03  0.28331360487E+03 -0.34848139502E+03  0.58697323393E+03  0.00000000000E+00 0. -1.
        -11    1    3    3    0    0  0.10120491594E+03  0.79169462809E+02 -0.16221187383E+03  0.20693702149E+03  0.00000000000E+00 0.  1.
          4    1    6    6  502    0 -0.49611258082E+03 -0.29363043486E+02  0.32258973004E+03  0.59249811401E+03  0.00000000000E+00 0. -1.
          3    1    5    5  503    0  0.11862524827E+03 -0.16731124372E+03  0.51690879479E+03  0.55611123342E+03  0.00000000000E+00 0. -1.
         -4    1    5    5    0  503  0.25920747977E+02 -0.14695525072E+03  0.32106070094E+03  0.35404477765E+03  0.00000000000E+00 0.  1.
         -1    1    6    6    0  502 -0.12756913981E+03 -0.18853529745E+02  0.13742561505E+03  0.18845461174E+03  0.00000000000E+00 0.  1.
<mgrwt>
<rscale>  0 0.23570090E+04</rscale>
<asrwt>0</asrwt>
<pdfrwt beam="1">  1        2 0.25171620E+00 0.23570090E+04</pdfrwt>
<pdfrwt beam="2">  1       -2 0.13059442E+00 0.23570090E+04</pdfrwt>
<totfact> 0.41244214E+00</totfact>
</mgrwt>
</event>
<event>
12    1  0.1598876E-007  0.2865918E+04  0.7818608E-02  0.8283091E-01
         -2   -1    0    0    0  501 -0.00000000000E+00  0.00000000000E+00  0.65011760158E+03  0.65011760158E+03  0.00000000000E+00 0.  1.
          2   -1    0    0  501    0  0.00000000000E+00 -0.00000000000E+00 -0.31584612940E+04  0.31584612940E+04  0.00000000000E+00 0. -1.
         23    2    1    2    0    0  0.12113496673E+04 -0.40149816971E+03 -0.92309455668E+03  0.15776148102E+04  0.90532491335E+02 0.  0.
        254    2    1    2    0    0 -0.12113496673E+04  0.40149816971E+03 -0.15852491357E+04  0.22309640854E+04  0.91412096078E+03 0.  0.
        -24    2    4    4    0    0 -0.12155468121E+04  0.59372994583E+03 -0.12993819108E+04  0.18774274244E+04  0.79190168006E+02 0.  0.
         24    2    4    4    0    0  0.41971447395E+01 -0.19223177612E+03 -0.28586722492E+03  0.35353666098E+03  0.79356339367E+02 0.  0.
         11    1    3    3    0    0  0.53629684722E+03 -0.14019431030E+03 -0.43402498699E+03  0.70402162062E+03  0.00000000000E+00 0.  1.
        -11    1    3    3    0    0  0.67505282013E+03 -0.26130385942E+03 -0.48906956969E+03  0.87359318959E+03  0.00000000000E+00 0. -1.
          4    1    6    6  502    0  0.11607994550E+02 -0.20488303426E+01 -0.45167696974E+02  0.46680446583E+02  0.00000000000E+00 0. -1.
          3    1    5    5  503    0 -0.16287799357E+03  0.57334608335E+02 -0.14246132421E+03  0.22385648751E+03  0.00000000000E+00 0. -1.
         -4    1    5    5    0  503 -0.10526688185E+04  0.53639533750E+03 -0.11569205866E+04  0.16535709369E+04  0.00000000000E+00 0.  1.
         -1    1    6    6    0  502 -0.74108498101E+01 -0.19018294578E+03 -0.24069952794E+03  0.30685621439E+03  0.00000000000E+00 0.  1.
<mgrwt>
<rscale>  0 0.28659179E+04</rscale>
<asrwt>0</asrwt>
<pdfrwt beam="1">  1        2 0.48591713E+00 0.28659179E+04</pdfrwt>
<pdfrwt beam="2">  1       -2 0.10001809E+00 0.28659179E+04</pdfrwt>
<totfact> 0.98562561E-01</totfact>
</mgrwt>
</event>
<event>
12    1  0.2633893E-007  0.1655790E+04  0.7818608E-02  0.8786989E-01
         -2   -1    0    0    0  501 -0.00000000000E+00  0.00000000000E+00  0.39891068713E+03  0.39891068713E+03  0.00000000000E+00 0.  1.
          2   -1    0    0  501    0  0.00000000000E+00 -0.00000000000E+00 -0.17182037665E+04  0.17182037665E+04  0.00000000000E+00 0. -1.
         23    2    1    2    0    0  0.14183531965E+03 -0.22943390518E+03  0.18392334688E+03  0.33908420156E+03  0.91613991678E+02 0.  0.
        254    2    1    2    0    0 -0.14183531965E+03  0.22943390518E+03 -0.15032164263E+04  0.17780302521E+04  0.91048052059E+03 0.  0.
        -24    2    4    4    0    0  0.12588993492E+03  0.35238318426E+03 -0.18522892957E+03  0.42476399192E+03  0.78054520786E+02 0.  0.
         24    2    4    4    0    0 -0.26772525457E+03 -0.12294927908E+03 -0.13179874967E+04  0.13532662602E+04  0.86285527643E+02 0.  0.
         13    1    3    3    0    0  0.11726801734E+03 -0.22634288561E+03  0.14592268812E+03  0.29372831097E+03  0.00000000000E+00 0.  1.
        -13    1    3    3    0    0  0.24567302317E+02 -0.30910195737E+01  0.38000658761E+02  0.45355890592E+02  0.00000000000E+00 0. -1.
          2    1    6    6  502    0 -0.68167514881E+00 -0.16443200787E+02 -0.12738920226E+03  0.12844785863E+03  0.00000000000E+00 0. -1.
          1    1    5    5  503    0 -0.85009691715E-01  0.54219052356E+02 -0.50719020375E+02  0.74243733021E+02  0.00000000000E+00 0. -1.
         -2    1    5    5    0  503  0.12597494461E+03  0.29816413191E+03 -0.13450990919E+03  0.35052025890E+03  0.00000000000E+00 0.  1.
         -3    1    6    6    0  502 -0.26704357943E+03 -0.10650607829E+03 -0.11905982944E+04  0.12248184015E+04  0.00000000000E+00 0.  1.
<mgrwt>
<rscale>  0 0.16557897E+04</rscale>
<asrwt>0</asrwt>
<pdfrwt beam="1">  1        2 0.26433904E+00 0.16557897E+04</pdfrwt>
<pdfrwt beam="2">  1       -2 0.61370875E-01 0.16557897E+04</pdfrwt>
<totfact> 0.22581319E+01</totfact>
</mgrwt>
</event>
<event>
12    1  0.1598876E-007  0.1943097E+04  0.7818608E-02  0.8633697E-01
          1   -1    0    0  501    0  0.00000000000E+00  0.00000000000E+00  0.10920020884E+04  0.10920020884E+04  0.00000000000E+00 0. -1.
         -1   -1    0    0    0  501 -0.00000000000E+00 -0.00000000000E+00 -0.86438189255E+03  0.86438189255E+03  0.00000000000E+00 0.  1.
         23    2    1    2    0    0  0.46961513884E+02  0.54703932525E+03  0.61851272521E+03  0.83217703480E+03  0.92212899583E+02 0.  0.
        254    2    1    2    0    0 -0.46961513884E+02 -0.54703932525E+03 -0.39089252933E+03  0.11242069462E+04  0.89977046030E+03 0.  0.
        -24    2    4    4    0    0  0.27045395543E+03 -0.48783347431E+03  0.56692677093E+02  0.56635725631E+03  0.80122665156E+02 0.  0.
         24    2    4    4    0    0 -0.31741546931E+03 -0.59205850938E+02 -0.44758520642E+03  0.55784968988E+03  0.81276359141E+02 0.  0.
         13    1    3    3    0    0  0.28902002771E+02  0.86950379188E+02  0.65820862011E+02  0.11281879312E+03  0.00000000000E+00 0.  1.
        -13    1    3    3    0    0  0.18059511112E+02  0.46008894606E+03  0.55269186320E+03  0.71935824168E+03  0.00000000000E+00 0. -1.
          2    1    6    6  502    0 -0.12918239422E+03 -0.63901214791E+02 -0.17830823356E+03  0.22927119832E+03  0.00000000000E+00 0. -1.
          3    1    5    5  503    0  0.52794480752E+01 -0.36865596693E+02 -0.11024787332E+02  0.38839293598E+02  0.00000000000E+00 0. -1.
         -2    1    5    5    0  503  0.26517450735E+03 -0.45096787762E+03  0.67717464425E+02  0.52751796271E+03  0.00000000000E+00 0.  1.
         -1    1    6    6    0  502 -0.18823307509E+03  0.46953638531E+01 -0.26927697286E+03  0.32857849156E+03  0.00000000000E+00 0.  1.
<mgrwt>
<rscale>  0 0.19430974E+04</rscale>
<asrwt>0</asrwt>
<pdfrwt beam="1">  1        1 0.16800032E+00 0.19430974E+04</pdfrwt>
<pdfrwt beam="2">  1       -1 0.13298183E+00 0.19430974E+04</pdfrwt>
<totfact> 0.57381820E+00</totfact>
</mgrwt>
</event>
<event>
12    1  0.1598876E-007  0.2017968E+04  0.7818608E-02  0.8598266E-01
         -2   -1    0    0    0  501 -0.00000000000E+00  0.00000000000E+00  0.53451400511E+03  0.53451400511E+03  0.00000000000E+00 0.  1.
          2   -1    0    0  501    0  0.00000000000E+00 -0.00000000000E+00 -0.19046250927E+04  0.19046250927E+04  0.00000000000E+00 0. -1.
         23    2    1    2    0    0  0.14122572402E+03 -0.14835576720E+03  0.38991452357E+03  0.45019506179E+03  0.93210080876E+02 0.  0.
        254    2    1    2    0    0 -0.14122572402E+03  0.14835576720E+03 -0.17600256111E+04  0.19889440360E+04  0.90346781219E+03 0.  0.
        -24    2    4    4    0    0  0.31798696268E+03  0.10373837753E+03 -0.30421077691E+03  0.45965452618E+03  0.82829507045E+02 0.  0.
         24    2    4    4    0    0 -0.45921268670E+03  0.44617389669E+02 -0.14558148342E+04  0.15292895098E+04  0.80390112609E+02 0.  0.
         11    1    3    3    0    0 -0.87852606870E+01 -0.50749628404E+01  0.20642732113E+01  0.10353611788E+02  0.00000000000E+00 0. -1.
        -11    1    3    3    0    0  0.15001098471E+03 -0.14328080436E+03  0.38785025036E+03  0.43984145000E+03  0.00000000000E+00 0.  1.
          4    1    6    6  502    0 -0.38736086704E+03  0.59844560985E+02 -0.11573418374E+04  0.12219124115E+04  0.00000000000E+00 0. -1.
          3    1    5    5  503    0  0.14076193515E+03  0.16924333636E+02 -0.16819077142E+03  0.21997384173E+03  0.00000000000E+00 0. -1.
         -4    1    5    5    0  503  0.17722502753E+03  0.86814043899E+02 -0.13602000549E+03  0.23968068445E+03  0.00000000000E+00 0.  1.
         -3    1    6    6    0  502 -0.71851819656E+02 -0.15227171315E+02 -0.29847299677E+03  0.30737709826E+03  0.00000000000E+00 0.  1.
<mgrwt>
<rscale>  0 0.20179681E+04</rscale>
<asrwt>0</asrwt>
<pdfrwt beam="1">  1        2 0.29301924E+00 0.20179681E+04</pdfrwt>
<pdfrwt beam="2">  1       -2 0.82232925E-01 0.20179681E+04</pdfrwt>
<totfact> 0.90960840E+00</totfact>
</mgrwt>
</event>
<event>
12    1  0.1598876E-007  0.2727242E+04  0.7818608E-02  0.8326220E-01
         -1   -1    0    0    0  501 -0.00000000000E+00  0.00000000000E+00  0.17114253305E+04  0.17114253305E+04  0.00000000000E+00 0.  1.
          1   -1    0    0  501    0  0.00000000000E+00 -0.00000000000E+00 -0.10864989296E+04  0.10864989296E+04  0.00000000000E+00 0. -1.
         23    2    1    2    0    0 -0.11377495005E+04  0.33723484885E+03  0.35188880605E+02  0.11906059067E+04  0.90016102834E+02 0.  0.
        254    2    1    2    0    0  0.11377495005E+04 -0.33723484885E+03  0.58973752032E+03  0.16073183533E+04  0.90965964898E+03 0.  0.
        -24    2    4    4    0    0  0.79323441898E+03  0.22354949260E+03  0.26966898414E+03  0.87096797895E+03  0.81661742924E+02 0.  0.
         24    2    4    4    0    0  0.34451508149E+03 -0.56078434144E+03  0.32006853618E+03  0.73635037438E+03  0.81229840665E+02 0.  0.
         13    1    3    3    0    0 -0.27454564100E+03  0.11274238025E+03  0.33577146441E+02  0.29868642095E+03  0.00000000000E+00 0.  1.
        -13    1    3    3    0    0 -0.86320385947E+03  0.22449246860E+03  0.16117341637E+01  0.89191948580E+03  0.00000000000E+00 0. -1.
          2    1    6    6  502    0  0.33087658591E+03 -0.55164894472E+03  0.32278386427E+03  0.71971195373E+03  0.00000000000E+00 0. -1.
          1    1    5    5  503    0  0.74047997742E+03  0.22625519673E+03  0.26300925282E+03  0.81772604097E+03  0.00000000000E+00 0. -1.
         -2    1    5    5    0  503  0.52754441556E+02 -0.27057041316E+01  0.66597313200E+01  0.53241937981E+02  0.00000000000E+00 0.  1.
         -1    1    6    6    0  502  0.13638495584E+02 -0.91353967234E+01 -0.27153280866E+01  0.16638420649E+02  0.00000000000E+00 0.  1.
<mgrwt>
<rscale>  0 0.27272417E+04</rscale>
<asrwt>0</asrwt>
<pdfrwt beam="1">  1        1 0.16715368E+00 0.27272417E+04</pdfrwt>
<pdfrwt beam="2">  1       -1 0.26329620E+00 0.27272417E+04</pdfrwt>
<totfact> 0.64577765E-01</totfact>
</mgrwt>
</event>
<event>
12    1  0.1899172E-007  0.1898509E+04  0.7818608E-02  0.8655599E-01
         -1   -1    0    0    0  501 -0.00000000000E+00  0.00000000000E+00  0.26123110172E+03  0.26123110172E+03  0.00000000000E+00 0.  1.
          1   -1    0    0  501    0  0.00000000000E+00 -0.00000000000E+00 -0.34493762983E+04  0.34493762983E+04  0.00000000000E+00 0. -1.
         23    2    1    2    0    0  0.11342250429E+03  0.27601851131E+03 -0.25506508220E+04  0.25696724689E+04  0.91356985529E+02 0.  0.
        254    2    1    2    0    0 -0.11342250429E+03 -0.27601851131E+03 -0.63749437456E+03  0.11409349311E+04  0.89793237844E+03 0.  0.
        -24    2    4    4    0    0 -0.31806395462E+03 -0.34012864346E+03 -0.97156156279E+01  0.47295406486E+03  0.82091296413E+02 0.  0.
         24    2    4    4    0    0  0.20464145034E+03  0.64110132142E+02 -0.62777875893E+03  0.66798086620E+03  0.78128325270E+02 0.  0.
         11    1    3    3    0    0  0.11526822307E+03  0.26429976528E+03 -0.25250106797E+04  0.25414208746E+04  0.00000000000E+00 0. -1.
        -11    1    3    3    0    0 -0.18457187838E+01  0.11718746038E+02 -0.25640142287E+02  0.28251594345E+02  0.00000000000E+00 0.  1.
          2    1    6    6  502    0  0.36049633581E+02  0.18214269634E+02 -0.49531335770E+02  0.63911571119E+02  0.00000000000E+00 0. -1.
          1    1    5    5  503    0  0.33176616301E+01  0.14672888890E+01 -0.13347680935E+01  0.38654134628E+01  0.00000000000E+00 0. -1.
         -2    1    5    5    0  503 -0.32138161625E+03 -0.34159593235E+03 -0.83808475344E+01  0.46908865139E+03  0.00000000000E+00 0.  1.
         -1    1    6    6    0  502  0.16859181676E+03  0.45895862508E+02 -0.57824742316E+03  0.60406929508E+03  0.00000000000E+00 0.  1.
<mgrwt>
<rscale>  0 0.18985093E+04</rscale>
<asrwt>0</asrwt>
<pdfrwt beam="1">  1        1 0.53067326E+00 0.18985093E+04</pdfrwt>
<pdfrwt beam="2">  1       -1 0.40189402E-01 0.18985093E+04</pdfrwt>
<totfact> 0.15552051E+00</totfact>
</mgrwt>
</event>
<event>
12    1  0.1598876E-007  0.1146657E+04  0.7818608E-02  0.9160873E-01
         -2   -1    0    0    0  501 -0.00000000000E+00  0.00000000000E+00  0.60264548713E+03  0.60264548713E+03  0.00000000000E+00 0.  1.
          2   -1    0    0  501    0  0.00000000000E+00 -0.00000000000E+00 -0.54543739830E+03  0.54543739830E+03  0.00000000000E+00 0. -1.
         23    2    1    2    0    0  0.17801377628E+03 -0.23137354991E+02  0.10032827899E+03  0.22427860456E+03  0.89503559474E+02 0.  0.
        254    2    1    2    0    0 -0.17801377628E+03  0.23137354991E+02 -0.43120190165E+02  0.92380428087E+03  0.90516891066E+03 0.  0.
        -24    2    4    4    0    0 -0.16258266844E+01  0.34083806843E+03 -0.30877306580E+03  0.46613477446E+03  0.75944648198E+02 0.  0.
         24    2    4    4    0    0 -0.17638794959E+03 -0.31770071344E+03  0.26565287563E+03  0.45766950642E+03  0.82725296562E+02 0.  0.
         11    1    3    3    0    0  0.13874096570E+03 -0.15473063397E+02  0.29131784496E+02  0.14260831716E+03  0.00000000000E+00 0. -1.
        -11    1    3    3    0    0  0.39272810578E+02 -0.76642915936E+01  0.71196494499E+02  0.81670287408E+02  0.00000000000E+00 0.  1.
          2    1    6    6  502    0 -0.51024914963E+02 -0.93245675441E+02  0.33976609620E+02  0.11159170192E+03  0.00000000000E+00 0. -1.
          3    1    5    5  503    0 -0.30805198918E+02  0.10684813236E+03 -0.75255932021E+02  0.13427188452E+03  0.00000000000E+00 0. -1.
         -4    1    5    5    0  503  0.29179372233E+02  0.23398993607E+03 -0.23351713378E+03  0.33186288993E+03  0.00000000000E+00 0.  1.
         -1    1    6    6    0  502 -0.12536303463E+03 -0.22445503800E+03  0.23167626601E+03  0.34607780450E+03  0.00000000000E+00 0.  1.
<mgrwt>
<rscale>  0 0.11466567E+04</rscale>
<asrwt>0</asrwt>
<pdfrwt beam="1">  1        2 0.83913446E-01 0.11466567E+04</pdfrwt>
<pdfrwt beam="2">  1       -2 0.92714690E-01 0.11466567E+04</pdfrwt>
<totfact> 0.54324015E+01</totfact>
</mgrwt>
</event>
<event>
12    1  0.1598876E-007  0.1534885E+04  0.7818608E-02  0.8861581E-01
         -2   -1    0    0    0  501 -0.00000000000E+00  0.00000000000E+00  0.57196414147E+03  0.57196414147E+03  0.00000000000E+00 0. -1.
          2   -1    0    0  501    0  0.00000000000E+00 -0.00000000000E+00 -0.10297287251E+04  0.10297287251E+04  0.00000000000E+00 0.  1.
         23    2    1    2    0    0  0.35838116525E+03 -0.13739496540E+01  0.20911799749E+03  0.42456353226E+03  0.89916120358E+02 0.  0.
        254    2    1    2    0    0 -0.35838116525E+03  0.13739496540E+01 -0.66688258108E+03  0.11771293343E+04  0.90136682062E+03 0.  0.
        -24    2    4    4    0    0 -0.44366853349E+03 -0.35423762548E+03 -0.27694086057E+03  0.63654491363E+03  0.78531037854E+02 0.  0.
         24    2    4    4    0    0  0.85287368235E+02  0.35561157513E+03 -0.38994172051E+03  0.54058442064E+03  0.80271058861E+02 0.  0.
         13    1    3    3    0    0  0.14421905278E+02  0.20018901763E+02  0.17512605002E+02  0.30256224378E+02  0.00000000000E+00 0.  1.
        -13    1    3    3    0    0  0.34395925998E+03 -0.21392851417E+02  0.19160539249E+03  0.39430730788E+03  0.00000000000E+00 0. -1.
          4    1    6    6  502    0  0.86431304801E+02  0.34543461201E+03 -0.39257526741E+03  0.53001017179E+03  0.00000000000E+00 0. -1.
          3    1    5    5  503    0 -0.42852452075E+03 -0.32117077043E+03 -0.24847084916E+03  0.59035725755E+03  0.00000000000E+00 0. -1.
         -4    1    5    5    0  503 -0.15144012741E+02 -0.33066855052E+02 -0.28470011408E+02  0.46187656084E+02  0.00000000000E+00 0.  1.
         -3    1    6    6    0  502 -0.11439365654E+01  0.10176963128E+02  0.26335468982E+01  0.10574248845E+02  0.00000000000E+00 0.  1.
<mgrwt>
<rscale>  0 0.15348849E+04</rscale>
<asrwt>0</asrwt>
<pdfrwt beam="1">  1        2 0.15841980E+00 0.15348849E+04</pdfrwt>
<pdfrwt beam="2">  1       -2 0.87994483E-01 0.15348849E+04</pdfrwt>
<totfact> 0.25868006E+01</totfact>
</mgrwt>
</event>
<event>
12    1  0.1598876E-007  0.2902736E+04  0.7818608E-02  0.8272064E-01
         -1   -1    0    0    0  501 -0.00000000000E+00  0.00000000000E+00  0.21918160046E+04  0.21918160046E+04  0.00000000000E+00 0.  1.
          1   -1    0    0  501    0  0.00000000000E+00 -0.00000000000E+00 -0.96106092936E+03  0.96106092936E+03  0.00000000000E+00 0. -1.
         23    2    1    2    0    0 -0.25046114825E+03 -0.11481533278E+04 -0.67488589097E+02  0.11805079577E+04  0.89763454163E+02 0.  0.
        254    2    1    2    0    0  0.25046114825E+03  0.11481533278E+04  0.12982436643E+04  0.19723689762E+04  0.90764305505E+03 0.  0.
        -24    2    4    4    0    0  0.50013224237E+03  0.10822240881E+04  0.11746716946E+04  0.16757191531E+04  0.82703406655E+02 0.  0.
         24    2    4    4    0    0 -0.24967109412E+03  0.65929239749E+02  0.12357196975E+03  0.29664982308E+03  0.77773812614E+02 0.  0.
         11    1    3    3    0    0 -0.52905466600E+02 -0.11576029067E+03 -0.97578855801E+00  0.12728073482E+03  0.00000000000E+00 0.  1.
        -11    1    3    3    0    0 -0.19755568165E+03 -0.10323930371E+04 -0.66512800539E+02  0.10532272229E+04  0.00000000000E+00 0. -1.
          4    1    6    6  502    0 -0.17036378663E+03  0.68580445515E+01  0.71474963291E+02  0.18487704819E+03  0.00000000000E+00 0. -1.
          1    1    5    5  503    0  0.94772133279E+02  0.27060231407E+03  0.31376960235E+03  0.42503968401E+03  0.00000000000E+00 0. -1.
         -2    1    5    5    0  503  0.40536010909E+03  0.81162177399E+03  0.86090209221E+03  0.12506794691E+04  0.00000000000E+00 0.  1.
         -3    1    6    6    0  502 -0.79307307497E+02  0.59071195197E+02  0.52097006463E+02  0.11177277489E+03  0.00000000000E+00 0.  1.
<mgrwt>
<rscale>  0 0.29027358E+04</rscale>
<asrwt>0</asrwt>
<pdfrwt beam="1">  1        1 0.14785553E+00 0.29027358E+04</pdfrwt>
<pdfrwt beam="2">  1       -1 0.33720246E+00 0.29027358E+04</pdfrwt>
<totfact> 0.26306978E-01</totfact>
</mgrwt>
</event>
<event>
12    1  0.1598876E-007  0.2239063E+04  0.7818608E-02  0.8502343E-01
         -2   -1    0    0    0  501 -0.00000000000E+00  0.00000000000E+00  0.70137377185E+03  0.70137377185E+03  0.00000000000E+00 0.  1.
          2   -1    0    0  501    0  0.00000000000E+00 -0.00000000000E+00 -0.17869947376E+04  0.17869947376E+04  0.00000000000E+00 0. -1.
         23    2    1    2    0    0 -0.39334737276E+03 -0.52923563826E+03  0.28133691213E+03  0.72263771145E+03  0.90787044321E+02 0.  0.
        254    2    1    2    0    0  0.39334737276E+03  0.52923563826E+03 -0.13669578779E+04  0.17657307980E+04  0.90245160238E+03 0.  0.
        -24    2    4    4    0    0  0.59705537785E+03  0.53994527932E+03 -0.13114165701E+04  0.15406760378E+04  0.76506236255E+02 0.  0.
         24    2    4    4    0    0 -0.20370800509E+03 -0.10709641063E+02 -0.55541307746E+02  0.22505476019E+03  0.77156726652E+02 0.  0.
         13    1    3    3    0    0 -0.16803876768E+03 -0.28159541986E+03  0.17293111500E+03  0.37072655484E+03  0.00000000000E+00 0. -1.
        -13    1    3    3    0    0 -0.22530860508E+03 -0.24764021840E+03  0.10840579714E+03  0.35191115661E+03  0.00000000000E+00 0.  1.
          4    1    6    6  502    0 -0.19891234978E+03  0.11964974897E+01 -0.64826355350E+02  0.20921283625E+03  0.00000000000E+00 0. -1.
          3    1    5    5  503    0  0.10641913809E+03  0.81769789245E+02 -0.17138263177E+03  0.21767714132E+03  0.00000000000E+00 0. -1.
         -4    1    5    5    0  503  0.49063623976E+03  0.45817549008E+03 -0.11400339384E+04  0.13229988965E+04  0.00000000000E+00 0.  1.
         -3    1    6    6    0  502 -0.47956553031E+01 -0.11906138552E+02  0.92850476044E+01  0.15841923937E+02  0.00000000000E+00 0.  1.
<mgrwt>
<rscale>  0 0.22390634E+04</rscale>
<asrwt>0</asrwt>
<pdfrwt beam="1">  1        2 0.27492227E+00 0.22390634E+04</pdfrwt>
<pdfrwt beam="2">  1       -2 0.10790366E+00 0.22390634E+04</pdfrwt>
<totfact> 0.55025401E+00</totfact>
</mgrwt>
</event>
<event>
12    1  0.1598876E-007  0.2435400E+04  0.7818608E-02  0.8426368E-01
          2   -1    0    0  501    0  0.00000000000E+00  0.00000000000E+00  0.21333677215E+04  0.21333677215E+04  0.00000000000E+00 0. -1.
         -2   -1    0    0    0  501 -0.00000000000E+00 -0.00000000000E+00 -0.69504812383E+03  0.69504812383E+03  0.00000000000E+00 0.  1.
         23    2    1    2    0    0  0.48936517374E+03 -0.78991528173E+03  0.11895433103E+04  0.15125339149E+04  0.96442372863E+02 0.  0.
        254    2    1    2    0    0 -0.48936517374E+03  0.78991528173E+03  0.24877628742E+03  0.13158819304E+04  0.89789263723E+03 0.  0.
        -24    2    4    4    0    0 -0.23172056285E+03  0.90178033471E+03  0.30991082978E+01  0.93441884173E+03  0.78909923171E+02 0.  0.
         24    2    4    4    0    0 -0.25764461089E+03 -0.11186505299E+03  0.24567717912E+03  0.38146308867E+03  0.79134544151E+02 0.  0.
         13    1    3    3    0    0  0.28058559438E+03 -0.51511043667E+03  0.80168396161E+03  0.99336006163E+03  0.00000000000E+00 0. -1.
        -13    1    3    3    0    0  0.20877957936E+03 -0.27480484506E+03  0.38785934864E+03  0.51917385330E+03  0.00000000000E+00 0.  1.
          4    1    6    6  502    0 -0.22860953573E+03 -0.66753599312E+02  0.19913552394E+03  0.31044052529E+03  0.00000000000E+00 0. -1.
          3    1    5    5  503    0 -0.22781838012E+03  0.79107985713E+03  0.11727215803E+02  0.82331408482E+03  0.00000000000E+00 0. -1.
         -4    1    5    5    0  503 -0.39021827330E+01  0.11070047759E+03 -0.86281075048E+01  0.11110475690E+03  0.00000000000E+00 0.  1.
         -3    1    6    6    0  502 -0.29035075156E+02 -0.45111453673E+02  0.46541655181E+02  0.71022563378E+02  0.00000000000E+00 0.  1.
<mgrwt>
<rscale>  0 0.24354000E+04</rscale>
<asrwt>0</asrwt>
<pdfrwt beam="1">  1        2 0.32821041E+00 0.24354000E+04</pdfrwt>
<pdfrwt beam="2">  1       -2 0.10693048E+00 0.24354000E+04</pdfrwt>
<totfact> 0.35502094E+00</totfact>
</mgrwt>
</event>
<event>
12    1  0.1598876E-007  0.1800848E+04  0.7818608E-02  0.8705849E-01
         -1   -1    0    0    0  501 -0.00000000000E+00  0.00000000000E+00  0.26174459348E+04  0.26174459348E+04  0.00000000000E+00 0.  1.
          1   -1    0    0  501    0  0.00000000000E+00 -0.00000000000E+00 -0.30975371582E+03  0.30975371582E+03  0.00000000000E+00 0. -1.
         23    2    1    2    0    0  0.12915358493E+02  0.59345385435E+03  0.35885541572E+03  0.69957935105E+03  0.90993270575E+02 0.  0.
        254    2    1    2    0    0 -0.12915358493E+02 -0.59345385435E+03  0.19488368033E+04  0.22276202996E+04  0.90109546086E+03 0.  0.
        -24    2    4    4    0    0  0.32990410548E+03 -0.61986937002E+03  0.10907263815E+04  0.12997719114E+04  0.81536664208E+02 0.  0.
         24    2    4    4    0    0 -0.34281946397E+03  0.26415515663E+02  0.85811042173E+03  0.92784838816E+03  0.79537231495E+02 0.  0.
         11    1    3    3    0    0  0.15658114050E+02  0.15271189718E+03  0.50245048480E+02  0.16152605045E+03  0.00000000000E+00 0. -1.
        -11    1    3    3    0    0 -0.27427555566E+01  0.44074195717E+03  0.30861036724E+03  0.53805330060E+03  0.00000000000E+00 0.  1.
          4    1    6    6  502    0 -0.12284694513E+03 -0.33585352770E+01  0.40586235689E+03  0.42406002455E+03  0.00000000000E+00 0. -1.
          3    1    5    5  503    0  0.48448646177E+01 -0.36970391382E+02  0.37460762978E+02  0.52854435149E+02  0.00000000000E+00 0. -1.
         -4    1    5    5    0  503  0.32505924086E+03 -0.58289897864E+03  0.10532656186E+04  0.12469174763E+04  0.00000000000E+00 0.  1.
         -1    1    6    6    0  502 -0.21997251885E+03  0.29774050940E+02  0.45224806484E+03  0.50378836361E+03  0.00000000000E+00 0.  1.
<mgrwt>
<rscale>  0 0.18008482E+04</rscale>
<asrwt>0</asrwt>
<pdfrwt beam="1">  1        1 0.47654420E-01 0.18008482E+04</pdfrwt>
<pdfrwt beam="2">  1       -1 0.40268398E+00 0.18008482E+04</pdfrwt>
<totfact> 0.54573949E-01</totfact>
</mgrwt>
</event>
<event>
12    1  0.1598876E-007  0.3067019E+04  0.7818608E-02  0.8224848E-01
          1   -1    0    0  501    0  0.00000000000E+00  0.00000000000E+00  0.11234909558E+04  0.11234909558E+04  0.00000000000E+00 0. -1.
         -1   -1    0    0    0  501 -0.00000000000E+00 -0.00000000000E+00 -0.20931644240E+04  0.20931644240E+04  0.00000000000E+00 0.  1.
         23    2    1    2    0    0 -0.57236829348E+03 -0.63932547799E+03 -0.16042915704E+04  0.18216855688E+04  0.91893083429E+02 0.  0.
        254    2    1    2    0    0  0.57236829348E+03  0.63932547799E+03  0.63461810211E+03  0.13949698110E+04  0.89825280839E+03 0.  0.
        -24    2    4    4    0    0  0.12037939335E+03  0.52030893192E+03  0.73148705452E+03  0.90939413123E+03  0.81925527207E+02 0.  0.
         24    2    4    4    0    0  0.45198890013E+03  0.11901654607E+03 -0.96868952411E+02  0.48557567973E+03  0.89113650606E+02 0.  0.
         13    1    3    3    0    0 -0.11593036095E+03 -0.79359044424E+02 -0.25136781231E+03  0.28796437902E+03  0.00000000000E+00 0. -1.
        -13    1    3    3    0    0 -0.45643793253E+03 -0.55996643357E+03 -0.13529237581E+04  0.15337211898E+04  0.00000000000E+00 0.  1.
          4    1    6    6  502    0  0.44373011496E+03  0.10456600928E+03 -0.81883791984E+02  0.46317968502E+03  0.00000000000E+00 0. -1.
          3    1    5    5  503    0  0.68157843811E+02  0.19344394086E+03  0.33613317445E+03  0.39376587065E+03  0.00000000000E+00 0. -1.
         -4    1    5    5    0  503  0.52221549539E+02  0.32686499106E+03  0.39535388008E+03  0.51562826058E+03  0.00000000000E+00 0.  1.
         -3    1    6    6    0  502  0.82587851637E+01  0.14450536798E+02 -0.14985160427E+02  0.22395994712E+02  0.00000000000E+00 0.  1.
<mgrwt>
<rscale>  0 0.30670189E+04</rscale>
<asrwt>0</asrwt>
<pdfrwt beam="1">  1        1 0.17284476E+00 0.30670189E+04</pdfrwt>
<pdfrwt beam="2">  1       -1 0.32202529E+00 0.30670189E+04</pdfrwt>
<totfact> 0.24451919E-01</totfact>
</mgrwt>
</event>
<event>
12    1  0.1749205E-007  0.1705656E+04  0.7818608E-02  0.8758145E-01
         -2   -1    0    0    0  501 -0.00000000000E+00  0.00000000000E+00  0.55882465680E+03  0.55882465680E+03  0.00000000000E+00 0.  1.
          2   -1    0    0  501    0  0.00000000000E+00 -0.00000000000E+00 -0.13015093233E+04  0.13015093233E+04  0.00000000000E+00 0. -1.
         23    2    1    2    0    0  0.13055548845E+02 -0.52854423787E+03 -0.62782591049E+03  0.83037468375E+03  0.12580652923E+03 0.  0.
        254    2    1    2    0    0 -0.13055548845E+02  0.52854423787E+03 -0.11485875598E+03  0.10299592963E+04  0.87640981253E+03 0.  0.
        -24    2    4    4    0    0 -0.29897073109E+03  0.63132363957E+03 -0.13636385933E+03  0.71598884607E+03  0.78050558193E+02 0.  0.
         24    2    4    4    0    0  0.28591518224E+03 -0.10277940170E+03  0.21505103353E+02  0.31397045024E+03  0.76183182560E+02 0.  0.
         13    1    3    3    0    0  0.18312916679E+02 -0.39372949957E+01 -0.18805492144E+02  0.26542640109E+02  0.00000000000E+00 0.  1.
        -13    1    3    3    0    0 -0.52573678339E+01 -0.52460694287E+03 -0.60902041835E+03  0.80383204365E+03  0.00000000000E+00 0. -1.
          2    1    6    6  502    0  0.30094317036E+02 -0.31535774975E+02  0.21065477188E+02  0.48414123459E+02  0.00000000000E+00 0. -1.
          1    1    5    5  503    0  0.20635429247E-01  0.37684597444E+02 -0.12074215627E+01  0.37703941135E+02  0.00000000000E+00 0. -1.
         -2    1    5    5    0  503 -0.29899136652E+03  0.59363904213E+03 -0.13515643777E+03  0.67828490493E+03  0.00000000000E+00 0.  1.
         -1    1    6    6    0  502  0.25582086521E+03 -0.71243626728E+02  0.43962616542E+00  0.26555632679E+03  0.00000000000E+00 0.  1.
<mgrwt>
<rscale>  0 0.17056559E+04</rscale>
<asrwt>0</asrwt>
<pdfrwt beam="1">  1        2 0.20023220E+00 0.17056559E+04</pdfrwt>
<pdfrwt beam="2">  1       -2 0.85973026E-01 0.17056559E+04</pdfrwt>
<totfact> 0.18424062E+01</totfact>
</mgrwt>
</event>
<event>
12    1  0.1598876E-007  0.2992211E+04  0.7818608E-02  0.8245959E-01
          2   -1    0    0  501    0  0.00000000000E+00  0.00000000000E+00  0.16192317522E+04  0.16192317522E+04  0.00000000000E+00 0. -1.
         -2   -1    0    0    0  501 -0.00000000000E+00 -0.00000000000E+00 -0.13823413989E+04  0.13823413989E+04  0.00000000000E+00 0.  1.
         23    2    1    2    0    0 -0.11742408291E+04 -0.64015647253E+03 -0.12075433397E+03  0.13458611627E+04  0.90104527938E+02 0.  0.
        254    2    1    2    0    0  0.11742408291E+04  0.64015647253E+03  0.35764468730E+03  0.16557119884E+04  0.90820186749E+03 0.  0.
        -24    2    4    4    0    0  0.61111332060E+03  0.21335489031E+01 -0.18271150863E+03  0.64373548023E+03  0.86878250867E+02 0.  0.
         24    2    4    4    0    0  0.56312750849E+03  0.63802292363E+03  0.54035619593E+03  0.10119765082E+04  0.89026921125E+02 0.  0.
         11    1    3    3    0    0 -0.11125128525E+04 -0.61402999983E+03 -0.13323000702E+03  0.12776806809E+04  0.00000000000E+00 0. -1.
        -11    1    3    3    0    0 -0.61727976577E+02 -0.26126472701E+02  0.12475673053E+02  0.68180481710E+02  0.00000000000E+00 0.  1.
          4    1    6    6  502    0  0.42184214823E+03  0.41753178789E+03  0.38561018795E+03  0.70779856525E+03  0.00000000000E+00 0. -1.
          1    1    5    5  503    0  0.33938928419E+03  0.72565119246E+01 -0.14585831116E+03  0.36947583158E+03  0.00000000000E+00 0. -1.
         -2    1    5    5    0  503  0.27172403641E+03 -0.51229630215E+01 -0.36853197477E+02  0.27425964865E+03  0.00000000000E+00 0.  1.
         -3    1    6    6    0  502  0.14128536026E+03  0.22049113574E+03  0.15474600798E+03  0.30417794290E+03  0.00000000000E+00 0.  1.
<mgrwt>
<rscale>  0 0.29922106E+04</rscale>
<asrwt>0</asrwt>
<pdfrwt beam="1">  1        2 0.24911258E+00 0.29922106E+04</pdfrwt>
<pdfrwt beam="2">  1       -2 0.21266791E+00 0.29922106E+04</pdfrwt>
<totfact> 0.10258126E+00</totfact>
</mgrwt>
</event>
<event>
12    1  0.1598876E-007  0.1488649E+04  0.7818608E-02  0.8892037E-01
          2   -1    0    0  501    0  0.00000000000E+00  0.00000000000E+00  0.22156359975E+04  0.22156359975E+04  0.00000000000E+00 0. -1.
         -2   -1    0    0    0  501 -0.00000000000E+00 -0.00000000000E+00 -0.25004953917E+03  0.25004953917E+03  0.00000000000E+00 0.  1.
         23    2    1    2    0    0  0.24279415743E+03 -0.12015480932E+03  0.13144013352E+01  0.28530121866E+03  0.89492327234E+02 0.  0.
        254    2    1    2    0    0 -0.24279415743E+03  0.12015480932E+03  0.19642720570E+04  0.21803843180E+04  0.90682130502E+03 0.  0.
        -24    2    4    4    0    0  0.67755259307E+02  0.25853552933E+03  0.12091374010E+03  0.30424903532E+03  0.80721421307E+02 0.  0.
         24    2    4    4    0    0 -0.31054941673E+03 -0.13838072001E+03  0.18433583169E+04  0.18761352827E+04  0.79520755575E+02 0.  0.
         13    1    3    3    0    0  0.13667371935E+03 -0.19877936574E+02  0.13611789348E+02  0.13878082985E+03  0.00000000000E+00 0. -1.
        -13    1    3    3    0    0  0.10612043807E+03 -0.10027687275E+03 -0.12297388012E+02  0.14652038881E+03  0.00000000000E+00 0.  1.
          4    1    6    6  502    0 -0.77830865704E+02 -0.17576865683E+02  0.28882883615E+03  0.29964760378E+03  0.00000000000E+00 0. -1.
          3    1    5    5  503    0  0.52072233521E+02  0.19526505341E+03  0.12715739963E+03  0.23876549765E+03  0.00000000000E+00 0. -1.
         -4    1    5    5    0  503  0.15683025786E+02  0.63270475927E+02 -0.62436595349E+01  0.65483537673E+02  0.00000000000E+00 0.  1.
         -3    1    6    6    0  502 -0.23271855103E+03 -0.12080385433E+03  0.15545294807E+04  0.15764876789E+04  0.00000000000E+00 0.  1.
<mgrwt>
<rscale>  0 0.14886487E+04</rscale>
<asrwt>0</asrwt>
<pdfrwt beam="1">  1        2 0.34086706E+00 0.14886487E+04</pdfrwt>
<pdfrwt beam="2">  1       -2 0.38469161E-01 0.14886487E+04</pdfrwt>
<totfact> 0.31270095E+01</totfact>
</mgrwt>
</event>
<event>
12    1  0.3011051E-007  0.1908159E+04  0.7818608E-02  0.8650806E-01
          2   -1    0    0  501    0  0.00000000000E+00  0.00000000000E+00  0.18656488327E+04  0.18656488327E+04  0.00000000000E+00 0. -1.
         -2   -1    0    0    0  501 -0.00000000000E+00 -0.00000000000E+00 -0.48790929529E+03  0.48790929529E+03  0.00000000000E+00 0.  1.
         23    2    1    2    0    0 -0.94257239323E+02  0.33176874394E+02  0.14314298710E+04  0.14378202281E+04  0.91380526787E+02 0.  0.
        254    2    1    2    0    0  0.94257239323E+02 -0.33176874394E+02 -0.53690333556E+02  0.91573789989E+03  0.90868482832E+03 0.  0.
        -24    2    4    4    0    0  0.10136735897E+03 -0.43713364630E+03  0.11613625645E+03  0.47016936764E+03  0.78806332313E+02 0.  0.
         24    2    4    4    0    0 -0.71101196424E+01  0.40395677191E+03 -0.16982659000E+03  0.44556853225E+03  0.80365532974E+02 0.  0.
         13    1    3    3    0    0 -0.97237415761E+01 -0.40232865437E+00  0.11871543922E+02  0.15350784139E+02  0.00000000000E+00 0.  1.
        -13    1    3    3    0    0 -0.84533497747E+02  0.33579203048E+02  0.14195583271E+04  0.14224694440E+04  0.00000000000E+00 0. -1.
          2    1    6    6  502    0 -0.29336268126E+02  0.35178735733E+03 -0.16170674419E+03  0.38828344353E+03  0.00000000000E+00 0. -1.
          1    1    5    5  503    0  0.10145850401E+03 -0.43808130042E+03  0.12063022007E+03  0.46557566926E+03  0.00000000000E+00 0. -1.
         -2    1    5    5    0  503 -0.91145039646E-01  0.94765412136E+00 -0.44939636214E+01  0.45936983774E+01  0.00000000000E+00 0.  1.
         -1    1    6    6    0  502  0.22226148483E+02  0.52169414578E+02 -0.81198458172E+01  0.57285088722E+02  0.00000000000E+00 0.  1.
<mgrwt>
<rscale>  0 0.19081587E+04</rscale>
<asrwt>0</asrwt>
<pdfrwt beam="1">  1        2 0.28702289E+00 0.19081587E+04</pdfrwt>
<pdfrwt beam="2">  1       -2 0.75062969E-01 0.19081587E+04</pdfrwt>
<totfact> 0.11834906E+01</totfact>
</mgrwt>
</event>
<event>
12    1  0.1598876E-007  0.2519056E+04  0.7818608E-02  0.8396228E-01
         -2   -1    0    0    0  501 -0.00000000000E+00  0.00000000000E+00  0.13464501251E+04  0.13464501251E+04  0.00000000000E+00 0.  1.
          2   -1    0    0  501    0  0.00000000000E+00 -0.00000000000E+00 -0.11782169720E+04  0.11782169720E+04  0.00000000000E+00 0. -1.
         23    2    1    2    0    0 -0.11050628639E+03 -0.28595003009E+03  0.11336651004E+04  0.11781723556E+04  0.94416527250E+02 0.  0.
        254    2    1    2    0    0  0.11050628639E+03  0.28595003009E+03 -0.96543194730E+03  0.13464947414E+04  0.88713594495E+03 0.  0.
        -24    2    4    4    0    0  0.49158475186E+02 -0.16797587639E+03 -0.84459845086E+03  0.86636040116E+03  0.81248696970E+02 0.  0.
         24    2    4    4    0    0  0.61347811208E+02  0.45392590648E+03 -0.12083349644E+03  0.48013434029E+03  0.78204656824E+02 0.  0.
         11    1    3    3    0    0 -0.72167484525E+02 -0.20319888580E+03  0.93546293604E+03  0.95999418630E+03  0.00000000000E+00 0.  1.
        -11    1    3    3    0    0 -0.38338801869E+02 -0.82751144283E+02  0.19820216437E+03  0.21817816933E+03  0.00000000000E+00 0. -1.
          4    1    6    6  502    0  0.32194860517E+02  0.26914616271E+03 -0.11068992062E+03  0.29279416742E+03  0.00000000000E+00 0. -1.
          1    1    5    5  503    0  0.14877076479E+02 -0.12173205865E+03 -0.40947423180E+03  0.42744492980E+03  0.00000000000E+00 0. -1.
         -2    1    5    5    0  503  0.34281398706E+02 -0.46243817744E+02 -0.43512421906E+03  0.43891547135E+03  0.00000000000E+00 0.  1.
         -3    1    6    6    0  502  0.29152950690E+02  0.18477974376E+03 -0.10143575816E+02  0.18734017287E+03  0.00000000000E+00 0.  1.
<mgrwt>
<rscale>  0 0.25190557E+04</rscale>
<asrwt>0</asrwt>
<pdfrwt beam="1">  1        2 0.18126415E+00 0.25190557E+04</pdfrwt>
<pdfrwt beam="2">  1       -2 0.20714617E+00 0.25190557E+04</pdfrwt>
<totfact> 0.20765276E+00</totfact>
</mgrwt>
</event>
<event>
12    1  0.1598876E-007  0.1871742E+04  0.7818608E-02  0.8669052E-01
         -2   -1    0    0    0  501 -0.00000000000E+00  0.00000000000E+00  0.14731247788E+04  0.14731247788E+04  0.00000000000E+00 0.  1.
          2   -1    0    0  501    0  0.00000000000E+00 -0.00000000000E+00 -0.59455527523E+03  0.59455527523E+03  0.00000000000E+00 0. -1.
         23    2    1    2    0    0  0.26275503937E+03  0.11503462558E+03  0.10527590732E+04  0.10950202776E+04  0.92165971982E+02 0.  0.
        254    2    1    2    0    0 -0.26275503937E+03 -0.11503462558E+03 -0.17418956960E+03  0.97265977645E+03  0.91293584592E+03 0.  0.
        -24    2    4    4    0    0 -0.27871316819E+03 -0.24824000244E+02 -0.52463166816E+03  0.60125115897E+03  0.89259777114E+02 0.  0.
         24    2    4    4    0    0  0.15958128826E+02 -0.90210625332E+02  0.35044209856E+03  0.37140861748E+03  0.82110157100E+02 0.  0.
         13    1    3    3    0    0  0.16574424869E+03  0.89404423630E+02  0.52370154701E+03  0.55653177563E+03  0.00000000000E+00 0.  1.
        -13    1    3    3    0    0  0.97010790670E+02  0.25630201946E+02  0.52905752616E+03  0.53848850196E+03  0.00000000000E+00 0. -1.
          2    1    6    6  502    0  0.97202480583E+01 -0.56776764068E+02  0.32188545930E+03  0.32699898022E+03  0.00000000000E+00 0. -1.
          1    1    5    5  503    0 -0.17687239974E+03 -0.26464111758E+02 -0.24262935057E+03  0.30141864036E+03  0.00000000000E+00 0. -1.
         -2    1    5    5    0  503 -0.10184076845E+03  0.16401115133E+01 -0.28200231759E+03  0.29983251860E+03  0.00000000000E+00 0.  1.
         -1    1    6    6    0  502  0.62378807673E+01 -0.33433861264E+02  0.28556639261E+02  0.44409637257E+02  0.00000000000E+00 0.  1.
<mgrwt>
<rscale>  0 0.18717416E+04</rscale>
<asrwt>0</asrwt>
<pdfrwt beam="1">  1        2 0.91470043E-01 0.18717416E+04</pdfrwt>
<pdfrwt beam="2">  1       -2 0.22663458E+00 0.18717416E+04</pdfrwt>
<totfact> 0.42225552E+00</totfact>
</mgrwt>
</event>
<event>
12    1  0.1598876E-007  0.2242558E+04  0.7818608E-02  0.8500920E-01
         -1   -1    0    0    0  501 -0.00000000000E+00  0.00000000000E+00  0.78890343958E+03  0.78890343958E+03  0.00000000000E+00 0.  1.
          1   -1    0    0  501    0  0.00000000000E+00 -0.00000000000E+00 -0.15936889685E+04  0.15936889685E+04  0.00000000000E+00 0. -1.
         23    2    1    2    0    0  0.23621424619E+03 -0.72596219783E+03 -0.91408728568E+03  0.11946440669E+04  0.93811502613E+02 0.  0.
        254    2    1    2    0    0 -0.23621424619E+03  0.72596219783E+03  0.10930175674E+03  0.11879483412E+04  0.90357960605E+03 0.  0.
        -24    2    4    4    0    0 -0.28230222418E+03  0.58701990629E+03  0.45883710657E+03  0.80076738845E+03  0.80062499868E+02 0.  0.
         24    2    4    4    0    0  0.46087977997E+02  0.13894229155E+03 -0.34953534983E+03  0.38718095271E+03  0.79404453682E+02 0.  0.
         13    1    3    3    0    0  0.46980658046E+02 -0.26389737241E+03 -0.35898697182E+03  0.44801858369E+03  0.00000000000E+00 0.  1.
        -13    1    3    3    0    0  0.18923358814E+03 -0.46206482542E+03 -0.55510031386E+03  0.74662548324E+03  0.00000000000E+00 0. -1.
          4    1    6    6  502    0 -0.14050471350E+02  0.26585708553E+01 -0.13755187241E+02  0.19841595706E+02  0.00000000000E+00 0. -1.
          3    1    5    5  503    0 -0.48665024469E+02  0.16857069189E+03  0.14796130849E+03  0.22951451279E+03  0.00000000000E+00 0. -1.
         -4    1    5    5    0  503 -0.23363719972E+03  0.41844921440E+03  0.31087579808E+03  0.57125287566E+03  0.00000000000E+00 0.  1.
         -3    1    6    6    0  502  0.60138449346E+02  0.13628372069E+03 -0.33578016259E+03  0.36733935700E+03  0.00000000000E+00 0.  1.
<mgrwt>
<rscale>  0 0.22425581E+04</rscale>
<asrwt>0</asrwt>
<pdfrwt beam="1">  1        1 0.24518292E+00 0.22425581E+04</pdfrwt>
<pdfrwt beam="2">  1       -1 0.12136976E+00 0.22425581E+04</pdfrwt>
<totfact> 0.30821545E+00</totfact>
</mgrwt>
</event>
<event>
12    1  0.1598876E-007  0.1860061E+04  0.7818608E-02  0.8674996E-01
          1   -1    0    0  501    0  0.00000000000E+00  0.00000000000E+00  0.22206030203E+04  0.22206030203E+04  0.00000000000E+00 0. -1.
         -1   -1    0    0    0  501 -0.00000000000E+00 -0.00000000000E+00 -0.38951420134E+03  0.38951420134E+03  0.00000000000E+00 0.  1.
         23    2    1    2    0    0  0.38203458454E+03  0.54729442635E+03  0.10465060385E+04  0.12445901914E+04  0.91368720140E+02 0.  0.
        254    2    1    2    0    0 -0.38203458454E+03 -0.54729442635E+03  0.78458278041E+03  0.13655270302E+04  0.89644426373E+03 0.  0.
        -24    2    4    4    0    0 -0.24384637535E+03 -0.18532552750E+03 -0.15043657938E+03  0.35026141240E+03  0.79027126301E+02 0.  0.
         24    2    4    4    0    0 -0.13818820919E+03 -0.36196889885E+03  0.93501935979E+03  0.10152656178E+04  0.79909990522E+02 0.  0.
         11    1    3    3    0    0  0.19788700378E+03  0.21059573390E+03  0.41750434997E+03  0.50775950178E+03  0.00000000000E+00 0.  1.
        -11    1    3    3    0    0  0.18414758075E+03  0.33669869245E+03  0.62900168856E+03  0.73683068965E+03  0.00000000000E+00 0. -1.
          2    1    6    6  502    0 -0.87535200649E+01 -0.12711909479E+03  0.30688245708E+03  0.33228411163E+03  0.00000000000E+00 0. -1.
          1    1    5    5  503    0 -0.28872216765E+02 -0.15388368137E+02  0.80609345627E+01  0.33695481016E+02  0.00000000000E+00 0. -1.
         -2    1    5    5    0  503 -0.21497415858E+03 -0.16993715936E+03 -0.15849751394E+03  0.31656593139E+03  0.00000000000E+00 0.  1.
         -1    1    6    6    0  502 -0.12943468913E+03 -0.23484980406E+03  0.62813690271E+03  0.68298150616E+03  0.00000000000E+00 0.  1.
<mgrwt>
<rscale>  0 0.18600607E+04</rscale>
<asrwt>0</asrwt>
<pdfrwt beam="1">  1        1 0.34163123E+00 0.18600607E+04</pdfrwt>
<pdfrwt beam="2">  1       -1 0.59925263E-01 0.18600607E+04</pdfrwt>
<totfact> 0.55922881E+00</totfact>
</mgrwt>
</event>
<event>
12    1  0.1598876E-007  0.2416127E+04  0.7818608E-02  0.8433491E-01
         -1   -1    0    0    0  501 -0.00000000000E+00  0.00000000000E+00  0.81462211926E+03  0.81462211926E+03  0.00000000000E+00 0.  1.
          1   -1    0    0  501    0  0.00000000000E+00 -0.00000000000E+00 -0.17915264947E+04  0.17915264947E+04  0.00000000000E+00 0. -1.
         23    2    1    2    0    0  0.19919977454E+03  0.66007282124E+03  0.41389455472E+03  0.80943739336E+03  0.92214488150E+02 0.  0.
        254    2    1    2    0    0 -0.19919977454E+03 -0.66007282124E+03 -0.13907989302E+04  0.17967112206E+04  0.90469490248E+03 0.  0.
        -24    2    4    4    0    0  0.76686649273E+02  0.48806458504E+02  0.75905379068E+02  0.14250034980E+03  0.79257873764E+02 0.  0.
         24    2    4    4    0    0 -0.27588642382E+03 -0.70887927974E+03 -0.14667043092E+04  0.16542108708E+04  0.81048888073E+02 0.  0.
         13    1    3    3    0    0  0.50761037094E+02  0.83505786346E+02  0.35371110032E+02  0.10392793015E+03  0.00000000000E+00 0. -1.
        -13    1    3    3    0    0  0.14843873745E+03  0.57656703489E+03  0.37852344469E+03  0.70550946321E+03  0.00000000000E+00 0.  1.
          2    1    6    6  502    0 -0.10294803859E+03 -0.19025240872E+03 -0.36410028966E+03  0.42351304419E+03  0.00000000000E+00 0. -1.
          1    1    5    5  503    0  0.31571123931E+02 -0.18929623052E+02  0.11049904174E+02  0.38433928727E+02  0.00000000000E+00 0. -1.
         -2    1    5    5    0  503  0.45115525342E+02  0.67736081556E+02  0.64855474894E+02  0.10406642107E+03  0.00000000000E+00 0.  1.
         -1    1    6    6    0  502 -0.17293838523E+03 -0.51862687102E+03 -0.11026040196E+04  0.12306978266E+04  0.00000000000E+00 0.  1.
<mgrwt>
<rscale>  0 0.24161267E+04</rscale>
<asrwt>0</asrwt>
<pdfrwt beam="1">  1        1 0.27561946E+00 0.24161267E+04</pdfrwt>
<pdfrwt beam="2">  1       -1 0.12532648E+00 0.24161267E+04</pdfrwt>
<totfact> 0.20539256E+00</totfact>
</mgrwt>
</event>
<event>
12    1  0.1598876E-007  0.1307775E+04  0.7818608E-02  0.9023422E-01
         -2   -1    0    0    0  501 -0.00000000000E+00  0.00000000000E+00  0.13369101610E+04  0.13369101610E+04  0.00000000000E+00 0.  1.
          2   -1    0    0  501    0  0.00000000000E+00 -0.00000000000E+00 -0.31981870542E+03  0.31981870542E+03  0.00000000000E+00 0. -1.
         23    2    1    2    0    0  0.28362477264E+03 -0.71790756362E+02  0.43280191225E+03  0.53018239234E+03  0.90437545040E+02 0.  0.
        254    2    1    2    0    0 -0.28362477264E+03  0.71790756362E+02  0.58428954333E+03  0.11265464741E+04  0.91766865667E+03 0.  0.
        -24    2    4    4    0    0  0.32585574974E+03  0.83415414682E+02  0.16866571121E+03  0.38432724048E+03  0.78225344954E+02 0.  0.
         24    2    4    4    0    0 -0.60948052237E+03 -0.11624658319E+02  0.41562383212E+03  0.74221923359E+03  0.80898584952E+02 0.  0.
         13    1    3    3    0    0  0.18343464475E+03 -0.44553286016E+02  0.19860343935E+03  0.27400107721E+03  0.00000000000E+00 0.  1.
        -13    1    3    3    0    0  0.10019012789E+03 -0.27237470346E+02  0.23419847290E+03  0.25618131513E+03  0.00000000000E+00 0. -1.
          4    1    6    6  502    0 -0.26851325007E+03  0.33001817458E+02  0.16779728626E+03  0.31834637535E+03  0.00000000000E+00 0. -1.
          3    1    5    5  503    0  0.18408430991E+02  0.69193156746E+01  0.35653083992E+02  0.40717191198E+02  0.00000000000E+00 0. -1.
         -4    1    5    5    0  503  0.30744731875E+03  0.76496099007E+02  0.13301262722E+03  0.34361004928E+03  0.00000000000E+00 0.  1.
         -3    1    6    6    0  502 -0.34096727230E+03 -0.44626475777E+02  0.24782654586E+03  0.42387285824E+03  0.00000000000E+00 0.  1.
<mgrwt>
<rscale>  0 0.13077750E+04</rscale>
<asrwt>0</asrwt>
<pdfrwt beam="1">  1        2 0.49202878E-01 0.13077750E+04</pdfrwt>
<pdfrwt beam="2">  1       -2 0.20567848E+00 0.13077750E+04</pdfrwt>
<totfact> 0.12220431E+01</totfact>
</mgrwt>
</event>
<event>
12    1  0.1598876E-007  0.1845563E+04  0.7818608E-02  0.8682438E-01
         -2   -1    0    0    0  501 -0.00000000000E+00  0.00000000000E+00  0.57315900305E+03  0.57315900305E+03  0.00000000000E+00 0.  1.
          2   -1    0    0  501    0  0.00000000000E+00 -0.00000000000E+00 -0.14856702271E+04  0.14856702271E+04  0.00000000000E+00 0. -1.
         23    2    1    2    0    0  0.55729826584E+02 -0.40222662102E+02  0.43958253341E+03  0.45414312016E+03  0.91046657199E+02 0.  0.
        254    2    1    2    0    0 -0.55729826584E+02  0.40222662102E+02 -0.13520937574E+04  0.16046861100E+04  0.86147333476E+03 0.  0.
        -24    2    4    4    0    0 -0.22474427540E+03  0.17985425055E+03 -0.77274776291E+02  0.30873141769E+03  0.80536677666E+02 0.  0.
         24    2    4    4    0    0  0.16901444882E+03 -0.13963158845E+03 -0.12748189811E+04  0.12959546923E+04  0.79197634707E+02 0.  0.
         11    1    3    3    0    0 -0.10546331887E+02  0.19457113449E+02  0.53572491611E+02  0.57963921860E+02  0.00000000000E+00 0. -1.
        -11    1    3    3    0    0  0.66276158471E+02 -0.59679775551E+02  0.38601004180E+03  0.39617919830E+03  0.00000000000E+00 0.  1.
          2    1    6    6  502    0  0.11462964161E+03 -0.13566804336E+03 -0.92273915845E+03  0.93967724633E+03  0.00000000000E+00 0. -1.
          1    1    5    5  503    0 -0.22434934931E+03  0.17892583390E+03 -0.62203266068E+02  0.29362617540E+03  0.00000000000E+00 0. -1.
         -2    1    5    5    0  503 -0.39492608922E+00  0.92841665741E+00 -0.15071510223E+02  0.15105242286E+02  0.00000000000E+00 0.  1.
         -1    1    6    6    0  502  0.54384807205E+02 -0.39635450932E+01 -0.35207982268E+03  0.35627744594E+03  0.00000000000E+00 0.  1.
<mgrwt>
<rscale>  0 0.18455625E+04</rscale>
<asrwt>0</asrwt>
<pdfrwt beam="1">  1        2 0.22856465E+00 0.18455625E+04</pdfrwt>
<pdfrwt beam="2">  1       -2 0.88178308E-01 0.18455625E+04</pdfrwt>
<totfact> 0.13477209E+01</totfact>
</mgrwt>
</event>
<event>
12    1  0.1598876E-007  0.2612650E+04  0.7818608E-02  0.8363917E-01
         -2   -1    0    0    0  501 -0.00000000000E+00  0.00000000000E+00  0.13550109519E+04  0.13550109519E+04  0.00000000000E+00 0.  1.
          2   -1    0    0  501    0  0.00000000000E+00 -0.00000000000E+00 -0.12593884289E+04  0.12593884289E+04  0.00000000000E+00 0. -1.
         23    2    1    2    0    0  0.62065705215E+03  0.86404584255E+03  0.23646716944E+03  0.10940828238E+04  0.96488904712E+02 0.  0.
        254    2    1    2    0    0 -0.62065705215E+03 -0.86404584255E+03 -0.14084464648E+03  0.15203165570E+04  0.10769098498E+04 0.  0.
        -24    2    4    4    0    0  0.25063400647E+03 -0.49988290715E+03 -0.26659583478E+02  0.56588463178E+03  0.82549118945E+02 0.  0.
         24    2    4    4    0    0 -0.87129105862E+03 -0.36416293540E+03 -0.11418506300E+03  0.95443192520E+03  0.78353805770E+02 0.  0.
         11    1    3    3    0    0  0.32215002149E+03  0.38510970513E+03  0.14296811606E+03  0.52204406283E+03  0.00000000000E+00 0.  1.
        -11    1    3    3    0    0  0.29850703066E+03  0.47893613742E+03  0.93499053382E+02  0.57203876098E+03  0.00000000000E+00 0. -1.
          2    1    6    6  502    0 -0.11525591292E+03 -0.36866490842E+02 -0.39140698178E+02  0.12718120091E+03  0.00000000000E+00 0. -1.
          3    1    5    5  503    0  0.71349224584E+02 -0.94396359940E+02  0.20281506915E+02  0.12005300555E+03  0.00000000000E+00 0. -1.
         -4    1    5    5    0  503  0.17928478189E+03 -0.40548654721E+03 -0.46941090394E+02  0.44583162623E+03  0.00000000000E+00 0.  1.
         -1    1    6    6    0  502 -0.75603514570E+03 -0.32729644456E+03 -0.75044364824E+02  0.82725072429E+03  0.00000000000E+00 0.  1.
<mgrwt>
<rscale>  0 0.26126501E+04</rscale>
<asrwt>0</asrwt>
<pdfrwt beam="1">  1        2 0.19375207E+00 0.26126501E+04</pdfrwt>
<pdfrwt beam="2">  1       -2 0.20846322E+00 0.26126501E+04</pdfrwt>
<totfact> 0.18078183E+00</totfact>
</mgrwt>
</event>
<event>
12    1  0.1598876E-007  0.1813343E+04  0.7818608E-02  0.8699236E-01
         -2   -1    0    0    0  501 -0.00000000000E+00  0.00000000000E+00  0.32258956623E+03  0.32258956623E+03  0.00000000000E+00 0.  1.
          2   -1    0    0  501    0  0.00000000000E+00 -0.00000000000E+00 -0.25482941906E+04  0.25482941906E+04  0.00000000000E+00 0. -1.
         23    2    1    2    0    0  0.11471508191E+03 -0.45044335740E+03 -0.15903349994E+04  0.16593442425E+04  0.90549084103E+02 0.  0.
        254    2    1    2    0    0 -0.11471508191E+03  0.45044335740E+03 -0.63536962491E+03  0.12115395143E+04  0.92090969487E+03 0.  0.
        -24    2    4    4    0    0  0.32139974643E+02 -0.26654396751E+03 -0.86570168877E+02  0.29330586600E+03  0.80344709237E+02 0.  0.
         24    2    4    4    0    0 -0.14685505655E+03  0.71698732492E+03 -0.54879945604E+03  0.91823364826E+03  0.79592450173E+02 0.  0.
         13    1    3    3    0    0  0.80128708426E+02 -0.41724827328E+03 -0.13988850341E+04  0.14619836080E+04  0.00000000000E+00 0. -1.
        -13    1    3    3    0    0  0.34586373481E+02 -0.33195084119E+02 -0.19144996534E+03  0.19736063455E+03  0.00000000000E+00 0.  1.
          4    1    6    6  502    0 -0.10746096725E+03  0.45105371029E+03 -0.30248364115E+03  0.55361869749E+03  0.00000000000E+00 0. -1.
          1    1    5    5  503    0  0.24958066324E+02 -0.19102375048E+03 -0.98735652344E+02  0.21647565075E+03  0.00000000000E+00 0. -1.
         -4    1    5    5    0  503  0.71819083190E+01 -0.75520217036E+02  0.12165483467E+02  0.76830215256E+02  0.00000000000E+00 0.  1.
         -3    1    6    6    0  502 -0.39394089301E+02  0.26593361462E+03 -0.24631581489E+03  0.36461495077E+03  0.00000000000E+00 0.  1.
<mgrwt>
<rscale>  0 0.18133429E+04</rscale>
<asrwt>0</asrwt>
<pdfrwt beam="1">  1        2 0.39204526E+00 0.18133429E+04</pdfrwt>
<pdfrwt beam="2">  1       -2 0.49629164E-01 0.18133429E+04</pdfrwt>
<totfact> 0.11838833E+01</totfact>
</mgrwt>
</event>
<event>
12    1  0.1598876E-007  0.2296418E+04  0.7818608E-02  0.8479335E-01
          1   -1    0    0  501    0  0.00000000000E+00  0.00000000000E+00  0.23433535774E+04  0.23433535774E+04  0.00000000000E+00 0. -1.
         -1   -1    0    0    0  501 -0.00000000000E+00 -0.00000000000E+00 -0.56260581263E+03  0.56260581263E+03  0.00000000000E+00 0.  1.
         23    2    1    2    0    0 -0.18074416590E+03 -0.47439844480E+03  0.17905692219E+04  0.18633564513E+04  0.90756751967E+02 0.  0.
        254    2    1    2    0    0  0.18074416590E+03  0.47439844480E+03 -0.98214571417E+01  0.10426029388E+04  0.91060534207E+03 0.  0.
        -24    2    4    4    0    0  0.32524597448E+03 -0.14199003399E+03  0.13536696073E+03  0.38810747753E+03  0.79731338819E+02 0.  0.
         24    2    4    4    0    0 -0.14450180858E+03  0.61638847879E+03 -0.14518841787E+03  0.65449546125E+03  0.80430731983E+02 0.  0.
         13    1    3    3    0    0 -0.36863528894E+02 -0.28182920166E+02  0.18542758513E+03  0.19114545791E+03  0.00000000000E+00 0.  1.
        -13    1    3    3    0    0 -0.14388063700E+03 -0.44621552463E+03  0.16051416368E+04  0.16722109934E+04  0.00000000000E+00 0. -1.
          2    1    6    6  502    0 -0.45703260591E+01  0.11696785365E+03 -0.47006903224E+01  0.11715145393E+03  0.00000000000E+00 0. -1.
          1    1    5    5  503    0  0.24874254592E+03 -0.12980774547E+03  0.76519160762E+02  0.29082311961E+03  0.00000000000E+00 0. -1.
         -2    1    5    5    0  503  0.76503428553E+02 -0.12182288517E+02  0.58847799969E+02  0.97284357915E+02  0.00000000000E+00 0.  1.
         -1    1    6    6    0  502 -0.13993148252E+03  0.49942062514E+03 -0.14048772755E+03  0.53734400732E+03  0.00000000000E+00 0.  1.
<mgrwt>
<rscale>  0 0.22964184E+04</rscale>
<asrwt>0</asrwt>
<pdfrwt beam="1">  1        1 0.36051593E+00 0.22964184E+04</pdfrwt>
<pdfrwt beam="2">  1       -1 0.86554741E-01 0.22964184E+04</pdfrwt>
<totfact> 0.20676968E+00</totfact>
</mgrwt>
</event>
<event>
12    1  0.1598876E-007  0.1893880E+04  0.7818608E-02  0.8657909E-01
         -1   -1    0    0    0  501 -0.00000000000E+00  0.00000000000E+00  0.18613982672E+04  0.18613982672E+04  0.00000000000E+00 0.  1.
          1   -1    0    0  501    0  0.00000000000E+00 -0.00000000000E+00 -0.48173198937E+03  0.48173198937E+03  0.00000000000E+00 0. -1.
         23    2    1    2    0    0 -0.42353701625E+02 -0.55451755861E+03  0.11275106812E+04  0.12606264919E+04  0.92818409198E+02 0.  0.
        254    2    1    2    0    0  0.42353701625E+02  0.55451755861E+03  0.25215559666E+03  0.10825037647E+04  0.89383913360E+03 0.  0.
        -24    2    4    4    0    0 -0.26044367145E+03 -0.10085793425E+03 -0.50121378048E+02  0.29573201396E+03  0.83318921264E+02 0.  0.
         24    2    4    4    0    0  0.30279737308E+03  0.65537549285E+03  0.30227697471E+03  0.78677175072E+03  0.80219277671E+02 0.  0.
         11    1    3    3    0    0 -0.21670205323E+02 -0.29193304231E+03  0.48907607600E+03  0.56999114651E+03  0.00000000000E+00 0. -1.
        -11    1    3    3    0    0 -0.20683496302E+02 -0.26258451630E+03  0.63843460515E+03  0.69063534537E+03  0.00000000000E+00 0.  1.
          4    1    6    6  502    0  0.28880070942E+03  0.58556902937E+03  0.29043663810E+03  0.71459805392E+03  0.00000000000E+00 0. -1.
          3    1    5    5  503    0 -0.17622573821E+03 -0.10717041052E+03 -0.45104718252E+02  0.21112897316E+03  0.00000000000E+00 0. -1.
         -4    1    5    5    0  503 -0.84217933245E+02  0.63124762737E+01 -0.50166597967E+01  0.84603040798E+02  0.00000000000E+00 0.  1.
         -3    1    6    6    0  502  0.13996663658E+02  0.69806463484E+02  0.11840336602E+02  0.72173696792E+02  0.00000000000E+00 0.  1.
<mgrwt>
<rscale>  0 0.18938797E+04</rscale>
<asrwt>0</asrwt>
<pdfrwt beam="1">  1        1 0.74112615E-01 0.18938797E+04</pdfrwt>
<pdfrwt beam="2">  1       -1 0.28636896E+00 0.18938797E+04</pdfrwt>
<totfact> 0.17688077E+00</totfact>
</mgrwt>
</event>
<event>
12    1  0.1598876E-007  0.1634174E+04  0.7818608E-02  0.8799824E-01
          2   -1    0    0  501    0  0.00000000000E+00  0.00000000000E+00  0.36439317776E+04  0.36439317776E+04  0.00000000000E+00 0. -1.
         -2   -1    0    0    0  501 -0.00000000000E+00 -0.00000000000E+00 -0.18321728354E+03  0.18321728354E+03  0.00000000000E+00 0.  1.
         23    2    1    2    0    0  0.27303055384E+03  0.22828252586E+03  0.21850286114E+04  0.22155649835E+04  0.87861075228E+02 0.  0.
        254    2    1    2    0    0 -0.27303055384E+03 -0.22828252586E+03  0.12756858826E+04  0.16115840776E+04  0.91824298151E+03 0.  0.
        -24    2    4    4    0    0 -0.13747640296E+03 -0.35171322601E+03  0.13445342806E+04  0.13988668685E+04  0.80337595794E+02 0.  0.
         24    2    4    4    0    0 -0.13555415088E+03  0.12343070016E+03 -0.68848397973E+02  0.21271720912E+03  0.83056869617E+02 0.  0.
         11    1    3    3    0    0  0.12862726067E+03  0.15469060874E+03  0.13559190345E+04  0.13707627748E+04  0.00000000000E+00 0. -1.
        -11    1    3    3    0    0  0.14440329317E+03  0.73591917113E+02  0.82910957692E+03  0.84480220873E+03  0.00000000000E+00 0.  1.
          2    1    6    6  502    0 -0.13657727483E+03  0.12842832490E+03 -0.51193094042E+02  0.19433970133E+03  0.00000000000E+00 0. -1.
          1    1    5    5  503    0 -0.46659907875E+02 -0.20022779109E+03  0.82062245043E+03  0.84598435061E+03  0.00000000000E+00 0. -1.
         -2    1    5    5    0  503 -0.90816495082E+02 -0.15148543493E+03  0.52391183016E+03  0.55288251786E+03  0.00000000000E+00 0.  1.
         -1    1    6    6    0  502  0.10231239516E+01 -0.49976247386E+01 -0.17655303931E+02  0.18377507789E+02  0.00000000000E+00 0.  1.
<mgrwt>
<rscale>  0 0.16341741E+04</rscale>
<asrwt>0</asrwt>
<pdfrwt beam="1">  1        2 0.56060484E+00 0.16341741E+04</pdfrwt>
<pdfrwt beam="2">  1       -2 0.28187277E-01 0.16341741E+04</pdfrwt>
<totfact> 0.71605756E+00</totfact>
</mgrwt>
</event>
<event>
12    1  0.1598876E-007  0.2092742E+04  0.7818608E-02  0.8564447E-01
          2   -1    0    0  501    0  0.00000000000E+00  0.00000000000E+00  0.12933455853E+04  0.12933455853E+04  0.00000000000E+00 0. -1.
         -2   -1    0    0    0  501 -0.00000000000E+00 -0.00000000000E+00 -0.84655797073E+03  0.84655797073E+03  0.00000000000E+00 0.  1.
         23    2    1    2    0    0 -0.58299746051E+03 -0.23363391276E+03 -0.40515417132E+03  0.75305299245E+03  0.92022077487E+02 0.  0.
        254    2    1    2    0    0  0.58299746051E+03  0.23363391276E+03  0.85194178584E+03  0.13868505635E+04  0.89614665930E+03 0.  0.
        -24    2    4    4    0    0  0.41095793920E+03  0.53851711517E+03  0.33951832936E+03  0.76188634265E+03  0.79441752382E+02 0.  0.
         24    2    4    4    0    0  0.17203952131E+03 -0.30488320241E+03  0.51242345648E+03  0.62496422089E+03  0.73831664155E+02 0.  0.
         11    1    3    3    0    0 -0.32597864510E+03 -0.10360525928E+03 -0.26520271777E+03  0.43281475058E+03  0.00000000000E+00 0.  1.
        -11    1    3    3    0    0 -0.25701881541E+03 -0.13002865348E+03 -0.13995145355E+03  0.32023824186E+03  0.00000000000E+00 0. -1.
          4    1    6    6  502    0  0.48148806999E+02 -0.64148329144E+02  0.70961264653E+02  0.10709256197E+03  0.00000000000E+00 0. -1.
          1    1    5    5  503    0  0.63868229045E+02  0.95705482295E+02  0.26608998226E+02  0.11809626924E+03  0.00000000000E+00 0. -1.
         -2    1    5    5    0  503  0.34708971016E+03  0.44281163288E+03  0.31290933114E+03  0.64379007341E+03  0.00000000000E+00 0.  1.
         -3    1    6    6    0  502  0.12389071431E+03 -0.24073487327E+03  0.44146219183E+03  0.51787165892E+03  0.00000000000E+00 0.  1.
<mgrwt>
<rscale>  0 0.20927418E+04</rscale>
<asrwt>0</asrwt>
<pdfrwt beam="1">  1        2 0.19897625E+00 0.20927418E+04</pdfrwt>
<pdfrwt beam="2">  1       -2 0.13023969E+00 0.20927418E+04</pdfrwt>
<totfact> 0.66498252E+00</totfact>
</mgrwt>
</event>
<event>
12    1  0.1598876E-007  0.1715631E+04  0.7818608E-02  0.8752499E-01
         -1   -1    0    0    0  501 -0.00000000000E+00  0.00000000000E+00  0.39084738288E+03  0.39084738288E+03  0.00000000000E+00 0.  1.
          1   -1    0    0  501    0  0.00000000000E+00 -0.00000000000E+00 -0.18826986643E+04  0.18826986643E+04  0.00000000000E+00 0. -1.
         23    2    1    2    0    0  0.91137288880E+02  0.44509346185E+03 -0.10831876872E+04  0.11781183338E+04  0.90846285558E+02 0.  0.
        254    2    1    2    0    0 -0.91137288880E+02 -0.44509346185E+03 -0.40866359422E+03  0.10954277134E+04  0.90914341374E+03 0.  0.
        -24    2    4    4    0    0  0.10352227659E+03 -0.44084704337E+02  0.25643185032E+03  0.29067501108E+03  0.77938086313E+02 0.  0.
         24    2    4    4    0    0 -0.19465956546E+03 -0.40100875751E+03 -0.66509544454E+03  0.80475270228E+03  0.81083854417E+02 0.  0.
         13    1    3    3    0    0  0.45573344796E+02  0.28318179012E+03 -0.57050372673E+03  0.63854785116E+03  0.00000000000E+00 0.  1.
        -13    1    3    3    0    0  0.45563944084E+02  0.16191167173E+03 -0.51268396047E+03  0.53957048267E+03  0.00000000000E+00 0. -1.
          4    1    6    6  502    0 -0.17544032605E+03 -0.33206408159E+03 -0.60089465387E+03  0.70860443644E+03  0.00000000000E+00 0. -1.
          3    1    5    5  503    0  0.85061445597E+02 -0.66105146508E+02  0.21118635453E+03  0.23707597150E+03  0.00000000000E+00 0. -1.
         -4    1    5    5    0  503  0.18460830988E+02  0.22020442171E+02  0.45245495793E+02  0.53599039579E+02  0.00000000000E+00 0.  1.
         -3    1    6    6    0  502 -0.19219239417E+02 -0.68944675923E+02 -0.64200790668E+02  0.96148265841E+02  0.00000000000E+00 0.  1.
<mgrwt>
<rscale>  0 0.17156315E+04</rscale>
<asrwt>0</asrwt>
<pdfrwt beam="1">  1        1 0.28964594E+00 0.17156315E+04</pdfrwt>
<pdfrwt beam="2">  1       -1 0.60130367E-01 0.17156315E+04</pdfrwt>
<totfact> 0.95414417E+00</totfact>
</mgrwt>
</event>
<event>
12    1  0.1598876E-007  0.1848531E+04  0.7818608E-02  0.8680908E-01
         -2   -1    0    0    0  501 -0.00000000000E+00  0.00000000000E+00  0.10880094346E+04  0.10880094346E+04  0.00000000000E+00 0.  1.
          2   -1    0    0  501    0  0.00000000000E+00 -0.00000000000E+00 -0.78516521595E+03  0.78516521595E+03  0.00000000000E+00 0. -1.
         23    2    1    2    0    0  0.65092841133E+03 -0.14383256916E+03  0.34325695239E+03  0.75545775472E+03  0.92170923671E+02 0.  0.
        254    2    1    2    0    0 -0.65092841133E+03  0.14383256916E+03 -0.40412733732E+02  0.11177168958E+04  0.89624899754E+03 0.  0.
        -24    2    4    4    0    0 -0.47397114390E+03  0.36449545961E+03  0.29470497012E+03  0.67208789513E+03  0.85706091078E+02 0.  0.
         24    2    4    4    0    0 -0.17695726743E+03 -0.22066289045E+03 -0.33511770385E+03  0.44562900072E+03  0.79217075970E+02 0.  0.
         13    1    3    3    0    0  0.55257575782E+03 -0.12487241379E+03  0.32662045856E+03  0.65392202273E+03  0.00000000000E+00 0.  1.
        -13    1    3    3    0    0  0.98352653509E+02 -0.18960155372E+02  0.16636493831E+02  0.10153573199E+03  0.00000000000E+00 0. -1.
          2    1    6    6  502    0 -0.86194460281E+02 -0.10903438277E+03 -0.10481338920E+03  0.17407994762E+03  0.00000000000E+00 0. -1.
          1    1    5    5  503    0 -0.42168317304E+02  0.66589729201E+01  0.28337673318E+02  0.51239951538E+02  0.00000000000E+00 0. -1.
         -2    1    5    5    0  503 -0.43180282659E+03  0.35783648669E+03  0.26636729680E+03  0.62084794359E+03  0.00000000000E+00 0.  1.
         -1    1    6    6    0  502 -0.90762807153E+02 -0.11162850768E+03 -0.23030431465E+03  0.27154905309E+03  0.00000000000E+00 0.  1.
<mgrwt>
<rscale>  0 0.18485315E+04</rscale>
<asrwt>0</asrwt>
<pdfrwt beam="1">  1        2 0.12079465E+00 0.18485315E+04</pdfrwt>
<pdfrwt beam="2">  1       -2 0.16738607E+00 0.18485315E+04</pdfrwt>
<totfact> 0.73856232E+00</totfact>
</mgrwt>
</event>
<event>
12    1  0.1598876E-007  0.1168819E+04  0.7818608E-02  0.9140596E-01
          2   -1    0    0  501    0  0.00000000000E+00  0.00000000000E+00  0.20732803015E+03  0.20732803015E+03  0.00000000000E+00 0. -1.
         -2   -1    0    0    0  501 -0.00000000000E+00 -0.00000000000E+00 -0.16473141878E+04  0.16473141878E+04  0.00000000000E+00 0.  1.
         23    2    1    2    0    0 -0.12873368131E+03 -0.81303718002E+02 -0.47244133915E+02  0.18470609873E+03  0.93282792913E+02 0.  0.
        254    2    1    2    0    0  0.12873368131E+03  0.81303718002E+02 -0.13927420237E+04  0.16699361192E+04  0.90872088250E+03 0.  0.
        -24    2    4    4    0    0 -0.18266514633E+03 -0.24942400908E+03 -0.16725015443E+03  0.36052891854E+03  0.80184755153E+02 0.  0.
         24    2    4    4    0    0  0.31139882764E+03  0.33072772708E+03 -0.12254918693E+04  0.13094072006E+04  0.79792456596E+02 0.  0.
         11    1    3    3    0    0 -0.57803048865E+02  0.12463651918E+02 -0.28524269085E+02  0.65651877384E+02  0.00000000000E+00 0.  1.
        -11    1    3    3    0    0 -0.70930632448E+02 -0.93767369920E+02 -0.18719864830E+02  0.11905422135E+03  0.00000000000E+00 0. -1.
          2    1    6    6  502    0  0.32710463602E+02  0.77077946772E+02 -0.19716604775E+03  0.21420885765E+03  0.00000000000E+00 0. -1.
          3    1    5    5  503    0 -0.10255106844E+03 -0.90005709327E+02 -0.10276375007E+03  0.17081609314E+03  0.00000000000E+00 0. -1.
         -4    1    5    5    0  503 -0.80114077888E+02 -0.15941829975E+03 -0.64486404359E+02  0.18971282539E+03  0.00000000000E+00 0.  1.
         -1    1    6    6    0  502  0.27868836404E+03  0.25364978031E+03 -0.10283258215E+04  0.10951983430E+04  0.00000000000E+00 0.  1.
<mgrwt>
<rscale>  0 0.11688189E+04</rscale>
<asrwt>0</asrwt>
<pdfrwt beam="1">  1        2 0.31896621E-01 0.11688189E+04</pdfrwt>
<pdfrwt beam="2">  1       -2 0.25343295E+00 0.11688189E+04</pdfrwt>
<totfact> 0.10091314E+01</totfact>
</mgrwt>
</event>
<event>
12    1  0.1598876E-007  0.2352119E+04  0.7818608E-02  0.8457650E-01
         -1   -1    0    0    0  501 -0.00000000000E+00  0.00000000000E+00  0.74217836946E+03  0.74217836946E+03  0.00000000000E+00 0.  1.
          1   -1    0    0  501    0  0.00000000000E+00 -0.00000000000E+00 -0.18635902131E+04  0.18635902131E+04  0.00000000000E+00 0. -1.
         23    2    1    2    0    0  0.25602383546E+03  0.90409020883E+03 -0.86656438962E+03  0.12814635419E+04  0.91036574420E+02 0.  0.
        254    2    1    2    0    0 -0.25602383546E+03 -0.90409020883E+03 -0.25484745406E+03  0.13243050407E+04  0.89772451558E+03 0.  0.
        -24    2    4    4    0    0  0.21298082389E+03 -0.29265719615E+03 -0.38968006862E+03  0.53802584759E+03  0.81315379817E+02 0.  0.
         24    2    4    4    0    0 -0.46900465935E+03 -0.61143301269E+03  0.13483261456E+03  0.78627919308E+03  0.78990100821E+02 0.  0.
         13    1    3    3    0    0  0.14991754464E+03  0.66150535887E+03 -0.64918595522E+03  0.93888604977E+03  0.00000000000E+00 0.  1.
        -13    1    3    3    0    0  0.10610629082E+03  0.24258484997E+03 -0.21737843440E+03  0.34257749215E+03  0.00000000000E+00 0. -1.
          2    1    6    6  502    0 -0.43119057413E+02 -0.48765981665E+02 -0.10110654729E+02  0.65875636004E+02  0.00000000000E+00 0. -1.
          3    1    5    5  503    0  0.30358575200E+02 -0.27679706516E+02 -0.87103317754E+02  0.96305748555E+02  0.00000000000E+00 0. -1.
         -4    1    5    5    0  503  0.18262224869E+03 -0.26497748963E+03 -0.30257675087E+03  0.44172009904E+03  0.00000000000E+00 0.  1.
         -1    1    6    6    0  502 -0.42588560194E+03 -0.56266703102E+03  0.14494326929E+03  0.72040355708E+03  0.00000000000E+00 0.  1.
<mgrwt>
<rscale>  0 0.23521193E+04</rscale>
<asrwt>0</asrwt>
<pdfrwt beam="1">  1        1 0.28670618E+00 0.23521193E+04</pdfrwt>
<pdfrwt beam="2">  1       -1 0.11418129E+00 0.23521193E+04</pdfrwt>
<totfact> 0.23170738E+00</totfact>
</mgrwt>
</event>
<event>
12    1  0.1598876E-007  0.1036089E+04  0.7818608E-02  0.9269826E-01
          2   -1    0    0  501    0  0.00000000000E+00  0.00000000000E+00  0.29588858772E+04  0.29588858772E+04  0.00000000000E+00 0. -1.
         -2   -1    0    0    0  501 -0.00000000000E+00 -0.00000000000E+00 -0.90699661736E+02  0.90699661736E+02  0.00000000000E+00 0.  1.
         23    2    1    2    0    0  0.87273933062E+02  0.40558793020E+01  0.39347606418E+03  0.41497746052E+03  0.98740519079E+02 0.  0.
        254    2    1    2    0    0 -0.87273933062E+02 -0.40558793020E+01  0.24747101513E+04  0.26346080785E+04  0.89963114911E+03 0.  0.
        -24    2    4    4    0    0  0.10930180515E+03 -0.15127526434E+03  0.67785109526E+02  0.21387703697E+03  0.79482549395E+02 0.  0.
         24    2    4    4    0    0 -0.19657573821E+03  0.14721938504E+03  0.24069250418E+04  0.24207310415E+04  0.79593028693E+02 0.  0.
         13    1    3    3    0    0  0.27770800122E+01  0.12549717199E+01  0.23785434797E+03  0.23787386989E+03  0.00000000000E+00 0. -1.
        -13    1    3    3    0    0  0.84496853050E+02  0.28009075820E+01  0.15562171621E+03  0.17710359064E+03  0.00000000000E+00 0.  1.
          4    1    6    6  502    0 -0.82153583245E+01  0.12570759080E+02  0.43501734709E+03  0.43527647348E+03  0.00000000000E+00 0. -1.
          3    1    5    5  503    0  0.15874389246E+02 -0.46901314807E+02 -0.14273338425E+02  0.51531133836E+02  0.00000000000E+00 0. -1.
         -4    1    5    5    0  503  0.93427415903E+02 -0.10437394953E+03  0.82058447951E+02  0.16234590313E+03  0.00000000000E+00 0.  1.
         -3    1    6    6    0  502 -0.18836037989E+03  0.13464862596E+03  0.19719076947E+04  0.19854545680E+04  0.00000000000E+00 0.  1.
<mgrwt>
<rscale>  0 0.10360887E+04</rscale>
<asrwt>0</asrwt>
<pdfrwt beam="1">  1        2 0.45521314E+00 0.10360887E+04</pdfrwt>
<pdfrwt beam="2">  1       -2 0.13953796E-01 0.10360887E+04</pdfrwt>
<totfact> 0.74582560E+01</totfact>
</mgrwt>
</event>
<event>
12    1  0.1598876E-007  0.1209579E+04  0.7818608E-02  0.9104513E-01
         -2   -1    0    0    0  501 -0.00000000000E+00  0.00000000000E+00  0.37175756846E+03  0.37175756846E+03  0.00000000000E+00 0.  1.
          2   -1    0    0  501    0  0.00000000000E+00 -0.00000000000E+00 -0.98389451902E+03  0.98389451902E+03  0.00000000000E+00 0. -1.
         23    2    1    2    0    0 -0.76433699065E+02  0.28918476702E+02 -0.40392526008E+03  0.42235115724E+03  0.92447258749E+02 0.  0.
        254    2    1    2    0    0  0.76433699065E+02 -0.28918476702E+02 -0.20821169049E+03  0.93330093024E+03  0.90610161113E+03 0.  0.
        -24    2    4    4    0    0  0.20761837066E+03  0.17656409004E+03 -0.48198516378E+03  0.55939596775E+03  0.79585707903E+02 0.  0.
         24    2    4    4    0    0 -0.13118467160E+03 -0.20548256674E+03  0.27377347329E+03  0.37390496249E+03  0.73624065376E+02 0.  0.
         13    1    3    3    0    0 -0.29867631237E+02 -0.27218404504E+01 -0.24372687580E+02  0.38645979235E+02  0.00000000000E+00 0.  1.
        -13    1    3    3    0    0 -0.46566067827E+02  0.31640317152E+02 -0.37955257250E+03  0.38370517801E+03  0.00000000000E+00 0. -1.
          4    1    6    6  502    0 -0.12842038795E+02  0.23952076750E+01  0.47103946698E+01  0.13886785019E+02  0.00000000000E+00 0. -1.
          3    1    5    5  503    0  0.12386379579E+02 -0.76512971931E+01 -0.36441244908E+02  0.39241930104E+02  0.00000000000E+00 0. -1.
         -4    1    5    5    0  503  0.19523199108E+03  0.18421538723E+03 -0.44554391887E+03  0.52015403765E+03  0.00000000000E+00 0.  1.
         -3    1    6    6    0  502 -0.11834263280E+03 -0.20787777441E+03  0.26906307862E+03  0.36001817748E+03  0.00000000000E+00 0.  1.
<mgrwt>
<rscale>  0 0.12095788E+04</rscale>
<asrwt>0</asrwt>
<pdfrwt beam="1">  1        2 0.15136839E+00 0.12095788E+04</pdfrwt>
<pdfrwt beam="2">  1       -2 0.57193473E-01 0.12095788E+04</pdfrwt>
<totfact> 0.72894611E+01</totfact>
</mgrwt>
</event>
<event>
12    1  0.1598876E-007  0.1560092E+04  0.7818608E-02  0.8845447E-01
         -1   -1    0    0    0  501 -0.00000000000E+00  0.00000000000E+00  0.33946573731E+03  0.33946573731E+03  0.00000000000E+00 0.  1.
          1   -1    0    0  501    0  0.00000000000E+00 -0.00000000000E+00 -0.17924402556E+04  0.17924402556E+04  0.00000000000E+00 0. -1.
         23    2    1    2    0    0 -0.38954315222E+03 -0.34464600224E+03 -0.40160223581E+03  0.66331952147E+03  0.90463790820E+02 0.  0.
        254    2    1    2    0    0  0.38954315222E+03  0.34464600224E+03 -0.10513722824E+04  0.14685864714E+04  0.88365027778E+03 0.  0.
        -24    2    4    4    0    0  0.12471680340E+03  0.59980779792E+03 -0.47043976012E+03  0.77631854484E+03  0.77673931769E+02 0.  0.
         24    2    4    4    0    0  0.26482634882E+03 -0.25516179567E+03 -0.58093252233E+03  0.69226792657E+03  0.80695412855E+02 0.  0.
         13    1    3    3    0    0 -0.19622560511E+03 -0.18600000125E+03 -0.15282942094E+03  0.31057578862E+03  0.00000000000E+00 0.  1.
        -13    1    3    3    0    0 -0.19331754711E+03 -0.15864600099E+03 -0.24877281487E+03  0.35274373285E+03  0.00000000000E+00 0. -1.
          4    1    6    6  502    0  0.22391503897E+01  0.56775148533E+01 -0.64499390446E+01  0.88797344023E+01  0.00000000000E+00 0. -1.
          1    1    5    5  503    0  0.21756196787E+02  0.45736933170E+02 -0.63353518320E+02  0.81110217839E+02  0.00000000000E+00 0. -1.
         -2    1    5    5    0  503  0.10296060661E+03  0.55407086475E+03 -0.40708624180E+03  0.69520832700E+03  0.00000000000E+00 0.  1.
         -3    1    6    6    0  502  0.26258719843E+03 -0.26083931053E+03 -0.57448258328E+03  0.68338819217E+03  0.00000000000E+00 0.  1.
<mgrwt>
<rscale>  0 0.15600924E+04</rscale>
<asrwt>0</asrwt>
<pdfrwt beam="1">  1        1 0.27576004E+00 0.15600924E+04</pdfrwt>
<pdfrwt beam="2">  1       -1 0.52225497E-01 0.15600924E+04</pdfrwt>
<totfact> 0.14656941E+01</totfact>
</mgrwt>
</event>
<event>
12    1  0.1598876E-007  0.1686001E+04  0.7818608E-02  0.8769389E-01
          1   -1    0    0  501    0  0.00000000000E+00  0.00000000000E+00  0.49798990035E+03  0.49798990035E+03  0.00000000000E+00 0. -1.
         -1   -1    0    0    0  501 -0.00000000000E+00 -0.00000000000E+00 -0.14270366511E+04  0.14270366511E+04  0.00000000000E+00 0.  1.
         23    2    1    2    0    0 -0.15017600048E+03  0.29915772287E+02  0.32333086922E+03  0.36965963006E+03  0.93046260311E+02 0.  0.
        254    2    1    2    0    0  0.15017600048E+03 -0.29915772287E+02 -0.12523776200E+04  0.15553669214E+04  0.90954316698E+03 0.  0.
        -24    2    4    4    0    0  0.38505212385E+03  0.31141149625E+03 -0.70711313493E+03  0.86695035178E+03  0.79697357436E+02 0.  0.
         24    2    4    4    0    0 -0.23487612337E+03 -0.34132726854E+03 -0.54526448506E+03  0.68841656963E+03  0.70234728514E+02 0.  0.
         13    1    3    3    0    0 -0.82010081840E+02  0.62597306467E+02  0.19889736371E+03  0.22406302147E+03  0.00000000000E+00 0. -1.
        -13    1    3    3    0    0 -0.68165918643E+02 -0.32681534180E+02  0.12443350551E+03  0.14559660859E+03  0.00000000000E+00 0.  1.
          4    1    6    6  502    0 -0.97985916301E+01 -0.27141600014E+02 -0.15803218082E+02  0.32900160349E+02  0.00000000000E+00 0. -1.
          3    1    5    5  503    0  0.63296739174E+02  0.27851071587E+02 -0.13775033079E+03  0.15413407479E+03  0.00000000000E+00 0. -1.
         -4    1    5    5    0  503  0.32175538468E+03  0.28356042467E+03 -0.56936280414E+03  0.71281627699E+03  0.00000000000E+00 0.  1.
         -3    1    6    6    0  502 -0.22507753174E+03 -0.31418566853E+03 -0.52946126698E+03  0.65551640928E+03  0.00000000000E+00 0.  1.
<mgrwt>
<rscale>  0 0.16860010E+04</rscale>
<asrwt>0</asrwt>
<pdfrwt beam="1">  1        1 0.76613831E-01 0.16860010E+04</pdfrwt>
<pdfrwt beam="2">  1       -1 0.21954410E+00 0.16860010E+04</pdfrwt>
<totfact> 0.47055049E+00</totfact>
</mgrwt>
</event>
<event>
12    1  0.1598876E-007  0.1522217E+04  0.7818608E-02  0.8869812E-01
         -1   -1    0    0    0  501 -0.00000000000E+00  0.00000000000E+00  0.83605773315E+03  0.83605773315E+03  0.00000000000E+00 0.  1.
          1   -1    0    0  501    0  0.00000000000E+00 -0.00000000000E+00 -0.69287824770E+03  0.69287824770E+03  0.00000000000E+00 0. -1.
         23    2    1    2    0    0 -0.34955810529E+03  0.36121740568E+02  0.38890718537E+03  0.53234811481E+03  0.93005738521E+02 0.  0.
        254    2    1    2    0    0  0.34955810529E+03 -0.36121740568E+02 -0.24572769992E+03  0.99658786604E+03  0.89961637553E+03 0.  0.
        -24    2    4    4    0    0  0.12645402352E+03  0.16273476592E+03 -0.53138156751E+03  0.57538767985E+03  0.78939139392E+02 0.  0.
         24    2    4    4    0    0  0.22310408177E+03 -0.19885650649E+03  0.28565386759E+03  0.42120018619E+03  0.80573713439E+02 0.  0.
         13    1    3    3    0    0 -0.22407023044E+03  0.32943185704E+02  0.18290482039E+03  0.29111319959E+03  0.00000000000E+00 0.  1.
        -13    1    3    3    0    0 -0.12548787485E+03  0.31785548639E+01  0.20600236498E+03  0.24123491522E+03  0.00000000000E+00 0. -1.
          4    1    6    6  502    0  0.80768308888E+02 -0.12109570173E+03  0.11266086753E+03  0.18406563984E+03  0.00000000000E+00 0. -1.
          1    1    5    5  503    0  0.12755552048E+03  0.14389947235E+03 -0.51718139872E+03  0.55177356600E+03  0.00000000000E+00 0. -1.
         -2    1    5    5    0  503 -0.11014969560E+01  0.18835293573E+02 -0.14200168790E+02  0.23614113855E+02  0.00000000000E+00 0.  1.
         -3    1    6    6    0  502  0.14233577288E+03 -0.77760804759E+02  0.17299300007E+03  0.23713454635E+03  0.00000000000E+00 0.  1.
<mgrwt>
<rscale>  0 0.15222171E+04</rscale>
<asrwt>0</asrwt>
<pdfrwt beam="1">  1        1 0.10659665E+00 0.15222171E+04</pdfrwt>
<pdfrwt beam="2">  1       -1 0.12862427E+00 0.15222171E+04</pdfrwt>
<totfact> 0.13923064E+01</totfact>
</mgrwt>
</event>
<event>
12    1  0.1598876E-007  0.1344274E+04  0.7818608E-02  0.8995174E-01
         -2   -1    0    0    0  501 -0.00000000000E+00  0.00000000000E+00  0.45284289825E+03  0.45284289825E+03  0.00000000000E+00 0.  1.
          2   -1    0    0  501    0  0.00000000000E+00 -0.00000000000E+00 -0.99762663665E+03  0.99762663665E+03  0.00000000000E+00 0. -1.
         23    2    1    2    0    0  0.18992860881E+03 -0.27715735791E+03  0.16632806199E+01  0.34807727874E+03  0.90917258998E+02 0.  0.
        254    2    1    2    0    0 -0.18992860881E+03  0.27715735791E+03 -0.54644701902E+03  0.11023922562E+04  0.89653514395E+03 0.  0.
        -24    2    4    4    0    0  0.22940595738E+03  0.43755696503E+03 -0.26690488395E+03  0.56718488732E+03  0.79857926310E+02 0.  0.
         24    2    4    4    0    0 -0.41933456619E+03 -0.16039960712E+03 -0.27954213507E+03  0.53520736884E+03  0.82058576722E+02 0.  0.
         11    1    3    3    0    0  0.16345221260E+03 -0.25776139700E+03  0.27292753788E+02  0.30643507958E+03  0.00000000000E+00 0. -1.
        -11    1    3    3    0    0  0.26476396215E+02 -0.19395960908E+02 -0.25629473168E+02  0.41642199160E+02  0.00000000000E+00 0.  1.
          4    1    6    6  502    0 -0.30142067807E+03 -0.11368917229E+03 -0.15516448058E+03  0.35756911093E+03  0.00000000000E+00 0. -1.
          3    1    5    5  503    0  0.17450272061E+03  0.27477967032E+03 -0.20449206289E+03  0.38441132983E+03  0.00000000000E+00 0. -1.
         -4    1    5    5    0  503  0.54903236768E+02  0.16277729471E+03 -0.62412821068E+02  0.18277355748E+03  0.00000000000E+00 0.  1.
         -3    1    6    6    0  502 -0.11791388813E+03 -0.46710434829E+02 -0.12437765449E+03  0.17763825790E+03  0.00000000000E+00 0.  1.
<mgrwt>
<rscale>  0 0.13442740E+04</rscale>
<asrwt>0</asrwt>
<pdfrwt beam="1">  1        2 0.15348102E+00 0.13442740E+04</pdfrwt>
<pdfrwt beam="2">  1       -2 0.69668138E-01 0.13442740E+04</pdfrwt>
<totfact> 0.46405976E+01</totfact>
</mgrwt>
</event>
<event>
12    1  0.1598876E-007  0.1637226E+04  0.7818608E-02  0.8797999E-01
         -2   -1    0    0    0  501 -0.00000000000E+00  0.00000000000E+00  0.27251164001E+03  0.27251164001E+03  0.00000000000E+00 0.  1.
          2   -1    0    0  501    0  0.00000000000E+00 -0.00000000000E+00 -0.24590776518E+04  0.24590776518E+04  0.00000000000E+00 0. -1.
         23    2    1    2    0    0 -0.49838312905E+03 -0.24197508204E+03 -0.69072652049E+03  0.88989995190E+03  0.88775642125E+02 0.  0.
        254    2    1    2    0    0  0.49838312905E+03  0.24197508204E+03 -0.14958394913E+04  0.18416893399E+04  0.92051407234E+03 0.  0.
        -24    2    4    4    0    0  0.26109947057E+03 -0.11138852733E+02  0.29700581964E+02  0.27516948957E+03  0.80864799792E+02 0.  0.
         24    2    4    4    0    0  0.23728365847E+03  0.25311393477E+03 -0.15255400733E+04  0.15665198504E+04  0.79634966154E+02 0.  0.
         13    1    3    3    0    0 -0.32685232092E+03 -0.13247614842E+03 -0.49298611095E+03  0.60614987847E+03  0.00000000000E+00 0. -1.
        -13    1    3    3    0    0 -0.17153080813E+03 -0.10949893362E+03 -0.19774040954E+03  0.28375007342E+03  0.00000000000E+00 0.  1.
          2    1    6    6  502    0  0.66577926100E+01  0.40019691169E+02 -0.22349136658E+03  0.22714377126E+03  0.00000000000E+00 0. -1.
          3    1    5    5  503    0  0.28934032073E+01 -0.12944746258E+02  0.92043498664E+01  0.16144915431E+02  0.00000000000E+00 0. -1.
         -4    1    5    5    0  503  0.25820606737E+03  0.18058935250E+01  0.20496232098E+02  0.25902457413E+03  0.00000000000E+00 0.  1.
         -3    1    6    6    0  502  0.23062586586E+03  0.21309424360E+03 -0.13020487067E+04  0.13393760791E+04  0.00000000000E+00 0.  1.
<mgrwt>
<rscale>  0 0.16372260E+04</rscale>
<asrwt>0</asrwt>
<pdfrwt beam="1">  1        2 0.37831965E+00 0.16372260E+04</pdfrwt>
<pdfrwt beam="2">  1       -2 0.41924867E-01 0.16372260E+04</pdfrwt>
<totfact> 0.18985248E+01</totfact>
</mgrwt>
</event>
<event>
12    1  0.1598876E-007  0.2700089E+04  0.7818608E-02  0.8334976E-01
         -2   -1    0    0    0  501 -0.00000000000E+00  0.00000000000E+00  0.95556530793E+03  0.95556530793E+03  0.00000000000E+00 0.  1.
          2   -1    0    0  501    0  0.00000000000E+00 -0.00000000000E+00 -0.19073740854E+04  0.19073740854E+04  0.00000000000E+00 0. -1.
         23    2    1    2    0    0 -0.18391924954E+02  0.67395545554E+03 -0.14827790235E+04  0.16315384173E+04  0.93433161211E+02 0.  0.
        254    2    1    2    0    0  0.18391924954E+02 -0.67395545554E+03  0.53097024597E+03  0.12314009761E+04  0.88309950906E+03 0.  0.
        -24    2    4    4    0    0  0.99725541273E+02 -0.57392024771E+02 -0.21545836062E+03  0.25657318649E+03  0.78539587315E+02 0.  0.
         24    2    4    4    0    0 -0.81333616319E+02 -0.61656343076E+03  0.74642860659E+03  0.97482778961E+03  0.79799331823E+02 0.  0.
         11    1    3    3    0    0 -0.65285823105E+01  0.84329611048E+00 -0.79444622048E+01  0.10317364733E+02  0.00000000000E+00 0.  1.
        -11    1    3    3    0    0 -0.11863342643E+02  0.67311215942E+03 -0.14748345613E+04  0.16212210525E+04  0.00000000000E+00 0. -1.
          4    1    6    6  502    0 -0.24545528673E+02 -0.60784972320E+02  0.52688109735E+02  0.84103107822E+02  0.00000000000E+00 0. -1.
          1    1    5    5  503    0  0.38104251952E+02 -0.66685511704E+02 -0.11228289271E+03  0.13603800750E+03  0.00000000000E+00 0. -1.
         -2    1    5    5    0  503  0.61621289321E+02  0.92934869340E+01 -0.10317546791E+03  0.12053517900E+03  0.00000000000E+00 0.  1.
         -3    1    6    6    0  502 -0.56788087646E+02 -0.55577845844E+03  0.69374049686E+03  0.89072468179E+03  0.00000000000E+00 0.  1.
<mgrwt>
<rscale>  0 0.27000893E+04</rscale>
<asrwt>0</asrwt>
<pdfrwt beam="1">  1        2 0.29344216E+00 0.27000893E+04</pdfrwt>
<pdfrwt beam="2">  1       -2 0.14701005E+00 0.27000893E+04</pdfrwt>
<totfact> 0.20856313E+00</totfact>
</mgrwt>
</event>
<event>
12    1  0.1598876E-007  0.3149454E+04  0.7818608E-02  0.8202295E-01
         -2   -1    0    0    0  501 -0.00000000000E+00  0.00000000000E+00  0.25412664417E+04  0.25412664417E+04  0.00000000000E+00 0.  1.
          2   -1    0    0  501    0  0.00000000000E+00 -0.00000000000E+00 -0.97579893770E+03  0.97579893770E+03  0.00000000000E+00 0. -1.
         23    2    1    2    0    0  0.87842060671E+03 -0.99438013277E+03  0.79872597053E+02  0.13323645531E+04  0.91657295375E+02 0.  0.
        254    2    1    2    0    0 -0.87842060671E+03  0.99438013277E+03  0.14855949069E+04  0.21847008263E+04  0.89750256949E+03 0.  0.
        -24    2    4    4    0    0 -0.43142344344E+03  0.40115521028E+03  0.89070754053E+02  0.60100294114E+03  0.78862194700E+02 0.  0.
         24    2    4    4    0    0 -0.44699716327E+03  0.59322492249E+03  0.13965241529E+04  0.15836978852E+04  0.78083348232E+02 0.  0.
         13    1    3    3    0    0  0.62235088256E+03 -0.68040470226E+03  0.16265925040E+02  0.92224495672E+03  0.00000000000E+00 0. -1.
        -13    1    3    3    0    0  0.25606972415E+03 -0.31397543051E+03  0.63606672013E+02  0.41011959635E+03  0.00000000000E+00 0.  1.
          4    1    6    6  502    0 -0.23365338185E+03  0.28834078557E+03  0.77533634633E+03  0.85958173632E+03  0.00000000000E+00 0. -1.
          1    1    5    5  503    0 -0.38318149052E+03  0.34664648136E+03  0.10303406738E+03  0.52688505080E+03  0.00000000000E+00 0. -1.
         -2    1    5    5    0  503 -0.48241952922E+02  0.54508728919E+02 -0.13963313328E+02  0.74117890345E+02  0.00000000000E+00 0.  1.
         -3    1    6    6    0  502 -0.21334378141E+03  0.30488413692E+03  0.62118780655E+03  0.72411614884E+03  0.00000000000E+00 0.  1.
<mgrwt>
<rscale>  0 0.31494540E+04</rscale>
<asrwt>0</asrwt>
<pdfrwt beam="1">  1        2 0.15012291E+00 0.31494540E+04</pdfrwt>
<pdfrwt beam="2">  1       -2 0.39096406E+00 0.31494540E+04</pdfrwt>
<totfact> 0.18757739E-01</totfact>
</mgrwt>
</event>
<event>
12    1  0.1598876E-007  0.1618480E+04  0.7818608E-02  0.8809275E-01
          1   -1    0    0  501    0  0.00000000000E+00  0.00000000000E+00  0.15530525010E+04  0.15530525010E+04  0.00000000000E+00 0. -1.
         -1   -1    0    0    0  501 -0.00000000000E+00 -0.00000000000E+00 -0.42166601589E+03  0.42166601589E+03  0.00000000000E+00 0.  1.
         23    2    1    2    0    0  0.49771298904E+03 -0.24396117517E+03  0.38374009332E+03  0.68034524766E+03  0.91530991188E+02 0.  0.
        254    2    1    2    0    0 -0.49771298904E+03  0.24396117517E+03  0.74764639178E+03  0.12943732692E+04  0.89955086488E+03 0.  0.
        -24    2    4    4    0    0 -0.36165175090E+02  0.17959172260E+03  0.79436982604E+03  0.81919254346E+03  0.80572303056E+02 0.  0.
         24    2    4    4    0    0 -0.46154781395E+03  0.64369452564E+02 -0.46723434255E+02  0.47518072577E+03  0.80273481652E+02 0.  0.
         13    1    3    3    0    0  0.12255333597E+03 -0.30561359464E+02  0.12183108859E+03  0.17548826456E+03  0.00000000000E+00 0. -1.
        -13    1    3    3    0    0  0.37515965306E+03 -0.21339981570E+03  0.26190900473E+03  0.50485698310E+03  0.00000000000E+00 0.  1.
          2    1    6    6  502    0 -0.15309740339E+03 -0.16405241564E+02 -0.18544838916E+02  0.15508661428E+03  0.00000000000E+00 0. -1.
          1    1    5    5  503    0 -0.16787569770E+02  0.17996400761E+03  0.71929216742E+03  0.74165361770E+03  0.00000000000E+00 0. -1.
         -2    1    5    5    0  503 -0.19377605320E+02 -0.37228501141E+00  0.75077658618E+02  0.77538925758E+02  0.00000000000E+00 0.  1.
         -1    1    6    6    0  502 -0.30845041055E+03  0.80774694128E+02 -0.28178595339E+02  0.32009411150E+03  0.00000000000E+00 0.  1.
<mgrwt>
<rscale>  0 0.16184801E+04</rscale>
<asrwt>0</asrwt>
<pdfrwt beam="1">  1        1 0.23893115E+00 0.16184801E+04</pdfrwt>
<pdfrwt beam="2">  1       -1 0.64871695E-01 0.16184801E+04</pdfrwt>
<totfact> 0.13875368E+01</totfact>
</mgrwt>
</event>
<event>
12    1  0.1598876E-007  0.1113367E+04  0.7818608E-02  0.9192261E-01
          2   -1    0    0  501    0  0.00000000000E+00  0.00000000000E+00  0.88288526873E+03  0.88288526873E+03  0.00000000000E+00 0. -1.
         -2   -1    0    0    0  501 -0.00000000000E+00 -0.00000000000E+00 -0.35100421744E+03  0.35100421744E+03  0.00000000000E+00 0.  1.
         23    2    1    2    0    0  0.32803478640E+02  0.84204207762E+02  0.26973411923E+03  0.29864999149E+03  0.90933522557E+02 0.  0.
        254    2    1    2    0    0 -0.32803478640E+02 -0.84204207762E+02  0.26214693206E+03  0.93523949467E+03  0.89318837968E+03 0.  0.
        -24    2    4    4    0    0  0.19817560455E+03 -0.15256924665E+03 -0.25067252875E+03  0.36330852386E+03  0.81273744672E+02 0.  0.
         24    2    4    4    0    0 -0.23097908319E+03  0.68365038888E+02  0.51281946081E+03  0.57193097082E+03  0.78077657368E+02 0.  0.
         11    1    3    3    0    0  0.44678268562E+02  0.74130899879E+02  0.26951969630E+03  0.28307667635E+03  0.00000000000E+00 0. -1.
        -11    1    3    3    0    0 -0.11874789922E+02  0.10073307882E+02  0.21442293228E+00  0.15573315144E+02  0.00000000000E+00 0.  1.
          2    1    6    6  502    0 -0.19290219226E+02  0.15105645961E+01  0.89362792542E+01  0.21313175504E+02  0.00000000000E+00 0. -1.
          3    1    5    5  503    0  0.41140327670E+01 -0.35109216341E+02 -0.43960207900E+02  0.56409947848E+02  0.00000000000E+00 0. -1.
         -4    1    5    5    0  503  0.19406157178E+03 -0.11746003031E+03 -0.20671232085E+03  0.30689857601E+03  0.00000000000E+00 0.  1.
         -1    1    6    6    0  502 -0.21168886396E+03  0.66854474292E+02  0.50388318156E+03  0.55061779531E+03  0.00000000000E+00 0.  1.
<mgrwt>
<rscale>  0 0.11133669E+04</rscale>
<asrwt>0</asrwt>
<pdfrwt beam="1">  1        2 0.13582850E+00 0.11133669E+04</pdfrwt>
<pdfrwt beam="2">  1       -2 0.54000649E-01 0.11133669E+04</pdfrwt>
<totfact> 0.96513097E+01</totfact>
</mgrwt>
</event>
<event>
12    1  0.1598876E-007  0.1481397E+04  0.7818608E-02  0.8896919E-01
         -1   -1    0    0    0  501 -0.00000000000E+00  0.00000000000E+00  0.73472702210E+03  0.73472702210E+03  0.00000000000E+00 0.  1.
          1   -1    0    0  501    0  0.00000000000E+00 -0.00000000000E+00 -0.74671851793E+03  0.74671851793E+03  0.00000000000E+00 0. -1.
         23    2    1    2    0    0 -0.21643196225E+03  0.84635764843E+02  0.39112379936E+03  0.46388656976E+03  0.90592031702E+02 0.  0.
        254    2    1    2    0    0  0.21643196225E+03 -0.84635764843E+02 -0.40311529519E+03  0.10175589703E+04  0.90494105321E+03 0.  0.
        -24    2    4    4    0    0  0.21349781619E+03 -0.46485137919E+03 -0.10752497010E+03  0.52883840351E+03  0.80251576810E+02 0.  0.
         24    2    4    4    0    0  0.29341460606E+01  0.38021561434E+03 -0.29559032508E+03  0.48872056676E+03  0.83076046384E+02 0.  0.
         13    1    3    3    0    0 -0.50754994013E+02 -0.73463930688E+01  0.40563738949E+02  0.65386969848E+02  0.00000000000E+00 0. -1.
        -13    1    3    3    0    0 -0.16567696824E+03  0.91982157911E+02  0.35056006041E+03  0.39849959992E+03  0.00000000000E+00 0.  1.
          4    1    6    6  502    0 -0.28842188644E+01  0.27238018351E+02  0.13411573047E+01  0.27423111878E+02  0.00000000000E+00 0. -1.
          3    1    5    5  503    0  0.79987361826E+02 -0.25802423043E+03 -0.76187928064E+02  0.28067611570E+03  0.00000000000E+00 0. -1.
         -4    1    5    5    0  503  0.13351045436E+03 -0.20682714875E+03 -0.31337042039E+02  0.24816228781E+03  0.00000000000E+00 0.  1.
         -3    1    6    6    0  502  0.58183649251E+01  0.35297759599E+03 -0.29693148239E+03  0.46129745488E+03  0.00000000000E+00 0.  1.
<mgrwt>
<rscale>  0 0.14813970E+04</rscale>
<asrwt>0</asrwt>
<pdfrwt beam="1">  1        1 0.11487977E+00 0.14813970E+04</pdfrwt>
<pdfrwt beam="2">  1       -1 0.11303493E+00 0.14813970E+04</pdfrwt>
<totfact> 0.17096705E+01</totfact>
</mgrwt>
</event>
<event>
12    1  0.1598876E-007  0.1346636E+04  0.7818608E-02  0.8993378E-01
          1   -1    0    0  501    0  0.00000000000E+00  0.00000000000E+00  0.54377136481E+03  0.54377136481E+03  0.00000000000E+00 0. -1.
         -1   -1    0    0    0  501 -0.00000000000E+00 -0.00000000000E+00 -0.83372778581E+03  0.83372778581E+03  0.00000000000E+00 0.  1.
         23    2    1    2    0    0  0.17844608654E+03  0.15393230555E+03 -0.35918221188E+03  0.43959646902E+03  0.93247164854E+02 0.  0.
        254    2    1    2    0    0 -0.17844608654E+03 -0.15393230555E+03  0.69225790880E+02  0.93790268159E+03  0.90516908339E+03 0.  0.
        -24    2    4    4    0    0 -0.28584930203E+03 -0.39394202862E+03 -0.21831744209E+03  0.53957836510E+03  0.81130519379E+02 0.  0.
         24    2    4    4    0    0  0.10740321549E+03  0.24000972308E+03  0.28754323297E+03  0.39832431650E+03  0.82710533889E+02 0.  0.
         11    1    3    3    0    0  0.10683274881E+03  0.10918716340E+03 -0.15034508253E+03  0.21433319088E+03  0.00000000000E+00 0.  1.
        -11    1    3    3    0    0  0.71613337732E+02  0.44745142144E+02 -0.20883712935E+03  0.22526327815E+03  0.00000000000E+00 0. -1.
          2    1    6    6  502    0  0.10325340812E+03  0.22314594107E+03  0.22455915591E+03  0.33298977733E+03  0.00000000000E+00 0. -1.
          1    1    5    5  503    0 -0.12879027500E+03 -0.11677317148E+03 -0.60658864143E+02  0.18412606092E+03  0.00000000000E+00 0. -1.
         -2    1    5    5    0  503 -0.15705902702E+03 -0.27716885714E+03 -0.15765857795E+03  0.35545230417E+03  0.00000000000E+00 0.  1.
         -1    1    6    6    0  502  0.41498073728E+01  0.16863782007E+02  0.62984077062E+02  0.65334539167E+02  0.00000000000E+00 0.  1.
<mgrwt>
<rscale>  0 0.13466362E+04</rscale>
<asrwt>0</asrwt>
<pdfrwt beam="1">  1        1 0.83657133E-01 0.13466362E+04</pdfrwt>
<pdfrwt beam="2">  1       -1 0.12826581E+00 0.13466362E+04</pdfrwt>
<totfact> 0.20254212E+01</totfact>
</mgrwt>
</event>
<event>
12    1  0.1598876E-007  0.2855335E+04  0.7818608E-02  0.8286292E-01
          1   -1    0    0  501    0  0.00000000000E+00  0.00000000000E+00  0.20904217872E+04  0.20904217872E+04  0.00000000000E+00 0. -1.
         -1   -1    0    0    0  501 -0.00000000000E+00 -0.00000000000E+00 -0.97503489161E+03  0.97503489161E+03  0.00000000000E+00 0.  1.
         23    2    1    2    0    0  0.12792580088E+04 -0.65136156911E+02  0.53026982100E+03  0.13894554750E+04  0.93041184585E+02 0.  0.
        254    2    1    2    0    0 -0.12792580088E+04  0.65136156911E+02  0.58511707457E+03  0.16760012038E+04  0.90877624973E+03 0.  0.
        -24    2    4    4    0    0  0.42889179484E+02 -0.15857464200E+03 -0.48919894122E+02  0.19064884057E+03  0.83477096051E+02 0.  0.
         24    2    4    4    0    0 -0.13221471883E+04  0.22371079892E+03  0.63403696869E+03  0.14853523632E+04  0.78415917804E+02 0.  0.
         13    1    3    3    0    0  0.11682394796E+04 -0.80410689750E+02  0.46639633692E+03  0.12604661455E+04  0.00000000000E+00 0. -1.
        -13    1    3    3    0    0  0.11101852918E+03  0.15274532839E+02  0.63873484088E+02  0.12898932958E+03  0.00000000000E+00 0.  1.
          2    1    6    6  502    0 -0.13091472570E+04  0.21591188716E+03  0.61943292594E+03  0.14643024392E+04  0.00000000000E+00 0. -1.
          3    1    5    5  503    0  0.57677871633E+02 -0.71541154031E+02 -0.44894693514E+02  0.10227613163E+03  0.00000000000E+00 0. -1.
         -4    1    5    5    0  503 -0.14788692149E+02 -0.87033487973E+02 -0.40252006078E+01  0.88372708934E+02  0.00000000000E+00 0.  1.
         -1    1    6    6    0  502 -0.12999931248E+02  0.77989117575E+01  0.14604042753E+02  0.21049924033E+02  0.00000000000E+00 0.  1.
<mgrwt>
<rscale>  0 0.28553348E+04</rscale>
<asrwt>0</asrwt>
<pdfrwt beam="1">  1        1 0.32160335E+00 0.28553348E+04</pdfrwt>
<pdfrwt beam="2">  1       -1 0.15000537E+00 0.28553348E+04</pdfrwt>
<totfact> 0.77753326E-01</totfact>
</mgrwt>
</event>
<event>
12    1  0.1598876E-007  0.1951394E+04  0.7818608E-02  0.8629689E-01
         -1   -1    0    0    0  501 -0.00000000000E+00  0.00000000000E+00  0.38628537036E+03  0.38628537036E+03  0.00000000000E+00 0.  1.
          1   -1    0    0  501    0  0.00000000000E+00 -0.00000000000E+00 -0.24644587035E+04  0.24644587035E+04  0.00000000000E+00 0. -1.
         23    2    1    2    0    0 -0.74694463400E+03  0.88592620837E+01 -0.10518531206E+04  0.12935002612E+04  0.93504896261E+02 0.  0.
        254    2    1    2    0    0  0.74694463400E+03 -0.88592620837E+01 -0.10263202125E+04  0.15572438126E+04  0.90203677340E+03 0.  0.
        -24    2    4    4    0    0  0.72990680679E+02 -0.26409878167E+02 -0.84873509927E+03  0.85602964379E+03  0.80064731184E+02 0.  0.
         24    2    4    4    0    0  0.67395395332E+03  0.17550616083E+02 -0.17758511321E+03  0.70121416882E+03  0.75119124074E+02 0.  0.
         11    1    3    3    0    0 -0.68471079349E+03  0.31365472568E+02 -0.97876059181E+03  0.11948995605E+04  0.00000000000E+00 0. -1.
        -11    1    3    3    0    0 -0.62233840501E+02 -0.22506210484E+02 -0.73092528800E+02  0.98600700709E+02  0.00000000000E+00 0.  1.
          4    1    6    6  502    0  0.36979461168E+03  0.34296553647E+02 -0.68466112830E+02  0.37763993039E+03  0.00000000000E+00 0. -1.
          1    1    5    5  503    0  0.57536365750E+02 -0.33332200659E+02 -0.31104902212E+03  0.31807697676E+03  0.00000000000E+00 0. -1.
         -2    1    5    5    0  503  0.15454314929E+02  0.69223224918E+01 -0.53768607715E+03  0.53795266703E+03  0.00000000000E+00 0.  1.
         -3    1    6    6    0  502  0.30415934163E+03 -0.16745937564E+02 -0.10911900038E+03  0.32357423843E+03  0.00000000000E+00 0.  1.
<mgrwt>
<rscale>  0 0.19513937E+04</rscale>
<asrwt>0</asrwt>
<pdfrwt beam="1">  1        1 0.37914748E+00 0.19513937E+04</pdfrwt>
<pdfrwt beam="2">  1       -1 0.59428520E-01 0.19513937E+04</pdfrwt>
<totfact> 0.38359626E+00</totfact>
</mgrwt>
</event>
<event>
12    1  0.1598876E-007  0.1029032E+04  0.7818608E-02  0.9277264E-01
          1   -1    0    0  501    0  0.00000000000E+00  0.00000000000E+00  0.14179317624E+03  0.14179317624E+03  0.00000000000E+00 0. -1.
         -1   -1    0    0    0  501 -0.00000000000E+00 -0.00000000000E+00 -0.18669902634E+04  0.18669902634E+04  0.00000000000E+00 0.  1.
         23    2    1    2    0    0  0.63319278795E+02 -0.29376474920E+02 -0.26701502274E+03  0.28999969466E+03  0.89053310924E+02 0.  0.
        254    2    1    2    0    0 -0.63319278795E+02  0.29376474920E+02 -0.14581820644E+04  0.17187837450E+04  0.90722120824E+03 0.  0.
        -24    2    4    4    0    0 -0.26057173863E+03 -0.36871526571E+03 -0.74292263462E+03  0.87290014950E+03  0.78562407236E+02 0.  0.
         24    2    4    4    0    0  0.19725245984E+03  0.39809174063E+03 -0.71525942982E+03  0.84588359550E+03  0.80854426694E+02 0.  0.
         11    1    3    3    0    0  0.33888692159E+02  0.26948168613E+02 -0.15788712918E+03  0.16371619593E+03  0.00000000000E+00 0.  1.
        -11    1    3    3    0    0  0.29430586636E+02 -0.56324643532E+02 -0.10912789356E+03  0.12628349873E+03  0.00000000000E+00 0. -1.
          2    1    6    6  502    0 -0.77976962533E+01  0.17929773587E+02 -0.27657731228E+02  0.33870797812E+02  0.00000000000E+00 0. -1.
          1    1    5    5  503    0 -0.59372863571E+01 -0.39817242863E+02 -0.44565637571E+02  0.60056308999E+02  0.00000000000E+00 0. -1.
         -2    1    5    5    0  503 -0.25463445228E+03 -0.32889802285E+03 -0.69835699705E+03  0.81284384051E+03  0.00000000000E+00 0.  1.
         -1    1    6    6    0  502  0.20505015609E+03  0.38016196704E+03 -0.68760169859E+03  0.81201279768E+03  0.00000000000E+00 0.  1.
<mgrwt>
<rscale>  0 0.10290315E+04</rscale>
<asrwt>0</asrwt>
<pdfrwt beam="1">  1        1 0.21814334E-01 0.10290315E+04</pdfrwt>
<pdfrwt beam="2">  1       -1 0.28722928E+00 0.10290315E+04</pdfrwt>
<totfact> 0.94439416E+00</totfact>
</mgrwt>
</event>
<event>
12    1  0.1598876E-007  0.1023922E+04  0.7818608E-02  0.9282690E-01
         -2   -1    0    0    0  501 -0.00000000000E+00  0.00000000000E+00  0.14082042481E+04  0.14082042481E+04  0.00000000000E+00 0. -1.
          2   -1    0    0  501    0  0.00000000000E+00 -0.00000000000E+00 -0.18612641351E+03  0.18612641351E+03  0.00000000000E+00 0.  1.
         23    2    1    2    0    0 -0.32945515699E+02 -0.81731603671E+02  0.17046908232E+03  0.21166977854E+03  0.89324829014E+02 0.  0.
        254    2    1    2    0    0  0.32945515699E+02  0.81731603671E+02  0.10516087522E+04  0.13826608830E+04  0.89336705090E+03 0.  0.
        -24    2    4    4    0    0 -0.13001794317E+03  0.48608468364E+02 -0.11833225826E+03  0.19846199327E+03  0.78212471397E+02 0.  0.
         24    2    4    4    0    0  0.16296345887E+03  0.33123135307E+02  0.11699410105E+04  0.11841988898E+04  0.76881801772E+02 0.  0.
         11    1    3    3    0    0 -0.36264642820E+02 -0.14918765772E+02  0.12443030101E+03  0.13046299744E+03  0.00000000000E+00 0. -1.
        -11    1    3    3    0    0  0.33191271208E+01 -0.66812837899E+02  0.46038781308E+02  0.81206781104E+02  0.00000000000E+00 0.  1.
          4    1    6    6  502    0  0.69612484360E+02  0.30960318482E+02  0.75740805446E+03  0.76123018874E+03  0.00000000000E+00 0. -1.
          1    1    5    5  503    0 -0.70120506476E+02  0.19291464229E+02 -0.10913019779E+03  0.13114284613E+03  0.00000000000E+00 0. -1.
         -2    1    5    5    0  503 -0.59897436697E+02  0.29317004135E+02 -0.92020604698E+01  0.67319147137E+02  0.00000000000E+00 0.  1.
         -3    1    6    6    0  502  0.93350974512E+02  0.21628168249E+01  0.41253295603E+03  0.42296870101E+03  0.00000000000E+00 0.  1.
<mgrwt>
<rscale>  0 0.10239219E+04</rscale>
<asrwt>0</asrwt>
<pdfrwt beam="1">  1        2 0.28634834E-01 0.10239219E+04</pdfrwt>
<pdfrwt beam="2">  1       -2 0.21664680E+00 0.10239219E+04</pdfrwt>
<totfact> 0.19477174E+01</totfact>
</mgrwt>
</event>
<event>
12    1  0.1598876E-007  0.2059868E+04  0.7818608E-02  0.8579131E-01
          3   -1    0    0  501    0  0.00000000000E+00  0.00000000000E+00  0.16130165601E+04  0.16130165601E+04  0.00000000000E+00 0. -1.
         -3   -1    0    0    0  501 -0.00000000000E+00 -0.00000000000E+00 -0.65762721725E+03  0.65762721725E+03  0.00000000000E+00 0.  1.
         23    2    1    2    0    0  0.62395871391E+03 -0.23422105625E+03 -0.15014518306E+03  0.68915250867E+03  0.90573861262E+02 0.  0.
        254    2    1    2    0    0 -0.62395871391E+03  0.23422105625E+03  0.11055345259E+04  0.15814912687E+04  0.91363234679E+03 0.  0.
        -24    2    4    4    0    0 -0.65347500874E+03  0.50611646267E+03  0.70099266454E+03  0.10871834082E+04  0.85985966724E+02 0.  0.
         24    2    4    4    0    0  0.29516294822E+02 -0.27189540642E+03  0.40454186138E+03  0.49430786051E+03  0.76732129251E+02 0.  0.
         11    1    3    3    0    0  0.24705529606E+03 -0.77641999826E+02 -0.10142280540E+03  0.27812080991E+03  0.00000000000E+00 0. -1.
        -11    1    3    3    0    0  0.37690341785E+03 -0.15657905642E+03 -0.48722377667E+02  0.41103169876E+03  0.00000000000E+00 0.  1.
          4    1    6    6  502    0  0.45490497372E+02 -0.17772780584E+03  0.30803407113E+03  0.35852691293E+03  0.00000000000E+00 0. -1.
          3    1    5    5  503    0 -0.61724026117E+03  0.49826108331E+03  0.67829107911E+03  0.10437089801E+04  0.00000000000E+00 0. -1.
         -4    1    5    5    0  503 -0.36234747566E+02  0.78553793542E+01  0.22701585431E+02  0.43474428082E+02  0.00000000000E+00 0.  1.
         -3    1    6    6    0  502 -0.15974202549E+02 -0.94167600577E+02  0.96507790253E+02  0.13578094758E+03  0.00000000000E+00 0.  1.
<mgrwt>
<rscale>  0 0.20598676E+04</rscale>
<asrwt>0</asrwt>
<pdfrwt beam="1">  1        3 0.24815639E+00 0.20598676E+04</pdfrwt>
<pdfrwt beam="2">  1       -3 0.10117342E+00 0.20598676E+04</pdfrwt>
<totfact> 0.15550639E-01</totfact>
</mgrwt>
</event>
<event>
12    1  0.1598876E-007  0.1203486E+04  0.7818608E-02  0.9109810E-01
          2   -1    0    0  501    0  0.00000000000E+00  0.00000000000E+00  0.41779538964E+04  0.41779538964E+04  0.00000000000E+00 0. -1.
         -2   -1    0    0    0  501 -0.00000000000E+00 -0.00000000000E+00 -0.86668003677E+02  0.86668003677E+02  0.00000000000E+00 0.  1.
         23    2    1    2    0    0  0.10281567461E+03 -0.11202108929E+03  0.15727868997E+04  0.15828588195E+04  0.93078586425E+02 0.  0.
        254    2    1    2    0    0 -0.10281567461E+03  0.11202108929E+03  0.25184989930E+04  0.26817630806E+04  0.90878834446E+03 0.  0.
        -24    2    4    4    0    0 -0.14231591983E+02  0.24493909200E+03  0.13287904078E+03  0.28953567507E+03  0.77306989731E+02 0.  0.
         24    2    4    4    0    0 -0.88584082624E+02 -0.13291800271E+03  0.23856199522E+04  0.23922274055E+04  0.77814316851E+02 0.  0.
         11    1    3    3    0    0  0.45731457143E+02 -0.83412813791E+02  0.12620204607E+04  0.12656005321E+04  0.00000000000E+00 0. -1.
        -11    1    3    3    0    0  0.57084217465E+02 -0.28608275499E+02  0.31076643899E+03  0.31725828738E+03  0.00000000000E+00 0.  1.
          4    1    6    6  502    0 -0.99410564052E+02 -0.13220721401E+03  0.21478439759E+04  0.21542040183E+04  0.00000000000E+00 0. -1.
          1    1    5    5  503    0 -0.21123643970E+02  0.23414431940E+03  0.10231065589E+03  0.25639274746E+03  0.00000000000E+00 0. -1.
         -2    1    5    5    0  503  0.68920519874E+01  0.10794772603E+02  0.30568384889E+02  0.33142927615E+02  0.00000000000E+00 0.  1.
         -3    1    6    6    0  502  0.10826481428E+02 -0.71078869423E+00  0.23777597638E+03  0.23802338722E+03  0.00000000000E+00 0.  1.
<mgrwt>
<rscale>  0 0.12034865E+04</rscale>
<asrwt>0</asrwt>
<pdfrwt beam="1">  1        2 0.64276198E+00 0.12034865E+04</pdfrwt>
<pdfrwt beam="2">  1       -2 0.13333542E-01 0.12034865E+04</pdfrwt>
<totfact> 0.10742902E+01</totfact>
</mgrwt>
</event>
<event>
12    1  0.1598876E-007  0.1568844E+04  0.7818608E-02  0.8839920E-01
         -1   -1    0    0    0  501 -0.00000000000E+00  0.00000000000E+00  0.31793605427E+03  0.31793605427E+03  0.00000000000E+00 0.  1.
          1   -1    0    0  501    0  0.00000000000E+00 -0.00000000000E+00 -0.19353510982E+04  0.19353510982E+04  0.00000000000E+00 0. -1.
         23    2    1    2    0    0 -0.24940650916E+03 -0.34107053713E+03 -0.94889457222E+03  0.10430276898E+04  0.94726629396E+02 0.  0.
        254    2    1    2    0    0  0.24940650916E+03  0.34107053713E+03 -0.66852047175E+03  0.12102594627E+04  0.91611987638E+03 0.  0.
        -24    2    4    4    0    0  0.55527710153E+03  0.16051702538E+03 -0.60644210673E+03  0.84163849677E+03  0.80529221413E+02 0.  0.
         24    2    4    4    0    0 -0.30587059237E+03  0.18055351175E+03 -0.62078365023E+02  0.36862096598E+03  0.76624429993E+02 0.  0.
         13    1    3    3    0    0 -0.23098977745E+03 -0.31346052767E+03 -0.79051512471E+03  0.88120822856E+03  0.00000000000E+00 0.  1.
        -13    1    3    3    0    0 -0.18416731708E+02 -0.27610009458E+02 -0.15837944751E+03  0.16181946120E+03  0.00000000000E+00 0. -1.
          2    1    6    6  502    0 -0.19933711317E+03  0.73913559968E+02 -0.38246458016E+02  0.21601224637E+03  0.00000000000E+00 0. -1.
          1    1    5    5  503    0  0.12145423779E+03  0.10171696906E+02 -0.16102093891E+03  0.20194637422E+03  0.00000000000E+00 0. -1.
         -2    1    5    5    0  503  0.43382286374E+03  0.15034532847E+03 -0.44542116782E+03  0.63969212254E+03  0.00000000000E+00 0.  1.
         -1    1    6    6    0  502 -0.10653347920E+03  0.10663995178E+03 -0.23831907007E+02  0.15260871960E+03  0.00000000000E+00 0.  1.
<mgrwt>
<rscale>  0 0.15688440E+04</rscale>
<asrwt>0</asrwt>
<pdfrwt beam="1">  1        1 0.29774631E+00 0.15688440E+04</pdfrwt>
<pdfrwt beam="2">  1       -1 0.48913241E-01 0.15688440E+04</pdfrwt>
<totfact> 0.13278156E+01</totfact>
</mgrwt>
</event>
<event>
12    1  0.1598876E-007  0.1546699E+04  0.7818608E-02  0.8853979E-01
         -2   -1    0    0    0  501 -0.00000000000E+00  0.00000000000E+00  0.68894953775E+03  0.68894953775E+03  0.00000000000E+00 0. -1.
          2   -1    0    0  501    0  0.00000000000E+00 -0.00000000000E+00 -0.86808864033E+03  0.86808864033E+03  0.00000000000E+00 0.  1.
         23    2    1    2    0    0  0.61975371688E+02 -0.37795203729E+03 -0.38349105347E+03  0.54925557545E+03  0.89037126445E+02 0.  0.
        254    2    1    2    0    0 -0.61975371688E+02  0.37795203729E+03  0.20435195089E+03  0.10077826026E+04  0.90949291649E+03 0.  0.
        -24    2    4    4    0    0  0.21964004479E+03  0.58020265891E+03  0.17715218131E+03  0.64999427553E+03  0.78948009431E+02 0.  0.
         24    2    4    4    0    0 -0.28161541648E+03 -0.20225062162E+03  0.27199769573E+02  0.35778832710E+03  0.84024417894E+02 0.  0.
         11    1    3    3    0    0 -0.80405097356E+01 -0.42808487159E+01 -0.25422577821E+02  0.27005238855E+02  0.00000000000E+00 0. -1.
        -11    1    3    3    0    0  0.70015881424E+02 -0.37367118857E+03 -0.35806847565E+03  0.52225033660E+03  0.00000000000E+00 0.  1.
          4    1    6    6  502    0 -0.20579022138E+03 -0.16530802650E+03 -0.13145448710E+02  0.26428991971E+03  0.00000000000E+00 0. -1.
          1    1    5    5  503    0  0.11655985875E+03  0.40464686152E+03  0.13382558128E+03  0.44185356106E+03  0.00000000000E+00 0. -1.
         -2    1    5    5    0  503  0.10308018605E+03  0.17555579738E+03  0.43326600035E+02  0.20814071447E+03  0.00000000000E+00 0.  1.
         -3    1    6    6    0  502 -0.75825195102E+02 -0.36942595119E+02  0.40345218283E+02  0.93498407391E+02  0.00000000000E+00 0.  1.
<mgrwt>
<rscale>  0 0.15466988E+04</rscale>
<asrwt>0</asrwt>
<pdfrwt beam="1">  1        2 0.13355210E+00 0.15466988E+04</pdfrwt>
<pdfrwt beam="2">  1       -2 0.10599224E+00 0.15466988E+04</pdfrwt>
<totfact> 0.21337437E+01</totfact>
</mgrwt>
</event>
<event>
12    1  0.1598876E-007  0.2095259E+04  0.7818608E-02  0.8563335E-01
          1   -1    0    0  501    0  0.00000000000E+00  0.00000000000E+00  0.64311294053E+03  0.64311294053E+03  0.00000000000E+00 0. -1.
         -1   -1    0    0    0  501 -0.00000000000E+00 -0.00000000000E+00 -0.17065865260E+04  0.17065865260E+04  0.00000000000E+00 0.  1.
         23    2    1    2    0    0 -0.37305993340E+02 -0.68461749790E+03 -0.10181744262E+04  0.12309702494E+04  0.92280751244E+02 0.  0.
        254    2    1    2    0    0  0.37305993340E+02  0.68461749790E+03 -0.45299159280E+02  0.11187292172E+04  0.88284211046E+03 0.  0.
        -24    2    4    4    0    0 -0.40603336547E+03  0.43610731153E+03 -0.62320598633E+02  0.60443814713E+03  0.80055828296E+02 0.  0.
         24    2    4    4    0    0  0.44333935881E+03  0.24851018637E+03  0.17021439353E+02  0.51429107006E+03  0.76801533488E+02 0.  0.
         11    1    3    3    0    0 -0.25494747847E+02 -0.66586341350E+03 -0.10027607092E+04  0.12039738816E+04  0.00000000000E+00 0.  1.
        -11    1    3    3    0    0 -0.11811245493E+02 -0.18754084405E+02 -0.15413717043E+02  0.26996367812E+02  0.00000000000E+00 0. -1.
          2    1    6    6  502    0  0.39586785065E+03  0.20401413427E+03  0.35198287334E+02  0.44673486722E+03  0.00000000000E+00 0. -1.
          1    1    5    5  503    0 -0.18242793515E+03  0.24501119931E+03 -0.53853446576E+02  0.31017838903E+03  0.00000000000E+00 0. -1.
         -2    1    5    5    0  503 -0.22360543032E+03  0.19109611222E+03 -0.84671520571E+01  0.29425975810E+03  0.00000000000E+00 0.  1.
         -1    1    6    6    0  502  0.47471508167E+02  0.44496052105E+02 -0.18176847981E+02  0.67556202847E+02  0.00000000000E+00 0.  1.
<mgrwt>
<rscale>  0 0.20952593E+04</rscale>
<asrwt>0</asrwt>
<pdfrwt beam="1">  1        1 0.98940453E-01 0.20952593E+04</pdfrwt>
<pdfrwt beam="2">  1       -1 0.26255177E+00 0.20952593E+04</pdfrwt>
<totfact> 0.16442179E+00</totfact>
</mgrwt>
</event>
<event>
12    1  0.1598876E-007  0.1365790E+04  0.7818608E-02  0.8978961E-01
         -2   -1    0    0    0  501 -0.00000000000E+00  0.00000000000E+00  0.34287560392E+03  0.34287560392E+03  0.00000000000E+00 0.  1.
          2   -1    0    0  501    0  0.00000000000E+00 -0.00000000000E+00 -0.13601014119E+04  0.13601014119E+04  0.00000000000E+00 0. -1.
         23    2    1    2    0    0  0.88803848497E+02 -0.15237631988E+03  0.15558987999E+03  0.24373119768E+03  0.63968895536E+02 0.  0.
        254    2    1    2    0    0 -0.88803848497E+02  0.15237631988E+03 -0.11728156880E+04  0.14592458182E+04  0.85017471937E+03 0.  0.
        -24    2    4    4    0    0  0.21070588757E+03  0.30767319099E+03 -0.20871786318E+03  0.43474773528E+03  0.79891698010E+02 0.  0.
         24    2    4    4    0    0 -0.29950973606E+03 -0.15529687111E+03 -0.96409782484E+03  0.10244980829E+04  0.79300099860E+02 0.  0.
         13    1    3    3    0    0  0.52738391184E+02 -0.11456032866E+03  0.72201563844E+02  0.14532196196E+03  0.00000000000E+00 0. -1.
        -13    1    3    3    0    0  0.36065457313E+02 -0.37815991219E+02  0.83388316150E+02  0.98409235712E+02  0.00000000000E+00 0.  1.
          2    1    6    6  502    0 -0.20424502604E+01 -0.18595038688E+02 -0.40947493752E+02  0.45018266420E+02  0.00000000000E+00 0. -1.
          1    1    5    5  503    0  0.48680373493E+02  0.13521835077E+03 -0.94461227646E+02  0.17197879136E+03  0.00000000000E+00 0. -1.
         -2    1    5    5    0  503  0.16202551407E+03  0.17245484022E+03 -0.11425663553E+03  0.26276894392E+03  0.00000000000E+00 0.  1.
         -1    1    6    6    0  502 -0.29746728580E+03 -0.13670183242E+03 -0.92315033109E+03  0.97947981649E+03  0.00000000000E+00 0.  1.
<mgrwt>
<rscale>  0 0.13657900E+04</rscale>
<asrwt>0</asrwt>
<pdfrwt beam="1">  1        2 0.20924637E+00 0.13657900E+04</pdfrwt>
<pdfrwt beam="2">  1       -2 0.52750093E-01 0.13657900E+04</pdfrwt>
<totfact> 0.50451555E+01</totfact>
</mgrwt>
</event>
<event>
12    1  0.1598876E-007  0.2740342E+04  0.7818608E-02  0.8322033E-01
         -2   -1    0    0    0  501 -0.00000000000E+00  0.00000000000E+00  0.22366328905E+04  0.22366328905E+04  0.00000000000E+00 0.  1.
          2   -1    0    0  501    0  0.00000000000E+00 -0.00000000000E+00 -0.83937281406E+03  0.83937281406E+03  0.00000000000E+00 0. -1.
         23    2    1    2    0    0  0.79047726960E+03 -0.84759436142E+03  0.10748018182E+04  0.15835223804E+04  0.95255791166E+02 0.  0.
        254    2    1    2    0    0 -0.79047726960E+03  0.84759436142E+03  0.32245825823E+03  0.14924833241E+04  0.88332136231E+03 0.  0.
        -24    2    4    4    0    0 -0.34676737760E+03 -0.92284873447E+02  0.25584001963E+03  0.44791573675E+03  0.80064221421E+02 0.  0.
         24    2    4    4    0    0 -0.44370989200E+03  0.93987923487E+03  0.66618238602E+02  0.10445675873E+04  0.80199815477E+02 0.  0.
         13    1    3    3    0    0  0.74710448962E+03 -0.81506500009E+03  0.99766534412E+03  0.14892388028E+04  0.00000000000E+00 0.  1.
        -13    1    3    3    0    0  0.43372779975E+02 -0.32529361325E+02  0.77136474046E+02  0.94283577675E+02  0.00000000000E+00 0. -1.
          2    1    6    6  502    0 -0.11035169070E+03  0.16584639599E+03  0.41312024489E+00  0.19920515398E+03  0.00000000000E+00 0. -1.
          1    1    5    5  503    0 -0.95595345656E+02 -0.56072545746E+01  0.33486930374E+02  0.10144597538E+03  0.00000000000E+00 0. -1.
         -2    1    5    5    0  503 -0.25117203194E+03 -0.86677618872E+02  0.22235308925E+03  0.34646976137E+03  0.00000000000E+00 0.  1.
         -1    1    6    6    0  502 -0.33335820130E+03  0.77403283887E+03  0.66205118357E+02  0.84536243335E+03  0.00000000000E+00 0.  1.
<mgrwt>
<rscale>  0 0.27403422E+04</rscale>
<asrwt>0</asrwt>
<pdfrwt beam="1">  1        2 0.12913428E+00 0.27403422E+04</pdfrwt>
<pdfrwt beam="2">  1       -2 0.34409737E+00 0.27403422E+04</pdfrwt>
<totfact> 0.47850776E-01</totfact>
</mgrwt>
</event>
<event>
12    1  0.1598876E-007  0.1131769E+04  0.7818608E-02  0.9174769E-01
         -2   -1    0    0    0  501 -0.00000000000E+00  0.00000000000E+00  0.12104863938E+04  0.12104863938E+04  0.00000000000E+00 0.  1.
          2   -1    0    0  501    0  0.00000000000E+00 -0.00000000000E+00 -0.26454286933E+03  0.26454286933E+03  0.00000000000E+00 0. -1.
         23    2    1    2    0    0 -0.35723383959E+02 -0.16176357354E+03  0.29395964855E+03  0.34874207048E+03  0.88120047998E+02 0.  0.
        254    2    1    2    0    0  0.35723383959E+02  0.16176357354E+03  0.65198387588E+03  0.11262871926E+04  0.90332510867E+03 0.  0.
        -24    2    4    4    0    0  0.25277517679E+03 -0.83913791096E+02  0.72966569141E+03  0.78009582471E+03  0.72115602908E+02 0.  0.
         24    2    4    4    0    0 -0.21705179283E+03  0.24567736463E+03 -0.77681815529E+02  0.34619136790E+03  0.79656452857E+02 0.  0.
         11    1    3    3    0    0 -0.93258059859E+01 -0.36507637691E+01 -0.36885887826E+01  0.10672601398E+02  0.00000000000E+00 0. -1.
        -11    1    3    3    0    0 -0.26397577973E+02 -0.15811280977E+03  0.29764823734E+03  0.33806946908E+03  0.00000000000E+00 0.  1.
          4    1    6    6  502    0 -0.36958354517E+02  0.63687915261E+02 -0.49240871004E+02  0.88581792126E+02  0.00000000000E+00 0. -1.
          3    1    5    5  503    0  0.94557928597E+02 -0.59433537604E+02  0.36809110619E+03  0.38466168214E+03  0.00000000000E+00 0. -1.
         -4    1    5    5    0  503  0.15821724819E+03 -0.24480253492E+02  0.36157458522E+03  0.39543414257E+03  0.00000000000E+00 0.  1.
         -3    1    6    6    0  502 -0.18009343831E+03  0.18198944937E+03 -0.28440944524E+02  0.25760957577E+03  0.00000000000E+00 0.  1.
<mgrwt>
<rscale>  0 0.11317695E+04</rscale>
<asrwt>0</asrwt>
<pdfrwt beam="1">  1        2 0.40698904E-01 0.11317695E+04</pdfrwt>
<pdfrwt beam="2">  1       -2 0.18622867E+00 0.11317695E+04</pdfrwt>
<totfact> 0.20562056E+01</totfact>
</mgrwt>
</event>
<event>
12    1  0.1598876E-007  0.2159006E+04  0.7818608E-02  0.8535687E-01
         -3   -1    0    0    0  501 -0.00000000000E+00  0.00000000000E+00  0.13025601196E+04  0.13025601196E+04  0.00000000000E+00 0.  1.
          3   -1    0    0  501    0  0.00000000000E+00 -0.00000000000E+00 -0.89464344058E+03  0.89464344058E+03  0.00000000000E+00 0. -1.
         23    2    1    2    0    0  0.21325425380E+03  0.12247464423E+03 -0.70004835271E+03  0.74879381570E+03  0.10073265137E+03 0.  0.
        254    2    1    2    0    0 -0.21325425380E+03 -0.12247464423E+03  0.11079650318E+04  0.14484097445E+04  0.89990380660E+03 0.  0.
        -24    2    4    4    0    0 -0.27289553164E+03 -0.25031813086E+03  0.54377756162E+02  0.38238292257E+03  0.78285511312E+02 0.  0.
         24    2    4    4    0    0  0.59641277835E+02  0.12784348663E+03  0.10535872756E+04  0.10660268219E+04  0.80411433937E+02 0.  0.
         13    1    3    3    0    0  0.22272984008E+03  0.12566451899E+03 -0.67191017734E+03  0.71893215216E+03  0.00000000000E+00 0. -1.
        -13    1    3    3    0    0 -0.94755862721E+01 -0.31898747661E+01 -0.28138175371E+02  0.29861663541E+02  0.00000000000E+00 0.  1.
          4    1    6    6  502    0  0.19158961524E+02  0.17755812535E+02  0.47238987146E+03  0.47311153584E+03  0.00000000000E+00 0. -1.
          1    1    5    5  503    0 -0.21035648719E+03 -0.15736582041E+03  0.13246287632E+02  0.26303862316E+03  0.00000000000E+00 0. -1.
         -2    1    5    5    0  503 -0.62539044446E+02 -0.92952310448E+02  0.41131468530E+02  0.11934429941E+03  0.00000000000E+00 0.  1.
         -3    1    6    6    0  502  0.40482316312E+02  0.11008767409E+03  0.58119740413E+03  0.59291528610E+03  0.00000000000E+00 0.  1.
<mgrwt>
<rscale>  0 0.21590061E+04</rscale>
<asrwt>0</asrwt>
<pdfrwt beam="1">  1        3 0.13763745E+00 0.21590061E+04</pdfrwt>
<pdfrwt beam="2">  1       -3 0.20039387E+00 0.21590061E+04</pdfrwt>
<totfact> 0.14054389E-01</totfact>
</mgrwt>
</event>
<event>
12    1  0.1598876E-007  0.3158958E+04  0.7818608E-02  0.8199741E-01
          1   -1    0    0  501    0  0.00000000000E+00  0.00000000000E+00  0.16451242771E+04  0.16451242771E+04  0.00000000000E+00 0. -1.
         -1   -1    0    0    0  501 -0.00000000000E+00 -0.00000000000E+00 -0.15164529887E+04  0.15164529887E+04  0.00000000000E+00 0.  1.
         23    2    1    2    0    0 -0.76398208613E+03 -0.10111355921E+04  0.76501711689E+03  0.14844290127E+04  0.11051918813E+03 0.  0.
        254    2    1    2    0    0  0.76398208613E+03  0.10111355921E+04 -0.63634582842E+03  0.16771482531E+04  0.89544761768E+03 0.  0.
        -24    2    4    4    0    0  0.55306964360E+03  0.60667552862E+03 -0.83429507076E+03  0.11734065939E+04  0.83027356065E+02 0.  0.
         24    2    4    4    0    0  0.21091244253E+03  0.40446006352E+03  0.19794924234E+03  0.50374165922E+03  0.80621059852E+02 0.  0.
         13    1    3    3    0    0 -0.64098551059E+03 -0.89282242741E+03  0.69207280003E+03  0.12988298858E+04  0.00000000000E+00 0. -1.
        -13    1    3    3    0    0 -0.12299657554E+03 -0.11831316473E+03  0.72944316857E+02  0.18559912689E+03  0.00000000000E+00 0.  1.
          4    1    6    6  502    0  0.21800772481E+03  0.38547223000E+03  0.18711816872E+03  0.48075920921E+03  0.00000000000E+00 0. -1.
          1    1    5    5  503    0  0.23601775559E+03  0.30740606104E+03 -0.42894725272E+03  0.57809913764E+03  0.00000000000E+00 0. -1.
         -2    1    5    5    0  503  0.31705188800E+03  0.29926946757E+03 -0.40534781804E+03  0.59530745628E+03  0.00000000000E+00 0.  1.
         -3    1    6    6    0  502 -0.70952822814E+01  0.18987833525E+02  0.10831073615E+02  0.22982450006E+02  0.00000000000E+00 0.  1.
<mgrwt>
<rscale>  0 0.31589578E+04</rscale>
<asrwt>0</asrwt>
<pdfrwt beam="1">  1        1 0.25309604E+00 0.31589578E+04</pdfrwt>
<pdfrwt beam="2">  1       -1 0.23330046E+00 0.31589578E+04</pdfrwt>
<totfact> 0.39159080E-01</totfact>
</mgrwt>
</event>
<event>
12    1  0.1598876E-007  0.1411783E+04  0.7818608E-02  0.8945333E-01
          1   -1    0    0  501    0  0.00000000000E+00  0.00000000000E+00  0.13397698747E+04  0.13397698747E+04  0.00000000000E+00 0. -1.
         -1   -1    0    0    0  501 -0.00000000000E+00 -0.00000000000E+00 -0.37191669273E+03  0.37191669273E+03  0.00000000000E+00 0.  1.
         23    2    1    2    0    0 -0.13155323697E+03 -0.27515974241E+03 -0.48258000306E+02  0.32179569131E+03  0.90578663893E+02 0.  0.
        254    2    1    2    0    0  0.13155323697E+03  0.27515974241E+03  0.10161111823E+04  0.13898908761E+04  0.89793962756E+03 0.  0.
        -24    2    4    4    0    0  0.35806366037E+03 -0.17821745272E+03  0.61826543323E+03  0.74056811357E+03  0.78853912891E+02 0.  0.
         24    2    4    4    0    0 -0.22651042340E+03  0.45337719513E+03  0.39784574903E+03  0.64932276252E+03  0.80504390829E+02 0.  0.
         13    1    3    3    0    0 -0.12863217558E+02  0.15948032255E+00 -0.15583412654E+02  0.20207190549E+02  0.00000000000E+00 0. -1.
        -13    1    3    3    0    0 -0.11869001941E+03 -0.27531922273E+03 -0.32674587651E+02  0.30158850076E+03  0.00000000000E+00 0.  1.
          2    1    6    6  502    0 -0.11392256253E+01  0.35445865386E+02  0.47299895291E+02  0.59118417625E+02  0.00000000000E+00 0. -1.
          3    1    5    5  503    0  0.17433801370E+03 -0.12742297734E+03  0.35546647358E+03  0.41591678496E+03  0.00000000000E+00 0. -1.
         -4    1    5    5    0  503  0.18372564667E+03 -0.50794475380E+02  0.26279895965E+03  0.32465132861E+03  0.00000000000E+00 0.  1.
         -1    1    6    6    0  502 -0.22537119778E+03  0.41793132974E+03  0.35054585374E+03  0.59020434490E+03  0.00000000000E+00 0.  1.
<mgrwt>
<rscale>  0 0.14117830E+04</rscale>
<asrwt>0</asrwt>
<pdfrwt beam="1">  1        1 0.20611844E+00 0.14117830E+04</pdfrwt>
<pdfrwt beam="2">  1       -1 0.57217953E-01 0.14117830E+04</pdfrwt>
<totfact> 0.25530383E+01</totfact>
</mgrwt>
</event>
<event>
12    1  0.1634575E-007  0.1859641E+04  0.7818608E-02  0.8675211E-01
          2   -1    0    0  501    0  0.00000000000E+00  0.00000000000E+00  0.13625829587E+04  0.13625829587E+04  0.00000000000E+00 0. -1.
         -2   -1    0    0    0  501 -0.00000000000E+00 -0.00000000000E+00 -0.63450510080E+03  0.63450510080E+03  0.00000000000E+00 0.  1.
         23    2    1    2    0    0 -0.57728559062E+03  0.21267034412E+03  0.64283932866E+03  0.89434948085E+03  0.90173516208E+02 0.  0.
        254    2    1    2    0    0  0.57728559062E+03 -0.21267034412E+03  0.85238529206E+02  0.11027385786E+04  0.91119670626E+03 0.  0.
        -24    2    4    4    0    0  0.80734028238E+03 -0.23916844115E+03  0.12312027265E+03  0.85462742998E+03  0.78927610752E+02 0.  0.
         24    2    4    4    0    0 -0.23005469176E+03  0.26498097026E+02 -0.37881743444E+02  0.24811114864E+03  0.80602762011E+02 0.  0.
         13    1    3    3    0    0 -0.57743535316E+03  0.20988723928E+03  0.62545427392E+03  0.87674243029E+03  0.00000000000E+00 0.  1.
        -13    1    3    3    0    0  0.14976254864E+00  0.27831048402E+01  0.17385054735E+02  0.17607050563E+02  0.00000000000E+00 0. -1.
          4    1    6    6  502    0 -0.17811274327E+03 -0.14550680266E+02 -0.32999573105E+02  0.18172738769E+03  0.00000000000E+00 0. -1.
          3    1    5    5  503    0  0.80042741388E+03 -0.24410393910E+03  0.11918701356E+03  0.84526701236E+03  0.00000000000E+00 0. -1.
         -4    1    5    5    0  503  0.69128684967E+01  0.49354979552E+01  0.39332590921E+01  0.93604176191E+01  0.00000000000E+00 0.  1.
         -3    1    6    6    0  502 -0.51941948491E+02  0.41048777292E+02 -0.48821703387E+01  0.66383760947E+02  0.00000000000E+00 0.  1.
<mgrwt>
<rscale>  0 0.18596407E+04</rscale>
<asrwt>0</asrwt>
<pdfrwt beam="1">  1        2 0.20962815E+00 0.18596407E+04</pdfrwt>
<pdfrwt beam="2">  1       -2 0.97616170E-01 0.18596407E+04</pdfrwt>
<totfact> 0.12494652E+01</totfact>
</mgrwt>
</event>
<event>
12    1  0.1598876E-007  0.1462521E+04  0.7818608E-02  0.8909766E-01
         -1   -1    0    0    0  501 -0.00000000000E+00  0.00000000000E+00  0.18499091218E+03  0.18499091218E+03  0.00000000000E+00 0.  1.
          1   -1    0    0  501    0  0.00000000000E+00 -0.00000000000E+00 -0.28906402333E+04  0.28906402333E+04  0.00000000000E+00 0. -1.
         23    2    1    2    0    0  0.60037075578E+02 -0.13009459679E+03 -0.16767581652E+04  0.16853737964E+04  0.91857686145E+02 0.  0.
        254    2    1    2    0    0 -0.60037075578E+02  0.13009459679E+03 -0.10288911558E+04  0.13902573490E+04  0.92394233116E+03 0.  0.
        -24    2    4    4    0    0 -0.39607117844E+02  0.52201994816E+03 -0.51545197109E+03  0.73896754134E+03  0.79427593324E+02 0.  0.
         24    2    4    4    0    0 -0.20429957733E+02 -0.39192535138E+03 -0.51343918474E+03  0.65128980765E+03  0.80844003506E+02 0.  0.
         13    1    3    3    0    0  0.24196850509E+02 -0.12758371689E+03 -0.14480260202E+04  0.14538371462E+04  0.00000000000E+00 0. -1.
        -13    1    3    3    0    0  0.35840225069E+02 -0.25108798942E+01 -0.22873214501E+03  0.23153665026E+03  0.00000000000E+00 0.  1.
          4    1    6    6  502    0 -0.13309176358E+02 -0.22305696934E+03 -0.35591439085E+03  0.42024587965E+03  0.00000000000E+00 0. -1.
          1    1    5    5  503    0 -0.21785664492E+02  0.86882549712E+02 -0.12690149390E+03  0.15532926890E+03  0.00000000000E+00 0. -1.
         -2    1    5    5    0  503 -0.17821453352E+02  0.43513739845E+03 -0.38855047720E+03  0.58363827244E+03  0.00000000000E+00 0.  1.
         -3    1    6    6    0  502 -0.71207813752E+01 -0.16886838203E+03 -0.15752479389E+03  0.23104392800E+03  0.00000000000E+00 0.  1.
<mgrwt>
<rscale>  0 0.14625213E+04</rscale>
<asrwt>0</asrwt>
<pdfrwt beam="1">  1        1 0.44471387E+00 0.14625213E+04</pdfrwt>
<pdfrwt beam="2">  1       -1 0.28460141E-01 0.14625213E+04</pdfrwt>
<totfact> 0.78366349E+00</totfact>
</mgrwt>
</event>
<event>
12    1  0.1598876E-007  0.3491566E+04  0.7818608E-02  0.8115792E-01
          2   -1    0    0  501    0  0.00000000000E+00  0.00000000000E+00  0.39955070460E+04  0.39955070460E+04  0.00000000000E+00 0. -1.
         -2   -1    0    0    0  501 -0.00000000000E+00 -0.00000000000E+00 -0.76279642147E+03  0.76279642147E+03  0.00000000000E+00 0.  1.
         23    2    1    2    0    0  0.62899927232E+03 -0.11629037755E+03  0.35535246935E+04  0.36115710444E+04  0.82122622100E+02 0.  0.
        254    2    1    2    0    0 -0.62899927232E+03  0.11629037755E+03 -0.32081406900E+03  0.11467324230E+04  0.89605247986E+03 0.  0.
        -24    2    4    4    0    0 -0.31675228317E+03 -0.28285944135E+03  0.14263453975E+03  0.45548704382E+03  0.82355101286E+02 0.  0.
         24    2    4    4    0    0 -0.31224698914E+03  0.39914981890E+03 -0.46344860874E+03  0.69124537920E+03  0.78846694027E+02 0.  0.
         13    1    3    3    0    0  0.57908693906E+03 -0.12085187838E+03  0.31630130285E+04  0.32178561617E+04  0.00000000000E+00 0. -1.
        -13    1    3    3    0    0  0.49912333259E+02  0.45615008256E+01  0.39051166507E+03  0.39371488269E+03  0.00000000000E+00 0.  1.
          4    1    6    6  502    0 -0.17020068628E+03  0.16883367587E+03 -0.25212618940E+03  0.34790903854E+03  0.00000000000E+00 0. -1.
          3    1    5    5  503    0 -0.79822790011E+02 -0.31198748198E+02  0.14852416803E+02  0.86980652902E+02  0.00000000000E+00 0. -1.
         -4    1    5    5    0  503 -0.23692949316E+03 -0.25166069315E+03  0.12778212294E+03  0.36850639092E+03  0.00000000000E+00 0.  1.
         -3    1    6    6    0  502 -0.14204630286E+03  0.23031614303E+03 -0.21132241935E+03  0.34333634066E+03  0.00000000000E+00 0.  1.
<mgrwt>
<rscale>  0 0.34915661E+04</rscale>
<asrwt>0</asrwt>
<pdfrwt beam="1">  1        2 0.61469338E+00 0.34915661E+04</pdfrwt>
<pdfrwt beam="2">  1       -2 0.11735330E+00 0.34915661E+04</pdfrwt>
<totfact> 0.15875976E-01</totfact>
</mgrwt>
</event>
<event>
12    1  0.1598876E-007  0.1567285E+04  0.7818608E-02  0.8840902E-01
          3   -1    0    0  501    0  0.00000000000E+00  0.00000000000E+00  0.18613399191E+04  0.18613399191E+04  0.00000000000E+00 0. -1.
         -3   -1    0    0    0  501 -0.00000000000E+00 -0.00000000000E+00 -0.32992114364E+03  0.32992114364E+03  0.00000000000E+00 0.  1.
         23    2    1    2    0    0 -0.44245710184E+01 -0.96431807917E+02  0.12362053868E+04  0.12435318068E+04  0.94068728246E+02 0.  0.
        254    2    1    2    0    0  0.44245710184E+01  0.96431807917E+02  0.29521338861E+03  0.94772925595E+03  0.89538881351E+03 0.  0.
        -24    2    4    4    0    0 -0.34055864866E+03  0.26066582803E+03 -0.33305795972E+02  0.43767580866E+03  0.80771098570E+02 0.  0.
         24    2    4    4    0    0  0.34498321968E+03 -0.16423402011E+03  0.32851918459E+03  0.51005344729E+03  0.79015373402E+02 0.  0.
         11    1    3    3    0    0 -0.11948887268E+02 -0.80070279636E+02  0.45679917443E+03  0.46391756956E+03  0.00000000000E+00 0.  1.
        -11    1    3    3    0    0  0.75243162495E+01 -0.16361528280E+02  0.77940621239E+03  0.77961423721E+03  0.00000000000E+00 0. -1.
          2    1    6    6  502    0  0.32588721940E+03 -0.15361214919E+03  0.27817258431E+03  0.45516937375E+03  0.00000000000E+00 0. -1.
          3    1    5    5  503    0 -0.23324783136E+03  0.16562952888E+03  0.14852860056E+02  0.28645819786E+03  0.00000000000E+00 0. -1.
         -4    1    5    5    0  503 -0.10731081730E+03  0.95036299155E+02 -0.48158656028E+02  0.15121761080E+03  0.00000000000E+00 0.  1.
         -1    1    6    6    0  502  0.19096000279E+02 -0.10621870928E+02  0.50346600277E+02  0.54884073538E+02  0.00000000000E+00 0.  1.
<mgrwt>
<rscale>  0 0.15672848E+04</rscale>
<asrwt>0</asrwt>
<pdfrwt beam="1">  1        3 0.28635998E+00 0.15672848E+04</pdfrwt>
<pdfrwt beam="2">  1       -3 0.50757100E-01 0.15672848E+04</pdfrwt>
<totfact> 0.44734310E-01</totfact>
</mgrwt>
</event>
<event>
12    1  0.1598876E-007  0.1200725E+04  0.7818608E-02  0.9112222E-01
         -1   -1    0    0    0  501 -0.00000000000E+00  0.00000000000E+00  0.50868507179E+03  0.50868507179E+03  0.00000000000E+00 0.  1.
          1   -1    0    0  501    0  0.00000000000E+00 -0.00000000000E+00 -0.70856222334E+03  0.70856222334E+03  0.00000000000E+00 0. -1.
         23    2    1    2    0    0 -0.25013982598E+03 -0.27138712404E+01 -0.82005496344E+02  0.27804372610E+03  0.89476893963E+02 0.  0.
        254    2    1    2    0    0  0.25013982598E+03  0.27138712404E+01 -0.11787165521E+03  0.93920356903E+03  0.89757023087E+03 0.  0.
        -24    2    4    4    0    0  0.20368784979E+03  0.39639363726E+03 -0.24533281757E+03  0.51476931569E+03  0.78629518540E+02 0.  0.
         24    2    4    4    0    0  0.46451976188E+02 -0.39367976602E+03  0.12746116236E+03  0.42443425334E+03  0.82198194828E+02 0.  0.
         11    1    3    3    0    0 -0.33838140966E+02  0.32037475944E+02 -0.14041292368E+02  0.48668034070E+02  0.00000000000E+00 0.  1.
        -11    1    3    3    0    0 -0.21630168501E+03 -0.34751347184E+02 -0.67964203976E+02  0.22937569203E+03  0.00000000000E+00 0. -1.
          4    1    6    6  502    0  0.16961427539E+02 -0.39314796784E+02  0.39206357026E+02  0.58055849848E+02  0.00000000000E+00 0. -1.
          3    1    5    5  503    0  0.47592260106E+02  0.74966337247E+02 -0.16126885175E+02  0.90249938325E+02  0.00000000000E+00 0. -1.
         -4    1    5    5    0  503  0.15609558968E+03  0.32142730002E+03 -0.22920593240E+03  0.42451937737E+03  0.00000000000E+00 0.  1.
         -3    1    6    6    0  502  0.29490548648E+02 -0.35436496924E+03  0.88254805339E+02  0.36637840349E+03  0.00000000000E+00 0.  1.
<mgrwt>
<rscale>  0 0.12007248E+04</rscale>
<asrwt>0</asrwt>
<pdfrwt beam="1">  1        1 0.10900957E+00 0.12007248E+04</pdfrwt>
<pdfrwt beam="2">  1       -1 0.78259242E-01 0.12007248E+04</pdfrwt>
<totfact> 0.43282955E+01</totfact>
</mgrwt>
</event>
<event>
12    1  0.1598876E-007  0.1546805E+04  0.7818608E-02  0.8853911E-01
          2   -1    0    0  501    0  0.00000000000E+00  0.00000000000E+00  0.12320346791E+04  0.12320346791E+04  0.00000000000E+00 0. -1.
         -2   -1    0    0    0  501 -0.00000000000E+00 -0.00000000000E+00 -0.48549860756E+03  0.48549860756E+03  0.00000000000E+00 0.  1.
         23    2    1    2    0    0 -0.22771163562E+02 -0.48989590448E+03  0.36016570754E+03  0.61638637678E+03  0.98469820094E+02 0.  0.
        254    2    1    2    0    0  0.22771163562E+02  0.48989590448E+03  0.38637036398E+03  0.11011469099E+04  0.90704241126E+03 0.  0.
        -24    2    4    4    0    0  0.16947429781E+03  0.55730923150E+03  0.58744660643E+03  0.83153002600E+03  0.83866272102E+02 0.  0.
         24    2    4    4    0    0 -0.14670313424E+03 -0.67413327017E+02 -0.20107624245E+03  0.26961688386E+03  0.78709862983E+02 0.  0.
         11    1    3    3    0    0  0.35549766648E+02 -0.11122220131E+03  0.93410116595E+02  0.14953131396E+03  0.00000000000E+00 0.  1.
        -11    1    3    3    0    0 -0.58320930210E+02 -0.37867370318E+03  0.26675559095E+03  0.46685506282E+03  0.00000000000E+00 0. -1.
          2    1    6    6  502    0 -0.13403326325E+03 -0.68899361863E+02 -0.13502713580E+03  0.20234714015E+03  0.00000000000E+00 0. -1.
          1    1    5    5  503    0  0.16910504837E+03  0.47098501905E+03  0.47690914126E+03  0.69127833365E+03  0.00000000000E+00 0. -1.
         -2    1    5    5    0  503  0.36924943271E+00  0.86324212449E+02  0.11053746517E+03  0.14025169235E+03  0.00000000000E+00 0.  1.
         -1    1    6    6    0  502 -0.12669870991E+02  0.14860348453E+01 -0.66049106653E+02  0.67269743719E+02  0.00000000000E+00 0.  1.
<mgrwt>
<rscale>  0 0.15468046E+04</rscale>
<asrwt>0</asrwt>
<pdfrwt beam="1">  1        2 0.18954380E+00 0.15468046E+04</pdfrwt>
<pdfrwt beam="2">  1       -2 0.74692094E-01 0.15468046E+04</pdfrwt>
<totfact> 0.28125658E+01</totfact>
</mgrwt>
</event>
<event>
12    1  0.1598876E-007  0.1439737E+04  0.7818608E-02  0.8925547E-01
          2   -1    0    0  501    0  0.00000000000E+00  0.00000000000E+00  0.27729747939E+04  0.27729747939E+04  0.00000000000E+00 0. -1.
         -2   -1    0    0    0  501 -0.00000000000E+00 -0.00000000000E+00 -0.18687901906E+03  0.18687901906E+03  0.00000000000E+00 0.  1.
         23    2    1    2    0    0  0.38366508596E+03  0.14236744732E+03  0.10973306828E+04  0.11744954928E+04  0.88530486402E+02 0.  0.
        254    2    1    2    0    0 -0.38366508596E+03 -0.14236744732E+03  0.14887650921E+04  0.17853583202E+04  0.89644600719E+03 0.  0.
        -24    2    4    4    0    0 -0.36194879398E+03  0.76333265450E+02  0.15034892717E+04  0.15503137399E+04  0.78479329708E+02 0.  0.
         24    2    4    4    0    0 -0.21716291982E+02 -0.21870071277E+03 -0.14724179639E+02  0.23504458024E+03  0.82021668673E+02 0.  0.
         13    1    3    3    0    0  0.34471672452E+02  0.40773204308E+02  0.17840874538E+03  0.18622682626E+03  0.00000000000E+00 0.  1.
        -13    1    3    3    0    0  0.34919341350E+03  0.10159424301E+03  0.91892193739E+03  0.98826866654E+03  0.00000000000E+00 0. -1.
          2    1    6    6  502    0 -0.47449976726E+02 -0.18557702880E+03 -0.20753619166E+02  0.19266822939E+03  0.00000000000E+00 0. -1.
          1    1    5    5  503    0 -0.94800307727E+02 -0.30402660265E+01  0.49610171340E+03  0.50508737027E+03  0.00000000000E+00 0. -1.
         -2    1    5    5    0  503 -0.26714848625E+03  0.79373531477E+02  0.10073875583E+04  0.10452263697E+04  0.00000000000E+00 0.  1.
         -1    1    6    6    0  502  0.25733684744E+02 -0.33123683972E+02  0.60294395271E+01  0.42376350850E+02  0.00000000000E+00 0.  1.
<mgrwt>
<rscale>  0 0.14397372E+04</rscale>
<asrwt>0</asrwt>
<pdfrwt beam="1">  1        2 0.42661148E+00 0.14397372E+04</pdfrwt>
<pdfrwt beam="2">  1       -2 0.28750620E-01 0.14397372E+04</pdfrwt>
<totfact> 0.26014877E+01</totfact>
</mgrwt>
</event>
<event>
12    1  0.1756071E-007  0.2500689E+04  0.7818608E-02  0.8402740E-01
          2   -1    0    0  501    0  0.00000000000E+00  0.00000000000E+00  0.22642122321E+04  0.22642122321E+04  0.00000000000E+00 0. -1.
         -2   -1    0    0    0  501 -0.00000000000E+00 -0.00000000000E+00 -0.69046584269E+03  0.69046584269E+03  0.00000000000E+00 0.  1.
         23    2    1    2    0    0 -0.81959694827E+03 -0.68809661231E+03  0.47041685504E+03  0.11744047993E+04  0.11277636988E+03 0.  0.
        254    2    1    2    0    0  0.81959694827E+03  0.68809661231E+03  0.11033295343E+04  0.17802732755E+04  0.89823202377E+03 0.  0.
        -24    2    4    4    0    0  0.32823630272E+03  0.74864137997E+01  0.82617041006E+03  0.89267924085E+03  0.80768581547E+02 0.  0.
         24    2    4    4    0    0  0.49136064554E+03  0.68061019851E+03  0.27715912428E+03  0.88759403462E+03  0.79627029408E+02 0.  0.
         13    1    3    3    0    0 -0.35503567199E+01 -0.12915876277E+02  0.18573844883E+02  0.22900056912E+02  0.00000000000E+00 0.  1.
        -13    1    3    3    0    0 -0.81604659155E+03 -0.67518073603E+03  0.45184301016E+03  0.11515047424E+04  0.00000000000E+00 0. -1.
          2    1    6    6  502    0  0.46799135508E+03  0.64573893735E+03  0.24365168157E+03  0.83388298074E+03  0.00000000000E+00 0. -1.
          3    1    5    5  503    0  0.25147887262E+03 -0.13401749447E+02  0.69560977888E+03  0.73979334597E+03  0.00000000000E+00 0. -1.
         -4    1    5    5    0  503  0.76757430099E+02  0.20888163247E+02  0.13056063118E+03  0.15288589488E+03  0.00000000000E+00 0.  1.
         -1    1    6    6    0  502  0.23369290467E+02  0.34871261160E+02  0.33507442706E+02  0.53711053876E+02  0.00000000000E+00 0.  1.
<mgrwt>
<rscale>  0 0.25006889E+04</rscale>
<asrwt>0</asrwt>
<pdfrwt beam="1">  1        2 0.34834034E+00 0.25006889E+04</pdfrwt>
<pdfrwt beam="2">  1       -2 0.10622552E+00 0.25006889E+04</pdfrwt>
<totfact> 0.30280406E+00</totfact>
</mgrwt>
</event>
<event>
12    1  0.1598876E-007  0.2025250E+04  0.7818608E-02  0.8594905E-01
         -2   -1    0    0    0  501 -0.00000000000E+00  0.00000000000E+00  0.47150549100E+03  0.47150549100E+03  0.00000000000E+00 0.  1.
          2   -1    0    0  501    0  0.00000000000E+00 -0.00000000000E+00 -0.21747567464E+04  0.21747567464E+04  0.00000000000E+00 0. -1.
         23    2    1    2    0    0  0.55556874685E+03 -0.29283938666E+03 -0.13555210253E+04  0.14968154871E+04  0.92778303138E+02 0.  0.
        254    2    1    2    0    0 -0.55556874685E+03  0.29283938666E+03 -0.34773023009E+03  0.11494467503E+04  0.89771932138E+03 0.  0.
        -24    2    4    4    0    0 -0.18863441427E+03 -0.14277577992E+03  0.22596387811E+03  0.33672740339E+03  0.79735841402E+02 0.  0.
         24    2    4    4    0    0 -0.36693433258E+03  0.43561516658E+03 -0.57369410819E+03  0.81271934690E+03  0.83584862699E+02 0.  0.
         11    1    3    3    0    0  0.90341274618E+02 -0.76111468389E+02 -0.31947430908E+03  0.34061464396E+03  0.00000000000E+00 0.  1.
        -11    1    3    3    0    0  0.46522747224E+03 -0.21672791827E+03 -0.10360467162E+04  0.11562008431E+04  0.00000000000E+00 0. -1.
          4    1    6    6  502    0 -0.20149398829E+03  0.28307472721E+03 -0.38911582153E+03  0.52167255157E+03  0.00000000000E+00 0. -1.
          1    1    5    5  503    0 -0.17000450782E+03 -0.89253159912E+02  0.18644737036E+03  0.26763834020E+03  0.00000000000E+00 0. -1.
         -2    1    5    5    0  503 -0.18629906453E+02 -0.53522620011E+02  0.39516507745E+02  0.69089063184E+02  0.00000000000E+00 0.  1.
         -3    1    6    6    0  502 -0.16544034430E+03  0.15254043937E+03 -0.18457828667E+03  0.29104679533E+03  0.00000000000E+00 0.  1.
<mgrwt>
<rscale>  0 0.20252504E+04</rscale>
<asrwt>0</asrwt>
<pdfrwt beam="1">  1        2 0.33457796E+00 0.20252504E+04</pdfrwt>
<pdfrwt beam="2">  1       -2 0.72539307E-01 0.20252504E+04</pdfrwt>
<totfact> 0.85037466E+00</totfact>
</mgrwt>
</event>
<event>
12    1  0.1598876E-007  0.1517367E+04  0.7818608E-02  0.8872985E-01
         -2   -1    0    0    0  501 -0.00000000000E+00  0.00000000000E+00  0.46405225834E+03  0.46405225834E+03  0.00000000000E+00 0.  1.
          2   -1    0    0  501    0  0.00000000000E+00 -0.00000000000E+00 -0.12403796603E+04  0.12403796603E+04  0.00000000000E+00 0. -1.
         23    2    1    2    0    0  0.23470445413E+03  0.42825093762E+03 -0.17717949861E+03  0.52740838706E+03  0.91005415547E+02 0.  0.
        254    2    1    2    0    0 -0.23470445413E+03 -0.42825093762E+03 -0.59914790336E+03  0.11770235316E+04  0.88764921982E+03 0.  0.
        -24    2    4    4    0    0  0.73461330920E+02 -0.48280155403E+03 -0.68225044001E+03  0.84341099758E+03  0.85921709863E+02 0.  0.
         24    2    4    4    0    0 -0.30816578505E+03  0.54550616411E+02  0.83102536658E+02  0.33361253401E+03  0.80307972345E+02 0.  0.
         11    1    3    3    0    0  0.10627801927E+03  0.23778066408E+03 -0.51288973123E+02  0.26545285901E+03  0.00000000000E+00 0.  1.
        -11    1    3    3    0    0  0.12842643486E+03  0.19047027353E+03 -0.12589052549E+03  0.26195552806E+03  0.00000000000E+00 0. -1.
          4    1    6    6  502    0 -0.15635238100E+03 -0.12993565334E+02  0.43107945304E+02  0.16270585340E+03  0.00000000000E+00 0. -1.
          1    1    5    5  503    0  0.68222111144E+02 -0.22737123977E+03 -0.28254241284E+03  0.36902866037E+03  0.00000000000E+00 0. -1.
         -2    1    5    5    0  503  0.52392197767E+01 -0.25543031426E+03 -0.39970802717E+03  0.47438233720E+03  0.00000000000E+00 0.  1.
         -1    1    6    6    0  502 -0.15181340405E+03  0.67544181744E+02  0.39994591354E+02  0.17090668060E+03  0.00000000000E+00 0.  1.
<mgrwt>
<rscale>  0 0.15173674E+04</rscale>
<asrwt>0</asrwt>
<pdfrwt beam="1">  1        2 0.19082764E+00 0.15173674E+04</pdfrwt>
<pdfrwt beam="2">  1       -2 0.71392657E-01 0.15173674E+04</pdfrwt>
<totfact> 0.30789509E+01</totfact>
</mgrwt>
</event>
<event>
12    1  0.1598876E-007  0.1850563E+04  0.7818608E-02  0.8679863E-01
         -2   -1    0    0    0  501 -0.00000000000E+00  0.00000000000E+00  0.15850900352E+04  0.15850900352E+04  0.00000000000E+00 0.  1.
          2   -1    0    0  501    0  0.00000000000E+00 -0.00000000000E+00 -0.54012454394E+03  0.54012454394E+03  0.00000000000E+00 0. -1.
         23    2    1    2    0    0 -0.64322514247E+03 -0.27933629603E+03  0.25790132727E+03  0.75284262509E+03  0.92149733327E+02 0.  0.
        254    2    1    2    0    0  0.64322514247E+03  0.27933629603E+03  0.78706416403E+03  0.13723719541E+04  0.87873057981E+03 0.  0.
        -24    2    4    4    0    0  0.84049820843E+02  0.13514819252E+03  0.76942992546E+03  0.78929371502E+03  0.75051662488E+02 0.  0.
         24    2    4    4    0    0  0.55917532163E+03  0.14418810351E+03  0.17634238562E+02  0.58307823907E+03  0.78752885662E+02 0.  0.
         13    1    3    3    0    0 -0.11276894102E+03 -0.64447766600E+02  0.83981003426E+02  0.15467112728E+03  0.00000000000E+00 0. -1.
        -13    1    3    3    0    0 -0.53045620145E+03 -0.21488852943E+03  0.17392032385E+03  0.59817149781E+03  0.00000000000E+00 0.  1.
          4    1    6    6  502    0  0.47950589157E+03  0.15119598471E+03  0.12429749199E+02  0.50293202772E+03  0.00000000000E+00 0. -1.
          1    1    5    5  503    0  0.39520083089E+02  0.37316033519E+02  0.42551239326E+03  0.42896983594E+03  0.00000000000E+00 0. -1.
         -4    1    5    5    0  503  0.44529737755E+02  0.97832159004E+02  0.34391753220E+03  0.36032387908E+03  0.00000000000E+00 0.  1.
         -3    1    6    6    0  502  0.79669430063E+02 -0.70078811985E+01  0.52044893621E+01  0.80146211357E+02  0.00000000000E+00 0.  1.
<mgrwt>
<rscale>  0 0.18505632E+04</rscale>
<asrwt>0</asrwt>
<pdfrwt beam="1">  1        2 0.83096084E-01 0.18505632E+04</pdfrwt>
<pdfrwt beam="2">  1       -2 0.24386000E+00 0.18505632E+04</pdfrwt>
<totfact> 0.37070743E+00</totfact>
</mgrwt>
</event>
<event>
12    1  0.1598876E-007  0.1550031E+04  0.7818608E-02  0.8851848E-01
          1   -1    0    0  501    0  0.00000000000E+00  0.00000000000E+00  0.37836371104E+04  0.37836371104E+04  0.00000000000E+00 0. -1.
         -1   -1    0    0    0  501 -0.00000000000E+00 -0.00000000000E+00 -0.15874901009E+03  0.15874901009E+03  0.00000000000E+00 0.  1.
         23    2    1    2    0    0  0.35934237839E+03  0.26076232779E+03  0.18411655694E+04  0.18961571337E+04  0.91636703778E+02 0.  0.
        254    2    1    2    0    0 -0.35934237839E+03 -0.26076232779E+03  0.17837225309E+04  0.20462289868E+04  0.89903451679E+03 0.  0.
        -24    2    4    4    0    0  0.15210070735E+02 -0.13352853633E+02  0.15147355367E+04  0.15169664597E+04  0.79711033185E+02 0.  0.
         24    2    4    4    0    0 -0.37455244912E+03 -0.24740947416E+03  0.26898699422E+03  0.52926252703E+03  0.79144389621E+02 0.  0.
         13    1    3    3    0    0  0.47173337329E+02  0.14175730404E+02  0.12207082791E+03  0.13163419812E+03  0.00000000000E+00 0.  1.
        -13    1    3    3    0    0  0.31216904106E+03  0.24658659739E+03  0.17190947414E+04  0.17645229356E+04  0.00000000000E+00 0. -1.
          4    1    6    6  502    0 -0.57737486820E+02 -0.18803984500E+02  0.12746203433E+02  0.62045732483E+02  0.00000000000E+00 0. -1.
          3    1    5    5  503    0 -0.85809619661E+01  0.12328152030E+02  0.61442782105E+02  0.63252128134E+02  0.00000000000E+00 0. -1.
         -4    1    5    5    0  503  0.23791032701E+02 -0.25681005663E+02  0.14532927546E+04  0.14537143316E+04  0.00000000000E+00 0.  1.
         -3    1    6    6    0  502 -0.31681496230E+03 -0.22860548966E+03  0.25624079079E+03  0.46721679455E+03  0.00000000000E+00 0.  1.
<mgrwt>
<rscale>  0 0.15500305E+04</rscale>
<asrwt>0</asrwt>
<pdfrwt beam="1">  1        1 0.58209795E+00 0.15500305E+04</pdfrwt>
<pdfrwt beam="2">  1       -1 0.24422928E-01 0.15500305E+04</pdfrwt>
<totfact> 0.20962117E+00</totfact>
</mgrwt>
</event>
<event>
12    1  0.1598876E-007  0.1576945E+04  0.7818608E-02  0.8834838E-01
         -2   -1    0    0    0  501 -0.00000000000E+00  0.00000000000E+00  0.26117200334E+04  0.26117200334E+04  0.00000000000E+00 0.  1.
          2   -1    0    0  501    0  0.00000000000E+00 -0.00000000000E+00 -0.23803806514E+03  0.23803806514E+03  0.00000000000E+00 0. -1.
         23    2    1    2    0    0 -0.10787015833E+03 -0.50703048039E+03  0.54252409738E+03  0.75592984059E+03  0.91551343818E+02 0.  0.
        254    2    1    2    0    0  0.10787015833E+03  0.50703048039E+03  0.18311578709E+04  0.20938282580E+04  0.87307602565E+03 0.  0.
        -24    2    4    4    0    0 -0.97728397033E+02  0.39913466458E+02  0.14399768279E+04  0.14459666950E+04  0.78374062016E+02 0.  0.
         24    2    4    4    0    0  0.20559855537E+03  0.46711701393E+03  0.39118104300E+03  0.64786156302E+03  0.78948880681E+02 0.  0.
         13    1    3    3    0    0 -0.40883393108E+02 -0.51406087856E+02  0.61034767277E+02  0.89662034983E+02  0.00000000000E+00 0. -1.
        -13    1    3    3    0    0 -0.66986765224E+02 -0.45562439254E+03  0.48148933010E+03  0.66626780561E+03  0.00000000000E+00 0.  1.
          2    1    6    6  502    0  0.34050548508E+02  0.15724336637E+03  0.10083250270E+03  0.18987393113E+03  0.00000000000E+00 0. -1.
          1    1    5    5  503    0 -0.17855961768E+02 -0.17461399093E+02  0.55120352545E+03  0.55176902984E+03  0.00000000000E+00 0. -1.
         -2    1    5    5    0  503 -0.79872435265E+02  0.57374865551E+02  0.88877330246E+03  0.89419766511E+03  0.00000000000E+00 0.  1.
         -1    1    6    6    0  502  0.17154800686E+03  0.30987364756E+03  0.29034854030E+03  0.45798763189E+03  0.00000000000E+00 0.  1.
<mgrwt>
<rscale>  0 0.15769449E+04</rscale>
<asrwt>0</asrwt>
<pdfrwt beam="1">  1        2 0.36621243E-01 0.15769449E+04</pdfrwt>
<pdfrwt beam="2">  1       -2 0.40180306E+00 0.15769449E+04</pdfrwt>
<totfact> 0.99461597E-01</totfact>
</mgrwt>
</event>
<event>
12    1  0.1598876E-007  0.2400783E+04  0.7818608E-02  0.8439210E-01
          2   -1    0    0  501    0  0.00000000000E+00  0.00000000000E+00  0.17184044849E+04  0.17184044849E+04  0.00000000000E+00 0. -1.
         -2   -1    0    0    0  501 -0.00000000000E+00 -0.00000000000E+00 -0.83853347556E+03  0.83853347556E+03  0.00000000000E+00 0.  1.
         23    2    1    2    0    0  0.97225852503E+03  0.26469549559E+03  0.59102980929E+03  0.11717367321E+04  0.91106471358E+02 0.  0.
        254    2    1    2    0    0 -0.97225852503E+03 -0.26469549559E+03  0.28884120009E+03  0.13852012284E+04  0.90554009259E+03 0.  0.
        -24    2    4    4    0    0 -0.85850716677E+03 -0.38746480167E+03 -0.10404182641E+03  0.95100668680E+03  0.80159146492E+02 0.  0.
         24    2    4    4    0    0 -0.11375135826E+03  0.12276930608E+03  0.39288302650E+03  0.43419454156E+03  0.78461158427E+02 0.  0.
         11    1    3    3    0    0  0.73435977577E+03  0.21455370154E+03  0.48955075212E+03  0.90828272582E+03  0.00000000000E+00 0.  1.
        -11    1    3    3    0    0  0.23789874925E+03  0.50141794048E+02  0.10147905717E+03  0.26345400633E+03  0.00000000000E+00 0. -1.
          4    1    6    6  502    0 -0.10159970625E+03  0.11377693136E+03  0.39004797726E+03  0.41881393839E+03  0.00000000000E+00 0. -1.
          3    1    5    5  503    0 -0.83807489746E+03 -0.38358202940E+03 -0.11255694392E+03  0.92853312954E+03  0.00000000000E+00 0. -1.
         -4    1    5    5    0  503 -0.20432269311E+02 -0.38827722686E+01  0.85151175082E+01  0.22473557259E+02  0.00000000000E+00 0.  1.
         -3    1    6    6    0  502 -0.12151652009E+02  0.89923747152E+01  0.28350492376E+01  0.15380603166E+02  0.00000000000E+00 0.  1.
<mgrwt>
<rscale>  0 0.24007829E+04</rscale>
<asrwt>0</asrwt>
<pdfrwt beam="1">  1        2 0.26436992E+00 0.24007829E+04</pdfrwt>
<pdfrwt beam="2">  1       -2 0.12900515E+00 0.24007829E+04</pdfrwt>
<totfact> 0.38144234E+00</totfact>
</mgrwt>
</event>
<event>
12    1  0.1598876E-007  0.1194881E+04  0.7818608E-02  0.9117349E-01
         -2   -1    0    0    0  501 -0.00000000000E+00  0.00000000000E+00  0.87306160243E+03  0.87306160243E+03  0.00000000000E+00 0.  1.
          2   -1    0    0  501    0  0.00000000000E+00 -0.00000000000E+00 -0.40883189375E+03  0.40883189375E+03  0.00000000000E+00 0. -1.
         23    2    1    2    0    0  0.16575154770E+03  0.10928496940E+03  0.26428547870E+03  0.34350669240E+03  0.93451877298E+02 0.  0.
        254    2    1    2    0    0 -0.16575154770E+03 -0.10928496940E+03  0.19994422998E+03  0.93838680378E+03  0.89508397277E+03 0.  0.
        -24    2    4    4    0    0  0.96837649845E+02 -0.38322104981E+03 -0.13558823695E+03  0.42556322663E+03  0.80523204217E+02 0.  0.
         24    2    4    4    0    0 -0.26258919754E+03  0.27393608040E+03  0.33553246693E+03  0.51282357715E+03  0.80074478470E+02 0.  0.
         11    1    3    3    0    0  0.30338737803E+02  0.45979699550E+02  0.23053739249E+02  0.59716385319E+02  0.00000000000E+00 0. -1.
        -11    1    3    3    0    0  0.13541280989E+03  0.63305269854E+02  0.24123173945E+03  0.28379030708E+03  0.00000000000E+00 0.  1.
          2    1    6    6  502    0 -0.68385651378E+02  0.12117224600E+03  0.14359355335E+03  0.19994604042E+03  0.00000000000E+00 0. -1.
          1    1    5    5  503    0  0.35607787487E+02 -0.37619121477E+02 -0.97881561224E+01  0.52715470506E+02  0.00000000000E+00 0. -1.
         -2    1    5    5    0  503  0.61229862358E+02 -0.34560192833E+03 -0.12580008083E+03  0.37284775612E+03  0.00000000000E+00 0.  1.
         -1    1    6    6    0  502 -0.19420354616E+03  0.15276383441E+03  0.19193891358E+03  0.31287753673E+03  0.00000000000E+00 0.  1.
<mgrwt>
<rscale>  0 0.11948815E+04</rscale>
<asrwt>0</asrwt>
<pdfrwt beam="1">  1        2 0.62897215E-01 0.11948815E+04</pdfrwt>
<pdfrwt beam="2">  1       -2 0.13431717E+00 0.11948815E+04</pdfrwt>
<totfact> 0.30581048E+01</totfact>
</mgrwt>
</event>
<event>
12    1  0.1598876E-007  0.3799692E+04  0.7818608E-02  0.8046221E-01
         -1   -1    0    0    0  501 -0.00000000000E+00  0.00000000000E+00  0.22499412373E+04  0.22499412373E+04  0.00000000000E+00 0.  1.
          1   -1    0    0  501    0  0.00000000000E+00 -0.00000000000E+00 -0.16042264952E+04  0.16042264952E+04  0.00000000000E+00 0. -1.
         23    2    1    2    0    0  0.11123811495E+04  0.50730320287E+03 -0.10247701382E+04  0.15977004740E+04  0.88003448978E+02 0.  0.
        254    2    1    2    0    0 -0.11123811495E+04 -0.50730320287E+03  0.16704848803E+04  0.22564672585E+04  0.89798462772E+03 0.  0.
        -24    2    4    4    0    0 -0.11359103231E+04 -0.27992397312E+03  0.16337637082E+04  0.20110575431E+04  0.80739670829E+02 0.  0.
         24    2    4    4    0    0  0.23529173548E+02 -0.22737922974E+03  0.36721172101E+02  0.24540971538E+03  0.81379037813E+02 0.  0.
         13    1    3    3    0    0  0.40249360711E+03  0.22721877012E+03 -0.40685865633E+03  0.61576248627E+03  0.00000000000E+00 0. -1.
        -13    1    3    3    0    0  0.70988754242E+03  0.28008443275E+03 -0.61791148190E+03  0.98193798777E+03  0.00000000000E+00 0.  1.
          4    1    6    6  502    0  0.69619317026E+00 -0.20170373424E+03  0.51235368177E+02  0.20811041311E+03  0.00000000000E+00 0. -1.
          3    1    5    5  503    0 -0.10249965340E+04 -0.27503723222E+03  0.14632192847E+04  0.18075602477E+04  0.00000000000E+00 0. -1.
         -4    1    5    5    0  503 -0.11091378909E+03 -0.48867409010E+01  0.17054442353E+03  0.20349729542E+03  0.00000000000E+00 0.  1.
         -3    1    6    6    0  502  0.22832980378E+02 -0.25675495505E+02 -0.14514196076E+02  0.37299302273E+02  0.00000000000E+00 0.  1.
<mgrwt>
<rscale>  0 0.37996923E+04</rscale>
<asrwt>0</asrwt>
<pdfrwt beam="1">  1        1 0.24680408E+00 0.37996923E+04</pdfrwt>
<pdfrwt beam="2">  1       -1 0.34614480E+00 0.37996923E+04</pdfrwt>
<totfact> 0.72650836E-02</totfact>
</mgrwt>
</event>
<event>
12    1  0.1598876E-007  0.1806961E+04  0.7818608E-02  0.8702607E-01
         -1   -1    0    0    0  501 -0.00000000000E+00  0.00000000000E+00  0.86638028880E+03  0.86638028880E+03  0.00000000000E+00 0.  1.
          1   -1    0    0  501    0  0.00000000000E+00 -0.00000000000E+00 -0.94216898278E+03  0.94216898278E+03  0.00000000000E+00 0. -1.
         23    2    1    2    0    0 -0.61565503590E+03 -0.27243447345E+03 -0.10762111670E+03  0.68792532588E+03  0.91691240974E+02 0.  0.
        254    2    1    2    0    0  0.61565503590E+03  0.27243447345E+03  0.31832422715E+02  0.11206239457E+04  0.89528378685E+03 0.  0.
        -24    2    4    4    0    0 -0.16736713801E+03  0.22380143612E+03  0.14388242849E+03  0.32396381396E+03  0.78431867466E+02 0.  0.
         24    2    4    4    0    0  0.78302217391E+03  0.48633037332E+02 -0.11205000578E+03  0.79666013174E+03  0.81383441587E+02 0.  0.
         13    1    3    3    0    0 -0.60634589224E+03 -0.25208067766E+03 -0.10832257511E+03  0.66553271096E+03  0.00000000000E+00 0. -1.
        -13    1    3    3    0    0 -0.93091436660E+01 -0.20353795794E+02  0.70145841441E+00  0.22392614919E+02  0.00000000000E+00 0.  1.
          4    1    6    6  502    0  0.66587065500E+03  0.12759250760E+02 -0.87692768992E+02  0.67174143047E+03  0.00000000000E+00 0. -1.
          1    1    5    5  503    0 -0.83017401270E+02  0.55079137309E+02  0.68100024992E+02  0.12067814087E+03  0.00000000000E+00 0. -1.
         -2    1    5    5    0  503 -0.84349736735E+02  0.16872229881E+03  0.75782403499E+02  0.20328567309E+03  0.00000000000E+00 0.  1.
         -3    1    6    6    0  502  0.11715151891E+03  0.35873786572E+02 -0.24357236784E+02  0.12491870128E+03  0.00000000000E+00 0.  1.
<mgrwt>
<rscale>  0 0.18069606E+04</rscale>
<asrwt>0</asrwt>
<pdfrwt beam="1">  1        1 0.14494907E+00 0.18069606E+04</pdfrwt>
<pdfrwt beam="2">  1       -1 0.13328928E+00 0.18069606E+04</pdfrwt>
<totfact> 0.75487705E+00</totfact>
</mgrwt>
</event>
<event>
12    1  0.1598876E-007  0.2227762E+04  0.7818608E-02  0.8506961E-01
         -1   -1    0    0    0  501 -0.00000000000E+00  0.00000000000E+00  0.12845773220E+04  0.12845773220E+04  0.00000000000E+00 0.  1.
          1   -1    0    0  501    0  0.00000000000E+00 -0.00000000000E+00 -0.96586672585E+03  0.96586672585E+03  0.00000000000E+00 0. -1.
         23    2    1    2    0    0  0.41270227522E+03  0.11148439695E+03  0.97195643961E+03  0.10656831658E+04  0.90715768424E+02 0.  0.
        254    2    1    2    0    0 -0.41270227522E+03 -0.11148439695E+03 -0.65324584347E+03  0.11847608820E+04  0.89116568429E+03 0.  0.
        -24    2    4    4    0    0 -0.27773014635E+03  0.33899543529E+03 -0.52908797837E+03  0.69166608780E+03  0.80099618120E+02 0.  0.
         24    2    4    4    0    0 -0.13497212887E+03 -0.45047983224E+03 -0.12415786510E+03  0.49309479424E+03  0.81103303334E+02 0.  0.
         11    1    3    3    0    0  0.26373031071E+01 -0.66168184056E+01  0.48608694532E+01  0.86235552606E+01  0.00000000000E+00 0. -1.
        -11    1    3    3    0    0  0.41006497212E+03  0.11810121536E+03  0.96709557015E+03  0.10570596105E+04  0.00000000000E+00 0.  1.
          2    1    6    6  502    0 -0.32704860299E+02 -0.11944990320E+03 -0.70472826201E+02  0.14249318052E+03  0.00000000000E+00 0. -1.
          3    1    5    5  503    0 -0.17561916427E+03  0.25002646240E+03 -0.31910000550E+03  0.44179196040E+03  0.00000000000E+00 0. -1.
         -4    1    5    5    0  503 -0.10211098208E+03  0.88968972886E+02 -0.20998797286E+03  0.24987412740E+03  0.00000000000E+00 0.  1.
         -1    1    6    6    0  502 -0.10226726858E+03 -0.33102992903E+03 -0.53685038901E+02  0.35060161371E+03  0.00000000000E+00 0.  1.
<mgrwt>
<rscale>  0 0.22277616E+04</rscale>
<asrwt>0</asrwt>
<pdfrwt beam="1">  1        1 0.14859488E+00 0.22277616E+04</pdfrwt>
<pdfrwt beam="2">  1       -1 0.19762728E+00 0.22277616E+04</pdfrwt>
<totfact> 0.22885333E+00</totfact>
</mgrwt>
</event>
<event>
12    1  0.1598876E-007  0.2711870E+04  0.7818608E-02  0.8331164E-01
         -1   -1    0    0    0  501 -0.00000000000E+00  0.00000000000E+00  0.21746255791E+04  0.21746255791E+04  0.00000000000E+00 0.  1.
          1   -1    0    0  501    0  0.00000000000E+00 -0.00000000000E+00 -0.84546039388E+03  0.84546039388E+03  0.00000000000E+00 0. -1.
         23    2    1    2    0    0 -0.38307582499E+03  0.36444153980E+03  0.17992407184E+04  0.18775437767E+04  0.91316739213E+02 0.  0.
        254    2    1    2    0    0  0.38307582499E+03 -0.36444153980E+03 -0.47007553323E+03  0.11425421963E+04  0.89714376759E+03 0.  0.
        -24    2    4    4    0    0 -0.41199848911E+02 -0.19075577589E+03  0.22339073315E+03  0.30734471816E+03  0.80449751640E+02 0.  0.
         24    2    4    4    0    0  0.42427567390E+03 -0.17368576391E+03 -0.69346626637E+03  0.83519747813E+03  0.80515668150E+02 0.  0.
         11    1    3    3    0    0 -0.38818505002E+03  0.36152543637E+03  0.17844643446E+04  0.18616394043E+04  0.00000000000E+00 0.  1.
        -11    1    3    3    0    0  0.51092250298E+01  0.29161034377E+01  0.14776373788E+02  0.15904372418E+02  0.00000000000E+00 0. -1.
          4    1    6    6  502    0  0.16988004188E+02 -0.10613755732E+02 -0.70224911559E+02  0.73025901573E+02  0.00000000000E+00 0. -1.
          1    1    5    5  503    0 -0.61355112935E+01 -0.12891991317E+03  0.93845349119E+02  0.15957737328E+03  0.00000000000E+00 0. -1.
         -2    1    5    5    0  503 -0.35064337617E+02 -0.61835862721E+02  0.12954538403E+03  0.14776734488E+03  0.00000000000E+00 0.  1.
         -3    1    6    6    0  502  0.40728766972E+03 -0.16307200818E+03 -0.62324135481E+03  0.76217157655E+03  0.00000000000E+00 0.  1.
<mgrwt>
<rscale>  0 0.27118701E+04</rscale>
<asrwt>0</asrwt>
<pdfrwt beam="1">  1        1 0.13007083E+00 0.27118701E+04</pdfrwt>
<pdfrwt beam="2">  1       -1 0.33455778E+00 0.27118701E+04</pdfrwt>
<totfact> 0.34631717E-01</totfact>
</mgrwt>
</event>
<event>
12    1  0.1598876E-007  0.1697890E+04  0.7818608E-02  0.8762569E-01
         -1   -1    0    0    0  501 -0.00000000000E+00  0.00000000000E+00  0.37554727059E+03  0.37554727059E+03  0.00000000000E+00 0.  1.
          1   -1    0    0  501    0  0.00000000000E+00 -0.00000000000E+00 -0.19190853466E+04  0.19190853466E+04  0.00000000000E+00 0. -1.
         23    2    1    2    0    0  0.15609783360E+03  0.47704130854E+03 -0.97773056130E+03  0.11027996016E+04  0.90966846679E+02 0.  0.
        254    2    1    2    0    0 -0.15609783360E+03 -0.47704130854E+03 -0.56580751470E+03  0.11918330155E+04  0.92108243360E+03 0.  0.
        -24    2    4    4    0    0  0.33472454644E+03 -0.58163275760E+02 -0.37912926115E+03  0.51552143426E+03  0.81239546334E+02 0.  0.
         24    2    4    4    0    0 -0.49082238004E+03 -0.41887803278E+03 -0.18667825356E+03  0.67631158127E+03  0.78633132378E+02 0.  0.
         11    1    3    3    0    0  0.53918880163E+02  0.14315103049E+03 -0.39335182683E+03  0.42204872094E+03  0.00000000000E+00 0. -1.
        -11    1    3    3    0    0  0.10217895344E+03  0.33389027805E+03 -0.58437873446E+03  0.68075088071E+03  0.00000000000E+00 0.  1.
          2    1    6    6  502    0 -0.92964529962E+02 -0.50432558123E+02 -0.50581401794E+02  0.11723619303E+03  0.00000000000E+00 0. -1.
          1    1    5    5  503    0  0.13592202036E+03 -0.63494691523E+02 -0.15052668884E+03  0.21251977678E+03  0.00000000000E+00 0. -1.
         -2    1    5    5    0  503  0.19880252608E+03  0.53314157637E+01 -0.22860257231E+03  0.30300165748E+03  0.00000000000E+00 0.  1.
         -1    1    6    6    0  502 -0.39785785008E+03 -0.36844547466E+03 -0.13609685176E+03  0.55907538823E+03  0.00000000000E+00 0.  1.
<mgrwt>
<rscale>  0 0.16978896E+04</rscale>
<asrwt>0</asrwt>
<pdfrwt beam="1">  1        1 0.29524390E+00 0.16978896E+04</pdfrwt>
<pdfrwt beam="2">  1       -1 0.57776503E-01 0.16978896E+04</pdfrwt>
<totfact> 0.97686201E+00</totfact>
</mgrwt>
</event>
<event>
12    1  0.1598876E-007  0.2485276E+04  0.7818608E-02  0.8408250E-01
         -2   -1    0    0    0  501 -0.00000000000E+00  0.00000000000E+00  0.18747055658E+04  0.18747055658E+04  0.00000000000E+00 0. -1.
          2   -1    0    0  501    0  0.00000000000E+00 -0.00000000000E+00 -0.82367563788E+03  0.82367563788E+03  0.00000000000E+00 0.  1.
         23    2    1    2    0    0  0.34551728465E+03 -0.12244913449E+03 -0.63628557560E+03  0.74000967956E+03  0.91536919276E+02 0.  0.
        254    2    1    2    0    0 -0.34551728465E+03  0.12244913449E+03  0.16873155035E+04  0.19583715241E+04  0.92401809155E+03 0.  0.
        -24    2    4    4    0    0 -0.14846293711E+03  0.19140789233E+02 -0.71693207030E+02  0.18358430552E+03  0.78458063902E+02 0.  0.
         24    2    4    4    0    0 -0.19705434753E+03  0.10330834526E+03  0.17590087106E+04  0.17747872186E+04  0.79088541506E+02 0.  0.
         13    1    3    3    0    0  0.11899213597E+03 -0.78190245364E+02 -0.30079299449E+03  0.33279012670E+03  0.00000000000E+00 0. -1.
        -13    1    3    3    0    0  0.22652514868E+03 -0.44258889129E+02 -0.33549258111E+03  0.40721955286E+03  0.00000000000E+00 0.  1.
          4    1    6    6  502    0 -0.13678589632E+03  0.28020521122E+02  0.10608881606E+04  0.10700370182E+04  0.00000000000E+00 0. -1.
          3    1    5    5  503    0 -0.23848913118E+02  0.35242180724E+02 -0.10520501759E+02  0.43834494594E+02  0.00000000000E+00 0. -1.
         -4    1    5    5    0  503 -0.12461402399E+03 -0.16101391491E+02 -0.61172705271E+02  0.13974981093E+03  0.00000000000E+00 0.  1.
         -3    1    6    6    0  502 -0.60268451218E+02  0.75287824139E+02  0.69812055001E+03  0.70475020044E+03  0.00000000000E+00 0.  1.
<mgrwt>
<rscale>  0 0.24852761E+04</rscale>
<asrwt>0</asrwt>
<pdfrwt beam="1">  1        2 0.12671933E+00 0.24852761E+04</pdfrwt>
<pdfrwt beam="2">  1       -2 0.28841624E+00 0.24852761E+04</pdfrwt>
<totfact> 0.11067807E+00</totfact>
</mgrwt>
</event>
<event>
12    1  0.1598876E-007  0.1307142E+04  0.7818608E-02  0.9023921E-01
         -2   -1    0    0    0  501 -0.00000000000E+00  0.00000000000E+00  0.68732754253E+03  0.68732754253E+03  0.00000000000E+00 0.  1.
          2   -1    0    0  501    0  0.00000000000E+00 -0.00000000000E+00 -0.62147214055E+03  0.62147214055E+03  0.00000000000E+00 0. -1.
         23    2    1    2    0    0  0.13835700925E+03  0.28977297403E+03 -0.78099918757E+02  0.34206092122E+03  0.88289512546E+02 0.  0.
        254    2    1    2    0    0 -0.13835700925E+03 -0.28977297403E+03  0.14395532073E+03  0.96673876187E+03  0.90041638193E+03 0.  0.
        -24    2    4    4    0    0 -0.32278625815E+03 -0.52664366359E+03 -0.46909725714E+01  0.62287955456E+03  0.80077571286E+02 0.  0.
         24    2    4    4    0    0  0.18442924890E+03  0.23687068955E+03  0.14864629331E+03  0.34385920731E+03  0.77598727560E+02 0.  0.
         13    1    3    3    0    0  0.14922564141E+03  0.25731379305E+03 -0.60396071170E+02  0.30352325374E+03  0.00000000000E+00 0.  1.
        -13    1    3    3    0    0 -0.10868632162E+02  0.32459180982E+02 -0.17703847586E+02  0.38537667475E+02  0.00000000000E+00 0. -1.
          2    1    6    6  502    0  0.13999858056E+03  0.22242802243E+03  0.11881396018E+03  0.28842778100E+03  0.00000000000E+00 0. -1.
          1    1    5    5  503    0 -0.30283625523E+03 -0.51358400887E+03 -0.16119195225E+02  0.59643789292E+03  0.00000000000E+00 0. -1.
         -2    1    5    5    0  503 -0.19950002913E+02 -0.13059654714E+02  0.11428222654E+02  0.26441661644E+02  0.00000000000E+00 0.  1.
         -1    1    6    6    0  502  0.44430668337E+02  0.14442667124E+02  0.29832333124E+02  0.55431426305E+02  0.00000000000E+00 0.  1.
<mgrwt>
<rscale>  0 0.13071418E+04</rscale>
<asrwt>0</asrwt>
<pdfrwt beam="1">  1        2 0.95611099E-01 0.13071418E+04</pdfrwt>
<pdfrwt beam="2">  1       -2 0.10574270E+00 0.13071418E+04</pdfrwt>
<totfact> 0.33649284E+01</totfact>
</mgrwt>
</event>
<event>
12    1  0.1598876E-007  0.3113091E+04  0.7818608E-02  0.8212154E-01
         -2   -1    0    0    0  501 -0.00000000000E+00  0.00000000000E+00  0.25406139057E+04  0.25406139057E+04  0.00000000000E+00 0.  1.
          2   -1    0    0  501    0  0.00000000000E+00 -0.00000000000E+00 -0.95364087388E+03  0.95364087388E+03  0.00000000000E+00 0. -1.
         23    2    1    2    0    0 -0.83851127281E+03  0.98718450040E+03  0.13168728832E+04  0.18493332265E+04  0.90800879990E+02 0.  0.
        254    2    1    2    0    0  0.83851127281E+03 -0.98718450040E+03  0.27010014864E+03  0.16449215531E+04  0.97733230425E+03 0.  0.
        -24    2    4    4    0    0  0.15799409194E+03 -0.88478052225E+03  0.32921039728E+01  0.90233028541E+03  0.79939979862E+02 0.  0.
         24    2    4    4    0    0  0.68051718088E+03 -0.10240397815E+03  0.26680804467E+03  0.74259126764E+03  0.81639756667E+02 0.  0.
         13    1    3    3    0    0 -0.38873189558E+01  0.69357058423E+01  0.21855852034E+02  0.23257117885E+02  0.00000000000E+00 0.  1.
        -13    1    3    3    0    0 -0.83462395386E+03  0.98024879456E+03  0.12950170312E+04  0.18260761087E+04  0.00000000000E+00 0. -1.
          2    1    6    6  502    0  0.47972612351E+03 -0.10958895192E+03  0.18993750416E+03  0.52746862224E+03  0.00000000000E+00 0. -1.
          3    1    5    5  503    0  0.45256836941E+01 -0.21027902321E+03 -0.83232423329E+01  0.21049234138E+03  0.00000000000E+00 0. -1.
         -4    1    5    5    0  503  0.15346840824E+03 -0.67450149904E+03  0.11615346306E+02  0.69183794404E+03  0.00000000000E+00 0.  1.
         -1    1    6    6    0  502  0.20079105737E+03  0.71849737732E+01  0.76870540510E+02  0.21512264540E+03  0.00000000000E+00 0.  1.
<mgrwt>
<rscale>  0 0.31130906E+04</rscale>
<asrwt>0</asrwt>
<pdfrwt beam="1">  1        2 0.14671398E+00 0.31130906E+04</pdfrwt>
<pdfrwt beam="2">  1       -2 0.39086368E+00 0.31130906E+04</pdfrwt>
<totfact> 0.19482715E-01</totfact>
</mgrwt>
</event>
<event>
12    1  0.1598876E-007  0.2512463E+04  0.7818608E-02  0.8398559E-01
         -2   -1    0    0    0  501 -0.00000000000E+00  0.00000000000E+00  0.20394488855E+04  0.20394488855E+04  0.00000000000E+00 0.  1.
          2   -1    0    0  501    0  0.00000000000E+00 -0.00000000000E+00 -0.77379591474E+03  0.77379591474E+03  0.00000000000E+00 0. -1.
         23    2    1    2    0    0  0.92004465401E+03  0.55674006278E+03  0.33874884404E+03  0.11310977276E+04  0.90496558953E+02 0.  0.
        254    2    1    2    0    0 -0.92004465401E+03 -0.55674006278E+03  0.92690412673E+03  0.16821470726E+04  0.90223381170E+03 0.  0.
        -24    2    4    4    0    0 -0.10271719356E+04 -0.25278264548E+03  0.61511721407E+03  0.12265047163E+04  0.83446875063E+02 0.  0.
         24    2    4    4    0    0  0.10712728157E+03 -0.30395741731E+03  0.31178691266E+03  0.45564235635E+03  0.80823956826E+02 0.  0.
         13    1    3    3    0    0  0.55278789657E+03  0.36896447203E+03  0.24309141221E+03  0.70767413044E+03  0.00000000000E+00 0.  1.
        -13    1    3    3    0    0  0.36725675744E+03  0.18777559075E+03  0.95657431831E+02  0.42342359716E+03  0.00000000000E+00 0. -1.
          4    1    6    6  502    0  0.46527478271E+01 -0.10771595503E+02 -0.43088086890E+01  0.12499646569E+02  0.00000000000E+00 0. -1.
          1    1    5    5  503    0 -0.41737591821E+03 -0.77684986469E+02  0.28486245414E+03  0.51125750069E+03  0.00000000000E+00 0. -1.
         -2    1    5    5    0  503 -0.60979601736E+03 -0.17509765901E+03  0.33025475993E+03  0.71524721561E+03  0.00000000000E+00 0.  1.
         -3    1    6    6    0  502  0.10247453374E+03 -0.29318582180E+03  0.31609572135E+03  0.44314270978E+03  0.00000000000E+00 0.  1.
<mgrwt>
<rscale>  0 0.25124627E+04</rscale>
<asrwt>0</asrwt>
<pdfrwt beam="1">  1        2 0.11904553E+00 0.25124627E+04</pdfrwt>
<pdfrwt beam="2">  1       -2 0.31376137E+00 0.25124627E+04</pdfrwt>
<totfact> 0.83937739E-01</totfact>
</mgrwt>
</event>
<event>
12    1  0.1598876E-007  0.1138254E+04  0.7818608E-02  0.9168688E-01
          2   -1    0    0  501    0  0.00000000000E+00  0.00000000000E+00  0.22838693649E+04  0.22838693649E+04  0.00000000000E+00 0.  1.
         -2   -1    0    0    0  501 -0.00000000000E+00 -0.00000000000E+00 -0.14182320729E+03  0.14182320729E+03  0.00000000000E+00 0. -1.
         23    2    1    2    0    0 -0.27379533766E+02 -0.78555806982E+02  0.44955631637E+02  0.13138521170E+03  0.91216288877E+02 0.  0.
        254    2    1    2    0    0  0.27379533766E+02  0.78555806982E+02  0.20970905260E+04  0.22943073605E+04  0.92689640016E+03 0.  0.
        -24    2    4    4    0    0  0.37523328978E+03 -0.13743616209E+03  0.50557144150E+03  0.64903236714E+03  0.77147979460E+02 0.  0.
         24    2    4    4    0    0 -0.34785375601E+03  0.21599196908E+03  0.15915190845E+04  0.16452749934E+04  0.79636933846E+02 0.  0.
         11    1    3    3    0    0 -0.62467123721E+01 -0.29198463533E+02 -0.27911688341E+02  0.40873390295E+02  0.00000000000E+00 0. -1.
        -11    1    3    3    0    0 -0.21132821394E+02 -0.49357343449E+02  0.72867319979E+02  0.90511821401E+02  0.00000000000E+00 0.  1.
          4    1    6    6  502    0 -0.25886702137E+03  0.14126120796E+03  0.12576103972E+04  0.12917239545E+04  0.00000000000E+00 0. -1.
          1    1    5    5  503    0  0.28809305414E+03 -0.80007512764E+02  0.33461125063E+03  0.44873544432E+03  0.00000000000E+00 0. -1.
         -2    1    5    5    0  503  0.87140235637E+02 -0.57428649331E+02  0.17096019086E+03  0.20029692282E+03  0.00000000000E+00 0.  1.
         -3    1    6    6    0  502 -0.88986734637E+02  0.74730761115E+02  0.33390868733E+03  0.35355103885E+03  0.00000000000E+00 0.  1.
<mgrwt>
<rscale>  0 0.11382542E+04</rscale>
<asrwt>0</asrwt>
<pdfrwt beam="1">  1        2 0.35136449E+00 0.11382542E+04</pdfrwt>
<pdfrwt beam="2">  1       -2 0.21818957E-01 0.11382542E+04</pdfrwt>
<totfact> 0.84443155E+01</totfact>
</mgrwt>
</event>
<event>
12    1  0.1598876E-007  0.2239437E+04  0.7818608E-02  0.8502191E-01
          1   -1    0    0  501    0  0.00000000000E+00  0.00000000000E+00  0.26068432188E+04  0.26068432188E+04  0.00000000000E+00 0. -1.
         -1   -1    0    0    0  501 -0.00000000000E+00 -0.00000000000E+00 -0.48095317700E+03  0.48095317700E+03  0.00000000000E+00 0.  1.
         23    2    1    2    0    0 -0.35506068139E+03  0.66114662420E+03  0.12168648790E+03  0.76627645327E+03  0.95859560453E+02 0.  0.
        254    2    1    2    0    0  0.35506068139E+03 -0.66114662420E+03  0.20042035539E+04  0.23215199426E+04  0.89968884176E+03 0.  0.
        -24    2    4    4    0    0  0.30241695589E+03 -0.87324145640E+03  0.14506756145E+04  0.17220173940E+04  0.82930756424E+02 0.  0.
         24    2    4    4    0    0  0.52643725499E+02  0.21209483220E+03  0.55352793949E+03  0.59950254861E+03  0.72488249513E+02 0.  0.
         13    1    3    3    0    0 -0.52945944879E+02  0.94539564932E+02  0.52610214714E+02  0.12045263430E+03  0.00000000000E+00 0. -1.
        -13    1    3    3    0    0 -0.30211473651E+03  0.56660705927E+03  0.69076273185E+02  0.64582381897E+03  0.00000000000E+00 0.  1.
          2    1    6    6  502    0  0.65148046208E+02  0.14557560932E+03  0.43036563850E+03  0.45896743758E+03  0.00000000000E+00 0. -1.
          3    1    5    5  503    0  0.28376466131E+03 -0.78122963682E+03  0.13404571777E+04  0.15772341531E+04  0.00000000000E+00 0. -1.
         -4    1    5    5    0  503  0.18652294583E+02 -0.92011819585E+02  0.11021843677E+03  0.14478324089E+03  0.00000000000E+00 0.  1.
         -1    1    6    6    0  502 -0.12504320709E+02  0.66519222883E+02  0.12316230099E+03  0.14053511104E+03  0.00000000000E+00 0.  1.
<mgrwt>
<rscale>  0 0.22394370E+04</rscale>
<asrwt>0</asrwt>
<pdfrwt beam="1">  1        1 0.40105280E+00 0.22394370E+04</pdfrwt>
<pdfrwt beam="2">  1       -1 0.73992798E-01 0.22394370E+04</pdfrwt>
<totfact> 0.19071686E+00</totfact>
</mgrwt>
</event>
<event>
12    1  0.1598876E-007  0.1828807E+04  0.7818608E-02  0.8691129E-01
         -1   -1    0    0    0  501 -0.00000000000E+00  0.00000000000E+00  0.62268155427E+03  0.62268155427E+03  0.00000000000E+00 0.  1.
          1   -1    0    0  501    0  0.00000000000E+00 -0.00000000000E+00 -0.13427947204E+04  0.13427947204E+04  0.00000000000E+00 0. -1.
         23    2    1    2    0    0 -0.25887475963E+03 -0.90605015475E+01 -0.96237966863E+03  0.10007705242E+04  0.90932841623E+02 0.  0.
        254    2    1    2    0    0  0.25887475963E+03  0.90605015475E+01  0.24226650251E+03  0.96470575045E+03  0.89714318414E+03 0.  0.
        -24    2    4    4    0    0  0.48268516580E+03  0.28381112726E+03  0.19552505696E+03  0.59839570820E+03  0.79458482573E+02 0.  0.
         24    2    4    4    0    0 -0.22381040617E+03 -0.27475062571E+03  0.46741445543E+02  0.36631004225E+03  0.80120409877E+02 0.  0.
         13    1    3    3    0    0 -0.23405068803E+03  0.50579578849E+01 -0.92236310519E+03  0.95160864084E+03  0.00000000000E+00 0. -1.
        -13    1    3    3    0    0 -0.24824071601E+02 -0.14118459432E+02 -0.40016563442E+02  0.49161883378E+02  0.00000000000E+00 0.  1.
          4    1    6    6  502    0 -0.15080561177E+03 -0.16615646777E+03  0.66358472147E+02  0.23399519472E+03  0.00000000000E+00 0. -1.
          1    1    5    5  503    0  0.32761928586E+03  0.17357919715E+03  0.92878416309E+02  0.38221791477E+03  0.00000000000E+00 0. -1.
         -2    1    5    5    0  503  0.15506587994E+03  0.11023193011E+03  0.10264664065E+03  0.21617779344E+03  0.00000000000E+00 0.  1.
         -3    1    6    6    0  502 -0.73004794398E+02 -0.10859415794E+03 -0.19617026604E+02  0.13231484753E+03  0.00000000000E+00 0.  1.
<mgrwt>
<rscale>  0 0.18288067E+04</rscale>
<asrwt>0</asrwt>
<pdfrwt beam="1">  1        1 0.20658380E+00 0.18288067E+04</pdfrwt>
<pdfrwt beam="2">  1       -1 0.95797162E-01 0.18288067E+04</pdfrwt>
<totfact> 0.83404905E+00</totfact>
</mgrwt>
</event>
<event>
12    1  0.1598876E-007  0.2273012E+04  0.7818608E-02  0.8488639E-01
          2   -1    0    0  501    0  0.00000000000E+00  0.00000000000E+00  0.82122083587E+03  0.82122083587E+03  0.00000000000E+00 0.  1.
         -2   -1    0    0    0  501 -0.00000000000E+00 -0.00000000000E+00 -0.15728359975E+04  0.15728359975E+04  0.00000000000E+00 0. -1.
         23    2    1    2    0    0  0.94783349188E+03 -0.22507726115E+02 -0.48128339766E+03  0.10671016280E+04  0.90428145878E+02 0.  0.
        254    2    1    2    0    0 -0.94783349188E+03  0.22507726115E+02 -0.27033176392E+03  0.13269552053E+04  0.88816435883E+03 0.  0.
        -24    2    4    4    0    0 -0.16721186927E+03  0.24003790465E+02  0.30254406250E+03  0.35555090907E+03  0.79671500571E+02 0.  0.
         24    2    4    4    0    0 -0.78062162260E+03 -0.14960643499E+01 -0.57287582642E+03  0.97140429626E+03  0.77892479848E+02 0.  0.
         11    1    3    3    0    0  0.81707826709E+02  0.22893050758E+02 -0.36241513004E+02  0.92269756602E+02  0.00000000000E+00 0.  1.
        -11    1    3    3    0    0  0.86612566517E+03 -0.45400776873E+02 -0.44504188466E+03  0.97483187140E+03  0.00000000000E+00 0. -1.
          2    1    6    6  502    0 -0.24472298195E+03 -0.22854972986E+02 -0.14550719696E+03  0.28562918627E+03  0.00000000000E+00 0. -1.
          1    1    5    5  503    0 -0.15565555303E+03  0.24451102662E+02  0.30538938145E+03  0.34364106552E+03  0.00000000000E+00 0. -1.
         -2    1    5    5    0  503 -0.11556316246E+02 -0.44731219708E+00 -0.28453189517E+01  0.11909843547E+02  0.00000000000E+00 0.  1.
         -1    1    6    6    0  502 -0.53589864065E+03  0.21358908636E+02 -0.42736862946E+03  0.68577510999E+03  0.00000000000E+00 0.  1.
<mgrwt>
<rscale>  0 0.22730118E+04</rscale>
<asrwt>0</asrwt>
<pdfrwt beam="1">  1        2 0.12634167E+00 0.22730118E+04</pdfrwt>
<pdfrwt beam="2">  1       -2 0.24197477E+00 0.22730118E+04</pdfrwt>
<totfact> 0.21758248E+00</totfact>
</mgrwt>
</event>
<event>
12    1  0.1598876E-007  0.2423104E+04  0.7818608E-02  0.8430904E-01
          1   -1    0    0  501    0  0.00000000000E+00  0.00000000000E+00  0.10642612001E+04  0.10642612001E+04  0.00000000000E+00 0. -1.
         -1   -1    0    0    0  501 -0.00000000000E+00 -0.00000000000E+00 -0.13792269237E+04  0.13792269237E+04  0.00000000000E+00 0.  1.
         23    2    1    2    0    0 -0.50196019860E+03 -0.91034772400E+03 -0.11684419552E+03  0.10500573913E+04  0.90944705428E+02 0.  0.
        254    2    1    2    0    0  0.50196019860E+03  0.91034772400E+03 -0.19812152812E+03  0.13934307325E+04  0.90647672154E+03 0.  0.
        -24    2    4    4    0    0  0.74024961764E+03  0.49780297256E+03 -0.12688108833E+03  0.90464442405E+03  0.80656230270E+02 0.  0.
         24    2    4    4    0    0 -0.23828941904E+03  0.41254475144E+03 -0.71240439786E+02  0.48878630841E+03  0.82836198997E+02 0.  0.
         11    1    3    3    0    0 -0.37892445868E+03 -0.60511597388E+03 -0.94652200039E+02  0.72021394474E+03  0.00000000000E+00 0. -1.
        -11    1    3    3    0    0 -0.12303573992E+03 -0.30523175012E+03 -0.22191995482E+02  0.32984344656E+03  0.00000000000E+00 0.  1.
          2    1    6    6  502    0 -0.80489857334E+02  0.15709978470E+03 -0.66095561662E+02  0.18848761964E+03  0.00000000000E+00 0. -1.
          3    1    5    5  503    0  0.26750313013E+03  0.20053348921E+03 -0.12183685407E+02  0.33454453682E+03  0.00000000000E+00 0. -1.
         -4    1    5    5    0  503  0.47274648751E+03  0.29726948335E+03 -0.11469740292E+03  0.57009988723E+03  0.00000000000E+00 0.  1.
         -1    1    6    6    0  502 -0.15779956170E+03  0.25544496674E+03 -0.51448781232E+01  0.30029868877E+03  0.00000000000E+00 0.  1.
<mgrwt>
<rscale>  0 0.24231035E+04</rscale>
<asrwt>0</asrwt>
<pdfrwt beam="1">  1        1 0.16373249E+00 0.24231035E+04</pdfrwt>
<pdfrwt beam="2">  1       -1 0.21218876E+00 0.24231035E+04</pdfrwt>
<totfact> 0.14994495E+00</totfact>
</mgrwt>
</event>
<event>
12    1  0.1598876E-007  0.2298843E+04  0.7818608E-02  0.8478378E-01
         -1   -1    0    0    0  501 -0.00000000000E+00  0.00000000000E+00  0.38705670699E+03  0.38705670699E+03  0.00000000000E+00 0.  1.
          1   -1    0    0  501    0  0.00000000000E+00 -0.00000000000E+00 -0.34133740805E+04  0.34133740805E+04  0.00000000000E+00 0. -1.
         23    2    1    2    0    0 -0.89340999276E+03 -0.41347632072E+02 -0.19095048542E+04  0.21104395147E+04  0.88629087259E+02 0.  0.
        254    2    1    2    0    0  0.89340999276E+03  0.41347632072E+02 -0.11168125193E+04  0.16899912728E+04  0.89939382756E+03 0.  0.
        -24    2    4    4    0    0  0.91491214505E+03  0.23955330390E+03 -0.11287966585E+04  0.14748051518E+04  0.80114424943E+02 0.  0.
         24    2    4    4    0    0 -0.21502152293E+02 -0.19820567183E+03  0.11984139168E+02  0.21518612099E+03  0.80085055885E+02 0.  0.
         13    1    3    3    0    0 -0.60929830016E+03 -0.68003209772E+02 -0.13284230119E+04  0.14630709326E+04  0.00000000000E+00 0. -1.
        -13    1    3    3    0    0 -0.28411169260E+03  0.26655577700E+02 -0.58108184227E+03  0.64736858212E+03  0.00000000000E+00 0.  1.
          2    1    6    6  502    0 -0.17782275176E+02 -0.95063255986E+02 -0.33566880823E+02  0.10237171210E+03  0.00000000000E+00 0. -1.
          3    1    5    5  503    0  0.30560095871E+03  0.80460641564E+02 -0.31977139584E+03  0.44957714176E+03  0.00000000000E+00 0. -1.
         -4    1    5    5    0  503  0.60931118634E+03  0.15909266233E+03 -0.80902526267E+03  0.10252280101E+04  0.00000000000E+00 0.  1.
         -1    1    6    6    0  502 -0.37198771161E+01 -0.10314241584E+03  0.45551019991E+02  0.11281440889E+03  0.00000000000E+00 0.  1.
<mgrwt>
<rscale>  0 0.22988426E+04</rscale>
<asrwt>0</asrwt>
<pdfrwt beam="1">  1        1 0.52513448E+00 0.22988426E+04</pdfrwt>
<pdfrwt beam="2">  1       -1 0.59547185E-01 0.22988426E+04</pdfrwt>
<totfact> 0.75634274E-01</totfact>
</mgrwt>
</event>
<event>
12    1  0.1598876E-007  0.2333630E+04  0.7818608E-02  0.8464778E-01
         -1   -1    0    0    0  501 -0.00000000000E+00  0.00000000000E+00  0.46903600421E+03  0.46903600421E+03  0.00000000000E+00 0.  1.
          1   -1    0    0  501    0  0.00000000000E+00 -0.00000000000E+00 -0.29026723197E+04  0.29026723197E+04  0.00000000000E+00 0. -1.
         23    2    1    2    0    0  0.81101678076E+03 -0.40160679165E+03 -0.16223619897E+04  0.18599689487E+04  0.91596019743E+02 0.  0.
        254    2    1    2    0    0 -0.81101678076E+03  0.40160679165E+03 -0.81127432581E+03  0.15117393752E+04  0.89897367761E+03 0.  0.
        -24    2    4    4    0    0 -0.79872945223E+03  0.52537322844E+03 -0.91923966087E+03  0.13286424354E+04  0.79393954222E+02 0.  0.
         24    2    4    4    0    0 -0.12287328532E+02 -0.12376643679E+03  0.10796533506E+03  0.18309693981E+03  0.79992915167E+02 0.  0.
         13    1    3    3    0    0  0.78017005744E+03 -0.39397415710E+03 -0.15267862988E+04  0.17592490890E+04  0.00000000000E+00 0.  1.
        -13    1    3    3    0    0  0.30846723327E+02 -0.76326345514E+01 -0.95575690923E+02  0.10071985974E+03  0.00000000000E+00 0. -1.
          2    1    6    6  502    0 -0.11046276122E+02  0.72541907879E+01 -0.16189543434E+00  0.13216266882E+02  0.00000000000E+00 0. -1.
          3    1    5    5  503    0 -0.43254374839E+02  0.88686697936E+01 -0.41760308712E+02  0.60774317193E+02  0.00000000000E+00 0. -1.
         -4    1    5    5    0  503 -0.75547507739E+03  0.51650455865E+03 -0.87747935216E+03  0.12678681182E+04  0.00000000000E+00 0.  1.
         -1    1    6    6    0  502 -0.12410524094E+01 -0.13102062758E+03  0.10812723049E+03  0.16988067293E+03  0.00000000000E+00 0.  1.
<mgrwt>
<rscale>  0 0.23336305E+04</rscale>
<asrwt>0</asrwt>
<pdfrwt beam="1">  1        1 0.44656496E+00 0.23336305E+04</pdfrwt>
<pdfrwt beam="2">  1       -1 0.72159387E-01 0.23336305E+04</pdfrwt>
<totfact> 0.12286956E+00</totfact>
</mgrwt>
</event>
<event>
12    1  0.1598876E-007  0.1564051E+04  0.7818608E-02  0.8842942E-01
          2   -1    0    0  501    0  0.00000000000E+00  0.00000000000E+00  0.17446058501E+04  0.17446058501E+04  0.00000000000E+00 0. -1.
         -2   -1    0    0    0  501 -0.00000000000E+00 -0.00000000000E+00 -0.35054570939E+03  0.35054570939E+03  0.00000000000E+00 0.  1.
         23    2    1    2    0    0 -0.24995518675E+03  0.30736536629E+03  0.11021789190E+04  0.11746718773E+04  0.90025475012E+02 0.  0.
        254    2    1    2    0    0  0.24995518675E+03 -0.30736536629E+03  0.29188122173E+03  0.92047968217E+03  0.77790560733E+03 0.  0.
        -24    2    4    4    0    0  0.25492331540E+03 -0.26334401761E+03 -0.19601401686E+03  0.42336827033E+03  0.80518502071E+02 0.  0.
         24    2    4    4    0    0 -0.49681286412E+01 -0.44021348681E+02  0.48789523859E+03  0.49711141184E+03  0.84353011262E+02 0.  0.
         13    1    3    3    0    0 -0.15359878475E+03  0.20925267679E+03  0.83132678554E+03  0.87090957842E+03  0.00000000000E+00 0.  1.
        -13    1    3    3    0    0 -0.96356402003E+02  0.98112689494E+02  0.27085213341E+03  0.30376229888E+03  0.00000000000E+00 0. -1.
          2    1    6    6  502    0 -0.41306702298E+02 -0.35057348954E+02  0.21790144823E+03  0.22453574885E+03  0.00000000000E+00 0. -1.
          1    1    5    5  503    0  0.21456517505E+03 -0.25501260960E+03 -0.18268477463E+03  0.38005706450E+03  0.00000000000E+00 0. -1.
         -2    1    5    5    0  503  0.40358140349E+02 -0.83314080099E+01 -0.13329242225E+02  0.43311205827E+02  0.00000000000E+00 0.  1.
         -1    1    6    6    0  502  0.36338573657E+02 -0.89639997261E+01  0.26999379036E+03  0.27257566300E+03  0.00000000000E+00 0.  1.
<mgrwt>
<rscale>  0 0.15640513E+04</rscale>
<asrwt>0</asrwt>
<pdfrwt beam="1">  1        2 0.26840089E+00 0.15640513E+04</pdfrwt>
<pdfrwt beam="2">  1       -2 0.53930110E-01 0.15640513E+04</pdfrwt>
<totfact> 0.28839944E+01</totfact>
</mgrwt>
</event>
<event>
12    1  0.1598876E-007  0.2482907E+04  0.7818608E-02  0.8409100E-01
         -1   -1    0    0    0  501 -0.00000000000E+00  0.00000000000E+00  0.18640264154E+04  0.18640264154E+04  0.00000000000E+00 0. -1.
          1   -1    0    0  501    0  0.00000000000E+00 -0.00000000000E+00 -0.82681607131E+03  0.82681607131E+03  0.00000000000E+00 0.  1.
         23    2    1    2    0    0 -0.94584026480E+03 -0.22232210123E+03 -0.43346089016E+02  0.97676005303E+03  0.90224135052E+02 0.  0.
        254    2    1    2    0    0  0.94584026480E+03  0.22232210123E+03  0.10805564331E+04  0.17140824337E+04  0.90908495819E+03 0.  0.
        -24    2    4    4    0    0 -0.10458157184E+03  0.21366066054E+03  0.87344486651E+02  0.26580287044E+03  0.80211741976E+02 0.  0.
         24    2    4    4    0    0  0.10504218366E+04  0.86614406871E+01  0.99321194650E+03  0.14482795633E+04  0.87078512611E+02 0.  0.
         11    1    3    3    0    0 -0.11503699201E+03 -0.58214171395E+02 -0.39773932058E+01  0.12898922025E+03  0.00000000000E+00 0. -1.
        -11    1    3    3    0    0 -0.83080327278E+03 -0.16410792983E+03 -0.39368695810E+02  0.84777083278E+03  0.00000000000E+00 0.  1.
          2    1    6    6  502    0  0.94276413949E+03  0.10346450341E+02  0.85241811446E+03  0.12710341906E+04  0.00000000000E+00 0. -1.
          3    1    5    5  503    0 -0.80965944782E+02  0.85484303809E+02  0.21161160254E+02  0.11962794454E+03  0.00000000000E+00 0. -1.
         -4    1    5    5    0  503 -0.23615627062E+02  0.12817635673E+03  0.66183326397E+02  0.14617492589E+03  0.00000000000E+00 0.  1.
         -1    1    6    6    0  502  0.10765769715E+03 -0.16850096540E+01  0.14079383204E+03  0.17724537273E+03  0.00000000000E+00 0.  1.
<mgrwt>
<rscale>  0 0.24829072E+04</rscale>
<asrwt>0</asrwt>
<pdfrwt beam="1">  1        1 0.12720247E+00 0.24829072E+04</pdfrwt>
<pdfrwt beam="2">  1       -1 0.28677329E+00 0.24829072E+04</pdfrwt>
<totfact> 0.75025378E-01</totfact>
</mgrwt>
</event>
<event>
12    1  0.1598876E-007  0.2780151E+04  0.7818608E-02  0.8309457E-01
         -1   -1    0    0    0  501 -0.00000000000E+00  0.00000000000E+00  0.89156493006E+03  0.89156493006E+03  0.00000000000E+00 0.  1.
          1   -1    0    0  501    0  0.00000000000E+00 -0.00000000000E+00 -0.21673231885E+04  0.21673231885E+04  0.00000000000E+00 0. -1.
         23    2    1    2    0    0  0.83928924201E+03  0.42967010321E+03  0.32066444635E+03  0.10000183428E+04  0.90488504749E+02 0.  0.
        254    2    1    2    0    0 -0.83928924201E+03 -0.42967010321E+03 -0.15964227048E+04  0.20588697757E+04  0.89518516058E+03 0.  0.
        -24    2    4    4    0    0 -0.84962129792E+03 -0.63982224135E+03 -0.14053298410E+04  0.17642212167E+04  0.79345378186E+02 0.  0.
         24    2    4    4    0    0  0.10332055909E+02  0.21015213814E+03 -0.19109286382E+03  0.29464855906E+03  0.77657055118E+02 0.  0.
         11    1    3    3    0    0  0.25302696574E+03  0.17272039643E+03  0.12257442657E+03  0.32996889366E+03  0.00000000000E+00 0. -1.
        -11    1    3    3    0    0  0.58626227627E+03  0.25694970678E+03  0.19809001977E+03  0.67004944917E+03  0.00000000000E+00 0.  1.
          4    1    6    6  502    0  0.33154095933E+02  0.84406112652E+02 -0.11295820732E+03  0.14485559199E+03  0.00000000000E+00 0. -1.
          3    1    5    5  503    0 -0.39367129813E+02 -0.16727866771E+02 -0.77796830595E+02  0.88780286590E+02  0.00000000000E+00 0. -1.
         -4    1    5    5    0  503 -0.81025416811E+03 -0.62309437458E+03 -0.13275330104E+04  0.16754409301E+04  0.00000000000E+00 0.  1.
         -3    1    6    6    0  502 -0.22822040025E+02  0.12574602549E+03 -0.78134656500E+02  0.14979296707E+03  0.00000000000E+00 0.  1.
<mgrwt>
<rscale>  0 0.27801506E+04</rscale>
<asrwt>0</asrwt>
<pdfrwt beam="1">  1        1 0.33343433E+00 0.27801506E+04</pdfrwt>
<pdfrwt beam="2">  1       -1 0.13716384E+00 0.27801506E+04</pdfrwt>
<totfact> 0.87908518E-01</totfact>
</mgrwt>
</event>
<event>
12    1  0.1598876E-007  0.2171452E+04  0.7818608E-02  0.8530405E-01
          2   -1    0    0  501    0  0.00000000000E+00  0.00000000000E+00  0.45141799462E+03  0.45141799462E+03  0.00000000000E+00 0. -1.
         -2   -1    0    0    0  501 -0.00000000000E+00 -0.00000000000E+00 -0.26113301222E+04  0.26113301222E+04  0.00000000000E+00 0.  1.
         23    2    1    2    0    0 -0.43163264289E+03  0.46770708172E+03 -0.17835400605E+04  0.18965948251E+04  0.10488150585E+03 0.  0.
        254    2    1    2    0    0  0.43163264289E+03 -0.46770708172E+03 -0.37637206708E+03  0.11661532918E+04  0.90177653237E+03 0.  0.
        -24    2    4    4    0    0 -0.18862928450E+03 -0.24988096754E+03  0.11336252954E+03  0.34250606258E+03  0.80236119612E+02 0.  0.
         24    2    4    4    0    0  0.62026192739E+03 -0.21782611418E+03 -0.48973459662E+03  0.82364722919E+03  0.79885595968E+02 0.  0.
         13    1    3    3    0    0 -0.41237376756E+03  0.46040180380E+03 -0.17596867547E+04  0.18650789313E+04  0.00000000000E+00 0. -1.
        -13    1    3    3    0    0 -0.19258875326E+02  0.73052779222E+01 -0.23853305820E+02  0.31515893814E+02  0.00000000000E+00 0.  1.
          4    1    6    6  502    0  0.16409673121E+03 -0.72034892502E+02 -0.17568112368E+03  0.25095939940E+03  0.00000000000E+00 0. -1.
          3    1    5    5  503    0 -0.64992165980E+02 -0.38070103950E+02  0.85919033606E+01  0.75809862530E+02  0.00000000000E+00 0. -1.
         -2    1    5    5    0  503 -0.12363711852E+03 -0.21181086359E+03  0.10477062618E+03  0.26669620005E+03  0.00000000000E+00 0.  1.
         -3    1    6    6    0  502  0.45616519618E+03 -0.14579122167E+03 -0.31405347294E+03  0.57268782979E+03  0.00000000000E+00 0.  1.
<mgrwt>
<rscale>  0 0.21714524E+04</rscale>
<asrwt>0</asrwt>
<pdfrwt beam="1">  1        2 0.69448924E-01 0.21714524E+04</pdfrwt>
<pdfrwt beam="2">  1       -2 0.40174308E+00 0.21714524E+04</pdfrwt>
<totfact> 0.45982484E-01</totfact>
</mgrwt>
</event>
<event>
12    1  0.1598876E-007  0.1936657E+04  0.7818608E-02  0.8636822E-01
         -2   -1    0    0    0  501 -0.00000000000E+00  0.00000000000E+00  0.11321459533E+04  0.11321459533E+04  0.00000000000E+00 0.  1.
          2   -1    0    0  501    0  0.00000000000E+00 -0.00000000000E+00 -0.82821497602E+03  0.82821497602E+03  0.00000000000E+00 0. -1.
         23    2    1    2    0    0 -0.52829960434E+03 -0.43803992634E+03 -0.24796719784E+03  0.73540208740E+03  0.91373135739E+02 0.  0.
        254    2    1    2    0    0  0.52829960434E+03  0.43803992634E+03  0.55189817507E+03  0.12249588419E+04  0.85144178875E+03 0.  0.
        -24    2    4    4    0    0  0.49956876008E+03  0.65450841574E+03  0.54775694138E+03  0.99183095351E+03  0.75767810998E+02 0.  0.
         24    2    4    4    0    0  0.28730844253E+02 -0.21646848940E+03  0.41412336964E+01  0.23312788836E+03  0.81531553403E+02 0.  0.
         11    1    3    3    0    0 -0.47113856336E+03 -0.38737573131E+03 -0.18789931397E+03  0.63823009588E+03  0.00000000000E+00 0.  1.
        -11    1    3    3    0    0 -0.57161040975E+02 -0.50664195027E+02 -0.60067883869E+02  0.97171991518E+02  0.00000000000E+00 0. -1.
          4    1    6    6  502    0  0.10721110634E+02 -0.84696923388E+01 -0.18640456054E+02  0.23111566443E+02  0.00000000000E+00 0. -1.
          3    1    5    5  503    0  0.27935474308E+02  0.13474586662E+02  0.20600305209E+02  0.37233422959E+02  0.00000000000E+00 0. -1.
         -4    1    5    5    0  503  0.47163328578E+03  0.64103382908E+03  0.52715663617E+03  0.95459753055E+03  0.00000000000E+00 0.  1.
         -3    1    6    6    0  502  0.18009733620E+02 -0.20799879707E+03  0.22781689750E+02  0.21001632192E+03  0.00000000000E+00 0.  1.
<mgrwt>
<rscale>  0 0.19366572E+04</rscale>
<asrwt>0</asrwt>
<pdfrwt beam="1">  1        2 0.12741769E+00 0.19366572E+04</pdfrwt>
<pdfrwt beam="2">  1       -2 0.17417630E+00 0.19366572E+04</pdfrwt>
<totfact> 0.61108063E+00</totfact>
</mgrwt>
</event>
<event>
12    1  0.1598876E-007  0.2306116E+04  0.7818608E-02  0.8475514E-01
          2   -1    0    0  501    0  0.00000000000E+00  0.00000000000E+00  0.24598059990E+04  0.24598059990E+04  0.00000000000E+00 0. -1.
         -2   -1    0    0    0  501 -0.00000000000E+00 -0.00000000000E+00 -0.54050702624E+03  0.54050702624E+03  0.00000000000E+00 0.  1.
         23    2    1    2    0    0 -0.14436331545E+02  0.84715790421E+02  0.20595858868E+04  0.20632925745E+04  0.88865347490E+02 0.  0.
        254    2    1    2    0    0  0.14436331545E+02 -0.84715790421E+02 -0.14028691400E+03  0.93702045079E+03  0.92246503140E+03 0.  0.
        -24    2    4    4    0    0 -0.18280144669E+03 -0.44215022989E+03  0.33447852410E+02  0.48623809378E+03  0.79972059532E+02 0.  0.
         24    2    4    4    0    0  0.19723777824E+03  0.35743443947E+03 -0.17373476641E+03  0.45078235701E+03  0.79742364211E+02 0.  0.
         11    1    3    3    0    0 -0.19996497940E+02  0.55870894867E+02  0.19059454192E+04  0.19068689933E+04  0.00000000000E+00 0. -1.
        -11    1    3    3    0    0  0.55601663946E+01  0.28844895554E+02  0.15364046759E+03  0.15642358113E+03  0.00000000000E+00 0.  1.
          4    1    6    6  502    0  0.13814908286E+03  0.25073286188E+03 -0.16023850557E+03  0.32806785242E+03  0.00000000000E+00 0. -1.
          1    1    5    5  503    0 -0.15533791405E+03 -0.32790382427E+03  0.54372544279E+02  0.36688848317E+03  0.00000000000E+00 0. -1.
         -4    1    5    5    0  503 -0.27463532643E+02 -0.11424640562E+03 -0.20924691869E+02  0.11934961061E+03  0.00000000000E+00 0.  1.
         -3    1    6    6    0  502  0.59088695378E+02  0.10670157759E+03 -0.13496260842E+02  0.12271450460E+03  0.00000000000E+00 0.  1.
<mgrwt>
<rscale>  0 0.23061157E+04</rscale>
<asrwt>0</asrwt>
<pdfrwt beam="1">  1        2 0.37843168E+00 0.23061157E+04</pdfrwt>
<pdfrwt beam="2">  1       -2 0.83154929E-01 0.23061157E+04</pdfrwt>
<totfact> 0.42148871E+00</totfact>
</mgrwt>
</event>
<event>
12    1  0.1598876E-007  0.1619475E+04  0.7818608E-02  0.8808673E-01
          2   -1    0    0  501    0  0.00000000000E+00  0.00000000000E+00  0.75042004196E+03  0.75042004196E+03  0.00000000000E+00 0.  1.
         -2   -1    0    0    0  501 -0.00000000000E+00 -0.00000000000E+00 -0.87374323352E+03  0.87374323352E+03  0.00000000000E+00 0. -1.
         23    2    1    2    0    0  0.22257757621E+03 -0.26862695045E+03  0.39044820950E+03  0.53134989056E+03  0.90452672487E+02 0.  0.
        254    2    1    2    0    0 -0.22257757621E+03  0.26862695045E+03 -0.51377140106E+03  0.10928133849E+04  0.89921011214E+03 0.  0.
        -24    2    4    4    0    0 -0.20334414193E+03 -0.16490384267E+03 -0.58488409761E+03  0.64585445958E+03  0.80600607545E+02 0.  0.
         24    2    4    4    0    0 -0.19233434275E+02  0.43353079311E+03  0.71112696548E+02  0.44695892534E+03  0.79977445313E+02 0.  0.
         13    1    3    3    0    0 -0.48775479704E+01  0.19162643830E+01  0.14127994026E+02  0.15068601746E+02  0.00000000000E+00 0. -1.
        -13    1    3    3    0    0  0.22745512418E+03 -0.27054321483E+03  0.37632021548E+03  0.51628128882E+03  0.00000000000E+00 0.  1.
          4    1    6    6  502    0  0.13382495901E+02  0.66167023946E+02 -0.12836537566E+02  0.68716395067E+02  0.00000000000E+00 0. -1.
          3    1    5    5  503    0 -0.22172656275E+02  0.45487930078E+01 -0.82704394932E+02  0.85745758759E+02  0.00000000000E+00 0. -1.
         -4    1    5    5    0  503 -0.18117148566E+03 -0.16945263567E+03 -0.50217970268E+03  0.56010870082E+03  0.00000000000E+00 0.  1.
         -3    1    6    6    0  502 -0.32615930176E+02  0.36736376917E+03  0.83949234114E+02  0.37824253027E+03  0.00000000000E+00 0.  1.
<mgrwt>
<rscale>  0 0.16194745E+04</rscale>
<asrwt>0</asrwt>
<pdfrwt beam="1">  1        2 0.11544924E+00 0.16194745E+04</pdfrwt>
<pdfrwt beam="2">  1       -2 0.13442204E+00 0.16194745E+04</pdfrwt>
<totfact> 0.14307037E+01</totfact>
</mgrwt>
</event>
<event>
12    1  0.1598876E-007  0.1693884E+04  0.7818608E-02  0.8764860E-01
         -1   -1    0    0    0  501 -0.00000000000E+00  0.00000000000E+00  0.61873899439E+03  0.61873899439E+03  0.00000000000E+00 0.  1.
          1   -1    0    0  501    0  0.00000000000E+00 -0.00000000000E+00 -0.11593107857E+04  0.11593107857E+04  0.00000000000E+00 0. -1.
         23    2    1    2    0    0  0.51031852602E+03  0.31530333302E+03 -0.14787634125E+03  0.62440739538E+03  0.90421199364E+02 0.  0.
        254    2    1    2    0    0 -0.51031852602E+03 -0.31530333302E+03 -0.39269545006E+03  0.11536423847E+04  0.90379192599E+03 0.  0.
        -24    2    4    4    0    0  0.51074950051E+02  0.18662971787E+03 -0.33455540618E+03  0.39455856238E+03  0.79434483888E+02 0.  0.
         24    2    4    4    0    0 -0.56139347607E+03 -0.50193305089E+03 -0.58140043884E+02  0.75908382233E+03  0.75687264855E+02 0.  0.
         13    1    3    3    0    0  0.33165410443E+03  0.18222247639E+03 -0.13307896262E+03  0.40113524674E+03  0.00000000000E+00 0. -1.
        -13    1    3    3    0    0  0.17866442159E+03  0.13308085663E+03 -0.14797378623E+02  0.22327214864E+03  0.00000000000E+00 0.  1.
          4    1    6    6  502    0 -0.46272041731E+03 -0.44915079295E+03 -0.45404469789E+02  0.64645818525E+03  0.00000000000E+00 0. -1.
          1    1    5    5  503    0  0.34778695318E+02  0.17270889738E+03 -0.32770150996E+03  0.37205671679E+03  0.00000000000E+00 0. -1.
         -2    1    5    5    0  503  0.16296254733E+02  0.13920820493E+02 -0.68538962195E+01  0.22501845589E+02  0.00000000000E+00 0.  1.
         -3    1    6    6    0  502 -0.98673058760E+02 -0.52782257942E+02 -0.12735574095E+02  0.11262563707E+03  0.00000000000E+00 0.  1.
<mgrwt>
<rscale>  0 0.16938840E+04</rscale>
<asrwt>0</asrwt>
<pdfrwt beam="1">  1        1 0.17835551E+00 0.16938840E+04</pdfrwt>
<pdfrwt beam="2">  1       -1 0.95190614E-01 0.16938840E+04</pdfrwt>
<totfact> 0.11620790E+01</totfact>
</mgrwt>
</event>
<event>
12    1  0.1598876E-007  0.1207644E+04  0.7818608E-02  0.9106192E-01
          1   -1    0    0  501    0  0.00000000000E+00  0.00000000000E+00  0.36702381942E+03  0.36702381942E+03  0.00000000000E+00 0. -1.
         -1   -1    0    0    0  501 -0.00000000000E+00 -0.00000000000E+00 -0.99339853623E+03  0.99339853623E+03  0.00000000000E+00 0.  1.
         23    2    1    2    0    0  0.89426228638E+02  0.12151869264E+03 -0.36794027290E+03  0.40701004834E+03  0.86679247764E+02 0.  0.
        254    2    1    2    0    0 -0.89426228638E+02 -0.12151869264E+03 -0.25843444391E+03  0.95341230731E+03  0.90523081195E+03 0.  0.
        -24    2    4    4    0    0  0.39067126364E+03  0.45146556953E+02 -0.85488619164E+02  0.40987068716E+03  0.77610748901E+02 0.  0.
         24    2    4    4    0    0 -0.48009749228E+03 -0.16666524959E+03 -0.17294582474E+03  0.54354162015E+03  0.85184077319E+02 0.  0.
         13    1    3    3    0    0  0.27321508894E+02  0.67568919942E+02 -0.83125479298E+02  0.11055256261E+03  0.00000000000E+00 0. -1.
        -13    1    3    3    0    0  0.62104719744E+02  0.53949772699E+02 -0.28481479360E+03  0.29645748573E+03  0.00000000000E+00 0.  1.
          2    1    6    6  502    0 -0.37467369128E+03 -0.11361112606E+03 -0.97536552870E+02  0.40348635918E+03  0.00000000000E+00 0. -1.
          3    1    5    5  503    0  0.31432796269E+03  0.52201256484E+02 -0.95293659256E+02  0.33257769138E+03  0.00000000000E+00 0. -1.
         -4    1    5    5    0  503  0.76343300948E+02 -0.70546995310E+01  0.98050400919E+01  0.77292995778E+02  0.00000000000E+00 0.  1.
         -1    1    6    6    0  502 -0.10542380100E+03 -0.53054123534E+02 -0.75409271873E+02  0.14005526097E+03  0.00000000000E+00 0.  1.
<mgrwt>
<rscale>  0 0.12076439E+04</rscale>
<asrwt>0</asrwt>
<pdfrwt beam="1">  1        1 0.56465205E-01 0.12076439E+04</pdfrwt>
<pdfrwt beam="2">  1       -1 0.15283054E+00 0.12076439E+04</pdfrwt>
<totfact> 0.22068165E+01</totfact>
</mgrwt>
</event>
<event>
12    1  0.1598876E-007  0.1160484E+04  0.7818608E-02  0.9148166E-01
          2   -1    0    0  501    0  0.00000000000E+00  0.00000000000E+00  0.34504379667E+03  0.34504379667E+03  0.00000000000E+00 0.  1.
         -2   -1    0    0    0  501 -0.00000000000E+00 -0.00000000000E+00 -0.97576214146E+03  0.97576214146E+03  0.00000000000E+00 0. -1.
         23    2    1    2    0    0 -0.17643279436E+03 -0.42894978515E+02 -0.43813884489E+02  0.21098966318E+03  0.98124774580E+02 0.  0.
        254    2    1    2    0    0  0.17643279436E+03  0.42894978515E+02 -0.58690446030E+03  0.11098162749E+04  0.92426555086E+03 0.  0.
        -24    2    4    4    0    0  0.28657137382E+03 -0.29705333248E+03 -0.61092298026E+03  0.74273891119E+03  0.89835225602E+02 0.  0.
         24    2    4    4    0    0 -0.11013857946E+03  0.33994831100E+03  0.24018519956E+02  0.36707736376E+03  0.80458317453E+02 0.  0.
         13    1    3    3    0    0 -0.51276788496E+02  0.19318861643E+02  0.18674895160E+02  0.57890233744E+02  0.00000000000E+00 0.  1.
        -13    1    3    3    0    0 -0.12515600587E+03 -0.62213840159E+02 -0.62488779649E+02  0.15309942944E+03  0.00000000000E+00 0. -1.
          2    1    6    6  502    0 -0.12066300312E+03  0.31936937321E+03  0.13467347957E+02  0.34166903039E+03  0.00000000000E+00 0. -1.
          3    1    5    5  503    0  0.27432550304E+03 -0.29938131992E+03 -0.60571709449E+03  0.72923031677E+03  0.00000000000E+00 0. -1.
         -2    1    5    5    0  503  0.12245870783E+02  0.23279874382E+01 -0.52058857706E+01  0.13508594427E+02  0.00000000000E+00 0.  1.
         -1    1    6    6    0  502  0.10524423664E+02  0.20578937782E+02  0.10551171999E+02  0.25408333363E+02  0.00000000000E+00 0.  1.
<mgrwt>
<rscale>  0 0.11604838E+04</rscale>
<asrwt>0</asrwt>
<pdfrwt beam="1">  1        2 0.53083661E-01 0.11604838E+04</pdfrwt>
<pdfrwt beam="2">  1       -2 0.15011725E+00 0.11604838E+04</pdfrwt>
<totfact> 0.27742669E+01</totfact>
</mgrwt>
</event>
<event>
12    1  0.1598876E-007  0.2099553E+04  0.7818608E-02  0.8561440E-01
          2   -1    0    0  501    0  0.00000000000E+00  0.00000000000E+00  0.14006613295E+04  0.14006613295E+04  0.00000000000E+00 0. -1.
         -2   -1    0    0    0  501 -0.00000000000E+00 -0.00000000000E+00 -0.78679288209E+03  0.78679288209E+03  0.00000000000E+00 0.  1.
         23    2    1    2    0    0  0.76610811906E+03  0.70150004512E+02 -0.14331164249E+03  0.78518564910E+03  0.64308657697E+02 0.  0.
        254    2    1    2    0    0 -0.76610811906E+03 -0.70150004512E+02  0.75718008995E+03  0.14022685625E+04  0.89509371555E+03 0.  0.
        -24    2    4    4    0    0 -0.79122392347E+03  0.22200228168E+02  0.18506322200E+03  0.81689882109E+03  0.80914402664E+02 0.  0.
         24    2    4    4    0    0  0.25115804408E+02 -0.92350232680E+02  0.57211686794E+03  0.58536974144E+03  0.78617138698E+02 0.  0.
         11    1    3    3    0    0  0.74363013134E+03  0.56714870512E+02 -0.13743710624E+03  0.75834774803E+03  0.00000000000E+00 0.  1.
        -11    1    3    3    0    0  0.22477987722E+02  0.13435133999E+02 -0.58745362509E+01  0.26837901069E+02  0.00000000000E+00 0. -1.
          2    1    6    6  502    0  0.16564316084E+02 -0.10484498484E+03  0.53210879756E+03  0.54259249889E+03  0.00000000000E+00 0. -1.
          1    1    5    5  503    0 -0.24268379616E+03  0.27845920386E+02  0.88986942719E+02  0.25997979955E+03  0.00000000000E+00 0. -1.
         -2    1    5    5    0  503 -0.54854012731E+03 -0.56456922180E+01  0.96076279285E+02  0.55691902154E+03  0.00000000000E+00 0.  1.
         -1    1    6    6    0  502  0.85514883237E+01  0.12494752155E+02  0.40008070384E+02  0.42777242546E+02  0.00000000000E+00 0.  1.
<mgrwt>
<rscale>  0 0.20995527E+04</rscale>
<asrwt>0</asrwt>
<pdfrwt beam="1">  1        2 0.21548636E+00 0.20995527E+04</pdfrwt>
<pdfrwt beam="2">  1       -2 0.12104506E+00 0.20995527E+04</pdfrwt>
<totfact> 0.69252880E+00</totfact>
</mgrwt>
</event>
<event>
12    1  0.1598876E-007  0.1786388E+04  0.7818608E-02  0.8713572E-01
          1   -1    0    0  501    0  0.00000000000E+00  0.00000000000E+00  0.15715234663E+04  0.15715234663E+04  0.00000000000E+00 0. -1.
         -1   -1    0    0    0  501 -0.00000000000E+00 -0.00000000000E+00 -0.50765727487E+03  0.50765727487E+03  0.00000000000E+00 0.  1.
         23    2    1    2    0    0 -0.19736236866E+03 -0.11584066264E+03  0.10939908285E+04  0.11214181594E+04  0.91606722881E+02 0.  0.
        254    2    1    2    0    0  0.19736236866E+03  0.11584066264E+03 -0.30124637069E+02  0.95776258179E+03  0.92953251995E+03 0.  0.
        -24    2    4    4    0    0 -0.32086840337E+03  0.10013816856E+03  0.18428948267E+03  0.39127866642E+03  0.78435937446E+02 0.  0.
         24    2    4    4    0    0  0.51823077203E+03  0.15702494083E+02 -0.21441411974E+03  0.56648391538E+03  0.78236246311E+02 0.  0.
         11    1    3    3    0    0 -0.15616903783E+03 -0.52582622857E+02  0.85688540497E+03  0.87258598308E+03  0.00000000000E+00 0. -1.
        -11    1    3    3    0    0 -0.41193330825E+02 -0.63258039784E+02  0.23710542352E+03  0.24883217630E+03  0.00000000000E+00 0.  1.
          4    1    6    6  502    0  0.99976857926E+02 -0.23796303659E+02 -0.25724576983E+02  0.10594050240E+03  0.00000000000E+00 0. -1.
          1    1    5    5  503    0 -0.52363283177E+02 -0.40398114504E+01  0.53485808528E+02  0.74959757307E+02  0.00000000000E+00 0. -1.
         -2    1    5    5    0  503 -0.26850512020E+03  0.10417798001E+03  0.13080367415E+03  0.31631890911E+03  0.00000000000E+00 0.  1.
         -3    1    6    6    0  502  0.41825391410E+03  0.39498797742E+02 -0.18868954276E+03  0.46054341297E+03  0.00000000000E+00 0.  1.
<mgrwt>
<rscale>  0 0.17863878E+04</rscale>
<asrwt>0</asrwt>
<pdfrwt beam="1">  1        1 0.24177284E+00 0.17863878E+04</pdfrwt>
<pdfrwt beam="2">  1       -1 0.78101120E-01 0.17863878E+04</pdfrwt>
<totfact> 0.90527707E+00</totfact>
</mgrwt>
</event>
<event>
12    1  0.1598876E-007  0.2832478E+04  0.7818608E-02  0.8293256E-01
          2   -1    0    0  501    0  0.00000000000E+00  0.00000000000E+00  0.13496698333E+04  0.13496698333E+04  0.00000000000E+00 0. -1.
         -2   -1    0    0    0  501 -0.00000000000E+00 -0.00000000000E+00 -0.14860911859E+04  0.14860911859E+04  0.00000000000E+00 0.  1.
         23    2    1    2    0    0  0.11536948497E+03 -0.81275905005E+03 -0.10350212507E+04  0.13241657986E+04  0.90877286541E+02 0.  0.
        254    2    1    2    0    0 -0.11536948497E+03  0.81275905005E+03  0.89859989814E+03  0.15115952206E+04  0.89641003033E+03 0.  0.
        -24    2    4    4    0    0 -0.83881520349E+02  0.83912503719E+03  0.10419848124E+04  0.13429258781E+04  0.80935945012E+02 0.  0.
         24    2    4    4    0    0 -0.31487964623E+02 -0.26365987141E+02 -0.14338491425E+03  0.16866934254E+03  0.78762023100E+02 0.  0.
         13    1    3    3    0    0  0.59823370548E+02 -0.16721428890E+03 -0.23983460117E+03  0.29842937187E+03  0.00000000000E+00 0. -1.
        -13    1    3    3    0    0  0.55546114424E+02 -0.64554476115E+03 -0.79518664954E+03  0.10257364267E+04  0.00000000000E+00 0.  1.
          2    1    6    6  502    0 -0.29914012052E+02 -0.53044957887E+02 -0.11166609904E+03  0.12719250508E+03  0.00000000000E+00 0. -1.
          3    1    5    5  503    0 -0.60157814756E+02  0.26533923693E+03  0.36313670540E+03  0.45375339133E+03  0.00000000000E+00 0. -1.
         -4    1    5    5    0  503 -0.23723705593E+02  0.57378580026E+03  0.67884810699E+03  0.88917248672E+03  0.00000000000E+00 0.  1.
         -1    1    6    6    0  502 -0.15739525710E+01  0.26678970747E+02 -0.31718815214E+02  0.41476837456E+02  0.00000000000E+00 0.  1.
<mgrwt>
<rscale>  0 0.28324777E+04</rscale>
<asrwt>0</asrwt>
<pdfrwt beam="1">  1        2 0.20764151E+00 0.28324777E+04</pdfrwt>
<pdfrwt beam="2">  1       -2 0.22862941E+00 0.28324777E+04</pdfrwt>
<totfact> 0.11707470E+00</totfact>
</mgrwt>
</event>
<event>
12    1  0.1598876E-007  0.2557338E+04  0.7818608E-02  0.8382839E-01
          2   -1    0    0  501    0  0.00000000000E+00  0.00000000000E+00  0.23345080853E+04  0.23345080853E+04  0.00000000000E+00 0. -1.
         -2   -1    0    0    0  501 -0.00000000000E+00 -0.00000000000E+00 -0.70035937600E+03  0.70035937600E+03  0.00000000000E+00 0.  1.
         23    2    1    2    0    0 -0.72414840183E+03  0.82999859295E+03  0.85122308989E+03  0.13949589942E+04  0.89673154667E+02 0.  0.
        254    2    1    2    0    0  0.72414840183E+03 -0.82999859295E+03  0.78292561944E+03  0.16399084671E+04  0.92899875281E+03 0.  0.
        -24    2    4    4    0    0  0.17291912596E+03 -0.76100340394E+03  0.73907290576E+03  0.10773860035E+04  0.74193231194E+02 0.  0.
         24    2    4    4    0    0  0.55122927586E+03 -0.68995189011E+02  0.43852713687E+02  0.56252246361E+03  0.76775066891E+02 0.  0.
         11    1    3    3    0    0 -0.69936429632E+03  0.80997870070E+03  0.84235610059E+03  0.13618882901E+04  0.00000000000E+00 0. -1.
        -11    1    3    3    0    0 -0.24784105511E+02  0.20019892247E+02  0.88669892948E+01  0.33070704116E+02  0.00000000000E+00 0.  1.
          4    1    6    6  502    0  0.13880193173E+03 -0.39727547938E+02  0.36826974787E+02  0.14899825633E+03  0.00000000000E+00 0. -1.
          3    1    5    5  503    0  0.71402009041E+02 -0.46667932722E+03  0.46355437203E+03  0.66164227282E+03  0.00000000000E+00 0. -1.
         -4    1    5    5    0  503  0.10151711692E+03 -0.29432407672E+03  0.27551853372E+03  0.41574373067E+03  0.00000000000E+00 0.  1.
         -3    1    6    6    0  502  0.41242734413E+03 -0.29267641073E+02  0.70257388994E+01  0.41352420728E+03  0.00000000000E+00 0.  1.
<mgrwt>
<rscale>  0 0.25573382E+04</rscale>
<asrwt>0</asrwt>
<pdfrwt beam="1">  1        2 0.35915509E+00 0.25573382E+04</pdfrwt>
<pdfrwt beam="2">  1       -2 0.10774760E+00 0.25573382E+04</pdfrwt>
<totfact> 0.26565432E+00</totfact>
</mgrwt>
</event>
<event>
12    1  0.1598876E-007  0.1526185E+04  0.7818608E-02  0.8867224E-01
          2   -1    0    0  501    0  0.00000000000E+00  0.00000000000E+00  0.22159636499E+04  0.22159636499E+04  0.00000000000E+00 0. -1.
         -2   -1    0    0    0  501 -0.00000000000E+00 -0.00000000000E+00 -0.26277969311E+03  0.26277969311E+03  0.00000000000E+00 0.  1.
         23    2    1    2    0    0 -0.44686992781E+02 -0.42754299216E+03  0.10339474629E+04  0.11260766848E+04  0.11921160375E+03 0.  0.
        254    2    1    2    0    0  0.44686992781E+02  0.42754299216E+03  0.91923649388E+03  0.13526666582E+04  0.89438326188E+03 0.  0.
        -24    2    4    4    0    0  0.41064903874E+03  0.10722590337E+03  0.67721248110E+03  0.80365106978E+03  0.84310556993E+02 0.  0.
         24    2    4    4    0    0 -0.36596204596E+03  0.32031708879E+03  0.24202401277E+03  0.54901558845E+03  0.79443295197E+02 0.  0.
         11    1    3    3    0    0  0.12808581249E+02 -0.15848269250E+03  0.51103769333E+03  0.53520122157E+03  0.00000000000E+00 0. -1.
        -11    1    3    3    0    0 -0.57495574029E+02 -0.26906029966E+03  0.52290976961E+03  0.59087546322E+03  0.00000000000E+00 0.  1.
          4    1    6    6  502    0 -0.35395413216E+03  0.30027403181E+03  0.24598760880E+03  0.52531697625E+03  0.00000000000E+00 0. -1.
          3    1    5    5  503    0  0.32190042510E+03  0.64055875806E+02  0.46018059970E+03  0.56523377752E+03  0.00000000000E+00 0. -1.
         -2    1    5    5    0  503  0.88748613632E+02  0.43170027565E+02  0.21703188141E+03  0.23841729226E+03  0.00000000000E+00 0.  1.
         -3    1    6    6    0  502 -0.12007913793E+02  0.20043056977E+02 -0.39635960264E+01  0.23698612198E+02  0.00000000000E+00 0.  1.
<mgrwt>
<rscale>  0 0.15261851E+04</rscale>
<asrwt>0</asrwt>
<pdfrwt beam="1">  1        2 0.34091747E+00 0.15261851E+04</pdfrwt>
<pdfrwt beam="2">  1       -2 0.40427647E-01 0.15261851E+04</pdfrwt>
<totfact> 0.28280118E+01</totfact>
</mgrwt>
</event>
<event>
12    1  0.1598876E-007  0.1389944E+04  0.7818608E-02  0.8961130E-01
          1   -1    0    0  501    0  0.00000000000E+00  0.00000000000E+00  0.62296449259E+03  0.62296449259E+03  0.00000000000E+00 0. -1.
         -1   -1    0    0    0  501 -0.00000000000E+00 -0.00000000000E+00 -0.77530220059E+03  0.77530220059E+03  0.00000000000E+00 0.  1.
         23    2    1    2    0    0  0.19363886065E+03 -0.19105545640E+03  0.22247466055E+03  0.36407563536E+03  0.95172989324E+02 0.  0.
        254    2    1    2    0    0 -0.19363886065E+03  0.19105545640E+03 -0.37481236855E+03  0.10341910578E+04  0.92469921417E+03 0.  0.
        -24    2    4    4    0    0 -0.33359686741E+03 -0.27951619908E+03 -0.29169533892E+03  0.53003406709E+03  0.80210760098E+02 0.  0.
         24    2    4    4    0    0  0.13995800676E+03  0.47057165548E+03 -0.83117029626E+02  0.50415699073E+03  0.78993063552E+02 0.  0.
         13    1    3    3    0    0  0.56607643615E+02 -0.11848612114E+03  0.81774975229E+02  0.15469496692E+03  0.00000000000E+00 0. -1.
        -13    1    3    3    0    0  0.13703121704E+03 -0.72569335264E+02  0.14069968532E+03  0.20938066843E+03  0.00000000000E+00 0.  1.
          2    1    6    6  502    0 -0.83994641788E+01  0.60825208471E+02 -0.13219529403E+02  0.62809338013E+02  0.00000000000E+00 0. -1.
          3    1    5    5  503    0 -0.32267512963E+00 -0.16764177415E+02 -0.20096584310E+02  0.26172780986E+02  0.00000000000E+00 0. -1.
         -4    1    5    5    0  503 -0.33327419228E+03 -0.26275202166E+03 -0.27159875461E+03  0.50386128611E+03  0.00000000000E+00 0.  1.
         -1    1    6    6    0  502  0.14835747094E+03  0.40974644701E+03 -0.69897500223E+02  0.44134765272E+03  0.00000000000E+00 0.  1.
<mgrwt>
<rscale>  0 0.13899435E+04</rscale>
<asrwt>0</asrwt>
<pdfrwt beam="1">  1        1 0.95840691E-01 0.13899435E+04</pdfrwt>
<pdfrwt beam="2">  1       -1 0.11927726E+00 0.13899435E+04</pdfrwt>
<totfact> 0.19888061E+01</totfact>
</mgrwt>
</event>
<event>
12    1  0.1598876E-007  0.3846721E+04  0.7818608E-02  0.8036202E-01
          2   -1    0    0  501    0  0.00000000000E+00  0.00000000000E+00  0.26595287217E+04  0.26595287217E+04  0.00000000000E+00 0.  1.
         -2   -1    0    0    0  501 -0.00000000000E+00 -0.00000000000E+00 -0.13909663145E+04  0.13909663145E+04  0.00000000000E+00 0. -1.
         23    2    1    2    0    0 -0.13971956781E+04 -0.79059145482E+03 -0.29635865400E+03  0.16351509744E+04  0.93271891792E+02 0.  0.
        254    2    1    2    0    0  0.13971956781E+04  0.79059145482E+03  0.15649210612E+04  0.24153440618E+04  0.89873154939E+03 0.  0.
        -24    2    4    4    0    0  0.68194081516E+03 -0.50966439042E+02  0.86328649056E+03  0.11041907798E+04  0.79579269400E+02 0.  0.
         24    2    4    4    0    0  0.71525486293E+03  0.84155789386E+03  0.70163457062E+03  0.13111532820E+04  0.83801256342E+02 0.  0.
         11    1    3    3    0    0 -0.10587114651E+04 -0.55546382834E+03 -0.23534454522E+03  0.12185225012E+04  0.00000000000E+00 0. -1.
        -11    1    3    3    0    0 -0.33848421296E+03 -0.23512762648E+03 -0.61014108778E+02  0.41662847313E+03  0.00000000000E+00 0.  1.
          4    1    6    6  502    0  0.41654120245E+03  0.48034936917E+03  0.35512767534E+03  0.72825665503E+03  0.00000000000E+00 0. -1.
          1    1    5    5  503    0  0.45837151929E+03  0.33489602652E+01  0.57574124460E+03  0.73593046272E+03  0.00000000000E+00 0. -1.
         -2    1    5    5    0  503  0.22356929588E+03 -0.54315399308E+02  0.28754524596E+03  0.36826031708E+03  0.00000000000E+00 0.  1.
         -3    1    6    6    0  502  0.29871366048E+03  0.36120852469E+03  0.34650689528E+03  0.58289662698E+03  0.00000000000E+00 0.  1.
<mgrwt>
<rscale>  0 0.38467206E+04</rscale>
<asrwt>0</asrwt>
<pdfrwt beam="1">  1        2 0.40915826E+00 0.38467206E+04</pdfrwt>
<pdfrwt beam="2">  1       -2 0.21399482E+00 0.38467206E+04</pdfrwt>
<totfact> 0.24194776E-01</totfact>
</mgrwt>
</event>
<event>
12    1  0.1598876E-007  0.1989164E+04  0.7818608E-02  0.8611704E-01
         -2   -1    0    0    0  501 -0.00000000000E+00  0.00000000000E+00  0.49477643865E+03  0.49477643865E+03  0.00000000000E+00 0.  1.
          2   -1    0    0  501    0  0.00000000000E+00 -0.00000000000E+00 -0.19992734970E+04  0.19992734970E+04  0.00000000000E+00 0. -1.
         23    2    1    2    0    0 -0.26308308536E+03 -0.46766278560E+03 -0.12620364958E+04  0.13741898190E+04  0.87979265604E+02 0.  0.
        254    2    1    2    0    0  0.26308308536E+03  0.46766278560E+03 -0.24246056252E+03  0.11198601166E+04  0.95256410047E+03 0.  0.
        -24    2    4    4    0    0  0.16159021901E+03 -0.16197615030E+03 -0.39105607330E+03  0.46010666379E+03  0.80159949198E+02 0.  0.
         24    2    4    4    0    0  0.10149286636E+03  0.62963893590E+03  0.14859551078E+03  0.65975345280E+03  0.80299446652E+02 0.  0.
         11    1    3    3    0    0 -0.24317571159E+03 -0.40965985680E+03 -0.10414839137E+04  0.11452704342E+04  0.00000000000E+00 0. -1.
        -11    1    3    3    0    0 -0.19907373773E+02 -0.58002928796E+02 -0.22055258204E+03  0.22891938477E+03  0.00000000000E+00 0.  1.
          4    1    6    6  502    0  0.37817772034E+02  0.70393718167E+02  0.16238030825E+02  0.81542216576E+02  0.00000000000E+00 0. -1.
          3    1    5    5  503    0  0.38354089650E+02 -0.53744150424E+02 -0.54127285648E+02  0.85377004804E+02  0.00000000000E+00 0. -1.
         -4    1    5    5    0  503  0.12323612936E+03 -0.10823199988E+03 -0.33692878765E+03  0.37472965899E+03  0.00000000000E+00 0.  1.
         -3    1    6    6    0  502  0.63675094323E+02  0.55924521773E+03  0.13235747995E+03  0.57821123622E+03  0.00000000000E+00 0.  1.
<mgrwt>
<rscale>  0 0.19891641E+04</rscale>
<asrwt>0</asrwt>
<pdfrwt beam="1">  1        2 0.30758055E+00 0.19891641E+04</pdfrwt>
<pdfrwt beam="2">  1       -2 0.76119450E-01 0.19891641E+04</pdfrwt>
<totfact> 0.96072126E+00</totfact>
</mgrwt>
</event>
<event>
12    1  0.1598876E-007  0.1461588E+04  0.7818608E-02  0.8910406E-01
          1   -1    0    0  501    0  0.00000000000E+00  0.00000000000E+00  0.75849128286E+03  0.75849128286E+03  0.00000000000E+00 0. -1.
         -1   -1    0    0    0  501 -0.00000000000E+00 -0.00000000000E+00 -0.70410837552E+03  0.70410837552E+03  0.00000000000E+00 0.  1.
         23    2    1    2    0    0  0.26116895618E+03  0.18426896529E+03  0.33518066020E+03  0.47405361955E+03  0.10107662436E+03 0.  0.
        254    2    1    2    0    0 -0.26116895618E+03 -0.18426896529E+03 -0.28079775286E+03  0.98854603882E+03  0.89230690775E+03 0.  0.
        -24    2    4    4    0    0 -0.56157271648E+03 -0.89861511900E+02 -0.32479512712E+03  0.66077783027E+03  0.87729465722E+02 0.  0.
         24    2    4    4    0    0  0.30040376030E+03 -0.94407453393E+02  0.43997374257E+02  0.32776820856E+03  0.79630667096E+02 0.  0.
         11    1    3    3    0    0  0.24898988723E+03  0.18441606731E+03  0.34083669387E+03  0.46062446929E+03  0.00000000000E+00 0. -1.
        -11    1    3    3    0    0  0.12179068959E+02 -0.14710201781E+00 -0.56560336712E+01  0.13429150256E+02  0.00000000000E+00 0.  1.
          2    1    6    6  502    0  0.25547915582E+03 -0.81535111554E+02  0.71725253898E+01  0.26827042065E+03  0.00000000000E+00 0. -1.
          3    1    5    5  503    0 -0.20910543690E+03 -0.34889217343E+02 -0.73305809728E+02  0.22431246726E+03  0.00000000000E+00 0. -1.
         -4    1    5    5    0  503 -0.35246727958E+03 -0.54972294557E+02 -0.25148931739E+03  0.43646536301E+03  0.00000000000E+00 0.  1.
         -1    1    6    6    0  502  0.44924604477E+02 -0.12872341839E+02  0.36824848867E+02  0.59497787908E+02  0.00000000000E+00 0.  1.
<mgrwt>
<rscale>  0 0.14615883E+04</rscale>
<asrwt>0</asrwt>
<pdfrwt beam="1">  1        1 0.11669097E+00 0.14615883E+04</pdfrwt>
<pdfrwt beam="2">  1       -1 0.10832436E+00 0.14615883E+04</pdfrwt>
<totfact> 0.18485650E+01</totfact>
</mgrwt>
</event>
<event>
12    1  0.1598876E-007  0.1912487E+04  0.7818608E-02  0.8648666E-01
         -2   -1    0    0    0  501 -0.00000000000E+00  0.00000000000E+00  0.99185800019E+03  0.99185800019E+03  0.00000000000E+00 0. -1.
          2   -1    0    0  501    0  0.00000000000E+00 -0.00000000000E+00 -0.92190762878E+03  0.92190762878E+03  0.00000000000E+00 0.  1.
         23    2    1    2    0    0  0.11934994448E+03  0.23347239602E+03 -0.66626850254E+03  0.72192550300E+03  0.92243945362E+02 0.  0.
        254    2    1    2    0    0 -0.11934994448E+03 -0.23347239602E+03  0.73621887394E+03  0.11918401260E+04  0.89983936709E+03 0.  0.
        -24    2    4    4    0    0 -0.34914999035E+03 -0.37864615276E+03  0.15322614177E+03  0.54359750990E+03  0.82105891926E+02 0.  0.
         24    2    4    4    0    0  0.22980004587E+03  0.14517375674E+03  0.58299273218E+03  0.64824261607E+03  0.80339795781E+02 0.  0.
         13    1    3    3    0    0  0.23865394939E+02  0.96690932853E+02 -0.15597898529E+03  0.18506252301E+03  0.00000000000E+00 0. -1.
        -13    1    3    3    0    0  0.95484549540E+02  0.13678146316E+03 -0.51028951725E+03  0.53686297999E+03  0.00000000000E+00 0.  1.
          2    1    6    6  502    0  0.17001498903E+03  0.13491607459E+03  0.39494996664E+03  0.45065831827E+03  0.00000000000E+00 0. -1.
          1    1    5    5  503    0 -0.31417404689E+03 -0.36966741580E+03  0.13779125570E+03  0.50432703695E+03  0.00000000000E+00 0. -1.
         -2    1    5    5    0  503 -0.34975943457E+02 -0.89787369523E+01  0.15434886068E+02  0.39270472952E+02  0.00000000000E+00 0.  1.
         -1    1    6    6    0  502  0.59785056840E+02  0.10257682147E+02  0.18804276554E+03  0.19758429780E+03  0.00000000000E+00 0.  1.
<mgrwt>
<rscale>  0 0.19124868E+04</rscale>
<asrwt>0</asrwt>
<pdfrwt beam="1">  1        2 0.14183194E+00 0.19124868E+04</pdfrwt>
<pdfrwt beam="2">  1       -2 0.15259354E+00 0.19124868E+04</pdfrwt>
<totfact> 0.75892173E+00</totfact>
</mgrwt>
</event>
<event>
12    1  0.1598876E-007  0.1429149E+04  0.7818608E-02  0.8932985E-01
          1   -1    0    0  501    0  0.00000000000E+00  0.00000000000E+00  0.15485191472E+04  0.15485191472E+04  0.00000000000E+00 0. -1.
         -1   -1    0    0    0  501 -0.00000000000E+00 -0.00000000000E+00 -0.32974534193E+03  0.32974534193E+03  0.00000000000E+00 0.  1.
         23    2    1    2    0    0  0.18378753929E+03 -0.17587609073E+03  0.84783403944E+03  0.88970122790E+03  0.89640714010E+02 0.  0.
        254    2    1    2    0    0 -0.18378753929E+03  0.17587609073E+03  0.37093976583E+03  0.98856326122E+03  0.88031287204E+03 0.  0.
        -24    2    4    4    0    0  0.27658777385E+03 -0.24870878077E+02  0.38241076469E+03  0.47949288061E+03  0.80969576872E+02 0.  0.
         24    2    4    4    0    0 -0.46037531314E+03  0.20074696880E+03 -0.11470998868E+02  0.50907038061E+03  0.82318249278E+02 0.  0.
         13    1    3    3    0    0  0.13839167712E+03 -0.15125612849E+03  0.54082480120E+03  0.57837888818E+03  0.00000000000E+00 0. -1.
        -13    1    3    3    0    0  0.45395862166E+02 -0.24619962232E+02  0.30700923824E+03  0.31132233972E+03  0.00000000000E+00 0.  1.
          4    1    6    6  502    0 -0.19251164107E+03  0.97512812970E+02 -0.43760171853E+02  0.22019181020E+03  0.00000000000E+00 0. -1.
          1    1    5    5  503    0  0.20593244444E+03 -0.42099433911E+02  0.23611954347E+03  0.31612176897E+03  0.00000000000E+00 0. -1.
         -2    1    5    5    0  503  0.70655329414E+02  0.17228555835E+02  0.14629122122E+03  0.16337111164E+03  0.00000000000E+00 0.  1.
         -3    1    6    6    0  502 -0.26786367208E+03  0.10323415583E+03  0.32289172985E+02  0.28887857041E+03  0.00000000000E+00 0.  1.
<mgrwt>
<rscale>  0 0.14291494E+04</rscale>
<asrwt>0</asrwt>
<pdfrwt beam="1">  1        1 0.23823371E+00 0.14291494E+04</pdfrwt>
<pdfrwt beam="2">  1       -1 0.50730053E-01 0.14291494E+04</pdfrwt>
<totfact> 0.22996887E+01</totfact>
</mgrwt>
</event>
<event>
12    1  0.1598876E-007  0.3559016E+04  0.7818608E-02  0.8099945E-01
          1   -1    0    0  501    0  0.00000000000E+00  0.00000000000E+00  0.27803919889E+04  0.27803919889E+04  0.00000000000E+00 0. -1.
         -1   -1    0    0    0  501 -0.00000000000E+00 -0.00000000000E+00 -0.11389214632E+04  0.11389214632E+04  0.00000000000E+00 0.  1.
         23    2    1    2    0    0 -0.53916551520E+03  0.15695276948E+04  0.64517438398E+03  0.17831342818E+04  0.95923113163E+02 0.  0.
        254    2    1    2    0    0  0.53916551520E+03 -0.15695276948E+04  0.99629614175E+03  0.21361791703E+04  0.90362536911E+03 0.  0.
        -24    2    4    4    0    0  0.72488750295E+03 -0.14532944483E+04  0.98662715335E+03  0.19019101367E+04  0.79387549049E+02 0.  0.
         24    2    4    4    0    0 -0.18572198775E+03 -0.11623324652E+03  0.96689883979E+01  0.23426903354E+03  0.82375156492E+02 0.  0.
         13    1    3    3    0    0 -0.48651819477E+03  0.14022812667E+04  0.60751928026E+03  0.16037993579E+04  0.00000000000E+00 0. -1.
        -13    1    3    3    0    0 -0.52647320435E+02  0.16724642818E+03  0.37655103726E+02  0.17933492389E+03  0.00000000000E+00 0.  1.
          2    1    6    6  502    0 -0.15062333948E+03 -0.57407568356E+02 -0.13987690551E+02  0.16179825335E+03  0.00000000000E+00 0. -1.
          3    1    5    5  503    0  0.33363023150E+03 -0.74285286937E+03  0.52007969837E+03  0.96624138266E+03  0.00000000000E+00 0. -1.
         -4    1    5    5    0  503  0.39125727145E+03 -0.71044157895E+03  0.46654745498E+03  0.93566875406E+03  0.00000000000E+00 0.  1.
         -1    1    6    6    0  502 -0.35098648268E+02 -0.58825678159E+02  0.23656678949E+02  0.72470780181E+02  0.00000000000E+00 0.  1.
<mgrwt>
<rscale>  0 0.35590157E+04</rscale>
<asrwt>0</asrwt>
<pdfrwt beam="1">  1        1 0.42775261E+00 0.35590157E+04</pdfrwt>
<pdfrwt beam="2">  1       -1 0.17521869E+00 0.35590157E+04</pdfrwt>
<totfact> 0.15739078E-01</totfact>
</mgrwt>
</event>
<event>
12    1  0.1598876E-007  0.1505227E+04  0.7818608E-02  0.8880984E-01
         -4   -1    0    0    0  501 -0.00000000000E+00  0.00000000000E+00  0.13392502802E+04  0.13392502802E+04  0.00000000000E+00 0. -1.
          4   -1    0    0  501    0  0.00000000000E+00 -0.00000000000E+00 -0.42294362135E+03  0.42294362135E+03  0.00000000000E+00 0.  1.
         23    2    1    2    0    0 -0.36118933258E+02 -0.35889785679E+03 -0.71040609832E+02  0.37665868353E+03  0.81931353513E+02 0.  0.
        254    2    1    2    0    0  0.36118933258E+02  0.35889785679E+03  0.98734726867E+03  0.13855352180E+04  0.90263002523E+03 0.  0.
        -24    2    4    4    0    0  0.19274793289E+03  0.10514866601E+03  0.10456061964E+04  0.10714254703E+04  0.80325667113E+02 0.  0.
         24    2    4    4    0    0 -0.15662899963E+03  0.25374919077E+03 -0.58258927707E+02  0.31410974776E+03  0.79683973521E+02 0.  0.
         11    1    3    3    0    0 -0.44515132957E+02 -0.11927183951E+03 -0.46904507499E+02  0.13567387953E+03  0.00000000000E+00 0. -1.
        -11    1    3    3    0    0  0.83961996990E+01 -0.23962601727E+03 -0.24136102333E+02  0.24098480400E+03  0.00000000000E+00 0.  1.
          4    1    6    6  502    0 -0.87531770860E+02  0.81048186554E+02 -0.34839004456E+00  0.11929266880E+03  0.00000000000E+00 0. -1.
          3    1    5    5  503    0  0.13555090069E+03  0.41005188461E+02  0.52460738836E+03  0.54338603596E+03  0.00000000000E+00 0. -1.
         -4    1    5    5    0  503  0.57197032205E+02  0.64143477553E+02  0.52099880802E+03  0.52803943429E+03  0.00000000000E+00 0.  1.
         -3    1    6    6    0  502 -0.69097228773E+02  0.17270100422E+03 -0.57910537662E+02  0.19481707896E+03  0.00000000000E+00 0.  1.
<mgrwt>
<rscale>  0 0.15052274E+04</rscale>
<asrwt>0</asrwt>
<pdfrwt beam="1">  1        4 0.65068250E-01 0.15052274E+04</pdfrwt>
<pdfrwt beam="2">  1       -4 0.20603850E+00 0.15052274E+04</pdfrwt>
<totfact> 0.51017748E-01</totfact>
</mgrwt>
</event>
<event>
12    1  0.1598876E-007  0.2188961E+04  0.7818608E-02  0.8523037E-01
          2   -1    0    0  501    0  0.00000000000E+00  0.00000000000E+00  0.22607965282E+04  0.22607965282E+04  0.00000000000E+00 0. -1.
         -2   -1    0    0    0  501 -0.00000000000E+00 -0.00000000000E+00 -0.52985189230E+03  0.52985189230E+03  0.00000000000E+00 0.  1.
         23    2    1    2    0    0  0.37581518186E+03  0.69228929353E+02 -0.32509310791E+03  0.51000483304E+03  0.91595334686E+02 0.  0.
        254    2    1    2    0    0 -0.37581518186E+03 -0.69228929353E+02  0.20560377438E+04  0.22806435874E+04  0.90995289628E+03 0.  0.
        -24    2    4    4    0    0  0.11688818786E+03  0.31113943837E+03  0.53338664626E+03  0.63377143363E+03  0.81818806597E+02 0.  0.
         24    2    4    4    0    0 -0.49270336972E+03 -0.38036836772E+03  0.15226510975E+04  0.16468721538E+04  0.79276859586E+02 0.  0.
         11    1    3    3    0    0  0.28615545093E+02  0.29794285582E+02 -0.19014941126E+02  0.45476552863E+02  0.00000000000E+00 0. -1.
        -11    1    3    3    0    0  0.34719963677E+03  0.39434643771E+02 -0.30607816678E+03  0.46452828018E+03  0.00000000000E+00 0.  1.
          2    1    6    6  502    0 -0.46092066747E+03 -0.35054665987E+03  0.13530185433E+04  0.14717302745E+04  0.00000000000E+00 0. -1.
          3    1    5    5  503    0  0.67067099926E+02  0.13835855205E+03  0.17605195663E+03  0.23374211484E+03  0.00000000000E+00 0. -1.
         -4    1    5    5    0  503  0.49821087934E+02  0.17278088632E+03  0.35733468963E+03  0.40002931880E+03  0.00000000000E+00 0.  1.
         -1    1    6    6    0  502 -0.31782702249E+02 -0.29821707847E+02  0.16963255423E+03  0.17514187927E+03  0.00000000000E+00 0.  1.
<mgrwt>
<rscale>  0 0.21889608E+04</rscale>
<asrwt>0</asrwt>
<pdfrwt beam="1">  1        2 0.34781485E+00 0.21889608E+04</pdfrwt>
<pdfrwt beam="2">  1       -2 0.81515677E-01 0.21889608E+04</pdfrwt>
<totfact> 0.57835699E+00</totfact>
</mgrwt>
</event>
<event>
12    1  0.1598876E-007  0.2247135E+04  0.7818608E-02  0.8499062E-01
         -1   -1    0    0    0  501 -0.00000000000E+00  0.00000000000E+00  0.44825173849E+03  0.44825173849E+03  0.00000000000E+00 0.  1.
          1   -1    0    0  501    0  0.00000000000E+00 -0.00000000000E+00 -0.28162824953E+04  0.28162824953E+04  0.00000000000E+00 0. -1.
         23    2    1    2    0    0  0.39944395106E+03 -0.54987304981E+03 -0.50187112735E+02  0.68724535831E+03  0.88722011269E+02 0.  0.
        254    2    1    2    0    0 -0.39944395106E+03  0.54987304981E+03 -0.23178436440E+04  0.25772888754E+04  0.89894546460E+03 0.  0.
        -24    2    4    4    0    0 -0.16288080064E+03  0.74750812435E+02 -0.18649256461E+04  0.18749923219E+04  0.74368693488E+02 0.  0.
         24    2    4    4    0    0 -0.23656315042E+03  0.47512223738E+03 -0.45291799798E+03  0.70229655357E+03  0.79890372844E+02 0.  0.
         13    1    3    3    0    0  0.77466701858E+02 -0.69387044797E+02  0.15458692442E+02  0.10514096754E+03  0.00000000000E+00 0.  1.
        -13    1    3    3    0    0  0.32197724921E+03 -0.48048600502E+03 -0.65645805177E+02  0.58210439078E+03  0.00000000000E+00 0. -1.
          2    1    6    6  502    0 -0.16367079351E+03  0.36315408981E+03 -0.37791044273E+03  0.54907679273E+03  0.00000000000E+00 0. -1.
          1    1    5    5  503    0 -0.95703269115E+02  0.33773602531E+02 -0.13797017875E+04  0.13834293601E+04  0.00000000000E+00 0. -1.
         -2    1    5    5    0  503 -0.67177531524E+02  0.40977209904E+02 -0.48522385852E+03  0.49156296173E+03  0.00000000000E+00 0.  1.
         -1    1    6    6    0  502 -0.72892356916E+02  0.11196814757E+03 -0.75007555251E+02  0.15321976084E+03  0.00000000000E+00 0.  1.
<mgrwt>
<rscale>  0 0.22471346E+04</rscale>
<asrwt>0</asrwt>
<pdfrwt beam="1">  1        1 0.43327424E+00 0.22471346E+04</pdfrwt>
<pdfrwt beam="2">  1       -1 0.68961805E-01 0.22471346E+04</pdfrwt>
<totfact> 0.15679820E+00</totfact>
</mgrwt>
</event>
<event>
12    1  0.1598876E-007  0.1315071E+04  0.7818608E-02  0.9017698E-01
          1   -1    0    0  501    0  0.00000000000E+00  0.00000000000E+00  0.33431137360E+03  0.33431137360E+03  0.00000000000E+00 0. -1.
         -1   -1    0    0    0  501 -0.00000000000E+00 -0.00000000000E+00 -0.12932649405E+04  0.12932649405E+04  0.00000000000E+00 0.  1.
         23    2    1    2    0    0 -0.45470993717E+02 -0.19902912605E+03 -0.61559871566E+03  0.65535526264E+03  0.94066663960E+02 0.  0.
        254    2    1    2    0    0  0.45470993717E+02  0.19902912605E+03 -0.34335485123E+03  0.97222105144E+03  0.88636392904E+03 0.  0.
        -24    2    4    4    0    0  0.26977752814E+03 -0.14253792948E+03 -0.44332137355E+03  0.54373384719E+03  0.77560816792E+02 0.  0.
         24    2    4    4    0    0 -0.22430653443E+03  0.34156705553E+03  0.99966522323E+02  0.42848720425E+03  0.81403340283E+02 0.  0.
         13    1    3    3    0    0 -0.40775460948E+02 -0.13224738035E+03 -0.27075002358E+03  0.30406838556E+03  0.00000000000E+00 0.  1.
        -13    1    3    3    0    0 -0.46955327688E+01 -0.66781745697E+02 -0.34484869208E+03  0.35128687709E+03  0.00000000000E+00 0. -1.
          2    1    6    6  502    0 -0.88441310506E+02  0.78720843809E+02  0.49490987913E+02  0.12832846348E+03  0.00000000000E+00 0. -1.
          3    1    5    5  503    0  0.18538847676E+03 -0.66303265612E+02 -0.32216492456E+03  0.37756489371E+03  0.00000000000E+00 0. -1.
         -4    1    5    5    0  503  0.84389051386E+02 -0.76234663864E+02 -0.12115644899E+03  0.16616895348E+03  0.00000000000E+00 0.  1.
         -1    1    6    6    0  502 -0.13586522392E+03  0.26284621172E+03  0.50475534410E+02  0.30015874077E+03  0.00000000000E+00 0.  1.
<mgrwt>
<rscale>  0 0.13150714E+04</rscale>
<asrwt>0</asrwt>
<pdfrwt beam="1">  1        1 0.51432518E-01 0.13150714E+04</pdfrwt>
<pdfrwt beam="2">  1       -1 0.19896384E+00 0.13150714E+04</pdfrwt>
<totfact> 0.11424073E+01</totfact>
</mgrwt>
</event>
<event>
12    1  0.1598876E-007  0.1467119E+04  0.7818608E-02  0.8906617E-01
         -2   -1    0    0    0  501 -0.00000000000E+00  0.00000000000E+00  0.43622967702E+03  0.43622967702E+03  0.00000000000E+00 0. -1.
          2   -1    0    0  501    0  0.00000000000E+00 -0.00000000000E+00 -0.12335469275E+04  0.12335469275E+04  0.00000000000E+00 0.  1.
         23    2    1    2    0    0  0.14947082738E+03 -0.34371632385E+03 -0.51417310164E+03  0.64243029629E+03  0.88658150338E+02 0.  0.
        254    2    1    2    0    0 -0.14947082738E+03  0.34371632385E+03 -0.28314414882E+03  0.10273463082E+04  0.91366700086E+03 0.  0.
        -24    2    4    4    0    0  0.74399856379E+02  0.52113122404E+03  0.98955193660E+02  0.54315050614E+03  0.90040272451E+02 0.  0.
         24    2    4    4    0    0 -0.22387068376E+03 -0.17741490019E+03 -0.38209934248E+03  0.48419580207E+03  0.82774013794E+02 0.  0.
         13    1    3    3    0    0  0.16559832012E+02 -0.11194295873E+03 -0.20196654755E+03  0.23150797043E+03  0.00000000000E+00 0. -1.
        -13    1    3    3    0    0  0.13291099537E+03 -0.23177336512E+03 -0.31220655409E+03  0.41092232586E+03  0.00000000000E+00 0.  1.
          4    1    6    6  502    0 -0.37619562295E+02 -0.34055067258E+02 -0.24693301622E+02  0.56433484902E+02  0.00000000000E+00 0. -1.
          3    1    5    5  503    0  0.62286387141E+02  0.14597566524E+03  0.29123127552E+02  0.16135874759E+03  0.00000000000E+00 0. -1.
         -4    1    5    5    0  503  0.12113469238E+02  0.37515555880E+03  0.69832066108E+02  0.38179175855E+03  0.00000000000E+00 0.  1.
         -3    1    6    6    0  502 -0.18625112147E+03 -0.14335983294E+03 -0.35740604085E+03  0.42776231716E+03  0.00000000000E+00 0.  1.
<mgrwt>
<rscale>  0 0.14671193E+04</rscale>
<asrwt>0</asrwt>
<pdfrwt beam="1">  1        2 0.18977645E+00 0.14671193E+04</pdfrwt>
<pdfrwt beam="2">  1       -2 0.67112259E-01 0.14671193E+04</pdfrwt>
<totfact> 0.35697874E+01</totfact>
</mgrwt>
</event>
<event>
12    1  0.1598876E-007  0.1679436E+04  0.7818608E-02  0.8773180E-01
          1   -1    0    0  501    0  0.00000000000E+00  0.00000000000E+00  0.52616879647E+03  0.52616879647E+03  0.00000000000E+00 0. -1.
         -1   -1    0    0    0  501 -0.00000000000E+00 -0.00000000000E+00 -0.13401150373E+04  0.13401150373E+04  0.00000000000E+00 0.  1.
         23    2    1    2    0    0 -0.33183298235E+03  0.17093647708E+03  0.21269264879E+03  0.43896591042E+03  0.90113818509E+02 0.  0.
        254    2    1    2    0    0  0.33183298235E+03 -0.17093647708E+03 -0.10266388897E+04  0.14273179234E+04  0.91864935493E+03 0.  0.
        -24    2    4    4    0    0  0.29214973609E+03 -0.50933263241E+03 -0.41668801507E+03  0.72437942179E+03  0.79532673009E+02 0.  0.
         24    2    4    4    0    0  0.39683246264E+02  0.33839615533E+03 -0.60995087458E+03  0.70293850160E+03  0.77432226203E+02 0.  0.
         13    1    3    3    0    0 -0.26766559171E+03  0.12031100619E+03  0.12466241127E+03  0.31884216155E+03  0.00000000000E+00 0. -1.
        -13    1    3    3    0    0 -0.64167390639E+02  0.50625470892E+02  0.88030237521E+02  0.12012374887E+03  0.00000000000E+00 0.  1.
          4    1    6    6  502    0 -0.11457700708E+02  0.19465156926E+03 -0.30601353889E+03  0.36285644311E+03  0.00000000000E+00 0. -1.
          3    1    5    5  503    0  0.17494372828E+03 -0.22827282230E+03 -0.21594629926E+03  0.35964787450E+03  0.00000000000E+00 0. -1.
         -4    1    5    5    0  503  0.11720600781E+03 -0.28105981011E+03 -0.20074171581E+03  0.36473154729E+03  0.00000000000E+00 0.  1.
         -3    1    6    6    0  502  0.51140946973E+02  0.14374458607E+03 -0.30393733570E+03  0.34008205850E+03  0.00000000000E+00 0.  1.
<mgrwt>
<rscale>  0 0.16794365E+04</rscale>
<asrwt>0</asrwt>
<pdfrwt beam="1">  1        1 0.80949048E-01 0.16794365E+04</pdfrwt>
<pdfrwt beam="2">  1       -1 0.20617154E+00 0.16794365E+04</pdfrwt>
<totfact> 0.53715239E+00</totfact>
</mgrwt>
</event>
<event>
12    1  0.1598876E-007  0.1772183E+04  0.7818608E-02  0.8721234E-01
          2   -1    0    0  501    0  0.00000000000E+00  0.00000000000E+00  0.21188964715E+04  0.21188964715E+04  0.00000000000E+00 0. -1.
         -2   -1    0    0    0  501 -0.00000000000E+00 -0.00000000000E+00 -0.37055050167E+03  0.37055050167E+03  0.00000000000E+00 0.  1.
         23    2    1    2    0    0 -0.61716044010E+03  0.24005052997E+03  0.55355099535E+03  0.86767986639E+03  0.89097588691E+02 0.  0.
        254    2    1    2    0    0  0.61716044010E+03 -0.24005052997E+03  0.11947949745E+04  0.16217671068E+04  0.87411798507E+03 0.  0.
        -24    2    4    4    0    0  0.16921016406E+03 -0.41401364419E+03  0.16622980504E+03  0.48366968244E+03  0.79149456325E+02 0.  0.
         24    2    4    4    0    0  0.44795027605E+03  0.17396311421E+03  0.10285651695E+04  0.11380974244E+04  0.79980151098E+02 0.  0.
         11    1    3    3    0    0 -0.45945301281E+03  0.21434048414E+03  0.39640512687E+03  0.64356502292E+03  0.00000000000E+00 0.  1.
        -11    1    3    3    0    0 -0.15770742730E+03  0.25710045834E+02  0.15714586848E+03  0.22411484347E+03  0.00000000000E+00 0. -1.
          4    1    6    6  502    0  0.41841408788E+02  0.13325476694E+02  0.50274381448E+02  0.66751668507E+02  0.00000000000E+00 0. -1.
          1    1    5    5  503    0  0.33762200587E+02 -0.11375133842E+03  0.80213671066E+02  0.14322529877E+03  0.00000000000E+00 0. -1.
         -2    1    5    5    0  503  0.13544796347E+03 -0.30026230576E+03  0.86016133974E+02  0.34044438367E+03  0.00000000000E+00 0.  1.
         -3    1    6    6    0  502  0.40610886726E+03  0.16063763752E+03  0.97829078803E+03  0.10713457559E+04  0.00000000000E+00 0.  1.
<mgrwt>
<rscale>  0 0.17721830E+04</rscale>
<asrwt>0</asrwt>
<pdfrwt beam="1">  1        2 0.32598407E+00 0.17721830E+04</pdfrwt>
<pdfrwt beam="2">  1       -2 0.57007771E-01 0.17721830E+04</pdfrwt>
<totfact> 0.15654284E+01</totfact>
</mgrwt>
</event>
<event>
12    1  0.1598876E-007  0.3469147E+04  0.7818608E-02  0.8121141E-01
         -2   -1    0    0    0  501 -0.00000000000E+00  0.00000000000E+00  0.17935741838E+04  0.17935741838E+04  0.00000000000E+00 0.  1.
          2   -1    0    0  501    0  0.00000000000E+00 -0.00000000000E+00 -0.16775132720E+04  0.16775132720E+04  0.00000000000E+00 0. -1.
         23    2    1    2    0    0 -0.80242427749E+03  0.34589780277E+03 -0.13102402991E+04  0.15775848320E+04  0.92272693258E+02 0.  0.
        254    2    1    2    0    0  0.80242427749E+03 -0.34589780277E+03  0.14263012109E+04  0.18935026237E+04  0.88740466015E+03 0.  0.
        -24    2    4    4    0    0  0.33385534145E+03  0.28858098614E+03  0.44026487733E+03  0.62825147370E+03  0.78283953789E+02 0.  0.
         24    2    4    4    0    0  0.46856893604E+03 -0.63447878891E+03  0.98603633356E+03  0.12652511500E+04  0.80452720224E+02 0.  0.
         11    1    3    3    0    0 -0.61060798029E+03  0.23649174108E+03 -0.10344954721E+04  0.12243166792E+04  0.00000000000E+00 0. -1.
        -11    1    3    3    0    0 -0.19181629721E+03  0.10940606169E+03 -0.27574482696E+03  0.35326815283E+03  0.00000000000E+00 0.  1.
          2    1    6    6  502    0  0.12302393621E+03 -0.18423810398E+03  0.22359312997E+03  0.31475777291E+03  0.00000000000E+00 0. -1.
          1    1    5    5  503    0  0.12302862202E+02  0.30277697027E+02  0.15449338570E+02  0.36149431778E+02  0.00000000000E+00 0. -1.
         -2    1    5    5    0  503  0.32155247925E+03  0.25830328911E+03  0.42481553876E+03  0.59210204192E+03  0.00000000000E+00 0.  1.
         -1    1    6    6    0  502  0.34554499983E+03 -0.45024068493E+03  0.76244320359E+03  0.95049337713E+03  0.00000000000E+00 0.  1.
<mgrwt>
<rscale>  0 0.34691466E+04</rscale>
<asrwt>0</asrwt>
<pdfrwt beam="1">  1        2 0.25807896E+00 0.34691466E+04</pdfrwt>
<pdfrwt beam="2">  1       -2 0.27593449E+00 0.34691466E+04</pdfrwt>
<totfact> 0.37075000E-01</totfact>
</mgrwt>
</event>
<event>
12    1  0.1598876E-007  0.3017471E+04  0.7818608E-02  0.8238759E-01
         -1   -1    0    0    0  501 -0.00000000000E+00  0.00000000000E+00  0.48437734471E+03  0.48437734471E+03  0.00000000000E+00 0.  1.
          1   -1    0    0  501    0  0.00000000000E+00 -0.00000000000E+00 -0.46993998833E+04  0.46993998833E+04  0.00000000000E+00 0. -1.
         23    2    1    2    0    0 -0.40454369131E+03  0.55899765947E+03 -0.39729093910E+04  0.40334159038E+04  0.91108958159E+02 0.  0.
        254    2    1    2    0    0  0.40454369131E+03 -0.55899765947E+03 -0.24211314762E+03  0.11503613243E+04  0.88801937966E+03 0.  0.
        -24    2    4    4    0    0  0.28296030431E+03  0.19017242969E+03 -0.28650133880E+01  0.35030598419E+03  0.80461092613E+02 0.  0.
         24    2    4    4    0    0  0.12158338699E+03 -0.74917008916E+03 -0.23924813423E+03  0.80005534008E+03  0.82525965465E+02 0.  0.
         11    1    3    3    0    0 -0.39135241917E+03  0.53545094167E+03 -0.38925104483E+04  0.39486076049E+04  0.00000000000E+00 0. -1.
        -11    1    3    3    0    0 -0.13191272134E+02  0.23546717802E+02 -0.80398942690E+02  0.84808298919E+02  0.00000000000E+00 0.  1.
          2    1    6    6  502    0 -0.47114903202E+01 -0.83768623933E+02 -0.75558983451E+01  0.84240560875E+02  0.00000000000E+00 0. -1.
          3    1    5    5  503    0  0.17423217235E+03  0.15044088091E+03  0.24083582199E+02  0.23145048599E+03  0.00000000000E+00 0. -1.
         -4    1    5    5    0  503  0.10872813196E+03  0.39731548775E+02 -0.26948595587E+02  0.11885549820E+03  0.00000000000E+00 0.  1.
         -1    1    6    6    0  502  0.12629487731E+03 -0.66540146523E+03 -0.23169223589E+03  0.71581477921E+03  0.00000000000E+00 0.  1.
<mgrwt>
<rscale>  0 0.30174710E+04</rscale>
<asrwt>0</asrwt>
<pdfrwt beam="1">  1        1 0.72298459E+00 0.30174710E+04</pdfrwt>
<pdfrwt beam="2">  1       -1 0.74519592E-01 0.30174710E+04</pdfrwt>
<totfact> 0.30362302E-02</totfact>
</mgrwt>
</event>
<event>
12    1  0.1598876E-007  0.1166071E+04  0.7818608E-02  0.9143085E-01
         -1   -1    0    0    0  501 -0.00000000000E+00  0.00000000000E+00  0.13508197491E+03  0.13508197491E+03  0.00000000000E+00 0.  1.
          1   -1    0    0  501    0  0.00000000000E+00 -0.00000000000E+00 -0.25164727580E+04  0.25164727580E+04  0.00000000000E+00 0. -1.
         23    2    1    2    0    0 -0.20225243195E+03  0.60206432699E+02 -0.57005809935E+03  0.61508048197E+03  0.93951593411E+02 0.  0.
        254    2    1    2    0    0  0.20225243195E+03 -0.60206432699E+02 -0.18113326838E+04  0.20364742509E+04  0.90651553916E+03 0.  0.
        -24    2    4    4    0    0  0.24158145961E+03 -0.21947151496E+03 -0.18235161527E+04  0.18542613171E+04  0.80898241552E+02 0.  0.
         24    2    4    4    0    0 -0.39329027662E+02  0.15926508226E+03  0.12183468901E+02  0.18221293387E+03  0.78364389306E+02 0.  0.
         11    1    3    3    0    0 -0.13378213873E+02 -0.21083527828E+02 -0.73750153470E+02  0.77862551262E+02  0.00000000000E+00 0. -1.
        -11    1    3    3    0    0 -0.18887421808E+03  0.81289960527E+02 -0.49630794588E+03  0.53721793071E+03  0.00000000000E+00 0.  1.
          2    1    6    6  502    0 -0.36544894739E+02  0.14583822391E+03  0.36121485461E+02  0.15462560783E+03  0.00000000000E+00 0. -1.
          3    1    5    5  503    0  0.20367197550E+03 -0.14351083778E+03 -0.12614813931E+04  0.12858510564E+04  0.00000000000E+00 0. -1.
         -4    1    5    5    0  503  0.37909484111E+02 -0.75960677180E+02 -0.56203475954E+03  0.56841026063E+03  0.00000000000E+00 0.  1.
         -1    1    6    6    0  502 -0.27841329229E+01  0.13426858348E+02 -0.23938016560E+02  0.27587326040E+02  0.00000000000E+00 0.  1.
<mgrwt>
<rscale>  0 0.11660705E+04</rscale>
<asrwt>0</asrwt>
<pdfrwt beam="1">  1        1 0.38714963E+00 0.11660705E+04</pdfrwt>
<pdfrwt beam="2">  1       -1 0.20781843E-01 0.11660705E+04</pdfrwt>
<totfact> 0.25289919E+01</totfact>
</mgrwt>
</event>
<event>
12    1  0.1598876E-007  0.3313926E+04  0.7818608E-02  0.8159361E-01
          2   -1    0    0  501    0  0.00000000000E+00  0.00000000000E+00  0.27511381904E+04  0.27511381904E+04  0.00000000000E+00 0. -1.
         -2   -1    0    0    0  501 -0.00000000000E+00 -0.00000000000E+00 -0.99796034722E+03  0.99796034722E+03  0.00000000000E+00 0.  1.
         23    2    1    2    0    0 -0.16901719979E+02  0.61518129038E+03 -0.77562376312E+03  0.99413216257E+03  0.89290797802E+02 0.  0.
        254    2    1    2    0    0  0.16901719979E+02 -0.61518129038E+03  0.25288016063E+04  0.27549663750E+04  0.90347577469E+03 0.  0.
        -24    2    4    4    0    0  0.18657616844E+03 -0.32710360389E+03  0.23223915816E+04  0.23541328203E+04  0.81432445460E+02 0.  0.
         24    2    4    4    0    0 -0.16967444847E+03 -0.28807768648E+03  0.20641002470E+03  0.40083355471E+03  0.79273377481E+02 0.  0.
         13    1    3    3    0    0 -0.51082465075E+02  0.31195295195E+03 -0.37279629528E+03  0.48877514282E+03  0.00000000000E+00 0.  1.
        -13    1    3    3    0    0  0.34180745096E+02  0.30322833843E+03 -0.40282746784E+03  0.50535701975E+03  0.00000000000E+00 0. -1.
          4    1    6    6  502    0 -0.15497697295E+03 -0.28336834898E+03  0.17871032634E+03  0.36912445609E+03  0.00000000000E+00 0. -1.
          3    1    5    5  503    0  0.10735899433E+03 -0.15055962321E+03  0.91472790760E+03  0.93323164259E+03  0.00000000000E+00 0. -1.
         -4    1    5    5    0  503  0.79217174118E+02 -0.17654398068E+03  0.14076636740E+04  0.14209011777E+04  0.00000000000E+00 0.  1.
         -3    1    6    6    0  502 -0.14697475520E+02 -0.47093375075E+01  0.27699698353E+02  0.31709098620E+02  0.00000000000E+00 0.  1.
<mgrwt>
<rscale>  0 0.33139263E+04</rscale>
<asrwt>0</asrwt>
<pdfrwt beam="1">  1        2 0.42325203E+00 0.33139263E+04</pdfrwt>
<pdfrwt beam="2">  1       -2 0.15353236E+00 0.33139263E+04</pdfrwt>
<totfact> 0.58117588E-01</totfact>
</mgrwt>
</event>
<event>
12    1  0.1598876E-007  0.1608898E+04  0.7818608E-02  0.8815100E-01
          1   -1    0    0  501    0  0.00000000000E+00  0.00000000000E+00  0.19367939242E+04  0.19367939242E+04  0.00000000000E+00 0. -1.
         -1   -1    0    0    0  501 -0.00000000000E+00 -0.00000000000E+00 -0.33412837842E+03  0.33412837842E+03  0.00000000000E+00 0.  1.
         23    2    1    2    0    0 -0.17230898054E+03 -0.41474822242E+03  0.82936462659E+03  0.94756083923E+03  0.91210676088E+02 0.  0.
        254    2    1    2    0    0  0.17230898054E+03  0.41474822242E+03  0.77330091916E+03  0.13233614634E+04  0.97549206986E+03 0.  0.
        -24    2    4    4    0    0  0.86773393324E+02 -0.24177382592E+03  0.56336751165E+03  0.62422350449E+03  0.79295811267E+02 0.  0.
         24    2    4    4    0    0  0.85535587213E+02  0.65652204834E+03  0.20993340751E+03  0.69913795888E+03  0.79901898060E+02 0.  0.
         13    1    3    3    0    0 -0.13051020667E+03 -0.23216026304E+03  0.55173573746E+03  0.61265294072E+03  0.00000000000E+00 0. -1.
        -13    1    3    3    0    0 -0.41798773869E+02 -0.18258795938E+03  0.27762888912E+03  0.33490789851E+03  0.00000000000E+00 0.  1.
          4    1    6    6  502    0  0.33769022294E+02  0.18085408805E+03  0.94963651677E+02  0.20704261197E+03  0.00000000000E+00 0. -1.
          1    1    5    5  503    0 -0.14820366493E+02 -0.20229984154E+02  0.55301403469E+02  0.60721830897E+02  0.00000000000E+00 0. -1.
         -4    1    5    5    0  503  0.10159375982E+03 -0.22154384176E+03  0.50806610818E+03  0.56350167359E+03  0.00000000000E+00 0.  1.
         -3    1    6    6    0  502  0.51766564920E+02  0.47566796029E+03  0.11496975584E+03  0.49209534691E+03  0.00000000000E+00 0.  1.
<mgrwt>
<rscale>  0 0.16088975E+04</rscale>
<asrwt>0</asrwt>
<pdfrwt beam="1">  1        1 0.29796829E+00 0.16088975E+04</pdfrwt>
<pdfrwt beam="2">  1       -1 0.51404367E-01 0.16088975E+04</pdfrwt>
<totfact> 0.12010252E+01</totfact>
</mgrwt>
</event>
<event>
12    1  0.1598876E-007  0.2668297E+04  0.7818608E-02  0.8345365E-01
         -2   -1    0    0    0  501 -0.00000000000E+00  0.00000000000E+00  0.55324684180E+03  0.55324684180E+03  0.00000000000E+00 0.  1.
          2   -1    0    0  501    0  0.00000000000E+00 -0.00000000000E+00 -0.32172850651E+04  0.32172850651E+04  0.00000000000E+00 0. -1.
         23    2    1    2    0    0  0.10049850025E+03 -0.11350199677E+04 -0.15964777810E+04  0.19635463712E+04  0.91666629509E+02 0.  0.
        254    2    1    2    0    0 -0.10049850025E+03  0.11350199677E+04 -0.10675604424E+04  0.18069855357E+04  0.90947300819E+03 0.  0.
        -24    2    4    4    0    0 -0.59305448432E+02 -0.14212837247E+03 -0.87229625458E+02  0.19446821963E+03  0.80568420702E+02 0.  0.
         24    2    4    4    0    0 -0.41193051814E+02  0.12771483402E+04 -0.98033081690E+03  0.16125173161E+04  0.79742296407E+02 0.  0.
         13    1    3    3    0    0 -0.18686988012E+01 -0.35502197415E+03 -0.54262224747E+03  0.64844660351E+03  0.00000000000E+00 0. -1.
        -13    1    3    3    0    0  0.10236719905E+03 -0.77999799357E+03 -0.10538555335E+04  0.13150997677E+04  0.00000000000E+00 0.  1.
          4    1    6    6  502    0 -0.10443057775E+02  0.34391174650E+02 -0.16712079964E+02  0.39637153861E+02  0.00000000000E+00 0. -1.
          3    1    5    5  503    0  0.17331871493E+02 -0.75440785617E+01 -0.10618386624E+02  0.21680798539E+02  0.00000000000E+00 0. -1.
         -4    1    5    5    0  503 -0.76637319925E+02 -0.13458429391E+03 -0.76611238834E+02  0.17278742109E+03  0.00000000000E+00 0.  1.
         -3    1    6    6    0  502 -0.30749994039E+02  0.12427571655E+04 -0.96361873694E+03  0.15728801623E+04  0.00000000000E+00 0.  1.
<mgrwt>
<rscale>  0 0.26682974E+04</rscale>
<asrwt>0</asrwt>
<pdfrwt beam="1">  1        2 0.49496693E+00 0.26682974E+04</pdfrwt>
<pdfrwt beam="2">  1       -2 0.85114899E-01 0.26682974E+04</pdfrwt>
<totfact> 0.13348049E+00</totfact>
</mgrwt>
</event>
<event>
12    1  0.1598876E-007  0.2100548E+04  0.7818608E-02  0.8561002E-01
         -2   -1    0    0    0  501 -0.00000000000E+00  0.00000000000E+00  0.54049274378E+03  0.54049274378E+03  0.00000000000E+00 0. -1.
          2   -1    0    0  501    0  0.00000000000E+00 -0.00000000000E+00 -0.20408704390E+04  0.20408704390E+04  0.00000000000E+00 0.  1.
         23    2    1    2    0    0  0.28931729810E+03 -0.44860597525E+02 -0.15961309138E+04  0.16253270879E+04  0.91308688114E+02 0.  0.
        254    2    1    2    0    0 -0.28931729810E+03  0.44860597525E+02  0.95753218575E+02  0.95603609488E+03  0.90505213311E+03 0.  0.
        -24    2    4    4    0    0 -0.60461467120E+03  0.62978415825E+01 -0.16768666164E+02  0.61030623530E+03  0.81203135634E+02 0.  0.
         24    2    4    4    0    0  0.31529737310E+03  0.38562755942E+02  0.11252188474E+03  0.34572985958E+03  0.77255689984E+02 0.  0.
         11    1    3    3    0    0  0.28794553680E+03 -0.53584882107E+02 -0.14704089840E+04  0.14992953518E+04  0.00000000000E+00 0.  1.
        -11    1    3    3    0    0  0.13717613044E+01  0.87242845819E+01 -0.12572192986E+03  0.12603173616E+03  0.00000000000E+00 0. -1.
          4    1    6    6  502    0  0.72498073991E+02  0.38947404297E+02  0.44614849771E+02  0.93612797490E+02  0.00000000000E+00 0. -1.
          1    1    5    5  503    0 -0.31480216972E+03  0.40903838282E+02 -0.23909368712E+02  0.31834758985E+03  0.00000000000E+00 0. -1.
         -2    1    5    5    0  503 -0.28981250148E+03 -0.34605996699E+02  0.71407025479E+01  0.29195864545E+03  0.00000000000E+00 0.  1.
         -3    1    6    6    0  502  0.24279929910E+03 -0.38464835432E+00  0.67907034968E+02  0.25211706209E+03  0.00000000000E+00 0.  1.
<mgrwt>
<rscale>  0 0.21005482E+04</rscale>
<asrwt>0</asrwt>
<pdfrwt beam="1">  1        2 0.31398007E+00 0.21005482E+04</pdfrwt>
<pdfrwt beam="2">  1       -2 0.83152730E-01 0.21005482E+04</pdfrwt>
<totfact> 0.73994401E+00</totfact>
</mgrwt>
</event>
<event>
12    1  0.1598876E-007  0.3293233E+04  0.7818608E-02  0.8164619E-01
          2   -1    0    0  501    0  0.00000000000E+00  0.00000000000E+00  0.31991717851E+04  0.31991717851E+04  0.00000000000E+00 0. -1.
         -2   -1    0    0    0  501 -0.00000000000E+00 -0.00000000000E+00 -0.84751518599E+03  0.84751518599E+03  0.00000000000E+00 0.  1.
         23    2    1    2    0    0  0.12839031766E+04  0.34761228336E+03  0.19980739568E+04  0.24020089716E+04  0.90032752348E+02 0.  0.
        254    2    1    2    0    0 -0.12839031766E+04 -0.34761228336E+03  0.35358264232E+03  0.16446779995E+04  0.90039067658E+03 0.  0.
        -24    2    4    4    0    0 -0.12904045636E+04 -0.29634915725E+03  0.54367530546E+03  0.14331102782E+04  0.72494625717E+02 0.  0.
         24    2    4    4    0    0  0.65013869990E+01 -0.51263126101E+02 -0.19009266314E+03  0.21156772130E+03  0.77171911901E+02 0.  0.
         13    1    3    3    0    0  0.52913133313E+03  0.12411572857E+03  0.88923587564E+03  0.10421732698E+04  0.00000000000E+00 0.  1.
        -13    1    3    3    0    0  0.75477184350E+03  0.22349655479E+03  0.11088380811E+04  0.13598357018E+04  0.00000000000E+00 0. -1.
          4    1    6    6  502    0  0.24571470278E+02  0.55577324892E+01 -0.22839170588E+02  0.34004018222E+02  0.00000000000E+00 0. -1.
          3    1    5    5  503    0 -0.83059295533E+02 -0.32763266977E+01  0.43307746833E+02  0.93729087410E+02  0.00000000000E+00 0. -1.
         -4    1    5    5    0  503 -0.12073452681E+04 -0.29307283056E+03  0.50036755863E+03  0.13393811907E+04  0.00000000000E+00 0.  1.
         -3    1    6    6    0  502 -0.18070083279E+02 -0.56820858590E+02 -0.16725349255E+03  0.17756370308E+03  0.00000000000E+00 0.  1.
<mgrwt>
<rscale>  0 0.32932335E+04</rscale>
<asrwt>0</asrwt>
<pdfrwt beam="1">  1        2 0.49218027E+00 0.32932335E+04</pdfrwt>
<pdfrwt beam="2">  1       -2 0.13038695E+00 0.32932335E+04</pdfrwt>
<totfact> 0.46721886E-01</totfact>
</mgrwt>
</event>
<event>
12    1  0.1598876E-007  0.4231458E+04  0.7818608E-02  0.7959415E-01
          2   -1    0    0  501    0  0.00000000000E+00  0.00000000000E+00  0.11556315979E+04  0.11556315979E+04  0.00000000000E+00 0. -1.
         -2   -1    0    0    0  501 -0.00000000000E+00 -0.00000000000E+00 -0.38734745418E+04  0.38734745418E+04  0.00000000000E+00 0.  1.
         23    2    1    2    0    0  0.24712697913E+03 -0.85567948097E+03 -0.34485453971E+04  0.35628199087E+04  0.89225712496E+02 0.  0.
        254    2    1    2    0    0 -0.24712697913E+03  0.85567948097E+03  0.73070245330E+03  0.14662862310E+04  0.90708881483E+03 0.  0.
        -24    2    4    4    0    0  0.23044963126E+03  0.20763675544E+03  0.55124244699E+03  0.63761639731E+03  0.80413804794E+02 0.  0.
         24    2    4    4    0    0 -0.47757661039E+03  0.64804272553E+03  0.17946000632E+03  0.82866983369E+03  0.80305706518E+02 0.  0.
         13    1    3    3    0    0  0.11330284176E+03 -0.50065436504E+03 -0.21100074988E+04  0.21715487497E+04  0.00000000000E+00 0. -1.
        -13    1    3    3    0    0  0.13382413737E+03 -0.35502511593E+03 -0.13385378983E+04  0.13912711590E+04  0.00000000000E+00 0.  1.
          2    1    6    6  502    0 -0.45618813866E+03  0.60097170638E+03  0.18446654203E+03  0.77672550805E+03  0.00000000000E+00 0. -1.
          3    1    5    5  503    0  0.17676429611E+03  0.10812648945E+03  0.36638337675E+03  0.42092010270E+03  0.00000000000E+00 0. -1.
         -4    1    5    5    0  503  0.53685335148E+02  0.99510265996E+02  0.18485907024E+03  0.21669629461E+03  0.00000000000E+00 0.  1.
         -1    1    6    6    0  502 -0.21388471726E+02  0.47071019145E+02 -0.50065357134E+01  0.51944325638E+02  0.00000000000E+00 0.  1.
<mgrwt>
<rscale>  0 0.42314582E+04</rscale>
<asrwt>0</asrwt>
<pdfrwt beam="1">  1        2 0.17778948E+00 0.42314582E+04</pdfrwt>
<pdfrwt beam="2">  1       -2 0.59591916E+00 0.42314582E+04</pdfrwt>
<totfact> 0.82331086E-03</totfact>
</mgrwt>
</event>
<event>
12    1  0.1598876E-007  0.2129073E+04  0.7818608E-02  0.8548543E-01
          1   -1    0    0  501    0  0.00000000000E+00  0.00000000000E+00  0.69378348138E+03  0.69378348138E+03  0.00000000000E+00 0. -1.
         -1   -1    0    0    0  501 -0.00000000000E+00 -0.00000000000E+00 -0.16334174657E+04  0.16334174657E+04  0.00000000000E+00 0.  1.
         23    2    1    2    0    0  0.84076239305E+03 -0.13269289756E+03 -0.57076900369E+03  0.10297951708E+04  0.10105459710E+03 0.  0.
        254    2    1    2    0    0 -0.84076239305E+03  0.13269289756E+03 -0.36886498065E+03  0.12974057763E+04  0.90703449096E+03 0.  0.
        -24    2    4    4    0    0 -0.85504827070E+03 -0.69043218990E+02  0.85564543903E+01  0.86158891755E+03  0.79923329704E+02 0.  0.
         24    2    4    4    0    0  0.14285877647E+02  0.20173611655E+03 -0.37742143504E+03  0.43581685874E+03  0.81165557431E+02 0.  0.
         11    1    3    3    0    0  0.74233073011E+03 -0.13094873562E+03 -0.53779371030E+03  0.92597222370E+03  0.00000000000E+00 0.  1.
        -11    1    3    3    0    0  0.98431662940E+02 -0.17441619484E+01 -0.32975293389E+02  0.10382294710E+03  0.00000000000E+00 0. -1.
          4    1    6    6  502    0  0.47436716368E+02  0.10082078895E+03 -0.20418535959E+03  0.23260854372E+03  0.00000000000E+00 0. -1.
          3    1    5    5  503    0 -0.54328800154E+03 -0.79458612066E+01 -0.89004869375E+01  0.54341899856E+03  0.00000000000E+00 0. -1.
         -4    1    5    5    0  503 -0.31176026916E+03 -0.61097357784E+02  0.17456941328E+02  0.31816991900E+03  0.00000000000E+00 0.  1.
         -3    1    6    6    0  502 -0.33150838720E+02  0.10091532761E+03 -0.17323607545E+03  0.20320831502E+03  0.00000000000E+00 0.  1.
<mgrwt>
<rscale>  0 0.21290731E+04</rscale>
<asrwt>0</asrwt>
<pdfrwt beam="1">  1        1 0.10673592E+00 0.21290731E+04</pdfrwt>
<pdfrwt beam="2">  1       -1 0.25129499E+00 0.21290731E+04</pdfrwt>
<totfact> 0.17321400E+00</totfact>
</mgrwt>
</event>
<event>
12    1  0.1598876E-007  0.1701572E+04  0.7818608E-02  0.8760468E-01
         -2   -1    0    0    0  501 -0.00000000000E+00  0.00000000000E+00  0.37648223467E+03  0.37648223467E+03  0.00000000000E+00 0.  1.
          2   -1    0    0  501    0  0.00000000000E+00 -0.00000000000E+00 -0.19226328964E+04  0.19226328964E+04  0.00000000000E+00 0. -1.
         23    2    1    2    0    0 -0.53552232254E+03  0.13336297619E+03 -0.88124306672E+03  0.10438264962E+04  0.91730965770E+02 0.  0.
        254    2    1    2    0    0  0.53552232254E+03 -0.13336297619E+03 -0.66490759501E+03  0.12552886349E+04  0.91053698754E+03 0.  0.
        -24    2    4    4    0    0  0.17599856844E+03 -0.48218517311E+03 -0.17052129343E+03  0.54674861117E+03  0.79865480910E+02 0.  0.
         24    2    4    4    0    0  0.35952375411E+03  0.34882219692E+03 -0.49438630157E+03  0.70854002375E+03  0.81712270996E+02 0.  0.
         11    1    3    3    0    0 -0.47572210561E+03  0.11953983485E+03 -0.82890582206E+03  0.96316465660E+03  0.00000000000E+00 0. -1.
        -11    1    3    3    0    0 -0.59800216939E+02  0.13823141333E+02 -0.52337244654E+02  0.80661839554E+02  0.00000000000E+00 0.  1.
          4    1    6    6  502    0  0.49256416968E+02  0.92164701469E+02 -0.90881808319E+02  0.13849198494E+03  0.00000000000E+00 0. -1.
          3    1    5    5  503    0 -0.17900232319E+00 -0.76204236766E+02 -0.15062576934E+02  0.77678819294E+02  0.00000000000E+00 0. -1.
         -4    1    5    5    0  503  0.17617757076E+03 -0.40598093634E+03 -0.15545871650E+03  0.46906979187E+03  0.00000000000E+00 0.  1.
         -3    1    6    6    0  502  0.31026733714E+03  0.25665749545E+03 -0.40350449325E+03  0.57004803880E+03  0.00000000000E+00 0.  1.
<mgrwt>
<rscale>  0 0.17015724E+04</rscale>
<asrwt>0</asrwt>
<pdfrwt beam="1">  1        2 0.29578968E+00 0.17015724E+04</pdfrwt>
<pdfrwt beam="2">  1       -2 0.57920344E-01 0.17015724E+04</pdfrwt>
<totfact> 0.19582137E+01</totfact>
</mgrwt>
</event>
<event>
12    1  0.1598876E-007  0.1783895E+04  0.7818608E-02  0.8714911E-01
         -1   -1    0    0    0  501 -0.00000000000E+00  0.00000000000E+00  0.58300098579E+03  0.58300098579E+03  0.00000000000E+00 0.  1.
          1   -1    0    0  501    0  0.00000000000E+00 -0.00000000000E+00 -0.13646129805E+04  0.13646129805E+04  0.00000000000E+00 0. -1.
         23    2    1    2    0    0  0.38043474301E+03 -0.31391054029E+02  0.29867778217E+03  0.49263138169E+03  0.88098062992E+02 0.  0.
        254    2    1    2    0    0 -0.38043474301E+03  0.31391054029E+02 -0.10802897769E+04  0.14549825846E+04  0.89679001305E+03 0.  0.
        -24    2    4    4    0    0 -0.42014475829E+03  0.25301193892E+03 -0.11072074029E+04  0.12137461195E+04  0.82065525759E+02 0.  0.
         24    2    4    4    0    0  0.39710015278E+02 -0.22162088489E+03  0.26917625975E+02  0.24123646510E+03  0.82327222548E+02 0.  0.
         13    1    3    3    0    0  0.23893680798E+03 -0.37949249888E+02  0.13836370881E+03  0.27870317488E+03  0.00000000000E+00 0. -1.
        -13    1    3    3    0    0  0.14149793503E+03  0.65581958592E+01  0.16031407336E+03  0.21392820681E+03  0.00000000000E+00 0.  1.
          4    1    6    6  502    0  0.64992246299E+02 -0.15705299624E+03  0.25570372053E+02  0.17188216788E+03  0.00000000000E+00 0. -1.
          3    1    5    5  503    0 -0.30246920320E+03  0.18049262996E+03 -0.69825156917E+03  0.78206167417E+03  0.00000000000E+00 0. -1.
         -4    1    5    5    0  503 -0.11767555508E+03  0.72519308953E+02 -0.40895583371E+03  0.43168444535E+03  0.00000000000E+00 0.  1.
         -3    1    6    6    0  502 -0.25282231021E+02 -0.64567888647E+02  0.13472539223E+01  0.69354297220E+02  0.00000000000E+00 0.  1.
<mgrwt>
<rscale>  0 0.17838954E+04</rscale>
<asrwt>0</asrwt>
<pdfrwt beam="1">  1        1 0.20994046E+00 0.17838954E+04</pdfrwt>
<pdfrwt beam="2">  1       -1 0.89692460E-01 0.17838954E+04</pdfrwt>
<totfact> 0.93583921E+00</totfact>
</mgrwt>
</event>
<event>
12    1  0.1598876E-007  0.1252938E+04  0.7818608E-02  0.9067741E-01
          2   -1    0    0  501    0  0.00000000000E+00  0.00000000000E+00  0.15909902751E+04  0.15909902751E+04  0.00000000000E+00 0. -1.
         -2   -1    0    0    0  501 -0.00000000000E+00 -0.00000000000E+00 -0.24667881166E+03  0.24667881166E+03  0.00000000000E+00 0.  1.
         23    2    1    2    0    0  0.18313597286E+03  0.19831858786E+03  0.16410542045E+03  0.32843323976E+03  0.89826260718E+02 0.  0.
        254    2    1    2    0    0 -0.18313597286E+03 -0.19831858786E+03  0.11802060430E+04  0.15092358470E+04  0.90113122857E+03 0.  0.
        -24    2    4    4    0    0  0.34190831254E+03  0.44138050834E+02  0.38982680693E+03  0.52654928846E+03  0.80248065758E+02 0.  0.
         24    2    4    4    0    0 -0.52504428539E+03 -0.24245663869E+03  0.79037923606E+03  0.98268655854E+03  0.80726775481E+02 0.  0.
         13    1    3    3    0    0  0.47530980550E+02  0.43207748573E+01  0.24745430521E+02  0.53760576067E+02  0.00000000000E+00 0. -1.
        -13    1    3    3    0    0  0.13560499231E+03  0.19399781300E+03  0.13935998993E+03  0.27467266369E+03  0.00000000000E+00 0.  1.
          4    1    6    6  502    0 -0.20755839264E+03 -0.93755221637E+02  0.37918536939E+03  0.44232575360E+03  0.00000000000E+00 0. -1.
          3    1    5    5  503    0  0.32348616037E+03  0.55138818752E+02  0.34116988852E+03  0.47337139554E+03  0.00000000000E+00 0. -1.
         -2    1    5    5    0  503  0.18422152163E+02 -0.11000767918E+02  0.48656918417E+02  0.53177892916E+02  0.00000000000E+00 0.  1.
         -3    1    6    6    0  502 -0.31748589275E+03 -0.14870141705E+03  0.41119386667E+03  0.54036080494E+03  0.00000000000E+00 0.  1.
<mgrwt>
<rscale>  0 0.12529383E+04</rscale>
<asrwt>0</asrwt>
<pdfrwt beam="1">  1        2 0.24476773E+00 0.12529383E+04</pdfrwt>
<pdfrwt beam="2">  1       -2 0.37950587E-01 0.12529383E+04</pdfrwt>
<totfact> 0.72676134E+01</totfact>
</mgrwt>
</event>
<event>
12    1  0.1598876E-007  0.2004264E+04  0.7818608E-02  0.8604629E-01
         -2   -1    0    0    0  501 -0.00000000000E+00  0.00000000000E+00  0.84724996948E+03  0.84724996948E+03  0.00000000000E+00 0.  1.
          2   -1    0    0  501    0  0.00000000000E+00 -0.00000000000E+00 -0.11853279130E+04  0.11853279130E+04  0.00000000000E+00 0. -1.
         23    2    1    2    0    0  0.60350212905E+03 -0.37300812178E+03  0.23048372126E+03  0.75136203670E+03  0.89845900003E+02 0.  0.
        254    2    1    2    0    0 -0.60350212905E+03  0.37300812178E+03 -0.56856166481E+03  0.12812158458E+04  0.90271911369E+03 0.  0.
        -24    2    4    4    0    0 -0.13368353985E+03 -0.16570791742E+03  0.14379306761E+03  0.26903329128E+03  0.79825201552E+02 0.  0.
         24    2    4    4    0    0 -0.46981858920E+03  0.53871603920E+03 -0.71235473242E+03  0.10121825545E+04  0.78229030846E+02 0.  0.
         11    1    3    3    0    0  0.13038005752E+03 -0.40524830438E+02  0.34974007139E+02  0.14094113117E+03  0.00000000000E+00 0. -1.
        -11    1    3    3    0    0  0.47312207153E+03 -0.33248329134E+03  0.19550971412E+03  0.61042090553E+03  0.00000000000E+00 0.  1.
          2    1    6    6  502    0 -0.44610602559E+03  0.48142156138E+03 -0.63745257023E+03  0.91494430712E+03  0.00000000000E+00 0. -1.
          3    1    5    5  503    0 -0.26153902991E+02 -0.79451459095E+02  0.84731841350E+02  0.11906320142E+03  0.00000000000E+00 0. -1.
         -4    1    5    5    0  503 -0.10752963686E+03 -0.86256458327E+02  0.59061226259E+02  0.14997008986E+03  0.00000000000E+00 0.  1.
         -1    1    6    6    0  502 -0.23712563607E+02  0.57294477821E+02 -0.74902162191E+02  0.97238247426E+02  0.00000000000E+00 0.  1.
<mgrwt>
<rscale>  0 0.20042645E+04</rscale>
<asrwt>0</asrwt>
<pdfrwt beam="1">  1        2 0.18235814E+00 0.20042645E+04</pdfrwt>
<pdfrwt beam="2">  1       -2 0.13034615E+00 0.20042645E+04</pdfrwt>
<totfact> 0.77448702E+00</totfact>
</mgrwt>
</event>
<event>
12    1  0.1598876E-007  0.1598490E+04  0.7818608E-02  0.8821476E-01
          1   -1    0    0  501    0  0.00000000000E+00  0.00000000000E+00  0.11663465772E+04  0.11663465772E+04  0.00000000000E+00 0. -1.
         -1   -1    0    0    0  501 -0.00000000000E+00 -0.00000000000E+00 -0.54768703280E+03  0.54768703280E+03  0.00000000000E+00 0.  1.
         23    2    1    2    0    0 -0.48779889470E+03  0.82987038910E+02 -0.10704660285E+02  0.50396551880E+03  0.95037066929E+02 0.  0.
        254    2    1    2    0    0  0.48779889470E+03 -0.82987038910E+02  0.62936420468E+03  0.12100680912E+04  0.90737581679E+03 0.  0.
        -24    2    4    4    0    0  0.23045213347E+03  0.19633050972E+03 -0.14359866904E+03  0.34449641050E+03  0.80020898680E+02 0.  0.
         24    2    4    4    0    0  0.25734676123E+03 -0.27931754863E+03  0.77296287371E+03  0.86557168070E+03  0.86585690506E+02 0.  0.
         11    1    3    3    0    0 -0.54351227593E+02  0.33234610203E+02  0.19507967293E+02  0.66626991858E+02  0.00000000000E+00 0. -1.
        -11    1    3    3    0    0 -0.43344766711E+03  0.49752428708E+02 -0.30212627578E+02  0.43733852695E+03  0.00000000000E+00 0.  1.
          2    1    6    6  502    0  0.88406681416E+02 -0.41100314685E+02  0.19567783873E+03  0.21862020436E+03  0.00000000000E+00 0. -1.
          3    1    5    5  503    0  0.81158433766E+02  0.24158960137E+02 -0.48325323760E+02  0.97497095561E+02  0.00000000000E+00 0. -1.
         -4    1    5    5    0  503  0.14929369971E+03  0.17217154958E+03 -0.95273345277E+02  0.24699931493E+03  0.00000000000E+00 0.  1.
         -1    1    6    6    0  502  0.16894007981E+03 -0.23821723394E+03  0.57728503499E+03  0.64695147634E+03  0.00000000000E+00 0.  1.
<mgrwt>
<rscale>  0 0.15984904E+04</rscale>
<asrwt>0</asrwt>
<pdfrwt beam="1">  1        1 0.17943793E+00 0.15984904E+04</pdfrwt>
<pdfrwt beam="2">  1       -1 0.84259544E-01 0.15984904E+04</pdfrwt>
<totfact> 0.15149448E+01</totfact>
</mgrwt>
</event>
<event>
12    1  0.1598876E-007  0.1685206E+04  0.7818608E-02  0.8769847E-01
          2   -1    0    0  501    0  0.00000000000E+00  0.00000000000E+00  0.12381042930E+04  0.12381042930E+04  0.00000000000E+00 0. -1.
         -2   -1    0    0    0  501 -0.00000000000E+00 -0.00000000000E+00 -0.57344080727E+03  0.57344080727E+03  0.00000000000E+00 0.  1.
         23    2    1    2    0    0  0.37029503071E+02 -0.27957880878E+03  0.80550924537E+03  0.85850068203E+03  0.92966565275E+02 0.  0.
        254    2    1    2    0    0 -0.37029503071E+02  0.27957880878E+03 -0.14084575966E+03  0.95304441821E+03  0.89940015602E+03 0.  0.
        -24    2    4    4    0    0  0.97273559920E+02 -0.20839354860E+03  0.21857884194E+03  0.32688776218E+03  0.78669449976E+02 0.  0.
         24    2    4    4    0    0 -0.13430306299E+03  0.48797235738E+03 -0.35942460160E+03  0.62615665603E+03  0.82047421437E+02 0.  0.
         11    1    3    3    0    0  0.54163176455E+02 -0.24076792729E+03  0.60207301785E+03  0.65068791545E+03  0.00000000000E+00 0. -1.
        -11    1    3    3    0    0 -0.17133673384E+02 -0.38810881488E+02  0.20343622752E+03  0.20781276658E+03  0.00000000000E+00 0.  1.
          2    1    6    6  502    0 -0.37356834668E+02  0.15902191763E+03 -0.71243257853E+02  0.17821084471E+03  0.00000000000E+00 0. -1.
          1    1    5    5  503    0  0.49564009090E+02 -0.14445847968E+03  0.95203597174E+02  0.17996824237E+03  0.00000000000E+00 0. -1.
         -4    1    5    5    0  503  0.47709550831E+02 -0.63935068925E+02  0.12337524477E+03  0.14691951981E+03  0.00000000000E+00 0.  1.
         -1    1    6    6    0  502 -0.96946228323E+02  0.32895043975E+03 -0.28818134374E+03  0.44794581132E+03  0.00000000000E+00 0.  1.
<mgrwt>
<rscale>  0 0.16852057E+04</rscale>
<asrwt>0</asrwt>
<pdfrwt beam="1">  1        2 0.19047758E+00 0.16852057E+04</pdfrwt>
<pdfrwt beam="2">  1       -2 0.88221663E-01 0.16852057E+04</pdfrwt>
<totfact> 0.18952719E+01</totfact>
</mgrwt>
</event>
<event>
12    1  0.1598876E-007  0.4163702E+04  0.7818608E-02  0.7972313E-01
         -2   -1    0    0    0  501 -0.00000000000E+00  0.00000000000E+00  0.26440975593E+04  0.26440975593E+04  0.00000000000E+00 0.  1.
          2   -1    0    0  501    0  0.00000000000E+00 -0.00000000000E+00 -0.16391620954E+04  0.16391620954E+04  0.00000000000E+00 0. -1.
         23    2    1    2    0    0  0.73277908150E+03  0.10196440376E+04  0.20698616464E+04  0.24229121898E+04  0.97658069662E+02 0.  0.
        254    2    1    2    0    0 -0.73277908150E+03 -0.10196440376E+04 -0.10649261825E+04  0.18603474648E+04  0.86613265151E+03 0.  0.
        -24    2    4    4    0    0 -0.35815218755E+03 -0.51042641517E+03 -0.11191423105E+02  0.62874028055E+03  0.79881022074E+02 0.  0.
         24    2    4    4    0    0 -0.37462689396E+03 -0.50921762241E+03 -0.10537347594E+04  0.12316071843E+04  0.82773283783E+02 0.  0.
         11    1    3    3    0    0  0.62377736177E+03  0.81647461557E+03  0.16450883798E+04  0.19395991267E+04  0.00000000000E+00 0.  1.
        -11    1    3    3    0    0  0.10900171973E+03  0.20316942202E+03  0.42477326667E+03  0.48331306316E+03  0.00000000000E+00 0. -1.
          2    1    6    6  502    0 -0.43393232237E+02 -0.48600853817E+02 -0.67415495641E+02  0.93754278026E+02  0.00000000000E+00 0. -1.
          3    1    5    5  503    0 -0.74394295717E+02 -0.79636218791E+02  0.24362071200E+02  0.11166892626E+03  0.00000000000E+00 0. -1.
         -2    1    5    5    0  503 -0.28375789183E+03 -0.43079019638E+03 -0.35553494304E+02  0.51707135430E+03  0.00000000000E+00 0.  1.
         -1    1    6    6    0  502 -0.33123366172E+03 -0.46061676860E+03 -0.98631926377E+03  0.11378529062E+04  0.00000000000E+00 0.  1.
<mgrwt>
<rscale>  0 0.41637024E+04</rscale>
<asrwt>0</asrwt>
<pdfrwt beam="1">  1        2 0.25217878E+00 0.41637024E+04</pdfrwt>
<pdfrwt beam="2">  1       -2 0.40678424E+00 0.41637024E+04</pdfrwt>
<totfact> 0.55295850E-02</totfact>
</mgrwt>
</event>
<event>
12    1  0.1598876E-007  0.1346163E+04  0.7818608E-02  0.8993738E-01
         -2   -1    0    0    0  501 -0.00000000000E+00  0.00000000000E+00  0.85203535026E+03  0.85203535026E+03  0.00000000000E+00 0. -1.
          2   -1    0    0  501    0  0.00000000000E+00 -0.00000000000E+00 -0.53171359514E+03  0.53171359514E+03  0.00000000000E+00 0.  1.
         23    2    1    2    0    0 -0.32642444057E+03  0.16260163434E+03  0.43288561407E+02  0.37827428667E+03  0.90693602390E+02 0.  0.
        254    2    1    2    0    0  0.32642444057E+03 -0.16260163434E+03  0.27703319371E+03  0.10054746587E+04  0.89511993166E+03 0.  0.
        -24    2    4    4    0    0  0.19727051526E+03 -0.12422973193E+03 -0.31129218009E+03  0.39692222331E+03  0.79345746532E+02 0.  0.
         24    2    4    4    0    0  0.12915392531E+03 -0.38371902414E+02  0.58832537380E+03  0.60855243542E+03  0.77821474458E+02 0.  0.
         13    1    3    3    0    0 -0.20344062330E+03  0.74275603330E+02  0.63071136485E+02  0.22557242898E+03  0.00000000000E+00 0. -1.
        -13    1    3    3    0    0 -0.12298381726E+03  0.88326031013E+02 -0.19782575078E+02  0.15270185768E+03  0.00000000000E+00 0.  1.
          4    1    6    6  502    0  0.10515043102E+03 -0.51561298003E+02  0.35951583476E+03  0.37810952915E+03  0.00000000000E+00 0. -1.
          3    1    5    5  503    0  0.16654814249E+03 -0.82427808506E+02 -0.19385740014E+03  0.26853923172E+03  0.00000000000E+00 0. -1.
         -4    1    5    5    0  503  0.30722372765E+02 -0.41801923423E+02 -0.11743477994E+03  0.12838299159E+03  0.00000000000E+00 0.  1.
         -3    1    6    6    0  502  0.24003494292E+02  0.13189395588E+02  0.22880953904E+03  0.23044290627E+03  0.00000000000E+00 0.  1.
<mgrwt>
<rscale>  0 0.13461631E+04</rscale>
<asrwt>0</asrwt>
<pdfrwt beam="1">  1        2 0.81802092E-01 0.13461631E+04</pdfrwt>
<pdfrwt beam="2">  1       -2 0.13108236E+00 0.13461631E+04</pdfrwt>
<totfact> 0.23795063E+01</totfact>
</mgrwt>
</event>
<event>
12    1  0.1598876E-007  0.1862968E+04  0.7818608E-02  0.8673512E-01
          1   -1    0    0  501    0  0.00000000000E+00  0.00000000000E+00  0.15655517569E+04  0.15655517569E+04  0.00000000000E+00 0. -1.
         -1   -1    0    0    0  501 -0.00000000000E+00 -0.00000000000E+00 -0.55422177498E+03  0.55422177498E+03  0.00000000000E+00 0.  1.
         23    2    1    2    0    0  0.22263210216E+03  0.63490690327E+03  0.18954723346E+03  0.70513686656E+03  0.92833281386E+02 0.  0.
        254    2    1    2    0    0 -0.22263210216E+03 -0.63490690327E+03  0.82178274841E+03  0.14146366653E+04  0.93445073731E+03 0.  0.
        -24    2    4    4    0    0  0.11643391579E+03 -0.74366815957E+03  0.39730401542E+03  0.85478597509E+03  0.78799709542E+02 0.  0.
         24    2    4    4    0    0 -0.33906601794E+03  0.10876125630E+03  0.42447873299E+03  0.55985069020E+03  0.80348149727E+02 0.  0.
         13    1    3    3    0    0  0.81979472768E+02  0.12217399633E+03  0.50847581287E+02  0.15566822366E+03  0.00000000000E+00 0. -1.
        -13    1    3    3    0    0  0.14065262939E+03  0.51273290694E+03  0.13869965218E+03  0.54946864290E+03  0.00000000000E+00 0.  1.
          4    1    6    6  502    0 -0.32206432032E+03  0.81123245100E+02  0.39429824156E+03  0.51553613900E+03  0.00000000000E+00 0. -1.
          3    1    5    5  503    0  0.12802353864E+03 -0.70164688438E+03  0.37586036505E+03  0.80620679160E+03  0.00000000000E+00 0. -1.
         -2    1    5    5    0  503 -0.11589622856E+02 -0.42021275191E+02  0.21443650372E+02  0.48579183483E+02  0.00000000000E+00 0.  1.
         -3    1    6    6    0  502 -0.17001697625E+02  0.27638011204E+02  0.30180491426E+02  0.44314551201E+02  0.00000000000E+00 0.  1.
<mgrwt>
<rscale>  0 0.18629685E+04</rscale>
<asrwt>0</asrwt>
<pdfrwt beam="1">  1        1 0.24085412E+00 0.18629685E+04</pdfrwt>
<pdfrwt beam="2">  1       -1 0.85264889E-01 0.18629685E+04</pdfrwt>
<totfact> 0.75211634E+00</totfact>
</mgrwt>
</event>
<event>
12    1  0.1598876E-007  0.1642431E+04  0.7818608E-02  0.8794897E-01
         -2   -1    0    0    0  501 -0.00000000000E+00  0.00000000000E+00  0.24477126577E+03  0.24477126577E+03  0.00000000000E+00 0.  1.
          2   -1    0    0  501    0  0.00000000000E+00 -0.00000000000E+00 -0.27552035354E+04  0.27552035354E+04  0.00000000000E+00 0. -1.
         23    2    1    2    0    0  0.36480163796E+03  0.25760663498E+03 -0.23603823626E+03  0.51378113988E+03  0.93891412182E+02 0.  0.
        254    2    1    2    0    0 -0.36480163796E+03 -0.25760663498E+03 -0.22743940334E+04  0.24861936613E+04  0.89936048889E+03 0.  0.
        -24    2    4    4    0    0 -0.45411416935E+03 -0.17608762541E+03 -0.22876187980E+04  0.23402610657E+04  0.79972245653E+02 0.  0.
         24    2    4    4    0    0  0.89312531390E+02 -0.81519009570E+02  0.13224764584E+02  0.14593259563E+03  0.80618551731E+02 0.  0.
         11    1    3    3    0    0  0.26676254891E+02  0.16431425749E+02 -0.49286123612E+02  0.58401509466E+02  0.00000000000E+00 0. -1.
        -11    1    3    3    0    0  0.33812538307E+03  0.24117520923E+03 -0.18675211265E+03  0.45537963042E+03  0.00000000000E+00 0.  1.
          4    1    6    6  502    0  0.68219877875E+02 -0.50321590536E+02  0.45611135185E+02  0.96263128269E+02  0.00000000000E+00 0. -1.
          3    1    5    5  503    0 -0.19376104826E+02 -0.18558769496E+02 -0.21626501496E+03  0.21792296359E+03  0.00000000000E+00 0. -1.
         -4    1    5    5    0  503 -0.43473806452E+03 -0.15752885591E+03 -0.20713537830E+04  0.21223381021E+04  0.00000000000E+00 0.  1.
         -3    1    6    6    0  502  0.21092653515E+02 -0.31197419034E+02 -0.32386370602E+02  0.49669467356E+02  0.00000000000E+00 0.  1.
<mgrwt>
<rscale>  0 0.16424307E+04</rscale>
<asrwt>0</asrwt>
<pdfrwt beam="1">  1        2 0.42387745E+00 0.16424307E+04</pdfrwt>
<pdfrwt beam="2">  1       -2 0.37657119E-01 0.16424307E+04</pdfrwt>
<totfact> 0.15703945E+01</totfact>
</mgrwt>
</event>
<event>
12    1  0.1598876E-007  0.1394886E+04  0.7818608E-02  0.8957529E-01
          2   -1    0    0  501    0  0.00000000000E+00  0.00000000000E+00  0.66584675317E+03  0.66584675317E+03  0.00000000000E+00 0. -1.
         -2   -1    0    0    0  501 -0.00000000000E+00 -0.00000000000E+00 -0.73053824415E+03  0.73053824415E+03  0.00000000000E+00 0.  1.
         23    2    1    2    0    0  0.18690929674E+03 -0.17927871834E+03 -0.32798483566E+03  0.42748601440E+03  0.89968305672E+02 0.  0.
        254    2    1    2    0    0 -0.18690929674E+03  0.17927871834E+03  0.26329334469E+03  0.96889898293E+03  0.89574879833E+03 0.  0.
        -24    2    4    4    0    0 -0.13795625531E+02 -0.23683359366E+03  0.41695254289E+03  0.48623526185E+03  0.79340005469E+02 0.  0.
         24    2    4    4    0    0 -0.17311367121E+03  0.41611231200E+03 -0.15365919821E+03  0.48266372108E+03  0.78964036731E+02 0.  0.
         11    1    3    3    0    0  0.11401866964E+03 -0.53896399087E+02 -0.12120872380E+03  0.17491893433E+03  0.00000000000E+00 0. -1.
        -11    1    3    3    0    0  0.72890627102E+02 -0.12538231925E+03 -0.20677611186E+03  0.25256708007E+03  0.00000000000E+00 0.  1.
          2    1    6    6  502    0 -0.85265619092E+02  0.11381623797E+03 -0.37057953703E+02  0.14696140227E+03  0.00000000000E+00 0. -1.
          1    1    5    5  503    0  0.35950406623E+01 -0.10912191163E+03  0.11844086008E+03  0.16108616716E+03  0.00000000000E+00 0. -1.
         -2    1    5    5    0  503 -0.17390666193E+02 -0.12771168204E+03  0.29851168281E+03  0.32514909468E+03  0.00000000000E+00 0.  1.
         -1    1    6    6    0  502 -0.87848052115E+02  0.30229607403E+03 -0.11660124450E+03  0.33570231881E+03  0.00000000000E+00 0.  1.
<mgrwt>
<rscale>  0 0.13948857E+04</rscale>
<asrwt>0</asrwt>
<pdfrwt beam="1">  1        2 0.10243796E+00 0.13948857E+04</pdfrwt>
<pdfrwt beam="2">  1       -2 0.11239050E+00 0.13948857E+04</pdfrwt>
<totfact> 0.26494069E+01</totfact>
</mgrwt>
</event>
<event>
12    1  0.1598876E-007  0.2312060E+04  0.7818608E-02  0.8473181E-01
          1   -1    0    0  501    0  0.00000000000E+00  0.00000000000E+00  0.18186752100E+04  0.18186752100E+04  0.00000000000E+00 0. -1.
         -1   -1    0    0    0  501 -0.00000000000E+00 -0.00000000000E+00 -0.73482377697E+03  0.73482377697E+03  0.00000000000E+00 0.  1.
         23    2    1    2    0    0  0.95578087540E+03  0.15501445808E+03  0.66029967367E+03  0.11762941294E+04  0.10062631777E+03 0.  0.
        254    2    1    2    0    0 -0.95578087540E+03 -0.15501445808E+03  0.42355175934E+03  0.13772048575E+04  0.88303485935E+03 0.  0.
        -24    2    4    4    0    0 -0.74861362837E+02  0.32595200131E+02 -0.23299066083E+03  0.25964688906E+03  0.80406394318E+02 0.  0.
         24    2    4    4    0    0 -0.88091951256E+03 -0.18760965821E+03  0.65654242017E+03  0.11175579685E+04  0.81677977261E+02 0.  0.
         11    1    3    3    0    0  0.31170638508E+03  0.48161713349E+02  0.27326367164E+03  0.41731697230E+03  0.00000000000E+00 0. -1.
        -11    1    3    3    0    0  0.64407449032E+03  0.10685274473E+03  0.38703600203E+03  0.75897715710E+03  0.00000000000E+00 0.  1.
          2    1    6    6  502    0 -0.71199480704E+03 -0.13591655940E+03  0.56195983473E+03  0.91717434123E+03  0.00000000000E+00 0. -1.
          3    1    5    5  503    0 -0.81267333384E+02  0.94146778529E+00 -0.15016799852E+03  0.17075038395E+03  0.00000000000E+00 0. -1.
         -4    1    5    5    0  503  0.64059705472E+01  0.31653732346E+02 -0.82822662309E+02  0.88896505117E+02  0.00000000000E+00 0.  1.
         -1    1    6    6    0  502 -0.16892470552E+03 -0.51693098809E+02  0.94582585445E+02  0.20038362725E+03  0.00000000000E+00 0.  1.
<mgrwt>
<rscale>  0 0.23120604E+04</rscale>
<asrwt>0</asrwt>
<pdfrwt beam="1">  1        1 0.27979618E+00 0.23120604E+04</pdfrwt>
<pdfrwt beam="2">  1       -1 0.11304981E+00 0.23120604E+04</pdfrwt>
<totfact> 0.25545292E+00</totfact>
</mgrwt>
</event>
<event>
12    1  0.1598876E-007  0.1969495E+04  0.7818608E-02  0.8621017E-01
          1   -1    0    0  501    0  0.00000000000E+00  0.00000000000E+00  0.28517858668E+04  0.28517858668E+04  0.00000000000E+00 0. -1.
         -1   -1    0    0    0  501 -0.00000000000E+00 -0.00000000000E+00 -0.34004233931E+03  0.34004233931E+03  0.00000000000E+00 0.  1.
         23    2    1    2    0    0  0.20567952425E+03  0.50630469664E+02  0.21754242950E+04  0.21876493218E+04  0.92039018588E+02 0.  0.
        254    2    1    2    0    0 -0.20567952425E+03 -0.50630469664E+02  0.33631923248E+03  0.10041788843E+04  0.92216977520E+03 0.  0.
        -24    2    4    4    0    0 -0.97414152115E+02  0.39015195166E+03  0.35519870113E+03  0.54301359035E+03  0.83603705628E+02 0.  0.
         24    2    4    4    0    0 -0.10826537214E+03 -0.44078242133E+03 -0.18879468649E+02  0.46116529391E+03  0.79413224444E+02 0.  0.
         11    1    3    3    0    0  0.96045456059E+02 -0.22812811524E+02  0.98402340587E+03  0.98896269763E+03  0.00000000000E+00 0. -1.
        -11    1    3    3    0    0  0.10963406820E+03  0.73443281188E+02  0.11914008891E+04  0.11986866242E+04  0.00000000000E+00 0.  1.
          2    1    6    6  502    0 -0.15136036261E+01  0.32518022812E+01  0.17958510648E+01  0.40112710031E+01  0.00000000000E+00 0. -1.
          1    1    5    5  503    0 -0.42794866146E+00 -0.71970065190E+00 -0.35659952390E+01  0.36629811807E+01  0.00000000000E+00 0. -1.
         -2    1    5    5    0  503 -0.96986203453E+02  0.39087165232E+03  0.35876469637E+03  0.53935060916E+03  0.00000000000E+00 0.  1.
         -1    1    6    6    0  502 -0.10675176851E+03 -0.44403422361E+03 -0.20675319714E+02  0.45715402291E+03  0.00000000000E+00 0.  1.
<mgrwt>
<rscale>  0 0.19694953E+04</rscale>
<asrwt>0</asrwt>
<pdfrwt beam="1">  1        1 0.43873627E+00 0.19694953E+04</pdfrwt>
<pdfrwt beam="2">  1       -1 0.52314208E-01 0.19694953E+04</pdfrwt>
<totfact> 0.26236265E+00</totfact>
</mgrwt>
</event>
<event>
12    1  0.1598876E-007  0.1611945E+04  0.7818608E-02  0.8813243E-01
          2   -1    0    0  501    0  0.00000000000E+00  0.00000000000E+00  0.22755574666E+04  0.22755574666E+04  0.00000000000E+00 0. -1.
         -2   -1    0    0    0  501 -0.00000000000E+00 -0.00000000000E+00 -0.28546470877E+03  0.28546470877E+03  0.00000000000E+00 0.  1.
         23    2    1    2    0    0  0.47653801484E+03  0.72677323811E+02  0.11320142374E+04  0.12337103535E+04  0.90634042128E+02 0.  0.
        254    2    1    2    0    0 -0.47653801484E+03 -0.72677323811E+02  0.85807852034E+03  0.13273118218E+04  0.89055457569E+03 0.  0.
        -24    2    4    4    0    0 -0.64531292168E+03  0.34698898749E+01  0.26671195746E+03  0.70288973029E+03  0.80485387954E+02 0.  0.
         24    2    4    4    0    0  0.16877490684E+03 -0.76147213686E+02  0.59136656288E+03  0.62442209152E+03  0.76845099796E+02 0.  0.
         11    1    3    3    0    0  0.33323409156E+03  0.42043375765E+02  0.67804789797E+03  0.75667797455E+03  0.00000000000E+00 0. -1.
        -11    1    3    3    0    0  0.14330392327E+03  0.30633948046E+02  0.45396633948E+03  0.47703237896E+03  0.00000000000E+00 0.  1.
          4    1    6    6  502    0  0.15931652776E+03 -0.90036467645E+02  0.52574417065E+03  0.55668236409E+03  0.00000000000E+00 0. -1.
          3    1    5    5  503    0 -0.64675483714E+03  0.52475142498E+01  0.26234093261E+03  0.69795567244E+03  0.00000000000E+00 0. -1.
         -4    1    5    5    0  503  0.14419154616E+01 -0.17776243749E+01  0.43710248503E+01  0.49340578491E+01  0.00000000000E+00 0.  1.
         -3    1    6    6    0  502  0.94583790853E+01  0.13889253960E+02  0.65622392232E+02  0.67739727433E+02  0.00000000000E+00 0.  1.
<mgrwt>
<rscale>  0 0.16119446E+04</rscale>
<asrwt>0</asrwt>
<pdfrwt beam="1">  1        2 0.35008575E+00 0.16119446E+04</pdfrwt>
<pdfrwt beam="2">  1       -2 0.43917649E-01 0.16119446E+04</pdfrwt>
<totfact> 0.22070298E+01</totfact>
</mgrwt>
</event>
<event>
12    1  0.1598876E-007  0.1668443E+04  0.7818608E-02  0.8779570E-01
          1   -1    0    0  501    0  0.00000000000E+00  0.00000000000E+00  0.17193795747E+04  0.17193795747E+04  0.00000000000E+00 0. -1.
         -1   -1    0    0    0  501 -0.00000000000E+00 -0.00000000000E+00 -0.40475390263E+03  0.40475390263E+03  0.00000000000E+00 0.  1.
         23    2    1    2    0    0  0.38967274137E+03 -0.39983961584E+03  0.72487155269E+03  0.91953702248E+03  0.91613339936E+02 0.  0.
        254    2    1    2    0    0 -0.38967274137E+03  0.39983961584E+03  0.58975411939E+03  0.12045964549E+04  0.88967754493E+03 0.  0.
        -24    2    4    4    0    0  0.12332082615E+03  0.49605956655E+03  0.23267196240E+03  0.56718088634E+03  0.79213610076E+02 0.  0.
         24    2    4    4    0    0 -0.51299356751E+03 -0.96219950711E+02  0.35708215699E+03  0.63741556851E+03  0.79813914295E+02 0.  0.
         11    1    3    3    0    0  0.24493135421E+03 -0.21144940515E+03  0.35904904278E+03  0.48334090902E+03  0.00000000000E+00 0.  1.
        -11    1    3    3    0    0  0.14474138716E+03 -0.18839021069E+03  0.36582250991E+03  0.43619611346E+03  0.00000000000E+00 0. -1.
          4    1    6    6  502    0 -0.34952556287E+02  0.12878010246E+02  0.32022850496E+02  0.49122167021E+02  0.00000000000E+00 0. -1.
          1    1    5    5  503    0  0.13134475470E+02  0.68090595002E+02  0.36631936138E+01  0.69442512635E+02  0.00000000000E+00 0. -1.
         -2    1    5    5    0  503  0.11018635068E+03  0.42796897155E+03  0.22900876878E+03  0.49773837371E+03  0.00000000000E+00 0.  1.
         -3    1    6    6    0  502 -0.47804101123E+03 -0.10909796096E+03  0.32505930650E+03  0.58829340149E+03  0.00000000000E+00 0.  1.
<mgrwt>
<rscale>  0 0.16684431E+04</rscale>
<asrwt>0</asrwt>
<pdfrwt beam="1">  1        1 0.26451993E+00 0.16684431E+04</pdfrwt>
<pdfrwt beam="2">  1       -1 0.62269832E-01 0.16684431E+04</pdfrwt>
<totfact> 0.11538188E+01</totfact>
</mgrwt>
</event>
<event>
12    1  0.1598876E-007  0.1040709E+04  0.7818608E-02  0.9264989E-01
          2   -1    0    0  501    0  0.00000000000E+00  0.00000000000E+00  0.43522016102E+03  0.43522016102E+03  0.00000000000E+00 0. -1.
         -2   -1    0    0    0  501 -0.00000000000E+00 -0.00000000000E+00 -0.62214273195E+03  0.62214273195E+03  0.00000000000E+00 0.  1.
         23    2    1    2    0    0 -0.37188410136E+01  0.87680761866E+02 -0.76387664473E+01  0.12784864902E+03  0.92656249235E+02 0.  0.
        254    2    1    2    0    0  0.37188410136E+01 -0.87680761866E+02 -0.17928380448E+03  0.92951424395E+03  0.90782834357E+03 0.  0.
        -24    2    4    4    0    0  0.36528041307E+03  0.16480426445E+03 -0.24536420686E+03  0.47650536733E+03  0.79142563313E+02 0.  0.
         24    2    4    4    0    0 -0.36156157206E+03 -0.25248502632E+03  0.66080402376E+02  0.45300887663E+03  0.79843370536E+02 0.  0.
         13    1    3    3    0    0  0.22929105872E+02  0.76345890473E+02 -0.35863502177E+02  0.87410695436E+02  0.00000000000E+00 0.  1.
        -13    1    3    3    0    0 -0.26647946885E+02  0.11334871393E+02  0.28224735729E+02  0.40437953579E+02  0.00000000000E+00 0. -1.
          2    1    6    6  502    0 -0.30510406461E+02 -0.49111611021E+02  0.22505149217E+02  0.62042864060E+02  0.00000000000E+00 0. -1.
          1    1    5    5  503    0  0.35382826943E+02  0.26467211730E+02 -0.27630441890E+01  0.44272927986E+02  0.00000000000E+00 0. -1.
         -2    1    5    5    0  503  0.32989758613E+03  0.13833705272E+03 -0.24260116267E+03  0.43223243934E+03  0.00000000000E+00 0.  1.
         -1    1    6    6    0  502 -0.33105116560E+03 -0.20337341530E+03  0.43575253160E+02  0.39096601257E+03  0.00000000000E+00 0.  1.
<mgrwt>
<rscale>  0 0.10407095E+04</rscale>
<asrwt>0</asrwt>
<pdfrwt beam="1">  1        2 0.66956948E-01 0.10407095E+04</pdfrwt>
<pdfrwt beam="2">  1       -2 0.95714266E-01 0.10407095E+04</pdfrwt>
<totfact> 0.65946468E+01</totfact>
</mgrwt>
</event>
<event>
12    1  0.1598876E-007  0.1969501E+04  0.7818608E-02  0.8621014E-01
          2   -1    0    0  501    0  0.00000000000E+00  0.00000000000E+00  0.13151412109E+04  0.13151412109E+04  0.00000000000E+00 0. -1.
         -2   -1    0    0    0  501 -0.00000000000E+00 -0.00000000000E+00 -0.73736112196E+03  0.73736112196E+03  0.00000000000E+00 0.  1.
         23    2    1    2    0    0 -0.40354956151E+03  0.50690955420E+03 -0.22610362783E+03  0.69234062962E+03  0.91668708748E+02 0.  0.
        254    2    1    2    0    0  0.40354956151E+03 -0.50690955420E+03  0.80388371679E+03  0.13601617033E+04  0.88543847002E+03 0.  0.
        -24    2    4    4    0    0  0.24054916212E+03 -0.18286196781E+02 -0.13369337955E+03  0.28752769768E+03  0.81240216708E+02 0.  0.
         24    2    4    4    0    0  0.16300039940E+03 -0.48862335742E+03  0.93757709634E+03  0.10726340056E+04  0.78555602875E+02 0.  0.
         13    1    3    3    0    0 -0.32619783297E+03  0.42281867328E+03 -0.22107113866E+03  0.57797327365E+03  0.00000000000E+00 0. -1.
        -13    1    3    3    0    0 -0.77351728548E+02  0.84090880919E+02 -0.50324891657E+01  0.11436735596E+03  0.00000000000E+00 0.  1.
          2    1    6    6  502    0  0.16697590143E+03 -0.48899352862E+03  0.93323797993E+03  0.10667374325E+04  0.00000000000E+00 0. -1.
          1    1    5    5  503    0  0.22461005879E+03 -0.39324802119E+02 -0.11692313921E+03  0.25625600297E+03  0.00000000000E+00 0. -1.
         -2    1    5    5    0  503  0.15939103321E+02  0.21038605338E+02 -0.16770240342E+02  0.31271694715E+02  0.00000000000E+00 0.  1.
         -1    1    6    6    0  502 -0.39755020284E+01  0.37017120215E+00  0.43391164163E+01  0.58965731040E+01  0.00000000000E+00 0.  1.
<mgrwt>
<rscale>  0 0.19695015E+04</rscale>
<asrwt>0</asrwt>
<pdfrwt beam="1">  1        2 0.20232942E+00 0.19695015E+04</pdfrwt>
<pdfrwt beam="2">  1       -2 0.11344017E+00 0.19695015E+04</pdfrwt>
<totfact> 0.91990462E+00</totfact>
</mgrwt>
</event>
<event>
12    1  0.1598876E-007  0.1267603E+04  0.7818608E-02  0.9055658E-01
         -1   -1    0    0    0  501 -0.00000000000E+00  0.00000000000E+00  0.27257820281E+03  0.27257820281E+03  0.00000000000E+00 0.  1.
          1   -1    0    0  501    0  0.00000000000E+00 -0.00000000000E+00 -0.14737209306E+04  0.14737209306E+04  0.00000000000E+00 0. -1.
         23    2    1    2    0    0 -0.25484968915E+02  0.23561799875E+03 -0.99975062584E+02  0.27301095435E+03  0.91513075995E+02 0.  0.
        254    2    1    2    0    0  0.25484968915E+02 -0.23561799875E+03 -0.11011676652E+04  0.14732881791E+04  0.94965388785E+03 0.  0.
        -24    2    4    4    0    0 -0.18701707137E+03  0.25493865068E+03 -0.77772419228E+03  0.84337479105E+03  0.80355574296E+02 0.  0.
         24    2    4    4    0    0  0.21250204028E+03 -0.49055664943E+03 -0.32344347297E+03  0.62991338805E+03  0.79826391724E+02 0.  0.
         11    1    3    3    0    0 -0.25524597128E+02  0.21977973661E+02 -0.37537193971E+02  0.50433890551E+02  0.00000000000E+00 0. -1.
        -11    1    3    3    0    0  0.39628213325E-01  0.21364002509E+03 -0.62437868612E+02  0.22257706380E+03  0.00000000000E+00 0.  1.
          2    1    6    6  502    0  0.10251616288E+02 -0.59923094991E+00 -0.86339119930E+01  0.13416376208E+02  0.00000000000E+00 0. -1.
          3    1    5    5  503    0 -0.11649307476E+02  0.61347133442E+02 -0.11187279441E+03  0.12811986292E+03  0.00000000000E+00 0. -1.
         -4    1    5    5    0  503 -0.17536776389E+03  0.19359151724E+03 -0.66585139787E+03  0.71525492812E+03  0.00000000000E+00 0.  1.
         -1    1    6    6    0  502  0.20225042400E+03 -0.48995741848E+03 -0.31480956097E+03  0.61649701185E+03  0.00000000000E+00 0.  1.
<mgrwt>
<rscale>  0 0.12676028E+04</rscale>
<asrwt>0</asrwt>
<pdfrwt beam="1">  1        1 0.22672630E+00 0.12676028E+04</pdfrwt>
<pdfrwt beam="2">  1       -1 0.41935108E-01 0.12676028E+04</pdfrwt>
<totfact> 0.37511339E+01</totfact>
</mgrwt>
</event>
<event>
12    1  0.1598876E-007  0.1869296E+04  0.7818608E-02  0.8670292E-01
          1   -1    0    0  501    0  0.00000000000E+00  0.00000000000E+00  0.17006521076E+04  0.17006521076E+04  0.00000000000E+00 0. -1.
         -1   -1    0    0    0  501 -0.00000000000E+00 -0.00000000000E+00 -0.51366580030E+03  0.51366580030E+03  0.00000000000E+00 0.  1.
         23    2    1    2    0    0  0.51051472442E+03  0.35277197714E+03  0.54321445623E+02  0.62977539725E+03  0.92697787599E+02 0.  0.
        254    2    1    2    0    0 -0.51051472442E+03 -0.35277197714E+03  0.11326648617E+04  0.15845425107E+04  0.91802610393E+03 0.  0.
        -24    2    4    4    0    0 -0.33823394916E+03  0.22867593685E+03  0.76613754361E+03  0.87144481386E+03  0.75858021387E+02 0.  0.
         24    2    4    4    0    0 -0.17228077525E+03 -0.58144791398E+03  0.36652731808E+03  0.71309769681E+03  0.80023172264E+02 0.  0.
         13    1    3    3    0    0  0.13344863743E+02  0.22798565788E+02  0.17993095825E+02  0.31962657707E+02  0.00000000000E+00 0. -1.
        -13    1    3    3    0    0  0.49716986067E+03  0.32997341135E+03  0.36328349799E+02  0.59781273954E+03  0.00000000000E+00 0.  1.
          2    1    6    6  502    0 -0.98243424900E+02 -0.45165085552E+03  0.27302867333E+03  0.53682857812E+03  0.00000000000E+00 0. -1.
          1    1    5    5  503    0 -0.24881735264E+03  0.18567969185E+03  0.63665825462E+03  0.70832249444E+03  0.00000000000E+00 0. -1.
         -2    1    5    5    0  503 -0.89416596519E+02  0.42996244995E+02  0.12947928899E+03  0.16312231942E+03  0.00000000000E+00 0.  1.
         -1    1    6    6    0  502 -0.74037350354E+02 -0.12979705847E+03  0.93498644752E+02  0.17626911869E+03  0.00000000000E+00 0.  1.
<mgrwt>
<rscale>  0 0.18692959E+04</rscale>
<asrwt>0</asrwt>
<pdfrwt beam="1">  1        1 0.26163878E+00 0.18692959E+04</pdfrwt>
<pdfrwt beam="2">  1       -1 0.79025509E-01 0.18692959E+04</pdfrwt>
<totfact> 0.71504028E+00</totfact>
</mgrwt>
</event>
<event>
12    1  0.1598876E-007  0.2525639E+04  0.7818608E-02  0.8393908E-01
          2   -1    0    0  501    0  0.00000000000E+00  0.00000000000E+00  0.11823675001E+04  0.11823675001E+04  0.00000000000E+00 0. -1.
         -2   -1    0    0    0  501 -0.00000000000E+00 -0.00000000000E+00 -0.13487457833E+04  0.13487457833E+04  0.00000000000E+00 0.  1.
         23    2    1    2    0    0  0.42978819832E+03  0.86466051997E+03  0.45540506096E+03  0.10719895233E+04  0.97015763411E+02 0.  0.
        254    2    1    2    0    0 -0.42978819832E+03 -0.86466051997E+03 -0.62178334409E+03  0.14591237601E+04  0.90003994913E+03 0.  0.
        -24    2    4    4    0    0 -0.55951360239E+01 -0.69079890380E+03 -0.16840293941E+02  0.69590729269E+03  0.82273528414E+02 0.  0.
         24    2    4    4    0    0 -0.42419306230E+03 -0.17386161616E+03 -0.60494305014E+03  0.76321646738E+03  0.79847770712E+02 0.  0.
         11    1    3    3    0    0 -0.30262410088E+01  0.18759806083E+02  0.17137192988E+02  0.25588509968E+02  0.00000000000E+00 0.  1.
        -11    1    3    3    0    0  0.43281443933E+03  0.84590071388E+03  0.43826786797E+03  0.10464010133E+04  0.00000000000E+00 0. -1.
          2    1    6    6  502    0 -0.19172414035E+03 -0.83188219047E+02 -0.21165646023E+03  0.29745063950E+03  0.00000000000E+00 0. -1.
          1    1    5    5  503    0 -0.33694189585E+02 -0.14007264422E+03 -0.10129091266E+02  0.14442382961E+03  0.00000000000E+00 0. -1.
         -2    1    5    5    0  503  0.28099053562E+02 -0.55072625959E+03 -0.67112026746E+01  0.55148346308E+03  0.00000000000E+00 0.  1.
         -1    1    6    6    0  502 -0.23246892195E+03 -0.90673397114E+02 -0.39328658992E+03  0.46576582788E+03  0.00000000000E+00 0.  1.
<mgrwt>
<rscale>  0 0.25256391E+04</rscale>
<asrwt>0</asrwt>
<pdfrwt beam="1">  1        2 0.18190269E+00 0.25256391E+04</pdfrwt>
<pdfrwt beam="2">  1       -2 0.20749935E+00 0.25256391E+04</pdfrwt>
<totfact> 0.20526778E+00</totfact>
</mgrwt>
</event>
<event>
12    1  0.1598876E-007  0.1812010E+04  0.7818608E-02  0.8699939E-01
          2   -1    0    0  501    0  0.00000000000E+00  0.00000000000E+00  0.20925791347E+04  0.20925791347E+04  0.00000000000E+00 0. -1.
         -2   -1    0    0    0  501 -0.00000000000E+00 -0.00000000000E+00 -0.39226481485E+03  0.39226481485E+03  0.00000000000E+00 0.  1.
         23    2    1    2    0    0 -0.48940531305E+03  0.71026214306E+02  0.12768512937E+04  0.13722754842E+04  0.90711051168E+02 0.  0.
        254    2    1    2    0    0  0.48940531305E+03 -0.71026214306E+02  0.42346302614E+03  0.11125684653E+04  0.90217812651E+03 0.  0.
        -24    2    4    4    0    0  0.46686545021E+01 -0.37874865025E+03  0.36235403787E+03  0.52985749083E+03  0.77305727001E+02 0.  0.
         24    2    4    4    0    0  0.48473665855E+03  0.30772243594E+03  0.61108988271E+02  0.58271097450E+03  0.78454098852E+02 0.  0.
         13    1    3    3    0    0 -0.13762783898E+03  0.33821371903E+02  0.26734701869E+03  0.30258839314E+03  0.00000000000E+00 0.  1.
        -13    1    3    3    0    0 -0.35177747407E+03  0.37204842403E+02  0.10095042750E+04  0.10696870911E+04  0.00000000000E+00 0. -1.
          2    1    6    6  502    0  0.28752008356E+02  0.57394362539E+00  0.10452559133E+02  0.30598421335E+02  0.00000000000E+00 0. -1.
          3    1    5    5  503    0 -0.36033539499E+02 -0.15714149236E+03  0.15541869668E+03  0.22393489203E+03  0.00000000000E+00 0. -1.
         -4    1    5    5    0  503  0.40702194001E+02 -0.22160715788E+03  0.20693534119E+03  0.30592259880E+03  0.00000000000E+00 0.  1.
         -1    1    6    6    0  502  0.45598465019E+03  0.30714849232E+03  0.50656429138E+02  0.55211255316E+03  0.00000000000E+00 0.  1.
<mgrwt>
<rscale>  0 0.18120101E+04</rscale>
<asrwt>0</asrwt>
<pdfrwt beam="1">  1        2 0.32193524E+00 0.18120101E+04</pdfrwt>
<pdfrwt beam="2">  1       -2 0.60348434E-01 0.18120101E+04</pdfrwt>
<totfact> 0.14315636E+01</totfact>
</mgrwt>
</event>
<event>
12    1  0.1598876E-007  0.1609319E+04  0.7818608E-02  0.8814843E-01
          1   -1    0    0  501    0  0.00000000000E+00  0.00000000000E+00  0.70983481029E+03  0.70983481029E+03  0.00000000000E+00 0. -1.
         -1   -1    0    0    0  501 -0.00000000000E+00 -0.00000000000E+00 -0.91215202828E+03  0.91215202828E+03  0.00000000000E+00 0.  1.
         23    2    1    2    0    0 -0.77953809576E+02 -0.26473286671E+03 -0.55729430701E+03  0.62703260144E+03  0.80203812286E+02 0.  0.
        254    2    1    2    0    0  0.77953809576E+02  0.26473286671E+03  0.35497708902E+03  0.99495423713E+03  0.88756121654E+03 0.  0.
        -24    2    4    4    0    0  0.42308564767E+03  0.55309728303E+02  0.38827642834E+03  0.58219613546E+03  0.78314264573E+02 0.  0.
         24    2    4    4    0    0 -0.34513183809E+03  0.20942313841E+03 -0.33299339324E+02  0.41275810167E+03  0.79286618835E+02 0.  0.
         13    1    3    3    0    0 -0.41692008424E+02 -0.64202107804E+02 -0.96406697796E+02  0.12310315021E+03  0.00000000000E+00 0. -1.
        -13    1    3    3    0    0 -0.36261801152E+02 -0.20053075891E+03 -0.46088760921E+03  0.50392945123E+03  0.00000000000E+00 0.  1.
          4    1    6    6  502    0 -0.20914668382E+03  0.17032650440E+03 -0.15872114245E+02  0.27019507298E+03  0.00000000000E+00 0. -1.
          3    1    5    5  503    0  0.41228898023E+03  0.65073238249E+02  0.36363679966E+03  0.55357786411E+03  0.00000000000E+00 0. -1.
         -4    1    5    5    0  503  0.10796667434E+02 -0.97635099457E+01  0.24639628675E+02  0.28618271356E+02  0.00000000000E+00 0.  1.
         -3    1    6    6    0  502 -0.13598515427E+03  0.39096634009E+02 -0.17427225079E+02  0.14256302868E+03  0.00000000000E+00 0.  1.
<mgrwt>
<rscale>  0 0.16093194E+04</rscale>
<asrwt>0</asrwt>
<pdfrwt beam="1">  1        1 0.10920535E+00 0.16093194E+04</pdfrwt>
<pdfrwt beam="2">  1       -1 0.14033108E+00 0.16093194E+04</pdfrwt>
<totfact> 0.10653712E+01</totfact>
</mgrwt>
</event>
<event>
12    1  0.1598876E-007  0.1649098E+04  0.7818608E-02  0.8790940E-01
         -2   -1    0    0    0  501 -0.00000000000E+00  0.00000000000E+00  0.64696827240E+03  0.64696827240E+03  0.00000000000E+00 0.  1.
          2   -1    0    0  501    0  0.00000000000E+00 -0.00000000000E+00 -0.10508725284E+04  0.10508725284E+04  0.00000000000E+00 0. -1.
         23    2    1    2    0    0 -0.21847783255E+02  0.31283061840E+03 -0.63686580680E+03  0.71493216462E+03  0.84791642794E+02 0.  0.
        254    2    1    2    0    0  0.21847783255E+02 -0.31283061840E+03  0.23296155079E+03  0.98290863620E+03  0.90194122953E+03 0.  0.
        -24    2    4    4    0    0  0.34871339084E+03 -0.25620911377E+03 -0.15407836611E+03  0.46702466974E+03  0.84426064159E+02 0.  0.
         24    2    4    4    0    0 -0.32686560758E+03 -0.56621504633E+02  0.38703991690E+03  0.51588396646E+03  0.79304787796E+02 0.  0.
         13    1    3    3    0    0 -0.29470351130E+02  0.27976392558E+03 -0.60968239731E+03  0.67145288832E+03  0.00000000000E+00 0. -1.
        -13    1    3    3    0    0  0.76225678758E+01  0.33066692822E+02 -0.27183409492E+02  0.43479276291E+02  0.00000000000E+00 0.  1.
          4    1    6    6  502    0 -0.26995362081E+03 -0.60092476549E+02  0.27416750120E+03  0.38942763363E+03  0.00000000000E+00 0. -1.
          1    1    5    5  503    0  0.23346908351E+03 -0.12037892104E+03 -0.87795822921E+02  0.27696029337E+03  0.00000000000E+00 0. -1.
         -2    1    5    5    0  503  0.11524430733E+03 -0.13583019273E+03 -0.66282543193E+02  0.19006437636E+03  0.00000000000E+00 0.  1.
         -3    1    6    6    0  502 -0.56911986776E+02  0.34709719156E+01  0.11287241571E+03  0.12645633283E+03  0.00000000000E+00 0.  1.
<mgrwt>
<rscale>  0 0.16490982E+04</rscale>
<asrwt>0</asrwt>
<pdfrwt beam="1">  1        2 0.16167270E+00 0.16490982E+04</pdfrwt>
<pdfrwt beam="2">  1       -2 0.99533581E-01 0.16490982E+04</pdfrwt>
<totfact> 0.18657280E+01</totfact>
</mgrwt>
</event>
<event>
12    1  0.1598876E-007  0.1296841E+04  0.7818608E-02  0.9032074E-01
         -2   -1    0    0    0  501 -0.00000000000E+00  0.00000000000E+00  0.67019050134E+03  0.67019050134E+03  0.00000000000E+00 0.  1.
          2   -1    0    0  501    0  0.00000000000E+00 -0.00000000000E+00 -0.62735754493E+03  0.62735754493E+03  0.00000000000E+00 0. -1.
         23    2    1    2    0    0  0.83402907407E+02 -0.95518271363E+02 -0.29812373247E+03  0.33625803908E+03  0.90066219255E+02 0.  0.
        254    2    1    2    0    0 -0.83402907407E+02  0.95518271363E+02  0.34095668888E+03  0.96129000720E+03  0.88980179204E+03 0.  0.
        -24    2    4    4    0    0  0.16705142121E+02 -0.35753922272E+03 -0.19791149877E+02  0.36826671232E+03  0.84352381296E+02 0.  0.
         24    2    4    4    0    0 -0.10010804953E+03  0.45305749409E+03  0.36074783876E+03  0.59302329488E+03  0.79087992587E+02 0.  0.
         13    1    3    3    0    0 -0.40819764534E+01 -0.53412527331E+02 -0.14876913037E+03  0.15811962167E+03  0.00000000000E+00 0. -1.
        -13    1    3    3    0    0  0.87484883861E+02 -0.42105744032E+02 -0.14935460211E+03  0.17813841741E+03  0.00000000000E+00 0.  1.
          2    1    6    6  502    0 -0.21845536056E+02  0.20177506161E+02  0.33211840595E+02  0.44580102693E+02  0.00000000000E+00 0. -1.
          3    1    5    5  503    0  0.26409285629E+02 -0.53199021427E+02  0.16432476028E+02  0.61624771939E+02  0.00000000000E+00 0. -1.
         -4    1    5    5    0  503 -0.97041435076E+01 -0.30434020130E+03 -0.36223625904E+02  0.30664194038E+03  0.00000000000E+00 0.  1.
         -1    1    6    6    0  502 -0.78262513473E+02  0.43287998792E+03  0.32753599816E+03  0.54844319218E+03  0.00000000000E+00 0.  1.
<mgrwt>
<rscale>  0 0.12968409E+04</rscale>
<asrwt>0</asrwt>
<pdfrwt beam="1">  1        2 0.96516545E-01 0.12968409E+04</pdfrwt>
<pdfrwt beam="2">  1       -2 0.10310623E+00 0.12968409E+04</pdfrwt>
<totfact> 0.35367784E+01</totfact>
</mgrwt>
</event>
<event>
12    1  0.1598876E-007  0.1792015E+04  0.7818608E-02  0.8710557E-01
         -2   -1    0    0    0  501 -0.00000000000E+00  0.00000000000E+00  0.89908480472E+03  0.89908480472E+03  0.00000000000E+00 0.  1.
          2   -1    0    0  501    0  0.00000000000E+00 -0.00000000000E+00 -0.89294065147E+03  0.89294065147E+03  0.00000000000E+00 0. -1.
         23    2    1    2    0    0  0.14421144175E+03 -0.28855760284E+03 -0.57816113389E+03  0.66828790891E+03  0.90972536322E+02 0.  0.
        254    2    1    2    0    0 -0.14421144175E+03  0.28855760284E+03  0.58430528714E+03  0.11237375473E+04  0.90405252973E+03 0.  0.
        -24    2    4    4    0    0 -0.36619169359E+03 -0.80656688923E+02  0.56800006059E+03  0.68527245331E+03  0.79827366887E+02 0.  0.
         24    2    4    4    0    0  0.22198025184E+03  0.36921429176E+03  0.16305226546E+02  0.43846509398E+03  0.79945936590E+02 0.  0.
         13    1    3    3    0    0  0.62060375539E+02 -0.21554111681E+03 -0.36368189359E+03  0.42728676902E+03  0.00000000000E+00 0.  1.
        -13    1    3    3    0    0  0.82151066215E+02 -0.73016486029E+02 -0.21447924029E+03  0.24100113989E+03  0.00000000000E+00 0. -1.
          4    1    6    6  502    0  0.55732926335E+01  0.15125103052E+02 -0.15372781646E+02  0.22274486496E+02  0.00000000000E+00 0. -1.
          3    1    5    5  503    0  0.67943844240E+00 -0.79090972119E+01  0.50679991651E+01  0.94180715034E+01  0.00000000000E+00 0. -1.
         -4    1    5    5    0  503 -0.36687113203E+03 -0.72747591711E+02  0.56293206143E+03  0.67585438180E+03  0.00000000000E+00 0.  1.
         -3    1    6    6    0  502  0.21640695920E+03  0.35408918871E+03  0.31678008192E+02  0.41619060748E+03  0.00000000000E+00 0.  1.
<mgrwt>
<rscale>  0 0.17920149E+04</rscale>
<asrwt>0</asrwt>
<pdfrwt beam="1">  1        2 0.13737549E+00 0.17920149E+04</pdfrwt>
<pdfrwt beam="2">  1       -2 0.13832074E+00 0.17920149E+04</pdfrwt>
<totfact> 0.10377325E+01</totfact>
</mgrwt>
</event>
<event>
12    1  0.1598876E-007  0.1205486E+04  0.7818608E-02  0.9108068E-01
         -2   -1    0    0    0  501 -0.00000000000E+00  0.00000000000E+00  0.73184793645E+03  0.73184793645E+03  0.00000000000E+00 0.  1.
          2   -1    0    0  501    0  0.00000000000E+00 -0.00000000000E+00 -0.49641351551E+03  0.49641351551E+03  0.00000000000E+00 0. -1.
         23    2    1    2    0    0 -0.33848415746E+02 -0.28467556242E+03  0.72401539750E+02  0.30930145335E+03  0.90771774236E+02 0.  0.
        254    2    1    2    0    0  0.33848415746E+02  0.28467556242E+03  0.16303288119E+03  0.91895999861E+03  0.85774230840E+03 0.  0.
        -24    2    4    4    0    0  0.32183962039E+03 -0.16014989277E+03  0.83743476905E+02  0.37747783601E+03  0.79043135983E+02 0.  0.
         24    2    4    4    0    0 -0.28799120464E+03  0.44482545519E+03  0.79289404282E+02  0.54148216261E+03  0.78150516656E+02 0.  0.
         11    1    3    3    0    0  0.21957627865E+01 -0.18767813057E+03  0.89196661835E+01  0.18790280071E+03  0.00000000000E+00 0. -1.
        -11    1    3    3    0    0 -0.36044178533E+02 -0.96997431842E+02  0.63481873567E+02  0.12139865263E+03  0.00000000000E+00 0.  1.
          4    1    6    6  502    0 -0.23179612256E+03  0.39761228682E+03  0.84357172918E+02  0.46791142932E+03  0.00000000000E+00 0. -1.
          1    1    5    5  503    0  0.21577234887E+03 -0.98400666537E+02  0.92226634641E+02  0.25445264756E+03  0.00000000000E+00 0. -1.
         -2    1    5    5    0  503  0.10606727152E+03 -0.61749226236E+02 -0.84831577359E+01  0.12302518845E+03  0.00000000000E+00 0.  1.
         -3    1    6    6    0  502 -0.56195082080E+02  0.47213168371E+02 -0.50677686362E+01  0.73570733288E+02  0.00000000000E+00 0.  1.
<mgrwt>
<rscale>  0 0.12054861E+04</rscale>
<asrwt>0</asrwt>
<pdfrwt beam="1">  1        2 0.76371310E-01 0.12054861E+04</pdfrwt>
<pdfrwt beam="2">  1       -2 0.11259199E+00 0.12054861E+04</pdfrwt>
<totfact> 0.38027266E+01</totfact>
</mgrwt>
</event>
<event>
12    1  0.1598876E-007  0.1107716E+04  0.7818608E-02  0.9197704E-01
         -2   -1    0    0    0  501 -0.00000000000E+00  0.00000000000E+00  0.36573241015E+03  0.36573241015E+03  0.00000000000E+00 0.  1.
          2   -1    0    0  501    0  0.00000000000E+00 -0.00000000000E+00 -0.83875167869E+03  0.83875167869E+03  0.00000000000E+00 0. -1.
         23    2    1    2    0    0  0.20952908329E+02 -0.10654850716E+03 -0.22951880643E+03  0.27059907022E+03  0.93559422561E+02 0.  0.
        254    2    1    2    0    0 -0.20952908329E+02  0.10654850716E+03 -0.24350046211E+03  0.93388501863E+03  0.89501795749E+03 0.  0.
        -24    2    4    4    0    0 -0.78713215594E+02  0.18871858947E+03  0.30181810667E+03  0.37327130878E+03  0.80167475452E+02 0.  0.
         24    2    4    4    0    0  0.57760307265E+02 -0.82170082312E+02 -0.54531856878E+03  0.56061370985E+03  0.82626961046E+02 0.  0.
         11    1    3    3    0    0  0.36117115270E+02 -0.64044587283E+02 -0.59182162974E+02  0.94385823035E+02  0.00000000000E+00 0. -1.
        -11    1    3    3    0    0 -0.15164206941E+02 -0.42503919874E+02 -0.17033664346E+03  0.17621324718E+03  0.00000000000E+00 0.  1.
          4    1    6    6  502    0  0.73707367802E+02 -0.80467956422E+02 -0.40723651625E+03  0.42160342533E+03  0.00000000000E+00 0. -1.
          1    1    5    5  503    0 -0.76999298996E+02  0.16358984713E+03  0.29688162038E+03  0.34760498652E+03  0.00000000000E+00 0. -1.
         -2    1    5    5    0  503 -0.17139165983E+01  0.25128742335E+02  0.49364862911E+01  0.25666322260E+02  0.00000000000E+00 0.  1.
         -3    1    6    6    0  502 -0.15947060537E+02 -0.17021258907E+01 -0.13808205253E+03  0.13901028452E+03  0.00000000000E+00 0.  1.
<mgrwt>
<rscale>  0 0.11077160E+04</rscale>
<asrwt>0</asrwt>
<pdfrwt beam="1">  1        2 0.12903872E+00 0.11077160E+04</pdfrwt>
<pdfrwt beam="2">  1       -2 0.56266525E-01 0.11077160E+04</pdfrwt>
<totfact> 0.95114523E+01</totfact>
</mgrwt>
</event>
<event>
12    1  0.1598876E-007  0.1645750E+04  0.7818608E-02  0.8792925E-01
         -2   -1    0    0    0  501 -0.00000000000E+00  0.00000000000E+00  0.32133903458E+03  0.32133903458E+03  0.00000000000E+00 0.  1.
          2   -1    0    0  501    0  0.00000000000E+00 -0.00000000000E+00 -0.21071919658E+04  0.21071919658E+04  0.00000000000E+00 0. -1.
         23    2    1    2    0    0  0.28120453938E+03  0.49605870018E+03 -0.66039688744E+03  0.87573031091E+03  0.75028671255E+02 0.  0.
        254    2    1    2    0    0 -0.28120453938E+03 -0.49605870018E+03 -0.11254560438E+04  0.15528006895E+04  0.90520077759E+03 0.  0.
        -24    2    4    4    0    0  0.13325802040E+03 -0.44715501963E+03 -0.16251820325E+03  0.50040740774E+03  0.79310123856E+02 0.  0.
         24    2    4    4    0    0 -0.41446255977E+03 -0.48903680550E+02 -0.96293784051E+03  0.10523932817E+04  0.78176411493E+02 0.  0.
         11    1    3    3    0    0  0.12844151281E+03  0.21523301822E+03 -0.23482583147E+03  0.34346127215E+03  0.00000000000E+00 0. -1.
        -11    1    3    3    0    0  0.15276302657E+03  0.28082568197E+03 -0.42557105597E+03  0.53226903876E+03  0.00000000000E+00 0.  1.
          2    1    6    6  502    0 -0.41636484088E+03 -0.53097676167E+02 -0.94809759624E+03  0.10368549059E+04  0.00000000000E+00 0. -1.
          3    1    5    5  503    0  0.32584772922E+02 -0.77551635532E+02  0.43350073536E+00  0.84120220654E+02  0.00000000000E+00 0. -1.
         -4    1    5    5    0  503  0.10067324747E+03 -0.36960338410E+03 -0.16295170399E+03  0.41628718708E+03  0.00000000000E+00 0.  1.
         -1    1    6    6    0  502  0.19022811120E+01  0.41939956162E+01 -0.14840244272E+02  0.15538375807E+02  0.00000000000E+00 0.  1.
<mgrwt>
<rscale>  0 0.16457497E+04</rscale>
<asrwt>0</asrwt>
<pdfrwt beam="1">  1        2 0.32418337E+00 0.16457497E+04</pdfrwt>
<pdfrwt beam="2">  1       -2 0.49436776E-01 0.16457497E+04</pdfrwt>
<totfact> 0.21552802E+01</totfact>
</mgrwt>
</event>
<event>
12    1  0.1598876E-007  0.1330989E+04  0.7818608E-02  0.9005345E-01
         -2   -1    0    0    0  501 -0.00000000000E+00  0.00000000000E+00  0.20771402549E+03  0.20771402549E+03  0.00000000000E+00 0.  1.
          2   -1    0    0  501    0  0.00000000000E+00 -0.00000000000E+00 -0.21321775154E+04  0.21321775154E+04  0.00000000000E+00 0. -1.
         23    2    1    2    0    0  0.24091541077E+03  0.12141855925E+03 -0.91806620726E+03  0.96119781000E+03  0.90955853859E+02 0.  0.
        254    2    1    2    0    0 -0.24091541077E+03 -0.12141855925E+03 -0.10063972827E+04  0.13786937309E+04  0.90287220103E+03 0.  0.
        -24    2    4    4    0    0 -0.31308274577E+03  0.15286078443E+03 -0.10234827757E+04  0.10840870932E+04  0.79627937872E+02 0.  0.
         24    2    4    4    0    0  0.72167334997E+02 -0.27427934367E+03  0.17085492974E+02  0.29460663770E+03  0.77870882254E+02 0.  0.
         13    1    3    3    0    0 -0.68442578358E+01  0.13039241707E+01 -0.92040621505E+01  0.11543779435E+02  0.00000000000E+00 0.  1.
        -13    1    3    3    0    0  0.24775966861E+03  0.12011463507E+03 -0.90886214511E+03  0.94965403057E+03  0.00000000000E+00 0. -1.
          4    1    6    6  502    0  0.72512047013E+02 -0.13084919118E+03 -0.39020279504E+01  0.14964870069E+03  0.00000000000E+00 0. -1.
          1    1    5    5  503    0 -0.40046567329E+02 -0.42282826017E+01 -0.15839569876E+03  0.16343440065E+03  0.00000000000E+00 0. -1.
         -2    1    5    5    0  503 -0.27303617844E+03  0.15708906703E+03 -0.86508707689E+03  0.92065269256E+03  0.00000000000E+00 0.  1.
         -3    1    6    6    0  502 -0.34471201608E+00 -0.14343015249E+03  0.20987520925E+02  0.14495793702E+03  0.00000000000E+00 0.  1.
<mgrwt>
<rscale>  0 0.13309894E+04</rscale>
<asrwt>0</asrwt>
<pdfrwt beam="1">  1        2 0.32802729E+00 0.13309894E+04</pdfrwt>
<pdfrwt beam="2">  1       -2 0.31956006E-01 0.13309894E+04</pdfrwt>
<totfact> 0.50290799E+01</totfact>
</mgrwt>
</event>
<event>
12    1  0.1598876E-007  0.1954712E+04  0.7818608E-02  0.8628092E-01
         -1   -1    0    0    0  501 -0.00000000000E+00  0.00000000000E+00  0.13017659383E+04  0.13017659383E+04  0.00000000000E+00 0.  1.
          1   -1    0    0  501    0  0.00000000000E+00 -0.00000000000E+00 -0.73379126234E+03  0.73379126234E+03  0.00000000000E+00 0. -1.
         23    2    1    2    0    0  0.14433129449E+03 -0.49253199999E+03  0.81540689555E+03  0.96746074155E+03  0.87593307579E+02 0.  0.
        254    2    1    2    0    0 -0.14433129449E+03  0.49253199999E+03 -0.24743221960E+03  0.10680964591E+04  0.90343126413E+03 0.  0.
        -24    2    4    4    0    0  0.35105824778E+03  0.24504795092E+03 -0.26167623090E+03  0.50812040003E+03  0.80134259374E+02 0.  0.
         24    2    4    4    0    0 -0.49538954226E+03  0.24748404907E+03  0.14244011292E+02  0.55997605905E+03  0.81921558327E+02 0.  0.
         11    1    3    3    0    0  0.14481015094E+03 -0.48473067788E+03  0.81546538306E+03  0.95964451797E+03  0.00000000000E+00 0.  1.
        -11    1    3    3    0    0 -0.47885644848E+00 -0.78013221139E+01 -0.58487511675E-01  0.78162235774E+01  0.00000000000E+00 0. -1.
          2    1    6    6  502    0 -0.36718879907E+03  0.21087404616E+03  0.35699047715E+02  0.42493517095E+03  0.00000000000E+00 0. -1.
          1    1    5    5  503    0  0.30353539611E+03  0.18336647636E+03 -0.23664422392E+03  0.42633025937E+03  0.00000000000E+00 0. -1.
         -2    1    5    5    0  503  0.47522851671E+02  0.61681474564E+02 -0.25032006975E+02  0.81790140657E+02  0.00000000000E+00 0.  1.
         -1    1    6    6    0  502 -0.12820074320E+03  0.36610002910E+02 -0.21455036423E+02  0.13504088810E+03  0.00000000000E+00 0.  1.
<mgrwt>
<rscale>  0 0.19547117E+04</rscale>
<asrwt>0</asrwt>
<pdfrwt beam="1">  1        1 0.11289096E+00 0.19547117E+04</pdfrwt>
<pdfrwt beam="2">  1       -1 0.20027168E+00 0.19547117E+04</pdfrwt>
<totfact> 0.35358444E+00</totfact>
</mgrwt>
</event>
<event>
12    1  0.1598876E-007  0.1328379E+04  0.7818608E-02  0.9007358E-01
         -2   -1    0    0    0  501 -0.00000000000E+00  0.00000000000E+00  0.27088844937E+03  0.27088844937E+03  0.00000000000E+00 0.  1.
          2   -1    0    0  501    0  0.00000000000E+00 -0.00000000000E+00 -0.16285217802E+04  0.16285217802E+04  0.00000000000E+00 0. -1.
         23    2    1    2    0    0 -0.10602389685E+03 -0.31508165669E+03 -0.66201261164E+03  0.74624010372E+03  0.89978204760E+02 0.  0.
        254    2    1    2    0    0  0.10602389685E+03  0.31508165669E+03 -0.69562071915E+03  0.11531701258E+04  0.85755211917E+03 0.  0.
        -24    2    4    4    0    0 -0.32595740992E+01  0.49473914296E+03 -0.76739870392E+03  0.91656261264E+03  0.80055029267E+02 0.  0.
         24    2    4    4    0    0  0.10928347095E+03 -0.17965748626E+03  0.71777984766E+02  0.23660751319E+03  0.81310188822E+02 0.  0.
         13    1    3    3    0    0 -0.70651675667E+02 -0.29540399128E+03 -0.59188768518E+03  0.66527153043E+03  0.00000000000E+00 0. -1.
        -13    1    3    3    0    0 -0.35372221188E+02 -0.19677665411E+02 -0.70124926465E+02  0.80968573283E+02  0.00000000000E+00 0.  1.
          4    1    6    6  502    0  0.11485683296E+02  0.10721685245E+01  0.22504897588E+02  0.25289145529E+02  0.00000000000E+00 0. -1.
          1    1    5    5  503    0 -0.36524240825E+02  0.15917205764E+03 -0.22861716469E+03  0.28095475097E+03  0.00000000000E+00 0. -1.
         -2    1    5    5    0  503  0.33264666725E+02  0.33556708531E+03 -0.53878153923E+03  0.63560786167E+03  0.00000000000E+00 0.  1.
         -3    1    6    6    0  502  0.97797787658E+02 -0.18072965479E+03  0.49273087177E+02  0.21131836766E+03  0.00000000000E+00 0.  1.
<mgrwt>
<rscale>  0 0.13283791E+04</rscale>
<asrwt>0</asrwt>
<pdfrwt beam="1">  1        2 0.25054182E+00 0.13283791E+04</pdfrwt>
<pdfrwt beam="2">  1       -2 0.41675145E-01 0.13283791E+04</pdfrwt>
<totfact> 0.57356078E+01</totfact>
</mgrwt>
</event>
<event>
12    1  0.1598876E-007  0.1358685E+04  0.7818608E-02  0.8984279E-01
          1   -1    0    0  501    0  0.00000000000E+00  0.00000000000E+00  0.43079892731E+03  0.43079892731E+03  0.00000000000E+00 0. -1.
         -1   -1    0    0    0  501 -0.00000000000E+00 -0.00000000000E+00 -0.10712806716E+04  0.10712806716E+04  0.00000000000E+00 0.  1.
         23    2    1    2    0    0 -0.65483247648E+02 -0.51315566342E+02  0.22326400451E+03  0.25448252140E+03  0.89404669430E+02 0.  0.
        254    2    1    2    0    0  0.65483247648E+02  0.51315566342E+02 -0.86374574878E+03  0.12475970775E+04  0.89639299762E+03 0.  0.
        -24    2    4    4    0    0 -0.11039511602E+03 -0.48001340981E+02  0.15145676691E+03  0.20938823553E+03  0.80081649339E+02 0.  0.
         24    2    4    4    0    0  0.17587836366E+03  0.99316907323E+02 -0.10152025157E+04  0.10382088420E+04  0.80277050239E+02 0.  0.
         13    1    3    3    0    0 -0.64564721935E+02 -0.51858611305E+01  0.17973796746E+03  0.19105295973E+03  0.00000000000E+00 0. -1.
        -13    1    3    3    0    0 -0.91852571247E+00 -0.46129705211E+02  0.43526037049E+02  0.63429561669E+02  0.00000000000E+00 0.  1.
          2    1    6    6  502    0  0.33409009974E+02  0.28560359408E+02 -0.99262115307E+02  0.10855792745E+03  0.00000000000E+00 0. -1.
          3    1    5    5  503    0 -0.49053749581E+02 -0.36341324897E+01  0.11879864489E+02  0.50602454952E+02  0.00000000000E+00 0. -1.
         -4    1    5    5    0  503 -0.61341366434E+02 -0.44367208492E+02  0.13957690242E+03  0.15878578058E+03  0.00000000000E+00 0.  1.
         -1    1    6    6    0  502  0.14246935369E+03  0.70756547915E+02 -0.91594040038E+03  0.92965091452E+03  0.00000000000E+00 0.  1.
<mgrwt>
<rscale>  0 0.13586855E+04</rscale>
<asrwt>0</asrwt>
<pdfrwt beam="1">  1        1 0.66276760E-01 0.13586855E+04</pdfrwt>
<pdfrwt beam="2">  1       -1 0.16481241E+00 0.13586855E+04</pdfrwt>
<totfact> 0.14283285E+01</totfact>
</mgrwt>
</event>
<event>
12    1  0.1598876E-007  0.1085925E+04  0.7818608E-02  0.9219020E-01
          2   -1    0    0  501    0  0.00000000000E+00  0.00000000000E+00  0.11830335047E+04  0.11830335047E+04  0.00000000000E+00 0. -1.
         -2   -1    0    0    0  501 -0.00000000000E+00 -0.00000000000E+00 -0.24919692396E+03  0.24919692396E+03  0.00000000000E+00 0.  1.
         23    2    1    2    0    0 -0.92935620667E+01 -0.13838153567E+03  0.81069001436E+02  0.18596619664E+03  0.93677230896E+02 0.  0.
        254    2    1    2    0    0  0.92935620667E+01  0.13838153567E+03  0.85276757926E+03  0.12462642320E+04  0.89817936513E+03 0.  0.
        -24    2    4    4    0    0 -0.79958413135E+02 -0.28571365728E+03  0.72517257747E+03  0.78751844037E+03  0.79274113167E+02 0.  0.
         24    2    4    4    0    0  0.89251975202E+02  0.42409519295E+03  0.12759500179E+03  0.45874579161E+03  0.79652803282E+02 0.  0.
         13    1    3    3    0    0  0.77895939696E+01 -0.83262802937E+02 -0.33682796078E+01  0.83694189969E+02  0.00000000000E+00 0. -1.
        -13    1    3    3    0    0 -0.17083156036E+02 -0.55118732735E+02  0.84437281043E+02  0.10227200667E+03  0.00000000000E+00 0.  1.
          4    1    6    6  502    0  0.63364724348E+02  0.32956294836E+03  0.63273024704E+02  0.34151178732E+03  0.00000000000E+00 0. -1.
          1    1    5    5  503    0 -0.29772991929E+02 -0.18461535938E+03  0.53047547782E+03  0.56247088328E+03  0.00000000000E+00 0. -1.
         -2    1    5    5    0  503 -0.50185421206E+02 -0.10109829791E+03  0.19469709965E+03  0.22504755710E+03  0.00000000000E+00 0.  1.
         -3    1    6    6    0  502  0.25887250854E+02  0.94532244596E+02  0.64321977087E+02  0.11723400429E+03  0.00000000000E+00 0.  1.
<mgrwt>
<rscale>  0 0.10859251E+04</rscale>
<asrwt>0</asrwt>
<pdfrwt beam="1">  1        2 0.18200515E+00 0.10859251E+04</pdfrwt>
<pdfrwt beam="2">  1       -2 0.38337989E-01 0.10859251E+04</pdfrwt>
<totfact> 0.12368962E+02</totfact>
</mgrwt>
</event>
<event>
12    1  0.1598876E-007  0.3303343E+04  0.7818608E-02  0.8162045E-01
          1   -1    0    0  501    0  0.00000000000E+00  0.00000000000E+00  0.20379785989E+04  0.20379785989E+04  0.00000000000E+00 0. -1.
         -1   -1    0    0    0  501 -0.00000000000E+00 -0.00000000000E+00 -0.13385900839E+04  0.13385900839E+04  0.00000000000E+00 0.  1.
         23    2    1    2    0    0  0.12154288417E+04 -0.93798740931E+03  0.39543614742E+03  0.15880631613E+04  0.92126046133E+02 0.  0.
        254    2    1    2    0    0 -0.12154288417E+04  0.93798740931E+03  0.30395236763E+03  0.17885055215E+04  0.86560805762E+03 0.  0.
        -24    2    4    4    0    0 -0.49103161607E+03  0.79997362566E+03  0.43088988635E+03  0.10359162638E+04  0.79915966135E+02 0.  0.
         24    2    4    4    0    0 -0.72439722562E+03  0.13801378365E+03 -0.12693751871E+03  0.75258925774E+03  0.80487963314E+02 0.  0.
         13    1    3    3    0    0  0.91903618081E+03 -0.71843042640E+03  0.26011584389E+03  0.11951694572E+04  0.00000000000E+00 0. -1.
        -13    1    3    3    0    0  0.29639266088E+03 -0.21955698291E+03  0.13532030353E+03  0.39289370409E+03  0.00000000000E+00 0.  1.
          4    1    6    6  502    0 -0.44437579416E+03  0.12310858196E+03 -0.88871517088E+02  0.46959952719E+03  0.00000000000E+00 0. -1.
          1    1    5    5  503    0 -0.41352600409E+03  0.68420534574E+03  0.33514037902E+03  0.86686780126E+03  0.00000000000E+00 0. -1.
         -2    1    5    5    0  503 -0.77505611974E+02  0.11576827991E+03  0.95749507329E+02  0.16904846250E+03  0.00000000000E+00 0.  1.
         -3    1    6    6    0  502 -0.28002143146E+03  0.14905201690E+02 -0.38066001625E+02  0.28298973055E+03  0.00000000000E+00 0.  1.
<mgrwt>
<rscale>  0 0.33033425E+04</rscale>
<asrwt>0</asrwt>
<pdfrwt beam="1">  1        1 0.31353517E+00 0.33033425E+04</pdfrwt>
<pdfrwt beam="2">  1       -1 0.20593693E+00 0.33033425E+04</pdfrwt>
<totfact> 0.31913888E-01</totfact>
</mgrwt>
</event>
<event>
12    1  0.1598876E-007  0.1313544E+04  0.7818608E-02  0.9018893E-01
         -2   -1    0    0    0  501 -0.00000000000E+00  0.00000000000E+00  0.22497843567E+03  0.22497843567E+03  0.00000000000E+00 0.  1.
          2   -1    0    0  501    0  0.00000000000E+00 -0.00000000000E+00 -0.19172927259E+04  0.19172927259E+04  0.00000000000E+00 0. -1.
         23    2    1    2    0    0  0.90542299357E+02  0.28430203797E+03 -0.18529488689E+03  0.36238250909E+03  0.89226291093E+02 0.  0.
        254    2    1    2    0    0 -0.90542299357E+02 -0.28430203797E+03 -0.15070194034E+04  0.17798886525E+04  0.89881620839E+03 0.  0.
        -24    2    4    4    0    0  0.36671525734E+03 -0.91236364842E+02 -0.36341712974E+03  0.53045099610E+03  0.80635568097E+02 0.  0.
         24    2    4    4    0    0 -0.45725755670E+03 -0.19306567313E+03 -0.11436022736E+04  0.12494376564E+04  0.83123220078E+02 0.  0.
         11    1    3    3    0    0  0.79181515017E+02  0.10577250578E+03 -0.87938122941E+02  0.15871562231E+03  0.00000000000E+00 0. -1.
        -11    1    3    3    0    0  0.11360784340E+02  0.17852953219E+03 -0.97356763953E+02  0.20366688678E+03  0.00000000000E+00 0.  1.
          4    1    6    6  502    0 -0.63873849795E+02 -0.43945484432E+02 -0.12135967192E+03  0.14401126435E+03  0.00000000000E+00 0. -1.
          3    1    5    5  503    0  0.11366779445E+03 -0.80871231925E+01 -0.68074742980E+02  0.13274012087E+03  0.00000000000E+00 0. -1.
         -4    1    5    5    0  503  0.25304746289E+03 -0.83149241649E+02 -0.29534238676E+03  0.39771087523E+03  0.00000000000E+00 0.  1.
         -3    1    6    6    0  502 -0.39338370690E+03 -0.14912018869E+03 -0.10222426017E+04  0.11054263921E+04  0.00000000000E+00 0.  1.
<mgrwt>
<rscale>  0 0.13135441E+04</rscale>
<asrwt>0</asrwt>
<pdfrwt beam="1">  1        2 0.29496811E+00 0.13135441E+04</pdfrwt>
<pdfrwt beam="2">  1       -2 0.34612067E-01 0.13135441E+04</pdfrwt>
<totfact> 0.56948747E+01</totfact>
</mgrwt>
</event>
<event>
12    1  0.1598876E-007  0.1124782E+04  0.7818608E-02  0.9181369E-01
         -2   -1    0    0    0  501 -0.00000000000E+00  0.00000000000E+00  0.52454811259E+03  0.52454811259E+03  0.00000000000E+00 0.  1.
          2   -1    0    0  501    0  0.00000000000E+00 -0.00000000000E+00 -0.60296380346E+03  0.60296380346E+03  0.00000000000E+00 0. -1.
         23    2    1    2    0    0 -0.16999400944E+03 -0.67150122317E+02  0.40273239499E+02  0.20931199999E+03  0.93714872589E+02 0.  0.
        254    2    1    2    0    0  0.16999400944E+03  0.67150122317E+02 -0.11868893037E+03  0.91819991606E+03  0.89196239914E+03 0.  0.
        -24    2    4    4    0    0 -0.45395416442E+02 -0.34270077101E+03  0.14049537649E+03  0.38154966993E+03  0.79602999479E+02 0.  0.
         24    2    4    4    0    0  0.21538942589E+03  0.40985089332E+03 -0.25918430686E+03  0.53665024613E+03  0.80290860041E+02 0.  0.
         13    1    3    3    0    0 -0.32111318878E+02  0.23056330394E+02  0.16500306192E+02  0.42836798150E+02  0.00000000000E+00 0. -1.
        -13    1    3    3    0    0 -0.13788269057E+03 -0.90206452711E+02  0.23772933307E+02  0.16647520184E+03  0.00000000000E+00 0.  1.
          2    1    6    6  502    0 -0.58255175007E+00  0.48903469049E+02 -0.20579876406E+02  0.53060531136E+02  0.00000000000E+00 0. -1.
          1    1    5    5  503    0  0.73679867494E+00 -0.16550343079E+03  0.10209729716E+03  0.19446281538E+03  0.00000000000E+00 0. -1.
         -2    1    5    5    0  503 -0.46132215117E+02 -0.17719734021E+03  0.38398079329E+02  0.18708685455E+03  0.00000000000E+00 0.  1.
         -1    1    6    6    0  502  0.21597197764E+03  0.36094742428E+03 -0.23860443045E+03  0.48358971499E+03  0.00000000000E+00 0.  1.
<mgrwt>
<rscale>  0 0.11247818E+04</rscale>
<asrwt>0</asrwt>
<pdfrwt beam="1">  1        2 0.92763662E-01 0.11247818E+04</pdfrwt>
<pdfrwt beam="2">  1       -2 0.80699710E-01 0.11247818E+04</pdfrwt>
<totfact> 0.66288628E+01</totfact>
</mgrwt>
</event>
<event>
12    1  0.1598876E-007  0.2216789E+04  0.7818608E-02  0.8511473E-01
         -1   -1    0    0    0  501 -0.00000000000E+00  0.00000000000E+00  0.46345330856E+03  0.46345330856E+03  0.00000000000E+00 0.  1.
          1   -1    0    0  501    0  0.00000000000E+00 -0.00000000000E+00 -0.26508341392E+04  0.26508341392E+04  0.00000000000E+00 0. -1.
         23    2    1    2    0    0  0.34013611887E+03 -0.36840130771E+03  0.18158993116E+03  0.54137990861E+03  0.93301658378E+02 0.  0.
        254    2    1    2    0    0 -0.34013611887E+03  0.36840130771E+03 -0.23689707618E+04  0.25729075392E+04  0.86972330766E+03 0.  0.
        -24    2    4    4    0    0 -0.53151776976E+03  0.54989092775E+02 -0.18796325247E+04  0.19558042708E+04  0.81344809081E+02 0.  0.
         24    2    4    4    0    0  0.19138165088E+03  0.31341221494E+03 -0.48933823717E+03  0.61710326840E+03  0.80686930433E+02 0.  0.
         13    1    3    3    0    0  0.98900911638E+02 -0.17333919032E+03  0.63410558305E+02  0.20940096497E+03  0.00000000000E+00 0. -1.
        -13    1    3    3    0    0  0.24123520724E+03 -0.19506211739E+03  0.11817937285E+03  0.33197894364E+03  0.00000000000E+00 0.  1.
          4    1    6    6  502    0  0.16029077416E+03  0.27866194856E+03 -0.37688753522E+03  0.49536837611E+03  0.00000000000E+00 0. -1.
          1    1    5    5  503    0 -0.27523725158E+03  0.50869941061E+01 -0.10849579420E+04  0.11193369279E+04  0.00000000000E+00 0. -1.
         -2    1    5    5    0  503 -0.25628051818E+03  0.49902098669E+02 -0.79467458267E+03  0.83646734293E+03  0.00000000000E+00 0.  1.
         -3    1    6    6    0  502  0.31090876727E+02  0.34750266383E+02 -0.11245070195E+03  0.12173489228E+03  0.00000000000E+00 0.  1.
<mgrwt>
<rscale>  0 0.22167885E+04</rscale>
<asrwt>0</asrwt>
<pdfrwt beam="1">  1        1 0.40782064E+00 0.22167885E+04</pdfrwt>
<pdfrwt beam="2">  1       -1 0.71300508E-01 0.22167885E+04</pdfrwt>
<totfact> 0.19224240E+00</totfact>
</mgrwt>
</event>
<event>
12    1  0.1598876E-007  0.2038851E+04  0.7818608E-02  0.8588669E-01
         -1   -1    0    0    0  501 -0.00000000000E+00  0.00000000000E+00  0.34350226265E+03  0.34350226265E+03  0.00000000000E+00 0.  1.
          1   -1    0    0  501    0  0.00000000000E+00 -0.00000000000E+00 -0.30253893530E+04  0.30253893530E+04  0.00000000000E+00 0. -1.
         23    2    1    2    0    0  0.63526909443E+03  0.17062949650E+02 -0.23701307993E+03  0.68445132952E+03  0.91871953513E+02 0.  0.
        254    2    1    2    0    0 -0.63526909443E+03 -0.17062949650E+02 -0.24448740104E+04  0.26844402861E+04  0.90826909911E+03 0.  0.
        -24    2    4    4    0    0 -0.15528065229E+02 -0.11806068136E+03  0.15817110589E+02  0.14365395233E+03  0.78783448387E+02 0.  0.
         24    2    4    4    0    0 -0.61974102920E+03  0.10099773171E+03 -0.24606911210E+04  0.25407863338E+04  0.79466445304E+02 0.  0.
         11    1    3    3    0    0  0.18334618733E+02  0.13620295732E+02  0.17724743319E+01  0.22908783581E+02  0.00000000000E+00 0. -1.
        -11    1    3    3    0    0  0.61693447569E+03  0.34426539180E+01 -0.23878555427E+03  0.66154254594E+03  0.00000000000E+00 0.  1.
          2    1    6    6  502    0 -0.60566865235E+03  0.10576807977E+03 -0.24315153252E+04  0.25080446925E+04  0.00000000000E+00 0. -1.
          1    1    5    5  503    0  0.10267659612E+02 -0.49643525856E+02  0.42160164048E+02  0.65934694402E+02  0.00000000000E+00 0. -1.
         -2    1    5    5    0  503 -0.25795724840E+02 -0.68417155507E+02 -0.26343053460E+02  0.77719257931E+02  0.00000000000E+00 0.  1.
         -1    1    6    6    0  502 -0.14072376852E+02 -0.47703480606E+01 -0.29175795823E+02  0.32741641266E+02  0.00000000000E+00 0.  1.
<mgrwt>
<rscale>  0 0.20388507E+04</rscale>
<asrwt>0</asrwt>
<pdfrwt beam="1">  1        1 0.46544451E+00 0.20388507E+04</pdfrwt>
<pdfrwt beam="2">  1       -1 0.52846503E-01 0.20388507E+04</pdfrwt>
<totfact> 0.19147456E+00</totfact>
</mgrwt>
</event>
<event>
12    1  0.1598876E-007  0.1231633E+04  0.7818608E-02  0.9085610E-01
         -1   -1    0    0    0  501 -0.00000000000E+00  0.00000000000E+00  0.22686516633E+03  0.22686516633E+03  0.00000000000E+00 0.  1.
          1   -1    0    0  501    0  0.00000000000E+00 -0.00000000000E+00 -0.16716093222E+04  0.16716093222E+04  0.00000000000E+00 0. -1.
         23    2    1    2    0    0  0.77862182168E+02 -0.94415685067E+02 -0.75561426404E+03  0.77067706323E+03  0.89517477470E+02 0.  0.
        254    2    1    2    0    0 -0.77862182168E+02  0.94415685067E+02 -0.68912989180E+03  0.11277974253E+04  0.88433601287E+03 0.  0.
        -24    2    4    4    0    0 -0.14162503069E+03  0.23866113927E+03  0.11052984459E+03  0.30880906682E+03  0.78290513399E+02 0.  0.
         24    2    4    4    0    0  0.63762848522E+02 -0.14424545420E+03 -0.79965973640E+03  0.81898835845E+03  0.80086112083E+02 0.  0.
         11    1    3    3    0    0  0.21748459937E+02 -0.25522175910E+02 -0.47833748310E+03  0.47951133951E+03  0.00000000000E+00 0.  1.
        -11    1    3    3    0    0  0.56113722230E+02 -0.68893509157E+02 -0.27727678093E+03  0.29116572372E+03  0.00000000000E+00 0. -1.
          4    1    6    6  502    0  0.32103439066E+02 -0.66578828992E+02 -0.19498494811E+03  0.20852458191E+03  0.00000000000E+00 0. -1.
          1    1    5    5  503    0 -0.24050820044E+02  0.22397116425E+02  0.41922574693E+02  0.53268893718E+02  0.00000000000E+00 0. -1.
         -2    1    5    5    0  503 -0.11757421065E+03  0.21626402284E+03  0.68607269901E+02  0.25554017310E+03  0.00000000000E+00 0.  1.
         -3    1    6    6    0  502  0.31659409456E+02 -0.77666625206E+02 -0.60467478829E+03  0.61046377654E+03  0.00000000000E+00 0.  1.
<mgrwt>
<rscale>  0 0.12316329E+04</rscale>
<asrwt>0</asrwt>
<pdfrwt beam="1">  1        1 0.25717067E+00 0.12316329E+04</pdfrwt>
<pdfrwt beam="2">  1       -1 0.34902333E-01 0.12316329E+04</pdfrwt>
<totfact> 0.38387703E+01</totfact>
</mgrwt>
</event>
<event>
12    1  0.1598876E-007  0.1945611E+04  0.7818608E-02  0.8632480E-01
          2   -1    0    0  501    0  0.00000000000E+00  0.00000000000E+00  0.12575752458E+04  0.12575752458E+04  0.00000000000E+00 0. -1.
         -2   -1    0    0    0  501 -0.00000000000E+00 -0.00000000000E+00 -0.75251962989E+03  0.75251962989E+03  0.00000000000E+00 0.  1.
         23    2    1    2    0    0  0.24765268631E+03  0.73383606024E+03  0.17211397077E+03  0.79860939715E+03  0.91140188371E+02 0.  0.
        254    2    1    2    0    0 -0.24765268631E+03 -0.73383606024E+03  0.33294164517E+03  0.12114854786E+04  0.87005730234E+03 0.  0.
        -24    2    4    4    0    0  0.10759346625E+03 -0.37725220945E+02  0.39975666865E+03  0.42303491800E+03  0.78444894304E+02 0.  0.
         24    2    4    4    0    0 -0.35524615256E+03 -0.69611083929E+03 -0.66815023479E+02  0.78845056057E+03  0.80124338440E+02 0.  0.
         13    1    3    3    0    0  0.40809959377E+01  0.27591381230E+02  0.24445660604E+02  0.37088127054E+02  0.00000000000E+00 0. -1.
        -13    1    3    3    0    0  0.24357169038E+03  0.70624467901E+03  0.14766831017E+03  0.76152127009E+03  0.00000000000E+00 0.  1.
          4    1    6    6  502    0 -0.34837710305E+02 -0.40004045932E+02 -0.20330826016E+02  0.56809613946E+02  0.00000000000E+00 0. -1.
          1    1    5    5  503    0 -0.90291886618E+01 -0.11438120921E+02  0.86936939219E+02  0.88149805778E+02  0.00000000000E+00 0. -1.
         -2    1    5    5    0  503  0.11662265491E+03 -0.26287100024E+02  0.31281972943E+03  0.33488511222E+03  0.00000000000E+00 0.  1.
         -3    1    6    6    0  502 -0.32040844226E+03 -0.65610679336E+03 -0.46484197463E+02  0.73164094662E+03  0.00000000000E+00 0.  1.
<mgrwt>
<rscale>  0 0.19456105E+04</rscale>
<asrwt>0</asrwt>
<pdfrwt beam="1">  1        2 0.19347312E+00 0.19456105E+04</pdfrwt>
<pdfrwt beam="2">  1       -2 0.11577225E+00 0.19456105E+04</pdfrwt>
<totfact> 0.94778791E+00</totfact>
</mgrwt>
</event>
<event>
12    1  0.1598876E-007  0.1958952E+04  0.7818608E-02  0.8626056E-01
         -2   -1    0    0    0  501 -0.00000000000E+00  0.00000000000E+00  0.20313465365E+03  0.20313465365E+03  0.00000000000E+00 0.  1.
          2   -1    0    0  501    0  0.00000000000E+00 -0.00000000000E+00 -0.47228457785E+04  0.47228457785E+04  0.00000000000E+00 0. -1.
         23    2    1    2    0    0 -0.48397095980E+03 -0.26769230220E+03 -0.31329586181E+04  0.31827457469E+04  0.92486365703E+02 0.  0.
        254    2    1    2    0    0  0.48397095980E+03  0.26769230220E+03 -0.13867525068E+04  0.17432346853E+04  0.89994310623E+03 0.  0.
        -24    2    4    4    0    0  0.23644385691E+03  0.30288002769E+03 -0.14247476758E+04  0.14783356170E+04  0.89040710522E+02 0.  0.
         24    2    4    4    0    0  0.24752710290E+03 -0.35187725483E+02  0.37995169058E+02  0.26489906830E+03  0.78867235401E+02 0.  0.
         13    1    3    3    0    0 -0.33505914709E+03 -0.19647911821E+03 -0.24165991358E+04  0.24476151779E+04  0.00000000000E+00 0. -1.
        -13    1    3    3    0    0 -0.14891181271E+03 -0.71213183989E+02 -0.71635948239E+03  0.73513056905E+03  0.00000000000E+00 0.  1.
          2    1    6    6  502    0  0.25361564148E+03 -0.35354204933E+02  0.36989797429E+02  0.25872583660E+03  0.00000000000E+00 0. -1.
          3    1    5    5  503    0  0.20253761486E+03  0.29190871081E+03 -0.12270699521E+04  0.12774712710E+04  0.00000000000E+00 0. -1.
         -4    1    5    5    0  503  0.33906242045E+02  0.10971316872E+02 -0.19767772373E+03  0.20086434602E+03  0.00000000000E+00 0.  1.
         -1    1    6    6    0  502 -0.60885385834E+01  0.16647944944E+00  0.10053716289E+01  0.61732316983E+01  0.00000000000E+00 0.  1.
<mgrwt>
<rscale>  0 0.19589524E+04</rscale>
<asrwt>0</asrwt>
<pdfrwt beam="1">  1        2 0.72659162E+00 0.19589524E+04</pdfrwt>
<pdfrwt beam="2">  1       -2 0.31251487E-01 0.19589524E+04</pdfrwt>
<totfact> 0.65574778E-01</totfact>
</mgrwt>
</event>
<event>
12    1  0.1598876E-007  0.1550659E+04  0.7818608E-02  0.8851447E-01
         -1   -1    0    0    0  501 -0.00000000000E+00  0.00000000000E+00  0.25651492661E+03  0.25651492661E+03  0.00000000000E+00 0.  1.
          1   -1    0    0  501    0  0.00000000000E+00 -0.00000000000E+00 -0.23434732453E+04  0.23434732453E+04  0.00000000000E+00 0. -1.
         23    2    1    2    0    0 -0.12592384039E+03  0.14661193102E+03  0.90011114134E+02  0.23253330364E+03  0.92832455198E+02 0.  0.
        254    2    1    2    0    0  0.12592384039E+03 -0.14661193102E+03 -0.21769694328E+04  0.23674548682E+04  0.91010701015E+03 0.  0.
        -24    2    4    4    0    0 -0.36395256442E+03 -0.14392576801E+03 -0.66323889715E+03  0.77437785729E+03  0.81235062172E+02 0.  0.
         24    2    4    4    0    0  0.48987640481E+03 -0.26861630082E+01 -0.15137305356E+04  0.15930770109E+04  0.80796787088E+02 0.  0.
         13    1    3    3    0    0 -0.47144534671E+01 -0.40180639436E+01  0.29205448136E+02  0.29855135407E+02  0.00000000000E+00 0. -1.
        -13    1    3    3    0    0 -0.12120938692E+03  0.15062999496E+03  0.60805665998E+02  0.20267816823E+03  0.00000000000E+00 0.  1.
          2    1    6    6  502    0  0.47561816040E+03  0.11122627915E+02 -0.14315314039E+04  0.15085153323E+04  0.00000000000E+00 0. -1.
          1    1    5    5  503    0 -0.28264803897E+03 -0.84088651655E+02 -0.53800254099E+03  0.61352061855E+03  0.00000000000E+00 0. -1.
         -2    1    5    5    0  503 -0.81304525447E+02 -0.59837116356E+02 -0.12523635616E+03  0.16085723874E+03  0.00000000000E+00 0.  1.
         -1    1    6    6    0  502  0.14258244408E+02 -0.13808790923E+02 -0.82199131736E+02  0.84561678664E+02  0.00000000000E+00 0.  1.
<mgrwt>
<rscale>  0 0.15506590E+04</rscale>
<asrwt>0</asrwt>
<pdfrwt beam="1">  1        1 0.36053436E+00 0.15506590E+04</pdfrwt>
<pdfrwt beam="2">  1       -1 0.39463834E-01 0.15506590E+04</pdfrwt>
<totfact> 0.10468000E+01</totfact>
</mgrwt>
</event>
<event>
12    1  0.2947964E-007  0.1430099E+04  0.7818608E-02  0.8932315E-01
          1   -1    0    0  501    0  0.00000000000E+00  0.00000000000E+00  0.17820383129E+04  0.17820383129E+04  0.00000000000E+00 0. -1.
         -1   -1    0    0    0  501 -0.00000000000E+00 -0.00000000000E+00 -0.28691622051E+03  0.28691622051E+03  0.00000000000E+00 0.  1.
         23    2    1    2    0    0 -0.12269451445E+03 -0.10989467558E+03 -0.11484738353E+03  0.22106352520E+03  0.92457433859E+02 0.  0.
        254    2    1    2    0    0  0.12269451445E+03  0.10989467558E+03  0.16099694759E+04  0.18478910082E+04  0.89194656860E+03 0.  0.
        -24    2    4    4    0    0  0.15737121415E+03  0.43479295932E+03  0.48967724368E+03  0.67814999671E+03  0.79328422056E+02 0.  0.
         24    2    4    4    0    0 -0.34676699708E+02 -0.32489828373E+03  0.11202922322E+04  0.11697410115E+04  0.80485900030E+02 0.  0.
         13    1    3    3    0    0  0.82147282904E+01  0.42316075174E+01 -0.22592051850E+02  0.24408790832E+02  0.00000000000E+00 0. -1.
        -13    1    3    3    0    0 -0.13090924274E+03 -0.11412628310E+03 -0.92255331675E+02  0.19665473437E+03  0.00000000000E+00 0.  1.
          4    1    6    6  502    0 -0.26269436863E+02 -0.41573310838E+02  0.11108171202E+03  0.12148074017E+03  0.00000000000E+00 0. -1.
          1    1    5    5  503    0  0.22450097421E+02  0.15452672109E+02  0.42140008514E+02  0.50185379017E+02  0.00000000000E+00 0. -1.
         -2    1    5    5    0  503  0.13492111673E+03  0.41934028721E+03  0.44753723517E+03  0.62796461769E+03  0.00000000000E+00 0.  1.
         -3    1    6    6    0  502 -0.84072628450E+01 -0.28332497290E+03  0.10092105202E+04  0.10482602713E+04  0.00000000000E+00 0.  1.
<mgrwt>
<rscale>  0 0.14300989E+04</rscale>
<asrwt>0</asrwt>
<pdfrwt beam="1">  1        1 0.27415973E+00 0.14300989E+04</pdfrwt>
<pdfrwt beam="2">  1       -1 0.44140958E-01 0.14300989E+04</pdfrwt>
<totfact> 0.20699453E+01</totfact>
</mgrwt>
</event>
<event>
12    1  0.1598876E-007  0.2109867E+04  0.7818608E-02  0.8556909E-01
         -1   -1    0    0    0  501 -0.00000000000E+00  0.00000000000E+00  0.44553986866E+03  0.44553986866E+03  0.00000000000E+00 0.  1.
          1   -1    0    0  501    0  0.00000000000E+00 -0.00000000000E+00 -0.24978334826E+04  0.24978334826E+04  0.00000000000E+00 0. -1.
         23    2    1    2    0    0 -0.85365936293E+03  0.38107059293E+02 -0.10288892806E+04  0.13405853686E+04  0.91485096705E+02 0.  0.
        254    2    1    2    0    0  0.85365936293E+03 -0.38107059293E+02 -0.10234043333E+04  0.16027879826E+04  0.88959902872E+03 0.  0.
        -24    2    4    4    0    0  0.74454684659E+03  0.24462178499E+03 -0.35439252240E+03  0.86411091355E+03  0.83089027658E+02 0.  0.
         24    2    4    4    0    0  0.10911251634E+03 -0.28272884429E+03 -0.66901181087E+03  0.73867706904E+03  0.78904173762E+02 0.  0.
         11    1    3    3    0    0 -0.82223567124E+02  0.30786488739E+00 -0.61439888898E+02  0.10264341050E+03  0.00000000000E+00 0.  1.
        -11    1    3    3    0    0 -0.77143579581E+03  0.37799194406E+02 -0.96744939174E+03  0.12379419581E+04  0.00000000000E+00 0. -1.
          4    1    6    6  502    0  0.60908506613E+01 -0.71659523475E+02 -0.22727137039E+03  0.23837881945E+03  0.00000000000E+00 0. -1.
          3    1    5    5  503    0  0.67678408047E+03  0.19572990542E+03 -0.31509373261E+03  0.77177130536E+03  0.00000000000E+00 0. -1.
         -4    1    5    5    0  503  0.67762766123E+02  0.48891879572E+02 -0.39298789795E+02  0.92339608187E+02  0.00000000000E+00 0.  1.
         -3    1    6    6    0  502  0.10302166568E+03 -0.21106932081E+03 -0.44174044048E+03  0.50029824959E+03  0.00000000000E+00 0.  1.
<mgrwt>
<rscale>  0 0.21098667E+04</rscale>
<asrwt>0</asrwt>
<pdfrwt beam="1">  1        1 0.38428207E+00 0.21098667E+04</pdfrwt>
<pdfrwt beam="2">  1       -1 0.68544595E-01 0.21098667E+04</pdfrwt>
<totfact> 0.26914774E+00</totfact>
</mgrwt>
</event>
<event>
12    1  0.1598876E-007  0.1815438E+04  0.7818608E-02  0.8698133E-01
          2   -1    0    0  501    0  0.00000000000E+00  0.00000000000E+00  0.12101874357E+04  0.12101874357E+04  0.00000000000E+00 0. -1.
         -2   -1    0    0    0  501 -0.00000000000E+00 -0.00000000000E+00 -0.68084787249E+03  0.68084787249E+03  0.00000000000E+00 0.  1.
         23    2    1    2    0    0  0.67901986479E+03  0.20039834631E+03  0.23345271985E+03  0.74982205797E+03  0.80656507675E+02 0.  0.
        254    2    1    2    0    0 -0.67901986479E+03 -0.20039834631E+03  0.29588684339E+03  0.11412132503E+04  0.84474326542E+03 0.  0.
        -24    2    4    4    0    0 -0.83056469024E+03 -0.28309469641E+03  0.34229752970E+03  0.94524625689E+03  0.79640288267E+02 0.  0.
         24    2    4    4    0    0  0.15154482546E+03  0.82696350094E+02 -0.46410686312E+02  0.19596699336E+03  0.80278205271E+02 0.  0.
         11    1    3    3    0    0  0.51292394528E+03  0.15981180716E+03  0.21174907569E+03  0.57746727908E+03  0.00000000000E+00 0.  1.
        -11    1    3    3    0    0  0.16609591951E+03  0.40586539150E+02  0.21703644168E+02  0.17235477889E+03  0.00000000000E+00 0. -1.
          4    1    6    6  502    0  0.12200678896E+03  0.73258281468E+02 -0.26529939693E+01  0.14233576758E+03  0.00000000000E+00 0. -1.
          3    1    5    5  503    0 -0.53926453483E+03 -0.20077802332E+03  0.18716503856E+03  0.60510230940E+03  0.00000000000E+00 0. -1.
         -4    1    5    5    0  503 -0.29130015541E+03 -0.82316673086E+02  0.15513249114E+03  0.34014394749E+03  0.00000000000E+00 0.  1.
         -3    1    6    6    0  502  0.29538036496E+02  0.94380686255E+01 -0.43757692343E+02  0.53631225779E+02  0.00000000000E+00 0.  1.
<mgrwt>
<rscale>  0 0.18154377E+04</rscale>
<asrwt>0</asrwt>
<pdfrwt beam="1">  1        2 0.18618268E+00 0.18154377E+04</pdfrwt>
<pdfrwt beam="2">  1       -2 0.10474583E+00 0.18154377E+04</pdfrwt>
<totfact> 0.13023291E+01</totfact>
</mgrwt>
</event>
<event>
12    1  0.1598876E-007  0.1706627E+04  0.7818608E-02  0.8757594E-01
          1   -1    0    0  501    0  0.00000000000E+00  0.00000000000E+00  0.94774343877E+03  0.94774343877E+03  0.00000000000E+00 0. -1.
         -1   -1    0    0    0  501 -0.00000000000E+00 -0.00000000000E+00 -0.76829200219E+03  0.76829200219E+03  0.00000000000E+00 0.  1.
         23    2    1    2    0    0 -0.31134637116E+03 -0.24191929831E+03 -0.40444297855E+03  0.57233507773E+03  0.92367789690E+02 0.  0.
        254    2    1    2    0    0  0.31134637116E+03  0.24191929831E+03  0.58389441513E+03  0.11437003632E+04  0.90091970957E+03 0.  0.
        -24    2    4    4    0    0  0.51030626244E+03  0.33525173165E+03  0.65486441655E+03  0.89892887522E+03  0.80121867004E+02 0.  0.
         24    2    4    4    0    0 -0.19895989128E+03 -0.93332433336E+02 -0.70970001419E+02  0.24477148801E+03  0.81119410706E+02 0.  0.
         11    1    3    3    0    0 -0.62457618590E+02 -0.31186623876E+02 -0.30557326151E+02  0.76205707202E+02  0.00000000000E+00 0. -1.
        -11    1    3    3    0    0 -0.24888875257E+03 -0.21073267444E+03 -0.37388565240E+03  0.49612937053E+03  0.00000000000E+00 0.  1.
          4    1    6    6  502    0 -0.19805605057E+03 -0.81780159789E+02 -0.48810240997E+02  0.21976495019E+03  0.00000000000E+00 0. -1.
          1    1    5    5  503    0  0.33623717582E+03  0.24450289030E+03  0.48980158032E+03  0.64245053494E+03  0.00000000000E+00 0. -1.
         -2    1    5    5    0  503  0.17406908662E+03  0.90748841343E+02  0.16506283624E+03  0.25647834027E+03  0.00000000000E+00 0.  1.
         -3    1    6    6    0  502 -0.90384070328E+00 -0.11552273546E+02 -0.22159760422E+02  0.25006537827E+02  0.00000000000E+00 0.  1.
<mgrwt>
<rscale>  0 0.17066267E+04</rscale>
<asrwt>0</asrwt>
<pdfrwt beam="1">  1        1 0.14580668E+00 0.17066267E+04</pdfrwt>
<pdfrwt beam="2">  1       -1 0.11819877E+00 0.17066267E+04</pdfrwt>
<totfact> 0.10171323E+01</totfact>
</mgrwt>
</event>
<event>
12    1  0.1598876E-007  0.1088142E+04  0.7818608E-02  0.9216827E-01
         -1   -1    0    0    0  501 -0.00000000000E+00  0.00000000000E+00  0.10269265376E+03  0.10269265376E+03  0.00000000000E+00 0.  1.
          1   -1    0    0  501    0  0.00000000000E+00 -0.00000000000E+00 -0.28825184521E+04  0.28825184521E+04  0.00000000000E+00 0. -1.
         23    2    1    2    0    0  0.93566772418E+02 -0.17903676171E+02 -0.94312062208E+03  0.95213997376E+03  0.89547413817E+02 0.  0.
        254    2    1    2    0    0 -0.93566772418E+02  0.17903676171E+02 -0.18367051762E+04  0.20330711321E+04  0.86649699433E+03 0.  0.
        -24    2    4    4    0    0  0.10056136533E+03 -0.35887085595E+03 -0.12363650995E+04  0.12937511921E+04  0.79325963152E+02 0.  0.
         24    2    4    4    0    0 -0.19412813775E+03  0.37677453212E+03 -0.60034007678E+03  0.73931993999E+03  0.80876349851E+02 0.  0.
         13    1    3    3    0    0  0.49968339091E+02 -0.29353865800E+02 -0.21648918600E+03  0.22411169537E+03  0.00000000000E+00 0.  1.
        -13    1    3    3    0    0  0.43598433328E+02  0.11450189628E+02 -0.72663143608E+03  0.72802827839E+03  0.00000000000E+00 0. -1.
          4    1    6    6  502    0 -0.16582853384E+03  0.36481381270E+03 -0.55514489566E+03  0.68467077910E+03  0.00000000000E+00 0. -1.
          3    1    5    5  503    0  0.10861703258E+03 -0.34153567654E+03 -0.12035186764E+04  0.12557473801E+04  0.00000000000E+00 0. -1.
         -2    1    5    5    0  503 -0.80556672575E+01 -0.17335179412E+02 -0.32846423066E+02  0.38003812025E+02  0.00000000000E+00 0.  1.
         -3    1    6    6    0  502 -0.28299603903E+02  0.11960719419E+02 -0.45195181113E+02  0.54649160890E+02  0.00000000000E+00 0.  1.
<mgrwt>
<rscale>  0 0.10881424E+04</rscale>
<asrwt>0</asrwt>
<pdfrwt beam="1">  1        1 0.44346433E+00 0.10881424E+04</pdfrwt>
<pdfrwt beam="2">  1       -1 0.15798871E-01 0.10881424E+04</pdfrwt>
<totfact> 0.22270457E+01</totfact>
</mgrwt>
</event>
<event>
12    1  0.1598876E-007  0.1415341E+04  0.7818608E-02  0.8942788E-01
         -1   -1    0    0    0  501 -0.00000000000E+00  0.00000000000E+00  0.56020251838E+03  0.56020251838E+03  0.00000000000E+00 0.  1.
          1   -1    0    0  501    0  0.00000000000E+00 -0.00000000000E+00 -0.89395788493E+03  0.89395788493E+03  0.00000000000E+00 0. -1.
         23    2    1    2    0    0 -0.28059992918E+03 -0.30478944494E+03 -0.13833477390E+03  0.44630466312E+03  0.91751929963E+02 0.  0.
        254    2    1    2    0    0  0.28059992918E+03  0.30478944494E+03 -0.19542059265E+03  0.10078557402E+04  0.89774777026E+03 0.  0.
        -24    2    4    4    0    0 -0.46388093008E+02 -0.28729053766E+03 -0.11282858653E+03  0.32135823811E+03  0.76505679950E+02 0.  0.
         24    2    4    4    0    0  0.32698802219E+03  0.59207998259E+03 -0.82592006120E+02  0.68649750208E+03  0.83531481808E+02 0.  0.
         13    1    3    3    0    0 -0.25778066822E+03 -0.27899166628E+03 -0.96123822487E+02  0.39182523146E+03  0.00000000000E+00 0. -1.
        -13    1    3    3    0    0 -0.22819260958E+02 -0.25797778659E+02 -0.42210951414E+02  0.54479431657E+02  0.00000000000E+00 0.  1.
          2    1    6    6  502    0  0.25729556974E+02  0.18480797033E+02 -0.15098117924E+02  0.35092778828E+02  0.00000000000E+00 0. -1.
          1    1    5    5  503    0 -0.25142236032E+02 -0.38816839866E+02  0.30945664270E+01  0.46351433972E+02  0.00000000000E+00 0. -1.
         -2    1    5    5    0  503 -0.21245856976E+02 -0.24847369779E+03 -0.11592315296E+03  0.27500680414E+03  0.00000000000E+00 0.  1.
         -1    1    6    6    0  502  0.30125846521E+03  0.57359918556E+03 -0.67493888196E+02  0.65140472325E+03  0.00000000000E+00 0.  1.
<mgrwt>
<rscale>  0 0.14153409E+04</rscale>
<asrwt>0</asrwt>
<pdfrwt beam="1">  1        1 0.13753198E+00 0.14153409E+04</pdfrwt>
<pdfrwt beam="2">  1       -1 0.86185003E-01 0.14153409E+04</pdfrwt>
<totfact> 0.23821283E+01</totfact>
</mgrwt>
</event>
<event>
12    1  0.1598876E-007  0.1404206E+04  0.7818608E-02  0.8950780E-01
          2   -1    0    0  501    0  0.00000000000E+00  0.00000000000E+00  0.78648511528E+03  0.78648511528E+03  0.00000000000E+00 0. -1.
         -2   -1    0    0    0  501 -0.00000000000E+00 -0.00000000000E+00 -0.62677429828E+03  0.62677429828E+03  0.00000000000E+00 0.  1.
         23    2    1    2    0    0 -0.27533824850E+03  0.17417840501E+03  0.29249370361E+03  0.44710790749E+03  0.90573983159E+02 0.  0.
        254    2    1    2    0    0  0.27533824850E+03 -0.17417840501E+03 -0.13278288662E+03  0.96615150607E+03  0.89981563103E+03 0.  0.
        -24    2    4    4    0    0  0.10198540059E+03  0.27200677941E+03  0.21384282439E+03  0.36974786209E+03  0.81215872808E+02 0.  0.
         24    2    4    4    0    0  0.17335284791E+03 -0.44618518442E+03 -0.34662571101E+03  0.59640364398E+03  0.80096781085E+02 0.  0.
         11    1    3    3    0    0 -0.74620263583E+02  0.82875890052E+01  0.43226194914E+02  0.86633548902E+02  0.00000000000E+00 0.  1.
        -11    1    3    3    0    0 -0.20071798492E+03  0.16589081600E+03  0.24926750870E+03  0.36047435859E+03  0.00000000000E+00 0. -1.
          2    1    6    6  502    0  0.14631645711E+03 -0.30983700393E+03 -0.27876275182E+03  0.44171953367E+03  0.00000000000E+00 0. -1.
          1    1    5    5  503    0  0.10704301294E+01  0.11482301892E+03  0.79422088284E+02  0.13961855035E+03  0.00000000000E+00 0. -1.
         -2    1    5    5    0  503  0.10091497046E+03  0.15718376050E+03  0.13442073611E+03  0.23012931174E+03  0.00000000000E+00 0.  1.
         -1    1    6    6    0  502  0.27036390799E+02 -0.13634818050E+03 -0.67862959199E+02  0.15468411031E+03  0.00000000000E+00 0.  1.
<mgrwt>
<rscale>  0 0.14042060E+04</rscale>
<asrwt>0</asrwt>
<pdfrwt beam="1">  1        2 0.12099771E+00 0.14042060E+04</pdfrwt>
<pdfrwt beam="2">  1       -2 0.96426815E-01 0.14042060E+04</pdfrwt>
<totfact> 0.30864260E+01</totfact>
</mgrwt>
</event>
<event>
12    1  0.1598876E-007  0.2861704E+04  0.7818608E-02  0.8284364E-01
         -1   -1    0    0    0  501 -0.00000000000E+00  0.00000000000E+00  0.12685892006E+04  0.12685892006E+04  0.00000000000E+00 0.  1.
          1   -1    0    0  501    0  0.00000000000E+00 -0.00000000000E+00 -0.16138698570E+04  0.16138698570E+04  0.00000000000E+00 0. -1.
         23    2    1    2    0    0 -0.22831181632E+03 -0.68659782121E+02 -0.14331504550E+04  0.14556188617E+04  0.89808645275E+02 0.  0.
        254    2    1    2    0    0  0.22831181632E+03  0.68659782121E+02  0.10878697986E+04  0.14268401960E+04  0.89194831404E+03 0.  0.
        -24    2    4    4    0    0 -0.32912150333E+03 -0.26751098563E+02  0.29753969748E+03  0.45163193610E+03  0.80030924676E+02 0.  0.
         24    2    4    4    0    0  0.55743331965E+03  0.95410880684E+02  0.79033010114E+03  0.97520825986E+03  0.81082299734E+02 0.  0.
         13    1    3    3    0    0 -0.21290168188E+03 -0.79472750572E+02 -0.11744283806E+04  0.11962128010E+04  0.00000000000E+00 0. -1.
        -13    1    3    3    0    0 -0.15410134440E+02  0.10812968451E+02 -0.25872207438E+03  0.25940606065E+03  0.00000000000E+00 0.  1.
          2    1    6    6  502    0  0.23574228425E+03  0.53840418917E+02  0.27397782511E+03  0.36542723482E+03  0.00000000000E+00 0. -1.
          3    1    5    5  503    0 -0.24704222974E+02 -0.17903274833E+02  0.82896655827E+01  0.31615572713E+02  0.00000000000E+00 0. -1.
         -4    1    5    5    0  503 -0.30441728035E+03 -0.88478237306E+01  0.28925003190E+03  0.42001636339E+03  0.00000000000E+00 0.  1.
         -1    1    6    6    0  502  0.32169103540E+03  0.41570461767E+02  0.51635227602E+03  0.60978102504E+03  0.00000000000E+00 0.  1.
<mgrwt>
<rscale>  0 0.28617043E+04</rscale>
<asrwt>0</asrwt>
<pdfrwt beam="1">  1        1 0.24828767E+00 0.28617043E+04</pdfrwt>
<pdfrwt beam="2">  1       -1 0.19516757E+00 0.28617043E+04</pdfrwt>
<totfact> 0.76435789E-01</totfact>
</mgrwt>
</event>
<event>
12    1  0.1598876E-007  0.1718909E+04  0.7818608E-02  0.8750653E-01
         -1   -1    0    0    0  501 -0.00000000000E+00  0.00000000000E+00  0.11737969892E+04  0.11737969892E+04  0.00000000000E+00 0.  1.
          1   -1    0    0  501    0  0.00000000000E+00 -0.00000000000E+00 -0.62929276154E+03  0.62929276154E+03  0.00000000000E+00 0. -1.
         23    2    1    2    0    0  0.19832532223E+03 -0.57933245927E+03  0.75883659896E+02  0.62368132128E+03  0.90890202308E+02 0.  0.
        254    2    1    2    0    0 -0.19832532223E+03  0.57933245927E+03  0.46862056773E+03  0.11794084294E+04  0.89243485763E+03 0.  0.
        -24    2    4    4    0    0 -0.19177844070E+03  0.87465587533E+02  0.61853396631E+03  0.65854539448E+03  0.81661311481E+02 0.  0.
         24    2    4    4    0    0 -0.65468815273E+01  0.49186687173E+03 -0.14991339858E+03  0.52086303495E+03  0.82755017612E+02 0.  0.
         11    1    3    3    0    0  0.13676035379E+03 -0.40360775374E+03  0.94673802560E+02  0.43653836273E+03  0.00000000000E+00 0.  1.
        -11    1    3    3    0    0  0.61564968438E+02 -0.17572470553E+03 -0.18790142664E+02  0.18714295855E+03  0.00000000000E+00 0. -1.
          4    1    6    6  502    0  0.27001208861E+02  0.83927566754E+02 -0.41437667268E+02  0.97416538687E+02  0.00000000000E+00 0. -1.
          1    1    5    5  503    0 -0.10624228024E+03  0.20209193513E+02  0.21596071777E+03  0.24152611708E+03  0.00000000000E+00 0. -1.
         -2    1    5    5    0  503 -0.85536160463E+02  0.67256394020E+02  0.40257324854E+03  0.41701927740E+03  0.00000000000E+00 0.  1.
         -1    1    6    6    0  502 -0.33548090388E+02  0.40793930498E+03 -0.10847573131E+03  0.42344649626E+03  0.00000000000E+00 0.  1.
<mgrwt>
<rscale>  0 0.17189089E+04</rscale>
<asrwt>0</asrwt>
<pdfrwt beam="1">  1        1 0.96814271E-01 0.17189089E+04</pdfrwt>
<pdfrwt beam="2">  1       -1 0.18058415E+00 0.17189089E+04</pdfrwt>
<totfact> 0.62554675E+00</totfact>
</mgrwt>
</event>
<event>
12    1  0.1598876E-007  0.1539015E+04  0.7818608E-02  0.8858915E-01
         -2   -1    0    0    0  501 -0.00000000000E+00  0.00000000000E+00  0.33043735159E+03  0.33043735159E+03  0.00000000000E+00 0.  1.
          2   -1    0    0  501    0  0.00000000000E+00 -0.00000000000E+00 -0.17919948170E+04  0.17919948170E+04  0.00000000000E+00 0. -1.
         23    2    1    2    0    0  0.26302665987E+03  0.15876553978E+03 -0.10650795360E+04  0.11122453995E+04  0.91136656860E+02 0.  0.
        254    2    1    2    0    0 -0.26302665987E+03 -0.15876553978E+03 -0.39647792939E+03  0.10101867691E+04  0.87686546262E+03 0.  0.
        -24    2    4    4    0    0 -0.54952784948E+03 -0.20056213375E+03 -0.39402477326E+03  0.71004191999E+03  0.81841183718E+02 0.  0.
         24    2    4    4    0    0  0.28650118962E+03  0.41796593973E+02 -0.24531561316E+01  0.30014484910E+03  0.79063427348E+02 0.  0.
         13    1    3    3    0    0  0.82183066617E+02  0.12098448874E+02 -0.20462751912E+03  0.22084576176E+03  0.00000000000E+00 0.  1.
        -13    1    3    3    0    0  0.18084359325E+03  0.14666709091E+03 -0.86045201687E+03  0.89139963771E+03  0.00000000000E+00 0. -1.
          4    1    6    6  502    0  0.17011355530E+03  0.58436284518E+02 -0.21101176275E+02  0.18110406037E+03  0.00000000000E+00 0. -1.
          1    1    5    5  503    0 -0.16301000412E+03 -0.48824550459E+02 -0.72906723129E+02  0.18512560182E+03  0.00000000000E+00 0. -1.
         -2    1    5    5    0  503 -0.38651784536E+03 -0.15173758330E+03 -0.32111805013E+03  0.52491631817E+03  0.00000000000E+00 0.  1.
         -3    1    6    6    0  502  0.11638763432E+03 -0.16639690545E+02  0.18648020144E+02  0.11904078872E+03  0.00000000000E+00 0.  1.
<mgrwt>
<rscale>  0 0.15390153E+04</rscale>
<asrwt>0</asrwt>
<pdfrwt beam="1">  1        2 0.27569151E+00 0.15390153E+04</pdfrwt>
<pdfrwt beam="2">  1       -2 0.50836515E-01 0.15390153E+04</pdfrwt>
<totfact> 0.30718351E+01</totfact>
</mgrwt>
</event>
<event>
12    1  0.1598876E-007  0.2354802E+04  0.7818608E-02  0.8456622E-01
          2   -1    0    0  501    0  0.00000000000E+00  0.00000000000E+00  0.37223742133E+04  0.37223742133E+04  0.00000000000E+00 0.  1.
         -2   -1    0    0    0  501 -0.00000000000E+00 -0.00000000000E+00 -0.37241628775E+03  0.37241628775E+03  0.00000000000E+00 0. -1.
         23    2    1    2    0    0 -0.21833862929E+03 -0.51149994824E+02 -0.26701085332E+03  0.36006582838E+03  0.89802705788E+02 0.  0.
        254    2    1    2    0    0  0.21833862929E+03  0.51149994824E+02  0.36169687789E+04  0.37347246727E+04  0.90300451514E+03 0.  0.
        -24    2    4    4    0    0  0.14874374398E+03 -0.24875804924E+03  0.31792639867E+04  0.31933809715E+04  0.77183312253E+02 0.  0.
         24    2    4    4    0    0  0.69594885305E+02  0.29990804406E+03  0.43770479221E+03  0.54134370120E+03  0.81726585322E+02 0.  0.
         11    1    3    3    0    0 -0.20803258180E+03 -0.57359633230E+02 -0.20757588135E+03  0.29942516450E+03  0.00000000000E+00 0. -1.
        -11    1    3    3    0    0 -0.10306047493E+02  0.62096384062E+01 -0.59434971963E+02  0.60640663884E+02  0.00000000000E+00 0.  1.
          4    1    6    6  502    0  0.85858934658E+02  0.27742850672E+03  0.39159319361E+03  0.48752801179E+03  0.00000000000E+00 0. -1.
          3    1    5    5  503    0  0.12913299826E+03 -0.24218752693E+03  0.30646710188E+04  0.30769365581E+04  0.00000000000E+00 0. -1.
         -4    1    5    5    0  503  0.19610745725E+02 -0.65705223121E+01  0.11459296791E+03  0.11644441337E+03  0.00000000000E+00 0.  1.
         -3    1    6    6    0  502 -0.16264049353E+02  0.22479537339E+02  0.46111598607E+02  0.53815689408E+02  0.00000000000E+00 0.  1.
<mgrwt>
<rscale>  0 0.23548017E+04</rscale>
<asrwt>0</asrwt>
<pdfrwt beam="1">  1        2 0.57267293E+00 0.23548017E+04</pdfrwt>
<pdfrwt beam="2">  1       -2 0.57294816E-01 0.23548017E+04</pdfrwt>
<totfact> 0.14523260E+00</totfact>
</mgrwt>
</event>
<event>
12    1  0.1598876E-007  0.1072222E+04  0.7818608E-02  0.9232697E-01
          2   -1    0    0  501    0  0.00000000000E+00  0.00000000000E+00  0.14482244368E+04  0.14482244368E+04  0.00000000000E+00 0. -1.
         -2   -1    0    0    0  501 -0.00000000000E+00 -0.00000000000E+00 -0.19846023004E+03  0.19846023004E+03  0.00000000000E+00 0.  1.
         23    2    1    2    0    0 -0.48524962221E+02 -0.35491614867E+02  0.31701012020E+03  0.33413050382E+03  0.86795452556E+02 0.  0.
        254    2    1    2    0    0  0.48524962221E+02  0.35491614867E+02  0.93275408653E+03  0.13125541630E+04  0.92149547921E+03 0.  0.
        -24    2    4    4    0    0 -0.20332586568E+03 -0.14445176651E+03 -0.61323897225E+02  0.26907078148E+03  0.80191923359E+02 0.  0.
         24    2    4    4    0    0  0.25185082790E+03  0.17994338138E+03  0.99407798376E+03  0.10434833815E+04  0.69699854509E+02 0.  0.
         13    1    3    3    0    0 -0.32880133541E+02  0.17863157338E+02  0.56601810379E+02  0.67852490816E+02  0.00000000000E+00 0.  1.
        -13    1    3    3    0    0 -0.15644828679E+02 -0.53354772205E+02  0.26040830982E+03  0.26627801300E+03  0.00000000000E+00 0. -1.
          2    1    6    6  502    0  0.19308828826E+03  0.11728409215E+03  0.79909175975E+03  0.83041332229E+03  0.00000000000E+00 0. -1.
          3    1    5    5  503    0 -0.19754208281E+03 -0.14217191327E+03 -0.39736978293E+02  0.24660647771E+03  0.00000000000E+00 0. -1.
         -4    1    5    5    0  503 -0.57837828701E+01 -0.22798532488E+01 -0.21586918932E+02  0.22464303775E+02  0.00000000000E+00 0.  1.
         -1    1    6    6    0  502  0.58762539635E+02  0.62659289233E+02  0.19498622401E+03  0.21307005925E+03  0.00000000000E+00 0.  1.
<mgrwt>
<rscale>  0 0.10722219E+04</rscale>
<asrwt>0</asrwt>
<pdfrwt beam="1">  1        2 0.22280375E+00 0.10722219E+04</pdfrwt>
<pdfrwt beam="2">  1       -2 0.30532344E-01 0.10722219E+04</pdfrwt>
<totfact> 0.13389314E+02</totfact>
</mgrwt>
</event>
<event>
12    1  0.1598876E-007  0.1489235E+04  0.7818608E-02  0.8891643E-01
         -1   -1    0    0    0  501 -0.00000000000E+00  0.00000000000E+00  0.20323513393E+03  0.20323513393E+03  0.00000000000E+00 0.  1.
          1   -1    0    0  501    0  0.00000000000E+00 -0.00000000000E+00 -0.27281461725E+04  0.27281461725E+04  0.00000000000E+00 0. -1.
         23    2    1    2    0    0 -0.38060652436E+03  0.64772332211E+02 -0.27006158086E+03  0.47982485102E+03  0.90784628598E+02 0.  0.
        254    2    1    2    0    0  0.38060652436E+03 -0.64772332211E+02 -0.22548494577E+04  0.24515564554E+04  0.88132071106E+03 0.  0.
        -24    2    4    4    0    0  0.55166889957E+03 -0.11422735706E+03 -0.78779178931E+03  0.97165682716E+03  0.78196052422E+02 0.  0.
         24    2    4    4    0    0 -0.17106237522E+03  0.49455024850E+02 -0.14670576684E+04  0.14798996283E+04  0.78336272416E+02 0.  0.
         13    1    3    3    0    0 -0.23048603574E+01 -0.58447020344E+01  0.39346420482E+01  0.74131188569E+01  0.00000000000E+00 0. -1.
        -13    1    3    3    0    0 -0.37830166400E+03  0.70617034246E+02 -0.27399622291E+03  0.47241173216E+03  0.00000000000E+00 0.  1.
          4    1    6    6  502    0 -0.55823666649E+02  0.45993314479E+02 -0.76802074918E+03  0.77141917134E+03  0.00000000000E+00 0. -1.
          1    1    5    5  503    0  0.41799117112E+03 -0.78194026494E+02 -0.53478709607E+03  0.68324824408E+03  0.00000000000E+00 0. -1.
         -2    1    5    5    0  503  0.13367772845E+03 -0.36033330567E+02 -0.25300469324E+03  0.28840858308E+03  0.00000000000E+00 0.  1.
         -3    1    6    6    0  502 -0.11523870857E+03  0.34617103707E+01 -0.69903691924E+03  0.70848045693E+03  0.00000000000E+00 0.  1.
<mgrwt>
<rscale>  0 0.14892349E+04</rscale>
<asrwt>0</asrwt>
<pdfrwt beam="1">  1        1 0.41971477E+00 0.14892349E+04</pdfrwt>
<pdfrwt beam="2">  1       -1 0.31266946E-01 0.14892349E+04</pdfrwt>
<totfact> 0.86458777E+00</totfact>
</mgrwt>
</event>
<event>
12    1  0.1598876E-007  0.1364949E+04  0.7818608E-02  0.8979589E-01
         -1   -1    0    0    0  501 -0.00000000000E+00  0.00000000000E+00  0.26373470065E+03  0.26373470065E+03  0.00000000000E+00 0.  1.
          1   -1    0    0  501    0  0.00000000000E+00 -0.00000000000E+00 -0.17660594684E+04  0.17660594684E+04  0.00000000000E+00 0. -1.
         23    2    1    2    0    0 -0.15117216366E+03 -0.19632837299E+03  0.27495867598E+02  0.26527008839E+03  0.90633018000E+02 0.  0.
        254    2    1    2    0    0  0.15117216366E+03  0.19632837299E+03 -0.15298206354E+04  0.17645240807E+04  0.84368015374E+03 0.  0.
        -24    2    4    4    0    0 -0.65496248331E+02  0.40658305871E+03 -0.13279620599E+04  0.13926396850E+04  0.79765389135E+02 0.  0.
         24    2    4    4    0    0  0.21666841199E+03 -0.21025468572E+03 -0.20185857541E+03  0.37188439571E+03  0.79993035212E+02 0.  0.
         11    1    3    3    0    0 -0.10798348840E+03 -0.16080109103E+03  0.57178331885E+02  0.20195738729E+03  0.00000000000E+00 0.  1.
        -11    1    3    3    0    0 -0.43188675260E+02 -0.35527281955E+02 -0.29682464286E+02  0.63312701095E+02  0.00000000000E+00 0. -1.
          2    1    6    6  502    0  0.22025507344E+03 -0.21344381053E+03 -0.20168940569E+03  0.36708197176E+03  0.00000000000E+00 0. -1.
          3    1    5    5  503    0 -0.47405466249E+02  0.14607101861E+03 -0.39446105291E+03  0.42330077128E+03  0.00000000000E+00 0. -1.
         -4    1    5    5    0  503 -0.18090782082E+02  0.26051204010E+03 -0.93350100704E+03  0.96933891368E+03  0.00000000000E+00 0.  1.
         -1    1    6    6    0  502 -0.35866614461E+01  0.31891248038E+01 -0.16916971843E+00  0.48024239439E+01  0.00000000000E+00 0.  1.
<mgrwt>
<rscale>  0 0.13649486E+04</rscale>
<asrwt>0</asrwt>
<pdfrwt beam="1">  1        1 0.27170146E+00 0.13649486E+04</pdfrwt>
<pdfrwt beam="2">  1       -1 0.40574568E-01 0.13649486E+04</pdfrwt>
<totfact> 0.24932742E+01</totfact>
</mgrwt>
</event>
<event>
12    1  0.1598876E-007  0.1694324E+04  0.7818608E-02  0.8764608E-01
          1   -1    0    0  501    0  0.00000000000E+00  0.00000000000E+00  0.16954021663E+04  0.16954021663E+04  0.00000000000E+00 0. -1.
         -1   -1    0    0    0  501 -0.00000000000E+00 -0.00000000000E+00 -0.42331185337E+03  0.42331185337E+03  0.00000000000E+00 0.  1.
         23    2    1    2    0    0 -0.32626213432E+03 -0.45596450100E+03  0.19101302462E+03  0.59911503428E+03  0.90012456142E+02 0.  0.
        254    2    1    2    0    0  0.32626213432E+03  0.45596450100E+03  0.10810772883E+04  0.15195989854E+04  0.90890173649E+03 0.  0.
        -24    2    4    4    0    0  0.62582013986E+03  0.24238119165E+03  0.56617377248E+03  0.88184902384E+03  0.81886938392E+02 0.  0.
         24    2    4    4    0    0 -0.29955800554E+03  0.21358330936E+03  0.51490351580E+03  0.63774996152E+03  0.79035144809E+02 0.  0.
         11    1    3    3    0    0 -0.30040514466E+03 -0.38371406268E+03  0.18797711075E+03  0.52231707516E+03  0.00000000000E+00 0.  1.
        -11    1    3    3    0    0 -0.25856989660E+02 -0.72250438327E+02  0.30359138702E+01  0.76797959125E+02  0.00000000000E+00 0. -1.
          2    1    6    6  502    0 -0.17507527984E+03  0.76628150232E+02  0.25381306972E+03  0.31771732936E+03  0.00000000000E+00 0. -1.
          1    1    5    5  503    0  0.41088259569E+03  0.16967681315E+03  0.42249175483E+03  0.61328134756E+03  0.00000000000E+00 0. -1.
         -2    1    5    5    0  503  0.21493754417E+03  0.72704378495E+02  0.14368201765E+03  0.26856767628E+03  0.00000000000E+00 0.  1.
         -1    1    6    6    0  502 -0.12448272571E+03  0.13695515912E+03  0.26109044608E+03  0.32003263216E+03  0.00000000000E+00 0.  1.
<mgrwt>
<rscale>  0 0.16943244E+04</rscale>
<asrwt>0</asrwt>
<pdfrwt beam="1">  1        1 0.26083110E+00 0.16943244E+04</pdfrwt>
<pdfrwt beam="2">  1       -1 0.65124902E-01 0.16943244E+04</pdfrwt>
<totfact> 0.10924954E+01</totfact>
</mgrwt>
</event>
<event>
12    1  0.1598876E-007  0.2213349E+04  0.7818608E-02  0.8512893E-01
         -1   -1    0    0    0  501 -0.00000000000E+00  0.00000000000E+00  0.69874176049E+03  0.69874176049E+03  0.00000000000E+00 0.  1.
          1   -1    0    0  501    0  0.00000000000E+00 -0.00000000000E+00 -0.17527622136E+04  0.17527622136E+04  0.00000000000E+00 0. -1.
         23    2    1    2    0    0 -0.77526876337E+03 -0.21814472844E+03  0.36704191489E+02  0.81149200412E+03  0.92429957718E+02 0.  0.
        254    2    1    2    0    0  0.77526876337E+03  0.21814472844E+03 -0.10907246446E+04  0.16400119700E+04  0.92267558399E+03 0.  0.
        -24    2    4    4    0    0 -0.27639254743E+02  0.32447357161E+03 -0.60537443522E+03  0.69232269795E+03  0.82374050497E+02 0.  0.
         24    2    4    4    0    0  0.80290801811E+03 -0.10632884318E+03 -0.48535020936E+03  0.94768927201E+03  0.81135825063E+02 0.  0.
         13    1    3    3    0    0 -0.65525244164E+03 -0.17167674635E+03  0.62458256689E+02  0.68024238426E+03  0.00000000000E+00 0.  1.
        -13    1    3    3    0    0 -0.12001632173E+03 -0.46467982087E+02 -0.25754065200E+02  0.13124961986E+03  0.00000000000E+00 0. -1.
          4    1    6    6  502    0  0.67689863536E+03 -0.60015135624E+02 -0.39809319145E+03  0.78757334143E+03  0.00000000000E+00 0. -1.
          1    1    5    5  503    0 -0.31466714739E+02  0.39137982997E+02 -0.80125960285E+02  0.94562705974E+02  0.00000000000E+00 0. -1.
         -2    1    5    5    0  503  0.38274599957E+01  0.28533558862E+03 -0.52524847494E+03  0.59775999198E+03  0.00000000000E+00 0.  1.
         -3    1    6    6    0  502  0.12600938275E+03 -0.46313707552E+02 -0.87257017909E+02  0.16011593057E+03  0.00000000000E+00 0.  1.
<mgrwt>
<rscale>  0 0.22133487E+04</rscale>
<asrwt>0</asrwt>
<pdfrwt beam="1">  1        1 0.26965572E+00 0.22133487E+04</pdfrwt>
<pdfrwt beam="2">  1       -1 0.10749873E+00 0.22133487E+04</pdfrwt>
<totfact> 0.32186540E+00</totfact>
</mgrwt>
</event>
<event>
12    1  0.1598876E-007  0.2285203E+04  0.7818608E-02  0.8483778E-01
          1   -1    0    0  501    0  0.00000000000E+00  0.00000000000E+00  0.20170248282E+04  0.20170248282E+04  0.00000000000E+00 0. -1.
         -1   -1    0    0    0  501 -0.00000000000E+00 -0.00000000000E+00 -0.64725910253E+03  0.64725910253E+03  0.00000000000E+00 0.  1.
         23    2    1    2    0    0  0.92974326543E+03  0.12593856995E+00  0.88958824746E+03  0.12897829909E+04  0.88036118619E+02 0.  0.
        254    2    1    2    0    0 -0.92974326543E+03 -0.12593856995E+00  0.48017747819E+03  0.13745009398E+04  0.89121258263E+03 0.  0.
        -24    2    4    4    0    0 -0.91556865811E+03  0.13059853399E+03  0.64036514660E+02  0.93063860847E+03  0.81643123209E+02 0.  0.
         24    2    4    4    0    0 -0.14174607317E+02 -0.13072447256E+03  0.41614096352E+03  0.44386233131E+03  0.80936150253E+02 0.  0.
         11    1    3    3    0    0  0.51534938470E+03  0.16270970528E+02  0.54880588724E+03  0.75301901348E+03  0.00000000000E+00 0. -1.
        -11    1    3    3    0    0  0.41439388072E+03 -0.16145031958E+02  0.34078236021E+03  0.53676397743E+03  0.00000000000E+00 0.  1.
          4    1    6    6  502    0 -0.24452957105E+02 -0.82685459348E+02  0.14823065627E+03  0.17148515900E+03  0.00000000000E+00 0. -1.
          1    1    5    5  503    0 -0.22024226542E+03  0.64612470920E+02  0.32402829646E+01  0.22954722022E+03  0.00000000000E+00 0. -1.
         -2    1    5    5    0  503 -0.69532639269E+03  0.65986063068E+02  0.60796231696E+02  0.70109138825E+03  0.00000000000E+00 0.  1.
         -3    1    6    6    0  502  0.10278349788E+02 -0.48039013210E+02  0.26791030726E+03  0.27237717232E+03  0.00000000000E+00 0.  1.
<mgrwt>
<rscale>  0 0.22852026E+04</rscale>
<asrwt>0</asrwt>
<pdfrwt beam="1">  1        1 0.31031151E+00 0.22852026E+04</pdfrwt>
<pdfrwt beam="2">  1       -1 0.99578325E-01 0.22852026E+04</pdfrwt>
<totfact> 0.25269217E+00</totfact>
</mgrwt>
</event>
<event>
12    1  0.1598876E-007  0.1152215E+04  0.7818608E-02  0.9155742E-01
          2   -1    0    0  501    0  0.00000000000E+00  0.00000000000E+00  0.58601229735E+03  0.58601229735E+03  0.00000000000E+00 0. -1.
         -2   -1    0    0    0  501 -0.00000000000E+00 -0.00000000000E+00 -0.56637050610E+03  0.56637050610E+03  0.00000000000E+00 0.  1.
         23    2    1    2    0    0  0.11501310850E+03  0.80000150355E+01 -0.17493015606E+03  0.22857361582E+03  0.91396515150E+02 0.  0.
        254    2    1    2    0    0 -0.11501310850E+03 -0.80000150355E+01  0.19457194731E+03  0.92380918763E+03  0.89569702305E+03 0.  0.
        -24    2    4    4    0    0  0.90962965428E+02 -0.25695263869E+03  0.43111810529E+03  0.51607739275E+03  0.78575664106E+02 0.  0.
         24    2    4    4    0    0 -0.20597607393E+03  0.24895262365E+03 -0.23654615798E+03  0.40773179488E+03  0.76730566573E+02 0.  0.
         13    1    3    3    0    0  0.10912667830E+03 -0.14150508872E+02 -0.17369864125E+03  0.20562122164E+03  0.00000000000E+00 0.  1.
        -13    1    3    3    0    0  0.58864302071E+01  0.22150523908E+02 -0.12315148159E+01  0.22952394183E+02  0.00000000000E+00 0. -1.
          2    1    6    6  502    0 -0.16052707878E+03  0.18136606855E+03 -0.13408053578E+03  0.27683963575E+03  0.00000000000E+00 0. -1.
          1    1    5    5  503    0  0.45576119530E+02 -0.21985311522E+03  0.32860364325E+03  0.39798609185E+03  0.00000000000E+00 0. -1.
         -2    1    5    5    0  503  0.45386845898E+02 -0.37099523464E+02  0.10251446204E+03  0.11809130090E+03  0.00000000000E+00 0.  1.
         -1    1    6    6    0  502 -0.45448995148E+02  0.67586555098E+02 -0.10246562220E+03  0.13089215913E+03  0.00000000000E+00 0.  1.
<mgrwt>
<rscale>  0 0.11522154E+04</rscale>
<asrwt>0</asrwt>
<pdfrwt beam="1">  1        2 0.90155737E-01 0.11522154E+04</pdfrwt>
<pdfrwt beam="2">  1       -2 0.87133925E-01 0.11522154E+04</pdfrwt>
<totfact> 0.57531332E+01</totfact>
</mgrwt>
</event>
<event>
12    1  0.1598876E-007  0.1762589E+04  0.7818608E-02  0.8726451E-01
          1   -1    0    0  501    0  0.00000000000E+00  0.00000000000E+00  0.13480533233E+04  0.13480533233E+04  0.00000000000E+00 0. -1.
         -1   -1    0    0    0  501 -0.00000000000E+00 -0.00000000000E+00 -0.57614940035E+03  0.57614940035E+03  0.00000000000E+00 0.  1.
         23    2    1    2    0    0 -0.64265169205E+03  0.71444331629E+02  0.18849411753E+03  0.67970138438E+03  0.91424557789E+02 0.  0.
        254    2    1    2    0    0  0.64265169205E+03 -0.71444331629E+02  0.58340980540E+03  0.12445013392E+04  0.88899442773E+03 0.  0.
        -24    2    4    4    0    0  0.39163262486E+03  0.39605751164E+03  0.30383755473E+03  0.63946520926E+03  0.79754804263E+02 0.  0.
         24    2    4    4    0    0  0.25101906718E+03 -0.46750184327E+03  0.27957225067E+03  0.60503612999E+03  0.79621163615E+02 0.  0.
         11    1    3    3    0    0 -0.34858693463E+03 -0.42262211183E+01  0.84112181333E+02  0.35861618897E+03  0.00000000000E+00 0.  1.
        -11    1    3    3    0    0 -0.29406475742E+03  0.75670552747E+02  0.10438193619E+03  0.32108519541E+03  0.00000000000E+00 0. -1.
          4    1    6    6  502    0  0.10135772959E+03 -0.17296192441E+03  0.14903248172E+03  0.24979971427E+03  0.00000000000E+00 0. -1.
          3    1    5    5  503    0  0.17404344316E+03  0.19896615365E+03  0.10271754448E+03  0.28360103023E+03  0.00000000000E+00 0. -1.
         -4    1    5    5    0  503  0.21758918171E+03  0.19709135799E+03  0.20112001026E+03  0.35586417903E+03  0.00000000000E+00 0.  1.
         -3    1    6    6    0  502  0.14966133760E+03 -0.29453991887E+03  0.13053976895E+03  0.35523641572E+03  0.00000000000E+00 0.  1.
<mgrwt>
<rscale>  0 0.17625891E+04</rscale>
<asrwt>0</asrwt>
<pdfrwt beam="1">  1        1 0.20739282E+00 0.17625891E+04</pdfrwt>
<pdfrwt beam="2">  1       -1 0.88638370E-01 0.17625891E+04</pdfrwt>
<totfact> 0.98862754E+00</totfact>
</mgrwt>
</event>
<event>
12    1  0.3543558E-007  0.1494083E+04  0.7818608E-02  0.8888397E-01
          3   -1    0    0  501    0  0.00000000000E+00  0.00000000000E+00  0.15051794036E+04  0.15051794036E+04  0.00000000000E+00 0. -1.
         -3   -1    0    0    0  501 -0.00000000000E+00 -0.00000000000E+00 -0.37076710221E+03  0.37076710221E+03  0.00000000000E+00 0.  1.
         23    2    1    2    0    0 -0.75441491635E+02 -0.19782664557E+02 -0.21794061881E+03  0.24850093319E+03  0.90398163670E+02 0.  0.
        254    2    1    2    0    0  0.75441491635E+02  0.19782664557E+02  0.13523529202E+04  0.16274455726E+04  0.90201879061E+03 0.  0.
        -24    2    4    4    0    0  0.16370260460E+03 -0.31498371664E+03  0.18909134837E+03  0.41107506722E+03  0.84934612268E+02 0.  0.
         24    2    4    4    0    0 -0.88261112962E+02  0.33476638119E+03  0.11632615718E+04  0.12163705054E+04  0.80753748512E+02 0.  0.
         11    1    3    3    0    0  0.12875443931E+02 -0.12113590217E+02 -0.58368005574E+01  0.18616776443E+02  0.00000000000E+00 0. -1.
        -11    1    3    3    0    0 -0.88316935566E+02 -0.76690743402E+01 -0.21210381825E+03  0.22988415675E+03  0.00000000000E+00 0.  1.
          4    1    6    6  502    0 -0.24172316305E+01 -0.37441199198E+01  0.54642404536E+01  0.70511961016E+01  0.00000000000E+00 0. -1.
          3    1    5    5  503    0 -0.79571072340E+01 -0.20256262067E+02  0.14944673796E+01  0.21814333389E+02  0.00000000000E+00 0. -1.
         -4    1    5    5    0  503  0.17165971183E+03 -0.29472745457E+03  0.18759688099E+03  0.38926073383E+03  0.00000000000E+00 0.  1.
         -3    1    6    6    0  502 -0.85843881331E+02  0.33851050111E+03  0.11577973314E+04  0.12093193093E+04  0.00000000000E+00 0.  1.
<mgrwt>
<rscale>  0 0.14940830E+04</rscale>
<asrwt>0</asrwt>
<pdfrwt beam="1">  1        3 0.23156606E+00 0.14940830E+04</pdfrwt>
<pdfrwt beam="2">  1       -3 0.57041093E-01 0.14940830E+04</pdfrwt>
<totfact> 0.72449323E-01</totfact>
</mgrwt>
</event>
<event>
12    1  0.1598876E-007  0.1235513E+04  0.7818608E-02  0.9082328E-01
          1   -1    0    0  501    0  0.00000000000E+00  0.00000000000E+00  0.84246485908E+03  0.84246485908E+03  0.00000000000E+00 0. -1.
         -1   -1    0    0    0  501 -0.00000000000E+00 -0.00000000000E+00 -0.45298405630E+03  0.45298405630E+03  0.00000000000E+00 0.  1.
         23    2    1    2    0    0  0.25895575025E+03 -0.75676305062E+02  0.43357912826E+02  0.28803091570E+03  0.91087408884E+02 0.  0.
        254    2    1    2    0    0 -0.25895575025E+03  0.75676305062E+02  0.34612288995E+03  0.10074179997E+04  0.90681033706E+03 0.  0.
        -24    2    4    4    0    0  0.48466758646E+02  0.36726413355E+03 -0.94944861115E+02  0.39053778071E+03  0.79203920484E+02 0.  0.
         24    2    4    4    0    0 -0.30742250890E+03 -0.29158782849E+03  0.44106775106E+03  0.61688021897E+03  0.80426257103E+02 0.  0.
         11    1    3    3    0    0  0.10537796385E+03 -0.15720749573E+02  0.60084682849E+02  0.12231854457E+03  0.00000000000E+00 0. -1.
        -11    1    3    3    0    0  0.15357778640E+03 -0.59955555489E+02 -0.16726770023E+02  0.16571237113E+03  0.00000000000E+00 0.  1.
          2    1    6    6  502    0 -0.26998821991E+03 -0.22868885421E+03  0.39544314463E+03  0.53062935423E+03  0.00000000000E+00 0. -1.
          1    1    5    5  503    0  0.42187424368E+02  0.24892747669E+03 -0.10088267279E+03  0.27188597076E+03  0.00000000000E+00 0. -1.
         -2    1    5    5    0  503  0.62793342783E+01  0.11833665686E+03  0.59378116790E+01  0.11865180994E+03  0.00000000000E+00 0.  1.
         -1    1    6    6    0  502 -0.37434288984E+02 -0.62898974278E+02  0.45624606429E+02  0.86250864742E+02  0.00000000000E+00 0.  1.
<mgrwt>
<rscale>  0 0.12355131E+04</rscale>
<asrwt>0</asrwt>
<pdfrwt beam="1">  1        1 0.12960998E+00 0.12355131E+04</pdfrwt>
<pdfrwt beam="2">  1       -1 0.69689855E-01 0.12355131E+04</pdfrwt>
<totfact> 0.41788256E+01</totfact>
</mgrwt>
</event>
<event>
12    1  0.1598876E-007  0.1667798E+04  0.7818608E-02  0.8779947E-01
         -2   -1    0    0    0  501 -0.00000000000E+00  0.00000000000E+00  0.22244749037E+03  0.22244749037E+03  0.00000000000E+00 0.  1.
          2   -1    0    0  501    0  0.00000000000E+00 -0.00000000000E+00 -0.31260732968E+04  0.31260732968E+04  0.00000000000E+00 0. -1.
         23    2    1    2    0    0  0.27501892575E+03  0.47265172626E+02 -0.20563167786E+04  0.20773671980E+04  0.95636683585E+02 0.  0.
        254    2    1    2    0    0 -0.27501892575E+03 -0.47265172626E+02 -0.84730902782E+03  0.12711535892E+04  0.90555477615E+03 0.  0.
        -24    2    4    4    0    0  0.32637549604E+03 -0.51586340086E+02 -0.27532735415E+03  0.43734462263E+03  0.79265705743E+02 0.  0.
         24    2    4    4    0    0 -0.60139442179E+03  0.43211674601E+01 -0.57198167367E+03  0.83380896655E+03  0.79877622895E+02 0.  0.
         13    1    3    3    0    0  0.55443850280E+02  0.12254907591E+02 -0.76012152357E+03  0.76223942032E+03  0.00000000000E+00 0. -1.
        -13    1    3    3    0    0  0.21957507547E+03  0.35010265035E+02 -0.12961952551E+04  0.13151277777E+04  0.00000000000E+00 0.  1.
          4    1    6    6  502    0 -0.55964306715E+03  0.90497299188E+01 -0.50030685679E+03  0.75072578960E+03  0.00000000000E+00 0. -1.
          3    1    5    5  503    0  0.18020375771E+03 -0.46739562561E+01 -0.18916706837E+03  0.26130331019E+03  0.00000000000E+00 0. -1.
         -4    1    5    5    0  503  0.14617173832E+03 -0.46912383829E+02 -0.86160285780E+02  0.17604131244E+03  0.00000000000E+00 0.  1.
         -3    1    6    6    0  502 -0.41751354636E+02 -0.47285624587E+01 -0.71674816884E+02  0.83083176951E+02  0.00000000000E+00 0.  1.
<mgrwt>
<rscale>  0 0.16677975E+04</rscale>
<asrwt>0</asrwt>
<pdfrwt beam="1">  1        2 0.48093436E+00 0.16677975E+04</pdfrwt>
<pdfrwt beam="2">  1       -2 0.34222690E-01 0.16677975E+04</pdfrwt>
<totfact> 0.11116646E+01</totfact>
</mgrwt>
</event>
<event>
12    1  0.1598876E-007  0.2681558E+04  0.7818608E-02  0.8341014E-01
         -2   -1    0    0    0  501 -0.00000000000E+00  0.00000000000E+00  0.10793453827E+04  0.10793453827E+04  0.00000000000E+00 0.  1.
          2   -1    0    0  501    0  0.00000000000E+00 -0.00000000000E+00 -0.16655357080E+04  0.16655357080E+04  0.00000000000E+00 0. -1.
         23    2    1    2    0    0  0.64367091227E+03 -0.18069839399E+03  0.75246730580E+03  0.10106184129E+04  0.90434381362E+02 0.  0.
        254    2    1    2    0    0 -0.64367091227E+03  0.18069839399E+03 -0.13386576311E+04  0.17342626777E+04  0.87675460031E+03 0.  0.
        -24    2    4    4    0    0  0.62290393067E+01 -0.26191636056E+03 -0.56596924370E+03  0.62895470919E+03  0.81387103009E+02 0.  0.
         24    2    4    4    0    0 -0.64989995157E+03  0.44261475456E+03 -0.77268838737E+03  0.11053079685E+04  0.79878615886E+02 0.  0.
         11    1    3    3    0    0  0.63770185078E+03 -0.18451843899E+03  0.75257126233E+03  0.10035308713E+04  0.00000000000E+00 0.  1.
        -11    1    3    3    0    0  0.59690614885E+01  0.38200449945E+01 -0.10395653301E+00  0.70875415889E+01  0.00000000000E+00 0. -1.
          2    1    6    6  502    0 -0.89948551363E+02  0.76653629381E+02 -0.82376932566E+02  0.14405721019E+03  0.00000000000E+00 0. -1.
          1    1    5    5  503    0 -0.28225479750E+02 -0.43308848291E+02 -0.84482788935E+02  0.99043806841E+02  0.00000000000E+00 0. -1.
         -2    1    5    5    0  503  0.34454519057E+02 -0.21860751227E+03 -0.48148645477E+03  0.52991090235E+03  0.00000000000E+00 0.  1.
         -1    1    6    6    0  502 -0.55995140021E+03  0.36596112517E+03 -0.69031145481E+03  0.96125075832E+03  0.00000000000E+00 0.  1.
<mgrwt>
<rscale>  0 0.26815580E+04</rscale>
<asrwt>0</asrwt>
<pdfrwt beam="1">  1        2 0.25623626E+00 0.26815580E+04</pdfrwt>
<pdfrwt beam="2">  1       -2 0.16605314E+00 0.26815580E+04</pdfrwt>
<totfact> 0.20491207E+00</totfact>
</mgrwt>
</event>
<event>
12    1  0.1598876E-007  0.1560497E+04  0.7818608E-02  0.8845190E-01
          2   -1    0    0  501    0  0.00000000000E+00  0.00000000000E+00  0.17169421623E+04  0.17169421623E+04  0.00000000000E+00 0. -1.
         -2   -1    0    0    0  501 -0.00000000000E+00 -0.00000000000E+00 -0.35457686847E+03  0.35457686847E+03  0.00000000000E+00 0.  1.
         23    2    1    2    0    0  0.17588420848E+03 -0.31799562215E+03  0.92809740988E+03  0.10007128577E+04  0.89470391240E+02 0.  0.
        254    2    1    2    0    0 -0.17588420848E+03  0.31799562215E+03  0.43426788392E+03  0.10708061730E+04  0.90883485555E+03 0.  0.
        -24    2    4    4    0    0 -0.23258761820E+03  0.54972440580E+03  0.52947719053E+03  0.80170775338E+03  0.78072428397E+02 0.  0.
         24    2    4    4    0    0  0.56703409718E+02 -0.23172878365E+03 -0.95209306606E+02  0.26909841963E+03  0.80222450337E+02 0.  0.
         13    1    3    3    0    0  0.25646487244E+02 -0.10454502512E+02  0.11929839560E+03  0.12247100115E+03  0.00000000000E+00 0.  1.
        -13    1    3    3    0    0  0.15023772123E+03 -0.30754111963E+03  0.80879901428E+03  0.87824185658E+03  0.00000000000E+00 0. -1.
          2    1    6    6  502    0  0.57741455031E+02 -0.77319019651E+02 -0.26390944835E+02  0.10004393234E+03  0.00000000000E+00 0. -1.
          3    1    5    5  503    0 -0.23360811114E+02  0.15229180707E+02  0.21336350320E+02  0.35112608645E+02  0.00000000000E+00 0. -1.
         -4    1    5    5    0  503 -0.20922680708E+03  0.53449522509E+03  0.50814084021E+03  0.76659514474E+03  0.00000000000E+00 0.  1.
         -1    1    6    6    0  502 -0.10380453131E+01 -0.15440976400E+03 -0.68818361771E+02  0.16905448729E+03  0.00000000000E+00 0.  1.
<mgrwt>
<rscale>  0 0.15604973E+04</rscale>
<asrwt>0</asrwt>
<pdfrwt beam="1">  1        2 0.26414494E+00 0.15604973E+04</pdfrwt>
<pdfrwt beam="2">  1       -2 0.54550288E-01 0.15604973E+04</pdfrwt>
<totfact> 0.29186234E+01</totfact>
</mgrwt>
</event>
<event>
12    1  0.1598876E-007  0.1671292E+04  0.7818608E-02  0.8777909E-01
         -1   -1    0    0    0  501 -0.00000000000E+00  0.00000000000E+00  0.49904073090E+03  0.49904073090E+03  0.00000000000E+00 0.  1.
          1   -1    0    0  501    0  0.00000000000E+00 -0.00000000000E+00 -0.13992933158E+04  0.13992933158E+04  0.00000000000E+00 0. -1.
         23    2    1    2    0    0  0.24452317713E+03  0.12407566304E+03  0.27298277766E+03  0.39763893544E+03  0.91710259861E+02 0.  0.
        254    2    1    2    0    0 -0.24452317713E+03 -0.12407566304E+03 -0.11732353626E+04  0.15006951113E+04  0.89466096745E+03 0.  0.
        -24    2    4    4    0    0  0.15062933025E+03  0.26359977176E+03 -0.70331317737E+03  0.77014660720E+03  0.79387255300E+02 0.  0.
         24    2    4    4    0    0 -0.39515250738E+03 -0.38767543480E+03 -0.46992218518E+03  0.73054850406E+03  0.80227861843E+02 0.  0.
         13    1    3    3    0    0  0.14791433851E+03  0.78212103777E+02  0.10197651134E+03  0.19594640487E+03  0.00000000000E+00 0. -1.
        -13    1    3    3    0    0  0.96608838618E+02  0.45863559262E+02  0.17100626632E+03  0.20169253057E+03  0.00000000000E+00 0.  1.
          2    1    6    6  502    0 -0.19959498687E+03 -0.22469969018E+03 -0.29886369427E+03  0.42384857827E+03  0.00000000000E+00 0. -1.
          3    1    5    5  503    0  0.45233181653E+02  0.15903640802E+03 -0.36985553508E+03  0.40513175219E+03  0.00000000000E+00 0. -1.
         -4    1    5    5    0  503  0.10539614859E+03  0.10456336375E+03 -0.33345764229E+03  0.36501485501E+03  0.00000000000E+00 0.  1.
         -1    1    6    6    0  502 -0.19555752051E+03 -0.16297574462E+03 -0.17105849091E+03  0.30669992579E+03  0.00000000000E+00 0.  1.
<mgrwt>
<rscale>  0 0.16712921E+04</rscale>
<asrwt>0</asrwt>
<pdfrwt beam="1">  1        1 0.21527589E+00 0.16712921E+04</pdfrwt>
<pdfrwt beam="2">  1       -1 0.76775500E-01 0.16712921E+04</pdfrwt>
<totfact> 0.12488311E+01</totfact>
</mgrwt>
</event>
<event>
12    1  0.1598876E-007  0.1719813E+04  0.7818608E-02  0.8750144E-01
         -1   -1    0    0    0  501 -0.00000000000E+00  0.00000000000E+00  0.47358536201E+03  0.47358536201E+03  0.00000000000E+00 0.  1.
          1   -1    0    0  501    0  0.00000000000E+00 -0.00000000000E+00 -0.15613636565E+04  0.15613636565E+04  0.00000000000E+00 0. -1.
         23    2    1    2    0    0 -0.61802085669E+03 -0.27875281712E+02 -0.42993149124E+03  0.75876781030E+03  0.90336549346E+02 0.  0.
        254    2    1    2    0    0  0.61802085669E+03  0.27875281712E+02 -0.65784680325E+03  0.12761812082E+04  0.90174788552E+03 0.  0.
        -24    2    4    4    0    0  0.18406875297E+03  0.36255933941E+03 -0.58527742987E+03  0.71695991487E+03  0.78430027389E+02 0.  0.
         24    2    4    4    0    0  0.43395210372E+03 -0.33468405770E+03 -0.72569373383E+02  0.55922129336E+03  0.84464751180E+02 0.  0.
         11    1    3    3    0    0 -0.19510608350E+03 -0.35488361455E+02 -0.17778002486E+03  0.26632976712E+03  0.00000000000E+00 0. -1.
        -11    1    3    3    0    0 -0.42291477319E+03  0.76130797429E+01 -0.25215146639E+03  0.49243804318E+03  0.00000000000E+00 0.  1.
          2    1    6    6  502    0  0.36464114730E+03 -0.28303082787E+03 -0.29217524215E+02  0.46251840996E+03  0.00000000000E+00 0. -1.
          1    1    5    5  503    0  0.18719567012E+03  0.36295775703E+03 -0.56903922430E+03  0.70041858277E+03  0.00000000000E+00 0. -1.
         -2    1    5    5    0  503 -0.31269171437E+01 -0.39841761856E+00 -0.16238205567E+02  0.16541332094E+02  0.00000000000E+00 0.  1.
         -1    1    6    6    0  502  0.69310956415E+02 -0.51653229825E+02 -0.43351849167E+02  0.96702883394E+02  0.00000000000E+00 0.  1.
<mgrwt>
<rscale>  0 0.17198127E+04</rscale>
<asrwt>0</asrwt>
<pdfrwt beam="1">  1        1 0.24020979E+00 0.17198127E+04</pdfrwt>
<pdfrwt beam="2">  1       -1 0.72859286E-01 0.17198127E+04</pdfrwt>
<totfact> 0.10704075E+01</totfact>
</mgrwt>
</event>
<event>
12    1  0.1598876E-007  0.2413336E+04  0.7818608E-02  0.8434527E-01
          2   -1    0    0  501    0  0.00000000000E+00  0.00000000000E+00  0.20507537078E+04  0.20507537078E+04  0.00000000000E+00 0. -1.
         -2   -1    0    0    0  501 -0.00000000000E+00 -0.00000000000E+00 -0.71000629822E+03  0.71000629822E+03  0.00000000000E+00 0.  1.
         23    2    1    2    0    0  0.60115246476E+02  0.45982917220E+03 -0.48057403596E+03  0.67399417480E+03  0.90884724591E+02 0.  0.
        254    2    1    2    0    0 -0.60115246476E+02 -0.45982917220E+03  0.18213214455E+04  0.20867658312E+04  0.90682033274E+03 0.  0.
        -24    2    4    4    0    0  0.15450012080E+03 -0.56581786697E+03  0.61190070094E+03  0.85147175038E+03  0.81003259103E+02 0.  0.
         24    2    4    4    0    0 -0.21461536727E+03  0.10598869477E+03  0.12094207446E+04  0.12352940808E+04  0.77198247271E+02 0.  0.
         11    1    3    3    0    0  0.59005205670E+02  0.45815951084E+03 -0.45518249241E+03  0.64852359484E+03  0.00000000000E+00 0.  1.
        -11    1    3    3    0    0  0.11100408061E+01  0.16696613562E+01 -0.25391543546E+02  0.25470579956E+02  0.00000000000E+00 0. -1.
          4    1    6    6  502    0 -0.77263166798E+02  0.70624155504E+02  0.63825569203E+03  0.64678257297E+03  0.00000000000E+00 0. -1.
          3    1    5    5  503    0  0.62072014441E+02 -0.37466513548E+03  0.39164015765E+03  0.54553543588E+03  0.00000000000E+00 0. -1.
         -4    1    5    5    0  503  0.92428106355E+02 -0.19115273149E+03  0.22026054329E+03  0.30593631450E+03  0.00000000000E+00 0.  1.
         -3    1    6    6    0  502 -0.13735220047E+03  0.35364539266E+02  0.57116505252E+03  0.58851150782E+03  0.00000000000E+00 0.  1.
<mgrwt>
<rscale>  0 0.24133363E+04</rscale>
<asrwt>0</asrwt>
<pdfrwt beam="1">  1        2 0.31550057E+00 0.24133363E+04</pdfrwt>
<pdfrwt beam="2">  1       -2 0.10923174E+00 0.24133363E+04</pdfrwt>
<totfact> 0.37574907E+00</totfact>
</mgrwt>
</event>
<event>
12    1  0.1598876E-007  0.1397629E+04  0.7818608E-02  0.8955537E-01
          1   -1    0    0  501    0  0.00000000000E+00  0.00000000000E+00  0.50833806250E+03  0.50833806250E+03  0.00000000000E+00 0. -1.
         -1   -1    0    0    0  501 -0.00000000000E+00 -0.00000000000E+00 -0.96066327014E+03  0.96066327014E+03  0.00000000000E+00 0.  1.
         23    2    1    2    0    0 -0.85161501138E+02  0.32466024207E+03 -0.36101456280E+03  0.50153167194E+03  0.92443222303E+02 0.  0.
        254    2    1    2    0    0  0.85161501138E+02 -0.32466024207E+03 -0.91310644841E+02  0.96746966071E+03  0.90277525247E+03 0.  0.
        -24    2    4    4    0    0  0.36326269228E+03  0.35737102740E+02 -0.28142931992E+03  0.46780490978E+03  0.80012795142E+02 0.  0.
         24    2    4    4    0    0 -0.27810119115E+03 -0.36039734481E+03  0.19011867508E+03  0.49966475093E+03  0.79329906356E+02 0.  0.
         11    1    3    3    0    0 -0.10050673422E+03  0.28864385110E+03 -0.29501776453E+03  0.42479684296E+03  0.00000000000E+00 0.  1.
        -11    1    3    3    0    0  0.15345233080E+02  0.36016390963E+02 -0.65996798264E+02  0.76734828972E+02  0.00000000000E+00 0. -1.
          4    1    6    6  502    0 -0.16808256937E+03 -0.27258556477E+03  0.11620322303E+03  0.34067261307E+03  0.00000000000E+00 0. -1.
          1    1    5    5  503    0  0.31395165733E+03  0.58511470667E+02 -0.24167632852E+03  0.40049554693E+03  0.00000000000E+00 0. -1.
         -2    1    5    5    0  503  0.49311034952E+02 -0.22774367928E+02 -0.39752991401E+02  0.67309362855E+02  0.00000000000E+00 0.  1.
         -3    1    6    6    0  502 -0.11001862177E+03 -0.87811780031E+02  0.73915452050E+02  0.15899213786E+03  0.00000000000E+00 0.  1.
<mgrwt>
<rscale>  0 0.13976290E+04</rscale>
<asrwt>0</asrwt>
<pdfrwt beam="1">  1        1 0.78205857E-01 0.13976290E+04</pdfrwt>
<pdfrwt beam="2">  1       -1 0.14779435E+00 0.13976290E+04</pdfrwt>
<totfact> 0.15340295E+01</totfact>
</mgrwt>
</event>
<event>
12    1  0.1598876E-007  0.2317177E+04  0.7818608E-02  0.8471179E-01
         -1   -1    0    0    0  501 -0.00000000000E+00  0.00000000000E+00  0.21762326096E+04  0.21762326096E+04  0.00000000000E+00 0.  1.
          1   -1    0    0  501    0  0.00000000000E+00 -0.00000000000E+00 -0.61681237331E+03  0.61681237331E+03  0.00000000000E+00 0. -1.
         23    2    1    2    0    0  0.35195468956E+03  0.89046710769E+03  0.40096797005E+03  0.10422229790E+04  0.93003502491E+02 0.  0.
        254    2    1    2    0    0 -0.35195468956E+03 -0.89046710769E+03  0.11584522662E+04  0.17508220040E+04  0.89808811539E+03 0.  0.
        -24    2    4    4    0    0  0.80804946004E+02 -0.75555122619E+03  0.39614544632E+03  0.86064176873E+03  0.79912106301E+02 0.  0.
         24    2    4    4    0    0 -0.43275963556E+03 -0.13491588150E+03  0.76230681990E+03  0.89018023523E+03  0.76328017557E+02 0.  0.
         11    1    3    3    0    0  0.13076025413E+02  0.49848745048E+02  0.45187483699E+02  0.68540415133E+02  0.00000000000E+00 0.  1.
        -11    1    3    3    0    0  0.33887866414E+03  0.84061836264E+03  0.35578048635E+03  0.97368256382E+03  0.00000000000E+00 0. -1.
          2    1    6    6  502    0 -0.34584349800E+03 -0.78626494449E+02  0.55898159536E+03  0.66200473917E+03  0.00000000000E+00 0. -1.
          1    1    5    5  503    0  0.93473552186E+02 -0.53730657833E+03  0.27783074323E+03  0.61206665156E+03  0.00000000000E+00 0. -1.
         -2    1    5    5    0  503 -0.12668606182E+02 -0.21824464786E+03  0.11831470310E+03  0.24857511716E+03  0.00000000000E+00 0.  1.
         -1    1    6    6    0  502 -0.86916137565E+02 -0.56289387049E+02  0.20332522454E+03  0.22817549605E+03  0.00000000000E+00 0.  1.
<mgrwt>
<rscale>  0 0.23171769E+04</rscale>
<asrwt>0</asrwt>
<pdfrwt beam="1">  1        1 0.94894212E-01 0.23171769E+04</pdfrwt>
<pdfrwt beam="2">  1       -1 0.33480501E+00 0.23171769E+04</pdfrwt>
<totfact> 0.58159492E-01</totfact>
</mgrwt>
</event>
<event>
12    1  0.1598876E-007  0.1300190E+04  0.7818608E-02  0.9029415E-01
          2   -1    0    0  501    0  0.00000000000E+00  0.00000000000E+00  0.48301628775E+03  0.48301628775E+03  0.00000000000E+00 0. -1.
         -2   -1    0    0    0  501 -0.00000000000E+00 -0.00000000000E+00 -0.87496675754E+03  0.87496675754E+03  0.00000000000E+00 0.  1.
         23    2    1    2    0    0 -0.29478319514E+03  0.88198541359E+02 -0.20157603213E+02  0.32217437652E+03  0.93348192709E+02 0.  0.
        254    2    1    2    0    0  0.29478319514E+03 -0.88198541359E+02 -0.37179286658E+03  0.10358086688E+04  0.91651161904E+03 0.  0.
        -24    2    4    4    0    0  0.59371060637E+03  0.95925041913E+02 -0.23703864546E+03  0.65143788703E+03  0.80561178231E+02 0.  0.
         24    2    4    4    0    0 -0.29892741123E+03 -0.18412358327E+03 -0.13475422112E+03  0.38437078174E+03  0.79517964263E+02 0.  0.
         11    1    3    3    0    0 -0.11366315135E+03  0.19302227533E+02  0.35370615141E+02  0.12059423028E+03  0.00000000000E+00 0. -1.
        -11    1    3    3    0    0 -0.18112004379E+03  0.68896313825E+02 -0.55528218355E+02  0.20158014623E+03  0.00000000000E+00 0.  1.
          2    1    6    6  502    0 -0.14174596411E+02  0.61138952445E+01  0.21100437305E+01  0.15580474416E+02  0.00000000000E+00 0. -1.
          3    1    5    5  503    0  0.41205615465E+03  0.70491823736E+02 -0.12427999317E+03  0.43612485426E+03  0.00000000000E+00 0. -1.
         -4    1    5    5    0  503  0.18165445172E+03  0.25433218177E+02 -0.11275865229E+03  0.21531303277E+03  0.00000000000E+00 0.  1.
         -3    1    6    6    0  502 -0.28475281482E+03 -0.19023747852E+03 -0.13686426485E+03  0.36879030732E+03  0.00000000000E+00 0.  1.
<mgrwt>
<rscale>  0 0.13001895E+04</rscale>
<asrwt>0</asrwt>
<pdfrwt beam="1">  1        2 0.74310198E-01 0.13001895E+04</pdfrwt>
<pdfrwt beam="2">  1       -2 0.13461027E+00 0.13001895E+04</pdfrwt>
<totfact> 0.24954937E+01</totfact>
</mgrwt>
</event>
<event>
12    1  0.1598876E-007  0.1786997E+04  0.7818608E-02  0.8713245E-01
          2   -1    0    0  501    0  0.00000000000E+00  0.00000000000E+00  0.90372588944E+03  0.90372588944E+03  0.00000000000E+00 0. -1.
         -2   -1    0    0    0  501 -0.00000000000E+00 -0.00000000000E+00 -0.88338690833E+03  0.88338690833E+03  0.00000000000E+00 0.  1.
         23    2    1    2    0    0 -0.47288831404E+03 -0.45085282303E+03  0.19985436464E+03  0.68965322118E+03  0.93745254935E+02 0.  0.
        254    2    1    2    0    0  0.47288831404E+03  0.45085282303E+03 -0.17951538353E+03  0.10974595766E+04  0.86330766458E+03 0.  0.
        -24    2    4    4    0    0 -0.12018490623E+03 -0.15662961149E+03 -0.11471243628E+03  0.24230015032E+03  0.81075106709E+02 0.  0.
         24    2    4    4    0    0  0.59307322028E+03  0.60748243452E+03 -0.64802947251E+02  0.85515942626E+03  0.79545392650E+02 0.  0.
         13    1    3    3    0    0 -0.38399425500E+03 -0.35704511574E+03  0.19777644221E+03  0.56040014600E+03  0.00000000000E+00 0. -1.
        -13    1    3    3    0    0 -0.88894059042E+02 -0.93807707293E+02  0.20779224257E+01  0.12925307517E+03  0.00000000000E+00 0.  1.
          4    1    6    6  502    0  0.48211121206E+03  0.53096958635E+03 -0.67410614063E+02  0.72034999362E+03  0.00000000000E+00 0. -1.
          3    1    5    5  503    0 -0.13139357235E+03 -0.15126936050E+03 -0.11213767828E+03  0.22961173570E+03  0.00000000000E+00 0. -1.
         -4    1    5    5    0  503  0.11208666120E+02 -0.53602509911E+01 -0.25747580004E+01  0.12688414623E+02  0.00000000000E+00 0.  1.
         -3    1    6    6    0  502  0.11096200822E+03  0.76512848176E+02  0.26076668114E+01  0.13480943265E+03  0.00000000000E+00 0.  1.
<mgrwt>
<rscale>  0 0.17869971E+04</rscale>
<asrwt>0</asrwt>
<pdfrwt beam="1">  1        2 0.13903475E+00 0.17869971E+04</pdfrwt>
<pdfrwt beam="2">  1       -2 0.13590568E+00 0.17869971E+04</pdfrwt>
<totfact> 0.10682867E+01</totfact>
</mgrwt>
</event>
<event>
12    1  0.1598876E-007  0.3728792E+04  0.7818608E-02  0.8061611E-01
         -1   -1    0    0    0  501 -0.00000000000E+00  0.00000000000E+00  0.11152582294E+04  0.11152582294E+04  0.00000000000E+00 0.  1.
          1   -1    0    0  501    0  0.00000000000E+00 -0.00000000000E+00 -0.31167429883E+04  0.31167429883E+04  0.00000000000E+00 0. -1.
         23    2    1    2    0    0  0.10337261036E+04  0.52664105081E+03  0.55047284999E+03  0.12874196541E+04  0.92133347152E+02 0.  0.
        254    2    1    2    0    0 -0.10337261036E+04 -0.52664105081E+03 -0.25519576089E+04  0.29445815636E+04  0.90118393983E+03 0.  0.
        -24    2    4    4    0    0 -0.11830689384E+03  0.20530752267E+03 -0.21788286849E+03  0.33154772564E+03  0.79393009786E+02 0.  0.
         24    2    4    4    0    0 -0.91541920973E+03 -0.73194857348E+03 -0.23340747404E+04  0.26130338379E+04  0.79371913759E+02 0.  0.
         11    1    3    3    0    0  0.88760577017E+03  0.42950387724E+03  0.49544039796E+03  0.11035301408E+04  0.00000000000E+00 0.  1.
        -11    1    3    3    0    0  0.14612033340E+03  0.97137173566E+02  0.55032452026E+02  0.18388951329E+03  0.00000000000E+00 0. -1.
          4    1    6    6  502    0 -0.16436634536E+03 -0.12306939851E+03 -0.47778695480E+03  0.52004110079E+03  0.00000000000E+00 0. -1.
          3    1    5    5  503    0 -0.41243529554E+02  0.86900289862E+02 -0.39471827438E+02  0.10397458473E+03  0.00000000000E+00 0. -1.
         -4    1    5    5    0  503 -0.77063364288E+02  0.11840723281E+03 -0.17841104105E+03  0.22757314092E+03  0.00000000000E+00 0.  1.
         -3    1    6    6    0  502 -0.75105286437E+03 -0.60887917497E+03 -0.18562877856E+04  0.20929927371E+04  0.00000000000E+00 0.  1.
<mgrwt>
<rscale>  0 0.37287924E+04</rscale>
<asrwt>0</asrwt>
<pdfrwt beam="1">  1        1 0.47949891E+00 0.37287924E+04</pdfrwt>
<pdfrwt beam="2">  1       -1 0.17157819E+00 0.37287924E+04</pdfrwt>
<totfact> 0.93970971E-02</totfact>
</mgrwt>
</event>
<event>
12    1  0.1598876E-007  0.1256080E+04  0.7818608E-02  0.9065138E-01
         -2   -1    0    0    0  501 -0.00000000000E+00  0.00000000000E+00  0.27987356106E+03  0.27987356106E+03  0.00000000000E+00 0.  1.
          2   -1    0    0  501    0  0.00000000000E+00 -0.00000000000E+00 -0.14093292723E+04  0.14093292723E+04  0.00000000000E+00 0. -1.
         23    2    1    2    0    0 -0.21498349236E+02  0.66004782886E+02  0.10145707044E+03  0.15361550720E+03  0.92116103509E+02 0.  0.
        254    2    1    2    0    0  0.21498349236E+02 -0.66004782886E+02 -0.12309127817E+04  0.15355873262E+04  0.91545800001E+03 0.  0.
        -24    2    4    4    0    0 -0.62467151338E+02  0.38964730442E+03 -0.81083569904E+03  0.90507331313E+03  0.77304621232E+02 0.  0.
         24    2    4    4    0    0  0.83965500574E+02 -0.45565208731E+03 -0.42007708269E+03  0.63051401308E+03  0.80088297083E+02 0.  0.
         13    1    3    3    0    0  0.30100842814E+02  0.11923757669E+02  0.69371122484E+01  0.33111331314E+02  0.00000000000E+00 0. -1.
        -13    1    3    3    0    0 -0.51599192050E+02  0.54081025217E+02  0.94519958196E+02  0.12050417589E+03  0.00000000000E+00 0.  1.
          4    1    6    6  502    0 -0.43804653340E+01 -0.18330667309E+03 -0.14964201019E+03  0.23667119827E+03  0.00000000000E+00 0. -1.
          1    1    5    5  503    0  0.17914135600E+02  0.58846307394E+02 -0.13420291735E+03  0.14762868005E+03  0.00000000000E+00 0. -1.
         -2    1    5    5    0  503 -0.80381286937E+02  0.33080099703E+03 -0.67663278169E+03  0.75744463308E+03  0.00000000000E+00 0.  1.
         -3    1    6    6    0  502  0.88345965908E+02 -0.27234541421E+03 -0.27043507251E+03  0.39384281481E+03  0.00000000000E+00 0.  1.
<mgrwt>
<rscale>  0 0.12560796E+04</rscale>
<asrwt>0</asrwt>
<pdfrwt beam="1">  1        2 0.21681988E+00 0.12560796E+04</pdfrwt>
<pdfrwt beam="2">  1       -2 0.43057472E-01 0.12560796E+04</pdfrwt>
<totfact> 0.71830592E+01</totfact>
</mgrwt>
</event>
<event>
12    1  0.1598876E-007  0.1087779E+04  0.7818608E-02  0.9217186E-01
         -2   -1    0    0    0  501 -0.00000000000E+00  0.00000000000E+00  0.25423454738E+03  0.25423454738E+03  0.00000000000E+00 0.  1.
          2   -1    0    0  501    0  0.00000000000E+00 -0.00000000000E+00 -0.11635544371E+04  0.11635544371E+04  0.00000000000E+00 0. -1.
         23    2    1    2    0    0 -0.26845925564E+02  0.47786590848E+02  0.29527632632E+02  0.11003573100E+03  0.90728821353E+02 0.  0.
        254    2    1    2    0    0  0.26845925564E+02 -0.47786590848E+02 -0.93884752238E+03  0.13077532535E+04  0.90872418245E+03 0.  0.
        -24    2    4    4    0    0 -0.37768556313E+03  0.18708887751E+03 -0.36797031312E+03  0.56544267816E+03  0.81698459333E+02 0.  0.
         24    2    4    4    0    0  0.40453148870E+03 -0.23487546836E+03 -0.57087720926E+03  0.74231057534E+03  0.79448041053E+02 0.  0.
         11    1    3    3    0    0  0.19103533058E+02  0.50914269833E+02  0.33398682394E+02  0.63817551140E+02  0.00000000000E+00 0.  1.
        -11    1    3    3    0    0 -0.45949458622E+02 -0.31276789849E+01 -0.38710497622E+01  0.46218179862E+02  0.00000000000E+00 0. -1.
          4    1    6    6  502    0  0.16013598845E+03 -0.11339807286E+03 -0.29456395179E+03  0.35393584083E+03  0.00000000000E+00 0. -1.
          1    1    5    5  503    0 -0.13318830745E+03  0.33897513106E+02 -0.86652742430E+02  0.16247111869E+03  0.00000000000E+00 0. -1.
         -2    1    5    5    0  503 -0.24449725568E+03  0.15319136441E+03 -0.28131757069E+03  0.40297155947E+03  0.00000000000E+00 0.  1.
         -1    1    6    6    0  502  0.24439550024E+03 -0.12147739550E+03 -0.27631325746E+03  0.38837473451E+03  0.00000000000E+00 0.  1.
<mgrwt>
<rscale>  0 0.10877789E+04</rscale>
<asrwt>0</asrwt>
<pdfrwt beam="1">  1        2 0.17900838E+00 0.10877789E+04</pdfrwt>
<pdfrwt beam="2">  1       -2 0.39113006E-01 0.10877789E+04</pdfrwt>
<totfact> 0.12221198E+02</totfact>
</mgrwt>
</event>
<event>
12    1  0.1598876E-007  0.3436052E+04  0.7818608E-02  0.8129114E-01
         -1   -1    0    0    0  501 -0.00000000000E+00  0.00000000000E+00  0.14961403819E+04  0.14961403819E+04  0.00000000000E+00 0.  1.
          1   -1    0    0  501    0  0.00000000000E+00 -0.00000000000E+00 -0.19728181784E+04  0.19728181784E+04  0.00000000000E+00 0. -1.
         23    2    1    2    0    0 -0.13662293135E+04  0.42355531248E+01  0.61415635400E+03  0.15006116915E+04  0.89704762879E+02 0.  0.
        254    2    1    2    0    0  0.13662293135E+04 -0.42355531248E+01 -0.10908341505E+04  0.19683468688E+04  0.90436152895E+03 0.  0.
        -24    2    4    4    0    0  0.35987785161E+03  0.23636453576E+03 -0.76351553420E+03  0.88021795466E+03  0.80295796241E+02 0.  0.
         24    2    4    4    0    0  0.10063514619E+04 -0.24060008888E+03 -0.32731861633E+03  0.10881289142E+04  0.79091021071E+02 0.  0.
         13    1    3    3    0    0 -0.95139578152E+03  0.34785478744E+02  0.39843491254E+03  0.10320437695E+04  0.00000000000E+00 0.  1.
        -13    1    3    3    0    0 -0.41483353198E+03 -0.30549925620E+02  0.21572144146E+03  0.46856792199E+03  0.00000000000E+00 0. -1.
          4    1    6    6  502    0  0.42005071124E+03 -0.14010373728E+03 -0.14638811902E+03  0.46637017337E+03  0.00000000000E+00 0. -1.
          1    1    5    5  503    0  0.20254445506E+02  0.36593093822E+02 -0.50465385717E+02  0.65544276896E+02  0.00000000000E+00 0. -1.
         -2    1    5    5    0  503  0.33962340610E+03  0.19977144193E+03 -0.71305014848E+03  0.81467367776E+03  0.00000000000E+00 0.  1.
         -3    1    6    6    0  502  0.58630075066E+03 -0.10049635160E+03 -0.18093049731E+03  0.62175874080E+03  0.00000000000E+00 0.  1.
<mgrwt>
<rscale>  0 0.34360518E+04</rscale>
<asrwt>0</asrwt>
<pdfrwt beam="1">  1        1 0.30351049E+00 0.34360518E+04</pdfrwt>
<pdfrwt beam="2">  1       -1 0.23017544E+00 0.34360518E+04</pdfrwt>
<totfact> 0.24010532E-01</totfact>
</mgrwt>
</event>
<event>
12    1  0.1598876E-007  0.1611175E+04  0.7818608E-02  0.8813712E-01
         -1   -1    0    0    0  501 -0.00000000000E+00  0.00000000000E+00  0.35712333600E+03  0.35712333600E+03  0.00000000000E+00 0.  1.
          1   -1    0    0  501    0  0.00000000000E+00 -0.00000000000E+00 -0.18172194960E+04  0.18172194960E+04  0.00000000000E+00 0. -1.
         23    2    1    2    0    0 -0.24890336918E+03 -0.48628625887E+03 -0.59172125531E+03  0.81053795113E+03  0.91708851732E+02 0.  0.
        254    2    1    2    0    0  0.24890336918E+03  0.48628625887E+03 -0.86837490468E+03  0.13638048808E+04  0.89858865182E+03 0.  0.
        -24    2    4    4    0    0  0.53526652122E+03  0.21326877427E+03 -0.73520287399E+03  0.93751852831E+03  0.80149274470E+02 0.  0.
         24    2    4    4    0    0 -0.28636315204E+03  0.27301748460E+03 -0.13317203069E+03  0.42628635253E+03  0.86272028208E+02 0.  0.
         13    1    3    3    0    0 -0.14942477464E+03 -0.32700620079E+03 -0.44582909766E+03  0.57273414684E+03  0.00000000000E+00 0. -1.
        -13    1    3    3    0    0 -0.99478594547E+02 -0.15928005808E+03 -0.14589215764E+03  0.23780380429E+03  0.00000000000E+00 0.  1.
          4    1    6    6  502    0 -0.31911617032E+02  0.10833610498E+01 -0.43796856644E+01  0.32228971738E+02  0.00000000000E+00 0. -1.
          1    1    5    5  503    0  0.20316494442E+03  0.11304694264E+03 -0.25439181041E+03  0.34463139597E+03  0.00000000000E+00 0. -1.
         -4    1    5    5    0  503  0.33210157680E+03  0.10022183163E+03 -0.48081106358E+03  0.59288713235E+03  0.00000000000E+00 0.  1.
         -3    1    6    6    0  502 -0.25445153500E+03  0.27193412355E+03 -0.12879234503E+03  0.39405738079E+03  0.00000000000E+00 0.  1.
<mgrwt>
<rscale>  0 0.16111753E+04</rscale>
<asrwt>0</asrwt>
<pdfrwt beam="1">  1        1 0.27957224E+00 0.16111753E+04</pdfrwt>
<pdfrwt beam="2">  1       -1 0.54942050E-01 0.16111753E+04</pdfrwt>
<totfact> 0.12729391E+01</totfact>
</mgrwt>
</event>
<event>
12    1  0.1598876E-007  0.1098573E+04  0.7818608E-02  0.9206584E-01
          2   -1    0    0  501    0  0.00000000000E+00  0.00000000000E+00  0.20798471065E+03  0.20798471065E+03  0.00000000000E+00 0.  1.
         -2   -1    0    0    0  501 -0.00000000000E+00 -0.00000000000E+00 -0.14506627769E+04  0.14506627769E+04  0.00000000000E+00 0. -1.
         23    2    1    2    0    0  0.24397961034E+02 -0.10797309254E+03 -0.36170076188E+03  0.38881694335E+03  0.89987360612E+02 0.  0.
        254    2    1    2    0    0 -0.24397961034E+02  0.10797309254E+03 -0.88097730436E+03  0.12698305442E+04  0.90779686658E+03 0.  0.
        -24    2    4    4    0    0 -0.43777186202E+01  0.10278198410E+03 -0.10621222420E+04  0.10700427033E+04  0.79400435743E+02 0.  0.
         24    2    4    4    0    0 -0.20020242414E+02  0.51911084394E+01  0.18114493769E+03  0.19978784088E+03  0.81694156470E+02 0.  0.
         11    1    3    3    0    0 -0.77026540241E+01 -0.14198713519E+02 -0.18904439981E+03  0.18973328502E+03  0.00000000000E+00 0. -1.
        -11    1    3    3    0    0  0.32100615059E+02 -0.93774379022E+02 -0.17265636207E+03  0.19908365832E+03  0.00000000000E+00 0.  1.
          2    1    6    6  502    0 -0.66553277653E+01  0.17411559287E+02  0.18071424744E+03  0.18167304426E+03  0.00000000000E+00 0. -1.
          1    1    5    5  503    0  0.23065008868E+02  0.32705116505E+02 -0.64103518135E+03  0.64228321091E+03  0.00000000000E+00 0. -1.
         -2    1    5    5    0  503 -0.27442727488E+02  0.70076867597E+02 -0.42108706069E+03  0.42775949241E+03  0.00000000000E+00 0.  1.
         -1    1    6    6    0  502 -0.13364914649E+02 -0.12220450848E+02  0.43069024994E+00  0.18114796620E+02  0.00000000000E+00 0.  1.
<mgrwt>
<rscale>  0 0.10985730E+04</rscale>
<asrwt>0</asrwt>
<pdfrwt beam="1">  1        2 0.31997647E-01 0.10985730E+04</pdfrwt>
<pdfrwt beam="2">  1       -2 0.22317890E+00 0.10985730E+04</pdfrwt>
<totfact> 0.15537017E+01</totfact>
</mgrwt>
</event>
<event>
12    1  0.3071702E-007  0.1493535E+04  0.7818608E-02  0.8888764E-01
          1   -1    0    0  501    0  0.00000000000E+00  0.00000000000E+00  0.11142166223E+04  0.11142166223E+04  0.00000000000E+00 0. -1.
         -1   -1    0    0    0  501 -0.00000000000E+00 -0.00000000000E+00 -0.50049643115E+03  0.50049643115E+03  0.00000000000E+00 0.  1.
         23    2    1    2    0    0  0.51556945034E+02  0.27775086048E+03 -0.20730944138E+03  0.35960972415E+03  0.80859694184E+02 0.  0.
        254    2    1    2    0    0 -0.51556945034E+02 -0.27775086048E+03  0.82102963248E+03  0.12551033293E+04  0.90630626756E+03 0.  0.
        -24    2    4    4    0    0  0.81193760639E+02 -0.10543739924E+03 -0.17421327913E+03  0.23310981258E+03  0.79249266044E+02 0.  0.
         24    2    4    4    0    0 -0.13275070567E+03 -0.17231346123E+03  0.99524291161E+03  0.10219935167E+04  0.81532915062E+02 0.  0.
         11    1    3    3    0    0 -0.17536616817E+02  0.20608787699E+02 -0.13231233900E+02  0.30121763067E+02  0.00000000000E+00 0. -1.
        -11    1    3    3    0    0  0.69093561850E+02  0.25714207278E+03 -0.19407820748E+03  0.32948796108E+03  0.00000000000E+00 0.  1.
          2    1    6    6  502    0 -0.68871291697E+01  0.91287052508E+01  0.45080713397E+02  0.46508456523E+02  0.00000000000E+00 0. -1.
          3    1    5    5  503    0  0.23388307349E+02 -0.37377093097E+02 -0.85495932819E+01  0.44912754918E+02  0.00000000000E+00 0. -1.
         -4    1    5    5    0  503  0.57805453291E+02 -0.68060306147E+02 -0.16566368585E+03  0.18819705766E+03  0.00000000000E+00 0.  1.
         -1    1    6    6    0  502 -0.12586357650E+03 -0.18144216648E+03  0.95016219822E+03  0.97548506016E+03  0.00000000000E+00 0.  1.
<mgrwt>
<rscale>  0 0.14935347E+04</rscale>
<asrwt>0</asrwt>
<pdfrwt beam="1">  1        1 0.17141794E+00 0.14935347E+04</pdfrwt>
<pdfrwt beam="2">  1       -1 0.76999451E-01 0.14935347E+04</pdfrwt>
<totfact> 0.20256687E+01</totfact>
</mgrwt>
</event>
<event>
12    1  0.1598876E-007  0.1008117E+04  0.7818608E-02  0.9299687E-01
          2   -1    0    0  501    0  0.00000000000E+00  0.00000000000E+00  0.10602773133E+04  0.10602773133E+04  0.00000000000E+00 0. -1.
         -2   -1    0    0    0  501 -0.00000000000E+00 -0.00000000000E+00 -0.23963052970E+03  0.23963052970E+03  0.00000000000E+00 0.  1.
         23    2    1    2    0    0 -0.24695113801E+02 -0.12312149399E+01  0.21731327925E+03  0.23700747201E+03  0.91302332472E+02 0.  0.
        254    2    1    2    0    0  0.24695113801E+02  0.12312149399E+01  0.60333350440E+03  0.10629003710E+04  0.87471967892E+03 0.  0.
        -24    2    4    4    0    0 -0.23406554676E+03 -0.21978662938E+03  0.63086115579E+03  0.71234567292E+03  0.79735294618E+02 0.  0.
         24    2    4    4    0    0  0.25876066056E+03  0.22101784432E+03 -0.27527651396E+02  0.35055469811E+03  0.79528974696E+02 0.  0.
         13    1    3    3    0    0 -0.37046522164E+02  0.16660537526E+02  0.21026465050E+03  0.21415237931E+03  0.00000000000E+00 0. -1.
        -13    1    3    3    0    0  0.12351408363E+02 -0.17891752466E+02  0.70486287436E+01  0.22855092693E+02  0.00000000000E+00 0.  1.
          2    1    6    6  502    0  0.14138914846E+03  0.13801571808E+03  0.21313086407E+02  0.19872965906E+03  0.00000000000E+00 0. -1.
          1    1    5    5  503    0 -0.16365804243E+03 -0.17447450939E+03  0.39191066097E+03  0.45915060215E+03  0.00000000000E+00 0. -1.
         -2    1    5    5    0  503 -0.70407504337E+02 -0.45312119990E+02  0.23895049482E+03  0.25319507077E+03  0.00000000000E+00 0.  1.
         -1    1    6    6    0  502  0.11737151211E+03  0.83002126239E+02 -0.48840737803E+02  0.15182503905E+03  0.00000000000E+00 0.  1.
<mgrwt>
<rscale>  0 0.10081167E+04</rscale>
<asrwt>0</asrwt>
<pdfrwt beam="1">  1        2 0.16311958E+00 0.10081167E+04</pdfrwt>
<pdfrwt beam="2">  1       -2 0.36866236E-01 0.10081167E+04</pdfrwt>
<totfact> 0.15936826E+02</totfact>
</mgrwt>
</event>
<event>
12    1  0.1598876E-007  0.2701491E+04  0.7818608E-02  0.8334521E-01
          2   -1    0    0  501    0  0.00000000000E+00  0.00000000000E+00  0.89156204258E+03  0.89156204258E+03  0.00000000000E+00 0. -1.
         -2   -1    0    0    0  501 -0.00000000000E+00 -0.00000000000E+00 -0.20464228119E+04  0.20464228119E+04  0.00000000000E+00 0.  1.
         23    2    1    2    0    0  0.36368302350E+03 -0.96093822755E+03  0.16067742792E+03  0.10442661557E+04  0.94904948563E+02 0.  0.
        254    2    1    2    0    0 -0.36368302350E+03  0.96093822755E+03 -0.13155381972E+04  0.18937186988E+04  0.89435012335E+03 0.  0.
        -24    2    4    4    0    0 -0.37177176269E+03  0.10175594573E+04 -0.13930353075E+04  0.17666325430E+04  0.82472307352E+02 0.  0.
         24    2    4    4    0    0  0.80887391972E+01 -0.56621229710E+02  0.77497110227E+02  0.12708615584E+03  0.82907765366E+02 0.  0.
         13    1    3    3    0    0  0.80376176763E+02 -0.19271689847E+03 -0.50460812596E+01  0.20886741173E+03  0.00000000000E+00 0.  1.
        -13    1    3    3    0    0  0.28330684673E+03 -0.76822132908E+03  0.16572350918E+03  0.83539874393E+03  0.00000000000E+00 0. -1.
          4    1    6    6  502    0  0.45171825935E+02 -0.37354999173E+02  0.40234286080E+02  0.71096326191E+02  0.00000000000E+00 0. -1.
          3    1    5    5  503    0 -0.31830682006E+03  0.88300698934E+03 -0.11586918761E+04  0.14911698222E+04  0.00000000000E+00 0. -1.
         -4    1    5    5    0  503 -0.53464942631E+02  0.13455246792E+03 -0.23434343132E+03  0.27546272074E+03  0.00000000000E+00 0.  1.
         -3    1    6    6    0  502 -0.37083086738E+02 -0.19266230538E+02  0.37262824147E+02  0.55989829653E+02  0.00000000000E+00 0.  1.
<mgrwt>
<rscale>  0 0.27014906E+04</rscale>
<asrwt>0</asrwt>
<pdfrwt beam="1">  1        2 0.13716339E+00 0.27014906E+04</pdfrwt>
<pdfrwt beam="2">  1       -2 0.31483427E+00 0.27014906E+04</pdfrwt>
<totfact> 0.67160745E-01</totfact>
</mgrwt>
</event>
<event>
12    1  0.1598876E-007  0.1875336E+04  0.7818608E-02  0.8667232E-01
         -2   -1    0    0    0  501 -0.00000000000E+00  0.00000000000E+00  0.14169618224E+04  0.14169618224E+04  0.00000000000E+00 0.  1.
          2   -1    0    0  501    0  0.00000000000E+00 -0.00000000000E+00 -0.62049726619E+03  0.62049726619E+03  0.00000000000E+00 0. -1.
         23    2    1    2    0    0 -0.48412810143E+03  0.10788068755E+03 -0.25467046018E+03  0.56497459130E+03  0.91219428777E+02 0.  0.
        254    2    1    2    0    0  0.48412810143E+03 -0.10788068755E+03  0.10511350164E+04  0.14724844973E+04  0.90405061295E+03 0.  0.
        -24    2    4    4    0    0 -0.97186671468E+02  0.27251542037E+03  0.15867268405E+03  0.33917491545E+03  0.78439143027E+02 0.  0.
         24    2    4    4    0    0  0.58131477290E+03 -0.38039610792E+03  0.89246233238E+03  0.11333095819E+04  0.72619071609E+02 0.  0.
         13    1    3    3    0    0 -0.30657121032E+03  0.67599502036E+02 -0.11076976477E+03  0.33290470177E+03  0.00000000000E+00 0. -1.
        -13    1    3    3    0    0 -0.17755689111E+03  0.40281185516E+02 -0.14390069542E+03  0.23206988953E+03  0.00000000000E+00 0.  1.
          4    1    6    6  502    0  0.42180557204E+03 -0.26406065339E+03  0.68772883275E+03  0.84889275923E+03  0.00000000000E+00 0. -1.
          1    1    5    5  503    0 -0.60935688659E+02  0.22042280808E+03  0.90260797683E+02  0.24585846349E+03  0.00000000000E+00 0. -1.
         -2    1    5    5    0  503 -0.36250982809E+02  0.52092612288E+02  0.68411886364E+02  0.93316451955E+02  0.00000000000E+00 0.  1.
         -1    1    6    6    0  502  0.15950920086E+03 -0.11633545453E+03  0.20473349963E+03  0.28441682265E+03  0.00000000000E+00 0.  1.
<mgrwt>
<rscale>  0 0.18753356E+04</rscale>
<asrwt>0</asrwt>
<pdfrwt beam="1">  1        2 0.95461118E-01 0.18753356E+04</pdfrwt>
<pdfrwt beam="2">  1       -2 0.21799413E+00 0.18753356E+04</pdfrwt>
<totfact> 0.45440663E+00</totfact>
</mgrwt>
</event>
<event>
12    1  0.1598876E-007  0.1153729E+04  0.7818608E-02  0.9154350E-01
         -2   -1    0    0    0  501 -0.00000000000E+00  0.00000000000E+00  0.20273393784E+03  0.20273393784E+03  0.00000000000E+00 0.  1.
          2   -1    0    0  501    0  0.00000000000E+00 -0.00000000000E+00 -0.16414257977E+04  0.16414257977E+04  0.00000000000E+00 0. -1.
         23    2    1    2    0    0 -0.16677938726E+03 -0.19534969020E+03 -0.37207998052E+03  0.46193645273E+03  0.94683203269E+02 0.  0.
        254    2    1    2    0    0  0.16677938726E+03  0.19534969020E+03 -0.10666118794E+04  0.13822232828E+04  0.84077549733E+03 0.  0.
        -24    2    4    4    0    0 -0.26073667959E+03 -0.30998912074E+02 -0.75064359219E+03  0.79919083045E+03  0.79345020915E+02 0.  0.
         24    2    4    4    0    0  0.42751606685E+03  0.22634860227E+03 -0.31596828717E+03  0.58303245237E+03  0.78020541251E+02 0.  0.
         11    1    3    3    0    0 -0.15017818408E+03 -0.14221884626E+03 -0.22989231906E+03  0.30924127403E+03  0.00000000000E+00 0. -1.
        -11    1    3    3    0    0 -0.16601203178E+02 -0.53130843940E+02 -0.14218766146E+03  0.15269517869E+03  0.00000000000E+00 0.  1.
          4    1    6    6  502    0  0.15600442008E+03  0.67391135817E+02 -0.15320981138E+03  0.22880601079E+03  0.00000000000E+00 0. -1.
          1    1    5    5  503    0 -0.21525170829E+02 -0.21796664551E+02 -0.48540333182E+02  0.57398532299E+02  0.00000000000E+00 0. -1.
         -2    1    5    5    0  503 -0.23921150876E+03 -0.92022475237E+01 -0.70210325901E+03  0.74179229815E+03  0.00000000000E+00 0.  1.
         -3    1    6    6    0  502  0.27151164677E+03  0.15895746645E+03 -0.16275847579E+03  0.35422644158E+03  0.00000000000E+00 0.  1.
<mgrwt>
<rscale>  0 0.11537291E+04</rscale>
<asrwt>0</asrwt>
<pdfrwt beam="1">  1        2 0.25252704E+00 0.11537291E+04</pdfrwt>
<pdfrwt beam="2">  1       -2 0.31189838E-01 0.11537291E+04</pdfrwt>
<totfact> 0.99719504E+01</totfact>
</mgrwt>
</event>
<event>
12    1  0.1598876E-007  0.1291244E+04  0.7818608E-02  0.9036537E-01
         -2   -1    0    0    0  501 -0.00000000000E+00  0.00000000000E+00  0.21034593524E+03  0.21034593524E+03  0.00000000000E+00 0.  1.
          2   -1    0    0  501    0  0.00000000000E+00 -0.00000000000E+00 -0.19816305815E+04  0.19816305815E+04  0.00000000000E+00 0. -1.
         23    2    1    2    0    0 -0.68783264675E+01 -0.26661639404E+03 -0.78191321413E+03  0.83108804058E+03  0.90484494876E+02 0.  0.
        254    2    1    2    0    0  0.68783264675E+01  0.26661639404E+03 -0.98937143209E+03  0.13608884761E+04  0.89556127699E+03 0.  0.
        -24    2    4    4    0    0  0.38960031436E+03  0.21671336019E+03 -0.80978915411E+03  0.92796143032E+03  0.81245656036E+02 0.  0.
         24    2    4    4    0    0 -0.38272198790E+03  0.49903033854E+02 -0.17958227799E+03  0.43292704579E+03  0.78801012728E+02 0.  0.
         11    1    3    3    0    0 -0.28775891725E+02 -0.25520284813E+03 -0.70609800593E+03  0.75135273981E+03  0.00000000000E+00 0. -1.
        -11    1    3    3    0    0  0.21897565258E+02 -0.11413545914E+02 -0.75815208197E+02  0.79735300768E+02  0.00000000000E+00 0.  1.
          4    1    6    6  502    0 -0.29923994796E+02 -0.49689284675E+01 -0.38523534975E+02  0.49032626501E+02  0.00000000000E+00 0. -1.
          3    1    5    5  503    0  0.26757573191E+02  0.35158038406E+02 -0.50741556232E+02  0.67281207751E+02  0.00000000000E+00 0. -1.
         -4    1    5    5    0  503  0.36284274117E+03  0.18155532178E+03 -0.75904759787E+03  0.86068022257E+03  0.00000000000E+00 0.  1.
         -3    1    6    6    0  502 -0.35279799310E+03  0.54871962321E+02 -0.14105874301E+03  0.38389441929E+03  0.00000000000E+00 0.  1.
<mgrwt>
<rscale>  0 0.12912443E+04</rscale>
<asrwt>0</asrwt>
<pdfrwt beam="1">  1        2 0.30486625E+00 0.12912443E+04</pdfrwt>
<pdfrwt beam="2">  1       -2 0.32360912E-01 0.12912443E+04</pdfrwt>
<totfact> 0.59714136E+01</totfact>
</mgrwt>
</event>
<event>
12    1  0.1598876E-007  0.1447224E+04  0.7818608E-02  0.8920327E-01
          2   -1    0    0  501    0  0.00000000000E+00  0.00000000000E+00  0.89214851944E+03  0.89214851944E+03  0.00000000000E+00 0. -1.
         -2   -1    0    0    0  501 -0.00000000000E+00 -0.00000000000E+00 -0.58691378329E+03  0.58691378329E+03  0.00000000000E+00 0.  1.
         23    2    1    2    0    0 -0.15945850497E+03  0.13973831240E+03 -0.30888138336E+03  0.38467422376E+03  0.87251009594E+02 0.  0.
        254    2    1    2    0    0  0.15945850497E+03 -0.13973831240E+03  0.61411611951E+03  0.10943880790E+04  0.88067749397E+03 0.  0.
        -24    2    4    4    0    0 -0.33366603095E+03  0.16263139783E+02  0.91139561010E+02  0.35452406757E+03  0.76048569868E+02 0.  0.
         24    2    4    4    0    0  0.49312453593E+03 -0.15600145219E+03  0.52297655850E+03  0.73986401140E+03  0.79912537242E+02 0.  0.
         11    1    3    3    0    0 -0.13313484861E+03  0.10568950795E+03 -0.29311655206E+03  0.33883989301E+03  0.00000000000E+00 0.  1.
        -11    1    3    3    0    0 -0.26323656363E+02  0.34048804452E+02 -0.15764831302E+02  0.45834330746E+02  0.00000000000E+00 0. -1.
          4    1    6    6  502    0  0.88461341822E+02 -0.21001665642E+02  0.53360375511E+02  0.10542205002E+03  0.00000000000E+00 0. -1.
          3    1    5    5  503    0 -0.13136363616E+03  0.36623664647E+02  0.14125927806E+02  0.13710302532E+03  0.00000000000E+00 0. -1.
         -4    1    5    5    0  503 -0.20230239480E+03 -0.20360524864E+02  0.77013633203E+02  0.21742104225E+03  0.00000000000E+00 0.  1.
         -3    1    6    6    0  502  0.40466319410E+03 -0.13499978654E+03  0.46961618299E+03  0.63444196137E+03  0.00000000000E+00 0.  1.
<mgrwt>
<rscale>  0 0.14472239E+04</rscale>
<asrwt>0</asrwt>
<pdfrwt beam="1">  1        2 0.13725362E+00 0.14472239E+04</pdfrwt>
<pdfrwt beam="2">  1       -2 0.90294427E-01 0.14472239E+04</pdfrwt>
<totfact> 0.30208199E+01</totfact>
</mgrwt>
</event>
<event>
12    1  0.1598876E-007  0.1982862E+04  0.7818608E-02  0.8614675E-01
         -1   -1    0    0    0  501 -0.00000000000E+00  0.00000000000E+00  0.60674003314E+03  0.60674003314E+03  0.00000000000E+00 0.  1.
          1   -1    0    0  501    0  0.00000000000E+00 -0.00000000000E+00 -0.16200276682E+04  0.16200276682E+04  0.00000000000E+00 0. -1.
         23    2    1    2    0    0  0.49471668298E+03  0.54015766288E+03 -0.92853348167E+02  0.74374193322E+03  0.89528887900E+02 0.  0.
        254    2    1    2    0    0 -0.49471668298E+03 -0.54015766288E+03 -0.92043428687E+03  0.14830257681E+04  0.90313412915E+03 0.  0.
        -24    2    4    4    0    0  0.19305266271E+03 -0.30449726591E+03 -0.54924820878E+03  0.66219742686E+03  0.82727998696E+02 0.  0.
         24    2    4    4    0    0 -0.68776934569E+03 -0.23566039697E+03 -0.37118607809E+03  0.82082834124E+03  0.86125290455E+02 0.  0.
         11    1    3    3    0    0  0.45705543999E+03  0.49563064334E+03 -0.60151947979E+02  0.67688083640E+03  0.00000000000E+00 0.  1.
        -11    1    3    3    0    0  0.37661242987E+02  0.44527019540E+02 -0.32701400188E+02  0.66861096811E+02  0.00000000000E+00 0. -1.
          2    1    6    6  502    0 -0.46221680077E+03 -0.12000844626E+03 -0.26362428974E+03  0.54547608951E+03  0.00000000000E+00 0. -1.
          3    1    5    5  503    0  0.20069625012E+03 -0.29980269019E+03 -0.53268970035E+03  0.64336533534E+03  0.00000000000E+00 0. -1.
         -4    1    5    5    0  503 -0.76435874084E+01 -0.46945757147E+01 -0.16558508428E+02  0.18832091519E+02  0.00000000000E+00 0.  1.
         -1    1    6    6    0  502 -0.22555254491E+03 -0.11565195071E+03 -0.10756178835E+03  0.27535225173E+03  0.00000000000E+00 0.  1.
<mgrwt>
<rscale>  0 0.19828622E+04</rscale>
<asrwt>0</asrwt>
<pdfrwt beam="1">  1        1 0.24923503E+00 0.19828622E+04</pdfrwt>
<pdfrwt beam="2">  1       -1 0.93344620E-01 0.19828622E+04</pdfrwt>
<totfact> 0.55935985E+00</totfact>
</mgrwt>
</event>
<event>
12    1  0.1598876E-007  0.1440473E+04  0.7818608E-02  0.8925032E-01
          1   -1    0    0  501    0  0.00000000000E+00  0.00000000000E+00  0.70826641712E+03  0.70826641712E+03  0.00000000000E+00 0. -1.
         -1   -1    0    0    0  501 -0.00000000000E+00 -0.00000000000E+00 -0.73240913281E+03  0.73240913281E+03  0.00000000000E+00 0.  1.
         23    2    1    2    0    0 -0.84696564025E+02  0.36719292581E+03 -0.21425407960E+03  0.44303181591E+03  0.91478011346E+02 0.  0.
        254    2    1    2    0    0  0.84696564025E+02 -0.36719292581E+03  0.19011136391E+03  0.99764373403E+03  0.90396157918E+03 0.  0.
        -24    2    4    4    0    0 -0.14447193213E+03 -0.21445737206E+03  0.50425171655E+03  0.57240086208E+03  0.80677442119E+02 0.  0.
         24    2    4    4    0    0  0.22916849616E+03 -0.15273555375E+03 -0.31414035263E+03  0.42524287195E+03  0.79378775364E+02 0.  0.
         11    1    3    3    0    0  0.18968552466E+02  0.84878838084E+02 -0.44802089166E+02  0.97833789310E+02  0.00000000000E+00 0. -1.
        -11    1    3    3    0    0 -0.10366511649E+03  0.28231408772E+03 -0.16945199044E+03  0.34519802660E+03  0.00000000000E+00 0.  1.
          2    1    6    6  502    0  0.10577506558E+03 -0.27799775462E+02 -0.98832900602E+02  0.14740805356E+03  0.00000000000E+00 0. -1.
          1    1    5    5  503    0 -0.11811000670E+03 -0.17749093788E+03  0.33436287296E+03  0.39654953982E+03  0.00000000000E+00 0. -1.
         -2    1    5    5    0  503 -0.26361925438E+02 -0.36966434177E+02  0.16988884358E+03  0.17585132227E+03  0.00000000000E+00 0.  1.
         -1    1    6    6    0  502  0.12339343058E+03 -0.12493577829E+03 -0.21530745203E+03  0.27783481838E+03  0.00000000000E+00 0.  1.
<mgrwt>
<rscale>  0 0.14404732E+04</rscale>
<asrwt>0</asrwt>
<pdfrwt beam="1">  1        1 0.10896406E+00 0.14404732E+04</pdfrwt>
<pdfrwt beam="2">  1       -1 0.11267833E+00 0.14404732E+04</pdfrwt>
<totfact> 0.18754124E+01</totfact>
</mgrwt>
</event>
<event>
12    1  0.1598876E-007  0.3220852E+04  0.7818608E-02  0.8183332E-01
         -2   -1    0    0    0  501 -0.00000000000E+00  0.00000000000E+00  0.16482146461E+04  0.16482146461E+04  0.00000000000E+00 0.  1.
          2   -1    0    0  501    0  0.00000000000E+00 -0.00000000000E+00 -0.15735040027E+04  0.15735040027E+04  0.00000000000E+00 0. -1.
         23    2    1    2    0    0  0.12502150877E+04  0.78446337034E+03 -0.95809997721E+02  0.14818993274E+04  0.91790609011E+02 0.  0.
        254    2    1    2    0    0 -0.12502150877E+04 -0.78446337034E+03  0.17052064116E+03  0.17398193214E+04  0.90524772148E+03 0.  0.
        -24    2    4    4    0    0 -0.95723050064E+03 -0.94609185066E+03  0.28371536717E+03  0.13777065860E+04  0.78746468710E+02 0.  0.
         24    2    4    4    0    0 -0.29298458704E+03  0.16162848032E+03 -0.11319472601E+03  0.36211273540E+03  0.79679691554E+02 0.  0.
         13    1    3    3    0    0  0.65718416510E+03  0.37961927921E+03 -0.85852278005E+02  0.76378821518E+03  0.00000000000E+00 0. -1.
        -13    1    3    3    0    0  0.59303092257E+03  0.40484409113E+03 -0.99577197153E+01  0.71811111217E+03  0.00000000000E+00 0.  1.
          4    1    6    6  502    0 -0.41859872222E+02  0.39777825626E+02 -0.48921666818E+02  0.75682585832E+02  0.00000000000E+00 0. -1.
          1    1    5    5  503    0 -0.12341323781E+02 -0.94161254439E+01  0.12345231626E+02  0.19833719644E+02  0.00000000000E+00 0. -1.
         -2    1    5    5    0  503 -0.94488917685E+03 -0.93667572522E+03  0.27137013555E+03  0.13578728664E+04  0.00000000000E+00 0.  1.
         -3    1    6    6    0  502 -0.25112471482E+03  0.12185065470E+03 -0.64273059196E+02  0.28643014957E+03  0.00000000000E+00 0.  1.
<mgrwt>
<rscale>  0 0.32208523E+04</rscale>
<asrwt>0</asrwt>
<pdfrwt beam="1">  1        2 0.24207754E+00 0.32208523E+04</pdfrwt>
<pdfrwt beam="2">  1       -2 0.25357148E+00 0.32208523E+04</pdfrwt>
<totfact> 0.59265591E-01</totfact>
</mgrwt>
</event>
<event>
12    1  0.1598876E-007  0.3567626E+04  0.7818608E-02  0.8097948E-01
         -1   -1    0    0    0  501 -0.00000000000E+00  0.00000000000E+00  0.26580221035E+04  0.26580221035E+04  0.00000000000E+00 0.  1.
          1   -1    0    0  501    0  0.00000000000E+00 -0.00000000000E+00 -0.11971264181E+04  0.11971264181E+04  0.00000000000E+00 0. -1.
         23    2    1    2    0    0 -0.82294654197E+03 -0.39150599139E+03  0.21944220264E+04  0.23778680050E+04  0.90830980776E+02 0.  0.
        254    2    1    2    0    0  0.82294654197E+03  0.39150599139E+03 -0.73352634108E+03  0.14772805166E+04  0.90209693458E+03 0.  0.
        -24    2    4    4    0    0  0.15046169456E+03  0.52008158040E+03 -0.13367785791E+03  0.56349713109E+03  0.80843523219E+02 0.  0.
         24    2    4    4    0    0  0.67248484741E+03 -0.12857558902E+03 -0.59984848317E+03  0.91378338549E+03  0.80089454670E+02 0.  0.
         11    1    3    3    0    0 -0.16572192969E+03 -0.71313643725E+02  0.34809699992E+03  0.39207258908E+03  0.00000000000E+00 0. -1.
        -11    1    3    3    0    0 -0.65722461228E+03 -0.32019234766E+03  0.18463250265E+04  0.19857954159E+04  0.00000000000E+00 0.  1.
          2    1    6    6  502    0  0.37481567075E+03 -0.10768235810E+03 -0.31587721542E+03  0.50185724315E+03  0.00000000000E+00 0. -1.
          1    1    5    5  503    0  0.85676470090E+02  0.39508612871E+03 -0.12175640539E+03  0.42220626343E+03  0.00000000000E+00 0. -1.
         -2    1    5    5    0  503  0.64785224472E+02  0.12499545169E+03 -0.11921452518E+02  0.14129086766E+03  0.00000000000E+00 0.  1.
         -1    1    6    6    0  502  0.29766917666E+03 -0.20893230919E+02 -0.28397126775E+03  0.41192614234E+03  0.00000000000E+00 0.  1.
<mgrwt>
<rscale>  0 0.35676258E+04</rscale>
<asrwt>0</asrwt>
<pdfrwt beam="1">  1        1 0.18417330E+00 0.35676258E+04</pdfrwt>
<pdfrwt beam="2">  1       -1 0.40892648E+00 0.35676258E+04</pdfrwt>
<totfact> 0.54079939E-02</totfact>
</mgrwt>
</event>
<event>
12    1  0.1598876E-007  0.2335347E+04  0.7818608E-02  0.8464113E-01
         -2   -1    0    0    0  501 -0.00000000000E+00  0.00000000000E+00  0.81769484653E+03  0.81769484653E+03  0.00000000000E+00 0.  1.
          2   -1    0    0  501    0  0.00000000000E+00 -0.00000000000E+00 -0.16674457995E+04  0.16674457995E+04  0.00000000000E+00 0. -1.
         23    2    1    2    0    0  0.86959553543E+03  0.23905239793E+03 -0.81540333365E+03  0.12198124990E+04  0.98577340145E+02 0.  0.
        254    2    1    2    0    0 -0.86959553543E+03 -0.23905239793E+03 -0.34347619349E+02  0.12653281471E+04  0.88686702305E+03 0.  0.
        -24    2    4    4    0    0 -0.83081316872E+03 -0.42077795457E+03  0.20008576668E+03  0.95587333631E+03  0.79717706112E+02 0.  0.
         24    2    4    4    0    0 -0.38782366714E+02  0.18172555664E+03 -0.23443338603E+03  0.30945481074E+03  0.79215008065E+02 0.  0.
         13    1    3    3    0    0  0.39048073797E+03  0.67621905358E+02 -0.31634232869E+03  0.50707040708E+03  0.00000000000E+00 0.  1.
        -13    1    3    3    0    0  0.47911479746E+03  0.17143049257E+03 -0.49906100496E+03  0.71274209192E+03  0.00000000000E+00 0. -1.
          4    1    6    6  502    0 -0.17054777174E+02  0.15814247718E+03 -0.22588628207E+03  0.27626892865E+03  0.00000000000E+00 0. -1.
          1    1    5    5  503    0 -0.42578312756E+03 -0.23923214967E+03  0.13936058488E+03  0.50788253147E+03  0.00000000000E+00 0. -1.
         -2    1    5    5    0  503 -0.40503004116E+03 -0.18154580490E+03  0.60725181800E+02  0.44799080484E+03  0.00000000000E+00 0.  1.
         -3    1    6    6    0  502 -0.21727589540E+02  0.23583079457E+02 -0.85471039640E+01  0.33185882090E+02  0.00000000000E+00 0.  1.
<mgrwt>
<rscale>  0 0.23353474E+04</rscale>
<asrwt>0</asrwt>
<pdfrwt beam="1">  1        2 0.25653012E+00 0.23353474E+04</pdfrwt>
<pdfrwt beam="2">  1       -2 0.12579921E+00 0.23353474E+04</pdfrwt>
<totfact> 0.43622485E+00</totfact>
</mgrwt>
</event>
<event>
12    1  0.1598876E-007  0.1264946E+04  0.7818608E-02  0.9057834E-01
          1   -1    0    0  501    0  0.00000000000E+00  0.00000000000E+00  0.18816377232E+04  0.18816377232E+04  0.00000000000E+00 0. -1.
         -1   -1    0    0    0  501 -0.00000000000E+00 -0.00000000000E+00 -0.21259261934E+03  0.21259261934E+03  0.00000000000E+00 0.  1.
         23    2    1    2    0    0  0.20884496774E+03 -0.44739272481E+01  0.50485193985E+02  0.23321976586E+03  0.90589556789E+02 0.  0.
        254    2    1    2    0    0 -0.20884496774E+03  0.44739272481E+01  0.16185599098E+04  0.18610105766E+04  0.89442045374E+03 0.  0.
        -24    2    4    4    0    0  0.25531956599E+03 -0.18705972186E+03  0.10431314644E+04  0.10929880444E+04  0.79499640453E+02 0.  0.
         24    2    4    4    0    0 -0.46416453373E+03  0.19153364910E+03  0.57542844547E+03  0.76802253229E+03  0.81282600400E+02 0.  0.
         11    1    3    3    0    0  0.79780926695E+02  0.14230631265E+02  0.62377035442E+02  0.10226632721E+03  0.00000000000E+00 0. -1.
        -11    1    3    3    0    0  0.12906404105E+03 -0.18704558513E+02 -0.11891841457E+02  0.13095343865E+03  0.00000000000E+00 0.  1.
          2    1    6    6  502    0 -0.28846453096E+03  0.15672012227E+03  0.34603700365E+03  0.47698489519E+03  0.00000000000E+00 0. -1.
          3    1    5    5  503    0  0.16263095479E+03 -0.15787008726E+03  0.66476903510E+03  0.70234582788E+03  0.00000000000E+00 0. -1.
         -4    1    5    5    0  503  0.92688611204E+02 -0.29189634592E+02  0.37836242927E+03  0.39064221648E+03  0.00000000000E+00 0.  1.
         -1    1    6    6    0  502 -0.17570000278E+03  0.34813526836E+02  0.22939144182E+03  0.29103763710E+03  0.00000000000E+00 0.  1.
<mgrwt>
<rscale>  0 0.12649463E+04</rscale>
<asrwt>0</asrwt>
<pdfrwt beam="1">  1        1 0.28948272E+00 0.12649463E+04</pdfrwt>
<pdfrwt beam="2">  1       -1 0.32706558E-01 0.12649463E+04</pdfrwt>
<totfact> 0.30963204E+01</totfact>
</mgrwt>
</event>
<event>
12    1  0.1598876E-007  0.1507566E+04  0.7818608E-02  0.8879437E-01
         -2   -1    0    0    0  501 -0.00000000000E+00  0.00000000000E+00  0.11517194027E+04  0.11517194027E+04  0.00000000000E+00 0.  1.
          2   -1    0    0  501    0  0.00000000000E+00 -0.00000000000E+00 -0.49333959532E+03  0.49333959532E+03  0.00000000000E+00 0. -1.
         23    2    1    2    0    0 -0.58032070286E+02 -0.40773445585E+03  0.53424518694E+03  0.68099188644E+03  0.93364457715E+02 0.  0.
        254    2    1    2    0    0  0.58032070286E+02  0.40773445585E+03  0.12413462044E+03  0.96406711157E+03  0.86278669667E+03 0.  0.
        -24    2    4    4    0    0  0.17786154979E+03  0.19240445614E+03 -0.33732576741E+03  0.43448563477E+03  0.79592008568E+02 0.  0.
         24    2    4    4    0    0 -0.11982947951E+03  0.21532999971E+03  0.46146038785E+03  0.52958147680E+03  0.82369521612E+02 0.  0.
         13    1    3    3    0    0 -0.27053408147E+02 -0.24624999621E+02  0.63279152813E+02  0.73092603452E+02  0.00000000000E+00 0. -1.
        -13    1    3    3    0    0 -0.30978662139E+02 -0.38310945622E+03  0.47096603413E+03  0.60789928299E+03  0.00000000000E+00 0.  1.
          4    1    6    6  502    0 -0.96797861339E+02  0.11364025879E+03  0.21272222338E+03  0.25987435175E+03  0.00000000000E+00 0. -1.
          3    1    5    5  503    0  0.18034408764E+03  0.18769439089E+03 -0.30171264983E+03  0.39847672126E+03  0.00000000000E+00 0. -1.
         -4    1    5    5    0  503 -0.24825378462E+01  0.47100652507E+01 -0.35613117572E+02  0.36008913508E+02  0.00000000000E+00 0.  1.
         -3    1    6    6    0  502 -0.23031618166E+02  0.10168974092E+03  0.24873816447E+03  0.26970712506E+03  0.00000000000E+00 0.  1.
<mgrwt>
<rscale>  0 0.15075660E+04</rscale>
<asrwt>0</asrwt>
<pdfrwt beam="1">  1        2 0.75898400E-01 0.15075660E+04</pdfrwt>
<pdfrwt beam="2">  1       -2 0.17718760E+00 0.15075660E+04</pdfrwt>
<totfact> 0.11443445E+01</totfact>
</mgrwt>
</event>
<event>
12    1  0.1598876E-007  0.1192356E+04  0.7818608E-02  0.9119574E-01
         -2   -1    0    0    0  501 -0.00000000000E+00  0.00000000000E+00  0.28290577650E+03  0.28290577650E+03  0.00000000000E+00 0.  1.
          2   -1    0    0  501    0  0.00000000000E+00 -0.00000000000E+00 -0.12563479495E+04  0.12563479495E+04  0.00000000000E+00 0. -1.
         23    2    1    2    0    0 -0.23663914060E+03  0.56710100175E+02 -0.23035546513E+03  0.34749038607E+03  0.92042434603E+02 0.  0.
        254    2    1    2    0    0  0.23663914060E+03 -0.56710100175E+02 -0.74308670785E+03  0.11917633399E+04  0.89939306460E+03 0.  0.
        -24    2    4    4    0    0  0.48811311586E+03 -0.27686190095E+03 -0.33500685093E+03  0.65860969901E+03  0.81426159080E+02 0.  0.
         24    2    4    4    0    0 -0.25147397526E+03  0.22015180078E+03 -0.40807985692E+03  0.53315364091E+03  0.77573575203E+02 0.  0.
         13    1    3    3    0    0 -0.81709938862E+01 -0.39689540344E+01  0.77716410989E+01  0.11954753974E+02  0.00000000000E+00 0.  1.
        -13    1    3    3    0    0 -0.22846814671E+03  0.60679054209E+02 -0.23812710623E+03  0.33553563209E+03  0.00000000000E+00 0. -1.
          4    1    6    6  502    0 -0.15576171120E+03  0.15061969496E+03 -0.31642248449E+03  0.38349862043E+03  0.00000000000E+00 0. -1.
          3    1    5    5  503    0  0.31984100765E+03 -0.17015244152E+03 -0.17135966707E+03  0.40076708826E+03  0.00000000000E+00 0. -1.
         -4    1    5    5    0  503  0.16827210821E+03 -0.10670945943E+03 -0.16364718386E+03  0.25784261075E+03  0.00000000000E+00 0.  1.
         -3    1    6    6    0  502 -0.95712264061E+02  0.69532105824E+02 -0.91657372426E+02  0.14965502047E+03  0.00000000000E+00 0.  1.
<mgrwt>
<rscale>  0 0.11923558E+04</rscale>
<asrwt>0</asrwt>
<pdfrwt beam="1">  1        2 0.19328430E+00 0.11923558E+04</pdfrwt>
<pdfrwt beam="2">  1       -2 0.43523965E-01 0.11923558E+04</pdfrwt>
<totfact> 0.86611023E+01</totfact>
</mgrwt>
</event>
<event>
12    1  0.1598876E-007  0.1446134E+04  0.7818608E-02  0.8921085E-01
         -1   -1    0    0    0  501 -0.00000000000E+00  0.00000000000E+00  0.86565490680E+03  0.86565490680E+03  0.00000000000E+00 0.  1.
          1   -1    0    0  501    0  0.00000000000E+00 -0.00000000000E+00 -0.60396565284E+03  0.60396565284E+03  0.00000000000E+00 0. -1.
         23    2    1    2    0    0 -0.29921512035E+03 -0.25216950176E+03 -0.68783504624E+02  0.40795184819E+03  0.92598024103E+02 0.  0.
        254    2    1    2    0    0  0.29921512035E+03  0.25216950176E+03  0.33047275859E+03  0.10616687115E+04  0.92995110777E+03 0.  0.
        -24    2    4    4    0    0  0.58766087249E+02  0.43331464932E+03  0.53045656022E+03  0.69209489330E+03  0.79975875891E+02 0.  0.
         24    2    4    4    0    0  0.24044903310E+03 -0.18114514756E+03 -0.19998380164E+03  0.36957381815E+03  0.77213885679E+02 0.  0.
         13    1    3    3    0    0 -0.21179507329E+03 -0.12289392184E+03 -0.26704569441E+02  0.24631931131E+03  0.00000000000E+00 0. -1.
        -13    1    3    3    0    0 -0.87420047062E+02 -0.12927557992E+03 -0.42078935183E+02  0.16163253688E+03  0.00000000000E+00 0.  1.
          2    1    6    6  502    0  0.40487812384E+02  0.69927837146E+00 -0.24786921755E+02  0.47477820421E+02  0.00000000000E+00 0. -1.
          3    1    5    5  503    0 -0.16347571000E+02  0.42934101449E+02  0.41383150934E+02  0.61831588416E+02  0.00000000000E+00 0. -1.
         -4    1    5    5    0  503  0.75113658248E+02  0.39038054787E+03  0.48907340929E+03  0.63026330489E+03  0.00000000000E+00 0.  1.
         -1    1    6    6    0  502  0.19996122072E+03 -0.18184442593E+03 -0.17519687988E+03  0.32209599773E+03  0.00000000000E+00 0.  1.
<mgrwt>
<rscale>  0 0.14461339E+04</rscale>
<asrwt>0</asrwt>
<pdfrwt beam="1">  1        1 0.92917792E-01 0.14461339E+04</pdfrwt>
<pdfrwt beam="2">  1       -1 0.13317768E+00 0.14461339E+04</pdfrwt>
<totfact> 0.15722668E+01</totfact>
</mgrwt>
</event>
<event>
12    1  0.1598876E-007  0.1994577E+04  0.7818608E-02  0.8609160E-01
         -1   -1    0    0    0  501 -0.00000000000E+00  0.00000000000E+00  0.83900553285E+03  0.83900553285E+03  0.00000000000E+00 0.  1.
          1   -1    0    0  501    0  0.00000000000E+00 -0.00000000000E+00 -0.11854322500E+04  0.11854322500E+04  0.00000000000E+00 0. -1.
         23    2    1    2    0    0  0.54929386444E+03 -0.19476459885E+03 -0.72704971350E+03  0.93634053369E+03  0.92061450429E+02 0.  0.
        254    2    1    2    0    0 -0.54929386444E+03  0.19476459885E+03  0.38062299640E+03  0.10880972491E+04  0.83631618402E+03 0.  0.
        -24    2    4    4    0    0 -0.16216286125E+03 -0.17453880618E+03 -0.18009212016E+03  0.30886261928E+03  0.78755046917E+02 0.  0.
         24    2    4    4    0    0 -0.38713100319E+03  0.36930340503E+03  0.56071511656E+03  0.77923462983E+03  0.80930512111E+02 0.  0.
         11    1    3    3    0    0  0.25552211515E+03 -0.92078145786E+02 -0.26657809650E+03  0.38057038481E+03  0.00000000000E+00 0. -1.
        -11    1    3    3    0    0  0.29377174930E+03 -0.10268645307E+03 -0.46047161700E+03  0.55577014888E+03  0.00000000000E+00 0.  1.
          4    1    6    6  502    0 -0.13085572392E+03  0.77810122797E+02  0.13995042161E+03  0.20679399460E+03  0.00000000000E+00 0. -1.
          3    1    5    5  503    0 -0.27668369910E+01 -0.43323676557E+02 -0.42536341830E+02  0.60777764961E+02  0.00000000000E+00 0. -1.
         -4    1    5    5    0  503 -0.15939602426E+03 -0.13121512962E+03 -0.13755577833E+03  0.24808485432E+03  0.00000000000E+00 0.  1.
         -3    1    6    6    0  502 -0.25627527927E+03  0.29149328223E+03  0.42076469494E+03  0.57244063523E+03  0.00000000000E+00 0.  1.
<mgrwt>
<rscale>  0 0.19945769E+04</rscale>
<asrwt>0</asrwt>
<pdfrwt beam="1">  1        1 0.18237419E+00 0.19945769E+04</pdfrwt>
<pdfrwt beam="2">  1       -1 0.12907777E+00 0.19945769E+04</pdfrwt>
<totfact> 0.52488017E+00</totfact>
</mgrwt>
</event>
<event>
12    1  0.1598876E-007  0.2383992E+04  0.7818608E-02  0.8445521E-01
         -1   -1    0    0    0  501 -0.00000000000E+00  0.00000000000E+00  0.29450172619E+04  0.29450172619E+04  0.00000000000E+00 0.  1.
          1   -1    0    0  501    0  0.00000000000E+00 -0.00000000000E+00 -0.48246059024E+03  0.48246059024E+03  0.00000000000E+00 0. -1.
         23    2    1    2    0    0 -0.66499346490E+02 -0.99879257984E+03  0.77703995336E+03  0.12703355752E+04  0.89177372493E+02 0.  0.
        254    2    1    2    0    0  0.66499346490E+02  0.99879257984E+03  0.16855167183E+04  0.21571422769E+04  0.90015966075E+03 0.  0.
        -24    2    4    4    0    0  0.26115451906E+03  0.64833114872E+03  0.15887958464E+04  0.17375898664E+04  0.80070848853E+02 0.  0.
         24    2    4    4    0    0 -0.19465517257E+03  0.35046143112E+03  0.96720871838E+02  0.41955241059E+03  0.77171544453E+02 0.  0.
         11    1    3    3    0    0 -0.23609727031E+02 -0.40130966962E+03  0.36778191687E+03  0.54485815449E+03  0.00000000000E+00 0. -1.
        -11    1    3    3    0    0 -0.42889619459E+02 -0.59748291022E+03  0.40925803649E+03  0.72547742066E+03  0.00000000000E+00 0.  1.
          4    1    6    6  502    0 -0.16888746256E+03  0.32195675769E+03  0.10841890274E+03  0.37938606630E+03  0.00000000000E+00 0. -1.
          1    1    5    5  503    0  0.22786324236E+03  0.48957022210E+03  0.12648891382E+04  0.13753345744E+04  0.00000000000E+00 0. -1.
         -2    1    5    5    0  503  0.33291276698E+02  0.15876092662E+03  0.32390670825E+03  0.36225529199E+03  0.00000000000E+00 0.  1.
         -3    1    6    6    0  502 -0.25767710008E+02  0.28504673432E+02 -0.11698030907E+02  0.40166344290E+02  0.00000000000E+00 0.  1.
<mgrwt>
<rscale>  0 0.23839923E+04</rscale>
<asrwt>0</asrwt>
<pdfrwt beam="1">  1        1 0.74224708E-01 0.23839923E+04</pdfrwt>
<pdfrwt beam="2">  1       -1 0.45307957E+00 0.23839923E+04</pdfrwt>
<totfact> 0.12864629E-01</totfact>
</mgrwt>
</event>
<event>
12    1  0.1598876E-007  0.1551809E+04  0.7818608E-02  0.8850713E-01
          1   -1    0    0  501    0  0.00000000000E+00  0.00000000000E+00  0.74513364007E+03  0.74513364007E+03  0.00000000000E+00 0. -1.
         -1   -1    0    0    0  501 -0.00000000000E+00 -0.00000000000E+00 -0.80794601754E+03  0.80794601754E+03  0.00000000000E+00 0.  1.
         23    2    1    2    0    0  0.52921639468E+02  0.29446801637E+03  0.39158676704E+03  0.50177771928E+03  0.94491115214E+02 0.  0.
        254    2    1    2    0    0 -0.52921639468E+02 -0.29446801637E+03 -0.45439914452E+03  0.10513019383E+04  0.89958049690E+03 0.  0.
        -24    2    4    4    0    0 -0.38515564271E+03 -0.16664859884E+03  0.49150518717E+02  0.42974834174E+03  0.78429835678E+02 0.  0.
         24    2    4    4    0    0  0.33223400325E+03 -0.12781941753E+03 -0.50354966323E+03  0.62155359659E+03  0.77777719679E+02 0.  0.
         11    1    3    3    0    0  0.61202542838E+02  0.16375151303E+03  0.16685460371E+03  0.24166250857E+03  0.00000000000E+00 0. -1.
        -11    1    3    3    0    0 -0.82809033704E+01  0.13071650334E+03  0.22473216333E+03  0.26011521071E+03  0.00000000000E+00 0.  1.
          2    1    6    6  502    0  0.24727517277E+03 -0.11833599767E+03 -0.42323052979E+03  0.50425440083E+03  0.00000000000E+00 0. -1.
          1    1    5    5  503    0 -0.23445951685E+03 -0.89635227015E+02  0.66381578950E+02  0.25963869701E+03  0.00000000000E+00 0. -1.
         -2    1    5    5    0  503 -0.15069612587E+03 -0.77013371826E+02 -0.17231060233E+02  0.17010964472E+03  0.00000000000E+00 0.  1.
         -1    1    6    6    0  502  0.84958830473E+02 -0.94834198650E+01 -0.80319133446E+02  0.11729919576E+03  0.00000000000E+00 0.  1.
<mgrwt>
<rscale>  0 0.15518090E+04</rscale>
<asrwt>0</asrwt>
<pdfrwt beam="1">  1        1 0.11463595E+00 0.15518090E+04</pdfrwt>
<pdfrwt beam="2">  1       -1 0.12429939E+00 0.15518090E+04</pdfrwt>
<totfact> 0.13530316E+01</totfact>
</mgrwt>
</event>
<event>
12    1  0.1598876E-007  0.1731923E+04  0.7818608E-02  0.8743364E-01
          2   -1    0    0  501    0  0.00000000000E+00  0.00000000000E+00  0.52624866809E+03  0.52624866809E+03  0.00000000000E+00 0. -1.
         -2   -1    0    0    0  501 -0.00000000000E+00 -0.00000000000E+00 -0.14249707385E+04  0.14249707385E+04  0.00000000000E+00 0.  1.
         23    2    1    2    0    0 -0.41927122684E+03 -0.38365900622E+03 -0.35533564708E+02  0.57701432326E+03  0.93275400371E+02 0.  0.
        254    2    1    2    0    0  0.41927122684E+03  0.38365900622E+03 -0.86318850569E+03  0.13742050833E+04  0.90573871503E+03 0.  0.
        -24    2    4    4    0    0  0.98921265739E+02 -0.12763524520E+03 -0.72884160162E+03  0.75074044119E+03  0.79529599261E+02 0.  0.
         24    2    4    4    0    0  0.32034996110E+03  0.51129425143E+03 -0.13434690407E+03  0.62346464211E+03  0.81321339183E+02 0.  0.
         11    1    3    3    0    0 -0.31523969081E+03 -0.25662210052E+03  0.10037151487E+02  0.40661002146E+03  0.00000000000E+00 0. -1.
        -11    1    3    3    0    0 -0.10403153603E+03 -0.12703690570E+03 -0.45570716195E+02  0.17040430180E+03  0.00000000000E+00 0.  1.
          2    1    6    6  502    0  0.71329441140E+02  0.12966602059E+03  0.13674895719E+01  0.14799674353E+03  0.00000000000E+00 0. -1.
          3    1    5    5  503    0  0.70231462593E+01  0.77301280771E+01 -0.11483525064E+03  0.11530921148E+03  0.00000000000E+00 0. -1.
         -4    1    5    5    0  503  0.91898119480E+02 -0.13536537328E+03 -0.61400635098E+03  0.63543122971E+03  0.00000000000E+00 0.  1.
         -1    1    6    6    0  502  0.24902051996E+03  0.38162823084E+03 -0.13571439364E+03  0.47546789858E+03  0.00000000000E+00 0.  1.
<mgrwt>
<rscale>  0 0.17319226E+04</rscale>
<asrwt>0</asrwt>
<pdfrwt beam="1">  1        2 0.80961335E-01 0.17319226E+04</pdfrwt>
<pdfrwt beam="2">  1       -2 0.21922626E+00 0.17319226E+04</pdfrwt>
<totfact> 0.54989906E+00</totfact>
</mgrwt>
</event>
<event>
12    1  0.1598876E-007  0.1759118E+04  0.7818608E-02  0.8728348E-01
          2   -1    0    0  501    0  0.00000000000E+00  0.00000000000E+00  0.85584720171E+03  0.85584720171E+03  0.00000000000E+00 0. -1.
         -2   -1    0    0    0  501 -0.00000000000E+00 -0.00000000000E+00 -0.90392723723E+03  0.90392723723E+03  0.00000000000E+00 0.  1.
         23    2    1    2    0    0 -0.63642472245E+03 -0.12059011074E+03  0.69332372029E+02  0.65787026994E+03  0.91694667794E+02 0.  0.
        254    2    1    2    0    0  0.63642472245E+03  0.12059011074E+03 -0.11741240755E+03  0.11019041690E+04  0.88364513356E+03 0.  0.
        -24    2    4    4    0    0  0.60694207614E+02 -0.24453383395E+03  0.21347350340E+03  0.33999058648E+03  0.80883122229E+02 0.  0.
         24    2    4    4    0    0  0.57573051484E+03  0.36512394469E+03 -0.33088591095E+03  0.76191358252E+03  0.79029744203E+02 0.  0.
         11    1    3    3    0    0 -0.70204141278E+02 -0.15267093055E+02 -0.21103387363E+02  0.74880294745E+02  0.00000000000E+00 0.  1.
        -11    1    3    3    0    0 -0.56622058118E+03 -0.10532301768E+03  0.90435759392E+02  0.58298997519E+03  0.00000000000E+00 0. -1.
          4    1    6    6  502    0  0.49123152405E+02  0.19209899957E+02 -0.47799981140E+02  0.71182459606E+02  0.00000000000E+00 0. -1.
          1    1    5    5  503    0 -0.14666321021E+02 -0.10503156134E+03  0.87083334292E+02  0.13722331056E+03  0.00000000000E+00 0. -1.
         -2    1    5    5    0  503  0.75360528635E+02 -0.13950227261E+03  0.12639016911E+03  0.20276727593E+03  0.00000000000E+00 0.  1.
         -3    1    6    6    0  502  0.52660736243E+03  0.34591404473E+03 -0.28308592981E+03  0.69073112292E+03  0.00000000000E+00 0.  1.
<mgrwt>
<rscale>  0 0.17591175E+04</rscale>
<asrwt>0</asrwt>
<pdfrwt beam="1">  1        2 0.13166880E+00 0.17591175E+04</pdfrwt>
<pdfrwt beam="2">  1       -2 0.13906573E+00 0.17591175E+04</pdfrwt>
<totfact> 0.10881119E+01</totfact>
</mgrwt>
</event>
<event>
12    1  0.2313851E-007  0.2309433E+04  0.7818608E-02  0.8474211E-01
         -2   -1    0    0    0  501 -0.00000000000E+00  0.00000000000E+00  0.96188414181E+03  0.96188414181E+03  0.00000000000E+00 0.  1.
          2   -1    0    0  501    0  0.00000000000E+00 -0.00000000000E+00 -0.13862065025E+04  0.13862065025E+04  0.00000000000E+00 0. -1.
         23    2    1    2    0    0  0.38212966945E+03 -0.76470799412E+03  0.19998696021E+03  0.88367456678E+03  0.10042188593E+03 0.  0.
        254    2    1    2    0    0 -0.38212966945E+03  0.76470799412E+03 -0.62430932094E+03  0.14644160776E+04  0.10119046000E+04 0.  0.
        -24    2    4    4    0    0 -0.65944140751E+03  0.78093867462E+03 -0.41123783845E+03  0.11052116255E+04  0.87452809762E+02 0.  0.
         24    2    4    4    0    0  0.27731173807E+03 -0.16230680490E+02 -0.21307148248E+03  0.35920445204E+03  0.80393697896E+02 0.  0.
         11    1    3    3    0    0  0.13453033668E+02 -0.61800779069E+01  0.13255033453E+02  0.19871421429E+02  0.00000000000E+00 0. -1.
        -11    1    3    3    0    0  0.36867663578E+03 -0.75852791622E+03  0.18673192676E+03  0.86380314535E+03  0.00000000000E+00 0.  1.
          4    1    6    6  502    0  0.58604899465E+02  0.16371254639E+02 -0.82145763635E+02  0.10222758289E+03  0.00000000000E+00 0. -1.
          3    1    5    5  503    0 -0.10757010646E+03  0.14468797749E+03 -0.39458296226E+02  0.18456136046E+03  0.00000000000E+00 0. -1.
         -4    1    5    5    0  503 -0.55187130106E+03  0.63625069713E+03 -0.37177954223E+03  0.92065026506E+03  0.00000000000E+00 0.  1.
         -3    1    6    6    0  502  0.21870683860E+03 -0.32601935130E+02 -0.13092571885E+03  0.25697686916E+03  0.00000000000E+00 0.  1.
<mgrwt>
<rscale>  0 0.23094329E+04</rscale>
<asrwt>0</asrwt>
<pdfrwt beam="1">  1        2 0.21326254E+00 0.23094329E+04</pdfrwt>
<pdfrwt beam="2">  1       -2 0.14798218E+00 0.23094329E+04</pdfrwt>
<totfact> 0.41467179E+00</totfact>
</mgrwt>
</event>
<event>
12    1  0.1598876E-007  0.1449069E+04  0.7818608E-02  0.8919046E-01
          2   -1    0    0  501    0  0.00000000000E+00  0.00000000000E+00  0.10350982482E+04  0.10350982482E+04  0.00000000000E+00 0. -1.
         -2   -1    0    0    0  501 -0.00000000000E+00 -0.00000000000E+00 -0.50715005654E+03  0.50715005654E+03  0.00000000000E+00 0.  1.
         23    2    1    2    0    0 -0.42843220725E+03  0.33335510847E+02  0.90229325011E+02  0.44760448880E+03  0.86850646580E+02 0.  0.
        254    2    1    2    0    0  0.42843220725E+03 -0.33335510847E+02  0.43771886662E+03  0.10946438159E+04  0.90663215530E+03 0.  0.
        -24    2    4    4    0    0  0.13983685364E+03  0.38089705394E+03 -0.12967419432E+02  0.41354534715E+03  0.78833297820E+02 0.  0.
         24    2    4    4    0    0  0.28859535360E+03 -0.41423256479E+03  0.45068628605E+03  0.68109846875E+03  0.76818616554E+02 0.  0.
         11    1    3    3    0    0 -0.34556977343E+03  0.29115288452E+02  0.36392326190E+02  0.34869839365E+03  0.00000000000E+00 0. -1.
        -11    1    3    3    0    0 -0.82862433814E+02  0.42202223941E+01  0.53836998820E+02  0.98906095144E+02  0.00000000000E+00 0.  1.
          2    1    6    6  502    0  0.22052259456E+03 -0.33613045515E+03  0.31696537902E+03  0.51193842315E+03  0.00000000000E+00 0. -1.
          3    1    5    5  503    0  0.14724839781E+03  0.36310130987E+03 -0.21613271560E+02  0.39241787089E+03  0.00000000000E+00 0. -1.
         -4    1    5    5    0  503 -0.74115441708E+01  0.17795744077E+02  0.86458521280E+01  0.21127476263E+02  0.00000000000E+00 0.  1.
         -1    1    6    6    0  502  0.68072759040E+02 -0.78102109637E+02  0.13372090703E+03  0.16916004561E+03  0.00000000000E+00 0.  1.
<mgrwt>
<rscale>  0 0.14490689E+04</rscale>
<asrwt>0</asrwt>
<pdfrwt beam="1">  1        2 0.15924588E+00 0.14490689E+04</pdfrwt>
<pdfrwt beam="2">  1       -2 0.78023085E-01 0.14490689E+04</pdfrwt>
<totfact> 0.33930167E+01</totfact>
</mgrwt>
</event>
<event>
12    1  0.1598876E-007  0.1573090E+04  0.7818608E-02  0.8837252E-01
         -1   -1    0    0    0  501 -0.00000000000E+00  0.00000000000E+00  0.28448337450E+03  0.28448337450E+03  0.00000000000E+00 0.  1.
          1   -1    0    0  501    0  0.00000000000E+00 -0.00000000000E+00 -0.21746557709E+04  0.21746557709E+04  0.00000000000E+00 0. -1.
         23    2    1    2    0    0  0.12455315666E+03  0.18515265057E+03 -0.13809302986E+04  0.14018607826E+04  0.91924812852E+02 0.  0.
        254    2    1    2    0    0 -0.12455315666E+03 -0.18515265057E+03 -0.50924209777E+03  0.10572783628E+04  0.89928584415E+03 0.  0.
        -24    2    4    4    0    0 -0.25201040355E+03  0.22280080865E+03  0.49059502236E+02  0.34968034867E+03  0.81976018791E+02 0.  0.
         24    2    4    4    0    0  0.12745724689E+03 -0.40795345922E+03 -0.55830160001E+03  0.70759801414E+03  0.79516654642E+02 0.  0.
         11    1    3    3    0    0  0.91628730774E+02  0.64226894902E+02 -0.78138994130E+03  0.78936123461E+03  0.00000000000E+00 0. -1.
        -11    1    3    3    0    0  0.32924425887E+02  0.12092575567E+03 -0.59954035733E+03  0.61249954797E+03  0.00000000000E+00 0.  1.
          4    1    6    6  502    0  0.70225577675E+02 -0.32734025244E+03 -0.45122792315E+03  0.56186289364E+03  0.00000000000E+00 0. -1.
          1    1    5    5  503    0 -0.12645409652E+03  0.16417875535E+03  0.37845722148E+02  0.21065991768E+03  0.00000000000E+00 0. -1.
         -2    1    5    5    0  503 -0.12555630703E+03  0.58622053302E+02  0.11213780088E+02  0.13902043099E+03  0.00000000000E+00 0.  1.
         -3    1    6    6    0  502  0.57231669216E+02 -0.80613206779E+02 -0.10707367686E+03  0.14573512049E+03  0.00000000000E+00 0.  1.
<mgrwt>
<rscale>  0 0.15730905E+04</rscale>
<asrwt>0</asrwt>
<pdfrwt beam="1">  1        1 0.33456243E+00 0.15730905E+04</pdfrwt>
<pdfrwt beam="2">  1       -1 0.43766673E-01 0.15730905E+04</pdfrwt>
<totfact> 0.11255154E+01</totfact>
</mgrwt>
</event>
<event>
12    1  0.2002646E-007  0.2158226E+04  0.7818608E-02  0.8536020E-01
          1   -1    0    0  501    0  0.00000000000E+00  0.00000000000E+00  0.24660542711E+04  0.24660542711E+04  0.00000000000E+00 0. -1.
         -1   -1    0    0    0  501 -0.00000000000E+00 -0.00000000000E+00 -0.47220549784E+03  0.47220549784E+03  0.00000000000E+00 0.  1.
         23    2    1    2    0    0 -0.33111645531E+03 -0.15814952351E+03 -0.27907403418E+03  0.46996167025E+03  0.91281302550E+02 0.  0.
        254    2    1    2    0    0  0.33111645531E+03  0.15814952351E+03  0.22729228074E+04  0.24682980987E+04  0.88975729084E+03 0.  0.
        -24    2    4    4    0    0  0.19723046057E+03 -0.35102439101E+03  0.12399345106E+04  0.13060420962E+04  0.78679023738E+02 0.  0.
         24    2    4    4    0    0  0.13388599474E+03  0.50917391451E+03  0.10329882968E+04  0.11622560025E+04  0.81182874517E+02 0.  0.
         11    1    3    3    0    0 -0.25148180810E+02  0.62198572659E+01 -0.26039700700E+01  0.26036479842E+02  0.00000000000E+00 0. -1.
        -11    1    3    3    0    0 -0.30596827450E+03 -0.16436938077E+03 -0.27647006411E+03  0.44392519041E+03  0.00000000000E+00 0.  1.
          2    1    6    6  502    0  0.16799721559E+02  0.54038243661E+02  0.17592608340E+03  0.18480354229E+03  0.00000000000E+00 0. -1.
          1    1    5    5  503    0  0.25746538238E+02 -0.26791624787E+02  0.61582152150E+02  0.71923826744E+02  0.00000000000E+00 0. -1.
         -2    1    5    5    0  503  0.17148392233E+03 -0.32423276622E+03  0.11783523585E+04  0.12341182694E+04  0.00000000000E+00 0.  1.
         -1    1    6    6    0  502  0.11708627318E+03  0.45513567085E+03  0.85706221340E+03  0.97745246017E+03  0.00000000000E+00 0.  1.
<mgrwt>
<rscale>  0 0.21582256E+04</rscale>
<asrwt>0</asrwt>
<pdfrwt beam="1">  1        1 0.37939296E+00 0.21582256E+04</pdfrwt>
<pdfrwt beam="2">  1       -1 0.72647001E-01 0.21582256E+04</pdfrwt>
<totfact> 0.25008949E+00</totfact>
</mgrwt>
</event>
<event>
12    1  0.1598876E-007  0.1674705E+04  0.7818608E-02  0.8775924E-01
          2   -1    0    0  501    0  0.00000000000E+00  0.00000000000E+00  0.17243730970E+04  0.17243730970E+04  0.00000000000E+00 0. -1.
         -2   -1    0    0    0  501 -0.00000000000E+00 -0.00000000000E+00 -0.40661692541E+03  0.40661692541E+03  0.00000000000E+00 0.  1.
         23    2    1    2    0    0 -0.19800579436E+03  0.54803082424E+03  0.32759691979E+03  0.67416066078E+03  0.87342863253E+02 0.  0.
        254    2    1    2    0    0  0.19800579436E+03 -0.54803082424E+03  0.99015925175E+03  0.14568293616E+04  0.89576356594E+03 0.  0.
        -24    2    4    4    0    0 -0.29135238246E+03 -0.42775697289E+03  0.68527902669E+03  0.86240476527E+03  0.79198460335E+02 0.  0.
         24    2    4    4    0    0  0.48935817682E+03 -0.12027385134E+03  0.30488022506E+03  0.59442459632E+03  0.80320760347E+02 0.  0.
         13    1    3    3    0    0 -0.24414471649E+02  0.41753924122E+02  0.55950939793E+02  0.73959206792E+02  0.00000000000E+00 0. -1.
        -13    1    3    3    0    0 -0.17359132272E+03  0.50627690012E+03  0.27164598000E+03  0.60020145398E+03  0.00000000000E+00 0.  1.
          4    1    6    6  502    0  0.11608727309E+03 -0.23191407586E+02  0.11294262785E+03  0.16361581080E+03  0.00000000000E+00 0. -1.
          3    1    5    5  503    0 -0.48469529823E+01 -0.43309284469E+02  0.68481127951E+02  0.81171743605E+02  0.00000000000E+00 0. -1.
         -4    1    5    5    0  503 -0.28650542948E+03 -0.38444768843E+03  0.61679789874E+03  0.78123302167E+03  0.00000000000E+00 0.  1.
         -3    1    6    6    0  502  0.37327090373E+03 -0.97082443758E+02  0.19193759721E+03  0.43080878552E+03  0.00000000000E+00 0.  1.
<mgrwt>
<rscale>  0 0.16747051E+04</rscale>
<asrwt>0</asrwt>
<pdfrwt beam="1">  1        2 0.26528816E+00 0.16747051E+04</pdfrwt>
<pdfrwt beam="2">  1       -2 0.62556451E-01 0.16747051E+04</pdfrwt>
<totfact> 0.21476882E+01</totfact>
</mgrwt>
</event>
<event>
12    1  0.1598876E-007  0.1101779E+04  0.7818608E-02  0.9203460E-01
         -1   -1    0    0    0  501 -0.00000000000E+00  0.00000000000E+00  0.31292889209E+03  0.31292889209E+03  0.00000000000E+00 0.  1.
          1   -1    0    0  501    0  0.00000000000E+00 -0.00000000000E+00 -0.96980212013E+03  0.96980212013E+03  0.00000000000E+00 0. -1.
         23    2    1    2    0    0 -0.44912981094E+02 -0.13447951925E+02  0.67091282692E+02  0.12187163748E+03  0.90296359435E+02 0.  0.
        254    2    1    2    0    0  0.44912981094E+02  0.13447951925E+02 -0.72396451073E+03  0.11608593747E+04  0.90624050441E+03 0.  0.
        -24    2    4    4    0    0  0.39421466752E+03 -0.23961275753E+03 -0.37941398583E+03  0.60264412679E+03  0.80034325447E+02 0.  0.
         24    2    4    4    0    0 -0.34930168643E+03  0.25306070945E+03 -0.34455052491E+03  0.55821524795E+03  0.82691039568E+02 0.  0.
         11    1    3    3    0    0 -0.61737046176E+02 -0.26501894963E+02  0.73552806856E+02  0.99618415484E+02  0.00000000000E+00 0.  1.
        -11    1    3    3    0    0  0.16824065081E+02  0.13053943038E+02 -0.64615241639E+01  0.22253221997E+02  0.00000000000E+00 0. -1.
          4    1    6    6  502    0 -0.32714061316E+03  0.25290565298E+03 -0.30851563768E+03  0.51591098921E+03  0.00000000000E+00 0. -1.
          1    1    5    5  503    0  0.32358526823E+03 -0.22632921921E+03 -0.33741193352E+03  0.51940268980E+03  0.00000000000E+00 0. -1.
         -2    1    5    5    0  503  0.70629399290E+02 -0.13283538319E+02 -0.42002052304E+02  0.83241436990E+02  0.00000000000E+00 0.  1.
         -3    1    6    6    0  502 -0.22161073267E+02  0.15505646918E+00 -0.36034887223E+02  0.42304258746E+02  0.00000000000E+00 0.  1.
<mgrwt>
<rscale>  0 0.11017787E+04</rscale>
<asrwt>0</asrwt>
<pdfrwt beam="1">  1        1 0.14920032E+00 0.11017787E+04</pdfrwt>
<pdfrwt beam="2">  1       -1 0.48142907E-01 0.11017787E+04</pdfrwt>
<totfact> 0.68658678E+01</totfact>
</mgrwt>
</event>
<event>
12    1  0.1598876E-007  0.1783747E+04  0.7818608E-02  0.8714991E-01
          2   -1    0    0  501    0  0.00000000000E+00  0.00000000000E+00  0.11973312277E+04  0.11973312277E+04  0.00000000000E+00 0. -1.
         -2   -1    0    0    0  501 -0.00000000000E+00 -0.00000000000E+00 -0.66434299571E+03  0.66434299571E+03  0.00000000000E+00 0.  1.
         23    2    1    2    0    0 -0.46424703095E+03 -0.45325023803E+03  0.61974308784E+02  0.65823370826E+03  0.92031058446E+02 0.  0.
        254    2    1    2    0    0  0.46424703095E+03  0.45325023803E+03  0.47101392322E+03  0.12034405152E+04  0.89747082050E+03 0.  0.
        -24    2    4    4    0    0 -0.55943315131E+02 -0.99961237492E+02  0.41547802293E+03  0.43818584921E+03  0.79138785675E+02 0.  0.
         24    2    4    4    0    0  0.52019034608E+03  0.55321147552E+03  0.55535900290E+02  0.76525466596E+03  0.76743304228E+02 0.  0.
         11    1    3    3    0    0 -0.25808183648E+03 -0.28923377395E+03  0.19171968391E+00  0.38763700426E+03  0.00000000000E+00 0. -1.
        -11    1    3    3    0    0 -0.20616519447E+03 -0.16401646409E+03  0.61782589100E+02  0.27059670400E+03  0.00000000000E+00 0.  1.
          4    1    6    6  502    0  0.37746718735E+03  0.44837944131E+03  0.45942618410E+02  0.58790843258E+03  0.00000000000E+00 0. -1.
          1    1    5    5  503    0 -0.43085797559E+02 -0.11235557300E+03  0.37756894924E+03  0.39628079964E+03  0.00000000000E+00 0. -1.
         -2    1    5    5    0  503 -0.12857517572E+02  0.12394335510E+02  0.37909073692E+02  0.41905049564E+02  0.00000000000E+00 0.  1.
         -3    1    6    6    0  502  0.14272315873E+03  0.10483203421E+03  0.95932818801E+01  0.17734623338E+03  0.00000000000E+00 0.  1.
<mgrwt>
<rscale>  0 0.17837473E+04</rscale>
<asrwt>0</asrwt>
<pdfrwt beam="1">  1        2 0.18420480E+00 0.17837473E+04</pdfrwt>
<pdfrwt beam="2">  1       -2 0.10220661E+00 0.17837473E+04</pdfrwt>
<totfact> 0.14094002E+01</totfact>
</mgrwt>
</event>
<event>
12    1  0.1598876E-007  0.1518921E+04  0.7818608E-02  0.8871967E-01
          2   -1    0    0  501    0  0.00000000000E+00  0.00000000000E+00  0.40111911293E+03  0.40111911293E+03  0.00000000000E+00 0. -1.
         -2   -1    0    0    0  501 -0.00000000000E+00 -0.00000000000E+00 -0.14379281153E+04  0.14379281153E+04  0.00000000000E+00 0.  1.
         23    2    1    2    0    0 -0.43551511385E+03 -0.13690791103E+02 -0.60090180655E+03  0.74787026054E+03  0.91466350817E+02 0.  0.
        254    2    1    2    0    0  0.43551511385E+03  0.13690791103E+02 -0.43590719578E+03  0.10911769676E+04  0.90043947006E+03 0.  0.
        -24    2    4    4    0    0  0.27217397600E+03 -0.42321548682E+03 -0.32668490452E+03  0.60563867017E+03  0.82976806803E+02 0.  0.
         24    2    4    4    0    0  0.16334113785E+03  0.43690627792E+03 -0.10922229126E+03  0.48553829748E+03  0.79060144242E+02 0.  0.
         13    1    3    3    0    0 -0.43273463120E+03 -0.25103365873E+02 -0.58611108055E+03  0.72898260525E+03  0.00000000000E+00 0.  1.
        -13    1    3    3    0    0 -0.27804826525E+01  0.11412574771E+02 -0.14790726001E+02  0.18887655289E+02  0.00000000000E+00 0. -1.
          2    1    6    6  502    0 -0.32766526939E+01  0.23647382235E+02  0.73127255958E+01  0.24968201679E+02  0.00000000000E+00 0. -1.
          3    1    5    5  503    0  0.74294046894E+02 -0.67983087030E+02 -0.41228020776E+02  0.10881661281E+03  0.00000000000E+00 0. -1.
         -4    1    5    5    0  503  0.19787992911E+03 -0.35523239979E+03 -0.28545688374E+03  0.49682205736E+03  0.00000000000E+00 0.  1.
         -1    1    6    6    0  502  0.16661779054E+03  0.41325889569E+03 -0.11653501686E+03  0.46057009580E+03  0.00000000000E+00 0.  1.
<mgrwt>
<rscale>  0 0.15189213E+04</rscale>
<asrwt>0</asrwt>
<pdfrwt beam="1">  1        2 0.61710633E-01 0.15189213E+04</pdfrwt>
<pdfrwt beam="2">  1       -2 0.22121971E+00 0.15189213E+04</pdfrwt>
<totfact> 0.74213380E+00</totfact>
</mgrwt>
</event>
<event>
12    1  0.1598876E-007  0.1406233E+04  0.7818608E-02  0.8949319E-01
         -1   -1    0    0    0  501 -0.00000000000E+00  0.00000000000E+00  0.46556373754E+03  0.46556373754E+03  0.00000000000E+00 0.  1.
          1   -1    0    0  501    0  0.00000000000E+00 -0.00000000000E+00 -0.10618799491E+04  0.10618799491E+04  0.00000000000E+00 0. -1.
         23    2    1    2    0    0 -0.35148442592E+03 -0.69454185479E+02 -0.39616036545E+03  0.54185291347E+03  0.91084351787E+02 0.  0.
        254    2    1    2    0    0  0.35148442592E+03  0.69454185479E+02 -0.20015584615E+03  0.98559077320E+03  0.89608125966E+03 0.  0.
        -24    2    4    4    0    0 -0.20023756677E+03 -0.20714619439E+03 -0.20449086523E+03  0.36194143534E+03  0.78615899542E+02 0.  0.
         24    2    4    4    0    0  0.55172199269E+03  0.27660037987E+03  0.43350190721E+01  0.62364933786E+03  0.89525286116E+02 0.  0.
         13    1    3    3    0    0 -0.17971710403E+02  0.16071129979E+02 -0.38288899172E+02  0.45247136854E+02  0.00000000000E+00 0.  1.
        -13    1    3    3    0    0 -0.33351271552E+03 -0.85525315458E+02 -0.35787146628E+03  0.49660577662E+03  0.00000000000E+00 0. -1.
          4    1    6    6  502    0  0.40733409293E+03  0.22175973546E+03  0.38772396730E+02  0.46540492293E+03  0.00000000000E+00 0. -1.
          3    1    5    5  503    0 -0.13164974479E+03 -0.16416702805E+03 -0.18124852300E+03  0.27772917652E+03  0.00000000000E+00 0. -1.
         -4    1    5    5    0  503 -0.68587821982E+02 -0.42979166338E+02 -0.23242342224E+02  0.84212258819E+02  0.00000000000E+00 0.  1.
         -3    1    6    6    0  502  0.14438789976E+03  0.54840644405E+02 -0.34437377658E+02  0.15824441493E+03  0.00000000000E+00 0.  1.
<mgrwt>
<rscale>  0 0.14062330E+04</rscale>
<asrwt>0</asrwt>
<pdfrwt beam="1">  1        1 0.16336614E+00 0.14062330E+04</pdfrwt>
<pdfrwt beam="2">  1       -1 0.71625191E-01 0.14062330E+04</pdfrwt>
<totfact> 0.25994084E+01</totfact>
</mgrwt>
</event>
<event>
12    1  0.1598876E-007  0.2917478E+04  0.7818608E-02  0.8267696E-01
          2   -1    0    0  501    0  0.00000000000E+00  0.00000000000E+00  0.18238877764E+04  0.18238877764E+04  0.00000000000E+00 0. -1.
         -2   -1    0    0    0  501 -0.00000000000E+00 -0.00000000000E+00 -0.11666945113E+04  0.11666945113E+04  0.00000000000E+00 0.  1.
         23    2    1    2    0    0  0.10147467604E+04  0.72651099602E+03 -0.14031814140E+03  0.12590776223E+04  0.89766714251E+02 0.  0.
        254    2    1    2    0    0 -0.10147467604E+04 -0.72651099602E+03  0.79751140649E+03  0.17315046655E+04  0.89696975863E+03 0.  0.
        -24    2    4    4    0    0 -0.32756285223E+03 -0.76265251239E+03  0.33784658692E+03  0.89971378013E+03  0.80051814682E+02 0.  0.
         24    2    4    4    0    0 -0.68718390820E+03  0.36141516374E+02  0.45966481957E+03  0.83179088533E+03  0.84002367160E+02 0.  0.
         11    1    3    3    0    0  0.83555659834E+02  0.68860037127E+02  0.12002086528E+02  0.10893715199E+03  0.00000000000E+00 0. -1.
        -11    1    3    3    0    0  0.93119110060E+03  0.65765095889E+03 -0.15232022793E+03  0.11501404703E+04  0.00000000000E+00 0.  1.
          4    1    6    6  502    0 -0.11402032654E+03  0.33933049816E+02  0.61704869587E+02  0.13401334883E+03  0.00000000000E+00 0. -1.
          1    1    5    5  503    0 -0.10395613590E+03 -0.15881668730E+03  0.84117335935E+02  0.20761826644E+03  0.00000000000E+00 0. -1.
         -2    1    5    5    0  503 -0.22360671633E+03 -0.60383582509E+03  0.25372925099E+03  0.69209551368E+03  0.00000000000E+00 0.  1.
         -3    1    6    6    0  502 -0.57316358166E+03  0.22084665580E+01  0.39795994998E+03  0.69777753651E+03  0.00000000000E+00 0.  1.
<mgrwt>
<rscale>  0 0.29174783E+04</rscale>
<asrwt>0</asrwt>
<pdfrwt beam="1">  1        2 0.28059812E+00 0.29174783E+04</pdfrwt>
<pdfrwt beam="2">  1       -2 0.17949146E+00 0.29174783E+04</pdfrwt>
<totfact> 0.13187102E+00</totfact>
</mgrwt>
</event>
<event>
12    1  0.1598876E-007  0.1568576E+04  0.7818608E-02  0.8840089E-01
          1   -1    0    0  501    0  0.00000000000E+00  0.00000000000E+00  0.12242171181E+04  0.12242171181E+04  0.00000000000E+00 0. -1.
         -1   -1    0    0    0  501 -0.00000000000E+00 -0.00000000000E+00 -0.50244985020E+03  0.50244985020E+03  0.00000000000E+00 0.  1.
         23    2    1    2    0    0 -0.13779208525E+03 -0.45334603677E+03  0.96286395952E+01  0.48296011584E+03  0.92997177294E+02 0.  0.
        254    2    1    2    0    0  0.13779208525E+03  0.45334603677E+03  0.71213862833E+03  0.12437068525E+04  0.90285991225E+03 0.  0.
        -24    2    4    4    0    0  0.92143002900E+01 -0.26709249674E+03  0.14221423714E+03  0.31283944981E+03  0.78869049489E+02 0.  0.
         24    2    4    4    0    0  0.12857778496E+03  0.72043853351E+03  0.56992439119E+03  0.93086740268E+03  0.78335064566E+02 0.  0.
         13    1    3    3    0    0 -0.22056266693E+02 -0.49528512967E+02  0.30792903787E+02  0.62351867821E+02  0.00000000000E+00 0. -1.
        -13    1    3    3    0    0 -0.11573581856E+03 -0.40381752380E+03 -0.21164264192E+02  0.42060824802E+03  0.00000000000E+00 0.  1.
          4    1    6    6  502    0  0.94347096440E+01  0.10416613278E+03  0.50551974811E+02  0.11616840845E+03  0.00000000000E+00 0. -1.
          3    1    5    5  503    0 -0.67129952247E+01 -0.12467661366E+03  0.10898890114E+03  0.16573443477E+03  0.00000000000E+00 0. -1.
         -4    1    5    5    0  503  0.15927295515E+02 -0.14241588308E+03  0.33225336000E+02  0.14710501504E+03  0.00000000000E+00 0.  1.
         -1    1    6    6    0  502  0.11914307532E+03  0.61627240072E+03  0.51937241638E+03  0.81469899422E+03  0.00000000000E+00 0.  1.
<mgrwt>
<rscale>  0 0.15685761E+04</rscale>
<asrwt>0</asrwt>
<pdfrwt beam="1">  1        1 0.18834109E+00 0.15685761E+04</pdfrwt>
<pdfrwt beam="2">  1       -1 0.77299977E-01 0.15685761E+04</pdfrwt>
<totfact> 0.16560452E+01</totfact>
</mgrwt>
</event>
<event>
12    1  0.1598876E-007  0.1795887E+04  0.7818608E-02  0.8708490E-01
         -2   -1    0    0    0  501 -0.00000000000E+00  0.00000000000E+00  0.45153623760E+03  0.45153623760E+03  0.00000000000E+00 0.  1.
          2   -1    0    0  501    0  0.00000000000E+00 -0.00000000000E+00 -0.17856878576E+04  0.17856878576E+04  0.00000000000E+00 0. -1.
         23    2    1    2    0    0 -0.55522724231E+03  0.24413422105E+03 -0.85767797735E+03  0.10543315059E+04  0.90136579698E+02 0.  0.
        254    2    1    2    0    0  0.55522724231E+03 -0.24413422105E+03 -0.47647364265E+03  0.11828925893E+04  0.89684387560E+03 0.  0.
        -24    2    4    4    0    0  0.14409541252E+03 -0.19594265321E+03  0.24069526871E+03  0.35105550752E+03  0.78413938320E+02 0.  0.
         24    2    4    4    0    0  0.41113182979E+03 -0.48191567835E+02 -0.71716891136E+03  0.83183708178E+03  0.79182539301E+02 0.  0.
         11    1    3    3    0    0 -0.54987483234E+03  0.22639743454E+03 -0.83093179548E+03  0.10217953701E+04  0.00000000000E+00 0. -1.
        -11    1    3    3    0    0 -0.53524099677E+01  0.17736786506E+02 -0.26746181864E+02  0.32536135793E+02  0.00000000000E+00 0.  1.
          4    1    6    6  502    0  0.98258978399E+00 -0.25377555080E+01  0.15005711945E+01  0.31076356948E+01  0.00000000000E+00 0. -1.
          3    1    5    5  503    0  0.29229779934E+02 -0.16277360702E+02  0.71149148051E+02  0.78622730650E+02  0.00000000000E+00 0. -1.
         -4    1    5    5    0  503  0.11486563259E+03 -0.17966529251E+03  0.16954612066E+03  0.27243277687E+03  0.00000000000E+00 0.  1.
         -3    1    6    6    0  502  0.41014924001E+03 -0.45653812327E+02 -0.71866948255E+03  0.82872944609E+03  0.00000000000E+00 0.  1.
<mgrwt>
<rscale>  0 0.17958873E+04</rscale>
<asrwt>0</asrwt>
<pdfrwt beam="1">  1        2 0.27472121E+00 0.17958873E+04</pdfrwt>
<pdfrwt beam="2">  1       -2 0.69467114E-01 0.17958873E+04</pdfrwt>
<totfact> 0.15685867E+01</totfact>
</mgrwt>
</event>
<event>
12    1  0.1598876E-007  0.1199495E+04  0.7818608E-02  0.9113298E-01
          2   -1    0    0  501    0  0.00000000000E+00  0.00000000000E+00  0.29153495475E+04  0.29153495475E+04  0.00000000000E+00 0.  1.
         -2   -1    0    0    0  501 -0.00000000000E+00 -0.00000000000E+00 -0.12338050786E+03  0.12338050786E+03  0.00000000000E+00 0. -1.
         23    2    1    2    0    0 -0.52319369233E+00  0.20918403806E+03  0.24210908884E+03  0.32880947626E+03  0.75766914068E+02 0.  0.
        254    2    1    2    0    0  0.52319369233E+00 -0.20918403806E+03  0.25498599508E+04  0.27099205791E+04  0.89337872195E+03 0.  0.
        -24    2    4    4    0    0  0.30828223315E+03 -0.12040587938E+03  0.36404524490E+03  0.49930395631E+03  0.85088127210E+02 0.  0.
         24    2    4    4    0    0 -0.30775903946E+03 -0.88778158681E+02  0.21858147059E+04  0.22106166228E+04  0.80266659205E+02 0.  0.
         11    1    3    3    0    0  0.97053134446E+01  0.21158866185E+03  0.23319891325E+03  0.31503283651E+03  0.00000000000E+00 0. -1.
        -11    1    3    3    0    0 -0.10228507137E+02 -0.24046237964E+01  0.89101755908E+01  0.13776639754E+02  0.00000000000E+00 0.  1.
          2    1    6    6  502    0 -0.63253269110E+00 -0.24728009687E+01  0.11811018590E+01  0.28124444595E+01  0.00000000000E+00 0. -1.
          3    1    5    5  503    0  0.15916693310E+03 -0.85516876112E+02  0.24953931215E+03  0.30808621683E+03  0.00000000000E+00 0. -1.
         -4    1    5    5    0  503  0.14911530005E+03 -0.34889003266E+02  0.11450593275E+03  0.19121773948E+03  0.00000000000E+00 0.  1.
         -1    1    6    6    0  502 -0.30712650677E+03 -0.86305357712E+02  0.21846336041E+04  0.22078041784E+04  0.00000000000E+00 0.  1.
<mgrwt>
<rscale>  0 0.11994954E+04</rscale>
<asrwt>0</asrwt>
<pdfrwt beam="1">  1        2 0.44851526E+00 0.11994954E+04</pdfrwt>
<pdfrwt beam="2">  1       -2 0.18981619E-01 0.11994954E+04</pdfrwt>
<totfact> 0.46032937E+01</totfact>
</mgrwt>
</event>
<event>
12    1  0.1598876E-007  0.1723197E+04  0.7818608E-02  0.8748244E-01
          2   -1    0    0  501    0  0.00000000000E+00  0.00000000000E+00  0.39448709118E+04  0.39448709118E+04  0.00000000000E+00 0. -1.
         -2   -1    0    0    0  501 -0.00000000000E+00 -0.00000000000E+00 -0.18818146176E+03  0.18818146176E+03  0.00000000000E+00 0.  1.
         23    2    1    2    0    0 -0.23660975373E+03 -0.10163177270E+03  0.27232102349E+04  0.27370289131E+04  0.95603841589E+02 0.  0.
        254    2    1    2    0    0  0.23660975373E+03  0.10163177270E+03  0.10334792151E+04  0.13960234604E+04  0.90249045500E+03 0.  0.
        -24    2    4    4    0    0  0.22287161257E+03 -0.37891089065E+03  0.55650635440E+03  0.71379558093E+03  0.80991296552E+02 0.  0.
         24    2    4    4    0    0  0.13738141156E+02  0.48054266335E+03  0.47697286065E+03  0.68222787951E+03  0.82594079513E+02 0.  0.
         11    1    3    3    0    0 -0.18194670591E+03 -0.95161457229E+02  0.24326923071E+04  0.24413422881E+04  0.00000000000E+00 0. -1.
        -11    1    3    3    0    0 -0.54663047823E+02 -0.64703154713E+01  0.29051792782E+03  0.29568662493E+03  0.00000000000E+00 0.  1.
          4    1    6    6  502    0  0.47859015271E+02  0.23455168770E+03  0.23907570697E+03  0.33832258749E+03  0.00000000000E+00 0. -1.
          3    1    5    5  503    0  0.96613014365E+02 -0.95359905315E+02  0.14942080535E+03  0.20187660379E+03  0.00000000000E+00 0. -1.
         -4    1    5    5    0  503  0.12625859821E+03 -0.28355098533E+03  0.40708554906E+03  0.51191897714E+03  0.00000000000E+00 0.  1.
         -3    1    6    6    0  502 -0.34120874116E+02  0.24599097565E+03  0.23789715368E+03  0.34390529202E+03  0.00000000000E+00 0.  1.
<mgrwt>
<rscale>  0 0.17231965E+04</rscale>
<asrwt>0</asrwt>
<pdfrwt beam="1">  1        2 0.60690316E+00 0.17231965E+04</pdfrwt>
<pdfrwt beam="2">  1       -2 0.28950997E-01 0.17231965E+04</pdfrwt>
<totfact> 0.40054062E+00</totfact>
</mgrwt>
</event>
<event>
12    1  0.1598876E-007  0.4336128E+04  0.7818608E-02  0.7939971E-01
         -2   -1    0    0    0  501 -0.00000000000E+00  0.00000000000E+00  0.13576294479E+04  0.13576294479E+04  0.00000000000E+00 0.  1.
          2   -1    0    0  501    0  0.00000000000E+00 -0.00000000000E+00 -0.34622861419E+04  0.34622861419E+04  0.00000000000E+00 0. -1.
         23    2    1    2    0    0 -0.73214171747E+03 -0.74816251359E+03  0.98356200602E+03  0.14392835537E+04  0.91456475858E+02 0.  0.
        254    2    1    2    0    0  0.73214171747E+03  0.74816251359E+03 -0.30882187000E+04  0.33806320362E+04  0.89207599664E+03 0.  0.
        -24    2    4    4    0    0  0.92590664965E+03  0.66130556879E+03 -0.24236818165E+04  0.26786207450E+04  0.78405155838E+02 0.  0.
         24    2    4    4    0    0 -0.19376493218E+03  0.86856944802E+02 -0.66453688353E+03  0.70201129125E+03  0.78240690658E+02 0.  0.
         13    1    3    3    0    0 -0.78128817890E+02 -0.58530907988E+02  0.63421121616E+02  0.11641399418E+03  0.00000000000E+00 0. -1.
        -13    1    3    3    0    0 -0.65401289958E+03 -0.68963160560E+03  0.92014088441E+03  0.13228695595E+04  0.00000000000E+00 0.  1.
          2    1    6    6  502    0 -0.98874390018E+02  0.28309341115E+02 -0.43271388551E+03  0.44476833353E+03  0.00000000000E+00 0. -1.
          1    1    5    5  503    0  0.81570166613E+03  0.60511811060E+03 -0.21208404156E+04  0.23514891462E+04  0.00000000000E+00 0. -1.
         -2    1    5    5    0  503  0.11020498352E+03  0.56187458188E+02 -0.30284140087E+03  0.32713159879E+03  0.00000000000E+00 0.  1.
         -1    1    6    6    0  502 -0.94890542161E+02  0.58547603687E+02 -0.23182299802E+03  0.25724295772E+03  0.00000000000E+00 0.  1.
<mgrwt>
<rscale>  0 0.43361281E+04</rscale>
<asrwt>0</asrwt>
<pdfrwt beam="1">  1        2 0.53265941E+00 0.43361281E+04</pdfrwt>
<pdfrwt beam="2">  1       -2 0.20886607E+00 0.43361281E+04</pdfrwt>
<totfact> 0.77091681E-02</totfact>
</mgrwt>
</event>
<event>
12    1  0.1598876E-007  0.1388165E+04  0.7818608E-02  0.8962430E-01
          2   -1    0    0  501    0  0.00000000000E+00  0.00000000000E+00  0.15959036841E+04  0.15959036841E+04  0.00000000000E+00 0. -1.
         -2   -1    0    0    0  501 -0.00000000000E+00 -0.00000000000E+00 -0.30186695105E+03  0.30186695105E+03  0.00000000000E+00 0.  1.
         23    2    1    2    0    0  0.12039119256E+03  0.28391448625E+03  0.40929729239E+02  0.32574755738E+03  0.96616528892E+02 0.  0.
        254    2    1    2    0    0 -0.12039119256E+03 -0.28391448625E+03  0.12531070038E+04  0.15720230778E+04  0.89770703424E+03 0.  0.
        -24    2    4    4    0    0 -0.16047004354E+03  0.16027445900E+03  0.10463598207E+04  0.10738388159E+04  0.82597767043E+02 0.  0.
         24    2    4    4    0    0  0.40078850978E+02 -0.44418894525E+03  0.20674718315E+03  0.49818426190E+03  0.80827146979E+02 0.  0.
         11    1    3    3    0    0  0.10299468634E+03  0.27251690757E+03  0.60097285436E+02  0.29746437441E+03  0.00000000000E+00 0.  1.
        -11    1    3    3    0    0  0.17396506216E+02  0.11397578678E+02 -0.19167556197E+02  0.28283182968E+02  0.00000000000E+00 0. -1.
          2    1    6    6  502    0  0.26361588523E+02 -0.36748567942E+03  0.20187454933E+03  0.42011187986E+03  0.00000000000E+00 0. -1.
          3    1    5    5  503    0 -0.69133986404E+02  0.95084504646E+02  0.69860547280E+03  0.70842796227E+03  0.00000000000E+00 0. -1.
         -4    1    5    5    0  503 -0.91336057131E+02  0.65189954356E+02  0.34775434786E+03  0.36541085361E+03  0.00000000000E+00 0.  1.
         -1    1    6    6    0  502  0.13717262454E+02 -0.76703265824E+02  0.48726338199E+01  0.78072382042E+02  0.00000000000E+00 0.  1.
<mgrwt>
<rscale>  0 0.13881651E+04</rscale>
<asrwt>0</asrwt>
<pdfrwt beam="1">  1        2 0.24552364E+00 0.13881651E+04</pdfrwt>
<pdfrwt beam="2">  1       -2 0.46441070E-01 0.13881651E+04</pdfrwt>
<totfact> 0.47996164E+01</totfact>
</mgrwt>
</event>
<event>
12    1  0.1598876E-007  0.1229581E+04  0.7818608E-02  0.9087351E-01
         -1   -1    0    0    0  501 -0.00000000000E+00  0.00000000000E+00  0.77482892429E+03  0.77482892429E+03  0.00000000000E+00 0.  1.
          1   -1    0    0  501    0  0.00000000000E+00 -0.00000000000E+00 -0.48780786877E+03  0.48780786877E+03  0.00000000000E+00 0. -1.
         23    2    1    2    0    0 -0.18796448708E+03  0.15870705928E+03 -0.62265004750E+02  0.26958498305E+03  0.90997545041E+02 0.  0.
        254    2    1    2    0    0  0.18796448708E+03 -0.15870705928E+03  0.34928606028E+03  0.99305181001E+03  0.89645555740E+03 0.  0.
        -24    2    4    4    0    0  0.44275219148E+03 -0.32753708090E+03  0.38268429045E+03  0.67544600766E+03  0.80436314438E+02 0.  0.
         24    2    4    4    0    0 -0.25478770440E+03  0.16883002161E+03 -0.33398230172E+02  0.31760580235E+03  0.79609380079E+02 0.  0.
         11    1    3    3    0    0 -0.68109738787E+02  0.31233181833E+02  0.18032472747E+02  0.77068918758E+02  0.00000000000E+00 0.  1.
        -11    1    3    3    0    0 -0.11985474829E+03  0.12747387745E+03 -0.80297477498E+02  0.19251606430E+03  0.00000000000E+00 0. -1.
          4    1    6    6  502    0 -0.71761182079E+02  0.61322425185E+02  0.24625672092E+02  0.97552707856E+02  0.00000000000E+00 0. -1.
          3    1    5    5  503    0  0.32118775354E+02 -0.51568386807E+02  0.29294111123E+02  0.67446713743E+02  0.00000000000E+00 0. -1.
         -4    1    5    5    0  503  0.41063341612E+03 -0.27596869409E+03  0.35339017933E+03  0.60799929391E+03  0.00000000000E+00 0.  1.
         -3    1    6    6    0  502 -0.18302652232E+03  0.10750759643E+03 -0.58023902265E+02  0.22005309450E+03  0.00000000000E+00 0.  1.
<mgrwt>
<rscale>  0 0.12295815E+04</rscale>
<asrwt>0</asrwt>
<pdfrwt beam="1">  1        1 0.75047365E-01 0.12295815E+04</pdfrwt>
<pdfrwt beam="2">  1       -1 0.11920445E+00 0.12295815E+04</pdfrwt>
<totfact> 0.28511126E+01</totfact>
</mgrwt>
</event>
<event>
12    1  0.1598876E-007  0.2024599E+04  0.7818608E-02  0.8595205E-01
         -1   -1    0    0    0  501 -0.00000000000E+00  0.00000000000E+00  0.72964991000E+03  0.72964991000E+03  0.00000000000E+00 0.  1.
          1   -1    0    0  501    0  0.00000000000E+00 -0.00000000000E+00 -0.14044409796E+04  0.14044409796E+04  0.00000000000E+00 0. -1.
         23    2    1    2    0    0 -0.15310059942E+03 -0.18368968089E+03  0.54466337101E+03  0.60187156714E+03  0.91703343478E+02 0.  0.
        254    2    1    2    0    0  0.15310059942E+03  0.18368968089E+03 -0.12194544406E+04  0.15322193224E+04  0.89635106236E+03 0.  0.
        -24    2    4    4    0    0  0.19654440844E+03 -0.33476695267E+03 -0.60471975720E+03  0.72279899087E+03  0.77806036744E+02 0.  0.
         24    2    4    4    0    0 -0.43443809021E+02  0.51845663356E+03 -0.61473468339E+03  0.80942033158E+03  0.81104234084E+02 0.  0.
         11    1    3    3    0    0 -0.90527022730E+02 -0.39251097744E+02  0.20558358697E+03  0.22803596591E+03  0.00000000000E+00 0. -1.
        -11    1    3    3    0    0 -0.62573576687E+02 -0.14443858315E+03  0.33907978404E+03  0.37383560123E+03  0.00000000000E+00 0.  1.
          4    1    6    6  502    0 -0.54553174455E+02  0.49611441136E+03 -0.56569692890E+03  0.75439947864E+03  0.00000000000E+00 0. -1.
          3    1    5    5  503    0  0.13631388616E+03 -0.27126557687E+03 -0.51241713237E+03  0.59559869568E+03  0.00000000000E+00 0. -1.
         -4    1    5    5    0  503  0.60230522282E+02 -0.63501375805E+02 -0.92302624833E+02  0.12720029518E+03  0.00000000000E+00 0.  1.
         -3    1    6    6    0  502  0.11109365434E+02  0.22342222207E+02 -0.49037754487E+02  0.55020852944E+02  0.00000000000E+00 0.  1.
<mgrwt>
<rscale>  0 0.20245990E+04</rscale>
<asrwt>0</asrwt>
<pdfrwt beam="1">  1        1 0.21606784E+00 0.20245990E+04</pdfrwt>
<pdfrwt beam="2">  1       -1 0.11225383E+00 0.20245990E+04</pdfrwt>
<totfact> 0.51353717E+00</totfact>
</mgrwt>
</event>
<event>
12    1  0.1598876E-007  0.2294435E+04  0.7818608E-02  0.8480119E-01
         -1   -1    0    0    0  501 -0.00000000000E+00  0.00000000000E+00  0.35955524251E+03  0.35955524251E+03  0.00000000000E+00 0.  1.
          1   -1    0    0  501    0  0.00000000000E+00 -0.00000000000E+00 -0.36603774182E+04  0.36603774182E+04  0.00000000000E+00 0. -1.
         23    2    1    2    0    0 -0.64812876868E+02  0.72918437602E+03 -0.28653846734E+03  0.79113743790E+03  0.88789577840E+02 0.  0.
        254    2    1    2    0    0  0.64812876868E+02 -0.72918437602E+03 -0.30142837084E+04  0.32287952229E+04  0.89627102662E+03 0.  0.
        -24    2    4    4    0    0 -0.28908415480E+03 -0.33789291642E+03 -0.57905107461E+03  0.73544872862E+03  0.88563050397E+02 0.  0.
         24    2    4    4    0    0  0.35389703167E+03 -0.39129145961E+03 -0.24352326338E+04  0.24933464942E+04  0.89814499291E+02 0.  0.
         11    1    3    3    0    0 -0.29293222039E+02  0.56550463695E+03 -0.25352197882E+03  0.62042483913E+03  0.00000000000E+00 0.  1.
        -11    1    3    3    0    0 -0.35519654829E+02  0.16367973908E+03 -0.33016488518E+02  0.17071259877E+03  0.00000000000E+00 0. -1.
          2    1    6    6  502    0  0.12581586223E+03 -0.15978203967E+03 -0.75123144249E+03  0.77827283877E+03  0.00000000000E+00 0. -1.
          1    1    5    5  503    0 -0.50820209436E+01 -0.38416991196E+02 -0.70941592838E+02  0.80835646492E+02  0.00000000000E+00 0. -1.
         -2    1    5    5    0  503 -0.28400213385E+03 -0.29947592522E+03 -0.50810948178E+03  0.65461308213E+03  0.00000000000E+00 0.  1.
         -1    1    6    6    0  502  0.22808116943E+03 -0.23150941994E+03 -0.16840011913E+04  0.17150736555E+04  0.00000000000E+00 0.  1.
<mgrwt>
<rscale>  0 0.22944349E+04</rscale>
<asrwt>0</asrwt>
<pdfrwt beam="1">  1        1 0.56313496E+00 0.22944349E+04</pdfrwt>
<pdfrwt beam="2">  1       -1 0.55316194E-01 0.22944349E+04</pdfrwt>
<totfact> 0.55695713E-01</totfact>
</mgrwt>
</event>
<event>
12    1  0.1598876E-007  0.1295756E+04  0.7818608E-02  0.9032938E-01
         -1   -1    0    0    0  501 -0.00000000000E+00  0.00000000000E+00  0.12511332619E+04  0.12511332619E+04  0.00000000000E+00 0.  1.
          1   -1    0    0  501    0  0.00000000000E+00 -0.00000000000E+00 -0.33549233425E+03  0.33549233425E+03  0.00000000000E+00 0. -1.
         23    2    1    2    0    0 -0.23584232308E+03 -0.20318421043E+03  0.22959607788E+03  0.39718796297E+03  0.90213603326E+02 0.  0.
        254    2    1    2    0    0  0.23584232308E+03  0.20318421043E+03  0.68604484974E+03  0.11894376331E+04  0.92043409463E+03 0.  0.
        -24    2    4    4    0    0 -0.44249822421E+02 -0.14028369288E+03 -0.15954361769E+03  0.23138697232E+03  0.80300708214E+02 0.  0.
         24    2    4    4    0    0  0.28009214550E+03  0.34346790332E+03  0.84558846743E+03  0.95805066082E+03  0.80121169951E+02 0.  0.
         11    1    3    3    0    0 -0.23850267531E+03 -0.20365928939E+03  0.23449206440E+03  0.39159565951E+03  0.00000000000E+00 0.  1.
        -11    1    3    3    0    0  0.26603522262E+01  0.47507895366E+00 -0.48959865191E+01  0.55923034587E+01  0.00000000000E+00 0. -1.
          4    1    6    6  502    0  0.88699610108E+02  0.72605036454E+02  0.16444074463E+03  0.20044917223E+03  0.00000000000E+00 0. -1.
          3    1    5    5  503    0 -0.40987122850E+00  0.39827769015E-01 -0.45045444939E+02  0.45047327228E+02  0.00000000000E+00 0. -1.
         -4    1    5    5    0  503 -0.43839951193E+02 -0.14032352065E+03 -0.11449817275E+03  0.18633964509E+03  0.00000000000E+00 0.  1.
         -3    1    6    6    0  502  0.19139253539E+03  0.27086286686E+03  0.68114772280E+03  0.75760148860E+03  0.00000000000E+00 0.  1.
<mgrwt>
<rscale>  0 0.12957556E+04</rscale>
<asrwt>0</asrwt>
<pdfrwt beam="1">  1        1 0.51614206E-01 0.12957556E+04</pdfrwt>
<pdfrwt beam="2">  1       -1 0.19248204E+00 0.12957556E+04</pdfrwt>
<totfact> 0.12633926E+01</totfact>
</mgrwt>
</event>
<event>
12    1  0.1598876E-007  0.2328670E+04  0.7818608E-02  0.8466702E-01
         -2   -1    0    0    0  501 -0.00000000000E+00  0.00000000000E+00  0.82680130790E+03  0.82680130790E+03  0.00000000000E+00 0. -1.
          2   -1    0    0  501    0  0.00000000000E+00 -0.00000000000E+00 -0.16396641453E+04  0.16396641453E+04  0.00000000000E+00 0.  1.
         23    2    1    2    0    0 -0.48463604741E+03 -0.86158228394E+03 -0.42807289626E+03  0.10809302498E+04  0.89261805406E+02 0.  0.
        254    2    1    2    0    0  0.48463604741E+03  0.86158228394E+03 -0.38478994113E+03  0.13855352034E+04  0.89131833299E+03 0.  0.
        -24    2    4    4    0    0  0.37280116909E+03  0.84933969454E+03  0.46644309841E+02  0.93234039488E+03  0.82001779804E+02 0.  0.
         24    2    4    4    0    0  0.11183487832E+03  0.12242589400E+02 -0.43143425097E+03  0.45319480856E+03  0.81197910003E+02 0.  0.
         11    1    3    3    0    0 -0.40069011515E+03 -0.63428541126E+03 -0.32223617599E+03  0.81652109858E+03  0.00000000000E+00 0. -1.
        -11    1    3    3    0    0 -0.83945932264E+02 -0.22729687268E+03 -0.10583672027E+03  0.26440915119E+03  0.00000000000E+00 0.  1.
          2    1    6    6  502    0  0.10023987109E+03  0.12828167040E+02 -0.42973956554E+03  0.44146198910E+03  0.00000000000E+00 0. -1.
          3    1    5    5  503    0  0.22856974549E+03  0.49073575989E+03  0.65823803163E+02  0.54534254157E+03  0.00000000000E+00 0. -1.
         -4    1    5    5    0  503  0.14423142360E+03  0.35860393464E+03 -0.19179493323E+02  0.38699785330E+03  0.00000000000E+00 0.  1.
         -1    1    6    6    0  502  0.11595007230E+02 -0.58557764000E+00 -0.16946854313E+01  0.11732819463E+02  0.00000000000E+00 0.  1.
<mgrwt>
<rscale>  0 0.23286704E+04</rscale>
<asrwt>0</asrwt>
<pdfrwt beam="1">  1        2 0.25225602E+00 0.23286704E+04</pdfrwt>
<pdfrwt beam="2">  1       -2 0.12720020E+00 0.23286704E+04</pdfrwt>
<totfact> 0.43988334E+00</totfact>
</mgrwt>
</event>
<event>
12    1  0.1598876E-007  0.3712245E+04  0.7818608E-02  0.8065253E-01
          1   -1    0    0  501    0  0.00000000000E+00  0.00000000000E+00  0.25387909852E+04  0.25387909852E+04  0.00000000000E+00 0.  1.
         -1   -1    0    0    0  501 -0.00000000000E+00 -0.00000000000E+00 -0.13570205723E+04  0.13570205723E+04  0.00000000000E+00 0. -1.
         23    2    1    2    0    0  0.97720444441E+03 -0.16273418492E+03  0.20659312017E+04  0.22930055799E+04  0.91607412008E+02 0.  0.
        254    2    1    2    0    0 -0.97720444441E+03  0.16273418492E+03 -0.88416078884E+03  0.16028059776E+04  0.89768355234E+03 0.  0.
        -24    2    4    4    0    0 -0.63420139922E+03  0.17383704812E+03 -0.10275400722E+04  0.12224482162E+04  0.78168453315E+02 0.  0.
         24    2    4    4    0    0 -0.34300304519E+03 -0.11102863196E+02  0.14337928338E+03  0.38035776142E+03  0.79624400736E+02 0.  0.
         11    1    3    3    0    0  0.30763013904E+03 -0.21407956463E+02  0.71383799076E+03  0.77759840541E+03  0.00000000000E+00 0. -1.
        -11    1    3    3    0    0  0.66957430537E+03 -0.14132622846E+03  0.13520932110E+04  0.15154071745E+04  0.00000000000E+00 0.  1.
          2    1    6    6  502    0 -0.26663185854E+02 -0.83799555534E+01  0.37476144516E+02  0.46750513823E+02  0.00000000000E+00 0. -1.
          1    1    5    5  503    0 -0.49326772158E+02 -0.63471928473E+01 -0.65448930639E+02  0.82200850546E+02  0.00000000000E+00 0. -1.
         -2    1    5    5    0  503 -0.58487462706E+03  0.18018424096E+03 -0.96209114158E+03  0.11402473656E+04  0.00000000000E+00 0.  1.
         -1    1    6    6    0  502 -0.31633985934E+03 -0.27229076423E+01  0.10590313887E+03  0.33360724760E+03  0.00000000000E+00 0.  1.
<mgrwt>
<rscale>  0 0.37122455E+04</rscale>
<asrwt>0</asrwt>
<pdfrwt beam="1">  1        1 0.39058323E+00 0.37122455E+04</pdfrwt>
<pdfrwt beam="2">  1       -1 0.20877240E+00 0.37122455E+04</pdfrwt>
<totfact> 0.13371937E-01</totfact>
</mgrwt>
</event>
<event>
12    1  0.1598876E-007  0.1304804E+04  0.7818608E-02  0.9025764E-01
          1   -1    0    0  501    0  0.00000000000E+00  0.00000000000E+00  0.16022061662E+04  0.16022061662E+04  0.00000000000E+00 0.  1.
         -1   -1    0    0    0  501 -0.00000000000E+00 -0.00000000000E+00 -0.26565148112E+03  0.26565148112E+03  0.00000000000E+00 0. -1.
         23    2    1    2    0    0  0.16405096340E+03 -0.59492335067E+02  0.74943057838E+03  0.77499713979E+03  0.92316403473E+02 0.  0.
        254    2    1    2    0    0 -0.16405096340E+03  0.59492335067E+02  0.58712410672E+03  0.10928605075E+04  0.90508414843E+03 0.  0.
        -24    2    4    4    0    0  0.47608897424E+02 -0.37274758189E+03  0.43961686415E+03  0.58334748552E+03  0.76314708294E+02 0.  0.
         24    2    4    4    0    0 -0.21165986082E+03  0.43223991695E+03  0.14750724257E+03  0.50951302203E+03  0.78828234246E+02 0.  0.
         13    1    3    3    0    0 -0.48936175716E+01  0.10425181100E+02  0.88353464318E+02  0.89100878508E+02  0.00000000000E+00 0. -1.
        -13    1    3    3    0    0  0.16894458097E+03 -0.69917516167E+02  0.66107711406E+03  0.68589626128E+03  0.00000000000E+00 0.  1.
          2    1    6    6  502    0 -0.14573742257E+03  0.20909112080E+03  0.70975533348E+02  0.26456760850E+03  0.00000000000E+00 0. -1.
          1    1    5    5  503    0 -0.19082916278E+01 -0.25510884562E+03  0.27619732653E+03  0.37599086142E+03  0.00000000000E+00 0. -1.
         -2    1    5    5    0  503  0.49517189052E+02 -0.11763873627E+03  0.16341953761E+03  0.20735662410E+03  0.00000000000E+00 0.  1.
         -1    1    6    6    0  502 -0.65922438246E+02  0.22314879616E+03  0.76531709222E+02  0.24494541353E+03  0.00000000000E+00 0.  1.
<mgrwt>
<rscale>  0 0.13048041E+04</rscale>
<asrwt>0</asrwt>
<pdfrwt beam="1">  1        1 0.24649325E+00 0.13048041E+04</pdfrwt>
<pdfrwt beam="2">  1       -1 0.40869460E-01 0.13048041E+04</pdfrwt>
<totfact> 0.31977325E+01</totfact>
</mgrwt>
</event>
<event>
12    1  0.1789712E-007  0.1676642E+04  0.7818608E-02  0.8774800E-01
          2   -1    0    0  501    0  0.00000000000E+00  0.00000000000E+00  0.25208158442E+04  0.25208158442E+04  0.00000000000E+00 0. -1.
         -2   -1    0    0    0  501 -0.00000000000E+00 -0.00000000000E+00 -0.27879139232E+03  0.27879139232E+03  0.00000000000E+00 0.  1.
         23    2    1    2    0    0 -0.48846355280E+03  0.24417102338E+03  0.44681690881E+03  0.71190342409E+03  0.94578032144E+02 0.  0.
        254    2    1    2    0    0  0.48846355280E+03 -0.24417102338E+03  0.17952075431E+04  0.20877038125E+04  0.91516170959E+03 0.  0.
        -24    2    4    4    0    0  0.55404319684E+03  0.92641099997E+02  0.53737259261E+03  0.78158385878E+03  0.80980168163E+02 0.  0.
         24    2    4    4    0    0 -0.65579644037E+02 -0.33681212337E+03  0.12578349505E+04  0.13061199537E+04  0.77829779586E+02 0.  0.
         13    1    3    3    0    0 -0.37329984272E+02 -0.35894262700E+01  0.47229280015E+02  0.60307682740E+02  0.00000000000E+00 0. -1.
        -13    1    3    3    0    0 -0.45113356853E+03  0.24776044965E+03  0.39958762879E+03  0.65159574135E+03  0.00000000000E+00 0.  1.
          4    1    6    6  502    0 -0.47532162124E+02 -0.10281261907E+03  0.32338174122E+03  0.34264484767E+03  0.00000000000E+00 0. -1.
          3    1    5    5  503    0  0.10490050135E+03  0.24300821572E+02  0.14936201635E+03  0.18412945728E+03  0.00000000000E+00 0. -1.
         -4    1    5    5    0  503  0.44914269549E+03  0.68340278424E+02  0.38801057626E+03  0.59745440149E+03  0.00000000000E+00 0.  1.
         -3    1    6    6    0  502 -0.18047481914E+02 -0.23399950431E+03  0.93445320927E+03  0.96347510602E+03  0.00000000000E+00 0.  1.
<mgrwt>
<rscale>  0 0.16766416E+04</rscale>
<asrwt>0</asrwt>
<pdfrwt beam="1">  1        2 0.38781781E+00 0.16766416E+04</pdfrwt>
<pdfrwt beam="2">  1       -2 0.42890985E-01 0.16766416E+04</pdfrwt>
<totfact> 0.16663467E+01</totfact>
</mgrwt>
</event>
<event>
12    1  0.1598876E-007  0.2110473E+04  0.7818608E-02  0.8556644E-01
         -1   -1    0    0    0  501 -0.00000000000E+00  0.00000000000E+00  0.16922784024E+04  0.16922784024E+04  0.00000000000E+00 0.  1.
          1   -1    0    0  501    0  0.00000000000E+00 -0.00000000000E+00 -0.65800299474E+03  0.65800299474E+03  0.00000000000E+00 0. -1.
         23    2    1    2    0    0 -0.65520275432E+03  0.55171958443E+03  0.43995200849E+03  0.96728754185E+03  0.91663895468E+02 0.  0.
        254    2    1    2    0    0  0.65520275432E+03 -0.55171958443E+03  0.59432339918E+03  0.13829938553E+04  0.90871698117E+03 0.  0.
        -24    2    4    4    0    0  0.49618899669E+03 -0.77177874874E+03  0.28777864333E+03  0.96500744904E+03  0.81097914278E+02 0.  0.
         24    2    4    4    0    0  0.15901375763E+03  0.22005916431E+03  0.30654475585E+03  0.41798640626E+03  0.83854263837E+02 0.  0.
         13    1    3    3    0    0 -0.17732326515E+03  0.15368239742E+03  0.16745408418E+03  0.28827537174E+03  0.00000000000E+00 0.  1.
        -13    1    3    3    0    0 -0.47787948917E+03  0.39803718701E+03  0.27249792431E+03  0.67901217011E+03  0.00000000000E+00 0. -1.
          2    1    6    6  502    0  0.89366890990E+02  0.88516257352E+02  0.87766872260E+02  0.15337728935E+03  0.00000000000E+00 0. -1.
          3    1    5    5  503    0  0.18293466962E+03 -0.26562190522E+03  0.14057372925E+03  0.35182533058E+03  0.00000000000E+00 0. -1.
         -4    1    5    5    0  503  0.31325432707E+03 -0.50615684352E+03  0.14720491408E+03  0.61318211846E+03  0.00000000000E+00 0.  1.
         -1    1    6    6    0  502  0.69646866638E+02  0.13154290696E+03  0.21877788359E+03  0.26460911691E+03  0.00000000000E+00 0.  1.
<mgrwt>
<rscale>  0 0.21104732E+04</rscale>
<asrwt>0</asrwt>
<pdfrwt beam="1">  1        1 0.10123123E+00 0.21104732E+04</pdfrwt>
<pdfrwt beam="2">  1       -1 0.26035052E+00 0.21104732E+04</pdfrwt>
<totfact> 0.16402639E+00</totfact>
</mgrwt>
</event>
<event>
12    1  0.1598876E-007  0.1405872E+04  0.7818608E-02  0.8949579E-01
         -1   -1    0    0    0  501 -0.00000000000E+00  0.00000000000E+00  0.27773406216E+03  0.27773406216E+03  0.00000000000E+00 0.  1.
          1   -1    0    0  501    0  0.00000000000E+00 -0.00000000000E+00 -0.17791079829E+04  0.17791079829E+04  0.00000000000E+00 0. -1.
         23    2    1    2    0    0  0.75658114336E+02 -0.40735476832E+01 -0.10565842778E+04  0.10632729379E+04  0.91860003220E+02 0.  0.
        254    2    1    2    0    0 -0.75658114336E+02  0.40735476832E+01 -0.44478964289E+03  0.99356910716E+03  0.88521240402E+03 0.  0.
        -24    2    4    4    0    0  0.11198261128E+03 -0.32184075102E+03 -0.49489386495E+03  0.60622042812E+03  0.80384673037E+02 0.  0.
         24    2    4    4    0    0 -0.18764072562E+03  0.32591429871E+03  0.50104222061E+02  0.38734867904E+03  0.78098617610E+02 0.  0.
         11    1    3    3    0    0 -0.17403440144E+02 -0.12455302114E+00 -0.63881613018E+02  0.66209936747E+02  0.00000000000E+00 0.  1.
        -11    1    3    3    0    0  0.93061554480E+02 -0.39489946620E+01 -0.99270266481E+03  0.99706300112E+03  0.00000000000E+00 0. -1.
          4    1    6    6  502    0 -0.61518627138E+02  0.16491248059E+03 -0.30302004090E+01  0.17603934178E+03  0.00000000000E+00 0. -1.
          1    1    5    5  503    0  0.60337825047E+02 -0.19871564326E+03 -0.23205326699E+03  0.31141175111E+03  0.00000000000E+00 0. -1.
         -2    1    5    5    0  503  0.51644786235E+02 -0.12312510776E+03 -0.26284059795E+03  0.29480867701E+03  0.00000000000E+00 0.  1.
         -3    1    6    6    0  502 -0.12612209848E+03  0.16100181811E+03  0.53134422470E+02  0.21130933726E+03  0.00000000000E+00 0.  1.
<mgrwt>
<rscale>  0 0.14058718E+04</rscale>
<asrwt>0</asrwt>
<pdfrwt beam="1">  1        1 0.27370891E+00 0.14058718E+04</pdfrwt>
<pdfrwt beam="2">  1       -1 0.42728319E-01 0.14058718E+04</pdfrwt>
<totfact> 0.22133309E+01</totfact>
</mgrwt>
</event>
<event>
12    1  0.1598876E-007  0.1499095E+04  0.7818608E-02  0.8885055E-01
         -2   -1    0    0    0  501 -0.00000000000E+00  0.00000000000E+00  0.20638895914E+03  0.20638895914E+03  0.00000000000E+00 0. -1.
          2   -1    0    0  501    0  0.00000000000E+00 -0.00000000000E+00 -0.27221480802E+04  0.27221480802E+04  0.00000000000E+00 0.  1.
         23    2    1    2    0    0 -0.16352482599E+02  0.43883288611E+03 -0.52520020593E+03  0.69049257412E+03  0.90016848330E+02 0.  0.
        254    2    1    2    0    0  0.16352482599E+02 -0.43883288611E+03 -0.19905589151E+04  0.22380444652E+04  0.92394617164E+03 0.  0.
        -24    2    4    4    0    0 -0.18426108322E+03 -0.39007055033E+03 -0.19683199195E+04  0.20165757155E+04  0.78658311614E+02 0.  0.
         24    2    4    4    0    0  0.20061356582E+03 -0.48762335774E+02 -0.22238995623E+02  0.22146874967E+03  0.77008220168E+02 0.  0.
         11    1    3    3    0    0 -0.33904049449E+02  0.21882863616E+03 -0.20614440062E+03  0.30254085754E+03  0.00000000000E+00 0.  1.
        -11    1    3    3    0    0  0.17551566850E+02  0.22000424995E+03 -0.31905580531E+03  0.38795171657E+03  0.00000000000E+00 0. -1.
          4    1    6    6  502    0  0.37022301774E+02 -0.41918122749E+02  0.19318540207E+01  0.55959913361E+02  0.00000000000E+00 0. -1.
          1    1    5    5  503    0 -0.17627031307E+01 -0.66332284037E+02 -0.26447534335E+03  0.27267248902E+03  0.00000000000E+00 0. -1.
         -2    1    5    5    0  503 -0.18249838009E+03 -0.32373826630E+03 -0.17038445761E+04  0.17439032265E+04  0.00000000000E+00 0.  1.
         -3    1    6    6    0  502  0.16359126405E+03 -0.68442130251E+01 -0.24170849644E+02  0.16550883631E+03  0.00000000000E+00 0.  1.
<mgrwt>
<rscale>  0 0.14990948E+04</rscale>
<asrwt>0</asrwt>
<pdfrwt beam="1">  1        2 0.41879203E+00 0.14990948E+04</pdfrwt>
<pdfrwt beam="2">  1       -2 0.31752146E-01 0.14990948E+04</pdfrwt>
<totfact> 0.23048575E+01</totfact>
</mgrwt>
</event>
<event>
12    1  0.1598876E-007  0.1374059E+04  0.7818608E-02  0.8972813E-01
         -2   -1    0    0    0  501 -0.00000000000E+00  0.00000000000E+00  0.40354331249E+03  0.40354331249E+03  0.00000000000E+00 0.  1.
          2   -1    0    0  501    0  0.00000000000E+00 -0.00000000000E+00 -0.11696627739E+04  0.11696627739E+04  0.00000000000E+00 0. -1.
         23    2    1    2    0    0 -0.16372451731E+02 -0.88708652404E+02  0.20847373616E+03  0.24500508055E+03  0.91809088002E+02 0.  0.
        254    2    1    2    0    0  0.16372451731E+02  0.88708652404E+02 -0.97459319762E+03  0.13282010059E+04  0.89785785569E+03 0.  0.
        -24    2    4    4    0    0 -0.31950507212E+03  0.18132017895E+03 -0.10948259465E+03  0.39151953166E+03  0.79627926865E+02 0.  0.
         24    2    4    4    0    0  0.33587752385E+03 -0.92611526541E+02 -0.86511060296E+03  0.93668147423E+03  0.86978289960E+02 0.  0.
         13    1    3    3    0    0 -0.32672652213E+02 -0.22516917196E+02  0.19702772627E+02  0.44302516992E+02  0.00000000000E+00 0. -1.
        -13    1    3    3    0    0  0.16300200482E+02 -0.66191735208E+02  0.18877096353E+03  0.20070256356E+03  0.00000000000E+00 0.  1.
          2    1    6    6  502    0  0.12595414480E+03 -0.36171716712E+02 -0.44170618017E+03  0.46073548733E+03  0.00000000000E+00 0. -1.
          3    1    5    5  503    0 -0.17115249514E+03  0.11738209565E+03 -0.24479183693E+02  0.20897598763E+03  0.00000000000E+00 0. -1.
         -4    1    5    5    0  503 -0.14835257699E+03  0.63938083293E+02 -0.85003410961E+02  0.18254354403E+03  0.00000000000E+00 0.  1.
         -3    1    6    6    0  502  0.20992337905E+03 -0.56439809828E+02 -0.42340442279E+03  0.47594598690E+03  0.00000000000E+00 0.  1.
<mgrwt>
<rscale>  0 0.13740591E+04</rscale>
<asrwt>0</asrwt>
<pdfrwt beam="1">  1        2 0.17994812E+00 0.13740591E+04</pdfrwt>
<pdfrwt beam="2">  1       -2 0.62083587E-01 0.13740591E+04</pdfrwt>
<totfact> 0.46398095E+01</totfact>
</mgrwt>
</event>
<event>
12    1  0.1598876E-007  0.2581369E+04  0.7818608E-02  0.8374557E-01
         -1   -1    0    0    0  501 -0.00000000000E+00  0.00000000000E+00  0.11169241155E+04  0.11169241155E+04  0.00000000000E+00 0.  1.
          1   -1    0    0  501    0  0.00000000000E+00 -0.00000000000E+00 -0.14914773360E+04  0.14914773360E+04  0.00000000000E+00 0. -1.
         23    2    1    2    0    0  0.13525371979E+03 -0.85176818619E+03 -0.90031118250E+03  0.12502444593E+04  0.93532726700E+02 0.  0.
        254    2    1    2    0    0 -0.13525371979E+03  0.85176818619E+03  0.52575796199E+03  0.13581569921E+04  0.90794623681E+03 0.  0.
        -24    2    4    4    0    0  0.32367746960E+03  0.57163655064E+03  0.10348367703E+03  0.66971724965E+03  0.79226717208E+02 0.  0.
         24    2    4    4    0    0 -0.45893118939E+03  0.28013163556E+03  0.42227428496E+03  0.68843974248E+03  0.80883480674E+02 0.  0.
         13    1    3    3    0    0 -0.93710205010E+00 -0.15558927467E+03 -0.20034886427E+03  0.25367019527E+03  0.00000000000E+00 0.  1.
        -13    1    3    3    0    0  0.13619082184E+03 -0.69617891152E+03 -0.69996231823E+03  0.99657426404E+03  0.00000000000E+00 0. -1.
          2    1    6    6  502    0 -0.28129687092E+03  0.20440345267E+03  0.23681896094E+03  0.42070407808E+03  0.00000000000E+00 0. -1.
          3    1    5    5  503    0  0.24558510027E+03  0.35791117436E+03  0.72291888976E+02  0.44004382443E+03  0.00000000000E+00 0. -1.
         -4    1    5    5    0  503  0.78092369333E+02  0.21372537627E+03  0.31191788057E+02  0.22967342522E+03  0.00000000000E+00 0.  1.
         -1    1    6    6    0  502 -0.17763431847E+03  0.75728182888E+02  0.18545532402E+03  0.26773566439E+03  0.00000000000E+00 0.  1.
<mgrwt>
<rscale>  0 0.25813694E+04</rscale>
<asrwt>0</asrwt>
<pdfrwt beam="1">  1        1 0.22945805E+00 0.25813694E+04</pdfrwt>
<pdfrwt beam="2">  1       -1 0.17183448E+00 0.25813694E+04</pdfrwt>
<totfact> 0.13955961E+00</totfact>
</mgrwt>
</event>
<event>
12    1  0.1598876E-007  0.1527158E+04  0.7818608E-02  0.8866591E-01
         -2   -1    0    0    0  501 -0.00000000000E+00  0.00000000000E+00  0.12119050442E+04  0.12119050442E+04  0.00000000000E+00 0.  1.
          2   -1    0    0  501    0  0.00000000000E+00 -0.00000000000E+00 -0.48110453967E+03  0.48110453967E+03  0.00000000000E+00 0. -1.
         23    2    1    2    0    0  0.44152659754E+00  0.46205157107E+03  0.35765354395E+02  0.47234249705E+03  0.91304023279E+02 0.  0.
        254    2    1    2    0    0 -0.44152659754E+00 -0.46205157107E+03  0.69503515017E+03  0.12206670869E+04  0.89076507997E+03 0.  0.
        -24    2    4    4    0    0  0.34043558250E+01 -0.56288936332E+03  0.84783213217E+03  0.10201377224E+04  0.70750430663E+02 0.  0.
         24    2    4    4    0    0 -0.38458824225E+01  0.10083779225E+03 -0.15279698201E+03  0.20052936441E+03  0.81743850681E+02 0.  0.
         13    1    3    3    0    0  0.15247655266E+02  0.38964083471E+03  0.60072227679E+02  0.39453915345E+03  0.00000000000E+00 0.  1.
        -13    1    3    3    0    0 -0.14806128669E+02  0.72410736366E+02 -0.24306873284E+02  0.77803343604E+02  0.00000000000E+00 0. -1.
          2    1    6    6  502    0 -0.41662294452E+02  0.47794584388E+02 -0.89634513968E+02  0.10979260071E+03  0.00000000000E+00 0. -1.
          1    1    5    5  503    0  0.26064244051E+02 -0.20292619492E+03  0.26596461908E+03  0.33555262479E+03  0.00000000000E+00 0. -1.
         -2    1    5    5    0  503 -0.22659888226E+02 -0.35996316840E+03  0.58186751309E+03  0.68458509766E+03  0.00000000000E+00 0.  1.
         -1    1    6    6    0  502  0.37816412029E+02  0.53043207861E+02 -0.63162468037E+02  0.90736763705E+02  0.00000000000E+00 0.  1.
<mgrwt>
<rscale>  0 0.15271582E+04</rscale>
<asrwt>0</asrwt>
<pdfrwt beam="1">  1        2 0.74016084E-01 0.15271582E+04</pdfrwt>
<pdfrwt beam="2">  1       -2 0.18644693E+00 0.15271582E+04</pdfrwt>
<totfact> 0.10159733E+01</totfact>
</mgrwt>
</event>
<event>
12    1  0.1598876E-007  0.3321187E+04  0.7818608E-02  0.8157525E-01
          2   -1    0    0  501    0  0.00000000000E+00  0.00000000000E+00  0.36775243685E+04  0.36775243685E+04  0.00000000000E+00 0. -1.
         -2   -1    0    0    0  501 -0.00000000000E+00 -0.00000000000E+00 -0.74984435379E+03  0.74984435379E+03  0.00000000000E+00 0.  1.
         23    2    1    2    0    0  0.11466379341E+04  0.74196567742E+03  0.41876326917E+03  0.14315092592E+04  0.92544396522E+02 0.  0.
        254    2    1    2    0    0 -0.11466379341E+04 -0.74196567742E+03  0.25089167456E+04  0.29958594631E+04  0.90289482675E+03 0.  0.
        -24    2    4    4    0    0 -0.10654436710E+03  0.16585858807E+03  0.61672176628E+03  0.65212287382E+03  0.77831434222E+02 0.  0.
         24    2    4    4    0    0 -0.10400935670E+04 -0.90782426549E+03  0.18921949793E+04  0.23437365893E+04  0.82218217401E+02 0.  0.
         13    1    3    3    0    0  0.10746007155E+04  0.68508763906E+03  0.36729855279E+03  0.13262805125E+04  0.00000000000E+00 0.  1.
        -13    1    3    3    0    0  0.72037218596E+02  0.56878038361E+02  0.51464716381E+02  0.10522874675E+03  0.00000000000E+00 0. -1.
          4    1    6    6  502    0 -0.60881773597E+03 -0.58247230824E+03  0.11337169526E+04  0.14125321781E+04  0.00000000000E+00 0. -1.
          3    1    5    5  503    0 -0.10404503220E+03  0.10065345886E+03  0.38236846843E+03  0.40885466019E+03  0.00000000000E+00 0. -1.
         -4    1    5    5    0  503 -0.24993349048E+01  0.65205129211E+02  0.23435329785E+03  0.24326821363E+03  0.00000000000E+00 0.  1.
         -3    1    6    6    0  502 -0.43127583098E+03 -0.32535195725E+03  0.75847802670E+03  0.93120441121E+03  0.00000000000E+00 0.  1.
<mgrwt>
<rscale>  0 0.33211871E+04</rscale>
<asrwt>0</asrwt>
<pdfrwt beam="1">  1        2 0.56577297E+00 0.33211871E+04</pdfrwt>
<pdfrwt beam="2">  1       -2 0.11536067E+00 0.33211871E+04</pdfrwt>
<totfact> 0.29534557E-01</totfact>
</mgrwt>
</event>
<event>
12    1  0.1598876E-007  0.1047804E+04  0.7818608E-02  0.9257614E-01
         -2   -1    0    0    0  501 -0.00000000000E+00  0.00000000000E+00  0.32411201004E+03  0.32411201004E+03  0.00000000000E+00 0.  1.
          2   -1    0    0  501    0  0.00000000000E+00 -0.00000000000E+00 -0.84684729670E+03  0.84684729670E+03  0.00000000000E+00 0. -1.
         23    2    1    2    0    0  0.83374785153E+02 -0.16950716525E+02 -0.18468338878E+03  0.22827992224E+03  0.10375493826E+03 0.  0.
        254    2    1    2    0    0 -0.83374785153E+02  0.16950716525E+02 -0.33805189787E+03  0.94267938450E+03  0.87585766807E+03 0.  0.
        -24    2    4    4    0    0  0.15009964695E+03  0.19405268170E+03 -0.52590951373E+03  0.58618321672E+03  0.82726051715E+02 0.  0.
         24    2    4    4    0    0 -0.23347443210E+03 -0.17710196518E+03  0.18785761586E+03  0.35649616779E+03  0.76965039432E+02 0.  0.
         13    1    3    3    0    0  0.43058273413E+02 -0.15254329530E+02 -0.71723214233E+01  0.46240152177E+02  0.00000000000E+00 0.  1.
        -13    1    3    3    0    0  0.40316511740E+02 -0.16963869951E+01 -0.17751106736E+03  0.18203977006E+03  0.00000000000E+00 0. -1.
          4    1    6    6  502    0 -0.12181663869E+03 -0.49109104562E+02  0.10124424623E+03  0.16583544556E+03  0.00000000000E+00 0. -1.
          3    1    5    5  503    0  0.11169857199E+03  0.16571806477E+03 -0.48009190066E+03  0.52002623112E+03  0.00000000000E+00 0. -1.
         -4    1    5    5    0  503  0.38401074966E+02  0.28334616935E+02 -0.45817613079E+02  0.66156985600E+02  0.00000000000E+00 0.  1.
         -1    1    6    6    0  502 -0.11165779342E+03 -0.12799286061E+03  0.86613369634E+02  0.19066072222E+03  0.00000000000E+00 0.  1.
<mgrwt>
<rscale>  0 0.10478041E+04</rscale>
<asrwt>0</asrwt>
<pdfrwt beam="1">  1        2 0.13028420E+00 0.10478041E+04</pdfrwt>
<pdfrwt beam="2">  1       -2 0.49863387E-01 0.10478041E+04</pdfrwt>
<totfact> 0.12088115E+02</totfact>
</mgrwt>
</event>
<event>
12    1  0.1598876E-007  0.1500749E+04  0.7818608E-02  0.8883955E-01
         -2   -1    0    0    0  501 -0.00000000000E+00  0.00000000000E+00  0.37733232412E+03  0.37733232412E+03  0.00000000000E+00 0.  1.
          2   -1    0    0  501    0  0.00000000000E+00 -0.00000000000E+00 -0.14922169681E+04  0.14922169681E+04  0.00000000000E+00 0. -1.
         23    2    1    2    0    0  0.42834895002E+02  0.17920850880E+02  0.22943497120E+03  0.25180882252E+03  0.92797047190E+02 0.  0.
        254    2    1    2    0    0 -0.42834895002E+02 -0.17920850880E+02 -0.13443196151E+04  0.16177404697E+04  0.89873968111E+03 0.  0.
        -24    2    4    4    0    0  0.14479078554E+03  0.65953054436E+02  0.65818452822E+02  0.19052817812E+03  0.81576595662E+02 0.  0.
         24    2    4    4    0    0 -0.18762568054E+03 -0.83873905316E+02 -0.14101380680E+04  0.14272122915E+04  0.78786587793E+02 0.  0.
         13    1    3    3    0    0  0.35167143315E+01 -0.87547506211E+01  0.18952006973E+03  0.18975476217E+03  0.00000000000E+00 0.  1.
        -13    1    3    3    0    0  0.39318180670E+02  0.26675601501E+02  0.39914901468E+02  0.62054060349E+02  0.00000000000E+00 0. -1.
          4    1    6    6  502    0 -0.67136853728E+02 -0.64761355446E+02 -0.76246408261E+03  0.76814898787E+03  0.00000000000E+00 0. -1.
          1    1    5    5  503    0  0.13876835940E+03  0.77765111006E+02  0.73470421221E+02  0.17521978443E+03  0.00000000000E+00 0. -1.
         -2    1    5    5    0  503  0.60224261333E+01 -0.11812056571E+02 -0.76519683990E+01  0.15308393689E+02  0.00000000000E+00 0.  1.
         -3    1    6    6    0  502 -0.12048882681E+03 -0.19112549869E+02 -0.64767398534E+03  0.65906330367E+03  0.00000000000E+00 0.  1.
<mgrwt>
<rscale>  0 0.15007487E+04</rscale>
<asrwt>0</asrwt>
<pdfrwt beam="1">  1        2 0.22957184E+00 0.15007487E+04</pdfrwt>
<pdfrwt beam="2">  1       -2 0.58051127E-01 0.15007487E+04</pdfrwt>
<totfact> 0.34396981E+01</totfact>
</mgrwt>
</event>
<event>
12    1  0.1598876E-007  0.1308356E+04  0.7818608E-02  0.9022965E-01
          4   -1    0    0  501    0  0.00000000000E+00  0.00000000000E+00  0.66470975003E+03  0.66470975003E+03  0.00000000000E+00 0.  1.
         -4   -1    0    0    0  501 -0.00000000000E+00 -0.00000000000E+00 -0.64381353515E+03  0.64381353515E+03  0.00000000000E+00 0. -1.
         23    2    1    2    0    0  0.10717080114E+03 -0.14686940932E+03  0.29050372055E+03  0.35431358200E+03  0.89941640636E+02 0.  0.
        254    2    1    2    0    0 -0.10717080114E+03  0.14686940932E+03 -0.26960750568E+03  0.95420970318E+03  0.89709071253E+03 0.  0.
        -24    2    4    4    0    0  0.11742493737E+03  0.47347688544E+03 -0.57649368550E+02  0.49756712272E+03  0.79250330930E+02 0.  0.
         24    2    4    4    0    0 -0.22459573851E+03 -0.32660747611E+03 -0.21195813713E+03  0.45664258047E+03  0.80501585006E+02 0.  0.
         11    1    3    3    0    0  0.12152440024E+03 -0.11917916223E+03  0.22873075213E+03  0.28511332752E+03  0.00000000000E+00 0.  1.
        -11    1    3    3    0    0 -0.14353599095E+02 -0.27690247095E+02  0.61772968427E+02  0.69200254475E+02  0.00000000000E+00 0. -1.
          4    1    6    6  502    0 -0.11685207678E+03 -0.22306148530E+03 -0.10476903852E+03  0.27274050947E+03  0.00000000000E+00 0. -1.
          3    1    5    5  503    0  0.73412633286E+02  0.36372348524E+03 -0.73477221744E+02  0.37826325563E+03  0.00000000000E+00 0. -1.
         -4    1    5    5    0  503  0.44012304084E+02  0.10975340020E+03  0.15827853194E+02  0.11930386709E+03  0.00000000000E+00 0.  1.
         -3    1    6    6    0  502 -0.10774366173E+03 -0.10354599081E+03 -0.10718909861E+03  0.18390207100E+03  0.00000000000E+00 0.  1.
<mgrwt>
<rscale>  0 0.13083564E+04</rscale>
<asrwt>0</asrwt>
<pdfrwt beam="1">  1        4 0.10226304E+00 0.13083564E+04</pdfrwt>
<pdfrwt beam="2">  1       -4 0.99048235E-01 0.13083564E+04</pdfrwt>
<totfact> 0.12929520E+00</totfact>
</mgrwt>
</event>
<event>
12    1  0.1598876E-007  0.2452980E+04  0.7818608E-02  0.8419931E-01
         -1   -1    0    0    0  501 -0.00000000000E+00  0.00000000000E+00  0.59358172449E+03  0.59358172449E+03  0.00000000000E+00 0.  1.
          1   -1    0    0  501    0  0.00000000000E+00 -0.00000000000E+00 -0.25342383341E+04  0.25342383341E+04  0.00000000000E+00 0. -1.
         23    2    1    2    0    0  0.83901187183E+03 -0.57163865091E+03 -0.46392568966E+03  0.11200333510E+04  0.92390441229E+02 0.  0.
        254    2    1    2    0    0 -0.83901187183E+03  0.57163865091E+03 -0.14767309200E+04  0.20077867076E+04  0.90540686148E+03 0.  0.
        -24    2    4    4    0    0 -0.19273278541E+03 -0.18845616775E+03 -0.85430298039E+02  0.29383686566E+03  0.79875616199E+02 0.  0.
         24    2    4    4    0    0 -0.64627908642E+03  0.76009481866E+03 -0.13913006220E+04  0.17139498419E+04  0.80534769453E+02 0.  0.
         11    1    3    3    0    0  0.34361685554E+03 -0.21749487074E+03 -0.23350384815E+03  0.46893561318E+03  0.00000000000E+00 0. -1.
        -11    1    3    3    0    0  0.49539501629E+03 -0.35414378017E+03 -0.23042184150E+03  0.65109773786E+03  0.00000000000E+00 0.  1.
          4    1    6    6  502    0 -0.11195364198E+03  0.11322863806E+03 -0.27075852298E+03  0.31410908964E+03  0.00000000000E+00 0. -1.
          1    1    5    5  503    0 -0.93810978678E+01  0.72646113749E+01  0.13904972716E+01  0.11946257083E+02  0.00000000000E+00 0. -1.
         -2    1    5    5    0  503 -0.18335168754E+03 -0.19572077912E+03 -0.86820795311E+02  0.28189060858E+03  0.00000000000E+00 0.  1.
         -3    1    6    6    0  502 -0.53432544444E+03  0.64686618060E+03 -0.11205420990E+04  0.13998407523E+04  0.00000000000E+00 0.  1.
<mgrwt>
<rscale>  0 0.24529799E+04</rscale>
<asrwt>0</asrwt>
<pdfrwt beam="1">  1        1 0.38988281E+00 0.24529799E+04</pdfrwt>
<pdfrwt beam="2">  1       -1 0.91320267E-01 0.24529799E+04</pdfrwt>
<totfact> 0.13376654E+00</totfact>
</mgrwt>
</event>
<event>
12    1  0.1598876E-007  0.2144667E+04  0.7818608E-02  0.8541819E-01
          2   -1    0    0  501    0  0.00000000000E+00  0.00000000000E+00  0.18192530284E+04  0.18192530284E+04  0.00000000000E+00 0. -1.
         -2   -1    0    0    0  501 -0.00000000000E+00 -0.00000000000E+00 -0.63207191803E+03  0.63207191803E+03  0.00000000000E+00 0.  1.
         23    2    1    2    0    0 -0.35309453425E+03  0.35239018914E+03 -0.34499960202E+03  0.61385657089E+03  0.94554580582E+02 0.  0.
        254    2    1    2    0    0  0.35309453425E+03 -0.35239018914E+03  0.15321807124E+04  0.18374683756E+04  0.88309552157E+03 0.  0.
        -24    2    4    4    0    0  0.24194330161E+02 -0.14757839685E+03  0.14146229595E+04  0.14247617862E+04  0.80145374457E+02 0.  0.
         24    2    4    4    0    0  0.32890020409E+03 -0.20481179229E+03  0.11755775296E+03  0.41270658941E+03  0.79897992156E+02 0.  0.
         11    1    3    3    0    0 -0.26961336869E+03  0.20638734868E+03 -0.22876648331E+03  0.40941569359E+03  0.00000000000E+00 0.  1.
        -11    1    3    3    0    0 -0.83481165564E+02  0.14600284046E+03 -0.11623311870E+03  0.20444087730E+03  0.00000000000E+00 0. -1.
          4    1    6    6  502    0  0.37621309840E+02  0.30686950504E+01  0.12155626680E+02  0.39655253162E+02  0.00000000000E+00 0. -1.
          1    1    5    5  503    0  0.47073022811E+02 -0.47472611427E+02  0.53090311990E+03  0.53509591760E+03  0.00000000000E+00 0. -1.
         -2    1    5    5    0  503 -0.22878692650E+02 -0.10010578542E+03  0.88371983957E+03  0.88966586857E+03  0.00000000000E+00 0.  1.
         -3    1    6    6    0  502  0.29127889425E+03 -0.20788048734E+03  0.10540212628E+03  0.37305133625E+03  0.00000000000E+00 0.  1.
<mgrwt>
<rscale>  0 0.21446666E+04</rscale>
<asrwt>0</asrwt>
<pdfrwt beam="1">  1        2 0.27988508E+00 0.21446666E+04</pdfrwt>
<pdfrwt beam="2">  1       -2 0.97241834E-01 0.21446666E+04</pdfrwt>
<totfact> 0.68210353E+00</totfact>
</mgrwt>
</event>
<event>
12    1  0.1598876E-007  0.2537791E+04  0.7818608E-02  0.8389645E-01
         -1   -1    0    0    0  501 -0.00000000000E+00  0.00000000000E+00  0.88376863629E+03  0.88376863629E+03  0.00000000000E+00 0.  1.
          1   -1    0    0  501    0  0.00000000000E+00 -0.00000000000E+00 -0.18218527640E+04  0.18218527640E+04  0.00000000000E+00 0. -1.
         23    2    1    2    0    0 -0.23957785021E+03 -0.38662915607E+01 -0.15614267916E+04  0.15823555535E+04  0.91558602874E+02 0.  0.
        254    2    1    2    0    0  0.23957785021E+03  0.38662915607E+01  0.62334266383E+03  0.11232658468E+04  0.90319299796E+03 0.  0.
        -24    2    4    4    0    0  0.28217432842E+03  0.16263786390E+03  0.80090423578E+03  0.86837852232E+03  0.80995288443E+02 0.  0.
         24    2    4    4    0    0 -0.42596478209E+02 -0.15877157233E+03 -0.17756157195E+03  0.25488732450E+03  0.80103459479E+02 0.  0.
         11    1    3    3    0    0  0.40343860493E+01  0.75163854905E+01 -0.13186138689E+03  0.13213704127E+03  0.00000000000E+00 0.  1.
        -11    1    3    3    0    0 -0.24361223626E+03 -0.11382677051E+02 -0.14295654047E+04  0.14502185122E+04  0.00000000000E+00 0. -1.
          2    1    6    6  502    0 -0.31778057548E+02 -0.12157676233E+03 -0.17582292978E+03  0.21611213922E+03  0.00000000000E+00 0. -1.
          1    1    5    5  503    0  0.25525208506E+03  0.16077482838E+03  0.67087397088E+03  0.73557736315E+03  0.00000000000E+00 0. -1.
         -2    1    5    5    0  503  0.26922243358E+02  0.18630355164E+01  0.13003026490E+03  0.13280115917E+03  0.00000000000E+00 0.  1.
         -1    1    6    6    0  502 -0.10818420660E+02 -0.37194810003E+02 -0.17386421620E+01  0.38775185278E+02  0.00000000000E+00 0.  1.
<mgrwt>
<rscale>  0 0.25377914E+04</rscale>
<asrwt>0</asrwt>
<pdfrwt beam="1">  1        1 0.28028504E+00 0.25377914E+04</pdfrwt>
<pdfrwt beam="2">  1       -1 0.13596441E+00 0.25377914E+04</pdfrwt>
<totfact> 0.15766634E+00</totfact>
</mgrwt>
</event>
<event>
12    1  0.1598876E-007  0.1717676E+04  0.7818608E-02  0.8751347E-01
          1   -1    0    0  501    0  0.00000000000E+00  0.00000000000E+00  0.15739243227E+04  0.15739243227E+04  0.00000000000E+00 0. -1.
         -1   -1    0    0    0  501 -0.00000000000E+00 -0.00000000000E+00 -0.46863915464E+03  0.46863915464E+03  0.00000000000E+00 0.  1.
         23    2    1    2    0    0 -0.64841215255E+02 -0.61206734325E+03  0.49797537749E+03  0.79688564826E+03  0.90644602440E+02 0.  0.
        254    2    1    2    0    0  0.64841215255E+02  0.61206734325E+03  0.60730979057E+03  0.12456778291E+04  0.89669239779E+03 0.  0.
        -24    2    4    4    0    0 -0.39352144685E+03  0.33745506868E+03  0.42600823548E+03  0.67576143826E+03  0.80221270422E+02 0.  0.
         24    2    4    4    0    0  0.45836266211E+03  0.27461227457E+03  0.18130155509E+03  0.56991639081E+03  0.80163628184E+02 0.  0.
         13    1    3    3    0    0 -0.87965399823E+02 -0.48028306698E+03  0.38624278455E+03  0.62256985520E+03  0.00000000000E+00 0. -1.
        -13    1    3    3    0    0  0.23124184568E+02 -0.13178427627E+03  0.11173259295E+03  0.17431579306E+03  0.00000000000E+00 0.  1.
          4    1    6    6  502    0  0.31675528790E+03  0.15179971884E+03  0.97078008611E+02  0.36441899897E+03  0.00000000000E+00 0. -1.
          3    1    5    5  503    0 -0.78996633381E+01 -0.44322325732E+01  0.53400666996E+01  0.10515021578E+02  0.00000000000E+00 0. -1.
         -2    1    5    5    0  503 -0.38562178351E+03  0.34188730126E+03  0.42066816878E+03  0.66524641668E+03  0.00000000000E+00 0.  1.
         -3    1    6    6    0  502  0.14160737421E+03  0.12281255573E+03  0.84223546477E+02  0.20549739185E+03  0.00000000000E+00 0.  1.
<mgrwt>
<rscale>  0 0.17176758E+04</rscale>
<asrwt>0</asrwt>
<pdfrwt beam="1">  1        1 0.24214220E+00 0.17176758E+04</pdfrwt>
<pdfrwt beam="2">  1       -1 0.72098332E-01 0.17176758E+04</pdfrwt>
<totfact> 0.10725955E+01</totfact>
</mgrwt>
</event>
<event>
12    1  0.1598876E-007  0.1400654E+04  0.7818608E-02  0.8953345E-01
         -2   -1    0    0    0  501 -0.00000000000E+00  0.00000000000E+00  0.36743245164E+03  0.36743245164E+03  0.00000000000E+00 0.  1.
          2   -1    0    0  501    0  0.00000000000E+00 -0.00000000000E+00 -0.13348255076E+04  0.13348255076E+04  0.00000000000E+00 0. -1.
         23    2    1    2    0    0 -0.78777415633E+02 -0.35601654090E+02 -0.76388959089E+03  0.77616764224E+03  0.10693709742E+03 0.  0.
        254    2    1    2    0    0  0.78777415633E+02  0.35601654090E+02 -0.20350346511E+03  0.92609031703E+03  0.89930876566E+03 0.  0.
        -24    2    4    4    0    0  0.38918498955E+03  0.21483797586E+03  0.84551135032E+02  0.45946583183E+03  0.79621882814E+02 0.  0.
         24    2    4    4    0    0 -0.31040757392E+03 -0.17923632177E+03 -0.28805460014E+03  0.46662448520E+03  0.79274438105E+02 0.  0.
         11    1    3    3    0    0 -0.71832691115E+02 -0.62331384264E+02 -0.39671067382E+03  0.40795158500E+03  0.00000000000E+00 0.  1.
        -11    1    3    3    0    0 -0.69447245177E+01  0.26729730174E+02 -0.36717891707E+03  0.36821605724E+03  0.00000000000E+00 0. -1.
          4    1    6    6  502    0 -0.22152622719E+02  0.42762296583E+01 -0.54982267936E+01  0.23221871830E+02  0.00000000000E+00 0. -1.
          3    1    5    5  503    0  0.10977972174E+03  0.55172263043E+02  0.59974789245E+02  0.13672066873E+03  0.00000000000E+00 0. -1.
         -4    1    5    5    0  503  0.27940526781E+03  0.15966571282E+03  0.24576345787E+02  0.32274516310E+03  0.00000000000E+00 0.  1.
         -3    1    6    6    0  502 -0.28825495120E+03 -0.18351255143E+03 -0.28255637334E+03  0.44340261337E+03  0.00000000000E+00 0.  1.
<mgrwt>
<rscale>  0 0.14006544E+04</rscale>
<asrwt>0</asrwt>
<pdfrwt beam="1">  1        2 0.20535777E+00 0.14006544E+04</pdfrwt>
<pdfrwt beam="2">  1       -2 0.56528069E-01 0.14006544E+04</pdfrwt>
<totfact> 0.45081387E+01</totfact>
</mgrwt>
</event>
<event>
12    1  0.1598876E-007  0.1503287E+04  0.7818608E-02  0.8882270E-01
         -2   -1    0    0    0  501 -0.00000000000E+00  0.00000000000E+00  0.64336538993E+03  0.64336538993E+03  0.00000000000E+00 0.  1.
          2   -1    0    0  501    0  0.00000000000E+00 -0.00000000000E+00 -0.87814515427E+03  0.87814515427E+03  0.00000000000E+00 0. -1.
         23    2    1    2    0    0 -0.39347946274E+03 -0.49812928338E+02 -0.33491690763E+03  0.52592544808E+03  0.84384989755E+02 0.  0.
        254    2    1    2    0    0  0.39347946274E+03  0.49812928338E+02  0.10013714329E+03  0.99558509612E+03  0.90766448688E+03 0.  0.
        -24    2    4    4    0    0  0.58998631102E+03 -0.80201258486E+02  0.30453946467E+03  0.67390616804E+03  0.83000895961E+02 0.  0.
         24    2    4    4    0    0 -0.19650684828E+03  0.13001418682E+03 -0.20440232138E+03  0.32167892808E+03  0.78602758158E+02 0.  0.
         11    1    3    3    0    0 -0.23316239779E+03 -0.11124682432E+01 -0.15450220409E+03  0.27970854902E+03  0.00000000000E+00 0.  1.
        -11    1    3    3    0    0 -0.16031706494E+03 -0.48700460095E+02 -0.18041470354E+03  0.24621689905E+03  0.00000000000E+00 0. -1.
          2    1    6    6  502    0 -0.13560317514E+03  0.10499970738E+03 -0.18666791100E+03  0.25349175263E+03  0.00000000000E+00 0. -1.
          1    1    5    5  503    0  0.57910937983E+03 -0.87228741551E+02  0.28722346036E+03  0.65228356053E+03  0.00000000000E+00 0. -1.
         -2    1    5    5    0  503  0.10876931190E+02  0.70274830642E+01  0.17316004306E+02  0.21622607508E+02  0.00000000000E+00 0.  1.
         -1    1    6    6    0  502 -0.60903673141E+02  0.25014479449E+02 -0.17734410382E+02  0.68187175450E+02  0.00000000000E+00 0.  1.
<mgrwt>
<rscale>  0 0.15032873E+04</rscale>
<asrwt>0</asrwt>
<pdfrwt beam="1">  1        2 0.13509925E+00 0.15032873E+04</pdfrwt>
<pdfrwt beam="2">  1       -2 0.98979291E-01 0.15032873E+04</pdfrwt>
<totfact> 0.24812794E+01</totfact>
</mgrwt>
</event>
<event>
12    1  0.1598876E-007  0.1944316E+04  0.7818608E-02  0.8633106E-01
         -1   -1    0    0    0  501 -0.00000000000E+00  0.00000000000E+00  0.34514059291E+03  0.34514059291E+03  0.00000000000E+00 0.  1.
          1   -1    0    0  501    0  0.00000000000E+00 -0.00000000000E+00 -0.27382800999E+04  0.27382800999E+04  0.00000000000E+00 0. -1.
         23    2    1    2    0    0 -0.51126828360E+03 -0.28971359968E+03 -0.17048041172E+04  0.18055348906E+04  0.90939185140E+02 0.  0.
        254    2    1    2    0    0  0.51126828360E+03  0.28971359968E+03 -0.68833538978E+03  0.12778858022E+04  0.90214039210E+03 0.  0.
        -24    2    4    4    0    0  0.53814947004E+03  0.41461511323E+03 -0.82736866506E+03  0.10736756773E+04  0.82036625396E+02 0.  0.
         24    2    4    4    0    0 -0.26881186437E+02 -0.12490151355E+03  0.13903327528E+03  0.20421012492E+03  0.77772342204E+02 0.  0.
         13    1    3    3    0    0 -0.37466194727E+02 -0.40511916646E+02 -0.23145754464E+03  0.23794437608E+03  0.00000000000E+00 0.  1.
        -13    1    3    3    0    0 -0.47380208887E+03 -0.24920168303E+03 -0.14733465726E+04  0.15675905145E+04  0.00000000000E+00 0. -1.
          2    1    6    6  502    0  0.88693124481E+01 -0.87010399184E+02  0.12054657881E+03  0.14893270941E+03  0.00000000000E+00 0. -1.
          3    1    5    5  503    0  0.53669624721E+03  0.40117099604E+03 -0.81702489782E+03  0.10566507055E+04  0.00000000000E+00 0. -1.
         -4    1    5    5    0  503  0.14532228274E+01  0.13444117184E+02 -0.10343767238E+02  0.17024971781E+02  0.00000000000E+00 0.  1.
         -1    1    6    6    0  502 -0.35750498885E+02 -0.37891114367E+02  0.18486696465E+02  0.55277415503E+02  0.00000000000E+00 0.  1.
<mgrwt>
<rscale>  0 0.19443165E+04</rscale>
<asrwt>0</asrwt>
<pdfrwt beam="1">  1        1 0.42127386E+00 0.19443165E+04</pdfrwt>
<pdfrwt beam="2">  1       -1 0.53098553E-01 0.19443165E+04</pdfrwt>
<totfact> 0.30777020E+00</totfact>
</mgrwt>
</event>
<event>
12    1  0.1598876E-007  0.1792433E+04  0.7818608E-02  0.8710334E-01
          1   -1    0    0  501    0  0.00000000000E+00  0.00000000000E+00  0.16700901143E+04  0.16700901143E+04  0.00000000000E+00 0. -1.
         -1   -1    0    0    0  501 -0.00000000000E+00 -0.00000000000E+00 -0.48093457346E+03  0.48093457346E+03  0.00000000000E+00 0.  1.
         23    2    1    2    0    0  0.25221776892E+03  0.13066748222E+03  0.11710653890E+04  0.12085249040E+04  0.91926625226E+02 0.  0.
        254    2    1    2    0    0 -0.25221776892E+03 -0.13066748222E+03  0.18090151878E+02  0.94249978378E+03  0.89849362545E+03 0.  0.
        -24    2    4    4    0    0  0.11279166530E+03  0.22995815369E+03 -0.24296395839E+03  0.36128173440E+03  0.76748252907E+02 0.  0.
         24    2    4    4    0    0 -0.36500943423E+03 -0.36062563591E+03  0.26105411026E+03  0.58121804938E+03  0.79890150177E+02 0.  0.
         13    1    3    3    0    0  0.15458947227E+03  0.11190577338E+03  0.62513427802E+03  0.65361584483E+03  0.00000000000E+00 0. -1.
        -13    1    3    3    0    0  0.97628296654E+02  0.18761708833E+02  0.54593111099E+03  0.55490905919E+03  0.00000000000E+00 0.  1.
          2    1    6    6  502    0 -0.27048446451E+03 -0.31118417049E+03  0.21543482432E+03  0.46519844909E+03  0.00000000000E+00 0. -1.
          1    1    5    5  503    0  0.38307628650E+02  0.14611939608E+03 -0.17035443681E+03  0.22768176577E+03  0.00000000000E+00 0. -1.
         -2    1    5    5    0  503  0.74484036653E+02  0.83838757613E+02 -0.72609521579E+02  0.13359996863E+03  0.00000000000E+00 0.  1.
         -1    1    6    6    0  502 -0.94524969716E+02 -0.49441465419E+02  0.45619285943E+02  0.11601960029E+03  0.00000000000E+00 0.  1.
<mgrwt>
<rscale>  0 0.17924331E+04</rscale>
<asrwt>0</asrwt>
<pdfrwt beam="1">  1        1 0.25693694E+00 0.17924331E+04</pdfrwt>
<pdfrwt beam="2">  1       -1 0.73989935E-01 0.17924331E+04</pdfrwt>
<totfact> 0.86754920E+00</totfact>
</mgrwt>
</event>
<event>
12    1  0.1598876E-007  0.1378963E+04  0.7818608E-02  0.8969189E-01
          1   -1    0    0  501    0  0.00000000000E+00  0.00000000000E+00  0.96040745334E+03  0.96040745334E+03  0.00000000000E+00 0. -1.
         -1   -1    0    0    0  501 -0.00000000000E+00 -0.00000000000E+00 -0.49498232078E+03  0.49498232078E+03  0.00000000000E+00 0.  1.
         23    2    1    2    0    0 -0.12586276203E+03  0.19770409001E+03 -0.20117735542E+03  0.32219309107E+03  0.91693606801E+02 0.  0.
        254    2    1    2    0    0  0.12586276203E+03 -0.19770409001E+03  0.66660248798E+03  0.11331966830E+04  0.88591619435E+03 0.  0.
        -24    2    4    4    0    0  0.36223465175E+03 -0.91808528252E+02  0.75702289033E+03  0.84767740336E+03  0.76358201202E+02 0.  0.
         24    2    4    4    0    0 -0.23637188972E+03 -0.10589556176E+03 -0.90420402350E+02  0.28551927969E+03  0.79119338098E+02 0.  0.
         13    1    3    3    0    0 -0.10413600483E+02  0.25341848818E+02 -0.73879881242E+02  0.78796505182E+02  0.00000000000E+00 0.  1.
        -13    1    3    3    0    0 -0.11544916155E+03  0.17236224119E+03 -0.12729747418E+03  0.24339658589E+03  0.00000000000E+00 0. -1.
          2    1    6    6  502    0 -0.50823380325E+02 -0.55304507243E+02 -0.55861509234E+01  0.75318056210E+02  0.00000000000E+00 0. -1.
          1    1    5    5  503    0  0.16004665948E+03 -0.29272894341E+02  0.41140327606E+03  0.44240760742E+03  0.00000000000E+00 0. -1.
         -2    1    5    5    0  503  0.20218799228E+03 -0.62535633912E+02  0.34561961426E+03  0.40526979593E+03  0.00000000000E+00 0.  1.
         -1    1    6    6    0  502 -0.18554850939E+03 -0.50591054517E+02 -0.84834251427E+02  0.21020122348E+03  0.00000000000E+00 0.  1.
<mgrwt>
<rscale>  0 0.13789630E+04</rscale>
<asrwt>0</asrwt>
<pdfrwt beam="1">  1        1 0.14775499E+00 0.13789630E+04</pdfrwt>
<pdfrwt beam="2">  1       -1 0.76151127E-01 0.13789630E+04</pdfrwt>
<totfact> 0.27506702E+01</totfact>
</mgrwt>
</event>
<event>
12    1  0.1598876E-007  0.1175571E+04  0.7818608E-02  0.9134512E-01
          2   -1    0    0  501    0  0.00000000000E+00  0.00000000000E+00  0.35881732441E+03  0.35881732441E+03  0.00000000000E+00 0. -1.
         -2   -1    0    0    0  501 -0.00000000000E+00 -0.00000000000E+00 -0.96286193229E+03  0.96286193229E+03  0.00000000000E+00 0.  1.
         23    2    1    2    0    0 -0.17610152521E+03  0.13117201839E+03 -0.74341553586E+02  0.24940631720E+03  0.91972815981E+02 0.  0.
        254    2    1    2    0    0  0.17610152521E+03 -0.13117201839E+03 -0.52970305429E+03  0.10722729395E+04  0.90607178826E+03 0.  0.
        -24    2    4    4    0    0 -0.19494700652E+02 -0.49824757129E+03 -0.24411005498E+03  0.56081510028E+03  0.79329516021E+02 0.  0.
         24    2    4    4    0    0  0.19559622586E+03  0.36707555290E+03 -0.28559299931E+03  0.51145783923E+03  0.83805816911E+02 0.  0.
         13    1    3    3    0    0 -0.94757542867E+02  0.42078452843E+02  0.69802612716E+01  0.10391492757E+03  0.00000000000E+00 0. -1.
        -13    1    3    3    0    0 -0.81343982340E+02  0.89093565547E+02 -0.81321814857E+02  0.14549138963E+03  0.00000000000E+00 0.  1.
          4    1    6    6  502    0  0.23873747687E+01  0.69189535334E+02 -0.47636012266E+02  0.84036188768E+02  0.00000000000E+00 0. -1.
          3    1    5    5  503    0  0.27459789451E+01 -0.10189955799E+03 -0.86531933548E+02  0.13371176404E+03  0.00000000000E+00 0. -1.
         -4    1    5    5    0  503 -0.22240679597E+02 -0.39634801330E+03 -0.15757812143E+03  0.42710333624E+03  0.00000000000E+00 0.  1.
         -3    1    6    6    0  502  0.19320885109E+03  0.29788601756E+03 -0.23795698704E+03  0.42742165046E+03  0.00000000000E+00 0.  1.
<mgrwt>
<rscale>  0 0.11755706E+04</rscale>
<asrwt>0</asrwt>
<pdfrwt beam="1">  1        2 0.55202666E-01 0.11755706E+04</pdfrwt>
<pdfrwt beam="2">  1       -2 0.14813260E+00 0.11755706E+04</pdfrwt>
<totfact> 0.27478893E+01</totfact>
</mgrwt>
</event>
<event>
12    1  0.1598876E-007  0.2421826E+04  0.7818608E-02  0.8431377E-01
          2   -1    0    0  501    0  0.00000000000E+00  0.00000000000E+00  0.25488934839E+04  0.25488934839E+04  0.00000000000E+00 0. -1.
         -2   -1    0    0    0  501 -0.00000000000E+00 -0.00000000000E+00 -0.57527314117E+03  0.57527314117E+03  0.00000000000E+00 0.  1.
         23    2    1    2    0    0 -0.44765259985E+03 -0.33609503771E+03  0.19852407306E+04  0.20646836230E+04  0.91569537366E+02 0.  0.
        254    2    1    2    0    0  0.44765259985E+03  0.33609503771E+03 -0.11620387899E+02  0.10594830020E+04  0.89945343052E+03 0.  0.
        -24    2    4    4    0    0  0.11355919018E+03 -0.11567020623E+03  0.34481256158E+03  0.38919578559E+03  0.79387471399E+02 0.  0.
         24    2    4    4    0    0  0.33409340967E+03  0.45176524393E+03 -0.35643294948E+03  0.67028721645E+03  0.80810043009E+02 0.  0.
         11    1    3    3    0    0 -0.13023705492E+03 -0.12141574021E+03  0.49815758240E+03  0.52902216338E+03  0.00000000000E+00 0.  1.
        -11    1    3    3    0    0 -0.31741554494E+03 -0.21467929750E+03  0.14870831482E+04  0.15356614596E+04  0.00000000000E+00 0. -1.
          2    1    6    6  502    0  0.53555224361E+02  0.44737766583E+02 -0.70559529723E+02  0.99238485730E+02  0.00000000000E+00 0. -1.
          3    1    5    5  503    0 -0.56662545359E+01 -0.17159724910E+02  0.10642181951E+02  0.20971853426E+02  0.00000000000E+00 0. -1.
         -4    1    5    5    0  503  0.11922544472E+03 -0.98510481316E+02  0.33417037963E+03  0.36822393216E+03  0.00000000000E+00 0.  1.
         -1    1    6    6    0  502  0.28053818531E+03  0.40702747735E+03 -0.28587341975E+03  0.57104873072E+03  0.00000000000E+00 0.  1.
<mgrwt>
<rscale>  0 0.24218257E+04</rscale>
<asrwt>0</asrwt>
<pdfrwt beam="1">  1        2 0.39213745E+00 0.24218257E+04</pdfrwt>
<pdfrwt beam="2">  1       -2 0.88503562E-01 0.24218257E+04</pdfrwt>
<totfact> 0.32143809E+00</totfact>
</mgrwt>
</event>
<event>
12    1  0.1598876E-007  0.1716397E+04  0.7818608E-02  0.8752067E-01
         -1   -1    0    0    0  501 -0.00000000000E+00  0.00000000000E+00  0.11745764760E+04  0.11745764760E+04  0.00000000000E+00 0.  1.
          1   -1    0    0  501    0  0.00000000000E+00 -0.00000000000E+00 -0.62703876011E+03  0.62703876011E+03  0.00000000000E+00 0. -1.
         23    2    1    2    0    0 -0.25157483337E+02  0.30550624609E+03  0.77668629383E+03  0.83980819003E+03  0.89828902078E+02 0.  0.
        254    2    1    2    0    0  0.25157483337E+02 -0.30550624609E+03 -0.22914857797E+03  0.96180704606E+03  0.88238129950E+03 0.  0.
        -24    2    4    4    0    0 -0.14795462526E+03  0.94728242104E+02  0.24559605338E+03  0.31233905287E+03  0.79838909826E+02 0.  0.
         24    2    4    4    0    0  0.17311210860E+03 -0.40023448819E+03 -0.47474463134E+03  0.64946799320E+03  0.79188139973E+02 0.  0.
         11    1    3    3    0    0 -0.26247610913E+02  0.25019103349E+02  0.12890565412E+03  0.13390877594E+03  0.00000000000E+00 0. -1.
        -11    1    3    3    0    0  0.10901275758E+01  0.28048714274E+03  0.64778063971E+03  0.70589941408E+03  0.00000000000E+00 0.  1.
          4    1    6    6  502    0  0.20506813843E+00 -0.70377621941E+02 -0.65719782127E+02  0.96291959611E+02  0.00000000000E+00 0. -1.
          1    1    5    5  503    0 -0.59231310435E+02  0.36973473176E+02  0.38455032253E+02  0.79713081487E+02  0.00000000000E+00 0. -1.
         -2    1    5    5    0  503 -0.88723314828E+02  0.57754768928E+02  0.20714102112E+03  0.23262597138E+03  0.00000000000E+00 0.  1.
         -3    1    6    6    0  502  0.17290704046E+03 -0.32985686625E+03 -0.40902484922E+03  0.55317603358E+03  0.00000000000E+00 0.  1.
<mgrwt>
<rscale>  0 0.17163974E+04</rscale>
<asrwt>0</asrwt>
<pdfrwt beam="1">  1        1 0.96467502E-01 0.17163974E+04</pdfrwt>
<pdfrwt beam="2">  1       -1 0.18070407E+00 0.17163974E+04</pdfrwt>
<totfact> 0.62773768E+00</totfact>
</mgrwt>
</event>
<event>
12    1  0.1598876E-007  0.2742933E+04  0.7818608E-02  0.8321208E-01
          1   -1    0    0  501    0  0.00000000000E+00  0.00000000000E+00  0.28014360660E+04  0.28014360660E+04  0.00000000000E+00 0. -1.
         -1   -1    0    0    0  501 -0.00000000000E+00 -0.00000000000E+00 -0.67141291885E+03  0.67141291885E+03  0.00000000000E+00 0.  1.
         23    2    1    2    0    0  0.22608990299E+03 -0.11488367722E+04  0.58630794193E+03  0.13125901198E+04  0.90516553986E+02 0.  0.
        254    2    1    2    0    0 -0.22608990299E+03  0.11488367722E+04  0.15437152052E+04  0.21602588650E+04  0.95536336319E+03 0.  0.
        -24    2    4    4    0    0 -0.24004611875E+03  0.72146125545E+03  0.15485153649E+04  0.17269409756E+04  0.79352478777E+02 0.  0.
         24    2    4    4    0    0  0.13956215757E+02  0.42737551673E+03 -0.48001596486E+01  0.43331788938E+03  0.69976735162E+02 0.  0.
         11    1    3    3    0    0  0.28257116605E+02 -0.49451412534E+02  0.21546170240E+02  0.60894534176E+02  0.00000000000E+00 0. -1.
        -11    1    3    3    0    0  0.19783278639E+03 -0.10993853596E+04  0.56476177169E+03  0.12516955856E+04  0.00000000000E+00 0.  1.
          4    1    6    6  502    0  0.14798244170E+02  0.42450966485E+03  0.31986491873E+01  0.42477956041E+03  0.00000000000E+00 0. -1.
          1    1    5    5  503    0 -0.19327359618E+03  0.65028879909E+03  0.14009180474E+04  0.15565351203E+04  0.00000000000E+00 0. -1.
         -2    1    5    5    0  503 -0.46772522569E+02  0.71172456357E+02  0.14759731749E+03  0.17040585536E+03  0.00000000000E+00 0.  1.
         -3    1    6    6    0  502 -0.84202841316E+00  0.28658518793E+01 -0.79988088359E+01  0.85383289721E+01  0.00000000000E+00 0.  1.
<mgrwt>
<rscale>  0 0.27429330E+04</rscale>
<asrwt>0</asrwt>
<pdfrwt beam="1">  1        1 0.43099016E+00 0.27429330E+04</pdfrwt>
<pdfrwt beam="2">  1       -1 0.10329430E+00 0.27429330E+04</pdfrwt>
<totfact> 0.63937314E-01</totfact>
</mgrwt>
</event>
<event>
12    1  0.1598876E-007  0.2328346E+04  0.7818608E-02  0.8466828E-01
          2   -1    0    0  501    0  0.00000000000E+00  0.00000000000E+00  0.11437062634E+04  0.11437062634E+04  0.00000000000E+00 0. -1.
         -2   -1    0    0    0  501 -0.00000000000E+00 -0.00000000000E+00 -0.11850061084E+04  0.11850061084E+04  0.00000000000E+00 0.  1.
         23    2    1    2    0    0  0.98843745802E+03 -0.37613947805E+02  0.95243344597E+02  0.99774189695E+03  0.89410182554E+02 0.  0.
        254    2    1    2    0    0 -0.98843745802E+03  0.37613947805E+02 -0.13654318955E+03  0.13309704749E+04  0.88000849140E+03 0.  0.
        -24    2    4    4    0    0 -0.17977447844E+03 -0.22739908409E+03 -0.33862313049E+03  0.45289383859E+03  0.80112408470E+02 0.  0.
         24    2    4    4    0    0 -0.80866297958E+03  0.26501303189E+03  0.20207994093E+03  0.87807663630E+03  0.77553562620E+02 0.  0.
         11    1    3    3    0    0  0.34551151566E+03 -0.21108717680E+02  0.75540769556E+02  0.35430240372E+03  0.00000000000E+00 0. -1.
        -11    1    3    3    0    0  0.64292594236E+03 -0.16505230125E+02  0.19702575041E+02  0.64343949323E+03  0.00000000000E+00 0.  1.
          2    1    6    6  502    0 -0.82945617738E+02  0.49072507299E+02  0.97402047363E+01  0.96865670197E+02  0.00000000000E+00 0. -1.
          1    1    5    5  503    0 -0.16856299547E+03 -0.16003778823E+03 -0.26403362684E+03  0.35176602054E+03  0.00000000000E+00 0. -1.
         -2    1    5    5    0  503 -0.11211482972E+02 -0.67361295853E+02 -0.74589503650E+02  0.10112781805E+03  0.00000000000E+00 0.  1.
         -1    1    6    6    0  502 -0.72571736184E+03  0.21594052459E+03  0.19233973620E+03  0.78121096610E+03  0.00000000000E+00 0.  1.
<mgrwt>
<rscale>  0 0.23283461E+04</rscale>
<asrwt>0</asrwt>
<pdfrwt beam="1">  1        2 0.17595481E+00 0.23283461E+04</pdfrwt>
<pdfrwt beam="2">  1       -2 0.18230863E+00 0.23283461E+04</pdfrwt>
<totfact> 0.32383631E+00</totfact>
</mgrwt>
</event>
<event>
12    1  0.1598876E-007  0.2278447E+04  0.7818608E-02  0.8486468E-01
         -2   -1    0    0    0  501 -0.00000000000E+00  0.00000000000E+00  0.41111268589E+03  0.41111268589E+03  0.00000000000E+00 0.  1.
          2   -1    0    0  501    0  0.00000000000E+00 -0.00000000000E+00 -0.31568722488E+04  0.31568722488E+04  0.00000000000E+00 0. -1.
         23    2    1    2    0    0 -0.73785606105E+03  0.21979126860E+03 -0.26520714062E+03  0.81972765182E+03  0.94227528576E+02 0.  0.
        254    2    1    2    0    0  0.73785606105E+03 -0.21979126860E+03 -0.24805524223E+04  0.27482572829E+04  0.89835293984E+03 0.  0.
        -24    2    4    4    0    0  0.49214123249E+03 -0.32595100581E+03 -0.59461292895E+03  0.84183529158E+03  0.81701113688E+02 0.  0.
         24    2    4    4    0    0  0.24571482856E+03  0.10615973721E+03 -0.18859394933E+04  0.19064219913E+04  0.77661892429E+02 0.  0.
         13    1    3    3    0    0 -0.24020992693E+03  0.11462474906E+03 -0.10937853198E+03  0.28775563479E+03  0.00000000000E+00 0. -1.
        -13    1    3    3    0    0 -0.49764613412E+03  0.10516651954E+03 -0.15582860864E+03  0.53197201703E+03  0.00000000000E+00 0.  1.
          2    1    6    6  502    0  0.20476857277E+03  0.10208705203E+03 -0.17331772638E+04  0.17482149074E+04  0.00000000000E+00 0. -1.
          1    1    5    5  503    0  0.43376744372E+03 -0.25506924785E+03 -0.51889894656E+03  0.72282130100E+03  0.00000000000E+00 0. -1.
         -2    1    5    5    0  503  0.58373788768E+02 -0.70881757960E+02 -0.75713982390E+02  0.11901399059E+03  0.00000000000E+00 0.  1.
         -1    1    6    6    0  502  0.40946255789E+02  0.40726851857E+01 -0.15276222953E+03  0.15820708391E+03  0.00000000000E+00 0.  1.
<mgrwt>
<rscale>  0 0.22784470E+04</rscale>
<asrwt>0</asrwt>
<pdfrwt beam="1">  1        2 0.48567264E+00 0.22784470E+04</pdfrwt>
<pdfrwt beam="2">  1       -2 0.63248107E-01 0.22784470E+04</pdfrwt>
<totfact> 0.29123192E+00</totfact>
</mgrwt>
</event>
<event>
12    1  0.1598876E-007  0.1385030E+04  0.7818608E-02  0.8964726E-01
         -1   -1    0    0    0  501 -0.00000000000E+00  0.00000000000E+00  0.36265476692E+03  0.36265476692E+03  0.00000000000E+00 0.  1.
          1   -1    0    0  501    0  0.00000000000E+00 -0.00000000000E+00 -0.13224069555E+04  0.13224069555E+04  0.00000000000E+00 0. -1.
         23    2    1    2    0    0  0.19715859853E+03  0.45358265063E+02 -0.67616399573E+03  0.71140439855E+03  0.89272526355E+02 0.  0.
        254    2    1    2    0    0 -0.19715859853E+03 -0.45358265063E+02 -0.28358819285E+03  0.97365732388E+03  0.90920703695E+03 0.  0.
        -24    2    4    4    0    0  0.17157163906E+03 -0.34954995958E+03  0.28072750282E+02  0.39776354685E+03  0.76195526966E+02 0.  0.
         24    2    4    4    0    0 -0.36873023758E+03  0.30419169451E+03 -0.31166094313E+03  0.57589377703E+03  0.77630688696E+02 0.  0.
         11    1    3    3    0    0  0.16020191234E+03  0.55943678934E+02 -0.43024450837E+03  0.46249830801E+03  0.00000000000E+00 0. -1.
        -11    1    3    3    0    0  0.36956686189E+02 -0.10585413871E+02 -0.24591948736E+03  0.24890609054E+03  0.00000000000E+00 0.  1.
          2    1    6    6  502    0 -0.10482980457E+03  0.72083036061E+02 -0.12321769345E+03  0.17710971739E+03  0.00000000000E+00 0. -1.
          1    1    5    5  503    0  0.10561410214E+01 -0.18513751397E+02  0.17108900024E+02  0.25230713123E+02  0.00000000000E+00 0. -1.
         -4    1    5    5    0  503  0.17051549803E+03 -0.33103620818E+03  0.10963850258E+02  0.37253283373E+03  0.00000000000E+00 0.  1.
         -1    1    6    6    0  502 -0.26390043301E+03  0.23210865845E+03 -0.18844324968E+03  0.39878405964E+03  0.00000000000E+00 0.  1.
<mgrwt>
<rscale>  0 0.13850302E+04</rscale>
<asrwt>0</asrwt>
<pdfrwt beam="1">  1        1 0.20344722E+00 0.13850302E+04</pdfrwt>
<pdfrwt beam="2">  1       -1 0.55793042E-01 0.13850302E+04</pdfrwt>
<totfact> 0.27651275E+01</totfact>
</mgrwt>
</event>
<event>
12    1  0.1598876E-007  0.1394700E+04  0.7818608E-02  0.8957664E-01
          2   -1    0    0  501    0  0.00000000000E+00  0.00000000000E+00  0.74144376127E+03  0.74144376127E+03  0.00000000000E+00 0. -1.
         -2   -1    0    0    0  501 -0.00000000000E+00 -0.00000000000E+00 -0.65587829425E+03  0.65587829425E+03  0.00000000000E+00 0.  1.
         23    2    1    2    0    0 -0.11600775156E+03 -0.37992534923E+03 -0.13493751779E+02  0.40749571075E+03  0.89830972061E+02 0.  0.
        254    2    1    2    0    0  0.11600775156E+03  0.37992534923E+03  0.99059218805E+02  0.98982634477E+03  0.90118943323E+03 0.  0.
        -24    2    4    4    0    0 -0.22665911276E+03  0.23345744168E+03 -0.29160936117E+03  0.44420326695E+03  0.80023698825E+02 0.  0.
         24    2    4    4    0    0  0.34266686431E+03  0.14646790755E+03  0.39066857998E+03  0.54562307782E+03  0.78798323796E+02 0.  0.
         11    1    3    3    0    0 -0.12375781697E+03 -0.37784129732E+03 -0.78243708699E+01  0.39766979267E+03  0.00000000000E+00 0. -1.
        -11    1    3    3    0    0  0.77500654177E+01 -0.20840519055E+01 -0.56693809089E+01  0.98259180850E+01  0.00000000000E+00 0.  1.
          4    1    6    6  502    0  0.22346673834E+02  0.32517768912E+02  0.56447082152E+02  0.68869820749E+02  0.00000000000E+00 0. -1.
          1    1    5    5  503    0 -0.88241325290E+02  0.84322455865E+02 -0.16247969690E+03  0.20321530444E+03  0.00000000000E+00 0. -1.
         -2    1    5    5    0  503 -0.13841778747E+03  0.14913498581E+03 -0.12912966427E+03  0.24098796251E+03  0.00000000000E+00 0.  1.
         -3    1    6    6    0  502  0.32032019048E+03  0.11395013864E+03  0.33422149782E+03  0.47675325707E+03  0.00000000000E+00 0.  1.
<mgrwt>
<rscale>  0 0.13946998E+04</rscale>
<asrwt>0</asrwt>
<pdfrwt beam="1">  1        2 0.11406827E+00 0.13946998E+04</pdfrwt>
<pdfrwt beam="2">  1       -2 0.10090435E+00 0.13946998E+04</pdfrwt>
<totfact> 0.29969965E+01</totfact>
</mgrwt>
</event>
<event>
12    1  0.1598876E-007  0.1111146E+04  0.7818608E-02  0.9194396E-01
         -1   -1    0    0    0  501 -0.00000000000E+00  0.00000000000E+00  0.72290955802E+03  0.72290955802E+03  0.00000000000E+00 0.  1.
          1   -1    0    0  501    0  0.00000000000E+00 -0.00000000000E+00 -0.42697072605E+03  0.42697072605E+03  0.00000000000E+00 0. -1.
         23    2    1    2    0    0 -0.14617284351E+03 -0.12367304582E+03  0.93694685376E+02  0.22864668539E+03  0.82698792183E+02 0.  0.
        254    2    1    2    0    0  0.14617284351E+03  0.12367304582E+03  0.20224414659E+03  0.92123359868E+03  0.87812705577E+03 0.  0.
        -24    2    4    4    0    0 -0.33295598104E+03  0.16302122229E+03  0.21111920371E+03  0.43382328597E+03  0.78712902697E+02 0.  0.
         24    2    4    4    0    0  0.47912882455E+03 -0.39348176472E+02 -0.88750571190E+01  0.48741031271E+03  0.79858229336E+02 0.  0.
         11    1    3    3    0    0 -0.11151951039E+03 -0.67986248277E+02  0.23732241964E+02  0.13274769475E+03  0.00000000000E+00 0. -1.
        -11    1    3    3    0    0 -0.34653333115E+02 -0.55686797542E+02  0.69962443412E+02  0.95898990634E+02  0.00000000000E+00 0.  1.
          2    1    6    6  502    0  0.29839194328E+03 -0.62567693098E+02 -0.12738299764E+02  0.30514706670E+03  0.00000000000E+00 0. -1.
          3    1    5    5  503    0 -0.24241095866E+03  0.14095443155E+03  0.12530166132E+03  0.30713471145E+03  0.00000000000E+00 0. -1.
         -4    1    5    5    0  503 -0.90545022381E+02  0.22066790744E+02  0.85817542396E+02  0.12668857452E+03  0.00000000000E+00 0.  1.
         -3    1    6    6    0  502  0.18073688127E+03  0.23219516626E+02  0.38632426451E+01  0.18226324601E+03  0.00000000000E+00 0.  1.
<mgrwt>
<rscale>  0 0.11111457E+04</rscale>
<asrwt>0</asrwt>
<pdfrwt beam="1">  1        1 0.65687804E-01 0.11111457E+04</pdfrwt>
<pdfrwt beam="2">  1       -1 0.11121686E+00 0.11111457E+04</pdfrwt>
<totfact> 0.40719124E+01</totfact>
</mgrwt>
</event>
<event>
12    1  0.1598876E-007  0.1327860E+04  0.7818608E-02  0.9007759E-01
          1   -1    0    0  501    0  0.00000000000E+00  0.00000000000E+00  0.11100714615E+04  0.11100714615E+04  0.00000000000E+00 0. -1.
         -1   -1    0    0    0  501 -0.00000000000E+00 -0.00000000000E+00 -0.39709431044E+03  0.39709431044E+03  0.00000000000E+00 0.  1.
         23    2    1    2    0    0 -0.28145006019E+03  0.13782748580E+03  0.17086784406E+03  0.36802623375E+03  0.89648961895E+02 0.  0.
        254    2    1    2    0    0  0.28145006019E+03 -0.13782748580E+03  0.54210930702E+03  0.11391395382E+04  0.95160172054E+03 0.  0.
        -24    2    4    4    0    0  0.55736089104E+03 -0.17332999479E+03  0.60336112478E+03  0.84325199165E+03  0.79591611118E+02 0.  0.
         24    2    4    4    0    0 -0.27591083085E+03  0.35502508992E+02 -0.61251817763E+02  0.29588754656E+03  0.80065225322E+02 0.  0.
         11    1    3    3    0    0 -0.16972811559E+03  0.93406972352E+02  0.15217513421E+03  0.24635293215E+03  0.00000000000E+00 0. -1.
        -11    1    3    3    0    0 -0.11172194460E+03  0.44420513446E+02  0.18692709846E+02  0.12167330159E+03  0.00000000000E+00 0.  1.
          2    1    6    6  502    0 -0.66390733067E+01  0.98889055089E+01 -0.18558269951E+02  0.22051692228E+02  0.00000000000E+00 0. -1.
          1    1    5    5  503    0  0.26472041198E+02 -0.14450516104E+02  0.60006558872E+02  0.67159314235E+02  0.00000000000E+00 0. -1.
         -2    1    5    5    0  503  0.53088884984E+03 -0.15887947869E+03  0.54335456591E+03  0.77609267741E+03  0.00000000000E+00 0.  1.
         -1    1    6    6    0  502 -0.26927175754E+03  0.25613603483E+02 -0.42693547812E+02  0.27383585433E+03  0.00000000000E+00 0.  1.
<mgrwt>
<rscale>  0 0.13278600E+04</rscale>
<asrwt>0</asrwt>
<pdfrwt beam="1">  1        1 0.17078022E+00 0.13278600E+04</pdfrwt>
<pdfrwt beam="2">  1       -1 0.61091433E-01 0.13278600E+04</pdfrwt>
<totfact> 0.33196121E+01</totfact>
</mgrwt>
</event>
<event>
12    1  0.1598876E-007  0.1246026E+04  0.7818608E-02  0.9073498E-01
          1   -1    0    0  501    0  0.00000000000E+00  0.00000000000E+00  0.86479797186E+03  0.86479797186E+03  0.00000000000E+00 0. -1.
         -1   -1    0    0    0  501 -0.00000000000E+00 -0.00000000000E+00 -0.44882729754E+03  0.44882729754E+03  0.00000000000E+00 0.  1.
         23    2    1    2    0    0  0.35889310668E+02 -0.21789365612E+03  0.30896530536E+03  0.39029160328E+03  0.90012708401E+02 0.  0.
        254    2    1    2    0    0 -0.35889310668E+02  0.21789365612E+03  0.10700536895E+03  0.92333366612E+03  0.89012876709E+03 0.  0.
        -24    2    4    4    0    0 -0.36010290264E+03  0.31723151537E+03 -0.12811556716E+03  0.50300809537E+03  0.79332279840E+02 0.  0.
         24    2    4    4    0    0  0.32421359197E+03 -0.99337859254E+02  0.23512093611E+03  0.42032557075E+03  0.80057899852E+02 0.  0.
         11    1    3    3    0    0  0.15095905580E+01 -0.13919329755E+03  0.24991552123E+03  0.28606786030E+03  0.00000000000E+00 0. -1.
        -11    1    3    3    0    0  0.34379720110E+02 -0.78700358570E+02  0.59049784137E+02  0.10422374298E+03  0.00000000000E+00 0.  1.
          4    1    6    6  502    0  0.31847779489E+03 -0.84344669096E+02  0.21059963973E+03  0.39101705500E+03  0.00000000000E+00 0. -1.
          1    1    5    5  503    0 -0.36199472018E+03  0.30333182699E+03 -0.12260614644E+03  0.48793712899E+03  0.00000000000E+00 0. -1.
         -2    1    5    5    0  503  0.18918175462E+01  0.13899688388E+02 -0.55094207215E+01  0.15070966379E+02  0.00000000000E+00 0.  1.
         -3    1    6    6    0  502  0.57357970757E+01 -0.14993190158E+02  0.24521296385E+02  0.29308515753E+02  0.00000000000E+00 0.  1.
<mgrwt>
<rscale>  0 0.12460256E+04</rscale>
<asrwt>0</asrwt>
<pdfrwt beam="1">  1        1 0.13304584E+00 0.12460256E+04</pdfrwt>
<pdfrwt beam="2">  1       -1 0.69050353E-01 0.12460256E+04</pdfrwt>
<totfact> 0.40747010E+01</totfact>
</mgrwt>
</event>
<event>
12    1  0.1598876E-007  0.1185551E+04  0.7818608E-02  0.9125599E-01
         -1   -1    0    0    0  501 -0.00000000000E+00  0.00000000000E+00  0.44814578371E+03  0.44814578371E+03  0.00000000000E+00 0.  1.
          1   -1    0    0  501    0  0.00000000000E+00 -0.00000000000E+00 -0.78408123030E+03  0.78408123030E+03  0.00000000000E+00 0. -1.
         23    2    1    2    0    0 -0.13553571949E+03  0.11745948271E+03  0.52928186449E+02  0.20717447316E+03  0.89180760651E+02 0.  0.
        254    2    1    2    0    0  0.13553571949E+03 -0.11745948271E+03 -0.38886363304E+03  0.10250525409E+04  0.93131687684E+03 0.  0.
        -24    2    4    4    0    0 -0.10716378584E+03 -0.43701583756E+03 -0.41202545869E+03  0.61509632415E+03  0.78176659557E+02 0.  0.
         24    2    4    4    0    0  0.24269950533E+03  0.31955635485E+03  0.23161825646E+02  0.40995621671E+03  0.80674132380E+02 0.  0.
         13    1    3    3    0    0 -0.35965013933E+02 -0.11018408270E+02  0.69491219745E+01  0.38251507738E+02  0.00000000000E+00 0. -1.
        -13    1    3    3    0    0 -0.99570705561E+02  0.12847789098E+03  0.45979064474E+02  0.16892296542E+03  0.00000000000E+00 0.  1.
          4    1    6    6  502    0  0.21002219980E+03  0.30088740056E+03  0.23363228626E+01  0.36694415192E+03  0.00000000000E+00 0. -1.
          1    1    5    5  503    0 -0.36670260473E+02 -0.25413516412E+03 -0.19323601721E+03  0.32135579658E+03  0.00000000000E+00 0. -1.
         -2    1    5    5    0  503 -0.70493525365E+02 -0.18288067344E+03 -0.21878944148E+03  0.29374052757E+03  0.00000000000E+00 0.  1.
         -3    1    6    6    0  502  0.32677305531E+02  0.18668954297E+02  0.20825502784E+02  0.43012064790E+02  0.00000000000E+00 0.  1.
<mgrwt>
<rscale>  0 0.11855508E+04</rscale>
<asrwt>0</asrwt>
<pdfrwt beam="1">  1        1 0.12062788E+00 0.11855508E+04</pdfrwt>
<pdfrwt beam="2">  1       -1 0.68945506E-01 0.11855508E+04</pdfrwt>
<totfact> 0.48164832E+01</totfact>
</mgrwt>
</event>
<event>
12    1  0.1598876E-007  0.3368338E+04  0.7818608E-02  0.8145721E-01
         -2   -1    0    0    0  501 -0.00000000000E+00  0.00000000000E+00  0.23891497132E+04  0.23891497132E+04  0.00000000000E+00 0.  1.
          2   -1    0    0  501    0  0.00000000000E+00 -0.00000000000E+00 -0.11872109200E+04  0.11872109200E+04  0.00000000000E+00 0. -1.
         23    2    1    2    0    0  0.51978123837E+03 -0.96431529057E+03 -0.62495853265E+03  0.12645307801E+04  0.91588268588E+02 0.  0.
        254    2    1    2    0    0 -0.51978123837E+03  0.96431529057E+03  0.18268973258E+04  0.23118298530E+04  0.89829110814E+03 0.  0.
        -24    2    4    4    0    0 -0.19459765847E+03 -0.49589221611E+02  0.29252176600E+02  0.22100885817E+03  0.87532199633E+02 0.  0.
         24    2    4    4    0    0 -0.32518357990E+03  0.10139045122E+04  0.17976451492E+04  0.20908209949E+04  0.79105180890E+02 0.  0.
         13    1    3    3    0    0  0.50213986423E+03 -0.88022127462E+03 -0.57604932116E+03  0.11656615100E+04  0.00000000000E+00 0. -1.
        -13    1    3    3    0    0  0.17641374140E+02 -0.84094015952E+02 -0.48909211489E+02  0.98869270094E+02  0.00000000000E+00 0.  1.
          4    1    6    6  502    0 -0.13367175640E+03  0.47154360680E+03  0.75746551561E+03  0.90220591824E+03  0.00000000000E+00 0. -1.
          3    1    5    5  503    0 -0.10487027303E+03  0.18276178558E+02  0.10698902540E+02  0.10698719261E+03  0.00000000000E+00 0. -1.
         -4    1    5    5    0  503 -0.89727385437E+02 -0.67865400169E+02  0.18553274061E+02  0.11402166555E+03  0.00000000000E+00 0.  1.
         -3    1    6    6    0  502 -0.19151182350E+03  0.54236090539E+03  0.10401796336E+04  0.11886150766E+04  0.00000000000E+00 0.  1.
<mgrwt>
<rscale>  0 0.33683376E+04</rscale>
<asrwt>0</asrwt>
<pdfrwt beam="1">  1        2 0.18264783E+00 0.33683376E+04</pdfrwt>
<pdfrwt beam="2">  1       -2 0.36756149E+00 0.33683376E+04</pdfrwt>
<totfact> 0.19258644E-01</totfact>
</mgrwt>
</event>
<event>
12    1  0.1598876E-007  0.1282059E+04  0.7818608E-02  0.9043915E-01
          1   -1    0    0  501    0  0.00000000000E+00  0.00000000000E+00  0.21931776786E+03  0.21931776786E+03  0.00000000000E+00 0. -1.
         -1   -1    0    0    0  501 -0.00000000000E+00 -0.00000000000E+00 -0.18736222869E+04  0.18736222869E+04  0.00000000000E+00 0.  1.
         23    2    1    2    0    0 -0.30294094722E+03  0.22851759327E+02 -0.50654000352E+03  0.59750931919E+03  0.90217464745E+02 0.  0.
        254    2    1    2    0    0  0.30294094722E+03 -0.22851759327E+02 -0.11477645155E+04  0.14954307356E+04  0.90920530212E+03 0.  0.
        -24    2    4    4    0    0  0.35088074240E+02  0.40807570550E+03 -0.69569298683E+03  0.81121264738E+03  0.79500144464E+02 0.  0.
         24    2    4    4    0    0  0.26785287298E+03 -0.43092746483E+03 -0.45207152869E+03  0.68421808820E+03  0.79637200218E+02 0.  0.
         11    1    3    3    0    0 -0.21057813663E+03  0.28012097979E+01 -0.41774682396E+03  0.46782839517E+03  0.00000000000E+00 0.  1.
        -11    1    3    3    0    0 -0.92362810596E+02  0.20050549529E+02 -0.88793179558E+02  0.12968092402E+03  0.00000000000E+00 0. -1.
          4    1    6    6  502    0  0.26623843280E+03 -0.41001391598E+03 -0.44747860662E+03  0.66274536421E+03  0.00000000000E+00 0. -1.
          1    1    5    5  503    0  0.52157599276E+02  0.25506324833E+03 -0.38957541399E+03  0.46855808498E+03  0.00000000000E+00 0. -1.
         -2    1    5    5    0  503 -0.17069525036E+02  0.15301245717E+03 -0.30611757284E+03  0.34265456240E+03  0.00000000000E+00 0.  1.
         -3    1    6    6    0  502  0.16144401814E+01 -0.20913548841E+02 -0.45929220696E+01  0.21472723986E+02  0.00000000000E+00 0.  1.
<mgrwt>
<rscale>  0 0.12820587E+04</rscale>
<asrwt>0</asrwt>
<pdfrwt beam="1">  1        1 0.33741194E-01 0.12820587E+04</pdfrwt>
<pdfrwt beam="2">  1       -1 0.28824959E+00 0.12820587E+04</pdfrwt>
<totfact> 0.51283013E+00</totfact>
</mgrwt>
</event>
<event>
12    1  0.1598876E-007  0.1497683E+04  0.7818608E-02  0.8885995E-01
         -2   -1    0    0    0  501 -0.00000000000E+00  0.00000000000E+00  0.61742875903E+03  0.61742875903E+03  0.00000000000E+00 0.  1.
          2   -1    0    0  501    0  0.00000000000E+00 -0.00000000000E+00 -0.90822396413E+03  0.90822396413E+03  0.00000000000E+00 0. -1.
         23    2    1    2    0    0  0.31379104983E+03 -0.58265935749E+02 -0.49365167600E+03  0.59478675684E+03  0.90661825837E+02 0.  0.
        254    2    1    2    0    0 -0.31379104983E+03  0.58265935749E+02  0.20285647090E+03  0.93086596633E+03  0.85058859460E+03 0.  0.
        -24    2    4    4    0    0 -0.30580046458E+03  0.11485803549E+03  0.50885213872E+03  0.60988448042E+03  0.79512816056E+02 0.  0.
         24    2    4    4    0    0 -0.79905852570E+01 -0.56592099737E+02 -0.30599566783E+03  0.32098148591E+03  0.78289529089E+02 0.  0.
         11    1    3    3    0    0  0.63948071684E+02 -0.24320687046E+02 -0.50898666873E+02  0.85273243048E+02  0.00000000000E+00 0.  1.
        -11    1    3    3    0    0  0.24984297815E+03 -0.33945248703E+02 -0.44275300913E+03  0.50951351379E+03  0.00000000000E+00 0. -1.
          4    1    6    6  502    0  0.26818150118E+02  0.72308066331E-01 -0.13229171083E+03  0.13498264762E+03  0.00000000000E+00 0. -1.
          3    1    5    5  503    0 -0.24371860462E+03  0.61042962714E+02  0.41521401667E+03  0.48531194213E+03  0.00000000000E+00 0. -1.
         -4    1    5    5    0  503 -0.62081859958E+02  0.53815072771E+02  0.93638122051E+02  0.12457253828E+03  0.00000000000E+00 0.  1.
         -3    1    6    6    0  502 -0.34808735375E+02 -0.56664407803E+02 -0.17370395700E+03  0.18599883829E+03  0.00000000000E+00 0.  1.
<mgrwt>
<rscale>  0 0.14976830E+04</rscale>
<asrwt>0</asrwt>
<pdfrwt beam="1">  1        2 0.13972676E+00 0.14976830E+04</pdfrwt>
<pdfrwt beam="2">  1       -2 0.94989041E-01 0.14976830E+04</pdfrwt>
<totfact> 0.26086105E+01</totfact>
</mgrwt>
</event>
<event>
12    1  0.1897181E-007  0.1485750E+04  0.7818608E-02  0.8893985E-01
          1   -1    0    0  501    0  0.00000000000E+00  0.00000000000E+00  0.14466371922E+04  0.14466371922E+04  0.00000000000E+00 0. -1.
         -1   -1    0    0    0  501 -0.00000000000E+00 -0.00000000000E+00 -0.38148017517E+03  0.38148017517E+03  0.00000000000E+00 0.  1.
         23    2    1    2    0    0 -0.20862006294E+03 -0.34318238417E+03  0.16651746571E+03  0.45236189883E+03  0.12492694531E+03 0.  0.
        254    2    1    2    0    0  0.20862006294E+03  0.34318238417E+03  0.89863955130E+03  0.13757554685E+04  0.96117302631E+03 0.  0.
        -24    2    4    4    0    0 -0.93622099109E+02  0.16581159663E+03  0.98420081884E+03  0.10056788245E+04  0.80498840267E+02 0.  0.
         24    2    4    4    0    0  0.30224216205E+03  0.17737078754E+03 -0.85561267545E+02  0.37007664398E+03  0.82615199073E+02 0.  0.
         11    1    3    3    0    0 -0.28601801791E+02 -0.21401855028E+02 -0.18061159656E+02  0.40028839009E+02  0.00000000000E+00 0.  1.
        -11    1    3    3    0    0 -0.18001826115E+03 -0.32178052914E+03  0.18457862536E+03  0.41233305982E+03  0.00000000000E+00 0. -1.
          4    1    6    6  502    0  0.25801214096E+03  0.11259486702E+03 -0.63231212750E+02  0.28852392488E+03  0.00000000000E+00 0. -1.
          3    1    5    5  503    0 -0.10309513288E+03  0.13445099188E+03  0.73158249115E+03  0.75094514913E+03  0.00000000000E+00 0. -1.
         -4    1    5    5    0  503  0.94730337702E+01  0.31360604744E+02  0.25261832769E+03  0.25473367540E+03  0.00000000000E+00 0.  1.
         -3    1    6    6    0  502  0.44230021094E+02  0.64775920520E+02 -0.22330054795E+02  0.81552719099E+02  0.00000000000E+00 0.  1.
<mgrwt>
<rscale>  0 0.14857502E+04</rscale>
<asrwt>0</asrwt>
<pdfrwt beam="1">  1        1 0.22255956E+00 0.14857502E+04</pdfrwt>
<pdfrwt beam="2">  1       -1 0.58689259E-01 0.14857502E+04</pdfrwt>
<totfact> 0.20303845E+01</totfact>
</mgrwt>
</event>
<event>
12    1  0.1598876E-007  0.3836490E+04  0.7818608E-02  0.8038369E-01
         -1   -1    0    0    0  501 -0.00000000000E+00  0.00000000000E+00  0.21601998582E+04  0.21601998582E+04  0.00000000000E+00 0.  1.
          1   -1    0    0  501    0  0.00000000000E+00 -0.00000000000E+00 -0.17033903522E+04  0.17033903522E+04  0.00000000000E+00 0. -1.
         23    2    1    2    0    0  0.80206885663E+03  0.16051406206E+04  0.48585477467E+03  0.18612082384E+04  0.90831613223E+02 0.  0.
        254    2    1    2    0    0 -0.80206885663E+03 -0.16051406206E+04 -0.29045268689E+02  0.20023819720E+04  0.88819990523E+03 0.  0.
        -24    2    4    4    0    0 -0.76809583867E+03 -0.85157206190E+03  0.28027777744E+03  0.11832470258E+04  0.79822914208E+02 0.  0.
         24    2    4    4    0    0 -0.33973017961E+02 -0.75356855867E+03 -0.30932304613E+03  0.81913494618E+03  0.79256385380E+02 0.  0.
         13    1    3    3    0    0  0.59518845464E+03  0.11642028967E+04  0.31377803924E+03  0.13446465480E+04  0.00000000000E+00 0. -1.
        -13    1    3    3    0    0  0.20688040199E+03  0.44093772387E+03  0.17207673543E+03  0.51656169035E+03  0.00000000000E+00 0.  1.
          2    1    6    6  502    0 -0.67629564898E+01 -0.44696207071E+03 -0.22242085336E+03  0.49929136408E+03  0.00000000000E+00 0. -1.
          1    1    5    5  503    0 -0.58130618370E+03 -0.69229054061E+03  0.22711472265E+03  0.93207519496E+03  0.00000000000E+00 0. -1.
         -2    1    5    5    0  503 -0.18678965497E+03 -0.15928152129E+03  0.53163054794E+02  0.25117183088E+03  0.00000000000E+00 0.  1.
         -1    1    6    6    0  502 -0.27210061471E+02 -0.30660648795E+03 -0.86902192769E+02  0.31984358210E+03  0.00000000000E+00 0.  1.
<mgrwt>
<rscale>  0 0.38364899E+04</rscale>
<asrwt>0</asrwt>
<pdfrwt beam="1">  1        1 0.26206005E+00 0.38364899E+04</pdfrwt>
<pdfrwt beam="2">  1       -1 0.33233844E+00 0.38364899E+04</pdfrwt>
<totfact> 0.76395508E-02</totfact>
</mgrwt>
</event>
<event>
12    1  0.1598876E-007  0.1180153E+04  0.7818608E-02  0.9130408E-01
          3   -1    0    0  501    0  0.00000000000E+00  0.00000000000E+00  0.14043022736E+03  0.14043022736E+03  0.00000000000E+00 0. -1.
         -3   -1    0    0    0  501 -0.00000000000E+00 -0.00000000000E+00 -0.24794552938E+04  0.24794552938E+04  0.00000000000E+00 0.  1.
         23    2    1    2    0    0 -0.45132795524E+02  0.21316688503E+03 -0.47027027841E+03  0.52639621189E+03  0.91987754781E+02 0.  0.
        254    2    1    2    0    0  0.45132795524E+02 -0.21316688503E+03 -0.18687547881E+04  0.20934893093E+04  0.91813721205E+03 0.  0.
        -24    2    4    4    0    0 -0.48787122089E+02 -0.23483168921E+03 -0.34774874343E+02  0.25517162294E+03  0.79857120718E+02 0.  0.
         24    2    4    4    0    0  0.93919917612E+02  0.21664804177E+02 -0.18339799137E+04  0.18383176864E+04  0.81481761191E+02 0.  0.
         13    1    3    3    0    0 -0.69714105567E+01  0.53812819768E+02 -0.22482318540E+03  0.23127880324E+03  0.00000000000E+00 0.  1.
        -13    1    3    3    0    0 -0.38161384967E+02  0.15935406526E+03 -0.24544709301E+03  0.29511740865E+03  0.00000000000E+00 0. -1.
          4    1    6    6  502    0  0.92922701811E+02 -0.58501063534E+00 -0.16967061896E+04  0.16992489119E+04  0.00000000000E+00 0. -1.
          3    1    5    5  503    0 -0.28422899620E+02 -0.51574775025E+02  0.21024072338E+02  0.62528635516E+02  0.00000000000E+00 0. -1.
         -4    1    5    5    0  503 -0.20364222469E+02 -0.18325691418E+03 -0.55798946681E+02  0.19264298742E+03  0.00000000000E+00 0.  1.
         -1    1    6    6    0  502  0.99721580180E+00  0.22249814812E+02 -0.13727372409E+03  0.13906877444E+03  0.00000000000E+00 0.  1.
<mgrwt>
<rscale>  0 0.11801533E+04</rscale>
<asrwt>0</asrwt>
<pdfrwt beam="1">  1        3 0.21604651E-01 0.11801533E+04</pdfrwt>
<pdfrwt beam="2">  1       -3 0.38145464E+00 0.11801533E+04</pdfrwt>
<totfact> 0.70570171E-01</totfact>
</mgrwt>
</event>
<event>
12    1  0.1598876E-007  0.1627911E+04  0.7818608E-02  0.8803582E-01
         -1   -1    0    0    0  501 -0.00000000000E+00  0.00000000000E+00  0.45458252092E+03  0.45458252092E+03  0.00000000000E+00 0.  1.
          1   -1    0    0  501    0  0.00000000000E+00 -0.00000000000E+00 -0.14574332759E+04  0.14574332759E+04  0.00000000000E+00 0. -1.
         23    2    1    2    0    0 -0.24793255333E+03  0.43580965685E+03 -0.58395550823E+02  0.51282464937E+03  0.90434908349E+02 0.  0.
        254    2    1    2    0    0  0.24793255333E+03 -0.43580965685E+03 -0.94445520419E+03  0.13991911475E+04  0.90240768308E+03 0.  0.
        -24    2    4    4    0    0  0.14975823411E+03 -0.39751876653E+03  0.13431642625E+02  0.43222767027E+03  0.78687047782E+02 0.  0.
         24    2    4    4    0    0  0.98174319218E+02 -0.38290890313E+02 -0.95788684682E+03  0.96696347722E+03  0.79792015543E+02 0.  0.
         13    1    3    3    0    0 -0.24473295115E+03  0.40929941377E+03 -0.36478328046E+02  0.47827909834E+03  0.00000000000E+00 0.  1.
        -13    1    3    3    0    0 -0.31996021810E+01  0.26510243079E+02 -0.21917222777E+02  0.34545551037E+02  0.00000000000E+00 0. -1.
          2    1    6    6  502    0  0.78325094802E+02 -0.28968357703E+02 -0.91492578372E+03  0.91872910912E+03  0.00000000000E+00 0. -1.
          1    1    5    5  503    0  0.90885304466E+02 -0.32486365453E+03 -0.26136580506E+01  0.33734754158E+03  0.00000000000E+00 0. -1.
         -2    1    5    5    0  503  0.58872929644E+02 -0.72655112002E+02  0.16045300676E+02  0.94880128682E+02  0.00000000000E+00 0.  1.
         -3    1    6    6    0  502  0.19849224417E+02 -0.93225326092E+01 -0.42961063097E+02  0.48234368106E+02  0.00000000000E+00 0.  1.
<mgrwt>
<rscale>  0 0.16279112E+04</rscale>
<asrwt>0</asrwt>
<pdfrwt beam="1">  1        1 0.22422051E+00 0.16279112E+04</pdfrwt>
<pdfrwt beam="2">  1       -1 0.69935772E-01 0.16279112E+04</pdfrwt>
<totfact> 0.13858537E+01</totfact>
</mgrwt>
</event>
<event>
12    1  0.1598876E-007  0.1317472E+04  0.7818608E-02  0.9015823E-01
         -1   -1    0    0    0  501 -0.00000000000E+00  0.00000000000E+00  0.16784257646E+03  0.16784257646E+03  0.00000000000E+00 0.  1.
          1   -1    0    0  501    0  0.00000000000E+00 -0.00000000000E+00 -0.25853580082E+04  0.25853580082E+04  0.00000000000E+00 0. -1.
         23    2    1    2    0    0 -0.12200167823E+03 -0.28107124564E+03 -0.10825893435E+04  0.11285078470E+04  0.87434658327E+02 0.  0.
        254    2    1    2    0    0  0.12200167823E+03  0.28107124564E+03 -0.13349260883E+04  0.16246927377E+04  0.87390696079E+03 0.  0.
        -24    2    4    4    0    0  0.36041266160E+03  0.45850497573E+03 -0.66860928686E+03  0.89076549699E+03  0.79376903145E+02 0.  0.
         24    2    4    4    0    0 -0.23841098337E+03 -0.17743373008E+03 -0.66631680145E+03  0.73392724072E+03  0.79678034667E+02 0.  0.
         11    1    3    3    0    0 -0.53215815878E+02 -0.14419385292E+03 -0.69393880908E+03  0.71075654132E+03  0.00000000000E+00 0. -1.
        -11    1    3    3    0    0 -0.68785862350E+02 -0.13687739272E+03 -0.38865053437E+03  0.41775130564E+03  0.00000000000E+00 0.  1.
          2    1    6    6  502    0 -0.12248843034E+03 -0.65959347767E+02 -0.39185101723E+03  0.41581398585E+03  0.00000000000E+00 0. -1.
          1    1    5    5  503    0  0.13296210224E+03  0.21538458364E+03 -0.24829179612E+03  0.35456770231E+03  0.00000000000E+00 0. -1.
         -2    1    5    5    0  503  0.22745055936E+03  0.24312039209E+03 -0.42031749074E+03  0.53619779469E+03  0.00000000000E+00 0.  1.
         -1    1    6    6    0  502 -0.11592255303E+03 -0.11147438232E+03 -0.27446578423E+03  0.31811325487E+03  0.00000000000E+00 0.  1.
<mgrwt>
<rscale>  0 0.13174720E+04</rscale>
<asrwt>0</asrwt>
<pdfrwt beam="1">  1        1 0.39774736E+00 0.13174720E+04</pdfrwt>
<pdfrwt beam="2">  1       -1 0.25821937E-01 0.13174720E+04</pdfrwt>
<totfact> 0.15437727E+01</totfact>
</mgrwt>
</event>
<event>
12    1  0.1598876E-007  0.2036045E+04  0.7818608E-02  0.8589951E-01
          1   -1    0    0  501    0  0.00000000000E+00  0.00000000000E+00  0.15371818414E+04  0.15371818414E+04  0.00000000000E+00 0. -1.
         -1   -1    0    0    0  501 -0.00000000000E+00 -0.00000000000E+00 -0.67420134576E+03  0.67420134576E+03  0.00000000000E+00 0.  1.
         23    2    1    2    0    0  0.73347460194E+03  0.35730158391E+03  0.44710288441E+03  0.93495380832E+03  0.92672654464E+02 0.  0.
        254    2    1    2    0    0 -0.73347460194E+03 -0.35730158391E+03  0.41587761127E+03  0.12764293789E+04  0.88919534308E+03 0.  0.
        -24    2    4    4    0    0  0.18947014207E+03 -0.11710417789E+03  0.16055109811E+03  0.28616610479E+03  0.80635359574E+02 0.  0.
         24    2    4    4    0    0 -0.92294474400E+03 -0.24019740603E+03  0.25532651316E+03  0.99026327409E+03  0.76863055789E+02 0.  0.
         13    1    3    3    0    0  0.64294053412E+03  0.28269895121E+03  0.40210658386E+03  0.80930892261E+03  0.00000000000E+00 0. -1.
        -13    1    3    3    0    0  0.90534067823E+02  0.74602632701E+02  0.44996300547E+02  0.12564488571E+03  0.00000000000E+00 0.  1.
          2    1    6    6  502    0 -0.81351948437E+03 -0.19896297549E+03  0.24637832491E+03  0.87298482006E+03  0.00000000000E+00 0. -1.
          3    1    5    5  503    0  0.10872525279E+03 -0.49918910042E+02  0.39715174441E+02  0.12605702382E+03  0.00000000000E+00 0. -1.
         -4    1    5    5    0  503  0.80744889273E+02 -0.67185267843E+02  0.12083592367E+03  0.16010908096E+03  0.00000000000E+00 0.  1.
         -1    1    6    6    0  502 -0.10942525963E+03 -0.41234430533E+02  0.89481882486E+01  0.11727845403E+03  0.00000000000E+00 0.  1.
<mgrwt>
<rscale>  0 0.20360453E+04</rscale>
<asrwt>0</asrwt>
<pdfrwt beam="1">  1        1 0.23648951E+00 0.20360453E+04</pdfrwt>
<pdfrwt beam="2">  1       -1 0.10372328E+00 0.20360453E+04</pdfrwt>
<totfact> 0.49938760E+00</totfact>
</mgrwt>
</event>
<event>
12    1  0.1598876E-007  0.1794764E+04  0.7818608E-02  0.8709089E-01
         -2   -1    0    0    0  501 -0.00000000000E+00  0.00000000000E+00  0.35153870305E+03  0.35153870305E+03  0.00000000000E+00 0. -1.
          2   -1    0    0  501    0  0.00000000000E+00 -0.00000000000E+00 -0.22907708553E+04  0.22907708553E+04  0.00000000000E+00 0.  1.
         23    2    1    2    0    0 -0.23323074970E+02 -0.63367527897E+03 -0.75146667890E+03  0.98750352018E+03  0.91502501920E+02 0.  0.
        254    2    1    2    0    0  0.23323074970E+02  0.63367527897E+03 -0.11877654734E+04  0.16548060382E+04  0.96203320074E+03 0.  0.
        -24    2    4    4    0    0  0.40161990621E+03  0.53139140202E+03 -0.10224916490E+04  0.12223805798E+04  0.71061511061E+02 0.  0.
         24    2    4    4    0    0 -0.37829683124E+03  0.10228387696E+03 -0.16527382436E+03  0.43242545841E+03  0.78139977253E+02 0.  0.
         11    1    3    3    0    0 -0.32709276818E+02 -0.54207541261E+03 -0.68392078398E+03  0.87330595355E+03  0.00000000000E+00 0. -1.
        -11    1    3    3    0    0  0.93862018479E+01 -0.91599866365E+02 -0.67545894919E+02  0.11419756663E+03  0.00000000000E+00 0.  1.
          2    1    6    6  502    0 -0.79956994507E+02 -0.86010645223E+01 -0.45191495887E+02  0.92246249691E+02  0.00000000000E+00 0. -1.
          1    1    5    5  503    0  0.55636207600E+01  0.81541208426E+01 -0.37718645646E+02  0.38988970133E+02  0.00000000000E+00 0. -1.
         -4    1    5    5    0  503  0.39605628545E+03  0.52323728117E+03 -0.98477300338E+03  0.11833916097E+04  0.00000000000E+00 0.  1.
         -1    1    6    6    0  502 -0.29833983673E+03  0.11088494148E+03 -0.12008232847E+03  0.34017920871E+03  0.00000000000E+00 0.  1.
<mgrwt>
<rscale>  0 0.17947642E+04</rscale>
<asrwt>0</asrwt>
<pdfrwt beam="1">  1        2 0.35242629E+00 0.17947642E+04</pdfrwt>
<pdfrwt beam="2">  1       -2 0.54082876E-01 0.17947642E+04</pdfrwt>
<totfact> 0.13960010E+01</totfact>
</mgrwt>
</event>
<event>
12    1  0.1598876E-007  0.2077867E+04  0.7818608E-02  0.8571056E-01
          2   -1    0    0  501    0  0.00000000000E+00  0.00000000000E+00  0.30479798425E+04  0.30479798425E+04  0.00000000000E+00 0. -1.
         -2   -1    0    0    0  501 -0.00000000000E+00 -0.00000000000E+00 -0.35413044997E+03  0.35413044997E+03  0.00000000000E+00 0.  1.
         23    2    1    2    0    0  0.46704854539E+03  0.60717488056E+02  0.22605159523E+04  0.23107462619E+04  0.88289063545E+02 0.  0.
        254    2    1    2    0    0 -0.46704854539E+03 -0.60717488056E+02  0.43333344019E+03  0.10913640306E+04  0.88401166273E+03 0.  0.
        -24    2    4    4    0    0 -0.77074125677E+02 -0.14379032789E+03 -0.24221444091E+03  0.30274302992E+03  0.79808693367E+02 0.  0.
         24    2    4    4    0    0 -0.38997441972E+03  0.83072839830E+02  0.67554788110E+03  0.78862100071E+03  0.81098695076E+02 0.  0.
         13    1    3    3    0    0  0.19672210046E+03  0.33094206504E+02  0.11700227462E+04  0.11869069205E+04  0.00000000000E+00 0.  1.
        -13    1    3    3    0    0  0.27032644493E+03  0.27623281552E+02  0.10904932062E+04  0.11238393414E+04  0.00000000000E+00 0. -1.
          4    1    6    6  502    0 -0.22740801851E+03  0.10101720998E+02  0.40698718395E+03  0.46632072606E+03  0.00000000000E+00 0. -1.
          1    1    5    5  503    0 -0.75130318394E+02 -0.79460395680E+02 -0.19260022592E+03  0.22147994547E+03  0.00000000000E+00 0. -1.
         -2    1    5    5    0  503 -0.19438072830E+01 -0.64329932205E+02 -0.49614214992E+02  0.81263084445E+02  0.00000000000E+00 0.  1.
         -3    1    6    6    0  502 -0.16256640120E+03  0.72971118832E+02  0.26856069715E+03  0.32230027464E+03  0.00000000000E+00 0.  1.
<mgrwt>
<rscale>  0 0.20778667E+04</rscale>
<asrwt>0</asrwt>
<pdfrwt beam="1">  1        2 0.46891996E+00 0.20778667E+04</pdfrwt>
<pdfrwt beam="2">  1       -2 0.54481610E-01 0.20778667E+04</pdfrwt>
<totfact> 0.47642745E+00</totfact>
</mgrwt>
</event>
<event>
12    1  0.1598876E-007  0.1434481E+04  0.7818608E-02  0.8929231E-01
         -2   -1    0    0    0  501 -0.00000000000E+00  0.00000000000E+00  0.17123278910E+03  0.17123278910E+03  0.00000000000E+00 0.  1.
          2   -1    0    0  501    0  0.00000000000E+00 -0.00000000000E+00 -0.30042971764E+04  0.30042971764E+04  0.00000000000E+00 0. -1.
         23    2    1    2    0    0  0.24142585359E+02  0.14716242741E+03 -0.17501492704E+04  0.17577971975E+04  0.67741233066E+02 0.  0.
        254    2    1    2    0    0 -0.24142585359E+02 -0.14716242741E+03 -0.10829151170E+04  0.14177327680E+04  0.90278536009E+03 0.  0.
        -24    2    4    4    0    0 -0.90553283663E+02  0.90907273969E+02 -0.11414696928E+04  0.11513875637E+04  0.79222676513E+02 0.  0.
         24    2    4    4    0    0  0.66410698305E+02 -0.23806970137E+03  0.58554575855E+02  0.26634520432E+03  0.80147151860E+02 0.  0.
         13    1    3    3    0    0  0.92125233408E+01 -0.13584329560E+00 -0.32550853179E+02  0.33829677539E+02  0.00000000000E+00 0.  1.
        -13    1    3    3    0    0  0.14930062018E+02  0.14729827070E+03 -0.17175984172E+04  0.17239675200E+04  0.00000000000E+00 0. -1.
          2    1    6    6  502    0 -0.92695254889E+01 -0.11765936986E+02 -0.10071893035E+02  0.18050052777E+02  0.00000000000E+00 0. -1.
          3    1    5    5  503    0 -0.16187647993E+00 -0.24712780462E+01  0.66231650100E-01  0.24774595471E+01  0.00000000000E+00 0. -1.
         -4    1    5    5    0  503 -0.90391407183E+02  0.93378552015E+02 -0.11415359245E+04  0.11489101041E+04  0.00000000000E+00 0.  1.
         -1    1    6    6    0  502  0.75680223793E+02 -0.22630376439E+03  0.68626468890E+02  0.24829515155E+03  0.00000000000E+00 0.  1.
<mgrwt>
<rscale>  0 0.14344813E+04</rscale>
<asrwt>0</asrwt>
<pdfrwt beam="1">  1        2 0.46219958E+00 0.14344813E+04</pdfrwt>
<pdfrwt beam="2">  1       -2 0.26343505E-01 0.14344813E+04</pdfrwt>
<totfact> 0.22095773E+01</totfact>
</mgrwt>
</event>
<event>
12    1  0.1598876E-007  0.2476836E+04  0.7818608E-02  0.8411284E-01
          2   -1    0    0  501    0  0.00000000000E+00  0.00000000000E+00  0.21973627290E+04  0.21973627290E+04  0.00000000000E+00 0. -1.
         -2   -1    0    0    0  501 -0.00000000000E+00 -0.00000000000E+00 -0.69796380950E+03  0.69796380950E+03  0.00000000000E+00 0.  1.
         23    2    1    2    0    0 -0.70628821548E+02  0.11063269400E+03 -0.59098543106E+03  0.61301662357E+03  0.96423947394E+02 0.  0.
        254    2    1    2    0    0  0.70628821548E+02 -0.11063269400E+03  0.20903843506E+04  0.22823099150E+04  0.90664424740E+03 0.  0.
        -24    2    4    4    0    0 -0.39653265435E+03 -0.15587904762E+03  0.11262783713E+04  0.12069875987E+04  0.82338753319E+02 0.  0.
         24    2    4    4    0    0  0.46716147589E+03  0.45246353618E+02  0.96410597933E+03  0.10753223163E+04  0.80812545363E+02 0.  0.
         11    1    3    3    0    0 -0.37118900511E+02  0.17972764751E+02 -0.59011320902E+02  0.71994229231E+02  0.00000000000E+00 0. -1.
        -11    1    3    3    0    0 -0.33509921037E+02  0.92659929252E+02 -0.53197411016E+03  0.54102239434E+03  0.00000000000E+00 0.  1.
          2    1    6    6  502    0  0.39087399663E+03  0.65604058239E+02  0.82803853859E+03  0.91800555286E+03  0.00000000000E+00 0. -1.
          3    1    5    5  503    0 -0.31058657183E+03 -0.85233364274E+02  0.86473207654E+03  0.92276232541E+03  0.00000000000E+00 0. -1.
         -4    1    5    5    0  503 -0.85946082522E+02 -0.70645683348E+02  0.26154629472E+03  0.28422527326E+03  0.00000000000E+00 0.  1.
         -1    1    6    6    0  502  0.76287479267E+02 -0.20357704621E+02  0.13606744074E+03  0.15731676344E+03  0.00000000000E+00 0.  1.
<mgrwt>
<rscale>  0 0.24768364E+04</rscale>
<asrwt>0</asrwt>
<pdfrwt beam="1">  1        2 0.33805580E+00 0.24768364E+04</pdfrwt>
<pdfrwt beam="2">  1       -2 0.10737905E+00 0.24768364E+04</pdfrwt>
<totfact> 0.32243506E+00</totfact>
</mgrwt>
</event>
<event>
12    1  0.1598876E-007  0.2201278E+04  0.7818608E-02  0.8517896E-01
          1   -1    0    0  501    0  0.00000000000E+00  0.00000000000E+00  0.26397731090E+04  0.26397731090E+04  0.00000000000E+00 0. -1.
         -1   -1    0    0    0  501 -0.00000000000E+00 -0.00000000000E+00 -0.45890558033E+03  0.45890558033E+03  0.00000000000E+00 0.  1.
         23    2    1    2    0    0 -0.10318972431E+03 -0.84105682495E+03  0.13908639628E+04  0.16313686705E+04  0.94002520895E+02 0.  0.
        254    2    1    2    0    0  0.10318972431E+03  0.84105682495E+03  0.79000356583E+03  0.14673100188E+04  0.90048229041E+03 0.  0.
        -24    2    4    4    0    0  0.59857931511E+02 -0.17671048903E+03  0.21003393271E+03  0.29232442087E+03  0.80806839102E+02 0.  0.
         24    2    4    4    0    0  0.43331792797E+02  0.10177673140E+04  0.57996963312E+03  0.11749855980E+04  0.80612842607E+02 0.  0.
         13    1    3    3    0    0  0.66803436194E+01 -0.24425441356E+03  0.44228701070E+03  0.50529461244E+03  0.00000000000E+00 0.  1.
        -13    1    3    3    0    0 -0.10987006793E+03 -0.59680241139E+03  0.94857695213E+03  0.11260740580E+04  0.00000000000E+00 0. -1.
          2    1    6    6  502    0  0.22281570141E+02  0.96177952079E+03  0.54419503350E+03  0.11052893510E+04  0.00000000000E+00 0. -1.
          1    1    5    5  503    0  0.26403680130E+02 -0.46082811408E+02  0.14952589110E+02  0.55175717058E+02  0.00000000000E+00 0. -1.
         -2    1    5    5    0  503  0.33454251381E+02 -0.13062767763E+03  0.19508134360E+03  0.23714870381E+03  0.00000000000E+00 0.  1.
         -1    1    6    6    0  502  0.21050222656E+02  0.55987793203E+02  0.35774599624E+02  0.69696246957E+02  0.00000000000E+00 0.  1.
<mgrwt>
<rscale>  0 0.22012784E+04</rscale>
<asrwt>0</asrwt>
<pdfrwt beam="1">  1        1 0.40611893E+00 0.22012784E+04</pdfrwt>
<pdfrwt beam="2">  1       -1 0.70600860E-01 0.22012784E+04</pdfrwt>
<totfact> 0.20001475E+00</totfact>
</mgrwt>
</event>
<event>
12    1  0.1598876E-007  0.2020407E+04  0.7818608E-02  0.8597139E-01
         -2   -1    0    0    0  501 -0.00000000000E+00  0.00000000000E+00  0.38322506727E+03  0.38322506727E+03  0.00000000000E+00 0.  1.
          2   -1    0    0  501    0  0.00000000000E+00 -0.00000000000E+00 -0.26629557139E+04  0.26629557139E+04  0.00000000000E+00 0. -1.
         23    2    1    2    0    0  0.22543253073E+03 -0.45496448113E+03  0.23682428062E+02  0.51738068363E+03  0.96485280741E+02 0.  0.
        254    2    1    2    0    0 -0.22543253073E+03  0.45496448113E+03 -0.23034130747E+04  0.25288000975E+04  0.91175963697E+03 0.  0.
        -24    2    4    4    0    0  0.26680749000E+03  0.21844349309E+03 -0.15785287622E+04  0.16176690132E+04  0.78715860572E+02 0.  0.
         24    2    4    4    0    0 -0.49224002073E+03  0.23652098803E+03 -0.72488431247E+03  0.91113108433E+03  0.80375186387E+02 0.  0.
         11    1    3    3    0    0  0.16446560478E+03 -0.31633620127E+03  0.60239370884E+02  0.36158859108E+03  0.00000000000E+00 0.  1.
        -11    1    3    3    0    0  0.60966925949E+02 -0.13862827985E+03 -0.36556942822E+02  0.15579209255E+03  0.00000000000E+00 0. -1.
          2    1    6    6  502    0 -0.32885737238E+03  0.11522313942E+03 -0.46369334262E+03  0.58003022267E+03  0.00000000000E+00 0. -1.
          1    1    5    5  503    0  0.12311073217E+03  0.13586380238E+03 -0.69797416931E+03  0.72165307884E+03  0.00000000000E+00 0. -1.
         -2    1    5    5    0  503  0.14369675783E+03  0.82579690710E+02 -0.88055459290E+03  0.89601593435E+03  0.00000000000E+00 0.  1.
         -1    1    6    6    0  502 -0.16338264835E+03  0.12129784862E+03 -0.26119096985E+03  0.33110086166E+03  0.00000000000E+00 0.  1.
<mgrwt>
<rscale>  0 0.20204073E+04</rscale>
<asrwt>0</asrwt>
<pdfrwt beam="1">  1        2 0.40968549E+00 0.20204073E+04</pdfrwt>
<pdfrwt beam="2">  1       -2 0.58957703E-01 0.20204073E+04</pdfrwt>
<totfact> 0.69708003E+00</totfact>
</mgrwt>
</event>
<event>
12    1  0.1598876E-007  0.1479079E+04  0.7818608E-02  0.8898486E-01
          2   -1    0    0  501    0  0.00000000000E+00  0.00000000000E+00  0.12360881797E+04  0.12360881797E+04  0.00000000000E+00 0.  1.
         -2   -1    0    0    0  501 -0.00000000000E+00 -0.00000000000E+00 -0.44245908620E+03  0.44245908620E+03  0.00000000000E+00 0. -1.
         23    2    1    2    0    0 -0.17097201619E+03  0.42573733782E+02  0.74611578567E+03  0.77214662517E+03  0.92074383024E+02 0.  0.
        254    2    1    2    0    0  0.17097201619E+03 -0.42573733782E+02  0.47513307829E+02  0.90640064073E+03  0.88784044398E+03 0.  0.
        -24    2    4    4    0    0  0.17531590585E+03  0.92180955999E+02  0.43703814739E+03  0.48641184336E+03  0.79756777706E+02 0.  0.
         24    2    4    4    0    0 -0.43438896588E+01 -0.13475468978E+03 -0.38952483956E+03  0.41998879738E+03  0.80518901444E+02 0.  0.
         11    1    3    3    0    0 -0.34033935134E+02 -0.13678634302E+02  0.60670288238E+02  0.70896386734E+02  0.00000000000E+00 0. -1.
        -11    1    3    3    0    0 -0.13693808105E+03  0.56252368084E+02  0.68544549743E+03  0.70125023844E+03  0.00000000000E+00 0.  1.
          4    1    6    6  502    0 -0.38353095278E+02 -0.38923378297E+02 -0.11769312941E+03  0.12976001697E+03  0.00000000000E+00 0. -1.
          1    1    5    5  503    0  0.15167501102E+02  0.23089610048E+02  0.19230878002E+02  0.33660211683E+02  0.00000000000E+00 0. -1.
         -2    1    5    5    0  503  0.16014840474E+03  0.69091345951E+02  0.41780726939E+03  0.45275163167E+03  0.00000000000E+00 0.  1.
         -3    1    6    6    0  502  0.34009205619E+02 -0.95831311484E+02 -0.27183171016E+03  0.29022878040E+03  0.00000000000E+00 0.  1.
<mgrwt>
<rscale>  0 0.14790787E+04</rscale>
<asrwt>0</asrwt>
<pdfrwt beam="1">  1        2 0.19016741E+00 0.14790787E+04</pdfrwt>
<pdfrwt beam="2">  1       -2 0.68070629E-01 0.14790787E+04</pdfrwt>
<totfact> 0.34465829E+01</totfact>
</mgrwt>
</event>
<event>
12    1  0.1598876E-007  0.1548709E+04  0.7818608E-02  0.8852693E-01
          1   -1    0    0  501    0  0.00000000000E+00  0.00000000000E+00  0.76318864676E+03  0.76318864676E+03  0.00000000000E+00 0. -1.
         -1   -1    0    0    0  501 -0.00000000000E+00 -0.00000000000E+00 -0.78568343272E+03  0.78568343272E+03  0.00000000000E+00 0.  1.
         23    2    1    2    0    0  0.31931942613E+03  0.30026665882E+03 -0.23752520399E+03  0.50687881301E+03  0.91558430757E+02 0.  0.
        254    2    1    2    0    0 -0.31931942613E+03 -0.30026665882E+03  0.21503041803E+03  0.10419932665E+04  0.92053621569E+03 0.  0.
        -24    2    4    4    0    0 -0.59287698197E+03 -0.28417240744E+03  0.32222888508E+03  0.73625021132E+03  0.77303598814E+02 0.  0.
         24    2    4    4    0    0  0.27355755584E+03 -0.16094251376E+02 -0.10719846705E+03  0.30574305516E+03  0.83033385782E+02 0.  0.
         13    1    3    3    0    0  0.26496621295E+03  0.28805829034E+03 -0.21693511397E+03  0.44748800689E+03  0.00000000000E+00 0. -1.
        -13    1    3    3    0    0  0.54353213182E+02  0.12208368478E+02 -0.20590090021E+02  0.59390806117E+02  0.00000000000E+00 0.  1.
          2    1    6    6  502    0  0.11599073768E+03 -0.16383679234E+02 -0.36540907694E+01  0.11719909791E+03  0.00000000000E+00 0. -1.
          1    1    5    5  503    0 -0.30480692903E+02 -0.14838182563E+02 -0.95191345469E+00  0.33913867972E+02  0.00000000000E+00 0. -1.
         -2    1    5    5    0  503 -0.56239628907E+03 -0.26933422488E+03  0.32318079853E+03  0.70233634335E+03  0.00000000000E+00 0.  1.
         -1    1    6    6    0  502  0.15756681816E+03  0.28942785786E+00 -0.10354437628E+03  0.18854395724E+03  0.00000000000E+00 0.  1.
<mgrwt>
<rscale>  0 0.15487087E+04</rscale>
<asrwt>0</asrwt>
<pdfrwt beam="1">  1        1 0.11741364E+00 0.15487087E+04</pdfrwt>
<pdfrwt beam="2">  1       -1 0.12087437E+00 0.15487087E+04</pdfrwt>
<totfact> 0.13968505E+01</totfact>
</mgrwt>
</event>
<event>
12    1  0.1598876E-007  0.2816093E+04  0.7818608E-02  0.8298289E-01
         -1   -1    0    0    0  501 -0.00000000000E+00  0.00000000000E+00  0.10488833214E+04  0.10488833214E+04  0.00000000000E+00 0.  1.
          1   -1    0    0  501    0  0.00000000000E+00 -0.00000000000E+00 -0.18901965253E+04  0.18901965253E+04  0.00000000000E+00 0. -1.
         23    2    1    2    0    0 -0.32960234373E+03 -0.96843035209E+03  0.39451344393E+03  0.11003831942E+04  0.93312725884E+02 0.  0.
        254    2    1    2    0    0  0.32960234373E+03  0.96843035209E+03 -0.12358266478E+04  0.18386966525E+04  0.89835562265E+03 0.  0.
        -24    2    4    4    0    0 -0.20232127932E+03  0.72176521674E+03 -0.82942542870E+03  0.11208556863E+04  0.80572945321E+02 0.  0.
         24    2    4    4    0    0  0.53192362305E+03  0.24666513534E+03 -0.40640121909E+03  0.71784096624E+03  0.79669769577E+02 0.  0.
         13    1    3    3    0    0 -0.41591898323E+02 -0.21708209416E+03  0.60553518682E+02  0.22917515187E+03  0.00000000000E+00 0. -1.
        -13    1    3    3    0    0 -0.28801044541E+03 -0.75134825792E+03  0.33395992524E+03  0.87120804233E+03  0.00000000000E+00 0.  1.
          4    1    6    6  502    0  0.45409902502E+02 -0.90648786845E+00 -0.24247605424E+02  0.51486185859E+02  0.00000000000E+00 0. -1.
          1    1    5    5  503    0 -0.10767452343E+01  0.10223859928E+03 -0.10252731649E+03  0.14479551509E+03  0.00000000000E+00 0. -1.
         -2    1    5    5    0  503 -0.20124453408E+03  0.61952661746E+03 -0.72689811221E+03  0.97606017119E+03  0.00000000000E+00 0.  1.
         -3    1    6    6    0  502  0.48651372055E+03  0.24757162321E+03 -0.38215361366E+03  0.66635478038E+03  0.00000000000E+00 0.  1.
<mgrwt>
<rscale>  0 0.28160935E+04</rscale>
<asrwt>0</asrwt>
<pdfrwt beam="1">  1        1 0.29079946E+00 0.28160935E+04</pdfrwt>
<pdfrwt beam="2">  1       -1 0.16136667E+00 0.28160935E+04</pdfrwt>
<totfact> 0.87279745E-01</totfact>
</mgrwt>
</event>
<event>
12    1  0.1598876E-007  0.1426191E+04  0.7818608E-02  0.8935075E-01
         -2   -1    0    0    0  501 -0.00000000000E+00  0.00000000000E+00  0.29456381870E+03  0.29456381870E+03  0.00000000000E+00 0.  1.
          2   -1    0    0  501    0  0.00000000000E+00 -0.00000000000E+00 -0.17262986881E+04  0.17262986881E+04  0.00000000000E+00 0. -1.
         23    2    1    2    0    0  0.14848769731E+03 -0.36714633589E+03 -0.40782714102E+03  0.57633827128E+03  0.94856722423E+02 0.  0.
        254    2    1    2    0    0 -0.14848769731E+03  0.36714633589E+03 -0.10239077284E+04  0.14445242356E+04  0.93883875216E+03 0.  0.
        -24    2    4    4    0    0  0.80043511415E+02  0.62471334836E+03 -0.81799287193E+03  0.10355308965E+04  0.80858937049E+02 0.  0.
         24    2    4    4    0    0 -0.22853120873E+03 -0.25756701247E+03 -0.20591485651E+03  0.40899333908E+03  0.79418788747E+02 0.  0.
         13    1    3    3    0    0  0.76852376697E+01 -0.32242809399E+02 -0.43957659899E+01  0.33436273635E+02  0.00000000000E+00 0.  1.
        -13    1    3    3    0    0  0.14080245964E+03 -0.33490352649E+03 -0.40343137503E+03  0.54290199765E+03  0.00000000000E+00 0. -1.
          2    1    6    6  502    0 -0.35744452753E+02 -0.87253602671E+02 -0.37221463216E+02  0.10137205929E+03  0.00000000000E+00 0. -1.
          1    1    5    5  503    0  0.22587248068E+01  0.78022739688E+01 -0.10748079216E+00  0.81233533075E+01  0.00000000000E+00 0. -1.
         -2    1    5    5    0  503  0.77784786609E+02  0.61691107439E+03 -0.81788539113E+03  0.10274075432E+04  0.00000000000E+00 0.  1.
         -1    1    6    6    0  502 -0.19278675597E+03 -0.17031340980E+03 -0.16869339329E+03  0.30762127978E+03  0.00000000000E+00 0.  1.
<mgrwt>
<rscale>  0 0.14261909E+04</rscale>
<asrwt>0</asrwt>
<pdfrwt beam="1">  1        2 0.26558442E+00 0.14261909E+04</pdfrwt>
<pdfrwt beam="2">  1       -2 0.45317510E-01 0.14261909E+04</pdfrwt>
<totfact> 0.42531101E+01</totfact>
</mgrwt>
</event>
<event>
12    1  0.1598876E-007  0.1244211E+04  0.7818608E-02  0.9075015E-01
          2   -1    0    0  501    0  0.00000000000E+00  0.00000000000E+00  0.18586513977E+04  0.18586513977E+04  0.00000000000E+00 0.  1.
         -2   -1    0    0    0  501 -0.00000000000E+00 -0.00000000000E+00 -0.20822367658E+03  0.20822367658E+03  0.00000000000E+00 0. -1.
         23    2    1    2    0    0 -0.11633046942E+03 -0.12583157928E+03  0.16899988876E+02  0.19462114791E+03  0.90694085420E+02 0.  0.
        254    2    1    2    0    0  0.11633046942E+03  0.12583157928E+03  0.16335277322E+04  0.18722539263E+04  0.89864094515E+03 0.  0.
        -24    2    4    4    0    0  0.16860118434E+03 -0.35948466205E+03  0.90920859333E+03  0.99507480312E+03  0.76537677113E+02 0.  0.
         24    2    4    4    0    0 -0.52270714925E+02  0.48531624133E+03  0.72431913890E+03  0.87717912322E+03  0.80875938988E+02 0.  0.
         11    1    3    3    0    0 -0.26927412684E+02 -0.51379913293E+02  0.46757776226E+02  0.74506849896E+02  0.00000000000E+00 0.  1.
        -11    1    3    3    0    0 -0.89403056733E+02 -0.74451665990E+02 -0.29857787350E+02  0.12011429801E+03  0.00000000000E+00 0. -1.
          2    1    6    6  502    0 -0.33991673814E+02  0.17454198143E+03  0.20194960860E+03  0.26907987956E+03  0.00000000000E+00 0. -1.
          1    1    5    5  503    0  0.13346316559E+02 -0.10227284196E+03  0.20606632260E+03  0.23043694946E+03  0.00000000000E+00 0. -1.
         -2    1    5    5    0  503  0.15525486778E+03 -0.25721182009E+03  0.70314227073E+03  0.76463785366E+03  0.00000000000E+00 0.  1.
         -1    1    6    6    0  502 -0.18279041111E+02  0.31077425990E+03  0.52236953030E+03  0.60809924367E+03  0.00000000000E+00 0.  1.
<mgrwt>
<rscale>  0 0.12442110E+04</rscale>
<asrwt>0</asrwt>
<pdfrwt beam="1">  1        2 0.28594636E+00 0.12442110E+04</pdfrwt>
<pdfrwt beam="2">  1       -2 0.32034413E-01 0.12442110E+04</pdfrwt>
<totfact> 0.71433251E+01</totfact>
</mgrwt>
</event>
<event>
12    1  0.1598876E-007  0.3940215E+04  0.7818608E-02  0.8016717E-01
         -2   -1    0    0    0  501 -0.00000000000E+00  0.00000000000E+00  0.22012627100E+04  0.22012627100E+04  0.00000000000E+00 0.  1.
          2   -1    0    0  501    0  0.00000000000E+00 -0.00000000000E+00 -0.17632256746E+04  0.17632256746E+04  0.00000000000E+00 0. -1.
         23    2    1    2    0    0  0.10161150868E+03  0.12705989369E+04 -0.11692827408E+04  0.17321199384E+04  0.90943915909E+02 0.  0.
        254    2    1    2    0    0 -0.10161150868E+03 -0.12705989369E+04  0.16073197761E+04  0.22323684462E+04  0.88048024382E+03 0.  0.
        -24    2    4    4    0    0 -0.29554173659E+03 -0.13023482883E+04  0.13612658056E+04  0.19086150945E+04  0.79441821934E+02 0.  0.
         24    2    4    4    0    0  0.19393022791E+03  0.31749351432E+02  0.24605397051E+03  0.32375335175E+03  0.75211181034E+02 0.  0.
         11    1    3    3    0    0 -0.37561662671E+00  0.13148870028E+03 -0.87959650677E+02  0.15819709080E+03  0.00000000000E+00 0.  1.
        -11    1    3    3    0    0  0.10198712531E+03  0.11391102366E+04 -0.10813230901E+04  0.15739228476E+04  0.00000000000E+00 0. -1.
          4    1    6    6  502    0  0.11382931811E+02  0.13166133823E+02  0.75688303644E+00  0.17420995620E+02  0.00000000000E+00 0. -1.
          3    1    5    5  503    0 -0.50146498548E+02 -0.13251958295E+03  0.16579541434E+03  0.21809225250E+03  0.00000000000E+00 0. -1.
         -4    1    5    5    0  503 -0.24539523804E+03 -0.11698287054E+04  0.11954703913E+04  0.16905228420E+04  0.00000000000E+00 0.  1.
         -3    1    6    6    0  502  0.18254729610E+03  0.18583217609E+02  0.24529708747E+03  0.30633235613E+03  0.00000000000E+00 0.  1.
<mgrwt>
<rscale>  0 0.39402147E+04</rscale>
<asrwt>0</asrwt>
<pdfrwt beam="1">  1        2 0.27126549E+00 0.39402147E+04</pdfrwt>
<pdfrwt beam="2">  1       -2 0.33865580E+00 0.39402147E+04</pdfrwt>
<totfact> 0.13140635E-01</totfact>
</mgrwt>
</event>
<event>
12    1  0.1598876E-007  0.1956560E+04  0.7818608E-02  0.8627204E-01
          2   -1    0    0  501    0  0.00000000000E+00  0.00000000000E+00  0.27978610082E+04  0.27978610082E+04  0.00000000000E+00 0. -1.
         -2   -1    0    0    0  501 -0.00000000000E+00 -0.00000000000E+00 -0.34205836785E+03  0.34205836785E+03  0.00000000000E+00 0.  1.
         23    2    1    2    0    0  0.38691626100E+02  0.72575633811E+03  0.57720512058E+03  0.93263800285E+03  0.91807346592E+02 0.  0.
        254    2    1    2    0    0 -0.38691626100E+02 -0.72575633811E+03  0.18785975198E+04  0.22072813732E+04  0.90263121759E+03 0.  0.
        -24    2    4    4    0    0 -0.18603562492E+03 -0.11353145389E+03  0.78137205988E+01  0.23205720109E+03  0.79314850967E+02 0.  0.
         24    2    4    4    0    0  0.14734399882E+03 -0.61222488422E+03  0.18707837992E+04  0.19752241721E+04  0.71756142840E+02 0.  0.
         11    1    3    3    0    0  0.43654338322E+01  0.49492309922E+03  0.34420992846E+03  0.60286682278E+03  0.00000000000E+00 0. -1.
        -11    1    3    3    0    0  0.34326192267E+02  0.23083323889E+03  0.23299519212E+03  0.32977118007E+03  0.00000000000E+00 0.  1.
          4    1    6    6  502    0  0.13155753594E+03 -0.50249752968E+03  0.16142137509E+04  0.16957291017E+04  0.00000000000E+00 0. -1.
          1    1    5    5  503    0 -0.14109348691E+03 -0.42657400113E+02  0.13012651416E+02  0.14797416981E+03  0.00000000000E+00 0. -1.
         -2    1    5    5    0  503 -0.44942138013E+02 -0.70874053774E+02 -0.51989308175E+01  0.84083031280E+02  0.00000000000E+00 0.  1.
         -3    1    6    6    0  502  0.15786462886E+02 -0.10972735454E+03  0.25657004825E+03  0.27949507044E+03  0.00000000000E+00 0.  1.
<mgrwt>
<rscale>  0 0.19565600E+04</rscale>
<asrwt>0</asrwt>
<pdfrwt beam="1">  1        2 0.43044014E+00 0.19565600E+04</pdfrwt>
<pdfrwt beam="2">  1       -2 0.52624366E-01 0.19565600E+04</pdfrwt>
<totfact> 0.73795205E+00</totfact>
</mgrwt>
</event>
<event>
12    1  0.1598876E-007  0.1348452E+04  0.7818608E-02  0.8992001E-01
          2   -1    0    0  501    0  0.00000000000E+00  0.00000000000E+00  0.20086751235E+04  0.20086751235E+04  0.00000000000E+00 0. -1.
         -2   -1    0    0    0  501 -0.00000000000E+00 -0.00000000000E+00 -0.22630862736E+03  0.22630862736E+03  0.00000000000E+00 0.  1.
         23    2    1    2    0    0  0.12654341876E+03  0.25386878484E+03  0.11710624221E+03  0.32022331914E+03  0.91468603417E+02 0.  0.
        254    2    1    2    0    0 -0.12654341876E+03 -0.25386878484E+03  0.16652602539E+04  0.19147604317E+04  0.90152825845E+03 0.  0.
        -24    2    4    4    0    0  0.17945173813E+03  0.18460167794E+03  0.15145683070E+03  0.30731682757E+03  0.72275549969E+02 0.  0.
         24    2    4    4    0    0 -0.30599515689E+03 -0.43847046278E+03  0.15138034232E+04  0.16074436041E+04  0.79904653027E+02 0.  0.
         11    1    3    3    0    0 -0.10045863539E+02  0.57025424164E+02  0.30613314539E+02  0.65498041210E+02  0.00000000000E+00 0. -1.
        -11    1    3    3    0    0  0.13658928229E+03  0.19684336067E+03  0.86492927674E+02  0.25472527793E+03  0.00000000000E+00 0.  1.
          2    1    6    6  502    0 -0.26972462163E+03 -0.37064652622E+03  0.12061260001E+04  0.12902984721E+04  0.00000000000E+00 0. -1.
          3    1    5    5  503    0  0.16406376852E+03  0.17993027958E+03  0.15765655963E+03  0.29008174097E+03  0.00000000000E+00 0. -1.
         -4    1    5    5    0  503  0.15387969608E+02  0.46713983631E+01 -0.61997289238E+01  0.17235086599E+02  0.00000000000E+00 0.  1.
         -1    1    6    6    0  502 -0.36270535255E+02 -0.67823936561E+02  0.30767742312E+03  0.31714513207E+03  0.00000000000E+00 0.  1.
<mgrwt>
<rscale>  0 0.13484517E+04</rscale>
<asrwt>0</asrwt>
<pdfrwt beam="1">  1        2 0.30902693E+00 0.13484517E+04</pdfrwt>
<pdfrwt beam="2">  1       -2 0.34816713E-01 0.13484517E+04</pdfrwt>
<totfact> 0.49986226E+01</totfact>
</mgrwt>
</event>
<event>
12    1  0.1598876E-007  0.2047956E+04  0.7818608E-02  0.8584522E-01
          2   -1    0    0  501    0  0.00000000000E+00  0.00000000000E+00  0.15913370546E+04  0.15913370546E+04  0.00000000000E+00 0. -1.
         -2   -1    0    0    0  501 -0.00000000000E+00 -0.00000000000E+00 -0.65889949344E+03  0.65889949344E+03  0.00000000000E+00 0.  1.
         23    2    1    2    0    0 -0.75533510588E+03  0.31738743688E+03  0.28133988613E+03  0.87120963712E+03  0.92672504135E+02 0.  0.
        254    2    1    2    0    0  0.75533510588E+03 -0.31738743688E+03  0.65109767505E+03  0.13790269109E+04  0.89806521555E+03 0.  0.
        -24    2    4    4    0    0  0.41959801360E+03 -0.11847789518E+03  0.83069717020E+03  0.94144482689E+03  0.78492476378E+02 0.  0.
         24    2    4    4    0    0  0.33573709227E+03 -0.19890954170E+03 -0.17959949515E+03  0.43758208404E+03  0.83292861118E+02 0.  0.
         13    1    3    3    0    0 -0.41115997430E+03  0.21789560355E+03  0.13833084255E+03  0.48545488000E+03  0.00000000000E+00 0.  1.
        -13    1    3    3    0    0 -0.34417513158E+03  0.99491833324E+02  0.14300904359E+03  0.38575475712E+03  0.00000000000E+00 0. -1.
          2    1    6    6  502    0  0.19021965806E+03 -0.15881851188E+03 -0.11958000068E+03  0.27514762327E+03  0.00000000000E+00 0. -1.
          1    1    5    5  503    0  0.36719377585E+03 -0.12966249936E+03  0.72774962768E+03  0.82538666899E+03  0.00000000000E+00 0. -1.
         -2    1    5    5    0  503  0.52404237753E+02  0.11184604182E+02  0.10294754252E+03  0.11605815790E+03  0.00000000000E+00 0.  1.
         -1    1    6    6    0  502  0.14551743421E+03 -0.40091029824E+02 -0.60019494464E+02  0.16243446077E+03  0.00000000000E+00 0.  1.
<mgrwt>
<rscale>  0 0.20479562E+04</rscale>
<asrwt>0</asrwt>
<pdfrwt beam="1">  1        2 0.24482108E+00 0.20479562E+04</pdfrwt>
<pdfrwt beam="2">  1       -2 0.10136915E+00 0.20479562E+04</pdfrwt>
<totfact> 0.83468314E+00</totfact>
</mgrwt>
</event>
<event>
12    1  0.1598876E-007  0.1701680E+04  0.7818608E-02  0.8760407E-01
          1   -1    0    0  501    0  0.00000000000E+00  0.00000000000E+00  0.45927050480E+03  0.45927050480E+03  0.00000000000E+00 0. -1.
         -1   -1    0    0    0  501 -0.00000000000E+00 -0.00000000000E+00 -0.15762576949E+04  0.15762576949E+04  0.00000000000E+00 0.  1.
         23    2    1    2    0    0 -0.16527696265E+03  0.54883915286E+03 -0.74230094811E+03  0.94232631086E+03  0.91800264140E+02 0.  0.
        254    2    1    2    0    0  0.16527696265E+03 -0.54883915286E+03 -0.37468624200E+03  0.10932018888E+04  0.85215004532E+03 0.  0.
        -24    2    4    4    0    0  0.39549202088E+03 -0.26076534827E+03 -0.50223588405E+03  0.69505037323E+03  0.80259782420E+02 0.  0.
         24    2    4    4    0    0 -0.23021505823E+03 -0.28807380459E+03  0.12754964205E+03  0.39815151561E+03  0.79184772995E+02 0.  0.
         11    1    3    3    0    0 -0.70937966061E+02  0.38416995890E+03 -0.49396640143E+03  0.62977897559E+03  0.00000000000E+00 0.  1.
        -11    1    3    3    0    0 -0.94338996587E+02  0.16466919395E+03 -0.24833454668E+03  0.31254733528E+03  0.00000000000E+00 0. -1.
          4    1    6    6  502    0 -0.18804299092E+03 -0.21217110455E+03  0.12860572288E+03  0.31131362964E+03  0.00000000000E+00 0. -1.
          1    1    5    5  503    0  0.10378229171E+02 -0.29382213197E+02 -0.30582881848E+02  0.43661593595E+02  0.00000000000E+00 0. -1.
         -2    1    5    5    0  503  0.38511379170E+03 -0.23138313507E+03 -0.47165300220E+03  0.65138877964E+03  0.00000000000E+00 0.  1.
         -3    1    6    6    0  502 -0.42172067303E+02 -0.75902700043E+02 -0.10560808305E+01  0.86837885978E+02  0.00000000000E+00 0.  1.
<mgrwt>
<rscale>  0 0.17016800E+04</rscale>
<asrwt>0</asrwt>
<pdfrwt beam="1">  1        1 0.70657000E-01 0.17016800E+04</pdfrwt>
<pdfrwt beam="2">  1       -1 0.24250119E+00 0.17016800E+04</pdfrwt>
<totfact> 0.36996683E+00</totfact>
</mgrwt>
</event>
<event>
12    1  0.1598876E-007  0.1893728E+04  0.7818608E-02  0.8657985E-01
         -2   -1    0    0    0  501 -0.00000000000E+00  0.00000000000E+00  0.37043977080E+03  0.37043977080E+03  0.00000000000E+00 0.  1.
          2   -1    0    0  501    0  0.00000000000E+00 -0.00000000000E+00 -0.24202359729E+04  0.24202359729E+04  0.00000000000E+00 0. -1.
         23    2    1    2    0    0  0.49383478213E+03 -0.30914181140E+03 -0.14490308104E+04  0.15644686753E+04  0.91817725498E+02 0.  0.
        254    2    1    2    0    0 -0.49383478213E+03  0.30914181140E+03 -0.60076539165E+03  0.12262070684E+04  0.89622724085E+03 0.  0.
        -24    2    4    4    0    0 -0.28639867044E+03  0.75492517689E+02  0.19819387653E+03  0.36505227022E+03  0.79114023042E+02 0.  0.
         24    2    4    4    0    0 -0.20743611169E+03  0.23364929371E+03 -0.79895926818E+03  0.86115479820E+03  0.75032935147E+02 0.  0.
         13    1    3    3    0    0  0.33734913997E+03 -0.18019860469E+03 -0.10362064991E+04  0.11045360511E+04  0.00000000000E+00 0. -1.
        -13    1    3    3    0    0  0.15648564216E+03 -0.12894320671E+03 -0.41282431129E+03  0.45993262414E+03  0.00000000000E+00 0.  1.
          2    1    6    6  502    0 -0.11551758168E+03  0.16846665113E+03 -0.57966592742E+03  0.61460386562E+03  0.00000000000E+00 0. -1.
          1    1    5    5  503    0 -0.24663525122E+03  0.33943854166E+02  0.15741273233E+03  0.29455033641E+03  0.00000000000E+00 0. -1.
         -2    1    5    5    0  503 -0.39763419221E+02  0.41548663523E+02  0.40781144199E+02  0.70501933810E+02  0.00000000000E+00 0.  1.
         -1    1    6    6    0  502 -0.91918530006E+02  0.65182642575E+02 -0.21929334077E+03  0.24655093258E+03  0.00000000000E+00 0.  1.
<mgrwt>
<rscale>  0 0.18937282E+04</rscale>
<asrwt>0</asrwt>
<pdfrwt beam="1">  1        2 0.37234400E+00 0.18937282E+04</pdfrwt>
<pdfrwt beam="2">  1       -2 0.56990734E-01 0.18937282E+04</pdfrwt>
<totfact> 0.10475016E+01</totfact>
</mgrwt>
</event>
<event>
12    1  0.1598876E-007  0.1348481E+04  0.7818608E-02  0.8991978E-01
         -1   -1    0    0    0  501 -0.00000000000E+00  0.00000000000E+00  0.90143825821E+03  0.90143825821E+03  0.00000000000E+00 0.  1.
          1   -1    0    0  501    0  0.00000000000E+00 -0.00000000000E+00 -0.50430584864E+03  0.50430584864E+03  0.00000000000E+00 0. -1.
         23    2    1    2    0    0  0.32994898803E+03  0.63472183364E+02 -0.21485530880E+02  0.34885884153E+03  0.91355407675E+02 0.  0.
        254    2    1    2    0    0 -0.32994898803E+03 -0.63472183364E+02  0.41861794045E+03  0.10568852653E+04  0.91042321545E+03 0.  0.
        -24    2    4    4    0    0 -0.55870873918E+03  0.13762058741E+03  0.45597492895E+03  0.73875619835E+03  0.82174834624E+02 0.  0.
         24    2    4    4    0    0  0.22875975115E+03 -0.20109277077E+03 -0.37356988500E+02  0.31812906698E+03  0.83912051972E+02 0.  0.
         11    1    3    3    0    0  0.22991114141E+03  0.53852914545E+02  0.26269068014E+02  0.23759068434E+03  0.00000000000E+00 0. -1.
        -11    1    3    3    0    0  0.10003784662E+03  0.96192688185E+01 -0.47754598894E+02  0.11126815719E+03  0.00000000000E+00 0.  1.
          2    1    6    6  502    0  0.17034786532E+02 -0.53223596576E+02  0.62220385988E+01  0.56228542120E+02  0.00000000000E+00 0. -1.
          3    1    5    5  503    0 -0.85587634966E+00  0.81350270164E+01  0.35176471504E+01  0.89042141910E+01  0.00000000000E+00 0. -1.
         -4    1    5    5    0  503 -0.55785286283E+03  0.12948556039E+03  0.45245728180E+03  0.72985198415E+03  0.00000000000E+00 0.  1.
         -1    1    6    6    0  502  0.21172496462E+03 -0.14786917420E+03 -0.43579027099E+02  0.26190052486E+03  0.00000000000E+00 0.  1.
<mgrwt>
<rscale>  0 0.13484815E+04</rscale>
<asrwt>0</asrwt>
<pdfrwt beam="1">  1        1 0.77585515E-01 0.13484815E+04</pdfrwt>
<pdfrwt beam="2">  1       -1 0.13868281E+00 0.13484815E+04</pdfrwt>
<totfact> 0.18425236E+01</totfact>
</mgrwt>
</event>
<event>
12    1  0.1598876E-007  0.2217174E+04  0.7818608E-02  0.8511314E-01
          1   -1    0    0  501    0  0.00000000000E+00  0.00000000000E+00  0.17325335524E+04  0.17325335524E+04  0.00000000000E+00 0. -1.
         -1   -1    0    0    0  501 -0.00000000000E+00 -0.00000000000E+00 -0.70934564235E+03  0.70934564235E+03  0.00000000000E+00 0.  1.
         23    2    1    2    0    0 -0.28486617795E+03  0.83566311978E+03  0.19258730694E+03  0.90826557062E+03  0.91514408119E+02 0.  0.
        254    2    1    2    0    0  0.28486617795E+03 -0.83566311978E+03  0.83060060313E+03  0.15336136241E+04  0.93946356883E+03 0.  0.
        -24    2    4    4    0    0 -0.24330881117E+03 -0.57237345786E+03  0.66909718487E+03  0.91705020006E+03  0.80495178624E+02 0.  0.
         24    2    4    4    0    0  0.52817498911E+03 -0.26328966191E+03  0.16150341826E+03  0.61656342408E+03  0.76005503823E+02 0.  0.
         11    1    3    3    0    0 -0.99438029959E+02  0.30569474305E+03  0.25552984113E+02  0.32247504202E+03  0.00000000000E+00 0. -1.
        -11    1    3    3    0    0 -0.18542814799E+03  0.52996837673E+03  0.16703432282E+03  0.58579052860E+03  0.00000000000E+00 0.  1.
          2    1    6    6  502    0  0.27638199907E+03 -0.12773766782E+03  0.12148690973E+03  0.32781548228E+03  0.00000000000E+00 0. -1.
          3    1    5    5  503    0 -0.10815834774E+03 -0.26024487647E+03  0.24519582056E+03  0.37355938528E+03  0.00000000000E+00 0. -1.
         -4    1    5    5    0  503 -0.13515046343E+03 -0.31212858140E+03  0.42390136431E+03  0.54349081478E+03  0.00000000000E+00 0.  1.
         -1    1    6    6    0  502  0.25179299005E+03 -0.13555199410E+03  0.40016508533E+02  0.28874794180E+03  0.00000000000E+00 0.  1.
<mgrwt>
<rscale>  0 0.22171740E+04</rscale>
<asrwt>0</asrwt>
<pdfrwt beam="1">  1        1 0.26654362E+00 0.22171740E+04</pdfrwt>
<pdfrwt beam="2">  1       -1 0.10913010E+00 0.22171740E+04</pdfrwt>
<totfact> 0.32055649E+00</totfact>
</mgrwt>
</event>
<event>
12    1  0.1598876E-007  0.2097195E+04  0.7818608E-02  0.8562480E-01
         -2   -1    0    0    0  501 -0.00000000000E+00  0.00000000000E+00  0.63149838383E+03  0.63149838383E+03  0.00000000000E+00 0.  1.
          2   -1    0    0  501    0  0.00000000000E+00 -0.00000000000E+00 -0.17411865416E+04  0.17411865416E+04  0.00000000000E+00 0. -1.
         23    2    1    2    0    0 -0.28281979959E+03 -0.28190212984E+03  0.39818626145E+03  0.57157965170E+03  0.93247785885E+02 0.  0.
        254    2    1    2    0    0  0.28281979959E+03  0.28190212984E+03 -0.15078744192E+04  0.18011052738E+04  0.90046604217E+03 0.  0.
        -24    2    4    4    0    0  0.44407146442E+03 -0.15972847807E+03 -0.53897638413E+03  0.72113381238E+03  0.82618281816E+02 0.  0.
         24    2    4    4    0    0 -0.16125166483E+03  0.44163060792E+03 -0.96889803512E+03  0.10799714614E+04  0.80840965385E+02 0.  0.
         11    1    3    3    0    0 -0.22698550431E+03 -0.27013893324E+03  0.34817785481E+03  0.49570684986E+03  0.00000000000E+00 0.  1.
        -11    1    3    3    0    0 -0.55834295275E+02 -0.11763196607E+02  0.50008406643E+02  0.75872801835E+02  0.00000000000E+00 0. -1.
          2    1    6    6  502    0 -0.15275537666E+03  0.40943469933E+03 -0.93683456711E+03  0.10337456091E+04  0.00000000000E+00 0. -1.
          3    1    5    5  503    0  0.26997506062E+03 -0.13662394789E+03 -0.36209034597E+03  0.47187080343E+03  0.00000000000E+00 0. -1.
         -2    1    5    5    0  503  0.17409640380E+03 -0.23104530185E+02 -0.17688603816E+03  0.24926300894E+03  0.00000000000E+00 0.  1.
         -1    1    6    6    0  502 -0.84962881651E+01  0.32195908585E+02 -0.32063468005E+02  0.46225852320E+02  0.00000000000E+00 0.  1.
<mgrwt>
<rscale>  0 0.20971948E+04</rscale>
<asrwt>0</asrwt>
<pdfrwt beam="1">  1        2 0.26787484E+00 0.20971948E+04</pdfrwt>
<pdfrwt beam="2">  1       -2 0.97153600E-01 0.20971948E+04</pdfrwt>
<totfact> 0.75828402E+00</totfact>
</mgrwt>
</event>
<event>
12    1  0.1598876E-007  0.2054448E+04  0.7818608E-02  0.8581579E-01
          1   -1    0    0  501    0  0.00000000000E+00  0.00000000000E+00  0.28734257487E+04  0.28734257487E+04  0.00000000000E+00 0. -1.
         -1   -1    0    0    0  501 -0.00000000000E+00 -0.00000000000E+00 -0.36722325762E+03  0.36722325762E+03  0.00000000000E+00 0.  1.
         23    2    1    2    0    0  0.13043490639E+03  0.13223838749E+02  0.23439438135E+04  0.23493719704E+04  0.91038013918E+02 0.  0.
        254    2    1    2    0    0 -0.13043490639E+03 -0.13223838749E+02  0.16225867757E+03  0.89127703586E+03  0.86652105658E+03 0.  0.
        -24    2    4    4    0    0 -0.15576004219E+03  0.15801317644E+03  0.47254479611E+03  0.52735606347E+03  0.74675823858E+02 0.  0.
         24    2    4    4    0    0  0.25325135805E+02 -0.17123701519E+03 -0.31028611854E+03  0.36392097239E+03  0.78724334947E+02 0.  0.
         11    1    3    3    0    0  0.12240805173E+03  0.26663977485E+02  0.14819034869E+04  0.14871895116E+04  0.00000000000E+00 0.  1.
        -11    1    3    3    0    0  0.80268546597E+01 -0.13440138735E+02  0.86204032659E+03  0.86218245887E+03  0.00000000000E+00 0. -1.
          4    1    6    6  502    0  0.21195612698E+02 -0.39523819048E+02 -0.14923057938E+03  0.15582410626E+03  0.00000000000E+00 0. -1.
          3    1    5    5  503    0 -0.76753506923E+02  0.42340394787E+02  0.24434354003E+03  0.25959116975E+03  0.00000000000E+00 0. -1.
         -4    1    5    5    0  503 -0.79006535270E+02  0.11567278166E+03  0.22820125608E+03  0.26776489372E+03  0.00000000000E+00 0.  1.
         -3    1    6    6    0  502  0.41295231071E+01 -0.13171319615E+03 -0.16105553916E+03  0.20809686613E+03  0.00000000000E+00 0.  1.
<mgrwt>
<rscale>  0 0.20544476E+04</rscale>
<asrwt>0</asrwt>
<pdfrwt beam="1">  1        1 0.44206549E+00 0.20544476E+04</pdfrwt>
<pdfrwt beam="2">  1       -1 0.56495888E-01 0.20544476E+04</pdfrwt>
<totfact> 0.21641591E+00</totfact>
</mgrwt>
</event>
<event>
12    1  0.1598876E-007  0.1714083E+04  0.7818608E-02  0.8753373E-01
         -2   -1    0    0    0  501 -0.00000000000E+00  0.00000000000E+00  0.78273678595E+03  0.78273678595E+03  0.00000000000E+00 0.  1.
          2   -1    0    0  501    0  0.00000000000E+00 -0.00000000000E+00 -0.93839971389E+03  0.93839971389E+03  0.00000000000E+00 0. -1.
         23    2    1    2    0    0 -0.54915423091E+03 -0.58920249902E+02 -0.32472777512E+03  0.64727563382E+03  0.92063309846E+02 0.  0.
        254    2    1    2    0    0  0.54915423091E+03  0.58920249902E+02  0.16906484718E+03  0.10738608660E+04  0.90529126355E+03 0.  0.
        -24    2    4    4    0    0  0.59439219201E+03  0.22772155474E+03  0.41365615829E+03  0.76271714463E+03  0.73938089028E+02 0.  0.
         24    2    4    4    0    0 -0.45237961099E+02 -0.16880130484E+03 -0.24459131111E+03  0.31114372139E+03  0.80281705602E+02 0.  0.
         11    1    3    3    0    0 -0.20708912201E+02 -0.21956917581E+02 -0.18277672677E+02  0.35285104402E+02  0.00000000000E+00 0.  1.
        -11    1    3    3    0    0 -0.52844531871E+03 -0.36963332321E+02 -0.30645010244E+03  0.61199052941E+03  0.00000000000E+00 0. -1.
          4    1    6    6  502    0  0.58405206156E+01 -0.25157990079E+01  0.41626911889E+01  0.76005870592E+01  0.00000000000E+00 0. -1.
          3    1    5    5  503    0  0.37883636252E+03  0.10678208714E+03  0.25005669826E+03  0.46631293789E+03  0.00000000000E+00 0. -1.
         -4    1    5    5    0  503  0.21555582949E+03  0.12093946760E+03  0.16359946003E+03  0.29640420674E+03  0.00000000000E+00 0.  1.
         -3    1    6    6    0  502 -0.51078481715E+02 -0.16628550583E+03 -0.24875400230E+03  0.30354313433E+03  0.00000000000E+00 0.  1.
<mgrwt>
<rscale>  0 0.17140828E+04</rscale>
<asrwt>0</asrwt>
<pdfrwt beam="1">  1        2 0.14436919E+00 0.17140828E+04</pdfrwt>
<pdfrwt beam="2">  1       -2 0.12042104E+00 0.17140828E+04</pdfrwt>
<totfact> 0.13826570E+01</totfact>
</mgrwt>
</event>
<event>
12    1  0.1598876E-007  0.1318593E+04  0.7818608E-02  0.9014949E-01
         -1   -1    0    0    0  501 -0.00000000000E+00  0.00000000000E+00  0.13388630362E+04  0.13388630362E+04  0.00000000000E+00 0.  1.
          1   -1    0    0  501    0  0.00000000000E+00 -0.00000000000E+00 -0.32465759745E+03  0.32465759745E+03  0.00000000000E+00 0. -1.
         23    2    1    2    0    0 -0.22546193348E+03  0.25777004380E+03  0.23227373838E+03  0.42399568719E+03  0.92427129580E+02 0.  0.
        254    2    1    2    0    0  0.22546193348E+03 -0.25777004380E+03  0.78193170040E+03  0.12395249465E+04  0.89873601795E+03 0.  0.
        -24    2    4    4    0    0  0.50373948121E+03  0.39419446419E+02  0.59353110890E+03  0.78337773040E+03  0.78064931714E+02 0.  0.
         24    2    4    4    0    0 -0.27827754774E+03 -0.29718949022E+03  0.18840059150E+03  0.45614721610E+03  0.82556121551E+02 0.  0.
         13    1    3    3    0    0 -0.14087553844E+03  0.11817313594E+03  0.79145997926E+02  0.20018715337E+03  0.00000000000E+00 0. -1.
        -13    1    3    3    0    0 -0.84586395036E+02  0.13959690787E+03  0.15312774046E+03  0.22380853381E+03  0.00000000000E+00 0.  1.
          2    1    6    6  502    0 -0.21000035020E+03 -0.22080108612E+03  0.17865707009E+03  0.35323025835E+03  0.00000000000E+00 0. -1.
          3    1    5    5  503    0  0.42672865886E+03  0.59199081080E+02  0.51762736250E+03  0.67345375929E+03  0.00000000000E+00 0. -1.
         -4    1    5    5    0  503  0.77010822346E+02 -0.19779634660E+02  0.75903746399E+02  0.10992397110E+03  0.00000000000E+00 0.  1.
         -1    1    6    6    0  502 -0.68277197534E+02 -0.76388404096E+02  0.97435214112E+01  0.10291695775E+03  0.00000000000E+00 0.  1.
<mgrwt>
<rscale>  0 0.13185933E+04</rscale>
<asrwt>0</asrwt>
<pdfrwt beam="1">  1        1 0.49947323E-01 0.13185933E+04</pdfrwt>
<pdfrwt beam="2">  1       -1 0.20597893E+00 0.13185933E+04</pdfrwt>
<totfact> 0.10622608E+01</totfact>
</mgrwt>
</event>
<event>
12    1  0.1598876E-007  0.1981822E+04  0.7818608E-02  0.8615167E-01
         -1   -1    0    0    0  501 -0.00000000000E+00  0.00000000000E+00  0.51609504301E+03  0.51609504301E+03  0.00000000000E+00 0.  1.
          1   -1    0    0  501    0  0.00000000000E+00 -0.00000000000E+00 -0.19025651061E+04  0.19025651061E+04  0.00000000000E+00 0. -1.
         23    2    1    2    0    0 -0.43281373028E+03  0.30731127375E+02  0.24081514902E+03  0.50487428403E+03  0.92919208852E+02 0.  0.
        254    2    1    2    0    0  0.43281373028E+03 -0.30731127375E+02 -0.16272852122E+04  0.19137858651E+04  0.90898132464E+03 0.  0.
        -24    2    4    4    0    0  0.26636232027E+03 -0.35246988345E+03 -0.14180658382E+04  0.14874847899E+04  0.80724063517E+02 0.  0.
         24    2    4    4    0    0  0.16645141001E+03  0.32173875608E+03 -0.20921937398E+03  0.42630107520E+03  0.82085085233E+02 0.  0.
         11    1    3    3    0    0 -0.10761326708E+03  0.42840650096E+02  0.87381375843E+02  0.14509114858E+03  0.00000000000E+00 0. -1.
        -11    1    3    3    0    0 -0.32520046320E+03 -0.12109522721E+02  0.15343377317E+03  0.35978313545E+03  0.00000000000E+00 0.  1.
          2    1    6    6  502    0  0.17486898843E+03  0.29060268463E+03 -0.18991968190E+03  0.38871399384E+03  0.00000000000E+00 0. -1.
          1    1    5    5  503    0  0.23915235976E+03 -0.26269966545E+03 -0.11311057165E+04  0.11855821807E+04  0.00000000000E+00 0. -1.
         -2    1    5    5    0  503  0.27209960514E+02 -0.89770218004E+02 -0.28696012171E+03  0.30190260920E+03  0.00000000000E+00 0.  1.
         -1    1    6    6    0  502 -0.84175784256E+01  0.31136071441E+02 -0.19299692073E+02  0.37587081364E+02  0.00000000000E+00 0.  1.
<mgrwt>
<rscale>  0 0.19818218E+04</rscale>
<asrwt>0</asrwt>
<pdfrwt beam="1">  1        1 0.29270232E+00 0.19818218E+04</pdfrwt>
<pdfrwt beam="2">  1       -1 0.79399237E-01 0.19818218E+04</pdfrwt>
<totfact> 0.51102573E+00</totfact>
</mgrwt>
</event>
<event>
12    1  0.1598876E-007  0.4077338E+04  0.7818608E-02  0.7989124E-01
         -1   -1    0    0    0  501 -0.00000000000E+00  0.00000000000E+00  0.12473109146E+04  0.12473109146E+04  0.00000000000E+00 0.  1.
          1   -1    0    0  501    0  0.00000000000E+00 -0.00000000000E+00 -0.33321051657E+04  0.33321051657E+04  0.00000000000E+00 0. -1.
         23    2    1    2    0    0 -0.92945730038E+03  0.48575205891E+03  0.83729552924E+03  0.13456004805E+04  0.98645394078E+02 0.  0.
        254    2    1    2    0    0  0.92945730038E+03 -0.48575205891E+03 -0.29220897803E+04  0.32338155998E+04  0.90504624955E+03 0.  0.
        -24    2    4    4    0    0  0.86654308348E+03 -0.41787019239E+03 -0.29534009621E+04  0.31071737684E+04  0.80244441750E+02 0.  0.
         24    2    4    4    0    0  0.62914216893E+02 -0.67881866525E+02  0.31311181874E+02  0.12664183147E+03  0.80570570786E+02 0.  0.
         11    1    3    3    0    0 -0.59985903552E+03  0.33690607209E+03  0.60161125419E+03  0.91393252763E+03  0.00000000000E+00 0. -1.
        -11    1    3    3    0    0 -0.32959826486E+03  0.14884598683E+03  0.23568427505E+03  0.43166795283E+03  0.00000000000E+00 0.  1.
          4    1    6    6  502    0  0.49954722928E+02 -0.65830297736E+02 -0.10051982283E+02  0.83247491197E+02  0.00000000000E+00 0. -1.
          3    1    5    5  503    0  0.29745115959E+03 -0.10500035949E+03 -0.10135233043E+04  0.10614762156E+04  0.00000000000E+00 0. -1.
         -4    1    5    5    0  503  0.56909192390E+03 -0.31286983290E+03 -0.19398776578E+04  0.20456975528E+04  0.00000000000E+00 0.  1.
         -3    1    6    6    0  502  0.12959493965E+02 -0.20515687884E+01  0.41363164157E+02  0.43394340269E+02  0.00000000000E+00 0.  1.
<mgrwt>
<rscale>  0 0.40773379E+04</rscale>
<asrwt>0</asrwt>
<pdfrwt beam="1">  1        1 0.51263156E+00 0.40773379E+04</pdfrwt>
<pdfrwt beam="2">  1       -1 0.19189399E+00 0.40773379E+04</pdfrwt>
<totfact> 0.44933646E-02</totfact>
</mgrwt>
</event>
<event>
12    1  0.1598876E-007  0.3308683E+04  0.7818608E-02  0.8160689E-01
          2   -1    0    0  501    0  0.00000000000E+00  0.00000000000E+00  0.22286036795E+04  0.22286036795E+04  0.00000000000E+00 0. -1.
         -2   -1    0    0    0  501 -0.00000000000E+00 -0.00000000000E+00 -0.12280543950E+04  0.12280543950E+04  0.00000000000E+00 0.  1.
         23    2    1    2    0    0  0.92751695564E+03  0.55074894819E+03 -0.65945770980E+03  0.12676877857E+04  0.92389090786E+02 0.  0.
        254    2    1    2    0    0 -0.92751695564E+03 -0.55074894819E+03  0.16600069943E+04  0.21889702887E+04  0.93399978416E+03 0.  0.
        -24    2    4    4    0    0 -0.32490568858E+03 -0.40009697063E+03  0.14300602943E+04  0.15218240864E+04  0.72352002658E+02 0.  0.
         24    2    4    4    0    0 -0.60261126707E+03 -0.15065197756E+03  0.22994670004E+03  0.66714620234E+03  0.79826141693E+02 0.  0.
         13    1    3    3    0    0  0.74575980647E+00  0.30855907123E+01  0.24220193461E+01  0.39928943695E+01  0.00000000000E+00 0. -1.
        -13    1    3    3    0    0  0.92677119584E+03  0.54766335748E+03 -0.66187972915E+03  0.12636948913E+04  0.00000000000E+00 0.  1.
          2    1    6    6  502    0 -0.20065942148E+03 -0.57771373422E+02  0.11729234801E+03  0.23949787038E+03  0.00000000000E+00 0. -1.
          1    1    5    5  503    0 -0.20272954471E+03 -0.28073983357E+03  0.10359462329E+04  0.10922905840E+04  0.00000000000E+00 0. -1.
         -2    1    5    5    0  503 -0.12217614386E+03 -0.11935713706E+03  0.39411406131E+03  0.42953350233E+03  0.00000000000E+00 0.  1.
         -1    1    6    6    0  502 -0.40195184558E+03 -0.92880604138E+02  0.11265435204E+03  0.42764833196E+03  0.00000000000E+00 0.  1.
<mgrwt>
<rscale>  0 0.33086835E+04</rscale>
<asrwt>0</asrwt>
<pdfrwt beam="1">  1        2 0.34286210E+00 0.33086835E+04</pdfrwt>
<pdfrwt beam="2">  1       -2 0.18893145E+00 0.33086835E+04</pdfrwt>
<totfact> 0.65442446E-01</totfact>
</mgrwt>
</event>
<event>
12    1  0.1598876E-007  0.1659881E+04  0.7818608E-02  0.8784582E-01
         -2   -1    0    0    0  501 -0.00000000000E+00  0.00000000000E+00  0.12956471485E+04  0.12956471485E+04  0.00000000000E+00 0.  1.
          2   -1    0    0  501    0  0.00000000000E+00 -0.00000000000E+00 -0.53162740759E+03  0.53162740759E+03  0.00000000000E+00 0. -1.
         23    2    1    2    0    0 -0.85355997753E+02 -0.47368937943E+03 -0.87822504706E+02  0.49769296002E+03  0.91204251977E+02 0.  0.
        254    2    1    2    0    0  0.85355997753E+02  0.47368937943E+03  0.85184224564E+03  0.13295815961E+04  0.90026925676E+03 0.  0.
        -24    2    4    4    0    0 -0.34824550576E+03  0.37424923436E+03  0.65946922952E+03  0.83836947325E+03  0.81402010384E+02 0.  0.
         24    2    4    4    0    0  0.43360150352E+03  0.99440145076E+02  0.19237301612E+03  0.49121212284E+03  0.79895969777E+02 0.  0.
         11    1    3    3    0    0 -0.45187329886E+02 -0.31867914277E+03 -0.10015244611E+03  0.33708871723E+03  0.00000000000E+00 0. -1.
        -11    1    3    3    0    0 -0.40168667867E+02 -0.15501023666E+03  0.12329941400E+02  0.16060424279E+03  0.00000000000E+00 0.  1.
          4    1    6    6  502    0  0.28162290383E+03  0.10316560347E+03  0.12512056807E+03  0.32497655031E+03  0.00000000000E+00 0. -1.
          3    1    5    5  503    0 -0.24295477384E+03  0.22373516323E+03  0.47034110410E+03  0.57472184542E+03  0.00000000000E+00 0. -1.
         -4    1    5    5    0  503 -0.10529073192E+03  0.15051407112E+03  0.18912812542E+03  0.26364762783E+03  0.00000000000E+00 0.  1.
         -3    1    6    6    0  502  0.15197859969E+03 -0.37254583930E+01  0.67252448050E+02  0.16623557252E+03  0.00000000000E+00 0.  1.
<mgrwt>
<rscale>  0 0.16598814E+04</rscale>
<asrwt>0</asrwt>
<pdfrwt beam="1">  1        2 0.81788833E-01 0.16598814E+04</pdfrwt>
<pdfrwt beam="2">  1       -2 0.19933033E+00 0.16598814E+04</pdfrwt>
<totfact> 0.73427061E+00</totfact>
</mgrwt>
</event>
<event>
12    1  0.1598876E-007  0.1997863E+04  0.7818608E-02  0.8607621E-01
          1   -1    0    0  501    0  0.00000000000E+00  0.00000000000E+00  0.19120563059E+04  0.19120563059E+04  0.00000000000E+00 0. -1.
         -1   -1    0    0    0  501 -0.00000000000E+00 -0.00000000000E+00 -0.52187997879E+03  0.52187997879E+03  0.00000000000E+00 0.  1.
         23    2    1    2    0    0  0.54710674049E+03 -0.53477043325E+03  0.29957969749E+03  0.82656205046E+03  0.90286357515E+02 0.  0.
        254    2    1    2    0    0 -0.54710674049E+03  0.53477043325E+03  0.10905966296E+04  0.16073742342E+04  0.89941409735E+03 0.  0.
        -24    2    4    4    0    0 -0.36562618122E+03  0.65682776145E+03  0.35375338511E+03  0.83462860758E+03  0.79738588578E+02 0.  0.
         24    2    4    4    0    0 -0.18148055927E+03 -0.12205732820E+03  0.73684324450E+03  0.77274562663E+03  0.79778767534E+02 0.  0.
         13    1    3    3    0    0  0.53695532529E+02 -0.64531863725E+02  0.63407043985E+02  0.10520468087E+03  0.00000000000E+00 0. -1.
        -13    1    3    3    0    0  0.49341120796E+03 -0.47023856953E+03  0.23617265350E+03  0.72135736960E+03  0.00000000000E+00 0.  1.
          4    1    6    6  502    0 -0.35594623232E+01 -0.33213864685E+02  0.88821133210E+02  0.94894806413E+02  0.00000000000E+00 0. -1.
          1    1    5    5  503    0 -0.27668250875E+02  0.97563064086E+02  0.63237708301E+02  0.11951188783E+03  0.00000000000E+00 0. -1.
         -2    1    5    5    0  503 -0.33795793034E+03  0.55926469737E+03  0.29051567681E+03  0.71511671975E+03  0.00000000000E+00 0.  1.
         -3    1    6    6    0  502 -0.17792109694E+03 -0.88843463513E+02  0.64802211129E+03  0.67785082022E+03  0.00000000000E+00 0.  1.
<mgrwt>
<rscale>  0 0.19978628E+04</rscale>
<asrwt>0</asrwt>
<pdfrwt beam="1">  1        1 0.29416250E+00 0.19978628E+04</pdfrwt>
<pdfrwt beam="2">  1       -1 0.80289229E-01 0.19978628E+04</pdfrwt>
<totfact> 0.49099820E+00</totfact>
</mgrwt>
</event>
<event>
12    1  0.1598876E-007  0.1099907E+04  0.7818608E-02  0.9205282E-01
         -1   -1    0    0    0  501 -0.00000000000E+00  0.00000000000E+00  0.27437205035E+03  0.27437205035E+03  0.00000000000E+00 0.  1.
          1   -1    0    0  501    0  0.00000000000E+00 -0.00000000000E+00 -0.11023313421E+04  0.11023313421E+04  0.00000000000E+00 0. -1.
         23    2    1    2    0    0  0.81541311287E+02  0.13397667468E+03 -0.13328080768E+03  0.22454785244E+03  0.89773211672E+02 0.  0.
        254    2    1    2    0    0 -0.81541311287E+02 -0.13397667468E+03 -0.69467848403E+03  0.11521555400E+04  0.90569611752E+03 0.  0.
        -24    2    4    4    0    0  0.30237532815E+02 -0.50243215577E+03 -0.28293107293E+03  0.58283197353E+03  0.79314171478E+02 0.  0.
         24    2    4    4    0    0 -0.11177884410E+03  0.36845548109E+03 -0.41174741110E+03  0.56932356644E+03  0.79620607964E+02 0.  0.
         13    1    3    3    0    0 -0.10403964740E+02  0.45791700710E+02 -0.11588668667E+02  0.48367546741E+02  0.00000000000E+00 0.  1.
        -13    1    3    3    0    0  0.91945276027E+02  0.88184973968E+02 -0.12169213902E+03  0.17618030570E+03  0.00000000000E+00 0. -1.
          2    1    6    6  502    0 -0.26469076661E+01  0.65606894854E+02 -0.37266726750E+02  0.75498872146E+02  0.00000000000E+00 0. -1.
          3    1    5    5  503    0  0.17088797026E+02 -0.36679824499E+02 -0.62735461313E+01  0.40948673851E+02  0.00000000000E+00 0. -1.
         -4    1    5    5    0  503  0.13148735789E+02 -0.46575233127E+03 -0.27665752679E+03  0.54188329968E+03  0.00000000000E+00 0.  1.
         -1    1    6    6    0  502 -0.10913193644E+03  0.30284858624E+03 -0.37448068435E+03  0.49382469429E+03  0.00000000000E+00 0.  1.
<mgrwt>
<rscale>  0 0.10999071E+04</rscale>
<asrwt>0</asrwt>
<pdfrwt beam="1">  1        1 0.16958944E+00 0.10999071E+04</pdfrwt>
<pdfrwt beam="2">  1       -1 0.42211085E-01 0.10999071E+04</pdfrwt>
<totfact> 0.69367066E+01</totfact>
</mgrwt>
</event>
<event>
12    1  0.1598876E-007  0.1790472E+04  0.7818608E-02  0.8711383E-01
         -1   -1    0    0    0  501 -0.00000000000E+00  0.00000000000E+00  0.32666212751E+03  0.32666212751E+03  0.00000000000E+00 0.  1.
          1   -1    0    0  501    0  0.00000000000E+00 -0.00000000000E+00 -0.24534443480E+04  0.24534443480E+04  0.00000000000E+00 0. -1.
         23    2    1    2    0    0  0.42841605184E+02  0.62311663947E+03 -0.66891464632E+03  0.91968684775E+03  0.90924937978E+02 0.  0.
        254    2    1    2    0    0 -0.42841605184E+02 -0.62311663947E+03 -0.14578675742E+04  0.18604196278E+04  0.97245749420E+03 0.  0.
        -24    2    4    4    0    0 -0.60182615142E+02 -0.13453712819E+03 -0.13405330793E+04  0.13509243172E+04  0.79027767959E+02 0.  0.
         24    2    4    4    0    0  0.17341009958E+02 -0.48857951128E+03 -0.11733449486E+03  0.50949531054E+03  0.82507201561E+02 0.  0.
         11    1    3    3    0    0  0.60042875437E+02  0.59495026165E+03 -0.62864073170E+03  0.86761750229E+03  0.00000000000E+00 0.  1.
        -11    1    3    3    0    0 -0.17201270254E+02  0.28166377815E+02 -0.40273914623E+02  0.52069345460E+02  0.00000000000E+00 0. -1.
          2    1    6    6  502    0  0.25626550944E+02 -0.16617451905E+03 -0.57881846762E+01  0.16823850325E+03  0.00000000000E+00 0. -1.
          1    1    5    5  503    0 -0.52839008953E+02 -0.12182260779E+03 -0.86215996479E+03  0.87232592161E+03  0.00000000000E+00 0. -1.
         -2    1    5    5    0  503 -0.73436061890E+01 -0.12714520403E+02 -0.47837311454E+03  0.47859839563E+03  0.00000000000E+00 0.  1.
         -1    1    6    6    0  502 -0.82855409863E+01 -0.32240499223E+03 -0.11154631019E+03  0.34125680729E+03  0.00000000000E+00 0.  1.
<mgrwt>
<rscale>  0 0.17904718E+04</rscale>
<asrwt>0</asrwt>
<pdfrwt beam="1">  1        1 0.37745297E+00 0.17904718E+04</pdfrwt>
<pdfrwt beam="2">  1       -1 0.50255713E-01 0.17904718E+04</pdfrwt>
<totfact> 0.54833101E+00</totfact>
</mgrwt>
</event>
<event>
12    1  0.1598876E-007  0.1763384E+04  0.7818608E-02  0.8726017E-01
          1   -1    0    0  501    0  0.00000000000E+00  0.00000000000E+00  0.46078990949E+03  0.46078990949E+03  0.00000000000E+00 0. -1.
         -1   -1    0    0    0  501 -0.00000000000E+00 -0.00000000000E+00 -0.16870617345E+04  0.16870617345E+04  0.00000000000E+00 0.  1.
         23    2    1    2    0    0  0.25956846769E+03  0.21002533795E+03 -0.11425740215E+04  0.11936028551E+04  0.87897377439E+02 0.  0.
        254    2    1    2    0    0 -0.25956846769E+03 -0.21002533795E+03 -0.83697803541E+02  0.95424878897E+03  0.88999943648E+03 0.  0.
        -24    2    4    4    0    0  0.66819682279E+02  0.22123029211E+03 -0.28133274317E+03  0.37298021275E+03  0.80984039382E+02 0.  0.
         24    2    4    4    0    0 -0.32638814997E+03 -0.43125563006E+03  0.19763493963E+03  0.58126857623E+03  0.79391091717E+02 0.  0.
         13    1    3    3    0    0  0.24768837366E+03  0.21586111062E+03 -0.10532827943E+04  0.11033359390E+04  0.00000000000E+00 0.  1.
        -13    1    3    3    0    0  0.11880094033E+02 -0.58357726687E+01 -0.89291227206E+02  0.90266916048E+02  0.00000000000E+00 0. -1.
          2    1    6    6  502    0 -0.32821461836E+03 -0.43144160048E+03  0.19159665915E+03  0.57495736375E+03  0.00000000000E+00 0. -1.
          3    1    5    5  503    0  0.75903121065E+01  0.15575575297E+03 -0.16637628401E+03  0.22803187344E+03  0.00000000000E+00 0. -1.
         -4    1    5    5    0  503  0.59229370172E+02  0.65474539134E+02 -0.11495645916E+03  0.14494833931E+03  0.00000000000E+00 0.  1.
         -1    1    6    6    0  502  0.18264683926E+01  0.18597041674E+00  0.60382804801E+01  0.63112124779E+01  0.00000000000E+00 0.  1.
<mgrwt>
<rscale>  0 0.17633843E+04</rscale>
<asrwt>0</asrwt>
<pdfrwt beam="1">  1        1 0.70890755E-01 0.17633843E+04</pdfrwt>
<pdfrwt beam="2">  1       -1 0.25954796E+00 0.17633843E+04</pdfrwt>
<totfact> 0.28358968E+00</totfact>
</mgrwt>
</event>
<event>
12    1  0.1598876E-007  0.2752543E+04  0.7818608E-02  0.8318155E-01
         -2   -1    0    0    0  501 -0.00000000000E+00  0.00000000000E+00  0.12908684275E+04  0.12908684275E+04  0.00000000000E+00 0.  1.
          2   -1    0    0  501    0  0.00000000000E+00 -0.00000000000E+00 -0.14673251113E+04  0.14673251113E+04  0.00000000000E+00 0. -1.
         23    2    1    2    0    0 -0.43025979028E+02 -0.92379867804E+03  0.73380497339E+03  0.11842194619E+04  0.93009475381E+02 0.  0.
        254    2    1    2    0    0  0.43025979028E+02  0.92379867804E+03 -0.91026165715E+03  0.15739740769E+04  0.89082146238E+03 0.  0.
        -24    2    4    4    0    0  0.32241130511E+03  0.85262742828E+03 -0.88719041954E+03  0.12741659227E+04  0.73955236538E+02 0.  0.
         24    2    4    4    0    0 -0.27938532608E+03  0.71171249757E+02 -0.23071237612E+02  0.29980815416E+03  0.78937570749E+02 0.  0.
         13    1    3    3    0    0 -0.25742467298E+02 -0.19179076086E+03  0.11184979825E+03  0.22351006228E+03  0.00000000000E+00 0. -1.
        -13    1    3    3    0    0 -0.17283511730E+02 -0.73200791718E+03  0.62195517515E+03  0.96070939960E+03  0.00000000000E+00 0.  1.
          4    1    6    6  502    0 -0.10696065441E+03 -0.74981436960E+01 -0.25725687413E+02  0.11026610877E+03  0.00000000000E+00 0. -1.
          3    1    5    5  503    0  0.94759922348E+02  0.29174553859E+03 -0.25489739104E+03  0.39883277464E+03  0.00000000000E+00 0. -1.
         -4    1    5    5    0  503  0.22765138276E+03  0.56088188969E+03 -0.63229302849E+03  0.87533314809E+03  0.00000000000E+00 0.  1.
         -3    1    6    6    0  502 -0.17242467167E+03  0.78669393453E+02  0.26544498003E+01  0.18954204539E+03  0.00000000000E+00 0.  1.
<mgrwt>
<rscale>  0 0.27525433E+04</rscale>
<asrwt>0</asrwt>
<pdfrwt beam="1">  1        2 0.22574232E+00 0.27525433E+04</pdfrwt>
<pdfrwt beam="2">  1       -2 0.19859514E+00 0.27525433E+04</pdfrwt>
<totfact> 0.15722638E+00</totfact>
</mgrwt>
</event>
<event>
12    1  0.1598876E-007  0.5439752E+04  0.7818608E-02  0.7764034E-01
          2   -1    0    0  501    0  0.00000000000E+00  0.00000000000E+00  0.33387981704E+04  0.33387981704E+04  0.00000000000E+00 0.  1.
         -2   -1    0    0    0  501 -0.00000000000E+00 -0.00000000000E+00 -0.22156851050E+04  0.22156851050E+04  0.00000000000E+00 0. -1.
         23    2    1    2    0    0 -0.19121787938E+04  0.16534439896E+04 -0.25195864090E+03  0.25420218594E+04  0.89928921465E+02 0.  0.
        254    2    1    2    0    0  0.19121787938E+04 -0.16534439896E+04  0.13750717063E+04  0.30124614159E+04  0.89095275908E+03 0.  0.
        -24    2    4    4    0    0  0.83659558319E+03 -0.12449234107E+04  0.97990680686E+03  0.17933888106E+04  0.79370067474E+02 0.  0.
         24    2    4    4    0    0  0.10755832106E+04 -0.40852057890E+03  0.39516489940E+03  0.12190726053E+04  0.78831547980E+02 0.  0.
         13    1    3    3    0    0 -0.15893810758E+03  0.15600479039E+03 -0.43671581729E+02  0.22694938580E+03  0.00000000000E+00 0. -1.
        -13    1    3    3    0    0 -0.17532406863E+04  0.14974391992E+04 -0.20828705917E+03  0.23150724736E+04  0.00000000000E+00 0.  1.
          4    1    6    6  502    0  0.41785597930E+03 -0.19629530429E+03  0.17523702965E+03  0.49380510577E+03  0.00000000000E+00 0. -1.
          3    1    5    5  503    0  0.12719433632E+03 -0.24428167474E+03  0.17907439170E+03  0.32851114679E+03  0.00000000000E+00 0. -1.
         -4    1    5    5    0  503  0.70940124688E+03 -0.10006417359E+04  0.80083241516E+03  0.14648776638E+04  0.00000000000E+00 0.  1.
         -3    1    6    6    0  502  0.65772723135E+03 -0.21222527461E+03  0.21992786975E+03  0.72526749957E+03  0.00000000000E+00 0.  1.
<mgrwt>
<rscale>  0 0.54397520E+04</rscale>
<asrwt>0</asrwt>
<pdfrwt beam="1">  1        2 0.51366126E+00 0.54397520E+04</pdfrwt>
<pdfrwt beam="2">  1       -2 0.34087463E+00 0.54397520E+04</pdfrwt>
<totfact> 0.13079723E-02</totfact>
</mgrwt>
</event>
<event>
12    1  0.1598876E-007  0.2001707E+04  0.7818608E-02  0.8605823E-01
         -2   -1    0    0    0  501 -0.00000000000E+00  0.00000000000E+00  0.27190905800E+04  0.27190905800E+04  0.00000000000E+00 0. -1.
          2   -1    0    0  501    0  0.00000000000E+00 -0.00000000000E+00 -0.36839815997E+03  0.36839815997E+03  0.00000000000E+00 0.  1.
         23    2    1    2    0    0  0.17066490225E+03  0.76542981898E+03  0.74466766925E+03  0.10869366016E+04  0.10905008746E+03 0.  0.
        254    2    1    2    0    0 -0.17066490225E+03 -0.76542981898E+03  0.16060247508E+04  0.20005521384E+04  0.89882369891E+03 0.  0.
        -24    2    4    4    0    0  0.30548083540E+03 -0.58408555069E+03  0.10534294278E+04  0.12453593321E+04  0.82047762315E+02 0.  0.
         24    2    4    4    0    0 -0.47614573764E+03 -0.18134426828E+03  0.55259532296E+03  0.75519280632E+03  0.73171556219E+02 0.  0.
         13    1    3    3    0    0  0.32974086196E+02  0.10616273204E+03  0.16144114477E+03  0.19601290585E+03  0.00000000000E+00 0. -1.
        -13    1    3    3    0    0  0.13769081605E+03  0.65926708694E+03  0.58322652448E+03  0.89092369573E+03  0.00000000000E+00 0.  1.
          2    1    6    6  502    0 -0.44758008054E+02 -0.58784901306E+01  0.25548156820E+02  0.51870456409E+02  0.00000000000E+00 0. -1.
          1    1    5    5  503    0  0.34808798048E+00 -0.33965674161E+02  0.72200794264E+02  0.79791872260E+02  0.00000000000E+00 0. -1.
         -2    1    5    5    0  503  0.30513274742E+03 -0.55011987653E+03  0.98122863356E+03  0.11655674598E+04  0.00000000000E+00 0.  1.
         -1    1    6    6    0  502 -0.43138772959E+03 -0.17546577815E+03  0.52704716614E+03  0.70332234991E+03  0.00000000000E+00 0.  1.
<mgrwt>
<rscale>  0 0.20017072E+04</rscale>
<asrwt>0</asrwt>
<pdfrwt beam="1">  1        2 0.56676642E-01 0.20017072E+04</pdfrwt>
<pdfrwt beam="2">  1       -2 0.41832162E+00 0.20017072E+04</pdfrwt>
<totfact> 0.45709613E-01</totfact>
</mgrwt>
</event>
<event>
12    1  0.1598876E-007  0.3511201E+04  0.7818608E-02  0.8111140E-01
         -1   -1    0    0    0  501 -0.00000000000E+00  0.00000000000E+00  0.20710295329E+04  0.20710295329E+04  0.00000000000E+00 0.  1.
          1   -1    0    0  501    0  0.00000000000E+00 -0.00000000000E+00 -0.14882133378E+04  0.14882133378E+04  0.00000000000E+00 0. -1.
         23    2    1    2    0    0  0.15585341470E+04  0.31791249063E+03 -0.16830856755E+03  0.16020620498E+04  0.90432286306E+02 0.  0.
        254    2    1    2    0    0 -0.15585341470E+04 -0.31791249063E+03  0.75112476265E+03  0.19571808208E+04  0.85806253680E+03 0.  0.
        -24    2    4    4    0    0 -0.16146599255E+03  0.90053201374E+02 -0.14314129154E+03  0.24712909209E+03  0.80015704601E+02 0.  0.
         24    2    4    4    0    0 -0.13970681545E+04 -0.40796569200E+03  0.89426605419E+03  0.17100517287E+04  0.79559443538E+02 0.  0.
         13    1    3    3    0    0  0.12633353750E+04  0.25883761399E+03 -0.10064566912E+03  0.12935001858E+04  0.00000000000E+00 0.  1.
        -13    1    3    3    0    0  0.29519877206E+03  0.59074876635E+02 -0.67662898437E+02  0.30856186397E+03  0.00000000000E+00 0. -1.
          4    1    6    6  502    0 -0.83707091145E+03 -0.20420221459E+03  0.52140585306E+03  0.10070999547E+04  0.00000000000E+00 0. -1.
          3    1    5    5  503    0 -0.21729552783E+02  0.22607154638E+02 -0.67678112810E+02  0.74589435301E+02  0.00000000000E+00 0. -1.
         -4    1    5    5    0  503 -0.13973643977E+03  0.67446046737E+02 -0.75463178733E+02  0.17253965679E+03  0.00000000000E+00 0.  1.
         -3    1    6    6    0  502 -0.55999724303E+03 -0.20376347741E+03  0.37286020113E+03  0.70295177396E+03  0.00000000000E+00 0.  1.
<mgrwt>
<rscale>  0 0.35112014E+04</rscale>
<asrwt>0</asrwt>
<pdfrwt beam="1">  1        1 0.22895590E+00 0.35112014E+04</pdfrwt>
<pdfrwt beam="2">  1       -1 0.31861993E+00 0.35112014E+04</pdfrwt>
<totfact> 0.13573885E-01</totfact>
</mgrwt>
</event>
<event>
12    1  0.1598876E-007  0.2459631E+04  0.7818608E-02  0.8417510E-01
          2   -1    0    0  501    0  0.00000000000E+00  0.00000000000E+00  0.30331372940E+04  0.30331372940E+04  0.00000000000E+00 0. -1.
         -2   -1    0    0    0  501 -0.00000000000E+00 -0.00000000000E+00 -0.49864076697E+03  0.49864076697E+03  0.00000000000E+00 0.  1.
         23    2    1    2    0    0 -0.97678828501E+03 -0.42155761304E+03  0.92367894348E+03  0.14118457514E+04  0.91101373894E+02 0.  0.
        254    2    1    2    0    0  0.97678828501E+03  0.42155761304E+03  0.16108175835E+04  0.21199323095E+04  0.87610132676E+03 0.  0.
        -24    2    4    4    0    0  0.20268578769E+03  0.22802852910E+03 -0.52433639574E+01  0.31583630554E+03  0.81526317325E+02 0.  0.
         24    2    4    4    0    0  0.77410249733E+03  0.19352908393E+03  0.16160609475E+04  0.18040960040E+04  0.80132533605E+02 0.  0.
         13    1    3    3    0    0 -0.38855323822E+03 -0.12763552815E+03  0.32179445977E+03  0.52039996283E+03  0.00000000000E+00 0. -1.
        -13    1    3    3    0    0 -0.58823504680E+03 -0.29392208489E+03  0.60188448370E+03  0.89144578859E+03  0.00000000000E+00 0.  1.
          4    1    6    6  502    0  0.16815197313E+03  0.25462893947E+02  0.41196980237E+03  0.44569335097E+03  0.00000000000E+00 0. -1.
          1    1    5    5  503    0  0.12823109375E+03  0.17446733230E+03  0.27900555053E+02  0.21831285903E+03  0.00000000000E+00 0. -1.
         -2    1    5    5    0  503  0.74454693942E+02  0.53561196800E+02 -0.33143919010E+02  0.97523446514E+02  0.00000000000E+00 0.  1.
         -3    1    6    6    0  502  0.60595052420E+03  0.16806618999E+03  0.12040911451E+04  0.13584026530E+04  0.00000000000E+00 0.  1.
<mgrwt>
<rscale>  0 0.24596308E+04</rscale>
<asrwt>0</asrwt>
<pdfrwt beam="1">  1        2 0.46663650E+00 0.24596308E+04</pdfrwt>
<pdfrwt beam="2">  1       -2 0.76713966E-01 0.24596308E+04</pdfrwt>
<totfact> 0.22557682E+00</totfact>
</mgrwt>
</event>
<event>
12    1  0.1598876E-007  0.1522987E+04  0.7818608E-02  0.8869309E-01
         -2   -1    0    0    0  501 -0.00000000000E+00  0.00000000000E+00  0.84047554492E+03  0.84047554492E+03  0.00000000000E+00 0.  1.
          2   -1    0    0  501    0  0.00000000000E+00 -0.00000000000E+00 -0.68993401648E+03  0.68993401648E+03  0.00000000000E+00 0. -1.
         23    2    1    2    0    0  0.33182203137E+03  0.35915866704E+03 -0.14029317319E+01  0.49733389230E+03  0.90764660544E+02 0.  0.
        254    2    1    2    0    0 -0.33182203137E+03 -0.35915866704E+03  0.15194446017E+03  0.10330756691E+04  0.89724991529E+03 0.  0.
        -24    2    4    4    0    0 -0.45759154130E+03  0.15268277678E+03  0.69115095733E+02  0.49382118753E+03  0.79877529996E+02 0.  0.
         24    2    4    4    0    0  0.12576950993E+03 -0.51184144382E+03  0.82829364436E+02  0.53925448157E+03  0.78326617694E+02 0.  0.
         11    1    3    3    0    0  0.21774704678E+01  0.29267713192E+02  0.94895371765E+01  0.30844638577E+02  0.00000000000E+00 0.  1.
        -11    1    3    3    0    0  0.32964456090E+03  0.32989095384E+03 -0.10892468908E+02  0.46648925372E+03  0.00000000000E+00 0. -1.
          2    1    6    6  502    0  0.70618608492E+02 -0.28822795868E+03  0.85846201489E+02  0.30892056316E+03  0.00000000000E+00 0. -1.
          1    1    5    5  503    0 -0.42352227404E+03  0.11960561524E+03  0.51141885200E+02  0.44304865673E+03  0.00000000000E+00 0. -1.
         -2    1    5    5    0  503 -0.34069267262E+02  0.33077161539E+02  0.17973210533E+02  0.50772530803E+02  0.00000000000E+00 0.  1.
         -1    1    6    6    0  502  0.55150901442E+02 -0.22361348513E+03 -0.30168370534E+01  0.23033391841E+03  0.00000000000E+00 0.  1.
<mgrwt>
<rscale>  0 0.15229874E+04</rscale>
<asrwt>0</asrwt>
<pdfrwt beam="1">  1        2 0.10614369E+00 0.15229874E+04</pdfrwt>
<pdfrwt beam="2">  1       -2 0.12930393E+00 0.15229874E+04</pdfrwt>
<totfact> 0.17715189E+01</totfact>
</mgrwt>
</event>
<event>
12    1  0.1598876E-007  0.1202664E+04  0.7818608E-02  0.9110528E-01
          1   -1    0    0  501    0  0.00000000000E+00  0.00000000000E+00  0.15838821693E+04  0.15838821693E+04  0.00000000000E+00 0. -1.
         -1   -1    0    0    0  501 -0.00000000000E+00 -0.00000000000E+00 -0.22829998885E+03  0.22829998885E+03  0.00000000000E+00 0.  1.
         23    2    1    2    0    0  0.31636164556E+02  0.16189145953E+03  0.60513327218E+03  0.63403313373E+03  0.92747215543E+02 0.  0.
        254    2    1    2    0    0 -0.31636164556E+02 -0.16189145953E+03  0.75044890825E+03  0.11781490244E+04  0.89311358081E+03 0.  0.
        -24    2    4    4    0    0 -0.28091220614E+03 -0.39905294249E+03  0.22203249281E+03  0.54265357391E+03  0.83782784303E+02 0.  0.
         24    2    4    4    0    0  0.24927604159E+03  0.23716148296E+03  0.52841641544E+03  0.63549545049E+03  0.79034458113E+02 0.  0.
         11    1    3    3    0    0  0.31928296218E+02  0.15958925133E+03  0.60853065307E+03  0.62991880506E+03  0.00000000000E+00 0. -1.
        -11    1    3    3    0    0 -0.29213166121E+00  0.23022081951E+01 -0.33973808911E+01  0.41143286695E+01  0.00000000000E+00 0.  1.
          4    1    6    6  502    0  0.20757955685E+02  0.46102615846E+01  0.11044218909E+02  0.23960843212E+02  0.00000000000E+00 0. -1.
          1    1    5    5  503    0 -0.13385699300E+03 -0.12526695713E+03  0.99504221963E+02  0.20859193492E+03  0.00000000000E+00 0. -1.
         -4    1    5    5    0  503 -0.14705521314E+03 -0.27378598535E+03  0.12252827085E+03  0.33406163899E+03  0.00000000000E+00 0.  1.
         -3    1    6    6    0  502  0.22851808590E+03  0.23255122138E+03  0.51737219653E+03  0.61153460728E+03  0.00000000000E+00 0.  1.
<mgrwt>
<rscale>  0 0.12026642E+04</rscale>
<asrwt>0</asrwt>
<pdfrwt beam="1">  1        1 0.24367417E+00 0.12026642E+04</pdfrwt>
<pdfrwt beam="2">  1       -1 0.35123076E-01 0.12026642E+04</pdfrwt>
<totfact> 0.43677462E+01</totfact>
</mgrwt>
</event>
<event>
12    1  0.1598876E-007  0.1365003E+04  0.7818608E-02  0.8979548E-01
         -2   -1    0    0    0  501 -0.00000000000E+00  0.00000000000E+00  0.59277613375E+03  0.59277613375E+03  0.00000000000E+00 0.  1.
          2   -1    0    0  501    0  0.00000000000E+00 -0.00000000000E+00 -0.78580824320E+03  0.78580824320E+03  0.00000000000E+00 0. -1.
         23    2    1    2    0    0 -0.42245012649E+03 -0.30349428187E+02 -0.29921297961E+03  0.52647953051E+03  0.90923548731E+02 0.  0.
        254    2    1    2    0    0  0.42245012649E+03  0.30349428187E+02  0.10618087016E+03  0.85210484644E+03  0.73172610653E+03 0.  0.
        -24    2    4    4    0    0 -0.15248753812E+03  0.61850338988E+02  0.19008056338E+03  0.26416344889E+03  0.81078933378E+02 0.  0.
         24    2    4    4    0    0  0.57493766461E+03 -0.31500910801E+02 -0.83899693226E+02  0.58794139755E+03  0.84203936128E+02 0.  0.
         13    1    3    3    0    0 -0.25242406279E+02 -0.24228332572E+02 -0.15237177457E+02  0.38162321089E+02  0.00000000000E+00 0.  1.
        -13    1    3    3    0    0 -0.39720772021E+03 -0.61210956146E+01 -0.28397580215E+03  0.48831720942E+03  0.00000000000E+00 0. -1.
          4    1    6    6  502    0  0.72047730781E+02  0.20701110680E+02  0.25775998396E+01  0.75007036437E+02  0.00000000000E+00 0. -1.
          3    1    5    5  503    0 -0.10364040808E+03 -0.67294999888E+00  0.98342008613E+02  0.14287385243E+03  0.00000000000E+00 0. -1.
         -4    1    5    5    0  503 -0.48847130039E+02  0.62523288987E+02  0.91738554769E+02  0.12128959646E+03  0.00000000000E+00 0.  1.
         -3    1    6    6    0  502  0.50288993383E+03 -0.52202021481E+02 -0.86477293065E+02  0.51293436112E+03  0.00000000000E+00 0.  1.
<mgrwt>
<rscale>  0 0.13650031E+04</rscale>
<asrwt>0</asrwt>
<pdfrwt beam="1">  1        2 0.12089358E+00 0.13650031E+04</pdfrwt>
<pdfrwt beam="2">  1       -2 0.91196329E-01 0.13650031E+04</pdfrwt>
<totfact> 0.35292117E+01</totfact>
</mgrwt>
</event>
<event>
12    1  0.1598876E-007  0.1277747E+04  0.7818608E-02  0.9047400E-01
         -1   -1    0    0    0  501 -0.00000000000E+00  0.00000000000E+00  0.16754409077E+03  0.16754409077E+03  0.00000000000E+00 0.  1.
          1   -1    0    0  501    0  0.00000000000E+00 -0.00000000000E+00 -0.24361311175E+04  0.24361311175E+04  0.00000000000E+00 0. -1.
         23    2    1    2    0    0  0.15108518351E+03 -0.27366776556E+03 -0.52683373752E+03  0.61999900915E+03  0.95520708651E+02 0.  0.
        254    2    1    2    0    0 -0.15108518351E+03  0.27366776556E+03 -0.17417532892E+04  0.19836761991E+04  0.89640725337E+03 0.  0.
        -24    2    4    4    0    0 -0.50748741932E+03  0.83876636814E+02 -0.11560055101E+04  0.12678107318E+04  0.80103315030E+02 0.  0.
         24    2    4    4    0    0  0.35640223581E+03  0.18979112875E+03 -0.58574777905E+03  0.71586546735E+03  0.79496417833E+02 0.  0.
         11    1    3    3    0    0  0.31282493920E+01 -0.42229537728E+01 -0.65034786041E+02  0.65246782896E+02  0.00000000000E+00 0.  1.
        -11    1    3    3    0    0  0.14795693412E+03 -0.26944481179E+03 -0.46179895148E+03  0.55475222626E+03  0.00000000000E+00 0. -1.
          4    1    6    6  502    0  0.59329430678E+02  0.31345715433E+02 -0.52395019522E+02  0.85133855142E+02  0.00000000000E+00 0. -1.
          1    1    5    5  503    0 -0.22985642178E+03  0.49118844702E+02 -0.62228958479E+03  0.66519994203E+03  0.00000000000E+00 0. -1.
         -2    1    5    5    0  503 -0.27763099754E+03  0.34757792112E+02 -0.53371592536E+03  0.60261078972E+03  0.00000000000E+00 0.  1.
         -3    1    6    6    0  502  0.29707280513E+03  0.15844541331E+03 -0.53335275953E+03  0.63073161221E+03  0.00000000000E+00 0.  1.
<mgrwt>
<rscale>  0 0.12777470E+04</rscale>
<asrwt>0</asrwt>
<pdfrwt beam="1">  1        1 0.37478938E+00 0.12777470E+04</pdfrwt>
<pdfrwt beam="2">  1       -1 0.25776016E-01 0.12777470E+04</pdfrwt>
<totfact> 0.19704546E+01</totfact>
</mgrwt>
</event>
<event>
12    1  0.1598876E-007  0.1387183E+04  0.7818608E-02  0.8963149E-01
          2   -1    0    0  501    0  0.00000000000E+00  0.00000000000E+00  0.14343895288E+04  0.14343895288E+04  0.00000000000E+00 0. -1.
         -2   -1    0    0    0  501 -0.00000000000E+00 -0.00000000000E+00 -0.33538230213E+03  0.33538230213E+03  0.00000000000E+00 0.  1.
         23    2    1    2    0    0  0.16522663876E+03  0.19643154988E+03 -0.62832565851E+02  0.27937772809E+03  0.90657529635E+02 0.  0.
        254    2    1    2    0    0 -0.16522663876E+03 -0.19643154988E+03  0.11618397925E+04  0.14903941028E+04  0.89750636896E+03 0.  0.
        -24    2    4    4    0    0  0.68783498112E+02 -0.30820230870E+03  0.11731872945E+04  0.12175776835E+04  0.80044703179E+02 0.  0.
         24    2    4    4    0    0 -0.23401013688E+03  0.11177075882E+03 -0.11347502034E+02  0.27281641935E+03  0.83943946634E+02 0.  0.
         11    1    3    3    0    0  0.16450612201E+03  0.14109971145E+03 -0.46234854750E+02  0.22160562841E+03  0.00000000000E+00 0.  1.
        -11    1    3    3    0    0  0.72051675514E+00  0.55331838425E+02 -0.16597711101E+02  0.57772099682E+02  0.00000000000E+00 0. -1.
          4    1    6    6  502    0 -0.20043263843E+03  0.76345556322E+02 -0.37043514265E+02  0.21765594058E+03  0.00000000000E+00 0. -1.
          3    1    5    5  503    0  0.43162768973E+02 -0.23284528888E+03  0.73461248931E+03  0.77183901342E+03  0.00000000000E+00 0. -1.
         -4    1    5    5    0  503  0.25620729140E+02 -0.75357019821E+02  0.43857480523E+03  0.44573867005E+03  0.00000000000E+00 0.  1.
         -3    1    6    6    0  502 -0.33577498442E+02  0.35425202503E+02  0.25696012231E+02  0.55160478774E+02  0.00000000000E+00 0.  1.
<mgrwt>
<rscale>  0 0.13871826E+04</rscale>
<asrwt>0</asrwt>
<pdfrwt beam="1">  1        2 0.22067531E+00 0.13871826E+04</pdfrwt>
<pdfrwt beam="2">  1       -2 0.51597278E-01 0.13871826E+04</pdfrwt>
<totfact> 0.47794470E+01</totfact>
</mgrwt>
</event>
<event>
12    1  0.1598876E-007  0.1414859E+04  0.7818608E-02  0.8943133E-01
          2   -1    0    0  501    0  0.00000000000E+00  0.00000000000E+00  0.12071641212E+04  0.12071641212E+04  0.00000000000E+00 0.  1.
         -2   -1    0    0    0  501 -0.00000000000E+00 -0.00000000000E+00 -0.41457182497E+03  0.41457182497E+03  0.00000000000E+00 0. -1.
         23    2    1    2    0    0 -0.20360441587E+03  0.30585418264E+03  0.21228913306E+02  0.37936371724E+03  0.92003391259E+02 0.  0.
        254    2    1    2    0    0  0.20360441587E+03 -0.30585418264E+03  0.77136338294E+03  0.12423722289E+04  0.90193444745E+03 0.  0.
        -24    2    4    4    0    0  0.28523976501E+03 -0.59396373193E+03  0.53932596779E+03  0.85483845171E+03  0.75641526959E+02 0.  0.
         24    2    4    4    0    0 -0.81635349139E+02  0.28810954930E+03  0.23203741515E+03  0.38753377722E+03  0.81667764963E+02 0.  0.
         13    1    3    3    0    0 -0.12826950212E+03  0.13497568309E+03  0.43718776897E+02  0.19126638924E+03  0.00000000000E+00 0. -1.
        -13    1    3    3    0    0 -0.75334913743E+02  0.17087849955E+03 -0.22489863591E+02  0.18809732800E+03  0.00000000000E+00 0.  1.
          4    1    6    6  502    0 -0.98365680558E+02  0.24925910627E+03  0.20407619669E+03  0.33682785399E+03  0.00000000000E+00 0. -1.
          3    1    5    5  503    0  0.26284914906E+03 -0.48818810720E+03  0.43685637876E+03  0.70587590895E+03  0.00000000000E+00 0. -1.
         -4    1    5    5    0  503  0.22390615946E+02 -0.10577562473E+03  0.10246958903E+03  0.14896254276E+03  0.00000000000E+00 0.  1.
         -1    1    6    6    0  502  0.16730331419E+02  0.38850443032E+02  0.27961218454E+02  0.50705923230E+02  0.00000000000E+00 0.  1.
<mgrwt>
<rscale>  0 0.14148586E+04</rscale>
<asrwt>0</asrwt>
<pdfrwt beam="1">  1        2 0.18571756E+00 0.14148586E+04</pdfrwt>
<pdfrwt beam="2">  1       -2 0.63780281E-01 0.14148586E+04</pdfrwt>
<totfact> 0.41463877E+01</totfact>
</mgrwt>
</event>
<event>
12    1  0.1598876E-007  0.2608602E+04  0.7818608E-02  0.8365285E-01
          2   -1    0    0  501    0  0.00000000000E+00  0.00000000000E+00  0.13089221381E+04  0.13089221381E+04  0.00000000000E+00 0. -1.
         -2   -1    0    0    0  501 -0.00000000000E+00 -0.00000000000E+00 -0.12996964986E+04  0.12996964986E+04  0.00000000000E+00 0.  1.
         23    2    1    2    0    0  0.71431692175E+03 -0.86479405818E+03  0.24774121759E+03  0.11521970261E+04  0.89804500245E+02 0.  0.
        254    2    1    2    0    0 -0.71431692175E+03  0.86479405818E+03 -0.23851557807E+03  0.14564216107E+04  0.89786234984E+03 0.  0.
        -24    2    4    4    0    0 -0.33134349015E+03  0.94447301218E+03 -0.31020971125E+03  0.10509027801E+04  0.79679414350E+02 0.  0.
         24    2    4    4    0    0 -0.38297343160E+03 -0.79678954003E+02  0.71694133182E+02  0.40551883056E+03  0.79297466414E+02 0.  0.
         13    1    3    3    0    0  0.61613743655E+03 -0.77829842049E+03  0.23919565730E+03  0.10210721495E+04  0.00000000000E+00 0. -1.
        -13    1    3    3    0    0  0.98179485201E+02 -0.86495637693E+02  0.85455602927E+01  0.13112487657E+03  0.00000000000E+00 0.  1.
          4    1    6    6  502    0 -0.18097798970E+03 -0.84248496214E+01  0.52302721479E+01  0.18124945956E+03  0.00000000000E+00 0. -1.
          1    1    5    5  503    0 -0.28110455319E+03  0.86962217895E+03 -0.28209806376E+03  0.95647363870E+03  0.00000000000E+00 0. -1.
         -2    1    5    5    0  503 -0.50238936954E+02  0.74850833231E+02 -0.28111647494E+02  0.94429141405E+02  0.00000000000E+00 0.  1.
         -3    1    6    6    0  502 -0.20199544191E+03 -0.71254104382E+02  0.66463861034E+02  0.22426937100E+03  0.00000000000E+00 0.  1.
<mgrwt>
<rscale>  0 0.26086023E+04</rscale>
<asrwt>0</asrwt>
<pdfrwt beam="1">  1        2 0.20137264E+00 0.26086023E+04</pdfrwt>
<pdfrwt beam="2">  1       -2 0.19995331E+00 0.26086023E+04</pdfrwt>
<totfact> 0.19217714E+00</totfact>
</mgrwt>
</event>
<event>
12    1  0.1598876E-007  0.1945409E+04  0.7818608E-02  0.8632578E-01
         -2   -1    0    0    0  501 -0.00000000000E+00  0.00000000000E+00  0.64922763768E+03  0.64922763768E+03  0.00000000000E+00 0.  1.
          2   -1    0    0  501    0  0.00000000000E+00 -0.00000000000E+00 -0.14573537901E+04  0.14573537901E+04  0.00000000000E+00 0. -1.
         23    2    1    2    0    0 -0.33020244765E+03  0.29838686461E+03  0.34984573720E+03  0.57330457047E+03  0.90651603868E+02 0.  0.
        254    2    1    2    0    0  0.33020244765E+03 -0.29838686461E+03 -0.11579718896E+04  0.15332768573E+04  0.90109413859E+03 0.  0.
        -24    2    4    4    0    0  0.46447539619E+03  0.13643023487E+03 -0.84121273483E+03  0.97326620411E+03  0.72509559134E+02 0.  0.
         24    2    4    4    0    0 -0.13427294854E+03 -0.43481709949E+03 -0.31675915473E+03  0.56001065316E+03  0.78615741587E+02 0.  0.
         11    1    3    3    0    0 -0.32682616229E+03  0.30445231577E+03  0.34041786680E+03  0.56159672094E+03  0.00000000000E+00 0.  1.
        -11    1    3    3    0    0 -0.33762853585E+01 -0.60654511526E+01  0.94278703957E+01  0.11707849534E+02  0.00000000000E+00 0. -1.
          2    1    6    6  502    0 -0.44841570566E+01 -0.24945816624E+02  0.10517245632E+01  0.25367450722E+02  0.00000000000E+00 0. -1.
          3    1    5    5  503    0  0.33288157675E+03  0.66419809793E+02 -0.55527440779E+03  0.65080826917E+03  0.00000000000E+00 0. -1.
         -4    1    5    5    0  503  0.13159381944E+03  0.70010425080E+02 -0.28593832704E+03  0.32245793494E+03  0.00000000000E+00 0.  1.
         -1    1    6    6    0  502 -0.12978879149E+03 -0.40987128286E+03 -0.31781087930E+03  0.53464320244E+03  0.00000000000E+00 0.  1.
<mgrwt>
<rscale>  0 0.19454093E+04</rscale>
<asrwt>0</asrwt>
<pdfrwt beam="1">  1        2 0.22420827E+00 0.19454093E+04</pdfrwt>
<pdfrwt beam="2">  1       -2 0.99881175E-01 0.19454093E+04</pdfrwt>
<totfact> 0.10374842E+01</totfact>
</mgrwt>
</event>
<event>
12    1  0.1598876E-007  0.1283124E+04  0.7818608E-02  0.9043056E-01
         -2   -1    0    0    0  501 -0.00000000000E+00  0.00000000000E+00  0.31317630926E+03  0.31317630926E+03  0.00000000000E+00 0.  1.
          2   -1    0    0  501    0  0.00000000000E+00 -0.00000000000E+00 -0.13142807570E+04  0.13142807570E+04  0.00000000000E+00 0. -1.
         23    2    1    2    0    0  0.23278364264E+02  0.17043308745E+03 -0.59716890937E+03  0.62810130874E+03  0.91165937594E+02 0.  0.
        254    2    1    2    0    0 -0.23278364264E+02 -0.17043308745E+03 -0.40393553841E+03  0.99935575758E+03  0.89775202114E+03 0.  0.
        -24    2    4    4    0    0  0.12646665113E+03 -0.36648213827E+03 -0.56825489744E+03  0.69281498026E+03  0.82316443575E+02 0.  0.
         24    2    4    4    0    0 -0.14974501539E+03  0.19604905081E+03  0.16431935903E+03  0.30654077732E+03  0.78151112913E+02 0.  0.
         11    1    3    3    0    0  0.10101616800E+02 -0.94758337973E+01 -0.32814544098E+02  0.35617810046E+02  0.00000000000E+00 0.  1.
        -11    1    3    3    0    0  0.13176747463E+02  0.17990892125E+03 -0.56435436527E+03  0.59248349869E+03  0.00000000000E+00 0. -1.
          4    1    6    6  502    0 -0.14466197550E+03  0.14895757370E+03  0.11183643310E+03  0.23584493568E+03  0.00000000000E+00 0. -1.
          1    1    5    5  503    0  0.12231480289E+03 -0.31984805111E+03 -0.53567485065E+03  0.63577608671E+03  0.00000000000E+00 0. -1.
         -2    1    5    5    0  503  0.41518482408E+01 -0.46634087154E+02 -0.32580046791E+02  0.57038893550E+02  0.00000000000E+00 0.  1.
         -3    1    6    6    0  502 -0.50830398907E+01  0.47091477118E+02  0.52482925922E+02  0.70695841638E+02  0.00000000000E+00 0.  1.
<mgrwt>
<rscale>  0 0.12831237E+04</rscale>
<asrwt>0</asrwt>
<pdfrwt beam="1">  1        2 0.20219704E+00 0.12831237E+04</pdfrwt>
<pdfrwt beam="2">  1       -2 0.48180971E-01 0.12831237E+04</pdfrwt>
<totfact> 0.64922232E+01</totfact>
</mgrwt>
</event>
<event>
12    1  0.1598876E-007  0.2322520E+04  0.7818608E-02  0.8469094E-01
          2   -1    0    0  501    0  0.00000000000E+00  0.00000000000E+00  0.15589910159E+04  0.15589910159E+04  0.00000000000E+00 0.  1.
         -2   -1    0    0    0  501 -0.00000000000E+00 -0.00000000000E+00 -0.86499836039E+03  0.86499836039E+03  0.00000000000E+00 0. -1.
         23    2    1    2    0    0 -0.81205061953E+03  0.52813767778E+03  0.46698629556E+03  0.10792909813E+04  0.91854268848E+02 0.  0.
        254    2    1    2    0    0  0.81205061953E+03 -0.52813767778E+03  0.22700635999E+03  0.13446983950E+04  0.90461387938E+03 0.  0.
        -24    2    4    4    0    0 -0.56272100819E+02 -0.35398699703E+03 -0.12622409421E+03  0.38798942283E+03  0.78293849498E+02 0.  0.
         24    2    4    4    0    0  0.86832272035E+03 -0.17415068075E+03  0.35323045420E+03  0.95670897221E+03  0.78787673204E+02 0.  0.
         13    1    3    3    0    0 -0.86905585415E+02  0.45676943449E+02  0.78026144683E+02  0.12540750852E+03  0.00000000000E+00 0.  1.
        -13    1    3    3    0    0 -0.72514503412E+03  0.48246073433E+03  0.38896015088E+03  0.95388347278E+03  0.00000000000E+00 0. -1.
          2    1    6    6  502    0  0.31230920847E+03 -0.31678112611E+02  0.10103683089E+03  0.32977111109E+03  0.00000000000E+00 0. -1.
          1    1    5    5  503    0  0.16047844421E+02 -0.22763457062E+02 -0.90586068953E+01  0.29287653489E+02  0.00000000000E+00 0. -1.
         -2    1    5    5    0  503 -0.72319945241E+02 -0.33122353997E+03 -0.11716548732E+03  0.35870176934E+03  0.00000000000E+00 0.  1.
         -1    1    6    6    0  502  0.55601351189E+03 -0.14247256814E+03  0.25219362331E+03  0.62693786112E+03  0.00000000000E+00 0.  1.
<mgrwt>
<rscale>  0 0.23225199E+04</rscale>
<asrwt>0</asrwt>
<pdfrwt beam="1">  1        2 0.23984477E+00 0.23225199E+04</pdfrwt>
<pdfrwt beam="2">  1       -2 0.13307667E+00 0.23225199E+04</pdfrwt>
<totfact> 0.43553355E+00</totfact>
</mgrwt>
</event>
<event>
12    1  0.1598876E-007  0.1232016E+04  0.7818608E-02  0.9085285E-01
         -2   -1    0    0    0  501 -0.00000000000E+00  0.00000000000E+00  0.98111969920E+02  0.98111969920E+02  0.00000000000E+00 0.  1.
          2   -1    0    0  501    0  0.00000000000E+00 -0.00000000000E+00 -0.38676823420E+04  0.38676823420E+04  0.00000000000E+00 0. -1.
         23    2    1    2    0    0  0.48849799845E+02  0.11620124370E+03 -0.10146211262E+03  0.18585922675E+03  0.91433363102E+02 0.  0.
        254    2    1    2    0    0 -0.48849799845E+02 -0.11620124370E+03 -0.36681082595E+04  0.37799350852E+04  0.90388163663E+03 0.  0.
        -24    2    4    4    0    0 -0.32497896222E+03 -0.15252260166E+03 -0.32534526240E+04  0.32742499871E+04  0.82973079078E+02 0.  0.
         24    2    4    4    0    0  0.27612916237E+03  0.36321357960E+02 -0.41465563551E+03  0.50568509807E+03  0.78813494996E+02 0.  0.
         13    1    3    3    0    0  0.17013494040E+02  0.10864779828E+03 -0.10610201541E+03  0.15281178202E+03  0.00000000000E+00 0. -1.
        -13    1    3    3    0    0  0.31836305805E+02  0.75534454185E+01  0.46399027909E+01  0.33047444725E+02  0.00000000000E+00 0.  1.
          2    1    6    6  502    0  0.15727281125E+03  0.43551704043E+01 -0.29332548654E+03  0.33285664440E+03  0.00000000000E+00 0. -1.
          3    1    5    5  503    0 -0.24877203345E+03 -0.12022856510E+03 -0.21469687165E+04  0.21646748260E+04  0.00000000000E+00 0. -1.
         -4    1    5    5    0  503 -0.76206928764E+02 -0.32294036557E+02 -0.11064839074E+04  0.11095751611E+04  0.00000000000E+00 0.  1.
         -1    1    6    6    0  502  0.11885635112E+03  0.31966187556E+02 -0.12133014897E+03  0.17282845367E+03  0.00000000000E+00 0.  1.
<mgrwt>
<rscale>  0 0.12320161E+04</rscale>
<asrwt>0</asrwt>
<pdfrwt beam="1">  1        2 0.59502798E+00 0.12320161E+04</pdfrwt>
<pdfrwt beam="2">  1       -2 0.15094151E-01 0.12320161E+04</pdfrwt>
<totfact> 0.15419035E+01</totfact>
</mgrwt>
</event>
<event>
12    1  0.1598876E-007  0.1862060E+04  0.7818608E-02  0.8673975E-01
         -2   -1    0    0    0  501 -0.00000000000E+00  0.00000000000E+00  0.30023982130E+03  0.30023982130E+03  0.00000000000E+00 0.  1.
          2   -1    0    0  501    0  0.00000000000E+00 -0.00000000000E+00 -0.28870814966E+04  0.28870814966E+04  0.00000000000E+00 0. -1.
         23    2    1    2    0    0  0.38375880919E+03  0.39328758830E+03 -0.17773016062E+04  0.18626155089E+04  0.92680007006E+02 0.  0.
        254    2    1    2    0    0 -0.38375880919E+03 -0.39328758830E+03 -0.80954006902E+03  0.13247058090E+04  0.89305341732E+03 0.  0.
        -24    2    4    4    0    0 -0.58499492322E+03 -0.42335564619E+03 -0.33003988147E+03  0.79792779670E+03  0.79456793514E+02 0.  0.
         24    2    4    4    0    0  0.20123611403E+03  0.30068057893E+02 -0.47950018756E+03  0.52677801226E+03  0.78578512568E+02 0.  0.
         13    1    3    3    0    0  0.38161637258E+03  0.36303591334E+03 -0.16917356120E+04  0.17718339401E+04  0.00000000000E+00 0. -1.
        -13    1    3    3    0    0  0.21424366103E+01  0.30251674956E+02 -0.85565994213E+02  0.90781568823E+02  0.00000000000E+00 0.  1.
          2    1    6    6  502    0  0.11664229554E+03  0.11255073163E+02 -0.36389283959E+03  0.38229582850E+03  0.00000000000E+00 0. -1.
          1    1    5    5  503    0 -0.28682823933E+03 -0.17183625325E+03 -0.12270666033E+03  0.35616718167E+03  0.00000000000E+00 0. -1.
         -2    1    5    5    0  503 -0.29816668389E+03 -0.25151939294E+03 -0.20733322114E+03  0.44176061504E+03  0.00000000000E+00 0.  1.
         -1    1    6    6    0  502  0.84593818487E+02  0.18812984730E+02 -0.11560734797E+03  0.14448218376E+03  0.00000000000E+00 0.  1.
<mgrwt>
<rscale>  0 0.18620600E+04</rscale>
<asrwt>0</asrwt>
<pdfrwt beam="1">  1        2 0.44416638E+00 0.18620600E+04</pdfrwt>
<pdfrwt beam="2">  1       -2 0.46190743E-01 0.18620600E+04</pdfrwt>
<totfact> 0.85648567E+00</totfact>
</mgrwt>
</event>
<event>
12    1  0.1598876E-007  0.1560527E+04  0.7818608E-02  0.8845171E-01
          1   -1    0    0  501    0  0.00000000000E+00  0.00000000000E+00  0.21085712224E+04  0.21085712224E+04  0.00000000000E+00 0. -1.
         -1   -1    0    0    0  501 -0.00000000000E+00 -0.00000000000E+00 -0.28873172950E+03  0.28873172950E+03  0.00000000000E+00 0.  1.
         23    2    1    2    0    0  0.32289899306E+02  0.71885492517E+02  0.13738962193E+04  0.13792712025E+04  0.92671824091E+02 0.  0.
        254    2    1    2    0    0 -0.32289899306E+02 -0.71885492517E+02  0.44594327359E+03  0.10180317494E+04  0.91176371825E+03 0.  0.
        -24    2    4    4    0    0  0.15077950630E+03 -0.42649208776E+03  0.70546350609E+02  0.46443419532E+03  0.78053659493E+02 0.  0.
         24    2    4    4    0    0 -0.18306940561E+03  0.35460659524E+03  0.37539692298E+03  0.55359755409E+03  0.79291597608E+02 0.  0.
         11    1    3    3    0    0  0.39159831621E+02  0.61089887452E+02  0.49581767545E+03  0.50109942531E+03  0.00000000000E+00 0.  1.
        -11    1    3    3    0    0 -0.68699323150E+01  0.10795605065E+02  0.87807854388E+03  0.87817177720E+03  0.00000000000E+00 0. -1.
          2    1    6    6  502    0 -0.17745481661E+02  0.58717366664E+02  0.97989214440E+02  0.11560500601E+03  0.00000000000E+00 0. -1.
          1    1    5    5  503    0  0.90543128056E+02 -0.25356766540E+03  0.80569544503E+02  0.28104460584E+03  0.00000000000E+00 0. -1.
         -2    1    5    5    0  503  0.60236378245E+02 -0.17292442236E+03 -0.10023193894E+02  0.18338958948E+03  0.00000000000E+00 0.  1.
         -1    1    6    6    0  502 -0.16532392395E+03  0.29588922858E+03  0.27740770854E+03  0.43799254808E+03  0.00000000000E+00 0.  1.
<mgrwt>
<rscale>  0 0.15605274E+04</rscale>
<asrwt>0</asrwt>
<pdfrwt beam="1">  1        1 0.32439556E+00 0.15605274E+04</pdfrwt>
<pdfrwt beam="2">  1       -1 0.44420267E-01 0.15605274E+04</pdfrwt>
<totfact> 0.12154210E+01</totfact>
</mgrwt>
</event>
<event>
12    1  0.1943172E-007  0.1426330E+04  0.7818608E-02  0.8934977E-01
         -3   -1    0    0    0  501 -0.00000000000E+00  0.00000000000E+00  0.42065034375E+03  0.42065034375E+03  0.00000000000E+00 0.  1.
          3   -1    0    0  501    0  0.00000000000E+00 -0.00000000000E+00 -0.12090906338E+04  0.12090906338E+04  0.00000000000E+00 0. -1.
         23    2    1    2    0    0 -0.40051166834E+03  0.14642692950E+02 -0.60727954771E+02  0.41408796763E+03  0.84598791462E+02 0.  0.
        254    2    1    2    0    0  0.40051166834E+03 -0.14642692950E+02 -0.72771233525E+03  0.12156530099E+04  0.88748126325E+03 0.  0.
        -24    2    4    4    0    0  0.60917381521E+03  0.13564846699E+03 -0.27024805696E+03  0.68495537087E+03  0.81465354960E+02 0.  0.
         24    2    4    4    0    0 -0.20866214687E+03 -0.15029115994E+03 -0.45746427828E+03  0.53069763901E+03  0.78987934834E+02 0.  0.
         11    1    3    3    0    0 -0.62742174300E+02 -0.18200711614E+02  0.13484108877E+02  0.66705828317E+02  0.00000000000E+00 0. -1.
        -11    1    3    3    0    0 -0.33776949404E+03  0.32843404563E+02 -0.74212063649E+02  0.34738213932E+03  0.00000000000E+00 0.  1.
          4    1    6    6  502    0 -0.17910451749E+03 -0.12234233117E+03 -0.31438280080E+03  0.38194583336E+03  0.00000000000E+00 0. -1.
          1    1    5    5  503    0  0.47885053071E+03  0.10759755215E+03 -0.24769692150E+03  0.54975342556E+03  0.00000000000E+00 0. -1.
         -2    1    5    5    0  503  0.13032328450E+03  0.28050914836E+02 -0.22551135460E+02  0.13520194531E+03  0.00000000000E+00 0.  1.
         -3    1    6    6    0  502 -0.29557629378E+02 -0.27948828766E+02 -0.14308147749E+03  0.14875180565E+03  0.00000000000E+00 0.  1.
<mgrwt>
<rscale>  0 0.14263301E+04</rscale>
<asrwt>0</asrwt>
<pdfrwt beam="1">  1        3 0.18601394E+00 0.14263301E+04</pdfrwt>
<pdfrwt beam="2">  1       -3 0.64715437E-01 0.14263301E+04</pdfrwt>
<totfact> 0.10662832E+00</totfact>
</mgrwt>
</event>
<event>
12    1  0.1598876E-007  0.1194580E+04  0.7818608E-02  0.9117614E-01
         -2   -1    0    0    0  501 -0.00000000000E+00  0.00000000000E+00  0.23794918981E+03  0.23794918981E+03  0.00000000000E+00 0.  1.
          2   -1    0    0  501    0  0.00000000000E+00 -0.00000000000E+00 -0.14992921108E+04  0.14992921108E+04  0.00000000000E+00 0. -1.
         23    2    1    2    0    0  0.80798448811E+02  0.29955599330E+02  0.49983715912E+02  0.13512823777E+03  0.91299186884E+02 0.  0.
        254    2    1    2    0    0 -0.80798448811E+02 -0.29955599330E+02 -0.13113266369E+04  0.16021130629E+04  0.91638583043E+03 0.  0.
        -24    2    4    4    0    0 -0.56206277035E+02 -0.17473786713E+03 -0.13990108367E+04  0.14132769476E+04  0.80174444874E+02 0.  0.
         24    2    4    4    0    0 -0.24592171776E+02  0.14478226780E+03  0.87684199762E+02  0.18883611527E+03  0.80024243576E+02 0.  0.
         11    1    3    3    0    0  0.74632008465E+02 -0.13002865401E+02  0.10545504401E+02  0.76486723418E+02  0.00000000000E+00 0. -1.
        -11    1    3    3    0    0  0.61664403465E+01  0.42958464732E+02  0.39438211511E+02  0.58641514355E+02  0.00000000000E+00 0.  1.
          2    1    6    6  502    0 -0.33065595864E+02  0.33986950462E+02  0.55814524532E+02  0.73237337337E+02  0.00000000000E+00 0. -1.
          3    1    5    5  503    0 -0.22546877067E+02 -0.14544596380E+03 -0.12174039830E+04  0.12262688726E+04  0.00000000000E+00 0. -1.
         -4    1    5    5    0  503 -0.33659399968E+02 -0.29291903339E+02 -0.18160685367E+03  0.18700807498E+03  0.00000000000E+00 0.  1.
         -1    1    6    6    0  502  0.84734240882E+01  0.11079531734E+03  0.31869675231E+02  0.11559877793E+03  0.00000000000E+00 0.  1.
<mgrwt>
<rscale>  0 0.11945800E+04</rscale>
<asrwt>0</asrwt>
<pdfrwt beam="1">  1        2 0.23066032E+00 0.11945800E+04</pdfrwt>
<pdfrwt beam="2">  1       -2 0.36607568E-01 0.11945800E+04</pdfrwt>
<totfact> 0.88078033E+01</totfact>
</mgrwt>
</event>
<event>
12    1  0.1598876E-007  0.1340713E+04  0.7818608E-02  0.8997888E-01
         -1   -1    0    0    0  501 -0.00000000000E+00  0.00000000000E+00  0.21580003150E+03  0.21580003150E+03  0.00000000000E+00 0.  1.
          1   -1    0    0  501    0  0.00000000000E+00 -0.00000000000E+00 -0.20823814857E+04  0.20823814857E+04  0.00000000000E+00 0. -1.
         23    2    1    2    0    0  0.32500983504E+02  0.30770809837E+03 -0.82564137919E+03  0.88638446038E+03  0.90846776701E+02 0.  0.
        254    2    1    2    0    0 -0.32500983504E+02 -0.30770809837E+03 -0.10409400751E+04  0.14117970569E+04  0.90214971163E+03 0.  0.
        -24    2    4    4    0    0  0.31710949585E+03 -0.33628498605E+03 -0.91886680406E+03  0.10317035512E+04  0.80311827818E+02 0.  0.
         24    2    4    4    0    0 -0.34961047935E+03  0.28576887683E+02 -0.12207327100E+03  0.38009350570E+03  0.80777867013E+02 0.  0.
         11    1    3    3    0    0  0.14593059744E+02  0.30377757444E+03 -0.77645716918E+03  0.83389418255E+03  0.00000000000E+00 0. -1.
        -11    1    3    3    0    0  0.17907923760E+02  0.39305239301E+01 -0.49184210013E+02  0.52490277828E+02  0.00000000000E+00 0.  1.
          2    1    6    6  502    0 -0.95365391549E+02 -0.28138496857E+02 -0.36030140487E+02  0.10575681507E+03  0.00000000000E+00 0. -1.
          1    1    5    5  503    0  0.57987500294E+02 -0.37510593752E+02 -0.19461982914E+03  0.20651022427E+03  0.00000000000E+00 0. -1.
         -2    1    5    5    0  503  0.25912199555E+03 -0.29877439230E+03 -0.72424697492E+03  0.82519332690E+03  0.00000000000E+00 0.  1.
         -1    1    6    6    0  502 -0.25424508780E+03  0.56715384540E+02 -0.86043130510E+02  0.27433669063E+03  0.00000000000E+00 0.  1.
<mgrwt>
<rscale>  0 0.13407132E+04</rscale>
<asrwt>0</asrwt>
<pdfrwt beam="1">  1        1 0.32036640E+00 0.13407132E+04</pdfrwt>
<pdfrwt beam="2">  1       -1 0.33200003E-01 0.13407132E+04</pdfrwt>
<totfact> 0.21917120E+01</totfact>
</mgrwt>
</event>
<event>
12    1  0.1598876E-007  0.1996491E+04  0.7818608E-02  0.8608263E-01
          3   -1    0    0  501    0  0.00000000000E+00  0.00000000000E+00  0.17154266561E+04  0.17154266561E+04  0.00000000000E+00 0. -1.
         -3   -1    0    0    0  501 -0.00000000000E+00 -0.00000000000E+00 -0.58090182501E+03  0.58090182501E+03  0.00000000000E+00 0.  1.
         23    2    1    2    0    0  0.66500568161E+03  0.21167566069E+03  0.89306394516E+03  0.11373038667E+04  0.94115530607E+02 0.  0.
        254    2    1    2    0    0 -0.66500568161E+03 -0.21167566069E+03  0.24146088593E+03  0.11590246144E+04  0.89330596971E+03 0.  0.
        -24    2    4    4    0    0 -0.84204868051E+03 -0.50219265601E+01  0.13706765426E+03  0.85687997690E+03  0.79903397083E+02 0.  0.
         24    2    4    4    0    0  0.17704299890E+03 -0.20665373413E+03  0.10439323167E+03  0.30214463753E+03  0.79645752422E+02 0.  0.
         11    1    3    3    0    0  0.78866792232E+01  0.13407787229E+02  0.86670152427E+01  0.17806898123E+02  0.00000000000E+00 0.  1.
        -11    1    3    3    0    0  0.65711900239E+03  0.19826787346E+03  0.88439692992E+03  0.11194969686E+04  0.00000000000E+00 0. -1.
          2    1    6    6  502    0  0.11657604114E+03 -0.14868959516E+03  0.32407301736E+02  0.19169977121E+03  0.00000000000E+00 0. -1.
          1    1    5    5  503    0 -0.78214052767E+03  0.10931929975E+01  0.14703312499E+03  0.79584152941E+03  0.00000000000E+00 0. -1.
         -2    1    5    5    0  503 -0.59908152844E+02 -0.61151195576E+01 -0.99654707365E+01  0.61038447485E+02  0.00000000000E+00 0.  1.
         -1    1    6    6    0  502  0.60466957765E+02 -0.57964138975E+02  0.71985929936E+02  0.11044486632E+03  0.00000000000E+00 0.  1.
<mgrwt>
<rscale>  0 0.19964914E+04</rscale>
<asrwt>0</asrwt>
<pdfrwt beam="1">  1        3 0.26391179E+00 0.19964914E+04</pdfrwt>
<pdfrwt beam="2">  1       -3 0.89369512E-01 0.19964914E+04</pdfrwt>
<totfact> 0.16936056E-01</totfact>
</mgrwt>
</event>
<event>
12    1  0.1598876E-007  0.1412906E+04  0.7818608E-02  0.8944529E-01
         -2   -1    0    0    0  501 -0.00000000000E+00  0.00000000000E+00  0.33598458648E+03  0.33598458648E+03  0.00000000000E+00 0.  1.
          2   -1    0    0  501    0  0.00000000000E+00 -0.00000000000E+00 -0.14854138399E+04  0.14854138399E+04  0.00000000000E+00 0. -1.
         23    2    1    2    0    0 -0.45503832889E+02 -0.38286398115E+02 -0.87055801626E+03  0.88057345033E+03  0.11832960182E+03 0.  0.
        254    2    1    2    0    0  0.45503832889E+02  0.38286398115E+02 -0.27887123712E+03  0.94082497601E+03  0.89657460453E+03 0.  0.
        -24    2    4    4    0    0  0.44150747650E+03 -0.10071331789E+03 -0.68998080064E+02  0.46488406975E+03  0.79274453920E+02 0.  0.
         24    2    4    4    0    0 -0.39600364362E+03  0.13899971601E+03 -0.20987315706E+03  0.47594090626E+03  0.79581388433E+02 0.  0.
         13    1    3    3    0    0 -0.68167177929E+02 -0.67101759660E+02 -0.61223030432E+03  0.61965745039E+03  0.00000000000E+00 0. -1.
        -13    1    3    3    0    0  0.22663345040E+02  0.28815361545E+02 -0.25832771193E+03  0.26091599994E+03  0.00000000000E+00 0.  1.
          2    1    6    6  502    0 -0.37725748914E+03  0.13023816724E+03 -0.17587122023E+03  0.43613745474E+03  0.00000000000E+00 0. -1.
          3    1    5    5  503    0  0.39983998001E+03 -0.75974043968E+02 -0.41339757473E+02  0.40908805961E+03  0.00000000000E+00 0. -1.
         -4    1    5    5    0  503  0.41667496496E+02 -0.24739273927E+02 -0.27658322591E+02  0.55796010137E+02  0.00000000000E+00 0.  1.
         -1    1    6    6    0  502 -0.18746154472E+02  0.87615487667E+01 -0.34001936831E+02  0.39803451516E+02  0.00000000000E+00 0.  1.
<mgrwt>
<rscale>  0 0.14129064E+04</rscale>
<asrwt>0</asrwt>
<pdfrwt beam="1">  1        2 0.22852520E+00 0.14129064E+04</pdfrwt>
<pdfrwt beam="2">  1       -2 0.51689937E-01 0.14129064E+04</pdfrwt>
<totfact> 0.44461926E+01</totfact>
</mgrwt>
</event>
<event>
12    1  0.1598876E-007  0.1897031E+04  0.7818608E-02  0.8656336E-01
          2   -1    0    0  501    0  0.00000000000E+00  0.00000000000E+00  0.13240393675E+04  0.13240393675E+04  0.00000000000E+00 0. -1.
         -2   -1    0    0    0  501 -0.00000000000E+00 -0.00000000000E+00 -0.67949752822E+03  0.67949752822E+03  0.00000000000E+00 0.  1.
         23    2    1    2    0    0  0.72493535175E+03  0.95863450215E+01  0.32610678975E+03  0.80023178970E+03  0.91663060680E+02 0.  0.
        254    2    1    2    0    0 -0.72493535175E+03 -0.95863450215E+01  0.31843504950E+03  0.12033051060E+04  0.90604587915E+03 0.  0.
        -24    2    4    4    0    0 -0.86090831258E+03  0.17843258122E+02  0.46879506285E+03  0.98362426138E+03  0.79160420053E+02 0.  0.
         24    2    4    4    0    0  0.13597296083E+03 -0.27429603143E+02 -0.15036001335E+03  0.21968084461E+03  0.80065664723E+02 0.  0.
         13    1    3    3    0    0  0.36453587283E+02  0.23112978250E+01  0.41288794096E+02  0.55126859528E+02  0.00000000000E+00 0.  1.
        -13    1    3    3    0    0  0.68848176447E+03  0.72750471965E+01  0.28481799566E+03  0.74510493017E+03  0.00000000000E+00 0. -1.
          2    1    6    6  502    0  0.68487978538E+01 -0.38723344382E+01  0.98259989938E+01  0.12587742541E+02  0.00000000000E+00 0. -1.
          3    1    5    5  503    0 -0.31023166259E+03 -0.19021248618E+02  0.13708568037E+03  0.33970277616E+03  0.00000000000E+00 0. -1.
         -4    1    5    5    0  503 -0.55067664999E+03  0.36864506739E+02  0.33170938248E+03  0.64392148522E+03  0.00000000000E+00 0.  1.
         -1    1    6    6    0  502  0.12912416297E+03 -0.23557268705E+02 -0.16018601235E+03  0.20709310206E+03  0.00000000000E+00 0.  1.
<mgrwt>
<rscale>  0 0.18970308E+04</rscale>
<asrwt>0</asrwt>
<pdfrwt beam="1">  1        2 0.20369836E+00 0.18970308E+04</pdfrwt>
<pdfrwt beam="2">  1       -2 0.10453808E+00 0.18970308E+04</pdfrwt>
<totfact> 0.11141816E+01</totfact>
</mgrwt>
</event>
<event>
12    1  0.1598876E-007  0.3207134E+04  0.7818608E-02  0.8186936E-01
         -2   -1    0    0    0  501 -0.00000000000E+00  0.00000000000E+00  0.18846519917E+04  0.18846519917E+04  0.00000000000E+00 0.  1.
          2   -1    0    0  501    0  0.00000000000E+00 -0.00000000000E+00 -0.13644044713E+04  0.13644044713E+04  0.00000000000E+00 0. -1.
         23    2    1    2    0    0 -0.96512711898E+03 -0.50221326366E+03  0.12416853121E+04  0.16534787233E+04  0.92309024407E+02 0.  0.
        254    2    1    2    0    0  0.96512711898E+03  0.50221326366E+03 -0.72143779172E+03  0.15955777397E+04  0.91744608464E+03 0.  0.
        -24    2    4    4    0    0  0.11346918505E+04  0.43957355083E+03 -0.56634916586E+03  0.13444901570E+04  0.78434063777E+02 0.  0.
         24    2    4    4    0    0 -0.16956473156E+03  0.62639712829E+02 -0.15508862587E+03  0.25108758272E+03  0.79476792298E+02 0.  0.
         13    1    3    3    0    0 -0.48457054959E+03 -0.20271773233E+03  0.61919281548E+03  0.81197465433E+03  0.00000000000E+00 0. -1.
        -13    1    3    3    0    0 -0.48055656939E+03 -0.29949553133E+03  0.62249249663E+03  0.84150406893E+03  0.00000000000E+00 0.  1.
          2    1    6    6  502    0 -0.11637209671E+02 -0.16954228958E+02 -0.14454450987E+02  0.25135665534E+02  0.00000000000E+00 0. -1.
          3    1    5    5  503    0  0.12770370889E+02  0.15208724760E+02 -0.10426922751E+02  0.22430078010E+02  0.00000000000E+00 0. -1.
         -4    1    5    5    0  503  0.11219214797E+04  0.42436482607E+03 -0.55592224310E+03  0.13220600790E+04  0.00000000000E+00 0.  1.
         -1    1    6    6    0  502 -0.15792752189E+03  0.79593941787E+02 -0.14063417488E+03  0.22595191719E+03  0.00000000000E+00 0.  1.
<mgrwt>
<rscale>  0 0.32071343E+04</rscale>
<asrwt>0</asrwt>
<pdfrwt beam="1">  1        2 0.20990838E+00 0.32071343E+04</pdfrwt>
<pdfrwt beam="2">  1       -2 0.28994646E+00 0.32071343E+04</pdfrwt>
<totfact> 0.46740124E-01</totfact>
</mgrwt>
</event>
<event>
12    1  0.1598876E-007  0.1531212E+04  0.7818608E-02  0.8863958E-01
          3   -1    0    0  501    0  0.00000000000E+00  0.00000000000E+00  0.11283553990E+04  0.11283553990E+04  0.00000000000E+00 0. -1.
         -3   -1    0    0    0  501 -0.00000000000E+00 -0.00000000000E+00 -0.51947535680E+03  0.51947535680E+03  0.00000000000E+00 0.  1.
         23    2    1    2    0    0  0.33917617202E+03  0.36221075465E+03  0.18576524422E+03  0.53766691516E+03  0.91322939368E+02 0.  0.
        254    2    1    2    0    0 -0.33917617202E+03 -0.36221075465E+03  0.42311479802E+03  0.11101638407E+04  0.89844338408E+03 0.  0.
        -24    2    4    4    0    0 -0.61973649462E+03 -0.38288981802E+03  0.28803781142E+03  0.78798099315E+03  0.85266225659E+02 0.  0.
         24    2    4    4    0    0  0.28056032261E+03  0.20679063372E+02  0.13507698660E+03  0.32218284754E+03  0.80089179393E+02 0.  0.
         11    1    3    3    0    0  0.61741030567E+02  0.30873626520E+02  0.48036915351E+02  0.84099232496E+02  0.00000000000E+00 0. -1.
        -11    1    3    3    0    0  0.27743514145E+03  0.33133712813E+03  0.13772832887E+03  0.45356768267E+03  0.00000000000E+00 0.  1.
          2    1    6    6  502    0  0.22369731761E+03  0.33870901555E+02  0.13566958312E+03  0.26380667858E+03  0.00000000000E+00 0. -1.
          1    1    5    5  503    0 -0.59189699657E+03 -0.34491472062E+03  0.28064593263E+03  0.74031774162E+03  0.00000000000E+00 0. -1.
         -2    1    5    5    0  503 -0.27839498049E+02 -0.37975097396E+02  0.73918787943E+01  0.47663251526E+02  0.00000000000E+00 0.  1.
         -1    1    6    6    0  502  0.56863004991E+02 -0.13191838183E+02 -0.59259652114E+00  0.58376168955E+02  0.00000000000E+00 0.  1.
<mgrwt>
<rscale>  0 0.15312124E+04</rscale>
<asrwt>0</asrwt>
<pdfrwt beam="1">  1        3 0.17359314E+00 0.15312124E+04</pdfrwt>
<pdfrwt beam="2">  1       -3 0.79919286E-01 0.15312124E+04</pdfrwt>
<totfact> 0.80745941E-01</totfact>
</mgrwt>
</event>
<event>
12    1  0.1598876E-007  0.2090164E+04  0.7818608E-02  0.8565589E-01
          1   -1    0    0  501    0  0.00000000000E+00  0.00000000000E+00  0.10861404684E+04  0.10861404684E+04  0.00000000000E+00 0. -1.
         -1   -1    0    0    0  501 -0.00000000000E+00 -0.00000000000E+00 -0.10055757577E+04  0.10055757577E+04  0.00000000000E+00 0.  1.
         23    2    1    2    0    0 -0.50397206367E+03 -0.10002542026E+03 -0.68080435353E+03  0.85714815022E+03  0.84943851880E+02 0.  0.
        254    2    1    2    0    0  0.50397206367E+03  0.10002542026E+03  0.76136906415E+03  0.12345680759E+04  0.82491366610E+03 0.  0.
        -24    2    4    4    0    0 -0.88331838822E+01 -0.29780909431E+03  0.32862638205E+03  0.45047810545E+03  0.78529884236E+02 0.  0.
         24    2    4    4    0    0  0.51280524756E+03  0.39783451457E+03  0.43274268210E+03  0.78408997045E+03  0.79305295762E+02 0.  0.
         13    1    3    3    0    0 -0.42888072923E+03 -0.69041963406E+02 -0.52481888917E+03  0.68127845925E+03  0.00000000000E+00 0.  1.
        -13    1    3    3    0    0 -0.75091334445E+02 -0.30983456851E+02 -0.15598546436E+03  0.17586969096E+03  0.00000000000E+00 0. -1.
          4    1    6    6  502    0  0.48633701836E+03  0.35008795772E+03  0.39454923012E+03  0.71746384478E+03  0.00000000000E+00 0. -1.
          3    1    5    5  503    0 -0.36914466534E+02 -0.91923853990E+02  0.12564496194E+03  0.15999790384E+03  0.00000000000E+00 0. -1.
         -4    1    5    5    0  503  0.28081282652E+02 -0.20588524032E+03  0.20298142010E+03  0.29048020161E+03  0.00000000000E+00 0.  1.
         -3    1    6    6    0  502  0.26468229193E+02  0.47746556847E+02  0.38193451985E+02  0.66626125670E+02  0.00000000000E+00 0.  1.
<mgrwt>
<rscale>  0 0.20901641E+04</rscale>
<asrwt>0</asrwt>
<pdfrwt beam="1">  1        1 0.16709853E+00 0.20901641E+04</pdfrwt>
<pdfrwt beam="2">  1       -1 0.15470396E+00 0.20901641E+04</pdfrwt>
<totfact> 0.38355554E+00</totfact>
</mgrwt>
</event>
<event>
12    1  0.1598876E-007  0.1246640E+04  0.7818608E-02  0.9072984E-01
         -2   -1    0    0    0  501 -0.00000000000E+00  0.00000000000E+00  0.14994055234E+03  0.14994055234E+03  0.00000000000E+00 0.  1.
          2   -1    0    0  501    0  0.00000000000E+00 -0.00000000000E+00 -0.25912120870E+04  0.25912120870E+04  0.00000000000E+00 0. -1.
         23    2    1    2    0    0 -0.23257781283E+03 -0.15492187731E+03 -0.74357941719E+03  0.79946706488E+03  0.90244174732E+02 0.  0.
        254    2    1    2    0    0  0.23257781283E+03  0.15492187731E+03 -0.16976921175E+04  0.19416855745E+04  0.89993950756E+03 0.  0.
        -24    2    4    4    0    0 -0.17728690922E+03 -0.40881546373E+02 -0.13485146042E+04  0.13633904219E+04  0.85087341657E+02 0.  0.
         24    2    4    4    0    0  0.40986472205E+03  0.19580342368E+03 -0.34917751323E+03  0.57829515254E+03  0.78563837765E+02 0.  0.
         11    1    3    3    0    0 -0.19092307442E+03 -0.12814228138E+03 -0.49226525666E+03  0.54332048327E+03  0.00000000000E+00 0.  1.
        -11    1    3    3    0    0 -0.41654738408E+02 -0.26779595927E+02 -0.25131416052E+03  0.25614658161E+03  0.00000000000E+00 0. -1.
          4    1    6    6  502    0  0.14979300644E+03  0.37116018956E+02 -0.92508422523E+02  0.17992596222E+03  0.00000000000E+00 0. -1.
          1    1    5    5  503    0 -0.11146436716E+03  0.14991770764E+02 -0.66485915443E+03  0.67430464448E+03  0.00000000000E+00 0. -1.
         -2    1    5    5    0  503 -0.65822542060E+02 -0.55873317137E+02 -0.68365544981E+03  0.68908577744E+03  0.00000000000E+00 0.  1.
         -3    1    6    6    0  502  0.26007171561E+03  0.15868740472E+03 -0.25666909071E+03  0.39836919033E+03  0.00000000000E+00 0.  1.
<mgrwt>
<rscale>  0 0.12466399E+04</rscale>
<asrwt>0</asrwt>
<pdfrwt beam="1">  1        2 0.39864798E+00 0.12466399E+04</pdfrwt>
<pdfrwt beam="2">  1       -2 0.23067779E-01 0.12466399E+04</pdfrwt>
<totfact> 0.50590388E+01</totfact>
</mgrwt>
</event>
<event>
12    1  0.1598876E-007  0.1546992E+04  0.7818608E-02  0.8853791E-01
         -1   -1    0    0    0  501 -0.00000000000E+00  0.00000000000E+00  0.11503138911E+04  0.11503138911E+04  0.00000000000E+00 0.  1.
          1   -1    0    0  501    0  0.00000000000E+00 -0.00000000000E+00 -0.52011535849E+03  0.52011535849E+03  0.00000000000E+00 0. -1.
         23    2    1    2    0    0 -0.48438246177E+02 -0.49674347897E+03  0.12961236656E+03  0.52453625593E+03  0.96117483461E+02 0.  0.
        254    2    1    2    0    0  0.48438246177E+02  0.49674347897E+03  0.50058616604E+03  0.11458929937E+04  0.90187798271E+03 0.  0.
        -24    2    4    4    0    0 -0.33272691458E+02 -0.23133453651E+03 -0.12365701907E+02  0.24767892840E+03  0.81050608954E+02 0.  0.
         24    2    4    4    0    0  0.81710937636E+02  0.72807801548E+03  0.51295186795E+03  0.89821406526E+03  0.83033813828E+02 0.  0.
         11    1    3    3    0    0 -0.20909624049E+02 -0.15224883205E+02  0.89137779317E+01  0.27358086254E+02  0.00000000000E+00 0.  1.
        -11    1    3    3    0    0 -0.27528622128E+02 -0.48151859577E+03  0.12069858863E+03  0.49717816968E+03  0.00000000000E+00 0. -1.
          4    1    6    6  502    0  0.90860686757E+02  0.46203216828E+03  0.33897996141E+03  0.58020410474E+03  0.00000000000E+00 0. -1.
          1    1    5    5  503    0 -0.46953815952E+02 -0.11269407813E+03 -0.33039196687E+02  0.12647610286E+03  0.00000000000E+00 0. -1.
         -4    1    5    5    0  503  0.13681124493E+02 -0.11864045838E+03  0.20673494781E+02  0.12120282554E+03  0.00000000000E+00 0.  1.
         -3    1    6    6    0  502 -0.91497491210E+01  0.26604584720E+03  0.17397190654E+03  0.31800996052E+03  0.00000000000E+00 0.  1.
<mgrwt>
<rscale>  0 0.15469918E+04</rscale>
<asrwt>0</asrwt>
<pdfrwt beam="1">  1        1 0.80017748E-01 0.15469918E+04</pdfrwt>
<pdfrwt beam="2">  1       -1 0.17697137E+00 0.15469918E+04</pdfrwt>
<totfact> 0.88480802E+00</totfact>
</mgrwt>
</event>
<event>
12    1  0.1598876E-007  0.1854865E+04  0.7818608E-02  0.8677655E-01
          2   -1    0    0  501    0  0.00000000000E+00  0.00000000000E+00  0.46294962668E+03  0.46294962668E+03  0.00000000000E+00 0. -1.
         -2   -1    0    0    0  501 -0.00000000000E+00 -0.00000000000E+00 -0.18579373872E+04  0.18579373872E+04  0.00000000000E+00 0.  1.
         23    2    1    2    0    0 -0.88123511095E+02  0.30815758649E+03 -0.13091227400E+04  0.13508048782E+04  0.90247544194E+02 0.  0.
        254    2    1    2    0    0  0.88123511095E+02 -0.30815758649E+03 -0.85865020524E+02  0.97008213570E+03  0.91156990787E+03 0.  0.
        -24    2    4    4    0    0  0.17924231227E+02 -0.52431251480E+03  0.22535976663E+03  0.57670971150E+03  0.81130608744E+02 0.  0.
         24    2    4    4    0    0  0.70199279868E+02  0.21615492831E+03 -0.31122478716E+03  0.39337242420E+03  0.78931008187E+02 0.  0.
         13    1    3    3    0    0  0.14535508769E+02  0.31739056945E+02 -0.20680183434E+03  0.20972755526E+03  0.00000000000E+00 0. -1.
        -13    1    3    3    0    0 -0.10265901986E+03  0.27641852955E+03 -0.11023209057E+04  0.11410773229E+04  0.00000000000E+00 0.  1.
          4    1    6    6  502    0  0.39370795483E+02  0.17467620993E+03 -0.28187559997E+03  0.33393965280E+03  0.00000000000E+00 0. -1.
          1    1    5    5  503    0  0.36568167733E+02 -0.29291366925E+03  0.15888352094E+03  0.33523069930E+03  0.00000000000E+00 0. -1.
         -2    1    5    5    0  503 -0.18643936506E+02 -0.23139884555E+03  0.66476245690E+02  0.24147901220E+03  0.00000000000E+00 0.  1.
         -3    1    6    6    0  502  0.30828484385E+02  0.41478718381E+02 -0.29349187187E+02  0.59432771402E+02  0.00000000000E+00 0.  1.
<mgrwt>
<rscale>  0 0.18548654E+04</rscale>
<asrwt>0</asrwt>
<pdfrwt beam="1">  1        2 0.71223019E-01 0.18548654E+04</pdfrwt>
<pdfrwt beam="2">  1       -2 0.28583652E+00 0.18548654E+04</pdfrwt>
<totfact> 0.24572815E+00</totfact>
</mgrwt>
</event>
<event>
12    1  0.1598876E-007  0.2020711E+04  0.7818608E-02  0.8596999E-01
          2   -1    0    0  501    0  0.00000000000E+00  0.00000000000E+00  0.19265785012E+04  0.19265785012E+04  0.00000000000E+00 0. -1.
         -2   -1    0    0    0  501 -0.00000000000E+00 -0.00000000000E+00 -0.52986047180E+03  0.52986047180E+03  0.00000000000E+00 0.  1.
         23    2    1    2    0    0  0.32551146731E+03 -0.10528917997E+03  0.14538056025E+04  0.14962549615E+04  0.90469074260E+02 0.  0.
        254    2    1    2    0    0 -0.32551146731E+03  0.10528917997E+03 -0.57087573041E+02  0.96018401149E+03  0.89534955082E+03 0.  0.
        -24    2    4    4    0    0 -0.16587842592E+03 -0.34097721577E+03  0.17672382754E+03  0.42572086723E+03  0.78903939780E+02 0.  0.
         24    2    4    4    0    0 -0.15963304139E+03  0.44626639574E+03 -0.23381140058E+03  0.53446314426E+03  0.79666038299E+02 0.  0.
         13    1    3    3    0    0  0.33096556913E+03 -0.10639027933E+03  0.14165011211E+04  0.14585378040E+04  0.00000000000E+00 0. -1.
        -13    1    3    3    0    0 -0.54541018152E+01  0.11010993580E+01  0.37304481320E+02  0.37717157540E+02  0.00000000000E+00 0.  1.
          4    1    6    6  502    0 -0.48439385047E+01  0.10975016180E+03 -0.45115411841E+02  0.11876010332E+03  0.00000000000E+00 0. -1.
          3    1    5    5  503    0 -0.36621210119E+01  0.25563182283E+01 -0.30676243626E+01  0.54181373571E+01  0.00000000000E+00 0. -1.
         -4    1    5    5    0  503 -0.16221630491E+03 -0.34353353400E+03  0.17979145191E+03  0.42030272987E+03  0.00000000000E+00 0.  1.
         -3    1    6    6    0  502 -0.15478910289E+03  0.33651623394E+03 -0.18869598874E+03  0.41570304094E+03  0.00000000000E+00 0.  1.
<mgrwt>
<rscale>  0 0.20207106E+04</rscale>
<asrwt>0</asrwt>
<pdfrwt beam="1">  1        2 0.29639669E+00 0.20207106E+04</pdfrwt>
<pdfrwt beam="2">  1       -2 0.81516996E-01 0.20207106E+04</pdfrwt>
<totfact> 0.90189630E+00</totfact>
</mgrwt>
</event>
<event>
12    1  0.1598876E-007  0.1747828E+04  0.7818608E-02  0.8734547E-01
          1   -1    0    0  501    0  0.00000000000E+00  0.00000000000E+00  0.12105318367E+04  0.12105318367E+04  0.00000000000E+00 0. -1.
         -1   -1    0    0    0  501 -0.00000000000E+00 -0.00000000000E+00 -0.63090089051E+03  0.63090089051E+03  0.00000000000E+00 0.  1.
         23    2    1    2    0    0 -0.28477378543E+03 -0.15271308852E+03 -0.36661139569E+03  0.49717037658E+03  0.91417020467E+02 0.  0.
        254    2    1    2    0    0  0.28477378543E+03  0.15271308852E+03  0.94624234184E+03  0.13442623506E+04  0.89847053455E+03 0.  0.
        -24    2    4    4    0    0 -0.22672565588E+03 -0.92434692855E+02  0.65117841180E+03  0.70033009341E+03  0.80499815261E+02 0.  0.
         24    2    4    4    0    0  0.51149944131E+03  0.24514778137E+03  0.29506393004E+03  0.64393225718E+03  0.76530489722E+02 0.  0.
         13    1    3    3    0    0 -0.76450693328E+02  0.13527266251E+01 -0.75596700920E+02  0.10752394882E+03  0.00000000000E+00 0. -1.
        -13    1    3    3    0    0 -0.20832309210E+03 -0.15406581514E+03 -0.29101469477E+03  0.38964642776E+03  0.00000000000E+00 0.  1.
          4    1    6    6  502    0  0.26120305014E+03  0.16131969831E+03  0.13626312098E+03  0.33588497526E+03  0.00000000000E+00 0. -1.
          3    1    5    5  503    0 -0.13217125059E+03 -0.66971711420E+02  0.48826452249E+03  0.51025159827E+03  0.00000000000E+00 0. -1.
         -4    1    5    5    0  503 -0.94554405293E+02 -0.25462981436E+02  0.16291388932E+03  0.19007849514E+03  0.00000000000E+00 0.  1.
         -3    1    6    6    0  502  0.25029639117E+03  0.83828083062E+02  0.15880080905E+03  0.30804728192E+03  0.00000000000E+00 0.  1.
<mgrwt>
<rscale>  0 0.17478279E+04</rscale>
<asrwt>0</asrwt>
<pdfrwt beam="1">  1        1 0.18623567E+00 0.17478279E+04</pdfrwt>
<pdfrwt beam="2">  1       -1 0.97061676E-01 0.17478279E+04</pdfrwt>
<totfact> 0.10150828E+01</totfact>
</mgrwt>
</event>
<event>
12    1  0.1598876E-007  0.1630949E+04  0.7818608E-02  0.8801757E-01
         -2   -1    0    0    0  501 -0.00000000000E+00  0.00000000000E+00  0.64752276288E+03  0.64752276288E+03  0.00000000000E+00 0.  1.
          2   -1    0    0  501    0  0.00000000000E+00 -0.00000000000E+00 -0.10269884284E+04  0.10269884284E+04  0.00000000000E+00 0. -1.
         23    2    1    2    0    0  0.15342000923E+03  0.52666297608E+03  0.40155097176E+02  0.55820183214E+03  0.95211679809E+02 0.  0.
        254    2    1    2    0    0 -0.15342000923E+03 -0.52666297608E+03 -0.41962076266E+03  0.11163093591E+04  0.87701391731E+03 0.  0.
        -24    2    4    4    0    0 -0.22001498237E+03 -0.53787239689E+03  0.92559279407E+02  0.59371816966E+03  0.78871648755E+02 0.  0.
         24    2    4    4    0    0  0.66594973138E+02  0.11209420810E+02 -0.51218004207E+03  0.52259118944E+03  0.78820138446E+02 0.  0.
         13    1    3    3    0    0  0.32131641276E+02  0.13398870099E+03 -0.30682337752E+02  0.14116238952E+03  0.00000000000E+00 0. -1.
        -13    1    3    3    0    0  0.12128836795E+03  0.39267427509E+03  0.70837434927E+02  0.41703944263E+03  0.00000000000E+00 0.  1.
          4    1    6    6  502    0  0.35096965412E+02  0.42720183345E+02 -0.35259518189E+03  0.35690359110E+03  0.00000000000E+00 0. -1.
          1    1    5    5  503    0 -0.10434438222E+03 -0.32575415046E+03  0.25651881051E+02  0.34301827305E+03  0.00000000000E+00 0. -1.
         -4    1    5    5    0  503 -0.11567060014E+03 -0.21211824643E+03  0.66907398357E+02  0.25069989661E+03  0.00000000000E+00 0.  1.
         -3    1    6    6    0  502  0.31498007726E+02 -0.31510762535E+02 -0.15958486018E+03  0.16568759834E+03  0.00000000000E+00 0.  1.
<mgrwt>
<rscale>  0 0.16309487E+04</rscale>
<asrwt>0</asrwt>
<pdfrwt beam="1">  1        2 0.15799822E+00 0.16309487E+04</pdfrwt>
<pdfrwt beam="2">  1       -2 0.99618887E-01 0.16309487E+04</pdfrwt>
<totfact> 0.19305923E+01</totfact>
</mgrwt>
</event>
<event>
12    1  0.1598876E-007  0.1659563E+04  0.7818608E-02  0.8784769E-01
         -1   -1    0    0    0  501 -0.00000000000E+00  0.00000000000E+00  0.66352366612E+03  0.66352366612E+03  0.00000000000E+00 0.  1.
          1   -1    0    0  501    0  0.00000000000E+00 -0.00000000000E+00 -0.10376977811E+04  0.10376977811E+04  0.00000000000E+00 0. -1.
         23    2    1    2    0    0  0.14337846496E+03  0.44021059537E+03  0.24546040198E+03  0.53192153248E+03  0.91361672950E+02 0.  0.
        254    2    1    2    0    0 -0.14337846496E+03 -0.44021059537E+03 -0.61963451698E+03  0.11692999148E+04  0.87691082987E+03 0.  0.
        -24    2    4    4    0    0  0.26360365732E+03 -0.34716667221E+03 -0.59722901825E+03  0.74361375573E+03  0.79166476626E+02 0.  0.
         24    2    4    4    0    0 -0.40698212228E+03 -0.93043923153E+02 -0.22405498727E+02  0.42568615903E+03  0.80094195323E+02 0.  0.
         11    1    3    3    0    0  0.48049434942E+02  0.72733360452E+02  0.16919476563E+02  0.88798415572E+02  0.00000000000E+00 0. -1.
        -11    1    3    3    0    0  0.95329030018E+02  0.36747723492E+03  0.22854092541E+03  0.44312311690E+03  0.00000000000E+00 0.  1.
          4    1    6    6  502    0 -0.13591318091E+03 -0.43004974876E+02 -0.44005968461E+02  0.14919231170E+03  0.00000000000E+00 0. -1.
          3    1    5    5  503    0  0.19456058479E+03 -0.19334401232E+03 -0.36090203411E+03  0.45330564355E+03  0.00000000000E+00 0. -1.
         -4    1    5    5    0  503  0.69043072530E+02 -0.15382265990E+03 -0.23632698414E+03  0.29030811218E+03  0.00000000000E+00 0.  1.
         -3    1    6    6    0  502 -0.27106894137E+03 -0.50038948278E+02  0.21600469734E+02  0.27649384733E+03  0.00000000000E+00 0.  1.
<mgrwt>
<rscale>  0 0.16595626E+04</rscale>
<asrwt>0</asrwt>
<pdfrwt beam="1">  1        1 0.15964581E+00 0.16595626E+04</pdfrwt>
<pdfrwt beam="2">  1       -1 0.10208056E+00 0.16595626E+04</pdfrwt>
<totfact> 0.12278395E+01</totfact>
</mgrwt>
</event>
<event>
12    1  0.1598876E-007  0.2490794E+04  0.7818608E-02  0.8406273E-01
         -1   -1    0    0    0  501 -0.00000000000E+00  0.00000000000E+00  0.59911922974E+03  0.59911922974E+03  0.00000000000E+00 0.  1.
          1   -1    0    0  501    0  0.00000000000E+00 -0.00000000000E+00 -0.25888222165E+04  0.25888222165E+04  0.00000000000E+00 0. -1.
         23    2    1    2    0    0 -0.64285979238E+03 -0.70953490796E+03 -0.21830803998E+03  0.98610955299E+03  0.89694770783E+02 0.  0.
        254    2    1    2    0    0  0.64285979238E+03  0.70953490796E+03 -0.17713949468E+04  0.22018318933E+04  0.89079466229E+03 0.  0.
        -24    2    4    4    0    0  0.80222764986E+03  0.68697949596E+03 -0.17104330327E+04  0.20119013553E+04  0.81583539262E+02 0.  0.
         24    2    4    4    0    0 -0.15936785748E+03  0.22555411997E+02 -0.60961914107E+02  0.18993053801E+03  0.80314342975E+02 0.  0.
         13    1    3    3    0    0 -0.50945052885E+03 -0.59524575844E+03 -0.20539285194E+03  0.80996517081E+03  0.00000000000E+00 0. -1.
        -13    1    3    3    0    0 -0.13340926353E+03 -0.11428914952E+03 -0.12915188034E+02  0.17614438219E+03  0.00000000000E+00 0.  1.
          2    1    6    6  502    0 -0.54758976624E+02  0.35744044348E+02 -0.53035768727E+02  0.84196050927E+02  0.00000000000E+00 0. -1.
          1    1    5    5  503    0  0.50743636136E+02  0.31707520748E+02 -0.13211073490E+03  0.14502940997E+03  0.00000000000E+00 0. -1.
         -2    1    5    5    0  503  0.75148401372E+03  0.65527197522E+03 -0.15783222978E+04  0.18668719453E+04  0.00000000000E+00 0.  1.
         -1    1    6    6    0  502 -0.10460888086E+03 -0.13188632351E+02 -0.79261453800E+01  0.10573448708E+03  0.00000000000E+00 0.  1.
<mgrwt>
<rscale>  0 0.24907936E+04</rscale>
<asrwt>0</asrwt>
<pdfrwt beam="1">  1        1 0.39828035E+00 0.24907936E+04</pdfrwt>
<pdfrwt beam="2">  1       -1 0.92172187E-01 0.24907936E+04</pdfrwt>
<totfact> 0.11963637E+00</totfact>
</mgrwt>
</event>
<event>
12    1  0.1774575E-007  0.1869789E+04  0.7818608E-02  0.8670042E-01
          1   -1    0    0  501    0  0.00000000000E+00  0.00000000000E+00  0.16586860294E+04  0.16586860294E+04  0.00000000000E+00 0. -1.
         -1   -1    0    0    0  501 -0.00000000000E+00 -0.00000000000E+00 -0.52693988212E+03  0.52693988212E+03  0.00000000000E+00 0.  1.
         23    2    1    2    0    0  0.37375393358E+03 -0.87713645760E+02  0.11439707837E+04  0.12114222924E+04  0.10718735891E+03 0.  0.
        254    2    1    2    0    0 -0.37375393358E+03  0.87713645760E+02 -0.12224636440E+02  0.97420361915E+03  0.89528630243E+03 0.  0.
        -24    2    4    4    0    0 -0.62820081077E+02  0.39734458451E+03  0.22621052355E+03  0.46837891468E+03  0.79865670500E+02 0.  0.
         24    2    4    4    0    0 -0.31093385250E+03 -0.30963093875E+03 -0.23843515999E+03  0.50582470447E+03  0.80350029663E+02 0.  0.
         13    1    3    3    0    0  0.35680254573E+03 -0.97091806543E+02  0.11253746780E+04  0.11845687154E+04  0.00000000000E+00 0. -1.
        -13    1    3    3    0    0  0.16951387848E+02  0.93781607830E+01  0.18596105722E+02  0.26853577000E+02  0.00000000000E+00 0.  1.
          4    1    6    6  502    0 -0.26260769686E+03 -0.29124906235E+03 -0.19339121565E+03  0.43725162213E+03  0.00000000000E+00 0. -1.
          1    1    5    5  503    0 -0.71314373363E+02  0.39028948362E+03  0.22735675805E+03  0.45727750470E+03  0.00000000000E+00 0. -1.
         -2    1    5    5    0  503  0.84942922857E+01  0.70551008979E+01 -0.11462345028E+01  0.11101409985E+02  0.00000000000E+00 0.  1.
         -3    1    6    6    0  502 -0.48326155636E+02 -0.18381876409E+02 -0.45043944344E+02  0.68573082336E+02  0.00000000000E+00 0.  1.
<mgrwt>
<rscale>  0 0.18697891E+04</rscale>
<asrwt>0</asrwt>
<pdfrwt beam="1">  1        1 0.25518246E+00 0.18697891E+04</pdfrwt>
<pdfrwt beam="2">  1       -1 0.81067675E-01 0.18697891E+04</pdfrwt>
<totfact> 0.72337283E+00</totfact>
</mgrwt>
</event>
<event>
12    1  0.1598876E-007  0.1733554E+04  0.7818608E-02  0.8742455E-01
          2   -1    0    0  501    0  0.00000000000E+00  0.00000000000E+00  0.22792507505E+04  0.22792507505E+04  0.00000000000E+00 0.  1.
         -2   -1    0    0    0  501 -0.00000000000E+00 -0.00000000000E+00 -0.32962708876E+03  0.32962708876E+03  0.00000000000E+00 0. -1.
         23    2    1    2    0    0  0.88612849078E+02  0.27007809262E+02 -0.22175912590E+03  0.25743005409E+03  0.92257596153E+02 0.  0.
        254    2    1    2    0    0 -0.88612849078E+02 -0.27007809262E+02  0.21713827876E+04  0.23514477852E+04  0.89767578622E+03 0.  0.
        -24    2    4    4    0    0  0.14390456793E+03  0.22941909137E+03  0.19437692176E+03  0.34279867383E+03  0.79918076198E+02 0.  0.
         24    2    4    4    0    0 -0.23251741701E+03 -0.25642690064E+03  0.19770058659E+04  0.20086491113E+04  0.79372251020E+02 0.  0.
         13    1    3    3    0    0 -0.22572755425E+01  0.34167993586E+01  0.81337005753E+01  0.91064205800E+01  0.00000000000E+00 0.  1.
        -13    1    3    3    0    0  0.90870124620E+02  0.23591009903E+02 -0.22989282647E+03  0.24832363351E+03  0.00000000000E+00 0. -1.
          4    1    6    6  502    0 -0.12477168553E+03 -0.19270625336E+03  0.13232796096E+04  0.13430460152E+04  0.00000000000E+00 0. -1.
          1    1    5    5  503    0 -0.53316550039E+01  0.22936671310E+02  0.21478239155E+01  0.23645942220E+02  0.00000000000E+00 0. -1.
         -2    1    5    5    0  503  0.14923622294E+03  0.20648242006E+03  0.19222909785E+03  0.31915273161E+03  0.00000000000E+00 0.  1.
         -3    1    6    6    0  502 -0.10774573148E+03 -0.63720647280E+02  0.65372625622E+03  0.66560309616E+03  0.00000000000E+00 0.  1.
<mgrwt>
<rscale>  0 0.17335545E+04</rscale>
<asrwt>0</asrwt>
<pdfrwt beam="1">  1        2 0.35065395E+00 0.17335545E+04</pdfrwt>
<pdfrwt beam="2">  1       -2 0.50711861E-01 0.17335545E+04</pdfrwt>
<totfact> 0.16263166E+01</totfact>
</mgrwt>
</event>
<event>
12    1  0.1598876E-007  0.1489030E+04  0.7818608E-02  0.8891781E-01
         -2   -1    0    0    0  501 -0.00000000000E+00  0.00000000000E+00  0.31233081630E+03  0.31233081630E+03  0.00000000000E+00 0.  1.
          2   -1    0    0  501    0  0.00000000000E+00 -0.00000000000E+00 -0.17747280944E+04  0.17747280944E+04  0.00000000000E+00 0. -1.
         23    2    1    2    0    0  0.11896152592E+02 -0.35253200214E+03 -0.90292009615E+03  0.97359068937E+03  0.90519607943E+02 0.  0.
        254    2    1    2    0    0 -0.11896152592E+02  0.35253200214E+03 -0.55947718198E+03  0.11134682214E+04  0.89575467168E+03 0.  0.
        -24    2    4    4    0    0 -0.25358876510E+03 -0.20043519977E+03 -0.31131241129E+03  0.45591925877E+03  0.80407847865E+02 0.  0.
         24    2    4    4    0    0  0.24169261251E+03  0.55296720191E+03 -0.24816477069E+03  0.65754896259E+03  0.81220929940E+02 0.  0.
         13    1    3    3    0    0 -0.12860982290E+02 -0.28561941106E+03 -0.78865909278E+03  0.83888438861E+03  0.00000000000E+00 0. -1.
        -13    1    3    3    0    0  0.24757134883E+02 -0.66912591075E+02 -0.11426100338E+03  0.13470630076E+03  0.00000000000E+00 0.  1.
          2    1    6    6  502    0  0.20963203052E+03  0.52159642094E+03 -0.24292144318E+03  0.61238814661E+03  0.00000000000E+00 0. -1.
          1    1    5    5  503    0 -0.12979506375E+03 -0.60583092769E+02 -0.10484698442E+03  0.17751044996E+03  0.00000000000E+00 0. -1.
         -2    1    5    5    0  503 -0.12379370135E+03 -0.13985210700E+03 -0.20646542688E+03  0.27840880881E+03  0.00000000000E+00 0.  1.
         -1    1    6    6    0  502  0.32060581988E+02  0.31370780974E+02 -0.52433275099E+01  0.45160815977E+02  0.00000000000E+00 0.  1.
<mgrwt>
<rscale>  0 0.14890296E+04</rscale>
<asrwt>0</asrwt>
<pdfrwt beam="1">  1        2 0.27303508E+00 0.14890296E+04</pdfrwt>
<pdfrwt beam="2">  1       -2 0.48050896E-01 0.14890296E+04</pdfrwt>
<totfact> 0.35359790E+01</totfact>
</mgrwt>
</event>
<event>
12    1  0.1598876E-007  0.3487487E+04  0.7818608E-02  0.8116762E-01
          2   -1    0    0  501    0  0.00000000000E+00  0.00000000000E+00  0.22110394784E+04  0.22110394784E+04  0.00000000000E+00 0. -1.
         -2   -1    0    0    0  501 -0.00000000000E+00 -0.00000000000E+00 -0.13752092452E+04  0.13752092452E+04  0.00000000000E+00 0.  1.
         23    2    1    2    0    0  0.12128032017E+04 -0.91080438257E+03  0.99308434999E+03  0.18151896168E+04  0.90777690659E+02 0.  0.
        254    2    1    2    0    0 -0.12128032017E+04  0.91080438257E+03 -0.15725411682E+03  0.17710591068E+04  0.90081367276E+03 0.  0.
        -24    2    4    4    0    0 -0.11881630311E+04  0.66226347025E+03 -0.39335233310E+03  0.14183113460E+04  0.80973598822E+02 0.  0.
         24    2    4    4    0    0 -0.24640170624E+02  0.24854091231E+03  0.23609821629E+03  0.35274776078E+03  0.79428533305E+02 0.  0.
         13    1    3    3    0    0  0.11171951513E+04 -0.82376628431E+03  0.93395689649E+03  0.16730186436E+04  0.00000000000E+00 0. -1.
        -13    1    3    3    0    0  0.95608050426E+02 -0.87038098254E+02  0.59127453508E+02  0.14217097317E+03  0.00000000000E+00 0.  1.
          4    1    6    6  502    0  0.22350707125E+01  0.87135140750E+02  0.13408035168E+03  0.15992207165E+03  0.00000000000E+00 0. -1.
          1    1    5    5  503    0 -0.11649943058E+04  0.65557531153E+03 -0.37617377684E+03  0.13887035076E+04  0.00000000000E+00 0. -1.
         -2    1    5    5    0  503 -0.23168725347E+02  0.66881587218E+01 -0.17178556265E+02  0.29607838432E+02  0.00000000000E+00 0.  1.
         -3    1    6    6    0  502 -0.26875241337E+02  0.16140577156E+03  0.10201786461E+03  0.19282568913E+03  0.00000000000E+00 0.  1.
<mgrwt>
<rscale>  0 0.34874873E+04</rscale>
<asrwt>0</asrwt>
<pdfrwt beam="1">  1        2 0.34015992E+00 0.34874873E+04</pdfrwt>
<pdfrwt beam="2">  1       -2 0.21157065E+00 0.34874873E+04</pdfrwt>
<totfact> 0.46844352E-01</totfact>
</mgrwt>
</event>
<event>
12    1  0.1598876E-007  0.1377770E+04  0.7818608E-02  0.8970069E-01
         -2   -1    0    0    0  501 -0.00000000000E+00  0.00000000000E+00  0.29946465290E+03  0.29946465290E+03  0.00000000000E+00 0.  1.
          2   -1    0    0  501    0  0.00000000000E+00 -0.00000000000E+00 -0.15847029307E+04  0.15847029307E+04  0.00000000000E+00 0. -1.
         23    2    1    2    0    0 -0.93037357865E+01 -0.31134655462E+03 -0.55745814745E+02  0.32697349435E+03  0.82345816953E+02 0.  0.
        254    2    1    2    0    0  0.93037357865E+01  0.31134655462E+03 -0.12294924630E+04  0.15571940892E+04  0.90342596725E+03 0.  0.
        -24    2    4    4    0    0 -0.18037289657E+03 -0.26625608437E+03 -0.54807889571E+03  0.64054195329E+03  0.80478778033E+02 0.  0.
         24    2    4    4    0    0  0.18967663235E+03  0.57760263900E+03 -0.68141356733E+03  0.91665213595E+03  0.79527700548E+02 0.  0.
         11    1    3    3    0    0 -0.20142236456E+02 -0.29295818318E+03 -0.32545296645E+02  0.29544780100E+03  0.00000000000E+00 0.  1.
        -11    1    3    3    0    0  0.10838500670E+02 -0.18388371444E+02 -0.23200518099E+02  0.31525693351E+02  0.00000000000E+00 0. -1.
          4    1    6    6  502    0  0.68309349099E+02  0.30483928922E+03 -0.30974273204E+03  0.43992467478E+03  0.00000000000E+00 0. -1.
          3    1    5    5  503    0 -0.66372365374E+02 -0.16008480953E+03 -0.32710324398E+03  0.37017424187E+03  0.00000000000E+00 0. -1.
         -4    1    5    5    0  503 -0.11400053119E+03 -0.10617127485E+03 -0.22097565174E+03  0.27036771141E+03  0.00000000000E+00 0.  1.
         -3    1    6    6    0  502  0.12136728326E+03  0.27276334978E+03 -0.37167083529E+03  0.47672746117E+03  0.00000000000E+00 0.  1.
<mgrwt>
<rscale>  0 0.13777700E+04</rscale>
<asrwt>0</asrwt>
<pdfrwt beam="1">  1        2 0.24380045E+00 0.13777700E+04</pdfrwt>
<pdfrwt beam="2">  1       -2 0.46071485E-01 0.13777700E+04</pdfrwt>
<totfact> 0.49520536E+01</totfact>
</mgrwt>
</event>
<event>
12    1  0.1598876E-007  0.2006259E+04  0.7818608E-02  0.8603700E-01
          2   -1    0    0  501    0  0.00000000000E+00  0.00000000000E+00  0.12813643283E+04  0.12813643283E+04  0.00000000000E+00 0. -1.
         -2   -1    0    0    0  501 -0.00000000000E+00 -0.00000000000E+00 -0.78531033448E+03  0.78531033448E+03  0.00000000000E+00 0.  1.
         23    2    1    2    0    0 -0.54362491334E+01 -0.70073148626E+03 -0.18581288579E+03  0.73006299292E+03  0.86089351651E+02 0.  0.
        254    2    1    2    0    0  0.54362491334E+01  0.70073148626E+03  0.68186687964E+03  0.13366116699E+04  0.91133646141E+03 0.  0.
        -24    2    4    4    0    0  0.35903837031E+03  0.24795662388E+03  0.60701640819E+03  0.75193562743E+03  0.80914951041E+02 0.  0.
         24    2    4    4    0    0 -0.35360212118E+03  0.45277486238E+03  0.74850471453E+02  0.58467604246E+03  0.78765128381E+02 0.  0.
         11    1    3    3    0    0 -0.23528148978E+02 -0.10464258545E+03 -0.70643975631E+01  0.10748744204E+03  0.00000000000E+00 0. -1.
        -11    1    3    3    0    0  0.18091899845E+02 -0.59608890081E+03 -0.17874848823E+03  0.62257555088E+03  0.00000000000E+00 0.  1.
          2    1    6    6  502    0 -0.73900274274E+02  0.58181066937E+02  0.30954328624E+02  0.99017460825E+02  0.00000000000E+00 0. -1.
          3    1    5    5  503    0  0.38358390371E+02  0.58215474830E+02  0.74823639087E+02  0.10226917711E+03  0.00000000000E+00 0. -1.
         -4    1    5    5    0  503  0.32067997994E+03  0.18974114906E+03  0.53219276910E+03  0.64966645031E+03  0.00000000000E+00 0.  1.
         -1    1    6    6    0  502 -0.27970184691E+03  0.39459379544E+03  0.43896142829E+02  0.48565858164E+03  0.00000000000E+00 0.  1.
<mgrwt>
<rscale>  0 0.20062589E+04</rscale>
<asrwt>0</asrwt>
<pdfrwt beam="1">  1        2 0.19713297E+00 0.20062589E+04</pdfrwt>
<pdfrwt beam="2">  1       -2 0.12081697E+00 0.20062589E+04</pdfrwt>
<totfact> 0.82200290E+00</totfact>
</mgrwt>
</event>
<event>
12    1  0.1598876E-007  0.2256152E+04  0.7818608E-02  0.8495413E-01
         -1   -1    0    0    0  501 -0.00000000000E+00  0.00000000000E+00  0.59324041918E+03  0.59324041918E+03  0.00000000000E+00 0.  1.
          1   -1    0    0  501    0  0.00000000000E+00 -0.00000000000E+00 -0.21450927105E+04  0.21450927105E+04  0.00000000000E+00 0. -1.
         23    2    1    2    0    0 -0.58268392882E+02 -0.27621155238E+03  0.44365104581E+03  0.53445406114E+03  0.95534631131E+02 0.  0.
        254    2    1    2    0    0  0.58268392882E+02  0.27621155238E+03 -0.19955033371E+04  0.22038790685E+04  0.89183033865E+03 0.  0.
        -24    2    4    4    0    0  0.40315337672E+03  0.20303313874E+02 -0.51179136633E+03  0.65721798681E+03  0.84025054791E+02 0.  0.
         24    2    4    4    0    0 -0.34488498383E+03  0.25590823851E+03 -0.14837119708E+04  0.15466610817E+04  0.79527421622E+02 0.  0.
         13    1    3    3    0    0 -0.20399286619E+02 -0.10100915222E+03  0.85298409439E+02  0.13377144083E+03  0.00000000000E+00 0. -1.
        -13    1    3    3    0    0 -0.37869106263E+02 -0.17520240016E+03  0.35835263637E+03  0.40068262032E+03  0.00000000000E+00 0.  1.
          4    1    6    6  502    0 -0.18346933684E+03  0.18460374710E+03 -0.89284054423E+03  0.93000203141E+03  0.00000000000E+00 0. -1.
          3    1    5    5  503    0  0.10817681145E+03 -0.24163615001E+01 -0.83485606772E+02  0.13666714264E+03  0.00000000000E+00 0. -1.
         -4    1    5    5    0  503  0.29497656527E+03  0.22719675374E+02 -0.42830575955E+03  0.52055084417E+03  0.00000000000E+00 0.  1.
         -3    1    6    6    0  502 -0.16141564699E+03  0.71304491409E+02 -0.59087142653E+03  0.61665905027E+03  0.00000000000E+00 0.  1.
<mgrwt>
<rscale>  0 0.22561522E+04</rscale>
<asrwt>0</asrwt>
<pdfrwt beam="1">  1        1 0.33001426E+00 0.22561522E+04</pdfrwt>
<pdfrwt beam="2">  1       -1 0.91267757E-01 0.22561522E+04</pdfrwt>
<totfact> 0.25226010E+00</totfact>
</mgrwt>
</event>
<event>
12    1  0.1598876E-007  0.2170335E+04  0.7818608E-02  0.8530878E-01
         -1   -1    0    0    0  501 -0.00000000000E+00  0.00000000000E+00  0.95769838636E+03  0.95769838636E+03  0.00000000000E+00 0.  1.
          1   -1    0    0  501    0  0.00000000000E+00 -0.00000000000E+00 -0.12296031268E+04  0.12296031268E+04  0.00000000000E+00 0. -1.
         23    2    1    2    0    0  0.61927165290E+03  0.28501383369E+03 -0.69882519708E+03  0.98049004219E+03  0.90960438003E+02 0.  0.
        254    2    1    2    0    0 -0.61927165290E+03 -0.28501383369E+03  0.42692045664E+03  0.12068114710E+04  0.89966804138E+03 0.  0.
        -24    2    4    4    0    0  0.22439441884E+03 -0.10738983436E+03  0.13833717085E+03  0.29435850519E+03  0.74995499908E+02 0.  0.
         24    2    4    4    0    0 -0.84366607175E+03 -0.17762399933E+03  0.28858328579E+03  0.91245296578E+03  0.77248793961E+02 0.  0.
         13    1    3    3    0    0  0.50628411825E+03  0.24460324641E+03 -0.61962172836E+03  0.83671108682E+03  0.00000000000E+00 0. -1.
        -13    1    3    3    0    0  0.11298753466E+03  0.40410587277E+02 -0.79203468716E+02  0.14377895537E+03  0.00000000000E+00 0.  1.
          2    1    6    6  502    0 -0.62964662905E+03 -0.16167584671E+03  0.19852558163E+03  0.67971049973E+03  0.00000000000E+00 0. -1.
          3    1    5    5  503    0  0.26744821024E+01  0.41110094604E+01  0.17788961316E+02  0.18452652872E+02  0.00000000000E+00 0. -1.
         -4    1    5    5    0  503  0.22171993674E+03 -0.11150084382E+03  0.12054820953E+03  0.27590585232E+03  0.00000000000E+00 0.  1.
         -1    1    6    6    0  502 -0.21401944270E+03 -0.15948152625E+02  0.90057704159E+02  0.23274246605E+03  0.00000000000E+00 0.  1.
<mgrwt>
<rscale>  0 0.21703354E+04</rscale>
<asrwt>0</asrwt>
<pdfrwt beam="1">  1        1 0.18916971E+00 0.21703354E+04</pdfrwt>
<pdfrwt beam="2">  1       -1 0.14733821E+00 0.21703354E+04</pdfrwt>
<totfact> 0.34027978E+00</totfact>
</mgrwt>
</event>
<event>
12    1  0.1598876E-007  0.2728236E+04  0.7818608E-02  0.8325901E-01
          2   -1    0    0  501    0  0.00000000000E+00  0.00000000000E+00  0.16924576189E+04  0.16924576189E+04  0.00000000000E+00 0. -1.
         -2   -1    0    0    0  501 -0.00000000000E+00 -0.00000000000E+00 -0.10994766481E+04  0.10994766481E+04  0.00000000000E+00 0.  1.
         23    2    1    2    0    0 -0.18399860716E+03 -0.10840624716E+04  0.78178782887E+03  0.13521842849E+04  0.90350434420E+02 0.  0.
        254    2    1    2    0    0  0.18399860716E+03  0.10840624716E+04 -0.18880685810E+03  0.14397499822E+04  0.91004673047E+03 0.  0.
        -24    2    4    4    0    0 -0.26953375469E+03  0.76450787822E+03 -0.30080609383E+03  0.86822534380E+03  0.78804826916E+02 0.  0.
         24    2    4    4    0    0  0.45353236186E+03  0.31955459342E+03  0.11199923572E+03  0.57152463837E+03  0.79308524378E+02 0.  0.
         13    1    3    3    0    0 -0.14430971048E+03 -0.94266250350E+03  0.70864342778E+03  0.11881133766E+04  0.00000000000E+00 0. -1.
        -13    1    3    3    0    0 -0.39688896680E+02 -0.14139996814E+03  0.73144401092E+02  0.16407090821E+03  0.00000000000E+00 0.  1.
          4    1    6    6  502    0  0.18354778028E+03  0.16701373232E+03  0.74894371223E+02  0.25921524120E+03  0.00000000000E+00 0. -1.
          3    1    5    5  503    0 -0.36025316042E+02  0.14246111414E+03 -0.84302759458E+02  0.16941058907E+03  0.00000000000E+00 0. -1.
         -4    1    5    5    0  503 -0.23350843865E+03  0.62204676409E+03 -0.21650333437E+03  0.69881475473E+03  0.00000000000E+00 0.  1.
         -3    1    6    6    0  502  0.26998458157E+03  0.15254086109E+03  0.37104864499E+02  0.31230939717E+03  0.00000000000E+00 0.  1.
<mgrwt>
<rscale>  0 0.27282358E+04</rscale>
<asrwt>0</asrwt>
<pdfrwt beam="1">  1        2 0.26037810E+00 0.27282358E+04</pdfrwt>
<pdfrwt beam="2">  1       -2 0.16915025E+00 0.27282358E+04</pdfrwt>
<totfact> 0.18735192E+00</totfact>
</mgrwt>
</event>
<event>
12    1  0.1598876E-007  0.1364865E+04  0.7818608E-02  0.8979651E-01
         -1   -1    0    0    0  501 -0.00000000000E+00  0.00000000000E+00  0.17018368477E+04  0.17018368477E+04  0.00000000000E+00 0.  1.
          1   -1    0    0  501    0  0.00000000000E+00 -0.00000000000E+00 -0.27365372295E+03  0.27365372295E+03  0.00000000000E+00 0. -1.
         23    2    1    2    0    0  0.24178148015E+03  0.30526357111E+02  0.81846393226E+03  0.85884761087E+03  0.91355720453E+02 0.  0.
        254    2    1    2    0    0 -0.24178148015E+03 -0.30526357111E+02  0.60971919245E+03  0.11166429597E+04  0.90318539807E+03 0.  0.
        -24    2    4    4    0    0 -0.29047945495E+03  0.37704779436E+03  0.17513464216E+03  0.51287880377E+03  0.76349011095E+02 0.  0.
         24    2    4    4    0    0  0.48697974793E+02 -0.40757415147E+03  0.43458455029E+03  0.60376415598E+03  0.84730413659E+02 0.  0.
         13    1    3    3    0    0  0.28565929537E+02  0.36630434198E+02  0.12683961647E+03  0.13507808611E+03  0.00000000000E+00 0. -1.
        -13    1    3    3    0    0  0.21321555062E+03 -0.61040770878E+01  0.69162431579E+03  0.72376952477E+03  0.00000000000E+00 0.  1.
          4    1    6    6  502    0 -0.48311740190E+01 -0.22175289860E+03  0.27311225899E+03  0.35183518058E+03  0.00000000000E+00 0. -1.
          1    1    5    5  503    0 -0.10858594048E+03  0.15393807508E+03  0.30879408206E+02  0.19089624219E+03  0.00000000000E+00 0. -1.
         -2    1    5    5    0  503 -0.18189351446E+03  0.22310971928E+03  0.14425523395E+03  0.32198256158E+03  0.00000000000E+00 0.  1.
         -3    1    6    6    0  502  0.53529148812E+02 -0.18582125286E+03  0.16147229130E+03  0.25192897540E+03  0.00000000000E+00 0.  1.
<mgrwt>
<rscale>  0 0.13648648E+04</rscale>
<asrwt>0</asrwt>
<pdfrwt beam="1">  1        1 0.42100574E-01 0.13648648E+04</pdfrwt>
<pdfrwt beam="2">  1       -1 0.26182105E+00 0.13648648E+04</pdfrwt>
<totfact> 0.56527382E+00</totfact>
</mgrwt>
</event>
<event>
12    1  0.1598876E-007  0.2278872E+04  0.7818608E-02  0.8486298E-01
          1   -1    0    0  501    0  0.00000000000E+00  0.00000000000E+00  0.11028351091E+04  0.11028351091E+04  0.00000000000E+00 0. -1.
         -1   -1    0    0    0  501 -0.00000000000E+00 -0.00000000000E+00 -0.11772516847E+04  0.11772516847E+04  0.00000000000E+00 0.  1.
         23    2    1    2    0    0 -0.73917773153E+03  0.56289769797E+03 -0.24768642399E+03  0.96581804335E+03  0.90655342127E+02 0.  0.
        254    2    1    2    0    0  0.73917773153E+03 -0.56289769797E+03  0.17326984837E+03  0.13142687504E+04  0.91325920246E+03 0.  0.
        -24    2    4    4    0    0  0.85185413868E+03 -0.20299417352E+03  0.26416835883E+03  0.91838785729E+03  0.82396762913E+02 0.  0.
         24    2    4    4    0    0 -0.11267640715E+03 -0.35990352445E+03 -0.90898510455E+02  0.39588089316E+03  0.78946961480E+02 0.  0.
         13    1    3    3    0    0 -0.11247248027E+02  0.12665818787E+02 -0.18302842432E+02  0.24938275698E+02  0.00000000000E+00 0. -1.
        -13    1    3    3    0    0 -0.72793048350E+03  0.55023187918E+03 -0.22938358156E+03  0.94087976765E+03  0.00000000000E+00 0.  1.
          4    1    6    6  502    0 -0.31677472226E+02 -0.61284022096E+02 -0.46754888282E+02  0.83337945674E+02  0.00000000000E+00 0. -1.
          3    1    5    5  503    0  0.25595056839E+03 -0.40492541022E+02  0.45117789372E+02  0.26303223045E+03  0.00000000000E+00 0. -1.
         -2    1    5    5    0  503  0.59590357029E+03 -0.16250163250E+03  0.21905056946E+03  0.65535562684E+03  0.00000000000E+00 0.  1.
         -3    1    6    6    0  502 -0.80998934924E+02 -0.29861950236E+03 -0.44143622173E+02  0.31254294749E+03  0.00000000000E+00 0.  1.
<mgrwt>
<rscale>  0 0.22788721E+04</rscale>
<asrwt>0</asrwt>
<pdfrwt beam="1">  1        1 0.16966694E+00 0.22788721E+04</pdfrwt>
<pdfrwt beam="2">  1       -1 0.18111564E+00 0.22788721E+04</pdfrwt>
<totfact> 0.23342154E+00</totfact>
</mgrwt>
</event>
<event>
12    1  0.1598876E-007  0.1331009E+04  0.7818608E-02  0.9005330E-01
          2   -1    0    0  501    0  0.00000000000E+00  0.00000000000E+00  0.84761264987E+03  0.84761264987E+03  0.00000000000E+00 0. -1.
         -2   -1    0    0    0  501 -0.00000000000E+00 -0.00000000000E+00 -0.52252223761E+03  0.52252223761E+03  0.00000000000E+00 0.  1.
         23    2    1    2    0    0 -0.64802056259E+02  0.54036541148E+01 -0.26547273968E+03  0.28826796158E+03  0.91619518597E+02 0.  0.
        254    2    1    2    0    0  0.64802056259E+02 -0.54036541148E+01  0.59056315194E+03  0.10818669259E+04  0.90412538010E+03 0.  0.
        -24    2    4    4    0    0 -0.13364625054E+03 -0.25871306887E+03 -0.97558018808E+02  0.31754214152E+03  0.80756871651E+02 0.  0.
         24    2    4    4    0    0  0.19844830680E+03  0.25330941476E+03  0.68812117075E+03  0.76432478437E+03  0.84464432172E+02 0.  0.
         11    1    3    3    0    0 -0.85716516030E+02  0.19015171364E+01 -0.24147074397E+03  0.25624023314E+03  0.00000000000E+00 0.  1.
        -11    1    3    3    0    0  0.20914459771E+02  0.35021369784E+01 -0.24001995716E+02  0.32027728444E+02  0.00000000000E+00 0. -1.
          4    1    6    6  502    0  0.15212585707E+03  0.16672830140E+03  0.39181692611E+03  0.45217375694E+03  0.00000000000E+00 0. -1.
          1    1    5    5  503    0 -0.69273251674E+02 -0.19875668792E+03 -0.91050823808E+02  0.22933219771E+03  0.00000000000E+00 0. -1.
         -2    1    5    5    0  503 -0.64372998869E+02 -0.59956380947E+02 -0.65071949996E+01  0.88209943807E+02  0.00000000000E+00 0.  1.
         -3    1    6    6    0  502  0.46322449730E+02  0.86581113351E+02  0.29630424464E+03  0.31215102744E+03  0.00000000000E+00 0.  1.
<mgrwt>
<rscale>  0 0.13310093E+04</rscale>
<asrwt>0</asrwt>
<pdfrwt beam="1">  1        2 0.13040195E+00 0.13310093E+04</pdfrwt>
<pdfrwt beam="2">  1       -2 0.80388037E-01 0.13310093E+04</pdfrwt>
<totfact> 0.42624963E+01</totfact>
</mgrwt>
</event>
<event>
12    1  0.1598876E-007  0.9880014E+03  0.7818608E-02  0.9321803E-01
          1   -1    0    0  501    0  0.00000000000E+00  0.00000000000E+00  0.47977395949E+03  0.47977395949E+03  0.00000000000E+00 0. -1.
         -1   -1    0    0    0  501 -0.00000000000E+00 -0.00000000000E+00 -0.50864926431E+03  0.50864926431E+03  0.00000000000E+00 0.  1.
         23    2    1    2    0    0 -0.15034070410E+01 -0.98159980937E+02 -0.92223570267E+01  0.12410251664E+03  0.75357419523E+02 0.  0.
        254    2    1    2    0    0  0.15034070410E+01  0.98159980937E+02 -0.19652947792E+02  0.86432070717E+03  0.85850241956E+03 0.  0.
        -24    2    4    4    0    0 -0.26663614702E+02 -0.28686008409E+03 -0.26534592061E+03  0.39966417285E+03  0.79519414522E+02 0.  0.
         24    2    4    4    0    0  0.28167021743E+02  0.38502006502E+03  0.24569297282E+03  0.46465653431E+03  0.80664901913E+02 0.  0.
         13    1    3    3    0    0  0.17648441768E+02 -0.16183564537E+02 -0.29018435384E+02  0.37622398250E+02  0.00000000000E+00 0.  1.
        -13    1    3    3    0    0 -0.19151848809E+02 -0.81976416400E+02  0.19796078357E+02  0.86480118390E+02  0.00000000000E+00 0. -1.
          2    1    6    6  502    0  0.16472792434E+02  0.91594828040E+02  0.22335374422E+02  0.95707023593E+02  0.00000000000E+00 0. -1.
          1    1    5    5  503    0  0.25222611242E+02 -0.46516309144E+02 -0.43630706665E+02  0.68582692411E+02  0.00000000000E+00 0. -1.
         -2    1    5    5    0  503 -0.51886225944E+02 -0.24034377494E+03 -0.22171521395E+03  0.33108148044E+03  0.00000000000E+00 0.  1.
         -1    1    6    6    0  502  0.11694229309E+02  0.29342523698E+03  0.22335759840E+03  0.36894951072E+03  0.00000000000E+00 0.  1.
<mgrwt>
<rscale>  0 0.98800136E+03</rscale>
<asrwt>0</asrwt>
<pdfrwt beam="1">  1        1 0.73811378E-01 0.98800136E+03</pdfrwt>
<pdfrwt beam="2">  1       -1 0.78253733E-01 0.98800136E+03</pdfrwt>
<totfact> 0.77002021E+01</totfact>
</mgrwt>
</event>
<event>
12    1  0.1598876E-007  0.2658005E+04  0.7818608E-02  0.8348761E-01
          2   -1    0    0  501    0  0.00000000000E+00  0.00000000000E+00  0.13970356418E+04  0.13970356418E+04  0.00000000000E+00 0. -1.
         -2   -1    0    0    0  501 -0.00000000000E+00 -0.00000000000E+00 -0.12642821638E+04  0.12642821638E+04  0.00000000000E+00 0.  1.
         23    2    1    2    0    0 -0.28545646883E+03 -0.11495761368E+04 -0.10123234488E+03  0.11925964444E+04  0.95013691817E+02 0.  0.
        254    2    1    2    0    0  0.28545646883E+03  0.11495761368E+04  0.23398582289E+03  0.14687213611E+04  0.83629084731E+03 0.  0.
        -24    2    4    4    0    0 -0.10824591213E+03  0.85920560284E+03  0.38418408345E+03  0.95067511714E+03  0.78957728795E+02 0.  0.
         24    2    4    4    0    0  0.39370238096E+03  0.29037053400E+03 -0.15019826056E+03  0.51804624397E+03  0.80596412035E+02 0.  0.
         11    1    3    3    0    0 -0.13444287898E+03 -0.72818070490E+03 -0.72780216288E+02  0.74405576846E+03  0.00000000000E+00 0.  1.
        -11    1    3    3    0    0 -0.15101358985E+03 -0.42139543194E+03 -0.28452128596E+02  0.44854067597E+03  0.00000000000E+00 0. -1.
          4    1    6    6  502    0  0.54299492496E+02  0.77902821241E+02 -0.20528088518E+02  0.97152904542E+02  0.00000000000E+00 0. -1.
          3    1    5    5  503    0 -0.10882449498E+02  0.16329223646E+03  0.10564985348E+03  0.19479392633E+03  0.00000000000E+00 0. -1.
         -4    1    5    5    0  503 -0.97363462628E+02  0.69591336637E+03  0.27853422998E+03  0.75588119081E+03  0.00000000000E+00 0.  1.
         -3    1    6    6    0  502  0.33940288846E+03  0.21246771276E+03 -0.12967017204E+03  0.42089333943E+03  0.00000000000E+00 0.  1.
<mgrwt>
<rscale>  0 0.26580047E+04</rscale>
<asrwt>0</asrwt>
<pdfrwt beam="1">  1        2 0.21492856E+00 0.26580047E+04</pdfrwt>
<pdfrwt beam="2">  1       -2 0.19450495E+00 0.26580047E+04</pdfrwt>
<totfact> 0.18495891E+00</totfact>
</mgrwt>
</event>
<event>
12    1  0.1598876E-007  0.2253394E+04  0.7818608E-02  0.8496527E-01
         -1   -1    0    0    0  501 -0.00000000000E+00  0.00000000000E+00  0.15226248911E+04  0.15226248911E+04  0.00000000000E+00 0.  1.
          1   -1    0    0  501    0  0.00000000000E+00 -0.00000000000E+00 -0.83372250076E+03  0.83372250076E+03  0.00000000000E+00 0. -1.
         23    2    1    2    0    0  0.85232251965E+03  0.17022338284E+03 -0.95027948269E+02  0.87908199667E+03  0.91242360481E+02 0.  0.
        254    2    1    2    0    0 -0.85232251965E+03 -0.17022338284E+03  0.78393033865E+03  0.14772653952E+04  0.90129717326E+03 0.  0.
        -24    2    4    4    0    0 -0.14609848658E+02  0.59308820651E+02 -0.16174390615E+03  0.19051334444E+03  0.80020368325E+02 0.  0.
         24    2    4    4    0    0 -0.83771267099E+03 -0.22953220349E+03  0.94567424480E+03  0.12867520508E+04  0.83567406109E+02 0.  0.
         13    1    3    3    0    0  0.78645591573E+03  0.15780409896E+03 -0.62455239706E+02  0.80455931913E+03  0.00000000000E+00 0. -1.
        -13    1    3    3    0    0  0.65866603917E+02  0.12419283880E+02 -0.32572708563E+02  0.74522677533E+02  0.00000000000E+00 0.  1.
          2    1    6    6  502    0 -0.77161270124E+03 -0.20172392911E+03  0.89587093270E+03  0.11994429675E+04  0.00000000000E+00 0. -1.
          1    1    5    5  503    0  0.12431900541E+02  0.14823396169E+02 -0.12573255374E+03  0.12721226472E+03  0.00000000000E+00 0. -1.
         -2    1    5    5    0  503 -0.27041749199E+02  0.44485424482E+02 -0.36011352413E+02  0.63301079720E+02  0.00000000000E+00 0.  1.
         -1    1    6    6    0  502 -0.66099969748E+02 -0.27808274380E+02  0.49803312107E+02  0.87309083271E+02  0.00000000000E+00 0.  1.
<mgrwt>
<rscale>  0 0.22533944E+04</rscale>
<asrwt>0</asrwt>
<pdfrwt beam="1">  1        1 0.12826500E+00 0.22533944E+04</pdfrwt>
<pdfrwt beam="2">  1       -1 0.23424998E+00 0.22533944E+04</pdfrwt>
<totfact> 0.16598517E+00</totfact>
</mgrwt>
</event>
<event>
12    1  0.1598876E-007  0.1672741E+04  0.7818608E-02  0.8777066E-01
         -1   -1    0    0    0  501 -0.00000000000E+00  0.00000000000E+00  0.21443465595E+04  0.21443465595E+04  0.00000000000E+00 0.  1.
          1   -1    0    0  501    0  0.00000000000E+00 -0.00000000000E+00 -0.32621400141E+03  0.32621400141E+03  0.00000000000E+00 0. -1.
         23    2    1    2    0    0 -0.29345527736E+02  0.39106210239E+03  0.12728938417E+04  0.13352456760E+04  0.93976354447E+02 0.  0.
        254    2    1    2    0    0  0.29345527736E+02 -0.39106210239E+03  0.54523871636E+03  0.11353148848E+04  0.91534906020E+03 0.  0.
        -24    2    4    4    0    0 -0.24071620580E+03 -0.54018130558E+03  0.55665364733E+03  0.81632897553E+03  0.82398899064E+02 0.  0.
         24    2    4    4    0    0  0.27006173353E+03  0.14911920319E+03 -0.11414930971E+02  0.31898590931E+03  0.80323303040E+02 0.  0.
         11    1    3    3    0    0 -0.13133562511E+02  0.11486613768E+03  0.24733534676E+03  0.27302288147E+03  0.00000000000E+00 0. -1.
        -11    1    3    3    0    0 -0.16211965225E+02  0.27619596471E+03  0.10255584949E+04  0.10622227946E+04  0.00000000000E+00 0.  1.
          2    1    6    6  502    0  0.11513712618E+03  0.33958785491E+02  0.24812517008E+02  0.12257821151E+03  0.00000000000E+00 0. -1.
          1    1    5    5  503    0 -0.22022448335E+03 -0.41152607912E+03  0.42971604814E+03  0.63443551200E+03  0.00000000000E+00 0. -1.
         -2    1    5    5    0  503 -0.20491722452E+02 -0.12865522647E+03  0.12693759920E+03  0.18189346353E+03  0.00000000000E+00 0.  1.
         -3    1    6    6    0  502  0.15492460736E+03  0.11516041770E+03 -0.36227447979E+02  0.19640769781E+03  0.00000000000E+00 0.  1.
<mgrwt>
<rscale>  0 0.16727413E+04</rscale>
<asrwt>0</asrwt>
<pdfrwt beam="1">  1        1 0.50186771E-01 0.16727413E+04</pdfrwt>
<pdfrwt beam="2">  1       -1 0.32989946E+00 0.16727413E+04</pdfrwt>
<totfact> 0.15841336E+00</totfact>
</mgrwt>
</event>
<event>
12    1  0.1598876E-007  0.1942606E+04  0.7818608E-02  0.8633935E-01
          1   -1    0    0  501    0  0.00000000000E+00  0.00000000000E+00  0.80705005265E+03  0.80705005265E+03  0.00000000000E+00 0.  1.
         -1   -1    0    0    0  501 -0.00000000000E+00 -0.00000000000E+00 -0.11689847364E+04  0.11689847364E+04  0.00000000000E+00 0. -1.
         23    2    1    2    0    0 -0.35976949712E+03 -0.19208951400E+03  0.50849901054E+03  0.65813251363E+03  0.90745188957E+02 0.  0.
        254    2    1    2    0    0  0.35976949712E+03  0.19208951400E+03 -0.87043369432E+03  0.13179022754E+04  0.90159809171E+03 0.  0.
        -24    2    4    4    0    0  0.61360410521E+03  0.31592382755E+03 -0.58028589981E+03  0.90516111195E+03  0.79164703725E+02 0.  0.
         24    2    4    4    0    0 -0.25383460809E+03 -0.12383431355E+03 -0.29014779451E+03  0.41274116350E+03  0.80016122862E+02 0.  0.
         13    1    3    3    0    0 -0.58639671916E+02 -0.22448506391E+02  0.13708595001E+03  0.15078164428E+03  0.00000000000E+00 0. -1.
        -13    1    3    3    0    0 -0.30112982521E+03 -0.16964100761E+03  0.37141306054E+03  0.50735086935E+03  0.00000000000E+00 0.  1.
          2    1    6    6  502    0  0.27153879893E-02  0.17293253071E+01 -0.24152453190E+02  0.24214284389E+02  0.00000000000E+00 0. -1.
          3    1    5    5  503    0  0.12587822209E+03  0.50753918845E+02 -0.78200404258E+02  0.15664159824E+03  0.00000000000E+00 0. -1.
         -4    1    5    5    0  503  0.48772588312E+03  0.26516990870E+03 -0.50208549555E+03  0.74851951370E+03  0.00000000000E+00 0.  1.
         -1    1    6    6    0  502 -0.25383732347E+03 -0.12556363885E+03 -0.26599534132E+03  0.38852687911E+03  0.00000000000E+00 0.  1.
<mgrwt>
<rscale>  0 0.19426057E+04</rscale>
<asrwt>0</asrwt>
<pdfrwt beam="1">  1        1 0.12416155E+00 0.19426057E+04</pdfrwt>
<pdfrwt beam="2">  1       -1 0.17984380E+00 0.19426057E+04</pdfrwt>
<totfact> 0.42398323E+00</totfact>
</mgrwt>
</event>
<event>
12    1  0.1598876E-007  0.1801290E+04  0.7818608E-02  0.8705614E-01
          1   -1    0    0  501    0  0.00000000000E+00  0.00000000000E+00  0.11743428951E+04  0.11743428951E+04  0.00000000000E+00 0. -1.
         -1   -1    0    0    0  501 -0.00000000000E+00 -0.00000000000E+00 -0.69073623312E+03  0.69073623312E+03  0.00000000000E+00 0.  1.
         23    2    1    2    0    0 -0.37189923970E+03  0.11371872738E+03 -0.38383201546E+03  0.55397404703E+03  0.91209841802E+02 0.  0.
        254    2    1    2    0    0  0.37189923970E+03 -0.11371872738E+03  0.86743867739E+03  0.13111050812E+04  0.90294278964E+03 0.  0.
        -24    2    4    4    0    0  0.30935157544E+03 -0.10315420787E+03 -0.90466370296E+02  0.34776760551E+03  0.80118384050E+02 0.  0.
         24    2    4    4    0    0  0.62547664259E+02 -0.10564519509E+02  0.95790504769E+03  0.96333747564E+03  0.80082408878E+02 0.  0.
         13    1    3    3    0    0 -0.21769076072E+03  0.36928419056E+02 -0.26379857387E+03  0.34400968448E+03  0.00000000000E+00 0.  1.
        -13    1    3    3    0    0 -0.15420847898E+03  0.76790308327E+02 -0.12003344159E+03  0.20996436255E+03  0.00000000000E+00 0. -1.
          2    1    6    6  502    0  0.10088613804E+02  0.32549801379E+02  0.34772996970E+03  0.34939576633E+03  0.00000000000E+00 0. -1.
          1    1    5    5  503    0  0.31927998845E+02 -0.32937822804E+02  0.48770601724E+01  0.46131149967E+02  0.00000000000E+00 0. -1.
         -2    1    5    5    0  503  0.27742357659E+03 -0.70216385069E+02 -0.95343430469E+02  0.30163645555E+03  0.00000000000E+00 0.  1.
         -1    1    6    6    0  502  0.52459050455E+02 -0.43114320887E+02  0.61017507799E+03  0.61394170932E+03  0.00000000000E+00 0.  1.
<mgrwt>
<rscale>  0 0.18012897E+04</rscale>
<asrwt>0</asrwt>
<pdfrwt beam="1">  1        1 0.18066814E+00 0.18012897E+04</pdfrwt>
<pdfrwt beam="2">  1       -1 0.10626711E+00 0.18012897E+04</pdfrwt>
<totfact> 0.87174207E+00</totfact>
</mgrwt>
</event>
<event>
12    1  0.1598876E-007  0.1174709E+04  0.7818608E-02  0.9135286E-01
          2   -1    0    0  501    0  0.00000000000E+00  0.00000000000E+00  0.64727160950E+03  0.64727160950E+03  0.00000000000E+00 0. -1.
         -2   -1    0    0    0  501 -0.00000000000E+00 -0.00000000000E+00 -0.53298365987E+03  0.53298365987E+03  0.00000000000E+00 0.  1.
         23    2    1    2    0    0  0.20398269993E+02  0.66656678100E+02  0.25152960594E+03  0.27591871039E+03  0.89469491582E+02 0.  0.
        254    2    1    2    0    0 -0.20398269993E+02 -0.66656678100E+02 -0.13724165631E+03  0.90433655898E+03  0.89113979685E+03 0.  0.
        -24    2    4    4    0    0  0.91354263775E+02  0.23932154032E+03  0.26752616820E+03  0.37880376024E+03  0.79382850349E+02 0.  0.
         24    2    4    4    0    0 -0.11175253377E+03 -0.30597821842E+03 -0.40476782452E+03  0.52553279874E+03  0.78971082313E+02 0.  0.
         13    1    3    3    0    0 -0.35502851051E+02  0.27833302577E+02  0.10928219819E+03  0.11822750951E+03  0.00000000000E+00 0.  1.
        -13    1    3    3    0    0  0.55901121044E+02  0.38823375523E+02  0.14224740775E+03  0.15769120088E+03  0.00000000000E+00 0. -1.
          4    1    6    6  502    0 -0.54624861352E+02 -0.20900098052E+03 -0.31301280278E+03  0.38031868221E+03  0.00000000000E+00 0. -1.
          3    1    5    5  503    0  0.93676826116E+02  0.16248478004E+03  0.15942110659E+03  0.24615389642E+03  0.00000000000E+00 0. -1.
         -4    1    5    5    0  503 -0.23225623410E+01  0.76836760276E+02  0.10810506161E+03  0.13264986382E+03  0.00000000000E+00 0.  1.
         -3    1    6    6    0  502 -0.57127672416E+02 -0.96977237898E+02 -0.91755021739E+02  0.14521411653E+03  0.00000000000E+00 0.  1.
<mgrwt>
<rscale>  0 0.11747088E+04</rscale>
<asrwt>0</asrwt>
<pdfrwt beam="1">  1        2 0.99580247E-01 0.11747088E+04</pdfrwt>
<pdfrwt beam="2">  1       -2 0.81997486E-01 0.11747088E+04</pdfrwt>
<totfact> 0.58435347E+01</totfact>
</mgrwt>
</event>
<event>
12    1  0.1598876E-007  0.1290245E+04  0.7818608E-02  0.9037337E-01
          2   -1    0    0  501    0  0.00000000000E+00  0.00000000000E+00  0.15154462025E+04  0.15154462025E+04  0.00000000000E+00 0. -1.
         -2   -1    0    0    0  501 -0.00000000000E+00 -0.00000000000E+00 -0.27462751367E+03  0.27462751367E+03  0.00000000000E+00 0.  1.
         23    2    1    2    0    0  0.12113964125E+03  0.26260489037E+03  0.51429402111E+03  0.59733316934E+03  0.93125903563E+02 0.  0.
        254    2    1    2    0    0 -0.12113964125E+03 -0.26260489037E+03  0.72652466771E+03  0.11927405468E+04  0.90064187007E+03 0.  0.
        -24    2    4    4    0    0  0.19942721026E+03 -0.26403876697E+03  0.78606236648E+03  0.85654427465E+03  0.79286618002E+02 0.  0.
         24    2    4    4    0    0 -0.32056685151E+03  0.14338766053E+01 -0.59537698767E+02  0.33619627217E+03  0.81963611159E+02 0.  0.
         11    1    3    3    0    0  0.65611834285E+02  0.99235953553E+02  0.13079729042E+03  0.17680672628E+03  0.00000000000E+00 0.  1.
        -11    1    3    3    0    0  0.55527806964E+02  0.16336893681E+03  0.38349673069E+03  0.42052644306E+03  0.00000000000E+00 0. -1.
          4    1    6    6  502    0 -0.12132639448E+03  0.33969179322E+02 -0.45026188512E+02  0.13379595208E+03  0.00000000000E+00 0. -1.
          1    1    5    5  503    0  0.78037153779E+02 -0.16460353300E+03  0.45754103655E+03  0.49247123832E+03  0.00000000000E+00 0. -1.
         -2    1    5    5    0  503  0.12139005648E+03 -0.99435233975E+02  0.32852132993E+03  0.36407303634E+03  0.00000000000E+00 0.  1.
         -3    1    6    6    0  502 -0.19924045703E+03 -0.32535302717E+02 -0.14511510256E+02  0.20240032008E+03  0.00000000000E+00 0.  1.
<mgrwt>
<rscale>  0 0.12902453E+04</rscale>
<asrwt>0</asrwt>
<pdfrwt beam="1">  1        2 0.23314556E+00 0.12902453E+04</pdfrwt>
<pdfrwt beam="2">  1       -2 0.42250388E-01 0.12902453E+04</pdfrwt>
<totfact> 0.64768128E+01</totfact>
</mgrwt>
</event>
<event>
12    1  0.1598876E-007  0.1265914E+04  0.7818608E-02  0.9057041E-01
          2   -1    0    0  501    0  0.00000000000E+00  0.00000000000E+00  0.18932897795E+04  0.18932897795E+04  0.00000000000E+00 0. -1.
         -2   -1    0    0    0  501 -0.00000000000E+00 -0.00000000000E+00 -0.21160779163E+03  0.21160779163E+03  0.00000000000E+00 0.  1.
         23    2    1    2    0    0 -0.30116516699E+03 -0.32868115522E+02  0.52421846101E+03  0.61246281054E+03  0.92330539907E+02 0.  0.
        254    2    1    2    0    0  0.30116516699E+03  0.32868115522E+02  0.11574635269E+04  0.14924347606E+04  0.89210925779E+03 0.  0.
        -24    2    4    4    0    0  0.41910460864E+03  0.26105553144E+03  0.11125392033E+04  0.12197856151E+04  0.79591484131E+02 0.  0.
         24    2    4    4    0    0 -0.11793944165E+03 -0.22818741592E+03  0.44924323600E+02  0.27264914558E+03  0.79625078034E+02 0.  0.
         13    1    3    3    0    0 -0.21537531156E+03 -0.21064287258E+02  0.28359034291E+03  0.35672638201E+03  0.00000000000E+00 0.  1.
        -13    1    3    3    0    0 -0.85789855427E+02 -0.11803828264E+02  0.24062811810E+03  0.25573642853E+03  0.00000000000E+00 0. -1.
          2    1    6    6  502    0 -0.54316207333E+02 -0.86871262047E+02  0.56926620246E+02  0.11720711003E+03  0.00000000000E+00 0. -1.
          1    1    5    5  503    0  0.92358406328E+02  0.67031945062E+02  0.18429184015E+03  0.21676447869E+03  0.00000000000E+00 0. -1.
         -2    1    5    5    0  503  0.32674620232E+03  0.19402358638E+03  0.92824736315E+03  0.10030211364E+04  0.00000000000E+00 0.  1.
         -1    1    6    6    0  502 -0.63623234319E+02 -0.14131615387E+03 -0.12002296647E+02  0.15544203555E+03  0.00000000000E+00 0.  1.
<mgrwt>
<rscale>  0 0.12659145E+04</rscale>
<asrwt>0</asrwt>
<pdfrwt beam="1">  1        2 0.29127534E+00 0.12659145E+04</pdfrwt>
<pdfrwt beam="2">  1       -2 0.32555046E-01 0.12659145E+04</pdfrwt>
<totfact> 0.66197845E+01</totfact>
</mgrwt>
</event>
<event>
12    1  0.1598876E-007  0.1586209E+04  0.7818608E-02  0.8829065E-01
          2   -1    0    0  501    0  0.00000000000E+00  0.00000000000E+00  0.12011608809E+04  0.12011608809E+04  0.00000000000E+00 0. -1.
         -2   -1    0    0    0  501 -0.00000000000E+00 -0.00000000000E+00 -0.52367237402E+03  0.52367237402E+03  0.00000000000E+00 0.  1.
         23    2    1    2    0    0 -0.50518261832E+02 -0.29244274159E+03 -0.24794514006E+03  0.39721200795E+03  0.90695837247E+02 0.  0.
        254    2    1    2    0    0  0.50518261832E+02  0.29244274159E+03  0.92543364690E+03  0.13276212469E+04  0.90447547704E+03 0.  0.
        -24    2    4    4    0    0  0.37060319004E+03 -0.99825488694E+02  0.20370779104E+03  0.44237882355E+03  0.83007871537E+02 0.  0.
         24    2    4    4    0    0 -0.32008492820E+03  0.39226823028E+03  0.72172585586E+03  0.88524242337E+03  0.80232233939E+02 0.  0.
         13    1    3    3    0    0 -0.11667669704E+02 -0.18870078637E+03 -0.20372228190E+03  0.27793324637E+03  0.00000000000E+00 0.  1.
        -13    1    3    3    0    0 -0.38850592129E+02 -0.10374195522E+03 -0.44222858161E+02  0.11927876158E+03  0.00000000000E+00 0. -1.
          2    1    6    6  502    0 -0.23463579713E+03  0.27212931814E+03  0.56910396353E+03  0.67304356797E+03  0.00000000000E+00 0. -1.
          1    1    5    5  503    0  0.15619964206E+03 -0.75925304725E+02  0.62674429904E+02  0.18463765661E+03  0.00000000000E+00 0. -1.
         -2    1    5    5    0  503  0.21440354798E+03 -0.23900183969E+02  0.14103336114E+03  0.25774116694E+03  0.00000000000E+00 0.  1.
         -1    1    6    6    0  502 -0.85449131076E+02  0.12013891215E+03  0.15262189233E+03  0.21219885540E+03  0.00000000000E+00 0.  1.
<mgrwt>
<rscale>  0 0.15862090E+04</rscale>
<asrwt>0</asrwt>
<pdfrwt beam="1">  1        2 0.18479398E+00 0.15862090E+04</pdfrwt>
<pdfrwt beam="2">  1       -2 0.80564981E-01 0.15862090E+04</pdfrwt>
<totfact> 0.24701452E+01</totfact>
</mgrwt>
</event>
<event>
12    1  0.1598876E-007  0.2459895E+04  0.7818608E-02  0.8417414E-01
          2   -1    0    0  501    0  0.00000000000E+00  0.00000000000E+00  0.18747774196E+04  0.18747774196E+04  0.00000000000E+00 0. -1.
         -2   -1    0    0    0  501 -0.00000000000E+00 -0.00000000000E+00 -0.80690687078E+03  0.80690687078E+03  0.00000000000E+00 0.  1.
         23    2    1    2    0    0 -0.96532676444E+03 -0.38757746145E+03  0.24433525352E+03  0.10725843160E+04  0.93087851085E+02 0.  0.
        254    2    1    2    0    0  0.96532676444E+03  0.38757746145E+03  0.82353529528E+03  0.16090999744E+04  0.91045059955E+03 0.  0.
        -24    2    4    4    0    0  0.31823754026E+03  0.49624209272E+03  0.58245905750E+02  0.59784460665E+03  0.80586857081E+02 0.  0.
         24    2    4    4    0    0  0.64708922417E+03 -0.10866463127E+03  0.76528938953E+03  0.10112553677E+04  0.80231558129E+02 0.  0.
         11    1    3    3    0    0 -0.61554601385E+03 -0.22930477474E+03  0.11109410182E+03  0.66619777419E+03  0.00000000000E+00 0. -1.
        -11    1    3    3    0    0 -0.34978075059E+03 -0.15827268672E+03  0.13324115170E+03  0.40638654179E+03  0.00000000000E+00 0.  1.
          2    1    6    6  502    0  0.14042375462E+03  0.91899342941E+01  0.17093948440E+03  0.22141272114E+03  0.00000000000E+00 0. -1.
          1    1    5    5  503    0  0.12199123095E+02  0.46433025969E+01 -0.74905233959E+01  0.15049478531E+02  0.00000000000E+00 0. -1.
         -2    1    5    5    0  503  0.30603841717E+03  0.49159879013E+03  0.65736429146E+02  0.58279512812E+03  0.00000000000E+00 0.  1.
         -1    1    6    6    0  502  0.50666546955E+03 -0.11785456556E+03  0.59434990513E+03  0.78984264660E+03  0.00000000000E+00 0.  1.
<mgrwt>
<rscale>  0 0.24598949E+04</rscale>
<asrwt>0</asrwt>
<pdfrwt beam="1">  1        2 0.28842729E+00 0.24598949E+04</pdfrwt>
<pdfrwt beam="2">  1       -2 0.12413952E+00 0.24598949E+04</pdfrwt>
<totfact> 0.34238056E+00</totfact>
</mgrwt>
</event>
<event>
12    1  0.1598876E-007  0.1402264E+04  0.7818608E-02  0.8952181E-01
         -1   -1    0    0    0  501 -0.00000000000E+00  0.00000000000E+00  0.37299178557E+03  0.37299178557E+03  0.00000000000E+00 0.  1.
          1   -1    0    0  501    0  0.00000000000E+00 -0.00000000000E+00 -0.13179539760E+04  0.13179539760E+04  0.00000000000E+00 0. -1.
         23    2    1    2    0    0 -0.52163003845E+02  0.10926199797E+03 -0.74900655190E+03  0.76441378445E+03  0.93050824294E+02 0.  0.
        254    2    1    2    0    0  0.52163003845E+02 -0.10926199797E+03 -0.19595563851E+03  0.92653197710E+03  0.89744288351E+03 0.  0.
        -24    2    4    4    0    0  0.28992285622E+03 -0.40128047586E+03 -0.16907107533E+02  0.50181530897E+03  0.80321050600E+02 0.  0.
         24    2    4    4    0    0 -0.23775985237E+03  0.29201847789E+03 -0.17904853097E+03  0.42471666813E+03  0.80754770251E+02 0.  0.
         13    1    3    3    0    0 -0.38773125605E+02  0.83242806752E+02 -0.28378352187E+03  0.29827136543E+03  0.00000000000E+00 0.  1.
        -13    1    3    3    0    0 -0.13389878240E+02  0.26019191220E+02 -0.46522303002E+03  0.46614241902E+03  0.00000000000E+00 0. -1.
          4    1    6    6  502    0 -0.20000921249E+03  0.19151408926E+03 -0.11613892217E+03  0.30028250150E+03  0.00000000000E+00 0. -1.
          1    1    5    5  503    0  0.22929006437E+03 -0.30309082513E+03  0.20222539967E+02  0.38058761543E+03  0.00000000000E+00 0. -1.
         -2    1    5    5    0  503  0.60632791846E+02 -0.98189650733E+02 -0.37129647499E+02  0.12122769354E+03  0.00000000000E+00 0.  1.
         -3    1    6    6    0  502 -0.37750639880E+02  0.10050438863E+03 -0.62909608805E+02  0.12443416663E+03  0.00000000000E+00 0.  1.
<mgrwt>
<rscale>  0 0.14022639E+04</rscale>
<asrwt>0</asrwt>
<pdfrwt beam="1">  1        1 0.20276215E+00 0.14022639E+04</pdfrwt>
<pdfrwt beam="2">  1       -1 0.57383351E-01 0.14022639E+04</pdfrwt>
<totfact> 0.26329806E+01</totfact>
</mgrwt>
</event>
<event>
12    1  0.1598876E-007  0.3071623E+04  0.7818608E-02  0.8223569E-01
          1   -1    0    0  501    0  0.00000000000E+00  0.00000000000E+00  0.26300602646E+04  0.26300602646E+04  0.00000000000E+00 0. -1.
         -1   -1    0    0    0  501 -0.00000000000E+00 -0.00000000000E+00 -0.89683026016E+03  0.89683026016E+03  0.00000000000E+00 0.  1.
         23    2    1    2    0    0 -0.82949291170E+02  0.40118280336E+03  0.23343299853E+04  0.23717325172E+04  0.90500972916E+02 0.  0.
        254    2    1    2    0    0  0.82949291170E+02 -0.40118280336E+03 -0.60109998092E+03  0.11551580075E+04  0.89735199822E+03 0.  0.
        -24    2    4    4    0    0  0.30532817016E+03 -0.37505536621E+03 -0.73386107207E+03  0.88250729580E+03  0.79845067602E+02 0.  0.
         24    2    4    4    0    0 -0.22237887899E+03 -0.26127437148E+02  0.13276109115E+03  0.27265071174E+03  0.81104219978E+02 0.  0.
         13    1    3    3    0    0 -0.44529246818E+02  0.53805075108E+02  0.36170545858E+03  0.36838658865E+03  0.00000000000E+00 0.  1.
        -13    1    3    3    0    0 -0.38420044352E+02  0.34737772825E+03  0.19726245267E+04  0.20033459285E+04  0.00000000000E+00 0. -1.
          2    1    6    6  502    0 -0.91682550133E+02 -0.18505851620E+02  0.10155673384E+03  0.13806493665E+03  0.00000000000E+00 0. -1.
          1    1    5    5  503    0  0.10379932607E+03 -0.13437642498E+03 -0.32872607472E+03  0.36998939969E+03  0.00000000000E+00 0. -1.
         -2    1    5    5    0  503  0.20152884409E+03 -0.24067894124E+03 -0.40513499735E+03  0.51251789611E+03  0.00000000000E+00 0.  1.
         -1    1    6    6    0  502 -0.13069632886E+03 -0.76215855284E+01  0.31204357305E+02  0.13458577509E+03  0.00000000000E+00 0.  1.
<mgrwt>
<rscale>  0 0.30716234E+04</rscale>
<asrwt>0</asrwt>
<pdfrwt beam="1">  1        1 0.40462465E+00 0.30716234E+04</pdfrwt>
<pdfrwt beam="2">  1       -1 0.13797389E+00 0.30716234E+04</pdfrwt>
<totfact> 0.40465288E-01</totfact>
</mgrwt>
</event>
<event>
12    1  0.1598876E-007  0.1309757E+04  0.7818608E-02  0.9021863E-01
          2   -1    0    0  501    0  0.00000000000E+00  0.00000000000E+00  0.30834052619E+04  0.30834052619E+04  0.00000000000E+00 0. -1.
         -2   -1    0    0    0  501 -0.00000000000E+00 -0.00000000000E+00 -0.13908844732E+03  0.13908844732E+03  0.00000000000E+00 0.  1.
         23    2    1    2    0    0 -0.47597405797E+02 -0.27105971904E+03  0.11624670305E+04  0.11983879486E+04  0.95211312343E+02 0.  0.
        254    2    1    2    0    0  0.47597405797E+02  0.27105971904E+03  0.17818497841E+04  0.20241057607E+04  0.91993292848E+03 0.  0.
        -24    2    4    4    0    0  0.10829578564E+03 -0.11382021592E+03 -0.21176866035E+02  0.17777223849E+03  0.80445574064E+02 0.  0.
         24    2    4    4    0    0 -0.60698379839E+02  0.38487993496E+03  0.18030266501E+04  0.18463335222E+04  0.78901941152E+02 0.  0.
         11    1    3    3    0    0 -0.15276783240E+02 -0.98738964690E+00  0.12194358599E+03  0.12290074535E+03  0.00000000000E+00 0.  1.
        -11    1    3    3    0    0 -0.32320622557E+02 -0.27007232939E+03  0.10405234445E+04  0.10754872032E+04  0.00000000000E+00 0. -1.
          2    1    6    6  502    0 -0.50244571779E+02  0.11828905272E+03  0.68128648114E+03  0.69330230518E+03  0.00000000000E+00 0. -1.
          3    1    5    5  503    0  0.87110596651E+02 -0.34189612122E+02 -0.44134774918E+01  0.93683853515E+02  0.00000000000E+00 0. -1.
         -4    1    5    5    0  503  0.21185188986E+02 -0.79630603793E+02 -0.16763388543E+02  0.84088384979E+02  0.00000000000E+00 0.  1.
         -1    1    6    6    0  502 -0.10453808060E+02  0.26659088224E+03  0.11217401690E+04  0.11530312170E+04  0.00000000000E+00 0.  1.
<mgrwt>
<rscale>  0 0.13097573E+04</rscale>
<asrwt>0</asrwt>
<pdfrwt beam="1">  1        2 0.47436999E+00 0.13097573E+04</pdfrwt>
<pdfrwt beam="2">  1       -2 0.21398225E-01 0.13097573E+04</pdfrwt>
<totfact> 0.29012571E+01</totfact>
</mgrwt>
</event>
<event>
12    1  0.1733375E-007  0.1936195E+04  0.7818608E-02  0.8637047E-01
          1   -1    0    0  501    0  0.00000000000E+00  0.00000000000E+00  0.14725261086E+04  0.14725261086E+04  0.00000000000E+00 0. -1.
         -1   -1    0    0    0  501 -0.00000000000E+00 -0.00000000000E+00 -0.63646609716E+03  0.63646609716E+03  0.00000000000E+00 0.  1.
         23    2    1    2    0    0  0.88609821137E+02  0.47566380209E+03  0.96022078950E+03  0.10793177874E+04  0.93782559709E+02 0.  0.
        254    2    1    2    0    0 -0.88609821137E+02 -0.47566380209E+03 -0.12416077802E+03  0.10296744184E+04  0.90039200139E+03 0.  0.
        -24    2    4    4    0    0 -0.41485950479E+03 -0.83623861237E+02 -0.25012582328E+03  0.49820069153E+03  0.80868057264E+02 0.  0.
         24    2    4    4    0    0  0.32624968366E+03 -0.39203994085E+03  0.12596504526E+03  0.53147372691E+03  0.80392527377E+02 0.  0.
         13    1    3    3    0    0  0.34525560229E+02  0.53991226702E+02  0.86445034107E+02  0.10760952928E+03  0.00000000000E+00 0.  1.
        -13    1    3    3    0    0  0.54084260908E+02  0.42167257539E+03  0.87377575540E+03  0.97170825808E+03  0.00000000000E+00 0. -1.
          4    1    6    6  502    0 -0.37353575403E+01 -0.13492590821E+02  0.55144484720E+01  0.15046994550E+02  0.00000000000E+00 0. -1.
          1    1    5    5  503    0 -0.15991512164E+01  0.14755033872E+01  0.47767866470E+01  0.52490080520E+01  0.00000000000E+00 0. -1.
         -2    1    5    5    0  503 -0.41326035358E+03 -0.85099364625E+02 -0.25490260992E+03  0.49295168348E+03  0.00000000000E+00 0.  1.
         -3    1    6    6    0  502  0.32998504120E+03 -0.37854735003E+03  0.12045059679E+03  0.51642673236E+03  0.00000000000E+00 0.  1.
<mgrwt>
<rscale>  0 0.19361952E+04</rscale>
<asrwt>0</asrwt>
<pdfrwt beam="1">  1        1 0.22654248E+00 0.19361952E+04</pdfrwt>
<pdfrwt beam="2">  1       -1 0.97917861E-01 0.19361952E+04</pdfrwt>
<totfact> 0.63756047E+00</totfact>
</mgrwt>
</event>
<event>
12    1  0.1598876E-007  0.1590224E+04  0.7818608E-02  0.8826576E-01
         -4   -1    0    0    0  501 -0.00000000000E+00  0.00000000000E+00  0.15730308466E+04  0.15730308466E+04  0.00000000000E+00 0.  1.
          4   -1    0    0  501    0  0.00000000000E+00 -0.00000000000E+00 -0.40190138238E+03  0.40190138238E+03  0.00000000000E+00 0. -1.
         23    2    1    2    0    0  0.26317095721E+03  0.88769994797E+02  0.98964063081E+03  0.10319907434E+04  0.92071991352E+02 0.  0.
        254    2    1    2    0    0 -0.26317095721E+03 -0.88769994797E+02  0.18148883345E+03  0.94294148563E+03  0.88264453999E+03 0.  0.
        -24    2    4    4    0    0  0.63066096917E+02  0.32647874110E+03  0.22158071027E+03  0.40760587835E+03  0.80491241354E+02 0.  0.
         24    2    4    4    0    0 -0.32623705413E+03 -0.41524873589E+03 -0.40091876816E+02  0.53533560728E+03  0.78196711519E+02 0.  0.
         11    1    3    3    0    0  0.12667161568E+03  0.57485471813E+02  0.33862154759E+03  0.36608036028E+03  0.00000000000E+00 0.  1.
        -11    1    3    3    0    0  0.13649934153E+03  0.31284522983E+02  0.65101908322E+03  0.66591038311E+03  0.00000000000E+00 0. -1.
          4    1    6    6  502    0 -0.59360887326E+02 -0.68470778448E+02  0.22312575185E+02  0.93326381355E+02  0.00000000000E+00 0. -1.
          1    1    5    5  503    0  0.52153135779E+02  0.94793944109E+02  0.91373629536E+02  0.14161561208E+03  0.00000000000E+00 0. -1.
         -2    1    5    5    0  503  0.10912961139E+02  0.23168479699E+03  0.13020708073E+03  0.26599026627E+03  0.00000000000E+00 0.  1.
         -3    1    6    6    0  502 -0.26687616680E+03 -0.34677795744E+03 -0.62404452001E+02  0.44200922593E+03  0.00000000000E+00 0.  1.
<mgrwt>
<rscale>  0 0.15902242E+04</rscale>
<asrwt>0</asrwt>
<pdfrwt beam="1">  1        4 0.61830983E-01 0.15902242E+04</pdfrwt>
<pdfrwt beam="2">  1       -4 0.24200474E+00 0.15902242E+04</pdfrwt>
<totfact> 0.33460283E-01</totfact>
</mgrwt>
</event>
<event>
12    1  0.1598876E-007  0.3276826E+04  0.7818608E-02  0.8168817E-01
          1   -1    0    0  501    0  0.00000000000E+00  0.00000000000E+00  0.25062505502E+04  0.25062505502E+04  0.00000000000E+00 0. -1.
         -1   -1    0    0    0  501 -0.00000000000E+00 -0.00000000000E+00 -0.10710808122E+04  0.10710808122E+04  0.00000000000E+00 0.  1.
         23    2    1    2    0    0  0.12745631282E+04 -0.35038067626E+02  0.15546823380E+04  0.20125372594E+04  0.86776807384E+02 0.  0.
        254    2    1    2    0    0 -0.12745631282E+04  0.35038067626E+02 -0.11951259994E+03  0.15647941030E+04  0.89919880413E+03 0.  0.
        -24    2    4    4    0    0  0.90265170438E+02 -0.13049208812E+03  0.15366504320E+02  0.18112050633E+03  0.85979778458E+02 0.  0.
         24    2    4    4    0    0 -0.13648282987E+04  0.16553015574E+03 -0.13487910426E+03  0.13836735967E+04  0.78763774355E+02 0.  0.
         11    1    3    3    0    0  0.36868928955E+02 -0.62209344858E+01  0.26649162648E+02  0.45915093575E+02  0.00000000000E+00 0.  1.
        -11    1    3    3    0    0  0.12376941993E+04 -0.28817133140E+02  0.15280331753E+04  0.19666221658E+04  0.00000000000E+00 0. -1.
          2    1    6    6  502    0 -0.45506983381E+03  0.84369027723E+02 -0.21918657149E+02  0.46334340829E+03  0.00000000000E+00 0. -1.
          3    1    5    5  503    0  0.42751260223E+02 -0.11678906051E+03 -0.11402636974E+02  0.12488945125E+03  0.00000000000E+00 0. -1.
         -4    1    5    5    0  503  0.47513910215E+02 -0.13703027612E+02  0.26769141294E+02  0.56231055079E+02  0.00000000000E+00 0.  1.
         -1    1    6    6    0  502 -0.90975846487E+03  0.81161128021E+02 -0.11296044711E+03  0.92033018842E+03  0.00000000000E+00 0.  1.
<mgrwt>
<rscale>  0 0.32768258E+04</rscale>
<asrwt>0</asrwt>
<pdfrwt beam="1">  1        1 0.38557701E+00 0.32768258E+04</pdfrwt>
<pdfrwt beam="2">  1       -1 0.16478166E+00 0.32768258E+04</pdfrwt>
<totfact> 0.29981519E-01</totfact>
</mgrwt>
</event>
<event>
12    1  0.1598876E-007  0.3638035E+04  0.7818608E-02  0.8081835E-01
          2   -1    0    0  501    0  0.00000000000E+00  0.00000000000E+00  0.16529680491E+04  0.16529680491E+04  0.00000000000E+00 0. -1.
         -2   -1    0    0    0  501 -0.00000000000E+00 -0.00000000000E+00 -0.20017472142E+04  0.20017472142E+04  0.00000000000E+00 0.  1.
         23    2    1    2    0    0  0.76486645189E+02 -0.15966195729E+04  0.43279427156E+03  0.16584903287E+04  0.90747019614E+02 0.  0.
        254    2    1    2    0    0 -0.76486645189E+02  0.15966195729E+04 -0.78157343664E+03  0.19962249346E+04  0.90499319618E+03 0.  0.
        -24    2    4    4    0    0  0.34046234350E+03  0.40926924275E+03 -0.42507079601E+03  0.68585703722E+03  0.79364812567E+02 0.  0.
         24    2    4    4    0    0 -0.41694898869E+03  0.11873503301E+04 -0.35650264063E+03  0.13103678974E+04  0.79514954604E+02 0.  0.
         11    1    3    3    0    0  0.49449245426E+02 -0.51943721139E+03  0.10535435621E+03  0.53231549369E+03  0.00000000000E+00 0.  1.
        -11    1    3    3    0    0  0.27037399763E+02 -0.10771823615E+04  0.32743991536E+03  0.11261748350E+04  0.00000000000E+00 0. -1.
          2    1    6    6  502    0 -0.27657034242E+02  0.40066778031E+02 -0.22543478100E+02  0.53651343410E+02  0.00000000000E+00 0. -1.
          1    1    5    5  503    0  0.12841638602E+03  0.20381623611E+03 -0.16104517654E+03  0.28977124631E+03  0.00000000000E+00 0. -1.
         -2    1    5    5    0  503  0.21204595748E+03  0.20545300664E+03 -0.26402561947E+03  0.39608579091E+03  0.00000000000E+00 0.  1.
         -1    1    6    6    0  502 -0.38929195445E+03  0.11472835521E+04 -0.33395916253E+03  0.12567165539E+04  0.00000000000E+00 0.  1.
<mgrwt>
<rscale>  0 0.36380347E+04</rscale>
<asrwt>0</asrwt>
<pdfrwt beam="1">  1        2 0.25430278E+00 0.36380347E+04</pdfrwt>
<pdfrwt beam="2">  1       -2 0.30796111E+00 0.36380347E+04</pdfrwt>
<totfact> 0.24037534E-01</totfact>
</mgrwt>
</event>
<event>
12    1  0.1598876E-007  0.2176639E+04  0.7818608E-02  0.8528215E-01
         -1   -1    0    0    0  501 -0.00000000000E+00  0.00000000000E+00  0.11606447770E+04  0.11606447770E+04  0.00000000000E+00 0.  1.
          1   -1    0    0  501    0  0.00000000000E+00 -0.00000000000E+00 -0.10205013691E+04  0.10205013691E+04  0.00000000000E+00 0. -1.
         23    2    1    2    0    0  0.83966332132E+03  0.40914678849E+02  0.30135454726E+03  0.89777157738E+03  0.92036611702E+02 0.  0.
        254    2    1    2    0    0 -0.83966332132E+03 -0.40914678849E+02 -0.16121113931E+03  0.12833745687E+04  0.95621793962E+03 0.  0.
        -24    2    4    4    0    0 -0.79514279944E+03  0.29880358632E+03 -0.29902938753E+03  0.90403900336E+03  0.79575689070E+02 0.  0.
         24    2    4    4    0    0 -0.44520521873E+02 -0.33971826517E+03  0.13781824822E+03  0.37933556534E+03  0.86666170057E+02 0.  0.
         11    1    3    3    0    0  0.65416903372E+03  0.17560673385E+02  0.19577807199E+03  0.68306262919E+03  0.00000000000E+00 0. -1.
        -11    1    3    3    0    0  0.18549428760E+03  0.23354005464E+02  0.10557647527E+03  0.21470894819E+03  0.00000000000E+00 0.  1.
          4    1    6    6  502    0  0.21148985885E+02 -0.13860871326E+03  0.72945955331E+02  0.15805305247E+03  0.00000000000E+00 0. -1.
          1    1    5    5  503    0 -0.74322049024E+03  0.26668790904E+03 -0.29474556670E+03  0.84283692790E+03  0.00000000000E+00 0. -1.
         -2    1    5    5    0  503 -0.51922309200E+02  0.32115677283E+02 -0.42838208307E+01  0.61202075463E+02  0.00000000000E+00 0.  1.
         -3    1    6    6    0  502 -0.65669507757E+02 -0.20110955191E+03  0.64872292889E+02  0.22128251287E+03  0.00000000000E+00 0.  1.
<mgrwt>
<rscale>  0 0.21766392E+04</rscale>
<asrwt>0</asrwt>
<pdfrwt beam="1">  1        1 0.15700021E+00 0.21766392E+04</pdfrwt>
<pdfrwt beam="2">  1       -1 0.17856073E+00 0.21766392E+04</pdfrwt>
<totfact> 0.28398762E+00</totfact>
</mgrwt>
</event>
<event>
12    1  0.1609869E-007  0.1827713E+04  0.7818608E-02  0.8691699E-01
          2   -1    0    0  501    0  0.00000000000E+00  0.00000000000E+00  0.22554975066E+04  0.22554975066E+04  0.00000000000E+00 0. -1.
         -2   -1    0    0    0  501 -0.00000000000E+00 -0.00000000000E+00 -0.37026596882E+03  0.37026596882E+03  0.00000000000E+00 0.  1.
         23    2    1    2    0    0  0.57998851293E+02 -0.31642343770E+03  0.16098081317E+04  0.16442839148E+04  0.93272251312E+02 0.  0.
        254    2    1    2    0    0 -0.57998851293E+02  0.31642343770E+03  0.27542340605E+03  0.98147956061E+03  0.88541313329E+03 0.  0.
        -24    2    4    4    0    0 -0.20580357613E+03  0.58511752766E+03  0.17835613041E+03  0.65075770534E+03  0.83408924480E+02 0.  0.
         24    2    4    4    0    0  0.14780472483E+03 -0.26869408996E+03  0.97067275646E+02  0.33072185527E+03  0.76890434298E+02 0.  0.
         13    1    3    3    0    0  0.39495086390E+02 -0.41845152563E+02  0.21373823114E+03  0.22134793899E+03  0.00000000000E+00 0.  1.
        -13    1    3    3    0    0  0.18503764903E+02 -0.27457828514E+03  0.13960699006E+04  0.14229359758E+04  0.00000000000E+00 0. -1.
          2    1    6    6  502    0  0.14856678333E+03 -0.24240319001E+03  0.69623790866E+02  0.29270952819E+03  0.00000000000E+00 0. -1.
          1    1    5    5  503    0 -0.20771532765E+03  0.54836624754E+03  0.18146754733E+03  0.61382543896E+03  0.00000000000E+00 0. -1.
         -2    1    5    5    0  503  0.19117515249E+01  0.36751280123E+02 -0.31114169277E+01  0.36932266379E+02  0.00000000000E+00 0.  1.
         -1    1    6    6    0  502 -0.76205849301E+00 -0.26290899949E+02  0.27443484780E+02  0.38012327081E+02  0.00000000000E+00 0.  1.
<mgrwt>
<rscale>  0 0.18277133E+04</rscale>
<asrwt>0</asrwt>
<pdfrwt beam="1">  1        2 0.34699961E+00 0.18277133E+04</pdfrwt>
<pdfrwt beam="2">  1       -2 0.56963997E-01 0.18277133E+04</pdfrwt>
<totfact> 0.13080994E+01</totfact>
</mgrwt>
</event>
<event>
12    1  0.1598876E-007  0.1839929E+04  0.7818608E-02  0.8685349E-01
          2   -1    0    0  501    0  0.00000000000E+00  0.00000000000E+00  0.19375860549E+04  0.19375860549E+04  0.00000000000E+00 0. -1.
         -2   -1    0    0    0  501 -0.00000000000E+00 -0.00000000000E+00 -0.43679850012E+03  0.43679850012E+03  0.00000000000E+00 0.  1.
         23    2    1    2    0    0 -0.21243725314E+03  0.15936534170E+03 -0.24978124698E+03  0.37638146331E+03  0.93517035474E+02 0.  0.
        254    2    1    2    0    0  0.21243725314E+03 -0.15936534170E+03  0.17505688018E+04  0.19980030917E+04  0.92574204080E+03 0.  0.
        -24    2    4    4    0    0  0.21080405709E+03  0.29348396633E+03  0.13104559090E+04  0.13616911722E+04  0.79605087820E+02 0.  0.
         24    2    4    4    0    0  0.16331960464E+01 -0.45284930803E+03  0.44011289280E+03  0.63631191955E+03  0.78219802059E+02 0.  0.
         13    1    3    3    0    0 -0.12141181775E+03  0.37001767154E+02 -0.13658967027E+03  0.18645830174E+03  0.00000000000E+00 0.  1.
        -13    1    3    3    0    0 -0.91025435382E+02  0.12236357455E+03 -0.11319157671E+03  0.18992316157E+03  0.00000000000E+00 0. -1.
          4    1    6    6  502    0 -0.24588804040E+01 -0.22608394226E+03  0.16576168604E+03  0.28035144301E+03  0.00000000000E+00 0. -1.
          1    1    5    5  503    0  0.11004382742E+03  0.20182044058E+03  0.91497841967E+03  0.94341223368E+03  0.00000000000E+00 0. -1.
         -2    1    5    5    0  503  0.10076022967E+03  0.91663525750E+02  0.39547748932E+03  0.41827893851E+03  0.00000000000E+00 0.  1.
         -3    1    6    6    0  502  0.40920764504E+01 -0.22676536577E+03  0.27435120676E+03  0.35596047653E+03  0.00000000000E+00 0.  1.
<mgrwt>
<rscale>  0 0.18399290E+04</rscale>
<asrwt>0</asrwt>
<pdfrwt beam="1">  1        2 0.29809016E+00 0.18399290E+04</pdfrwt>
<pdfrwt beam="2">  1       -2 0.67199770E-01 0.18399290E+04</pdfrwt>
<totfact> 0.13835906E+01</totfact>
</mgrwt>
</event>
<event>
12    1  0.1598876E-007  0.1234849E+04  0.7818608E-02  0.9082889E-01
         -2   -1    0    0    0  501 -0.00000000000E+00  0.00000000000E+00  0.10873318411E+04  0.10873318411E+04  0.00000000000E+00 0.  1.
          2   -1    0    0  501    0  0.00000000000E+00 -0.00000000000E+00 -0.35059483925E+03  0.35059483925E+03  0.00000000000E+00 0. -1.
         23    2    1    2    0    0 -0.21192843062E+03  0.79708684773E+02 -0.28549533846E+02  0.24416822726E+03  0.86809637636E+02 0.  0.
        254    2    1    2    0    0  0.21192843062E+03 -0.79708684773E+02  0.76528653568E+03  0.11937584531E+04  0.88776608881E+03 0.  0.
        -24    2    4    4    0    0 -0.91768376709E+02  0.31040243172E+03  0.56294347267E+03  0.65354710238E+03  0.73806212610E+02 0.  0.
         24    2    4    4    0    0  0.30369680733E+03 -0.39011111649E+03  0.20234306301E+03  0.54021135069E+03  0.80418618977E+02 0.  0.
         13    1    3    3    0    0 -0.20117885766E+02  0.41159155124E+02 -0.14350234532E+02  0.48007651571E+02  0.00000000000E+00 0. -1.
        -13    1    3    3    0    0 -0.19181054485E+03  0.38549529649E+02 -0.14199299314E+02  0.19616057569E+03  0.00000000000E+00 0.  1.
          2    1    6    6  502    0  0.56610407192E+02 -0.10479368598E+03  0.79849838861E+02  0.14339613520E+03  0.00000000000E+00 0. -1.
          3    1    5    5  503    0 -0.96235216367E+02  0.30567275318E+03  0.52521928431E+03  0.61526607701E+03  0.00000000000E+00 0. -1.
         -4    1    5    5    0  503  0.44668396582E+01  0.47296785378E+01  0.37724188365E+02  0.38281025370E+02  0.00000000000E+00 0.  1.
         -1    1    6    6    0  502  0.24708640014E+03 -0.28531743051E+03  0.12249322415E+03  0.39681521550E+03  0.00000000000E+00 0.  1.
<mgrwt>
<rscale>  0 0.12348489E+04</rscale>
<asrwt>0</asrwt>
<pdfrwt beam="1">  1        2 0.53937668E-01 0.12348489E+04</pdfrwt>
<pdfrwt beam="2">  1       -2 0.16728182E+00 0.12348489E+04</pdfrwt>
<totfact> 0.20215404E+01</totfact>
</mgrwt>
</event>
<event>
12    1  0.1598876E-007  0.1895507E+04  0.7818608E-02  0.8657096E-01
          2   -1    0    0  501    0  0.00000000000E+00  0.00000000000E+00  0.17046979245E+04  0.17046979245E+04  0.00000000000E+00 0. -1.
         -2   -1    0    0    0  501 -0.00000000000E+00 -0.00000000000E+00 -0.52691853879E+03  0.52691853879E+03  0.00000000000E+00 0.  1.
         23    2    1    2    0    0  0.48638970401E+03  0.49609504947E+03  0.19768038707E+03  0.72775990680E+03  0.88722625323E+02 0.  0.
        254    2    1    2    0    0 -0.48638970401E+03 -0.49609504947E+03  0.98009899867E+03  0.15038565565E+04  0.90460226239E+03 0.  0.
        -24    2    4    4    0    0 -0.62607477509E+03 -0.56026072156E+03  0.10227503136E+04  0.13260460626E+04  0.80735716030E+02 0.  0.
         24    2    4    4    0    0  0.13968507109E+03  0.64165672093E+02 -0.42651314978E+02  0.17781049395E+03  0.78538427102E+02 0.  0.
         13    1    3    3    0    0  0.30777903043E+03  0.37243932978E+03  0.13751735512E+03  0.50234451216E+03  0.00000000000E+00 0.  1.
        -13    1    3    3    0    0  0.17861067358E+03  0.12365571969E+03  0.60163031944E+02  0.22541539464E+03  0.00000000000E+00 0. -1.
          2    1    6    6  502    0  0.99392001747E+02  0.80769940331E+02 -0.23512186050E+02  0.13021281106E+03  0.00000000000E+00 0. -1.
          3    1    5    5  503    0 -0.41879150090E+03 -0.41875700651E+03  0.74453700966E+03  0.95135645816E+03  0.00000000000E+00 0. -1.
         -4    1    5    5    0  503 -0.20728327419E+03 -0.14150371505E+03  0.27821330399E+03  0.37468960440E+03  0.00000000000E+00 0.  1.
         -1    1    6    6    0  502  0.40293069339E+02 -0.16604268238E+02 -0.19139128928E+02  0.47597682891E+02  0.00000000000E+00 0.  1.
<mgrwt>
<rscale>  0 0.18955073E+04</rscale>
<asrwt>0</asrwt>
<pdfrwt beam="1">  1        2 0.26226122E+00 0.18955073E+04</pdfrwt>
<pdfrwt beam="2">  1       -2 0.81064391E-01 0.18955073E+04</pdfrwt>
<totfact> 0.12253069E+01</totfact>
</mgrwt>
</event>
<event>
12    1  0.1598876E-007  0.1761082E+04  0.7818608E-02  0.8727274E-01
         -1   -1    0    0    0  501 -0.00000000000E+00  0.00000000000E+00  0.52021150658E+03  0.52021150658E+03  0.00000000000E+00 0.  1.
          1   -1    0    0  501    0  0.00000000000E+00 -0.00000000000E+00 -0.14904562779E+04  0.14904562779E+04  0.00000000000E+00 0. -1.
         23    2    1    2    0    0 -0.18565297268E+02  0.61454426388E+03 -0.21421492837E+03  0.66265154077E+03  0.12332763853E+03 0.  0.
        254    2    1    2    0    0  0.18565297268E+02 -0.61454426388E+03 -0.75602984298E+03  0.13480162437E+04  0.93142758570E+03 0.  0.
        -24    2    4    4    0    0 -0.18502395526E+03  0.15062689836E+03 -0.19986852514E+01  0.25158556398E+03  0.79805856498E+02 0.  0.
         24    2    4    4    0    0  0.20358925253E+03 -0.76517116223E+03 -0.75403115773E+03  0.10964306798E+04  0.81619589874E+02 0.  0.
         11    1    3    3    0    0 -0.16931328697E+02  0.52251959926E+03 -0.22658595848E+03  0.56978469450E+03  0.00000000000E+00 0.  1.
        -11    1    3    3    0    0 -0.16339685717E+01  0.92024664614E+02  0.12371030111E+02  0.92866846273E+02  0.00000000000E+00 0. -1.
          4    1    6    6  502    0  0.17723226107E+03 -0.54694529771E+03 -0.57225481569E+03  0.81119418583E+03  0.00000000000E+00 0. -1.
          3    1    5    5  503    0 -0.13087509106E+03  0.66835099868E+02 -0.25350110152E+02  0.14912360014E+03  0.00000000000E+00 0. -1.
         -4    1    5    5    0  503 -0.54148864193E+02  0.83791798490E+02  0.23351424901E+02  0.10246196383E+03  0.00000000000E+00 0.  1.
         -3    1    6    6    0  502  0.26356991456E+02 -0.21822586453E+03 -0.18177634203E+03  0.28523649393E+03  0.00000000000E+00 0.  1.
<mgrwt>
<rscale>  0 0.17610821E+04</rscale>
<asrwt>0</asrwt>
<pdfrwt beam="1">  1        1 0.22930096E+00 0.17610821E+04</pdfrwt>
<pdfrwt beam="2">  1       -1 0.80032540E-01 0.17610821E+04</pdfrwt>
<totfact> 0.98004037E+00</totfact>
</mgrwt>
</event>
<event>
12    1  0.1598876E-007  0.1644832E+04  0.7818608E-02  0.8793470E-01
          1   -1    0    0  501    0  0.00000000000E+00  0.00000000000E+00  0.18161334310E+04  0.18161334310E+04  0.00000000000E+00 0. -1.
         -1   -1    0    0    0  501 -0.00000000000E+00 -0.00000000000E+00 -0.37242200720E+03  0.37242200720E+03  0.00000000000E+00 0.  1.
         23    2    1    2    0    0 -0.31084994903E+03  0.33150383533E+02 -0.12971478847E+03  0.34900758577E+03  0.85168831351E+02 0.  0.
        254    2    1    2    0    0  0.31084994903E+03 -0.33150383533E+02  0.15734262122E+04  0.18395478524E+04  0.90029973738E+03 0.  0.
        -24    2    4    4    0    0 -0.74039033517E+02  0.12153892048E+02 -0.82069127172E+02  0.13741852614E+03  0.80740411907E+02 0.  0.
         24    2    4    4    0    0  0.38488898255E+03 -0.45304275581E+02  0.16554953394E+04  0.17021293262E+04  0.79921325142E+02 0.  0.
         11    1    3    3    0    0 -0.22799946788E+03  0.11676814752E+02 -0.53681835742E+02  0.23452472118E+03  0.00000000000E+00 0. -1.
        -11    1    3    3    0    0 -0.82850481156E+02  0.21473568781E+02 -0.76032952732E+02  0.11448286459E+03  0.00000000000E+00 0.  1.
          2    1    6    6  502    0  0.30508467500E+03 -0.67318166783E+02  0.13421006701E+04  0.13779849793E+04  0.00000000000E+00 0. -1.
          1    1    5    5  503    0 -0.67678684142E+02  0.30125594223E+02 -0.90175210744E+02  0.11670271782E+03  0.00000000000E+00 0. -1.
         -2    1    5    5    0  503 -0.63603493753E+01 -0.17971702175E+02  0.81060835720E+01  0.20715808315E+02  0.00000000000E+00 0.  1.
         -1    1    6    6    0  502  0.79804307548E+02  0.22013891202E+02  0.31339466932E+03  0.32414434696E+03  0.00000000000E+00 0.  1.
<mgrwt>
<rscale>  0 0.16448320E+04</rscale>
<asrwt>0</asrwt>
<pdfrwt beam="1">  1        1 0.27940514E+00 0.16448320E+04</pdfrwt>
<pdfrwt beam="2">  1       -1 0.57295694E-01 0.16448320E+04</pdfrwt>
<totfact> 0.11715771E+01</totfact>
</mgrwt>
</event>
<event>
12    1  0.1598876E-007  0.2509140E+04  0.7818608E-02  0.8399736E-01
         -2   -1    0    0    0  501 -0.00000000000E+00  0.00000000000E+00  0.12309247267E+04  0.12309247267E+04  0.00000000000E+00 0.  1.
          2   -1    0    0  501    0  0.00000000000E+00 -0.00000000000E+00 -0.12786697930E+04  0.12786697930E+04  0.00000000000E+00 0. -1.
         23    2    1    2    0    0 -0.47826377511E+03 -0.40294507155E+03  0.87586786209E+03  0.10799691403E+04  0.89932546484E+02 0.  0.
        254    2    1    2    0    0  0.47826377511E+03  0.40294507155E+03 -0.92361292840E+03  0.14296253794E+04  0.89424097127E+03 0.  0.
        -24    2    4    4    0    0  0.13445804425E+03 -0.20909889719E+03 -0.59644181498E+03  0.65113550578E+03  0.80207816076E+02 0.  0.
         24    2    4    4    0    0  0.34380573086E+03  0.61204396874E+03 -0.32717111342E+03  0.77848987364E+03  0.78774016355E+02 0.  0.
         11    1    3    3    0    0 -0.47531011347E+03 -0.40548166885E+03  0.85615622167E+03  0.10598766738E+04  0.00000000000E+00 0.  1.
        -11    1    3    3    0    0 -0.29536616456E+01  0.25365973015E+01  0.19711640421E+02  0.20092466526E+02  0.00000000000E+00 0. -1.
          4    1    6    6  502    0  0.24422317138E+03  0.35665759409E+03 -0.20355339850E+03  0.47779031269E+03  0.00000000000E+00 0. -1.
          3    1    5    5  503    0  0.27648378375E+02 -0.10644647105E+03 -0.30462299313E+03  0.32386795452E+03  0.00000000000E+00 0. -1.
         -4    1    5    5    0  503  0.10680966588E+03 -0.10265242614E+03 -0.29181882186E+03  0.32726755126E+03  0.00000000000E+00 0.  1.
         -3    1    6    6    0  502  0.99582559483E+02  0.25538637466E+03 -0.12361771492E+03  0.30069956095E+03  0.00000000000E+00 0.  1.
<mgrwt>
<rscale>  0 0.25091403E+04</rscale>
<asrwt>0</asrwt>
<pdfrwt beam="1">  1        2 0.19671843E+00 0.25091403E+04</pdfrwt>
<pdfrwt beam="2">  1       -2 0.18937303E+00 0.25091403E+04</pdfrwt>
<totfact> 0.23732245E+00</totfact>
</mgrwt>
</event>
<event>
12    1  0.1598876E-007  0.1100870E+04  0.7818608E-02  0.9204344E-01
         -2   -1    0    0    0  501 -0.00000000000E+00  0.00000000000E+00  0.86719235151E+03  0.86719235151E+03  0.00000000000E+00 0.  1.
          2   -1    0    0  501    0  0.00000000000E+00 -0.00000000000E+00 -0.34937910682E+03  0.34937910682E+03  0.00000000000E+00 0. -1.
         23    2    1    2    0    0  0.18507458409E+01 -0.12715377271E+03  0.22898517202E+03  0.27739657853E+03  0.91340821101E+02 0.  0.
        254    2    1    2    0    0 -0.18507458409E+01  0.12715377271E+03  0.28882807267E+03  0.93917487980E+03  0.88456559514E+03 0.  0.
        -24    2    4    4    0    0  0.23144975880E+02  0.14780420723E+03  0.59668133240E+03  0.61948774084E+03  0.73175645088E+02 0.  0.
         24    2    4    4    0    0 -0.24995721721E+02 -0.20650434522E+02 -0.30785325973E+03  0.31968713896E+03  0.79843664384E+02 0.  0.
         11    1    3    3    0    0  0.27232711662E+02 -0.52654903684E+00  0.45216512989E+02  0.52786654423E+02  0.00000000000E+00 0. -1.
        -11    1    3    3    0    0 -0.25381965821E+02 -0.12662722367E+03  0.18376865903E+03  0.22460992410E+03  0.00000000000E+00 0.  1.
          2    1    6    6  502    0 -0.26706915633E+02  0.16514793437E+02 -0.49163119370E+02  0.58335324214E+02  0.00000000000E+00 0. -1.
          3    1    5    5  503    0 -0.14720746549E+02  0.35529087950E+02  0.72361980705E+02  0.81946767606E+02  0.00000000000E+00 0. -1.
         -4    1    5    5    0  503  0.37865722429E+02  0.11227511928E+03  0.52431935169E+03  0.53754097323E+03  0.00000000000E+00 0.  1.
         -1    1    6    6    0  502  0.17111939127E+01 -0.37165227959E+02 -0.25869014036E+03  0.26135181475E+03  0.00000000000E+00 0.  1.
<mgrwt>
<rscale>  0 0.11008704E+04</rscale>
<asrwt>0</asrwt>
<pdfrwt beam="1">  1        2 0.53750632E-01 0.11008704E+04</pdfrwt>
<pdfrwt beam="2">  1       -2 0.13341421E+00 0.11008704E+04</pdfrwt>
<totfact> 0.37349009E+01</totfact>
</mgrwt>
</event>
<event>
12    1  0.1598876E-007  0.1218814E+04  0.7818608E-02  0.9096546E-01
          2   -1    0    0  501    0  0.00000000000E+00  0.00000000000E+00  0.27294717059E+04  0.27294717059E+04  0.00000000000E+00 0. -1.
         -2   -1    0    0    0  501 -0.00000000000E+00 -0.00000000000E+00 -0.13606188242E+03  0.13606188242E+03  0.00000000000E+00 0.  1.
         23    2    1    2    0    0  0.16837789766E+03 -0.11356825988E+03  0.94516368999E+03  0.97111233087E+03  0.92064608979E+02 0.  0.
        254    2    1    2    0    0 -0.16837789766E+03  0.11356825988E+03  0.16482461335E+04  0.18944212575E+04  0.91151945566E+03 0.  0.
        -24    2    4    4    0    0 -0.47790594498E+03 -0.14013622416E+03  0.11095088214E+04  0.12185795813E+04  0.76773155975E+02 0.  0.
         24    2    4    4    0    0  0.30952804732E+03  0.25370448404E+03  0.53873731205E+03  0.67584167618E+03  0.79690040506E+02 0.  0.
         13    1    3    3    0    0  0.38820103546E+02 -0.26312957684E+02  0.43633321321E+03  0.43884626595E+03  0.00000000000E+00 0.  1.
        -13    1    3    3    0    0  0.12955779411E+03 -0.87255302196E+02  0.50883047678E+03  0.53226606493E+03  0.00000000000E+00 0. -1.
          4    1    6    6  502    0  0.54330634589E+02  0.74744602260E+02  0.86339789086E+02  0.12646395772E+03  0.00000000000E+00 0. -1.
          3    1    5    5  503    0 -0.41255142369E+02  0.94709288880E+01  0.95696684554E+02  0.10464005304E+03  0.00000000000E+00 0. -1.
         -4    1    5    5    0  503 -0.43665080261E+03 -0.14960715305E+03  0.10138121369E+04  0.11139395282E+04  0.00000000000E+00 0.  1.
         -3    1    6    6    0  502  0.25519741273E+03  0.17895988178E+03  0.45239752297E+03  0.54937771846E+03  0.00000000000E+00 0.  1.
<mgrwt>
<rscale>  0 0.12188143E+04</rscale>
<asrwt>0</asrwt>
<pdfrwt beam="1">  1        2 0.41991868E+00 0.12188143E+04</pdfrwt>
<pdfrwt beam="2">  1       -2 0.20932599E-01 0.12188143E+04</pdfrwt>
<totfact> 0.50028252E+01</totfact>
</mgrwt>
</event>
<event>
12    1  0.1598876E-007  0.3634420E+04  0.7818608E-02  0.8082652E-01
          1   -1    0    0  501    0  0.00000000000E+00  0.00000000000E+00  0.19975253510E+04  0.19975253510E+04  0.00000000000E+00 0. -1.
         -1   -1    0    0    0  501 -0.00000000000E+00 -0.00000000000E+00 -0.16531719696E+04  0.16531719696E+04  0.00000000000E+00 0.  1.
         23    2    1    2    0    0  0.85341783877E+02  0.13658130678E+04 -0.85637451566E+03  0.16173060786E+04  0.97842140749E+02 0.  0.
        254    2    1    2    0    0 -0.85341783877E+02 -0.13658130678E+04  0.12007278970E+04  0.20333912420E+04  0.90565109412E+03 0.  0.
        -24    2    4    4    0    0  0.12743711784E+02 -0.59100374676E+03 -0.24004834910E+01  0.59689812104E+03  0.82666642074E+02 0.  0.
         24    2    4    4    0    0 -0.98085495660E+02 -0.77480932105E+03  0.12031283805E+04  0.14364931210E+04  0.77745342419E+02 0.  0.
         13    1    3    3    0    0  0.80405333722E+02  0.10209579514E+04 -0.68584508188E+03  0.12325597887E+04  0.00000000000E+00 0.  1.
        -13    1    3    3    0    0  0.49364501553E+01  0.34485511637E+03 -0.17052943378E+03  0.38474628992E+03  0.00000000000E+00 0. -1.
          4    1    6    6  502    0 -0.37492947795E+02 -0.12088102937E+03  0.22940975231E+03  0.26200530310E+03  0.00000000000E+00 0. -1.
          1    1    5    5  503    0 -0.57367015813E+01 -0.95766657376E+02 -0.30081660364E+02  0.10054386456E+03  0.00000000000E+00 0. -1.
         -2    1    5    5    0  503  0.18480413365E+02 -0.49523708938E+03  0.27681176873E+02  0.49635425649E+03  0.00000000000E+00 0.  1.
         -3    1    6    6    0  502 -0.60592547866E+02 -0.65392829168E+03  0.97371862818E+03  0.11744878179E+04  0.00000000000E+00 0.  1.
<mgrwt>
<rscale>  0 0.36344204E+04</rscale>
<asrwt>0</asrwt>
<pdfrwt beam="1">  1        1 0.30731159E+00 0.36344204E+04</pdfrwt>
<pdfrwt beam="2">  1       -1 0.25433415E+00 0.36344204E+04</pdfrwt>
<totfact> 0.15765516E-01</totfact>
</mgrwt>
</event>
<event>
12    1  0.1598876E-007  0.1360764E+04  0.7818608E-02  0.8982720E-01
         -2   -1    0    0    0  501 -0.00000000000E+00  0.00000000000E+00  0.79431580479E+03  0.79431580479E+03  0.00000000000E+00 0.  1.
          2   -1    0    0  501    0  0.00000000000E+00 -0.00000000000E+00 -0.58279042211E+03  0.58279042211E+03  0.00000000000E+00 0. -1.
         23    2    1    2    0    0  0.34687088878E+03  0.16046269553E+03  0.84594010739E+02  0.40212452180E+03  0.92088513045E+02 0.  0.
        254    2    1    2    0    0 -0.34687088878E+03 -0.16046269553E+03  0.12693137195E+03  0.97498170510E+03  0.88792458123E+03 0.  0.
        -24    2    4    4    0    0 -0.31338581535E+03  0.33318979837E+03  0.84477253873E+02  0.47172305709E+03  0.78486464913E+02 0.  0.
         24    2    4    4    0    0 -0.33485073438E+02 -0.49365249390E+03  0.42454118075E+02  0.50325864801E+03  0.81565187299E+02 0.  0.
         13    1    3    3    0    0  0.33469992191E+03  0.13486810756E+03  0.62577907600E+02  0.36623686145E+03  0.00000000000E+00 0. -1.
        -13    1    3    3    0    0  0.12170966876E+02  0.25594587970E+02  0.22016103139E+02  0.35887660351E+02  0.00000000000E+00 0.  1.
          4    1    6    6  502    0  0.71535905333E+01 -0.35014153044E+03  0.50757864319E+02  0.35387374300E+03  0.00000000000E+00 0. -1.
          3    1    5    5  503    0 -0.26625511286E+03  0.23509458601E+03  0.61055068717E+02  0.36040112502E+03  0.00000000000E+00 0. -1.
         -4    1    5    5    0  503 -0.47130702483E+02  0.98095212351E+02  0.23422185156E+02  0.11132193207E+03  0.00000000000E+00 0.  1.
         -3    1    6    6    0  502 -0.40638663971E+02 -0.14351096346E+03 -0.83037462435E+01  0.14938490501E+03  0.00000000000E+00 0.  1.
<mgrwt>
<rscale>  0 0.13607640E+04</rscale>
<asrwt>0</asrwt>
<pdfrwt beam="1">  1        2 0.89660064E-01 0.13607640E+04</pdfrwt>
<pdfrwt beam="2">  1       -2 0.12220243E+00 0.13607640E+04</pdfrwt>
<totfact> 0.25436801E+01</totfact>
</mgrwt>
</event>
<event>
12    1  0.1795227E-007  0.1225935E+04  0.7818608E-02  0.9090454E-01
          2   -1    0    0  501    0  0.00000000000E+00  0.00000000000E+00  0.15206197445E+04  0.15206197445E+04  0.00000000000E+00 0. -1.
         -2   -1    0    0    0  501 -0.00000000000E+00 -0.00000000000E+00 -0.24708934605E+03  0.24708934605E+03  0.00000000000E+00 0.  1.
         23    2    1    2    0    0 -0.48252737863E+02 -0.25786135417E+03  0.40351093488E+03  0.48993136003E+03  0.91601628209E+02 0.  0.
        254    2    1    2    0    0  0.48252737863E+02  0.25786135417E+03  0.87001946359E+03  0.12777777305E+04  0.89831022313E+03 0.  0.
        -24    2    4    4    0    0  0.64192264953E+02 -0.21605151329E+03  0.74162074386E+03  0.77999231923E+03  0.87107904725E+02 0.  0.
         24    2    4    4    0    0 -0.15939527090E+02  0.47391286745E+03  0.12839871973E+03  0.49778541131E+03  0.80353033721E+02 0.  0.
         11    1    3    3    0    0 -0.37245687704E+02 -0.25428044610E+03  0.34450960867E+03  0.42980537106E+03  0.00000000000E+00 0.  1.
        -11    1    3    3    0    0 -0.11007050159E+02 -0.35809080638E+01  0.59001326208E+02  0.60125988974E+02  0.00000000000E+00 0. -1.
          2    1    6    6  502    0  0.81742416268E+01  0.40403870312E+03  0.88164080723E+02  0.41362663959E+03  0.00000000000E+00 0. -1.
          3    1    5    5  503    0  0.60329377975E+02 -0.22411097659E+03  0.70180355500E+03  0.73918441102E+03  0.00000000000E+00 0. -1.
         -4    1    5    5    0  503  0.38628869779E+01  0.80594633028E+01  0.39817188856E+02  0.40807908216E+02  0.00000000000E+00 0.  1.
         -1    1    6    6    0  502 -0.24113768717E+02  0.69874164330E+02  0.40234639005E+02  0.84158771725E+02  0.00000000000E+00 0.  1.
<mgrwt>
<rscale>  0 0.12259346E+04</rscale>
<asrwt>0</asrwt>
<pdfrwt beam="1">  1        2 0.23394149E+00 0.12259346E+04</pdfrwt>
<pdfrwt beam="2">  1       -2 0.38013747E-01 0.12259346E+04</pdfrwt>
<totfact> 0.79482534E+01</totfact>
</mgrwt>
</event>
<event>
12    1  0.1598876E-007  0.1663798E+04  0.7818608E-02  0.8782285E-01
         -1   -1    0    0    0  501 -0.00000000000E+00  0.00000000000E+00  0.51956122085E+03  0.51956122085E+03  0.00000000000E+00 0.  1.
          1   -1    0    0  501    0  0.00000000000E+00 -0.00000000000E+00 -0.13320010374E+04  0.13320010374E+04  0.00000000000E+00 0. -1.
         23    2    1    2    0    0  0.37248284909E+03  0.26426432078E+03  0.11540422127E+03  0.47981673012E+03  0.91251608808E+02 0.  0.
        254    2    1    2    0    0 -0.37248284909E+03 -0.26426432078E+03 -0.92784403782E+03  0.13717455281E+04  0.90122812390E+03 0.  0.
        -24    2    4    4    0    0 -0.31888178391E+03  0.27850090013E+03 -0.56929846459E+03  0.71485243106E+03  0.87549488450E+02 0.  0.
         24    2    4    4    0    0 -0.53601065179E+02 -0.54276522092E+03 -0.35854557323E+03  0.65689309707E+03  0.74070599198E+02 0.  0.
         13    1    3    3    0    0  0.36863119361E+03  0.23716484571E+03  0.10981899136E+03  0.45188088232E+03  0.00000000000E+00 0.  1.
        -13    1    3    3    0    0  0.38516554831E+01  0.27099475075E+02  0.55852299116E+01  0.27935847803E+02  0.00000000000E+00 0. -1.
          2    1    6    6  502    0 -0.48542622797E+01 -0.64920292209E+02 -0.16303119538E+02  0.67111846268E+02  0.00000000000E+00 0. -1.
          1    1    5    5  503    0 -0.92380921889E+01  0.15886536713E+02 -0.39157274031E+01  0.18789819507E+02  0.00000000000E+00 0. -1.
         -2    1    5    5    0  503 -0.30964369172E+03  0.26261436342E+03 -0.56538273719E+03  0.69606261156E+03  0.00000000000E+00 0.  1.
         -1    1    6    6    0  502 -0.48746802900E+02 -0.47784492871E+03 -0.34224245369E+03  0.58978125080E+03  0.00000000000E+00 0.  1.
<mgrwt>
<rscale>  0 0.16637982E+04</rscale>
<asrwt>0</asrwt>
<pdfrwt beam="1">  1        1 0.20492324E+00 0.16637982E+04</pdfrwt>
<pdfrwt beam="2">  1       -1 0.79932495E-01 0.16637982E+04</pdfrwt>
<totfact> 0.12801662E+01</totfact>
</mgrwt>
</event>
<event>
12    1  0.1598876E-007  0.1454324E+04  0.7818608E-02  0.8915408E-01
         -2   -1    0    0    0  501 -0.00000000000E+00  0.00000000000E+00  0.41889059193E+03  0.41889059193E+03  0.00000000000E+00 0.  1.
          2   -1    0    0  501    0  0.00000000000E+00 -0.00000000000E+00 -0.12622972645E+04  0.12622972645E+04  0.00000000000E+00 0. -1.
         23    2    1    2    0    0 -0.25186668069E+03  0.33288317852E+03 -0.21630709667E+03  0.47871544460E+03  0.90175836282E+02 0.  0.
        254    2    1    2    0    0  0.25186668069E+03 -0.33288317852E+03 -0.62709957585E+03  0.12024724118E+04  0.93725022682E+03 0.  0.
        -24    2    4    4    0    0  0.21185337431E+03  0.28063233483E+03 -0.40864167923E+03  0.54530860494E+03  0.82079796825E+02 0.  0.
         24    2    4    4    0    0  0.40013306372E+02 -0.61351551335E+03 -0.21845789662E+03  0.65716380685E+03  0.78345814340E+02 0.  0.
         11    1    3    3    0    0 -0.23171569302E+03  0.26054617669E+03 -0.15413694436E+03  0.38122784551E+03  0.00000000000E+00 0.  1.
        -11    1    3    3    0    0 -0.20150987672E+02  0.72337001830E+02 -0.62170152314E+02  0.97487599092E+02  0.00000000000E+00 0. -1.
          2    1    6    6  502    0 -0.39638865706E+01 -0.27413435836E+03 -0.63093821529E+02  0.28132932507E+03  0.00000000000E+00 0. -1.
          3    1    5    5  503    0  0.21950626118E+03  0.27038078092E+03 -0.39325127835E+03  0.52529547239E+03  0.00000000000E+00 0. -1.
         -4    1    5    5    0  503 -0.76528868639E+01  0.10251553919E+02 -0.15390400881E+02  0.20013132548E+02  0.00000000000E+00 0.  1.
         -1    1    6    6    0  502  0.43977192943E+02 -0.33938115499E+03 -0.15536407509E+03  0.37583448177E+03  0.00000000000E+00 0.  1.
<mgrwt>
<rscale>  0 0.14543238E+04</rscale>
<asrwt>0</asrwt>
<pdfrwt beam="1">  1        2 0.19419957E+00 0.14543238E+04</pdfrwt>
<pdfrwt beam="2">  1       -2 0.64444709E-01 0.14543238E+04</pdfrwt>
<totfact> 0.37501675E+01</totfact>
</mgrwt>
</event>
<event>
12    1  0.1598876E-007  0.1733904E+04  0.7818608E-02  0.8742261E-01
         -1   -1    0    0    0  501 -0.00000000000E+00  0.00000000000E+00  0.10870764189E+04  0.10870764189E+04  0.00000000000E+00 0.  1.
          1   -1    0    0  501    0  0.00000000000E+00 -0.00000000000E+00 -0.69140097579E+03  0.69140097579E+03  0.00000000000E+00 0. -1.
         23    2    1    2    0    0 -0.10077486309E+03 -0.60777902366E+03  0.79772312811E+02  0.62779337148E+03  0.90608944110E+02 0.  0.
        254    2    1    2    0    0  0.10077486309E+03  0.60777902366E+03  0.31590313028E+03  0.11506840232E+04  0.91909086540E+03 0.  0.
        -24    2    4    4    0    0 -0.33704526102E+02  0.15132509441E+03 -0.31315405276E+03  0.35819723293E+03  0.78768760589E+02 0.  0.
         24    2    4    4    0    0  0.13447938919E+03  0.45645392925E+03  0.62905718304E+03  0.79248679026E+03  0.76729899982E+02 0.  0.
         11    1    3    3    0    0 -0.65581718523E+02 -0.24439059030E+03  0.70137646222E+02  0.26257763014E+03  0.00000000000E+00 0. -1.
        -11    1    3    3    0    0 -0.35193144569E+02 -0.36338843336E+03  0.96346665888E+01  0.36521574134E+03  0.00000000000E+00 0.  1.
          4    1    6    6  502    0  0.44564638037E+02  0.27391669189E+03  0.33754424501E+03  0.43698109616E+03  0.00000000000E+00 0. -1.
          3    1    5    5  503    0  0.44792482208E+01  0.12679779707E+03 -0.25091802363E+03  0.28117183285E+03  0.00000000000E+00 0. -1.
         -4    1    5    5    0  503 -0.38183774323E+02  0.24527297340E+02 -0.62236029128E+02  0.77025400083E+02  0.00000000000E+00 0.  1.
         -3    1    6    6    0  502  0.89914751157E+02  0.18253723736E+03  0.29151293802E+03  0.35550569410E+03  0.00000000000E+00 0.  1.
<mgrwt>
<rscale>  0 0.17339039E+04</rscale>
<asrwt>0</asrwt>
<pdfrwt beam="1">  1        1 0.10636938E+00 0.17339039E+04</pdfrwt>
<pdfrwt beam="2">  1       -1 0.16724253E+00 0.17339039E+04</pdfrwt>
<totfact> 0.67929991E+00</totfact>
</mgrwt>
</event>
<event>
12    1  0.1598876E-007  0.1422057E+04  0.7818608E-02  0.8938006E-01
         -2   -1    0    0    0  501 -0.00000000000E+00  0.00000000000E+00  0.48392339825E+03  0.48392339825E+03  0.00000000000E+00 0.  1.
          2   -1    0    0  501    0  0.00000000000E+00 -0.00000000000E+00 -0.10447135216E+04  0.10447135216E+04  0.00000000000E+00 0. -1.
         23    2    1    2    0    0  0.17943399333E+03  0.14818662480E+03 -0.54014401162E+03  0.59505740798E+03  0.90454031256E+02 0.  0.
        254    2    1    2    0    0 -0.17943399333E+03 -0.14818662480E+03 -0.20646111717E+02  0.93357951185E+03  0.90387422205E+03 0.  0.
        -24    2    4    4    0    0  0.48301790449E+02  0.33390928255E+03  0.13665856695E+03  0.37213960055E+03  0.77355325917E+02 0.  0.
         24    2    4    4    0    0 -0.22773578378E+03 -0.48209590735E+03 -0.15730467866E+03  0.56143991130E+03  0.78676305005E+02 0.  0.
         11    1    3    3    0    0  0.15007665185E+03  0.15788843184E+03 -0.45457216540E+03  0.50407103854E+03  0.00000000000E+00 0. -1.
        -11    1    3    3    0    0  0.29357341482E+02 -0.97018070331E+01 -0.85571846215E+02  0.90986369437E+02  0.00000000000E+00 0.  1.
          2    1    6    6  502    0 -0.62131356617E+02 -0.95561149547E+02 -0.46685888577E+01  0.11407907126E+03  0.00000000000E+00 0. -1.
          1    1    5    5  503    0 -0.20703217733E+02  0.10478988010E+03  0.44747113675E+02  0.11580952628E+03  0.00000000000E+00 0. -1.
         -2    1    5    5    0  503  0.69005008182E+02  0.22911940245E+03  0.91911453270E+02  0.25633007427E+03  0.00000000000E+00 0.  1.
         -1    1    6    6    0  502 -0.16560442716E+03 -0.38653475781E+03 -0.15263608980E+03  0.44736084004E+03  0.00000000000E+00 0.  1.
<mgrwt>
<rscale>  0 0.14220567E+04</rscale>
<asrwt>0</asrwt>
<pdfrwt beam="1">  1        2 0.16072515E+00 0.14220567E+04</pdfrwt>
<pdfrwt beam="2">  1       -2 0.74449755E-01 0.14220567E+04</pdfrwt>
<totfact> 0.37213668E+01</totfact>
</mgrwt>
</event>
<event>
12    1  0.1598876E-007  0.1378348E+04  0.7818608E-02  0.8969642E-01
          1   -1    0    0  501    0  0.00000000000E+00  0.00000000000E+00  0.88966689941E+03  0.88966689941E+03  0.00000000000E+00 0. -1.
         -1   -1    0    0    0  501 -0.00000000000E+00 -0.00000000000E+00 -0.53386368407E+03  0.53386368407E+03  0.00000000000E+00 0.  1.
         23    2    1    2    0    0 -0.61513801599E+02  0.10865254088E+03 -0.25894578616E+03  0.30148963318E+03  0.90850186121E+02 0.  0.
        254    2    1    2    0    0  0.61513801599E+02 -0.10865254088E+03  0.61474900151E+03  0.11220409503E+04  0.93030652844E+03 0.  0.
        -24    2    4    4    0    0 -0.23584689411E+02 -0.14085906007E+03 -0.22232779792E+03  0.27631082198E+03  0.80749664014E+02 0.  0.
         24    2    4    4    0    0  0.85098491010E+02  0.32206519193E+02  0.83707679943E+03  0.84573012831E+03  0.79264549096E+02 0.  0.
         13    1    3    3    0    0  0.23257882281E+02  0.14400719016E+02 -0.39200323801E+02  0.47801414022E+02  0.00000000000E+00 0. -1.
        -13    1    3    3    0    0 -0.84771683879E+02  0.94251821861E+02 -0.21974546236E+03  0.25368821916E+03  0.00000000000E+00 0.  1.
          2    1    6    6  502    0  0.10020942666E+03  0.32492148545E+02  0.74763821151E+03  0.75502355210E+03  0.00000000000E+00 0. -1.
          1    1    5    5  503    0 -0.47503005270E+02 -0.12874212949E+03 -0.18406241948E+03  0.22958668446E+03  0.00000000000E+00 0. -1.
         -2    1    5    5    0  503  0.23918315859E+02 -0.12116930576E+02 -0.38265378443E+02  0.46724137526E+02  0.00000000000E+00 0.  1.
         -1    1    6    6    0  502 -0.15110935648E+02 -0.28562935200E+00  0.89438587916E+02  0.90706576215E+02  0.00000000000E+00 0.  1.
<mgrwt>
<rscale>  0 0.13783481E+04</rscale>
<asrwt>0</asrwt>
<pdfrwt beam="1">  1        1 0.13687183E+00 0.13783481E+04</pdfrwt>
<pdfrwt beam="2">  1       -1 0.82132874E-01 0.13783481E+04</pdfrwt>
<totfact> 0.26732407E+01</totfact>
</mgrwt>
</event>
<event>
12    1  0.1598876E-007  0.1094002E+04  0.7818608E-02  0.9211058E-01
          2   -1    0    0  501    0  0.00000000000E+00  0.00000000000E+00  0.24679950330E+03  0.24679950330E+03  0.00000000000E+00 0. -1.
         -2   -1    0    0    0  501 -0.00000000000E+00 -0.00000000000E+00 -0.12123599943E+04  0.12123599943E+04  0.00000000000E+00 0.  1.
         23    2    1    2    0    0  0.21482317923E+01 -0.12771621170E+03 -0.26957373526E+03  0.31183394336E+03  0.90853529688E+02 0.  0.
        254    2    1    2    0    0 -0.21482317923E+01  0.12771621170E+03 -0.69598675572E+03  0.11473255542E+04  0.90312918101E+03 0.  0.
        -24    2    4    4    0    0 -0.30788298864E+03 -0.24451311569E+03 -0.44372765499E+03  0.59806002617E+03  0.78758902085E+02 0.  0.
         24    2    4    4    0    0  0.30573475685E+03  0.37222932739E+03 -0.25225910072E+03  0.54926552805E+03  0.77650194388E+02 0.  0.
         13    1    3    3    0    0 -0.32297634142E+01 -0.35547990454E+02 -0.17891029879E+03  0.18243625191E+03  0.00000000000E+00 0.  1.
        -13    1    3    3    0    0  0.53779952065E+01 -0.92168221246E+02 -0.90663436475E+02  0.12939769145E+03  0.00000000000E+00 0. -1.
          4    1    6    6  502    0  0.73800022805E+02  0.57805335777E+02 -0.24015909356E+02  0.96771194643E+02  0.00000000000E+00 0. -1.
          1    1    5    5  503    0  0.28945303780E+01  0.26052086457E+01 -0.36270281891E+01  0.53217245026E+01  0.00000000000E+00 0. -1.
         -2    1    5    5    0  503 -0.31077751902E+03 -0.24711832434E+03 -0.44010062681E+03  0.59273830167E+03  0.00000000000E+00 0.  1.
         -3    1    6    6    0  502  0.23193473404E+03  0.31442399161E+03 -0.22824319137E+03  0.45249433340E+03  0.00000000000E+00 0.  1.
<mgrwt>
<rscale>  0 0.10940015E+04</rscale>
<asrwt>0</asrwt>
<pdfrwt beam="1">  1        2 0.37969154E-01 0.10940015E+04</pdfrwt>
<pdfrwt beam="2">  1       -2 0.18651693E+00 0.10940015E+04</pdfrwt>
<totfact> 0.22177285E+01</totfact>
</mgrwt>
</event>
<event>
12    1  0.1598876E-007  0.1615398E+04  0.7818608E-02  0.8811144E-01
         -2   -1    0    0    0  501 -0.00000000000E+00  0.00000000000E+00  0.14705565012E+03  0.14705565012E+03  0.00000000000E+00 0.  1.
          2   -1    0    0  501    0  0.00000000000E+00 -0.00000000000E+00 -0.44362655510E+04  0.44362655510E+04  0.00000000000E+00 0. -1.
         23    2    1    2    0    0  0.28340926179E+03 -0.26478013311E+03 -0.24679538681E+04  0.24998322016E+04  0.89080932546E+02 0.  0.
        254    2    1    2    0    0 -0.28340926179E+03  0.26478013311E+03 -0.18212560327E+04  0.20834889995E+04  0.93462481541E+03 0.  0.
        -24    2    4    4    0    0 -0.17828853071E+02 -0.10201368647E+03 -0.15373059452E+04  0.15428873761E+04  0.80419064334E+02 0.  0.
         24    2    4    4    0    0 -0.26558040872E+03  0.36679381958E+03 -0.28395008755E+03  0.54060162340E+03  0.80943211116E+02 0.  0.
         11    1    3    3    0    0  0.13714914914E+03 -0.75885403289E+02 -0.11122043301E+04  0.11231949766E+04  0.00000000000E+00 0. -1.
        -11    1    3    3    0    0  0.14626011265E+03 -0.18889472982E+03 -0.13557495380E+04  0.13766372250E+04  0.00000000000E+00 0.  1.
          2    1    6    6  502    0 -0.61883552725E+02  0.36187168961E+02 -0.42619791929E+02  0.83399831890E+02  0.00000000000E+00 0. -1.
          3    1    5    5  503    0  0.24446494281E+02 -0.22290927933E+02 -0.21767807431E+03  0.22017779312E+03  0.00000000000E+00 0. -1.
         -4    1    5    5    0  503 -0.42275347352E+02 -0.79722758537E+02 -0.13196278709E+04  0.13227095829E+04  0.00000000000E+00 0.  1.
         -1    1    6    6    0  502 -0.20369685600E+03  0.33060665061E+03 -0.24133029562E+03  0.45720179151E+03  0.00000000000E+00 0.  1.
<mgrwt>
<rscale>  0 0.16153983E+04</rscale>
<asrwt>0</asrwt>
<pdfrwt beam="1">  1        2 0.68250242E+00 0.16153983E+04</pdfrwt>
<pdfrwt beam="2">  1       -2 0.22623945E-01 0.16153983E+04</pdfrwt>
<totfact> 0.24006381E+00</totfact>
</mgrwt>
</event>
<event>
12    1  0.1598876E-007  0.1384342E+04  0.7818608E-02  0.8965231E-01
         -1   -1    0    0    0  501 -0.00000000000E+00  0.00000000000E+00  0.94625814767E+03  0.94625814767E+03  0.00000000000E+00 0.  1.
          1   -1    0    0  501    0  0.00000000000E+00 -0.00000000000E+00 -0.50631050248E+03  0.50631050248E+03  0.00000000000E+00 0. -1.
         23    2    1    2    0    0 -0.23231357399E+03  0.35832909250E+03  0.49485440594E+02  0.43928470824E+03  0.90293470834E+02 0.  0.
        254    2    1    2    0    0  0.23231357399E+03 -0.35832909250E+03  0.39046220459E+03  0.10132839419E+04  0.83181384848E+03 0.  0.
        -24    2    4    4    0    0  0.63877686426E+02  0.82074605709E+02 -0.20885606035E+03  0.24666587481E+03  0.80041240168E+02 0.  0.
         24    2    4    4    0    0  0.16843588756E+03 -0.44040369821E+03  0.59931826494E+03  0.76661806710E+03  0.78707131146E+02 0.  0.
         11    1    3    3    0    0 -0.76105088401E+02  0.18571660101E+03  0.48498912380E+02  0.20648192384E+03  0.00000000000E+00 0.  1.
        -11    1    3    3    0    0 -0.15620848559E+03  0.17261249149E+03  0.98652821461E+00  0.23280278440E+03  0.00000000000E+00 0. -1.
          2    1    6    6  502    0  0.53995140959E+02 -0.67629089373E+02  0.86230127113E+02  0.12216711423E+03  0.00000000000E+00 0. -1.
          3    1    5    5  503    0  0.95190815914E+00  0.69250981736E+01 -0.99766397763E+02  0.10001098558E+03  0.00000000000E+00 0. -1.
         -4    1    5    5    0  503  0.62925778266E+02  0.75149507536E+02 -0.10908966259E+03  0.14665488923E+03  0.00000000000E+00 0.  1.
         -1    1    6    6    0  502  0.11444074660E+03 -0.37277460883E+03  0.51308813783E+03  0.64445095287E+03  0.00000000000E+00 0.  1.
<mgrwt>
<rscale>  0 0.13843416E+04</rscale>
<asrwt>0</asrwt>
<pdfrwt beam="1">  1        1 0.77893924E-01 0.13843416E+04</pdfrwt>
<pdfrwt beam="2">  1       -1 0.14557818E+00 0.13843416E+04</pdfrwt>
<totfact> 0.16078319E+01</totfact>
</mgrwt>
</event>
<event>
12    1  0.1598876E-007  0.2343549E+04  0.7818608E-02  0.8460945E-01
         -2   -1    0    0    0  501 -0.00000000000E+00  0.00000000000E+00  0.96481007578E+03  0.96481007578E+03  0.00000000000E+00 0.  1.
          2   -1    0    0  501    0  0.00000000000E+00 -0.00000000000E+00 -0.14231359836E+04  0.14231359836E+04  0.00000000000E+00 0. -1.
         23    2    1    2    0    0  0.43769429342E+03 -0.43469645973E+03 -0.10583114433E+04  0.12283698304E+04  0.91279913286E+02 0.  0.
        254    2    1    2    0    0 -0.43769429342E+03  0.43469645973E+03  0.59998553550E+03  0.11595762290E+04  0.77723682454E+03 0.  0.
        -24    2    4    4    0    0  0.84643113787E+02 -0.12705847496E+03 -0.15827293083E+02  0.17283068371E+03  0.79445762972E+02 0.  0.
         24    2    4    4    0    0 -0.52233740720E+03  0.56175493469E+03  0.61581282858E+03  0.98674554527E+03  0.77694000080E+02 0.  0.
         13    1    3    3    0    0  0.33270072040E+03 -0.38033845809E+03 -0.86335794631E+03  0.10003669604E+04  0.00000000000E+00 0. -1.
        -13    1    3    3    0    0  0.10499357301E+03 -0.54358001642E+02 -0.19495349696E+03  0.22800286993E+03  0.00000000000E+00 0.  1.
          2    1    6    6  502    0 -0.24365136760E+03  0.25330875403E+03  0.23342689524E+03  0.42192348740E+03  0.00000000000E+00 0. -1.
          3    1    5    5  503    0  0.92354669925E+02 -0.12344840158E+03  0.77351942396E+00  0.15417357505E+03  0.00000000000E+00 0. -1.
         -4    1    5    5    0  503 -0.77115561372E+01 -0.36100733811E+01 -0.16600812507E+02  0.18657108666E+02  0.00000000000E+00 0.  1.
         -1    1    6    6    0  502 -0.27868603961E+03  0.30844618067E+03  0.38238593334E+03  0.56482205787E+03  0.00000000000E+00 0.  1.
<mgrwt>
<rscale>  0 0.23435494E+04</rscale>
<asrwt>0</asrwt>
<pdfrwt beam="1">  1        2 0.21894400E+00 0.23435494E+04</pdfrwt>
<pdfrwt beam="2">  1       -2 0.14843232E+00 0.23435494E+04</pdfrwt>
<totfact> 0.39071508E+00</totfact>
</mgrwt>
</event>
<event>
12    1  0.1598876E-007  0.2451537E+04  0.7818608E-02  0.8420457E-01
          1   -1    0    0  501    0  0.00000000000E+00  0.00000000000E+00  0.31563327674E+04  0.31563327674E+04  0.00000000000E+00 0. -1.
         -1   -1    0    0    0  501 -0.00000000000E+00 -0.00000000000E+00 -0.47602995303E+03  0.47602995303E+03  0.00000000000E+00 0.  1.
         23    2    1    2    0    0 -0.59431915175E+03 -0.73103796540E+03  0.44658644357E+03  0.10464130765E+04  0.88933200276E+02 0.  0.
        254    2    1    2    0    0  0.59431915175E+03  0.73103796540E+03  0.22337163708E+04  0.25859496439E+04  0.90000831929E+03 0.  0.
        -24    2    4    4    0    0  0.71316978071E+03  0.60384244953E+03  0.22031402253E+04  0.23943294201E+04  0.75826642816E+02 0.  0.
         24    2    4    4    0    0 -0.11885062896E+03  0.12719551587E+03  0.30576145481E+02  0.19162022380E+03  0.74021876721E+02 0.  0.
         13    1    3    3    0    0 -0.18934401208E+03 -0.25623782414E+03  0.10790598762E+03  0.33638174682E+03  0.00000000000E+00 0.  1.
        -13    1    3    3    0    0 -0.40497513967E+03 -0.47480014125E+03  0.33868045595E+03  0.71003132968E+03  0.00000000000E+00 0. -1.
          2    1    6    6  502    0 -0.12403687825E+03  0.10847237253E+03  0.40676733662E+02  0.16972330255E+03  0.00000000000E+00 0. -1.
          1    1    5    5  503    0  0.31765378252E+03  0.23633025484E+03  0.10041857429E+04  0.10794187886E+04  0.00000000000E+00 0. -1.
         -2    1    5    5    0  503  0.39551599819E+03  0.36751219468E+03  0.11989544824E+04  0.13149106315E+04  0.00000000000E+00 0.  1.
         -1    1    6    6    0  502  0.51862492901E+01  0.18723143341E+02 -0.10100588182E+02  0.21896921242E+02  0.00000000000E+00 0.  1.
<mgrwt>
<rscale>  0 0.24515374E+04</rscale>
<asrwt>0</asrwt>
<pdfrwt beam="1">  1        1 0.48558964E+00 0.24515374E+04</pdfrwt>
<pdfrwt beam="2">  1       -1 0.73235379E-01 0.24515374E+04</pdfrwt>
<totfact> 0.76855290E-01</totfact>
</mgrwt>
</event>
<event>
12    1  0.1598876E-007  0.1866318E+04  0.7818608E-02  0.8671806E-01
          1   -1    0    0  501    0  0.00000000000E+00  0.00000000000E+00  0.78687335073E+03  0.78687335073E+03  0.00000000000E+00 0. -1.
         -1   -1    0    0    0  501 -0.00000000000E+00 -0.00000000000E+00 -0.11066400218E+04  0.11066400218E+04  0.00000000000E+00 0.  1.
         23    2    1    2    0    0  0.30092546175E+03 -0.63871960890E+03 -0.62300367011E+01  0.71186870401E+03  0.90550351004E+02 0.  0.
        254    2    1    2    0    0 -0.30092546175E+03  0.63871960890E+03 -0.31353663433E+03  0.11816446685E+04  0.89412528718E+03 0.  0.
        -24    2    4    4    0    0  0.18636849934E+03  0.29986315349E+02 -0.34089718276E+03  0.39751414363E+03  0.78576131975E+02 0.  0.
         24    2    4    4    0    0 -0.48729396109E+03  0.60873329355E+03  0.27360548432E+02  0.78413052486E+03  0.78105398115E+02 0.  0.
         11    1    3    3    0    0  0.86482290883E+01 -0.38380339978E+02 -0.19755894030E+02  0.44024285481E+02  0.00000000000E+00 0. -1.
        -11    1    3    3    0    0  0.29227723266E+03 -0.60033926892E+03  0.13525857329E+02  0.66784441853E+03  0.00000000000E+00 0.  1.
          4    1    6    6  502    0 -0.48260185890E+02  0.83647201095E+02  0.24700465488E+02  0.99679550503E+02  0.00000000000E+00 0. -1.
          3    1    5    5  503    0  0.35876277219E+02 -0.15963305422E+02 -0.31265332693E+02  0.50194177107E+02  0.00000000000E+00 0. -1.
         -4    1    5    5    0  503  0.15049222212E+03  0.45949620771E+02 -0.30963185007E+03  0.34731996652E+03  0.00000000000E+00 0.  1.
         -3    1    6    6    0  502 -0.43903377520E+03  0.52508609246E+03  0.26600829436E+01  0.68445097436E+03  0.00000000000E+00 0.  1.
<mgrwt>
<rscale>  0 0.18663178E+04</rscale>
<asrwt>0</asrwt>
<pdfrwt beam="1">  1        1 0.12105744E+00 0.18663178E+04</pdfrwt>
<pdfrwt beam="2">  1       -1 0.17025231E+00 0.18663178E+04</pdfrwt>
<totfact> 0.52193556E+00</totfact>
</mgrwt>
</event>
<event>
12    1  0.1598876E-007  0.1445458E+04  0.7818608E-02  0.8921556E-01
         -2   -1    0    0    0  501 -0.00000000000E+00  0.00000000000E+00  0.54624947667E+03  0.54624947667E+03  0.00000000000E+00 0.  1.
          2   -1    0    0  501    0  0.00000000000E+00 -0.00000000000E+00 -0.95622425728E+03  0.95622425728E+03  0.00000000000E+00 0. -1.
         23    2    1    2    0    0  0.36148636052E+03  0.75427482887E+02  0.12177630500E+03  0.39942264528E+03  0.91363488814E+02 0.  0.
        254    2    1    2    0    0 -0.36148636052E+03 -0.75427482887E+02 -0.53175108562E+03  0.11030510887E+04  0.89308498652E+03 0.  0.
        -24    2    4    4    0    0  0.60532930493E+02  0.34928461342E+03 -0.19968692778E+03  0.41361951488E+03  0.74446337184E+02 0.  0.
         24    2    4    4    0    0 -0.42201929101E+03 -0.42471209630E+03 -0.33206415783E+03  0.68943157378E+03  0.81047166998E+02 0.  0.
         11    1    3    3    0    0  0.11554318878E+03  0.46950552830E+02  0.80441443314E+02  0.14840959770E+03  0.00000000000E+00 0. -1.
        -11    1    3    3    0    0  0.24594317174E+03  0.28476930057E+02  0.41334861690E+02  0.25101304759E+03  0.00000000000E+00 0.  1.
          2    1    6    6  502    0 -0.39480356561E+03 -0.37311097815E+03 -0.27948653618E+03  0.61089637529E+03  0.00000000000E+00 0. -1.
          3    1    5    5  503    0  0.11929342931E+01  0.20149628849E+03 -0.92968634453E+02  0.22191292067E+03  0.00000000000E+00 0. -1.
         -4    1    5    5    0  503  0.59339996200E+02  0.14778832493E+03 -0.10671829333E+03  0.19170659421E+03  0.00000000000E+00 0.  1.
         -1    1    6    6    0  502 -0.27215725400E+02 -0.51601118159E+02 -0.52577621650E+02  0.78535198495E+02  0.00000000000E+00 0.  1.
<mgrwt>
<rscale>  0 0.14454577E+04</rscale>
<asrwt>0</asrwt>
<pdfrwt beam="1">  1        2 0.14711142E+00 0.14454577E+04</pdfrwt>
<pdfrwt beam="2">  1       -2 0.84038381E-01 0.14454577E+04</pdfrwt>
<totfact> 0.32270942E+01</totfact>
</mgrwt>
</event>
<event>
12    1  0.1598876E-007  0.2451125E+04  0.7818608E-02  0.8420607E-01
         -1   -1    0    0    0  501 -0.00000000000E+00  0.00000000000E+00  0.22516253007E+04  0.22516253007E+04  0.00000000000E+00 0.  1.
          1   -1    0    0  501    0  0.00000000000E+00 -0.00000000000E+00 -0.66707524254E+03  0.66707524254E+03  0.00000000000E+00 0. -1.
         23    2    1    2    0    0 -0.16251477542E+03 -0.28076598721E+02  0.19610439811E+04  0.19709219596E+04  0.10789127412E+03 0.  0.
        254    2    1    2    0    0  0.16251477542E+03  0.28076598721E+02 -0.37649392295E+03  0.94777858373E+03  0.85401242504E+03 0.  0.
        -24    2    4    4    0    0  0.44373504789E+03 -0.16493597482E+03 -0.72924123216E+02  0.48474797725E+03  0.74552030046E+02 0.  0.
         24    2    4    4    0    0 -0.28122027247E+03  0.19301257354E+03 -0.30356979974E+03  0.46303060648E+03  0.76837647209E+02 0.  0.
         13    1    3    3    0    0 -0.69637912309E+01 -0.39702372140E+02  0.47843374475E+03  0.48012875445E+03  0.00000000000E+00 0. -1.
        -13    1    3    3    0    0 -0.15555098419E+03  0.11625773420E+02  0.14826102364E+04  0.14907932051E+04  0.00000000000E+00 0.  1.
          2    1    6    6  502    0 -0.16384602068E+03  0.12262471161E+03 -0.13187068249E+03  0.24345885749E+03  0.00000000000E+00 0. -1.
          3    1    5    5  503    0  0.40696984124E+03 -0.15080869941E+03 -0.87509937903E+02  0.44274790201E+03  0.00000000000E+00 0. -1.
         -2    1    5    5    0  503  0.36765206651E+02 -0.14127275407E+02  0.14585814687E+02  0.42000075245E+02  0.00000000000E+00 0.  1.
         -1    1    6    6    0  502 -0.11737425180E+03  0.70387861932E+02 -0.17169911724E+03  0.21957174899E+03  0.00000000000E+00 0.  1.
<mgrwt>
<rscale>  0 0.24511250E+04</rscale>
<asrwt>0</asrwt>
<pdfrwt beam="1">  1        1 0.10262696E+00 0.24511250E+04</pdfrwt>
<pdfrwt beam="2">  1       -1 0.34640389E+00 0.24511250E+04</pdfrwt>
<totfact> 0.42923816E-01</totfact>
</mgrwt>
</event>
<event>
12    1  0.1598876E-007  0.2871506E+04  0.7818608E-02  0.8281406E-01
          1   -1    0    0  501    0  0.00000000000E+00  0.00000000000E+00  0.17802386172E+04  0.17802386172E+04  0.00000000000E+00 0. -1.
         -1   -1    0    0    0  501 -0.00000000000E+00 -0.00000000000E+00 -0.11579270101E+04  0.11579270101E+04  0.00000000000E+00 0.  1.
         23    2    1    2    0    0  0.49530383113E+03  0.72754386689E+03  0.12529235495E+04  0.15339792882E+04  0.92892800354E+02 0.  0.
        254    2    1    2    0    0 -0.49530383113E+03 -0.72754386689E+03 -0.63061194241E+03  0.14041863391E+04  0.89410395908E+03 0.  0.
        -24    2    4    4    0    0 -0.44987453461E+03 -0.42269818970E+03  0.78173279775E+02  0.62673404127E+03  0.74990935125E+02 0.  0.
         24    2    4    4    0    0 -0.45429296521E+02 -0.30484567718E+03 -0.70878522218E+03  0.77745229783E+03  0.84029020812E+02 0.  0.
         11    1    3    3    0    0  0.40345053167E+03  0.60317834460E+03  0.96788677440E+03  0.12097112279E+04  0.00000000000E+00 0. -1.
        -11    1    3    3    0    0  0.91853299452E+02  0.12436552228E+03  0.28503677514E+03  0.32426806031E+03  0.00000000000E+00 0.  1.
          2    1    6    6  502    0 -0.36121748533E+02 -0.26954133230E+03 -0.67493632059E+03  0.72766499667E+03  0.00000000000E+00 0. -1.
          1    1    5    5  503    0 -0.24141055653E+03 -0.18243575046E+03  0.57194792439E+02  0.30794984028E+03  0.00000000000E+00 0. -1.
         -2    1    5    5    0  503 -0.20846397808E+03 -0.24026243924E+03  0.20978487336E+02  0.31878420099E+03  0.00000000000E+00 0.  1.
         -1    1    6    6    0  502 -0.93075479881E+01 -0.35304344889E+02 -0.33848901595E+02  0.49787301160E+02  0.00000000000E+00 0.  1.
<mgrwt>
<rscale>  0 0.28715058E+04</rscale>
<asrwt>0</asrwt>
<pdfrwt beam="1">  1        1 0.27388287E+00 0.28715058E+04</pdfrwt>
<pdfrwt beam="2">  1       -1 0.17814262E+00 0.28715058E+04</pdfrwt>
<totfact> 0.77604304E-01</totfact>
</mgrwt>
</event>
<event>
12    1  0.1598876E-007  0.2266893E+04  0.7818608E-02  0.8491090E-01
         -2   -1    0    0    0  501 -0.00000000000E+00  0.00000000000E+00  0.72470204405E+03  0.72470204405E+03  0.00000000000E+00 0. -1.
          2   -1    0    0  501    0  0.00000000000E+00 -0.00000000000E+00 -0.17727293437E+04  0.17727293437E+04  0.00000000000E+00 0.  1.
         23    2    1    2    0    0 -0.19812160757E+03 -0.30485260552E+03 -0.13948127300E+04  0.14442735689E+04  0.90754105020E+02 0.  0.
        254    2    1    2    0    0  0.19812160757E+03  0.30485260552E+03  0.34678543039E+03  0.10531578188E+04  0.92557764348E+03 0.  0.
        -24    2    4    4    0    0  0.36520493772E+03  0.28425155147E+03 -0.17298491805E+03  0.50043502847E+03  0.79610582219E+02 0.  0.
         24    2    4    4    0    0 -0.16708333015E+03  0.20601054048E+02  0.51977034844E+03  0.55272279034E+03  0.83666153265E+02 0.  0.
         13    1    3    3    0    0 -0.51605470687E+02 -0.52345102783E+02 -0.43079981946E+03  0.43702587891E+03  0.00000000000E+00 0. -1.
        -13    1    3    3    0    0 -0.14651613688E+03 -0.25250750273E+03 -0.96401291055E+03  0.10072476900E+04  0.00000000000E+00 0.  1.
          2    1    6    6  502    0 -0.11602812258E+03 -0.13049527674E+02  0.41794743069E+03  0.43395030847E+03  0.00000000000E+00 0. -1.
          1    1    5    5  503    0  0.32988205222E+03  0.27091979786E+03 -0.17770953405E+03  0.46238553583E+03  0.00000000000E+00 0. -1.
         -2    1    5    5    0  503  0.35322885498E+02  0.13331753604E+02  0.47246159953E+01  0.38049492642E+02  0.00000000000E+00 0.  1.
         -1    1    6    6    0  502 -0.51055207568E+02  0.33650581722E+02  0.10182291775E+03  0.11877248187E+03  0.00000000000E+00 0.  1.
<mgrwt>
<rscale>  0 0.22668927E+04</rscale>
<asrwt>0</asrwt>
<pdfrwt beam="1">  1        2 0.27272759E+00 0.22668927E+04</pdfrwt>
<pdfrwt beam="2">  1       -2 0.11149262E+00 0.22668927E+04</pdfrwt>
<totfact> 0.51651872E+00</totfact>
</mgrwt>
</event>
<event>
12    1  0.1598876E-007  0.2277020E+04  0.7818608E-02  0.8487037E-01
          1   -1    0    0  501    0  0.00000000000E+00  0.00000000000E+00  0.15362497735E+04  0.15362497735E+04  0.00000000000E+00 0. -1.
         -1   -1    0    0    0  501 -0.00000000000E+00 -0.00000000000E+00 -0.84374591656E+03  0.84374591656E+03  0.00000000000E+00 0.  1.
         23    2    1    2    0    0  0.14321886468E+03 -0.90433289696E+03  0.58616541632E+03  0.10908776368E+04  0.89969391571E+02 0.  0.
        254    2    1    2    0    0 -0.14321886468E+03  0.90433289696E+03  0.10633844062E+03  0.12891180533E+04  0.90121465790E+03 0.  0.
        -24    2    4    4    0    0  0.36098741401E+03  0.54762730041E+03  0.81781504325E+02  0.66589009355E+03  0.80708295827E+02 0.  0.
         24    2    4    4    0    0 -0.50420627869E+03  0.35670559655E+03  0.24556936294E+02  0.62322795973E+03  0.79669270004E+02 0.  0.
         11    1    3    3    0    0  0.42427656498E+02 -0.22737170734E+03  0.10360005916E+03  0.25343829938E+03  0.00000000000E+00 0. -1.
        -11    1    3    3    0    0  0.10079120819E+03 -0.67696118962E+03  0.48256535716E+03  0.83743933740E+03  0.00000000000E+00 0.  1.
          4    1    6    6  502    0 -0.13649204625E+01  0.11362342123E+02 -0.50318917625E+01  0.12501430363E+02  0.00000000000E+00 0. -1.
          3    1    5    5  503    0  0.49941289458E+02  0.10623204047E+03 -0.11363677231E+02  0.11793435451E+03  0.00000000000E+00 0. -1.
         -4    1    5    5    0  503  0.31104612455E+03  0.44139525994E+03  0.93145181557E+02  0.54795573904E+03  0.00000000000E+00 0.  1.
         -3    1    6    6    0  502 -0.50284135823E+03  0.34534325443E+03  0.29588828056E+02  0.61072652937E+03  0.00000000000E+00 0.  1.
<mgrwt>
<rscale>  0 0.22770195E+04</rscale>
<asrwt>0</asrwt>
<pdfrwt beam="1">  1        1 0.23634612E+00 0.22770195E+04</pdfrwt>
<pdfrwt beam="2">  1       -1 0.12980706E+00 0.22770195E+04</pdfrwt>
<totfact> 0.28465455E+00</totfact>
</mgrwt>
</event>
<event>
12    1  0.1598876E-007  0.2044364E+04  0.7818608E-02  0.8586156E-01
          1   -1    0    0  501    0  0.00000000000E+00  0.00000000000E+00  0.20798246066E+04  0.20798246066E+04  0.00000000000E+00 0. -1.
         -1   -1    0    0    0  501 -0.00000000000E+00 -0.00000000000E+00 -0.50237688482E+03  0.50237688482E+03  0.00000000000E+00 0.  1.
         23    2    1    2    0    0 -0.90767324627E+02 -0.63690749918E+03  0.12783777904E+04  0.14340574443E+04  0.91548396279E+02 0.  0.
        254    2    1    2    0    0  0.90767324627E+02  0.63690749918E+03  0.29906993141E+03  0.11481440471E+04  0.90271925835E+03 0.  0.
        -24    2    4    4    0    0 -0.69099706148E+02 -0.45211019362E+02 -0.23716337953E+03  0.26235285230E+03  0.75919331281E+02 0.  0.
         24    2    4    4    0    0  0.15986703077E+03  0.68211851854E+03  0.53623331094E+03  0.88579119484E+03  0.78973009559E+02 0.  0.
         11    1    3    3    0    0 -0.63621763968E+02 -0.46239511466E+03  0.83149256690E+03  0.95353912333E+03  0.00000000000E+00 0.  1.
        -11    1    3    3    0    0 -0.27145560659E+02 -0.17451238452E+03  0.44688522349E+03  0.48051832097E+03  0.00000000000E+00 0. -1.
          4    1    6    6  502    0  0.35479787521E+02  0.16711404938E+03  0.17491115757E+03  0.24449914900E+03  0.00000000000E+00 0. -1.
          1    1    5    5  503    0 -0.37975723401E+02 -0.13872919861E+01 -0.17967659884E+03  0.18365119199E+03  0.00000000000E+00 0. -1.
         -2    1    5    5    0  503 -0.31123982747E+02 -0.43823727376E+02 -0.57486780683E+02  0.78701660316E+02  0.00000000000E+00 0.  1.
         -1    1    6    6    0  502  0.12438724325E+03  0.51500446916E+03  0.36132215337E+03  0.64129204584E+03  0.00000000000E+00 0.  1.
<mgrwt>
<rscale>  0 0.20443638E+04</rscale>
<asrwt>0</asrwt>
<pdfrwt beam="1">  1        1 0.31997301E+00 0.20443638E+04</pdfrwt>
<pdfrwt beam="2">  1       -1 0.77288753E-01 0.20443638E+04</pdfrwt>
<totfact> 0.40791581E+00</totfact>
</mgrwt>
</event>
<event>
12    1  0.2194474E-007  0.2887830E+04  0.7818608E-02  0.8276507E-01
          1   -1    0    0  501    0  0.00000000000E+00  0.00000000000E+00  0.13589770452E+04  0.13589770452E+04  0.00000000000E+00 0. -1.
         -1   -1    0    0    0  501 -0.00000000000E+00 -0.00000000000E+00 -0.15341621418E+04  0.15341621418E+04  0.00000000000E+00 0.  1.
         23    2    1    2    0    0  0.30407228159E+03 -0.32464098845E+03  0.11444555895E+04  0.12314421270E+04  0.93911618471E+02 0.  0.
        254    2    1    2    0    0 -0.30407228159E+03  0.32464098845E+03 -0.13196406860E+04  0.16616970599E+04  0.90660567778E+03 0.  0.
        -24    2    4    4    0    0 -0.42907276813E+03  0.52792983975E+03 -0.12031233408E+04  0.13844246012E+04  0.79450280071E+02 0.  0.
         24    2    4    4    0    0  0.12500048654E+03 -0.20328885131E+03 -0.11651734521E+03  0.27727245879E+03  0.79700978451E+02 0.  0.
         13    1    3    3    0    0  0.27604716092E+03 -0.24269376955E+03  0.90420303719E+03  0.97605606053E+03  0.00000000000E+00 0. -1.
        -13    1    3    3    0    0  0.28025120670E+02 -0.81947218901E+02  0.24025255229E+03  0.25538606649E+03  0.00000000000E+00 0.  1.
          2    1    6    6  502    0  0.12813462953E+03 -0.17972634040E+03 -0.82217857543E+02  0.23554153947E+03  0.00000000000E+00 0. -1.
          1    1    5    5  503    0 -0.43025878068E+03  0.51937933351E+03 -0.11966815127E+04  0.13736535784E+04  0.00000000000E+00 0. -1.
         -2    1    5    5    0  503  0.11860125461E+01  0.85505062492E+01 -0.64418280710E+01  0.10771022782E+02  0.00000000000E+00 0.  1.
         -1    1    6    6    0  502 -0.31341429898E+01 -0.23562510911E+02 -0.34299487670E+02  0.41730919318E+02  0.00000000000E+00 0.  1.
<mgrwt>
<rscale>  0 0.28878304E+04</rscale>
<asrwt>0</asrwt>
<pdfrwt beam="1">  1        1 0.20907339E+00 0.28878304E+04</pdfrwt>
<pdfrwt beam="2">  1       -1 0.23602494E+00 0.28878304E+04</pdfrwt>
<totfact> 0.60764629E-01</totfact>
</mgrwt>
</event>
<event>
12    1  0.1598876E-007  0.4417547E+04  0.7818608E-02  0.7925233E-01
          2   -1    0    0  501    0  0.00000000000E+00  0.00000000000E+00  0.20027958897E+04  0.20027958897E+04  0.00000000000E+00 0. -1.
         -2   -1    0    0    0  501 -0.00000000000E+00 -0.00000000000E+00 -0.24359352673E+04  0.24359352673E+04  0.00000000000E+00 0.  1.
         23    2    1    2    0    0  0.97916981051E+03  0.43602858561E+03 -0.20398192228E+04  0.23060146628E+04  0.89144365896E+02 0.  0.
        254    2    1    2    0    0 -0.97916981051E+03 -0.43602858561E+03  0.16066798452E+04  0.21327164943E+04  0.90452477834E+03 0.  0.
        -24    2    4    4    0    0 -0.11263369994E+04 -0.31266846882E+03  0.12069985054E+04  0.16822103465E+04  0.81176660176E+02 0.  0.
         24    2    4    4    0    0  0.14716718892E+03 -0.12336011679E+03  0.39968133976E+03  0.45050614773E+03  0.79590928372E+02 0.  0.
         11    1    3    3    0    0  0.14202547844E+03  0.73686712633E+02 -0.37402287121E+03  0.40680963157E+03  0.00000000000E+00 0. -1.
        -11    1    3    3    0    0  0.83714433207E+03  0.36234187298E+03 -0.16657963516E+04  0.18992050312E+04  0.00000000000E+00 0.  1.
          2    1    6    6  502    0  0.14812429543E+03 -0.89597656461E+02  0.31694000371E+03  0.36113641867E+03  0.00000000000E+00 0. -1.
          1    1    5    5  503    0 -0.71801373213E+03 -0.15921056891E+03  0.76733709234E+03  0.10628724938E+04  0.00000000000E+00 0. -1.
         -2    1    5    5    0  503 -0.40832326730E+03 -0.15345789991E+03  0.43966141311E+03  0.61933785274E+03  0.00000000000E+00 0.  1.
         -1    1    6    6    0  502 -0.95710650603E+00 -0.33762460328E+02  0.82741336053E+02  0.89369729059E+02  0.00000000000E+00 0.  1.
<mgrwt>
<rscale>  0 0.44175473E+04</rscale>
<asrwt>0</asrwt>
<pdfrwt beam="1">  1        2 0.30812244E+00 0.44175473E+04</pdfrwt>
<pdfrwt beam="2">  1       -2 0.37475927E+00 0.44175473E+04</pdfrwt>
<totfact> 0.54947786E-02</totfact>
</mgrwt>
</event>
<event>
12    1  0.1598876E-007  0.1540843E+04  0.7818608E-02  0.8857738E-01
          1   -1    0    0  501    0  0.00000000000E+00  0.00000000000E+00  0.58971181837E+03  0.58971181837E+03  0.00000000000E+00 0. -1.
         -1   -1    0    0    0  501 -0.00000000000E+00 -0.00000000000E+00 -0.10065076841E+04  0.10065076841E+04  0.00000000000E+00 0.  1.
         23    2    1    2    0    0  0.44113176180E+03  0.15468341041E+03 -0.32685554149E+03  0.57766558712E+03  0.91317012748E+02 0.  0.
        254    2    1    2    0    0 -0.44113176180E+03 -0.15468341041E+03 -0.89940324268E+02  0.10185539154E+04  0.90046578384E+03 0.  0.
        -24    2    4    4    0    0  0.13138642407E+03 -0.32953317634E+03  0.11484236145E+03  0.38081753102E+03  0.77322165057E+02 0.  0.
         24    2    4    4    0    0 -0.57251818587E+03  0.17484976593E+03 -0.20478268572E+03  0.63773638435E+03  0.80138840530E+02 0.  0.
         11    1    3    3    0    0  0.37932770706E+03  0.10172614140E+03 -0.29065970417E+03  0.48859060656E+03  0.00000000000E+00 0.  1.
        -11    1    3    3    0    0  0.61804054733E+02  0.52957269009E+02 -0.36195837320E+02  0.89074980559E+02  0.00000000000E+00 0. -1.
          4    1    6    6  502    0 -0.54829663555E+03  0.14828060819E+03 -0.19144420463E+03  0.59938904128E+03  0.00000000000E+00 0. -1.
          3    1    5    5  503    0  0.10502220637E+03 -0.29132624954E+03  0.72646142823E+02  0.31808506656E+03  0.00000000000E+00 0. -1.
         -4    1    5    5    0  503  0.26364217704E+02 -0.38206926796E+02  0.42196218626E+02  0.62732464456E+02  0.00000000000E+00 0.  1.
         -3    1    6    6    0  502 -0.24221550319E+02  0.26569157744E+02 -0.13338481091E+02  0.38347343074E+02  0.00000000000E+00 0.  1.
<mgrwt>
<rscale>  0 0.15408432E+04</rscale>
<asrwt>0</asrwt>
<pdfrwt beam="1">  1        1 0.90724896E-01 0.15408432E+04</pdfrwt>
<pdfrwt beam="2">  1       -1 0.15484733E+00 0.15408432E+04</pdfrwt>
<totfact> 0.10834041E+01</totfact>
</mgrwt>
</event>
<event>
12    1  0.1598876E-007  0.1473568E+04  0.7818608E-02  0.8902222E-01
         -2   -1    0    0    0  501 -0.00000000000E+00  0.00000000000E+00  0.28369264878E+03  0.28369264878E+03  0.00000000000E+00 0.  1.
          2   -1    0    0  501    0  0.00000000000E+00 -0.00000000000E+00 -0.19135176235E+04  0.19135176235E+04  0.00000000000E+00 0. -1.
         23    2    1    2    0    0  0.23227367701E+03 -0.38242609371E+03 -0.43818402357E+03  0.63222022266E+03  0.86581714248E+02 0.  0.
        254    2    1    2    0    0 -0.23227367701E+03  0.38242609371E+03 -0.11916409512E+04  0.15649900496E+04  0.91048609037E+03 0.  0.
        -24    2    4    4    0    0  0.23540166997E+03 -0.15864592851E+03 -0.32998146589E+03  0.44233481088E+03  0.78675537675E+02 0.  0.
         24    2    4    4    0    0 -0.46767534698E+03  0.54107202223E+03 -0.86165948526E+03  0.11226552387E+04  0.80115873009E+02 0.  0.
         11    1    3    3    0    0  0.31365581387E+02 -0.50715644417E+02 -0.22531254482E+02  0.63745852516E+02  0.00000000000E+00 0. -1.
        -11    1    3    3    0    0  0.20090809562E+03 -0.33171044929E+03 -0.41565276909E+03  0.56847437014E+03  0.00000000000E+00 0.  1.
          4    1    6    6  502    0 -0.10738435770E+03  0.13944633504E+03 -0.26606754179E+03  0.31901193932E+03  0.00000000000E+00 0. -1.
          1    1    5    5  503    0  0.13415098149E+02 -0.41394348817E+02 -0.47609622306E+02  0.64499093858E+02  0.00000000000E+00 0. -1.
         -4    1    5    5    0  503  0.22198657182E+03 -0.11725157970E+03 -0.28237184358E+03  0.37783571702E+03  0.00000000000E+00 0.  1.
         -3    1    6    6    0  502 -0.36029098929E+03  0.40162568719E+03 -0.59559194347E+03  0.80364329942E+03  0.00000000000E+00 0.  1.
<mgrwt>
<rscale>  0 0.14735683E+04</rscale>
<asrwt>0</asrwt>
<pdfrwt beam="1">  1        2 0.29438734E+00 0.14735683E+04</pdfrwt>
<pdfrwt beam="2">  1       -2 0.43645021E-01 0.14735683E+04</pdfrwt>
<totfact> 0.35974978E+01</totfact>
</mgrwt>
</event>
<event>
12    1  0.1598876E-007  0.2184350E+04  0.7818608E-02  0.8524970E-01
         -1   -1    0    0    0  501 -0.00000000000E+00  0.00000000000E+00  0.66607396657E+03  0.66607396657E+03  0.00000000000E+00 0.  1.
          1   -1    0    0  501    0  0.00000000000E+00 -0.00000000000E+00 -0.17908613844E+04  0.17908613844E+04  0.00000000000E+00 0. -1.
         23    2    1    2    0    0  0.40531678171E+03 -0.30939695735E+02 -0.13682667621E+04  0.14302700784E+04  0.90992342541E+02 0.  0.
        254    2    1    2    0    0 -0.40531678171E+03  0.30939695735E+02  0.24347934428E+03  0.10266652726E+04  0.91078012310E+03 0.  0.
        -24    2    4    4    0    0  0.16259582470E+03  0.27281607433E+03 -0.62298234109E+02  0.33319900585E+03  0.79211709389E+02 0.  0.
         24    2    4    4    0    0 -0.56791260641E+03 -0.24187637859E+03  0.30577757839E+03  0.69346626678E+03  0.79791131606E+02 0.  0.
         11    1    3    3    0    0  0.29689052098E+01  0.96763328198E+01 -0.62590413158E+02  0.63403514368E+02  0.00000000000E+00 0.  1.
        -11    1    3    3    0    0  0.40234787650E+03 -0.40616028555E+02 -0.13056763490E+04  0.13668665640E+04  0.00000000000E+00 0. -1.
          2    1    6    6  502    0 -0.21720334194E+03 -0.94944539633E+02  0.74817841439E+02  0.24857487152E+03  0.00000000000E+00 0. -1.
          3    1    5    5  503    0  0.14704257971E+03  0.26741900372E+03 -0.43587008830E+02  0.30827629026E+03  0.00000000000E+00 0. -1.
         -4    1    5    5    0  503  0.15553244987E+02  0.53970706081E+01 -0.18711225280E+02  0.24922715587E+02  0.00000000000E+00 0.  1.
         -1    1    6    6    0  502 -0.35070926447E+03 -0.14693183896E+03  0.23095973695E+03  0.44489139526E+03  0.00000000000E+00 0.  1.
<mgrwt>
<rscale>  0 0.21843499E+04</rscale>
<asrwt>0</asrwt>
<pdfrwt beam="1">  1        1 0.27551713E+00 0.21843499E+04</pdfrwt>
<pdfrwt beam="2">  1       -1 0.10247292E+00 0.21843499E+04</pdfrwt>
<totfact> 0.33988802E+00</totfact>
</mgrwt>
</event>
<event>
12    1  0.1598876E-007  0.1455201E+04  0.7818608E-02  0.8914803E-01
          1   -1    0    0  501    0  0.00000000000E+00  0.00000000000E+00  0.17578675221E+04  0.17578675221E+04  0.00000000000E+00 0. -1.
         -1   -1    0    0    0  501 -0.00000000000E+00 -0.00000000000E+00 -0.30116183914E+03  0.30116183914E+03  0.00000000000E+00 0.  1.
         23    2    1    2    0    0  0.11284552843E+03 -0.32960092720E+03  0.82249261300E+03  0.89796001310E+03  0.92017401567E+02 0.  0.
        254    2    1    2    0    0 -0.11284552843E+03  0.32960092720E+03  0.63421306991E+03  0.11610693481E+04  0.90801152446E+03 0.  0.
        -24    2    4    4    0    0 -0.37241357537E+02 -0.29515310533E+03  0.34891872822E+03  0.46547351237E+03  0.80118896115E+02 0.  0.
         24    2    4    4    0    0 -0.75604170890E+02  0.62475403253E+03  0.28529434169E+03  0.69559583573E+03  0.80169280078E+02 0.  0.
         11    1    3    3    0    0  0.76243030442E+02 -0.21750735570E+03  0.42662717138E+03  0.48490534421E+03  0.00000000000E+00 0. -1.
        -11    1    3    3    0    0  0.36602497986E+02 -0.11209357149E+03  0.39586544162E+03  0.41305466889E+03  0.00000000000E+00 0.  1.
          2    1    6    6  502    0 -0.45915878235E+02  0.54667482330E+03  0.26681833577E+03  0.61004397760E+03  0.00000000000E+00 0. -1.
          1    1    5    5  503    0 -0.51299576318E+02 -0.23055949114E+03  0.30640804898E+03  0.38687881560E+03  0.00000000000E+00 0. -1.
         -2    1    5    5    0  503  0.14058218781E+02 -0.64593614194E+02  0.42510679246E+02  0.78594696767E+02  0.00000000000E+00 0.  1.
         -3    1    6    6    0  502 -0.29688292656E+02  0.78079209232E+02  0.18476005918E+02  0.85551858132E+02  0.00000000000E+00 0.  1.
<mgrwt>
<rscale>  0 0.14552012E+04</rscale>
<asrwt>0</asrwt>
<pdfrwt beam="1">  1        1 0.27044115E+00 0.14552012E+04</pdfrwt>
<pdfrwt beam="2">  1       -1 0.46332592E-01 0.14552012E+04</pdfrwt>
<totfact> 0.19593939E+01</totfact>
</mgrwt>
</event>
<event>
12    1  0.1598876E-007  0.1477917E+04  0.7818608E-02  0.8899272E-01
          1   -1    0    0  501    0  0.00000000000E+00  0.00000000000E+00  0.10198844620E+04  0.10198844620E+04  0.00000000000E+00 0. -1.
         -1   -1    0    0    0  501 -0.00000000000E+00 -0.00000000000E+00 -0.53541312824E+03  0.53541312824E+03  0.00000000000E+00 0.  1.
         23    2    1    2    0    0 -0.27166409033E+03 -0.34754323282E+03  0.66745290244E+02  0.46388935277E+03  0.12708548773E+03 0.  0.
        254    2    1    2    0    0  0.27166409033E+03  0.34754323282E+03  0.41772604348E+03  0.10914082374E+04  0.90669135690E+03 0.  0.
        -24    2    4    4    0    0 -0.83890811547E+02  0.20008445245E+02 -0.24213177798E+03  0.26947811232E+03  0.80948434029E+02 0.  0.
         24    2    4    4    0    0  0.35555490188E+03  0.32753478757E+03  0.65985782146E+03  0.82193012511E+03  0.80364548790E+02 0.  0.
         11    1    3    3    0    0 -0.21661420498E+03 -0.28138499560E+03  0.21168220906E+00  0.35510459636E+03  0.00000000000E+00 0. -1.
        -11    1    3    3    0    0 -0.55049885353E+02 -0.66158237220E+02  0.66533608034E+02  0.10878475641E+03  0.00000000000E+00 0.  1.
          2    1    6    6  502    0  0.22536241496E+03  0.16651078819E+03  0.42212560737E+03  0.50665973696E+03  0.00000000000E+00 0. -1.
          1    1    5    5  503    0 -0.61341227952E+02  0.17443513447E+02 -0.23801779795E+03  0.24641325969E+03  0.00000000000E+00 0. -1.
         -2    1    5    5    0  503 -0.22549583595E+02  0.25649317976E+01 -0.41139800248E+01  0.23064852635E+02  0.00000000000E+00 0.  1.
         -1    1    6    6    0  502  0.13019248692E+03  0.16102399939E+03  0.23773221409E+03  0.31527038815E+03  0.00000000000E+00 0.  1.
<mgrwt>
<rscale>  0 0.14779168E+04</rscale>
<asrwt>0</asrwt>
<pdfrwt beam="1">  1        1 0.15690530E+00 0.14779168E+04</pdfrwt>
<pdfrwt beam="2">  1       -1 0.82371251E-01 0.14779168E+04</pdfrwt>
<totfact> 0.20736651E+01</totfact>
</mgrwt>
</event>
<event>
12    1  0.1598876E-007  0.1211020E+04  0.7818608E-02  0.9103265E-01
          1   -1    0    0  501    0  0.00000000000E+00  0.00000000000E+00  0.75699109711E+03  0.75699109711E+03  0.00000000000E+00 0. -1.
         -1   -1    0    0    0  501 -0.00000000000E+00 -0.00000000000E+00 -0.48434208764E+03  0.48434208764E+03  0.00000000000E+00 0.  1.
         23    2    1    2    0    0  0.10821811483E+03 -0.44517949766E+01  0.29637516760E+03  0.32869633937E+03  0.92043819364E+02 0.  0.
        254    2    1    2    0    0 -0.10821811483E+03  0.44517949766E+01 -0.23726158131E+02  0.91263684538E+03  0.90587642762E+03 0.  0.
        -24    2    4    4    0    0  0.13250163909E+03  0.40256593689E+03  0.52226255157E+02  0.43459656301E+03  0.80811960449E+02 0.  0.
         24    2    4    4    0    0 -0.24071975392E+03 -0.39811414191E+03 -0.75952413289E+02  0.47804028237E+03  0.79453587465E+02 0.  0.
         13    1    3    3    0    0  0.79416276334E+02  0.33664705344E+01  0.28640523731E+03  0.29723095065E+03  0.00000000000E+00 0. -1.
        -13    1    3    3    0    0  0.28801838500E+02 -0.78182655109E+01  0.99699302981E+01  0.31465388711E+02  0.00000000000E+00 0.  1.
          2    1    6    6  502    0 -0.19021300996E+03 -0.26885747973E+03 -0.25299642871E+02  0.33031107383E+03  0.00000000000E+00 0. -1.
          3    1    5    5  503    0  0.38002507052E+02  0.82308989707E+02 -0.20298403943E+02  0.92903097535E+02  0.00000000000E+00 0. -1.
         -4    1    5    5    0  503  0.94499132037E+02  0.32025694718E+03  0.72524659101E+02  0.34169346548E+03  0.00000000000E+00 0.  1.
         -1    1    6    6    0  502 -0.50506743966E+02 -0.12925666218E+03 -0.50652770418E+02  0.14772920853E+03  0.00000000000E+00 0.  1.
<mgrwt>
<rscale>  0 0.12110205E+04</rscale>
<asrwt>0</asrwt>
<pdfrwt beam="1">  1        1 0.11646017E+00 0.12110205E+04</pdfrwt>
<pdfrwt beam="2">  1       -1 0.74514168E-01 0.12110205E+04</pdfrwt>
<totfact> 0.43282989E+01</totfact>
</mgrwt>
</event>
<event>
12    1  0.1598876E-007  0.2410398E+04  0.7818608E-02  0.8435621E-01
          1   -1    0    0  501    0  0.00000000000E+00  0.00000000000E+00  0.11160601916E+04  0.11160601916E+04  0.00000000000E+00 0. -1.
         -1   -1    0    0    0  501 -0.00000000000E+00 -0.00000000000E+00 -0.13014575169E+04  0.13014575169E+04  0.00000000000E+00 0.  1.
         23    2    1    2    0    0 -0.24621446904E+03 -0.10046929182E+04 -0.69035501503E+02  0.10406133726E+04  0.89893637722E+02 0.  0.
        254    2    1    2    0    0  0.24621446904E+03  0.10046929182E+04 -0.11636182380E+03  0.13769043359E+04  0.90127468147E+03 0.  0.
        -24    2    4    4    0    0  0.22884616359E+02  0.28760882058E+03  0.37207429108E+03  0.47735947896E+03  0.78678171846E+02 0.  0.
         24    2    4    4    0    0  0.22332985268E+03  0.71708409767E+03 -0.48843611488E+03  0.89954485695E+03  0.80779236900E+02 0.  0.
         11    1    3    3    0    0 -0.94481671519E+02 -0.35099126872E+03  0.17897729446E+02  0.36392579695E+03  0.00000000000E+00 0. -1.
        -11    1    3    3    0    0 -0.15173279752E+03 -0.65370164953E+03 -0.86933230949E+02  0.67668757569E+03  0.00000000000E+00 0.  1.
          2    1    6    6  502    0  0.77458436467E+02  0.37318056019E+03 -0.22741594889E+03  0.44382603990E+03  0.00000000000E+00 0. -1.
          3    1    5    5  503    0  0.46947528839E+02  0.13437063632E+03  0.20277271476E+03  0.24774243121E+03  0.00000000000E+00 0. -1.
         -4    1    5    5    0  503 -0.24062912480E+02  0.15323818426E+03  0.16930157632E+03  0.22961704775E+03  0.00000000000E+00 0.  1.
         -1    1    6    6    0  502  0.14587141621E+03  0.34390353748E+03 -0.26102016599E+03  0.45571881705E+03  0.00000000000E+00 0.  1.
<mgrwt>
<rscale>  0 0.24103982E+04</rscale>
<asrwt>0</asrwt>
<pdfrwt beam="1">  1        1 0.17170157E+00 0.24103982E+04</pdfrwt>
<pdfrwt beam="2">  1       -1 0.20022423E+00 0.24103982E+04</pdfrwt>
<totfact> 0.16556754E+00</totfact>
</mgrwt>
</event>
<event>
12    1  0.1598876E-007  0.1771703E+04  0.7818608E-02  0.8721494E-01
          1   -1    0    0  501    0  0.00000000000E+00  0.00000000000E+00  0.35256513731E+04  0.35256513731E+04  0.00000000000E+00 0. -1.
         -1   -1    0    0    0  501 -0.00000000000E+00 -0.00000000000E+00 -0.22257809635E+03  0.22257809635E+03  0.00000000000E+00 0.  1.
         23    2    1    2    0    0 -0.19442333152E+03  0.26649250977E+03  0.38063294411E+02  0.34513553089E+03  0.94079916535E+02 0.  0.
        254    2    1    2    0    0  0.19442333152E+03 -0.26649250977E+03  0.32650099824E+04  0.34030939386E+04  0.90107684483E+03 0.  0.
        -24    2    4    4    0    0 -0.34306457868E+03 -0.80757753510E+02  0.91361566121E+03  0.98243597397E+03  0.79194359938E+02 0.  0.
         24    2    4    4    0    0  0.53748791020E+03 -0.18573475626E+03  0.23513943211E+04  0.24206579646E+04  0.84493045912E+02 0.  0.
         13    1    3    3    0    0 -0.26718759019E+02  0.77723608664E+01 -0.16020270517E+02  0.32108421705E+02  0.00000000000E+00 0. -1.
        -13    1    3    3    0    0 -0.16770457250E+03  0.25872014891E+03  0.54083564928E+02  0.31302710918E+03  0.00000000000E+00 0.  1.
          4    1    6    6  502    0  0.88842219321E+02  0.10816440210E+01  0.37839555093E+03  0.38868663837E+03  0.00000000000E+00 0. -1.
          1    1    5    5  503    0 -0.50289243745E+02 -0.24299498281E+02  0.84077432668E+02  0.10093804207E+03  0.00000000000E+00 0. -1.
         -2    1    5    5    0  503 -0.29277533493E+03 -0.56458255229E+02  0.82953822854E+03  0.88149793190E+03  0.00000000000E+00 0.  1.
         -3    1    6    6    0  502  0.44864569088E+03 -0.18681640028E+03  0.19729987702E+04  0.20319713262E+04  0.00000000000E+00 0.  1.
<mgrwt>
<rscale>  0 0.17717029E+04</rscale>
<asrwt>0</asrwt>
<pdfrwt beam="1">  1        1 0.54240786E+00 0.17717029E+04</pdfrwt>
<pdfrwt beam="2">  1       -1 0.34242787E-01 0.17717029E+04</pdfrwt>
<totfact> 0.18336057E+00</totfact>
</mgrwt>
</event>
<event>
12    1  0.1598876E-007  0.1309715E+04  0.7818608E-02  0.9021896E-01
          1   -1    0    0  501    0  0.00000000000E+00  0.00000000000E+00  0.81899338866E+03  0.81899338866E+03  0.00000000000E+00 0. -1.
         -1   -1    0    0    0  501 -0.00000000000E+00 -0.00000000000E+00 -0.52361652756E+03  0.52361652756E+03  0.00000000000E+00 0.  1.
         23    2    1    2    0    0 -0.40355452365E+02  0.13323438214E+03 -0.22926148088E+03  0.28401416503E+03  0.93398373658E+02 0.  0.
        254    2    1    2    0    0  0.40355452365E+02 -0.13323438214E+03  0.52463834198E+03  0.10585957512E+04  0.90884520765E+03 0.  0.
        -24    2    4    4    0    0  0.33845277787E+03 -0.38643061145E+03  0.27727228865E+03  0.58891027837E+03  0.77823477208E+02 0.  0.
         24    2    4    4    0    0 -0.29809732550E+03  0.25319622931E+03  0.24736605332E+03  0.46968547283E+03  0.80275357614E+02 0.  0.
         11    1    3    3    0    0 -0.21956839881E+02  0.39746622073E+02 -0.12287555930E+02  0.47041267144E+02  0.00000000000E+00 0. -1.
        -11    1    3    3    0    0 -0.18398612484E+02  0.93487760064E+02 -0.21697392495E+03  0.23697289788E+03  0.00000000000E+00 0.  1.
          4    1    6    6  502    0 -0.22767302460E+03  0.23336283023E+03  0.20557201259E+03  0.38542582818E+03  0.00000000000E+00 0. -1.
          1    1    5    5  503    0  0.29419911507E+03 -0.28859059623E+03  0.21641815503E+03  0.46548304950E+03  0.00000000000E+00 0. -1.
         -2    1    5    5    0  503  0.44253662799E+02 -0.97840015220E+02  0.60854133619E+02  0.12342722888E+03  0.00000000000E+00 0.  1.
         -1    1    6    6    0  502 -0.70424300900E+02  0.19833399085E+02  0.41794040729E+02  0.84259644653E+02  0.00000000000E+00 0.  1.
<mgrwt>
<rscale>  0 0.13097152E+04</rscale>
<asrwt>0</asrwt>
<pdfrwt beam="1">  1        1 0.12599898E+00 0.13097152E+04</pdfrwt>
<pdfrwt beam="2">  1       -1 0.80556389E-01 0.13097152E+04</pdfrwt>
<totfact> 0.32134113E+01</totfact>
</mgrwt>
</event>
<event>
12    1  0.1598876E-007  0.1959648E+04  0.7818608E-02  0.8625722E-01
         -1   -1    0    0    0  501 -0.00000000000E+00  0.00000000000E+00  0.10050644095E+04  0.10050644095E+04  0.00000000000E+00 0.  1.
          1   -1    0    0  501    0  0.00000000000E+00 -0.00000000000E+00 -0.95521776769E+03  0.95521776769E+03  0.00000000000E+00 0. -1.
         23    2    1    2    0    0  0.45172006237E+03 -0.53658013804E+03  0.33709768332E+03  0.78356471810E+03  0.91485299752E+02 0.  0.
        254    2    1    2    0    0 -0.45172006237E+03  0.53658013804E+03 -0.28725104154E+03  0.11767174591E+04  0.90010086007E+03 0.  0.
        -24    2    4    4    0    0 -0.69563154563E+03  0.49408349885E+03 -0.11489944254E+03  0.86442085278E+03  0.77458232066E+02 0.  0.
         24    2    4    4    0    0  0.24391148326E+03  0.42496639187E+02 -0.17235159901E+03  0.31229660628E+03  0.80779456594E+02 0.  0.
         11    1    3    3    0    0  0.43232833790E+03 -0.51913818258E+03  0.34169888027E+03  0.75708016031E+03  0.00000000000E+00 0. -1.
        -11    1    3    3    0    0  0.19391724469E+02 -0.17441955460E+02 -0.46011969422E+01  0.26484557792E+02  0.00000000000E+00 0.  1.
          4    1    6    6  502    0  0.16122610296E+03  0.60360355938E+02 -0.13938393445E+03  0.22150645595E+03  0.00000000000E+00 0. -1.
          3    1    5    5  503    0 -0.67463758145E+03  0.47524605092E+03 -0.96741353854E+02  0.83087518002E+03  0.00000000000E+00 0. -1.
         -4    1    5    5    0  503 -0.20993964173E+02  0.18837447926E+02 -0.18158088685E+02  0.33545672757E+02  0.00000000000E+00 0.  1.
         -3    1    6    6    0  502  0.82685380295E+02 -0.17863716751E+02 -0.32967664558E+02  0.90790150330E+02  0.00000000000E+00 0.  1.
<mgrwt>
<rscale>  0 0.19596483E+04</rscale>
<asrwt>0</asrwt>
<pdfrwt beam="1">  1        1 0.14695658E+00 0.19596483E+04</pdfrwt>
<pdfrwt beam="2">  1       -1 0.15462529E+00 0.19596483E+04</pdfrwt>
<totfact> 0.49094397E+00</totfact>
</mgrwt>
</event>
<event>
12    1  0.1598876E-007  0.1132892E+04  0.7818608E-02  0.9173713E-01
          1   -1    0    0  501    0  0.00000000000E+00  0.00000000000E+00  0.74723706250E+03  0.74723706250E+03  0.00000000000E+00 0. -1.
         -1   -1    0    0    0  501 -0.00000000000E+00 -0.00000000000E+00 -0.42939658096E+03  0.42939658096E+03  0.00000000000E+00 0.  1.
         23    2    1    2    0    0 -0.22086386326E+02 -0.17770342905E+03  0.81557188572E+02  0.22291739974E+03  0.10475817363E+03 0.  0.
        254    2    1    2    0    0  0.22086386326E+02  0.17770342905E+03  0.23628329297E+03  0.95371624371E+03  0.90646487071E+03 0.  0.
        -24    2    4    4    0    0 -0.42398289875E+03  0.12220912901E+03  0.20318213560E+02  0.44872003085E+03  0.78995358351E+02 0.  0.
         24    2    4    4    0    0  0.44606928507E+03  0.55494300043E+02  0.21596507941E+03  0.50499621286E+03  0.79516256549E+02 0.  0.
         13    1    3    3    0    0  0.47962535803E+01 -0.16884377376E+03  0.92487790303E+02  0.19257521995E+03  0.00000000000E+00 0. -1.
        -13    1    3    3    0    0 -0.26882639907E+02 -0.88596552971E+01 -0.10930601731E+02  0.30342179792E+02  0.00000000000E+00 0.  1.
          4    1    6    6  502    0  0.69983485662E+02  0.68927015064E+01  0.68347892078E+02  0.98064427551E+02  0.00000000000E+00 0. -1.
          1    1    5    5  503    0 -0.28215221335E+02 -0.59431672780E+01 -0.12502997895E+02  0.31428409261E+02  0.00000000000E+00 0. -1.
         -4    1    5    5    0  503 -0.39576767741E+03  0.12815229629E+03  0.32821211455E+02  0.41729162159E+03  0.00000000000E+00 0.  1.
         -3    1    6    6    0  502  0.37608579941E+03  0.48601598537E+02  0.14761718733E+03  0.40693178531E+03  0.00000000000E+00 0.  1.
<mgrwt>
<rscale>  0 0.11328919E+04</rscale>
<asrwt>0</asrwt>
<pdfrwt beam="1">  1        1 0.11495955E+00 0.11328919E+04</pdfrwt>
<pdfrwt beam="2">  1       -1 0.66061013E-01 0.11328919E+04</pdfrwt>
<totfact> 0.56898648E+01</totfact>
</mgrwt>
</event>
<event>
12    1  0.1598876E-007  0.1608308E+04  0.7818608E-02  0.8815460E-01
          1   -1    0    0  501    0  0.00000000000E+00  0.00000000000E+00  0.57248743516E+03  0.57248743516E+03  0.00000000000E+00 0. -1.
         -1   -1    0    0    0  501 -0.00000000000E+00 -0.00000000000E+00 -0.11295683898E+04  0.11295683898E+04  0.00000000000E+00 0.  1.
         23    2    1    2    0    0 -0.64581147625E+02  0.36967718972E+03 -0.60761541212E+03  0.72016529592E+03  0.92788012009E+02 0.  0.
        254    2    1    2    0    0  0.64581147625E+02 -0.36967718972E+03  0.50534457519E+02  0.98189052901E+03  0.90593781814E+03 0.  0.
        -24    2    4    4    0    0  0.46066706649E+03 -0.61621296072E+02  0.47336539568E+02  0.47390346355E+03  0.79576469595E+02 0.  0.
         24    2    4    4    0    0 -0.39608591886E+03 -0.30805589365E+03  0.31979179510E+01  0.50798706546E+03  0.79108427242E+02 0.  0.
         13    1    3    3    0    0 -0.86273259070E+02  0.29311743099E+03 -0.45542657950E+03  0.54842891325E+03  0.00000000000E+00 0.  1.
        -13    1    3    3    0    0  0.21692111445E+02  0.76559758734E+02 -0.15218883262E+03  0.17173638267E+03  0.00000000000E+00 0. -1.
          2    1    6    6  502    0 -0.66515939481E+02 -0.63228547846E+02 -0.28799430839E+02  0.96185376666E+02  0.00000000000E+00 0. -1.
          1    1    5    5  503    0  0.27346967158E+03 -0.56398246475E+02 -0.56487543919E+01  0.27928181450E+03  0.00000000000E+00 0. -1.
         -2    1    5    5    0  503  0.18719739490E+03 -0.52230495975E+01  0.52985293960E+02  0.19462164906E+03  0.00000000000E+00 0.  1.
         -1    1    6    6    0  502 -0.32956997938E+03 -0.24482734580E+03  0.31997348790E+02  0.41180168879E+03  0.00000000000E+00 0.  1.
<mgrwt>
<rscale>  0 0.16083081E+04</rscale>
<asrwt>0</asrwt>
<pdfrwt beam="1">  1        1 0.88074990E-01 0.16083081E+04</pdfrwt>
<pdfrwt beam="2">  1       -1 0.17377975E+00 0.16083081E+04</pdfrwt>
<totfact> 0.81107203E+00</totfact>
</mgrwt>
</event>
<event>
12    1  0.1598876E-007  0.1274597E+04  0.7818608E-02  0.9049956E-01
          2   -1    0    0  501    0  0.00000000000E+00  0.00000000000E+00  0.20338409550E+04  0.20338409550E+04  0.00000000000E+00 0. -1.
         -2   -1    0    0    0  501 -0.00000000000E+00 -0.00000000000E+00 -0.19969585278E+03  0.19969585278E+03  0.00000000000E+00 0.  1.
         23    2    1    2    0    0  0.51932530247E+01  0.23091191422E+02 -0.80218297605E+02  0.12381309378E+03  0.91293668572E+02 0.  0.
        254    2    1    2    0    0 -0.51932530247E+01 -0.23091191422E+02  0.19143633998E+04  0.21097237140E+04  0.88633331756E+03 0.  0.
        -24    2    4    4    0    0  0.16836903196E+03  0.14262344382E+03  0.65938975021E+02  0.24403835947E+03  0.80729144775E+02 0.  0.
         24    2    4    4    0    0 -0.17356228498E+03 -0.16571463524E+03  0.18484244248E+04  0.18656853545E+04  0.80769925095E+02 0.  0.
         13    1    3    3    0    0  0.19341748407E+02  0.23283673744E+02  0.10468943078E+02  0.32028603835E+02  0.00000000000E+00 0. -1.
        -13    1    3    3    0    0 -0.14148495382E+02 -0.19248232159E+00 -0.90687240683E+02  0.91784489941E+02  0.00000000000E+00 0.  1.
          4    1    6    6  502    0 -0.20924106678E+02 -0.25990072913E+02  0.10893042845E+03  0.11392603027E+03  0.00000000000E+00 0. -1.
          1    1    5    5  503    0  0.38650311443E+02  0.11349024845E+02  0.41566261102E+02  0.57882648536E+02  0.00000000000E+00 0. -1.
         -2    1    5    5    0  503  0.12971872052E+03  0.13127441898E+03  0.24372713919E+02  0.18615571093E+03  0.00000000000E+00 0.  1.
         -3    1    6    6    0  502 -0.15263817831E+03 -0.13972456233E+03  0.17394939963E+04  0.17517593242E+04  0.00000000000E+00 0.  1.
<mgrwt>
<rscale>  0 0.12745974E+04</rscale>
<asrwt>0</asrwt>
<pdfrwt beam="1">  1        2 0.31289859E+00 0.12745974E+04</pdfrwt>
<pdfrwt beam="2">  1       -2 0.30722440E-01 0.12745974E+04</pdfrwt>
<totfact> 0.61679197E+01</totfact>
</mgrwt>
</event>
<event>
12    1  0.1598876E-007  0.1572370E+04  0.7818608E-02  0.8837705E-01
         -2   -1    0    0    0  501 -0.00000000000E+00  0.00000000000E+00  0.62370569492E+03  0.62370569492E+03  0.00000000000E+00 0.  1.
          2   -1    0    0  501    0  0.00000000000E+00 -0.00000000000E+00 -0.99099070804E+03  0.99099070804E+03  0.00000000000E+00 0. -1.
         23    2    1    2    0    0 -0.38121413096E+02 -0.11771999696E+03  0.39716265787E+03  0.42517166152E+03  0.87872209111E+02 0.  0.
        254    2    1    2    0    0  0.38121413096E+02  0.11771999696E+03 -0.76444767099E+03  0.11895247414E+04  0.90292725564E+03 0.  0.
        -24    2    4    4    0    0 -0.39152386781E+03  0.22640669354E+03 -0.42271755241E+03  0.62421220038E+03  0.79998825236E+02 0.  0.
         24    2    4    4    0    0  0.42964528091E+03 -0.10868669658E+03 -0.34173011858E+03  0.56531254106E+03  0.79943290577E+02 0.  0.
         11    1    3    3    0    0 -0.16325631590E+02 -0.12035744309E+03  0.26910419019E+03  0.29524482304E+03  0.00000000000E+00 0.  1.
        -11    1    3    3    0    0 -0.21795781505E+02  0.26374461281E+01  0.12805846768E+03  0.12992683848E+03  0.00000000000E+00 0. -1.
          4    1    6    6  502    0  0.32330029051E+02 -0.27863276993E+01 -0.30297588319E+01  0.32591008562E+02  0.00000000000E+00 0. -1.
          3    1    5    5  503    0 -0.10422387073E+02  0.24764362947E+02 -0.36816145697E+02  0.45577718333E+02  0.00000000000E+00 0. -1.
         -4    1    5    5    0  503 -0.38110148074E+03  0.20164233059E+03 -0.38590140671E+03  0.57863448204E+03  0.00000000000E+00 0.  1.
         -3    1    6    6    0  502  0.39731525185E+03 -0.10590036888E+03 -0.33870035975E+03  0.53272153249E+03  0.00000000000E+00 0.  1.
<mgrwt>
<rscale>  0 0.15723696E+04</rscale>
<asrwt>0</asrwt>
<pdfrwt beam="1">  1        2 0.15246011E+00 0.15723696E+04</pdfrwt>
<pdfrwt beam="2">  1       -2 0.95954723E-01 0.15723696E+04</pdfrwt>
<totfact> 0.22338529E+01</totfact>
</mgrwt>
</event>
<event>
12    1  0.1598876E-007  0.1565100E+04  0.7818608E-02  0.8842280E-01
          1   -1    0    0  501    0  0.00000000000E+00  0.00000000000E+00  0.14706038068E+04  0.14706038068E+04  0.00000000000E+00 0. -1.
         -1   -1    0    0    0  501 -0.00000000000E+00 -0.00000000000E+00 -0.41641705468E+03  0.41641705468E+03  0.00000000000E+00 0.  1.
         23    2    1    2    0    0  0.55825636488E+02  0.19083602688E+03  0.93634156385E+03  0.96152074337E+03  0.90839005345E+02 0.  0.
        254    2    1    2    0    0 -0.55825636488E+02 -0.19083602688E+03  0.11784518832E+03  0.92550011815E+03  0.89617414013E+03 0.  0.
        -24    2    4    4    0    0 -0.84937817056E+02 -0.48360889700E+03 -0.15018456208E+03  0.51945032350E+03  0.78620848863E+02 0.  0.
         24    2    4    4    0    0  0.29112180568E+02  0.29277287012E+03  0.26802975040E+03  0.40604979465E+03  0.80455056399E+02 0.  0.
         11    1    3    3    0    0 -0.10897408520E+02  0.66401128955E+01  0.17196966892E+03  0.17244248792E+03  0.00000000000E+00 0.  1.
        -11    1    3    3    0    0  0.66723045008E+02  0.18419591399E+03  0.76437189493E+03  0.78907825545E+03  0.00000000000E+00 0. -1.
          4    1    6    6  502    0 -0.32426672667E+00  0.25235576136E+03  0.20211917083E+03  0.32331980245E+03  0.00000000000E+00 0. -1.
          3    1    5    5  503    0 -0.57780001342E+02 -0.35666578815E+03 -0.73625594424E+02  0.36874075059E+03  0.00000000000E+00 0. -1.
         -4    1    5    5    0  503 -0.27157815714E+02 -0.12694310885E+03 -0.76558967656E+02  0.15070957291E+03  0.00000000000E+00 0.  1.
         -3    1    6    6    0  502  0.29436447295E+02  0.40417108761E+02  0.65910579573E+02  0.82729992201E+02  0.00000000000E+00 0.  1.
<mgrwt>
<rscale>  0 0.15651000E+04</rscale>
<asrwt>0</asrwt>
<pdfrwt beam="1">  1        1 0.22624674E+00 0.15651000E+04</pdfrwt>
<pdfrwt beam="2">  1       -1 0.64064163E-01 0.15651000E+04</pdfrwt>
<totfact> 0.16302411E+01</totfact>
</mgrwt>
</event>
<event>
12    1  0.1598876E-007  0.1350009E+04  0.7818608E-02  0.8990822E-01
         -1   -1    0    0    0  501 -0.00000000000E+00  0.00000000000E+00  0.37378214310E+03  0.37378214310E+03  0.00000000000E+00 0.  1.
          1   -1    0    0  501    0  0.00000000000E+00 -0.00000000000E+00 -0.12189741443E+04  0.12189741443E+04  0.00000000000E+00 0. -1.
         23    2    1    2    0    0  0.33493353661E+03  0.13749662532E+03 -0.17493138904E+03  0.41393866266E+03  0.98277309975E+02 0.  0.
        254    2    1    2    0    0 -0.33493353661E+03 -0.13749662532E+03 -0.67026061217E+03  0.11788176248E+04  0.89959763688E+03 0.  0.
        -24    2    4    4    0    0 -0.11415554130E+03 -0.48716170153E+03 -0.19271445051E+03  0.54197463061E+03  0.78991326978E+02 0.  0.
         24    2    4    4    0    0 -0.22077799531E+03  0.34966507621E+03 -0.47754616166E+03  0.63684299415E+03  0.80685029247E+02 0.  0.
         11    1    3    3    0    0  0.80369053911E+02  0.81108362087E+02 -0.60148333705E+02  0.12905647320E+03  0.00000000000E+00 0. -1.
        -11    1    3    3    0    0  0.25456448270E+03  0.56388263231E+02 -0.11478305533E+03  0.28488218946E+03  0.00000000000E+00 0.  1.
          2    1    6    6  502    0 -0.13302312577E+03  0.13644330120E+03 -0.20637417742E+03  0.28089540319E+03  0.00000000000E+00 0. -1.
          1    1    5    5  503    0 -0.61713250704E+01 -0.86222979492E+02 -0.58573826672E+01  0.86641770396E+02  0.00000000000E+00 0. -1.
         -2    1    5    5    0  503 -0.10798421623E+03 -0.40093872204E+03 -0.18685706784E+03  0.45533286021E+03  0.00000000000E+00 0.  1.
         -1    1    6    6    0  502 -0.87754869544E+02  0.21322177502E+03 -0.27117198425E+03  0.35594759096E+03  0.00000000000E+00 0.  1.
<mgrwt>
<rscale>  0 0.13500085E+04</rscale>
<asrwt>0</asrwt>
<pdfrwt beam="1">  1        1 0.18753448E+00 0.13500085E+04</pdfrwt>
<pdfrwt beam="2">  1       -1 0.57504945E-01 0.13500085E+04</pdfrwt>
<totfact> 0.31025769E+01</totfact>
</mgrwt>
</event>
<event>
12    1  0.1725073E-007  0.2294502E+04  0.7818608E-02  0.8480092E-01
          1   -1    0    0  501    0  0.00000000000E+00  0.00000000000E+00  0.15807437863E+04  0.15807437863E+04  0.00000000000E+00 0.  1.
         -1   -1    0    0    0  501 -0.00000000000E+00 -0.00000000000E+00 -0.83263651529E+03  0.83263651529E+03  0.00000000000E+00 0. -1.
         23    2    1    2    0    0  0.20832108785E+03  0.44148064186E+03 -0.55770387102E+03  0.74627882422E+03  0.87152985948E+02 0.  0.
        254    2    1    2    0    0 -0.20832108785E+03 -0.44148064186E+03  0.13058111420E+04  0.16671014773E+04  0.91421100650E+03 0.  0.
        -24    2    4    4    0    0  0.17446980446E+02  0.22062862598E+03  0.70803404100E+02  0.24553141815E+03  0.79316880514E+02 0.  0.
         24    2    4    4    0    0 -0.22576806829E+03 -0.66210926784E+03  0.12350077379E+04  0.14215700592E+04  0.79103838763E+02 0.  0.
         13    1    3    3    0    0  0.16907880810E+02  0.12044501077E+03 -0.15143932739E+03  0.19423374304E+03  0.00000000000E+00 0.  1.
        -13    1    3    3    0    0  0.19141320704E+03  0.32103563108E+03 -0.40626454363E+03  0.55204508119E+03  0.00000000000E+00 0. -1.
          2    1    6    6  502    0 -0.71801602538E+02 -0.11443188238E+03  0.23686331593E+03  0.27267995208E+03  0.00000000000E+00 0. -1.
          1    1    5    5  503    0 -0.75854801784E+01 -0.43263615106E+01  0.19574211251E+01  0.89492128658E+01  0.00000000000E+00 0. -1.
         -2    1    5    5    0  503  0.25032460624E+02  0.22495498749E+03  0.68845982975E+02  0.23658220528E+03  0.00000000000E+00 0.  1.
         -1    1    6    6    0  502 -0.15396646575E+03 -0.54767738546E+03  0.99814442197E+03  0.11488901071E+04  0.00000000000E+00 0.  1.
<mgrwt>
<rscale>  0 0.22945021E+04</rscale>
<asrwt>0</asrwt>
<pdfrwt beam="1">  1        1 0.24319135E+00 0.22945021E+04</pdfrwt>
<pdfrwt beam="2">  1       -1 0.12809793E+00 0.22945021E+04</pdfrwt>
<totfact> 0.27382950E+00</totfact>
</mgrwt>
</event>
<event>
12    1  0.1598876E-007  0.1337704E+04  0.7818608E-02  0.9000188E-01
         -1   -1    0    0    0  501 -0.00000000000E+00  0.00000000000E+00  0.12902516060E+03  0.12902516060E+03  0.00000000000E+00 0.  1.
          1   -1    0    0  501    0  0.00000000000E+00 -0.00000000000E+00 -0.34672556495E+04  0.34672556495E+04  0.00000000000E+00 0. -1.
         23    2    1    2    0    0 -0.18876149916E+03  0.12976690736E+03 -0.17052319739E+04  0.17230645083E+04  0.93085235817E+02 0.  0.
        254    2    1    2    0    0  0.18876149916E+03 -0.12976690736E+03 -0.16329985149E+04  0.18732163017E+04  0.88869837938E+03 0.  0.
        -24    2    4    4    0    0  0.24872533637E+03 -0.48374067128E+03 -0.10041058236E+04  0.11447044562E+04  0.79059832704E+02 0.  0.
         24    2    4    4    0    0 -0.59963837206E+02  0.35397376392E+03 -0.62889269134E+03  0.72851184550E+03  0.79563839175E+02 0.  0.
         11    1    3    3    0    0 -0.45664287089E+02  0.48492177640E+02 -0.25618639416E+03  0.26470396099E+03  0.00000000000E+00 0.  1.
        -11    1    3    3    0    0 -0.14309721207E+03  0.81274729724E+02 -0.14490455798E+04  0.14583605473E+04  0.00000000000E+00 0. -1.
          2    1    6    6  502    0 -0.50522013935E+02  0.87736581325E+02 -0.16646927762E+03  0.19483891292E+03  0.00000000000E+00 0. -1.
          3    1    5    5  503    0  0.33215576752E+02 -0.25236349795E+02 -0.57330832989E+02  0.70901144569E+02  0.00000000000E+00 0. -1.
         -4    1    5    5    0  503  0.21550975961E+03 -0.45850432149E+03 -0.94677499061E+03  0.10738033117E+04  0.00000000000E+00 0.  1.
         -1    1    6    6    0  502 -0.94418232713E+01  0.26623718259E+03 -0.46242341372E+03  0.53367293259E+03  0.00000000000E+00 0.  1.
<mgrwt>
<rscale>  0 0.13377043E+04</rscale>
<asrwt>0</asrwt>
<pdfrwt beam="1">  1        1 0.53342393E+00 0.13377043E+04</pdfrwt>
<pdfrwt beam="2">  1       -1 0.19850025E-01 0.13377043E+04</pdfrwt>
<totfact> 0.54680550E+00</totfact>
</mgrwt>
</event>
<event>
12    1  0.1598876E-007  0.1555600E+04  0.7818608E-02  0.8848299E-01
          2   -1    0    0  501    0  0.00000000000E+00  0.00000000000E+00  0.40770283200E+04  0.40770283200E+04  0.00000000000E+00 0. -1.
         -2   -1    0    0    0  501 -0.00000000000E+00 -0.00000000000E+00 -0.14838575948E+03  0.14838575948E+03  0.00000000000E+00 0.  1.
         23    2    1    2    0    0  0.21657656775E+03  0.11515856732E+03  0.91267858702E+02  0.27704393791E+03  0.90865924176E+02 0.  0.
        254    2    1    2    0    0 -0.21657656775E+03 -0.11515856732E+03  0.38373747018E+04  0.39483701415E+04  0.89666898431E+03 0.  0.
        -24    2    4    4    0    0 -0.12934048687E+03 -0.12858372113E+03  0.38240969595E+04  0.38291738342E+04  0.74779422395E+02 0.  0.
         24    2    4    4    0    0 -0.87236080872E+02  0.13425153807E+02  0.13277742277E+02  0.11919630733E+03  0.79000586589E+02 0.  0.
         11    1    3    3    0    0  0.15244725256E+00 -0.15199553488E+00 -0.11249301369E+02  0.11251360988E+02  0.00000000000E+00 0. -1.
        -11    1    3    3    0    0  0.21642412049E+03  0.11531056286E+03  0.10251716007E+03  0.26579257692E+03  0.00000000000E+00 0.  1.
          4    1    6    6  502    0 -0.58853516001E+02  0.42816323138E+02 -0.78431691000E+01  0.73201701991E+02  0.00000000000E+00 0. -1.
          3    1    5    5  503    0 -0.12707102134E+03 -0.87230034976E+02  0.27988484722E+04  0.28030891698E+04  0.00000000000E+00 0. -1.
         -4    1    5    5    0  503 -0.22694655354E+01 -0.41353686154E+02  0.10252484873E+04  0.10260846645E+04  0.00000000000E+00 0.  1.
         -3    1    6    6    0  502 -0.28382564871E+02 -0.29391169331E+02  0.21120911377E+02  0.45994605343E+02  0.00000000000E+00 0.  1.
<mgrwt>
<rscale>  0 0.15556001E+04</rscale>
<asrwt>0</asrwt>
<pdfrwt beam="1">  1        2 0.62723504E+00 0.15556001E+04</pdfrwt>
<pdfrwt beam="2">  1       -2 0.22828581E-01 0.15556001E+04</pdfrwt>
<totfact> 0.49228980E+00</totfact>
</mgrwt>
</event>
<event>
12    1  0.1598876E-007  0.1932597E+04  0.7818608E-02  0.8638799E-01
         -2   -1    0    0    0  501 -0.00000000000E+00  0.00000000000E+00  0.52483379420E+03  0.52483379420E+03  0.00000000000E+00 0.  1.
          2   -1    0    0  501    0  0.00000000000E+00 -0.00000000000E+00 -0.17791026502E+04  0.17791026502E+04  0.00000000000E+00 0. -1.
         23    2    1    2    0    0  0.16379719943E+03 -0.44551794768E+03  0.20962877312E+03  0.52534358692E+03  0.82011569665E+02 0.  0.
        254    2    1    2    0    0 -0.16379719943E+03  0.44551794768E+03 -0.14638976291E+04  0.17785928575E+04  0.89167287719E+03 0.  0.
        -24    2    4    4    0    0 -0.48632086656E+03  0.18320416586E+03 -0.11053835540E+04  0.12239488574E+04  0.78142512510E+02 0.  0.
         24    2    4    4    0    0  0.32252366713E+03  0.26231378181E+03 -0.35851407510E+03  0.55464400014E+03  0.79168105008E+02 0.  0.
         11    1    3    3    0    0  0.53612613462E+02 -0.65430459177E+02  0.52478841009E+02  0.99546401562E+02  0.00000000000E+00 0. -1.
        -11    1    3    3    0    0  0.11018458596E+03 -0.38008748850E+03  0.15714993212E+03  0.42579718536E+03  0.00000000000E+00 0.  1.
          2    1    6    6  502    0  0.31653797240E+03  0.24412873496E+03 -0.32156429052E+03  0.51302896618E+03  0.00000000000E+00 0. -1.
          3    1    5    5  503    0 -0.24650219850E+03  0.83647077808E+02 -0.64211655439E+03  0.69287360818E+03  0.00000000000E+00 0. -1.
         -4    1    5    5    0  503 -0.23981866806E+03  0.99557088056E+02 -0.46326699966E+03  0.53107524919E+03  0.00000000000E+00 0.  1.
         -1    1    6    6    0  502  0.59856947380E+01  0.18185046852E+02 -0.36949784583E+02  0.41615033957E+02  0.00000000000E+00 0.  1.
<mgrwt>
<rscale>  0 0.19325974E+04</rscale>
<asrwt>0</asrwt>
<pdfrwt beam="1">  1        2 0.27370810E+00 0.19325974E+04</pdfrwt>
<pdfrwt beam="2">  1       -2 0.80743662E-01 0.19325974E+04</pdfrwt>
<totfact> 0.11206544E+01</totfact>
</mgrwt>
</event>
<event>
12    1  0.1598876E-007  0.4535266E+04  0.7818608E-02  0.7904492E-01
          2   -1    0    0  501    0  0.00000000000E+00  0.00000000000E+00  0.35484279093E+04  0.35484279093E+04  0.00000000000E+00 0.  1.
         -2   -1    0    0    0  501 -0.00000000000E+00 -0.00000000000E+00 -0.14491375695E+04  0.14491375695E+04  0.00000000000E+00 0. -1.
         23    2    1    2    0    0  0.12028697696E+04  0.17062265327E+04  0.32491741314E+03  0.21148042972E+04  0.93387509118E+02 0.  0.
        254    2    1    2    0    0 -0.12028697696E+04 -0.17062265327E+04  0.17743729266E+04  0.28827611815E+04  0.89655344714E+03 0.  0.
        -24    2    4    4    0    0  0.10729413072E+02 -0.58737190949E+03  0.28340523549E+03  0.65699433285E+03  0.78753701667E+02 0.  0.
         24    2    4    4    0    0 -0.12135991827E+04 -0.11188546232E+04  0.14909676911E+04  0.22257668487E+04  0.79967272508E+02 0.  0.
         13    1    3    3    0    0  0.19590142811E+02  0.23909000429E+02 -0.62465156040E+01  0.31534631028E+02  0.00000000000E+00 0.  1.
        -13    1    3    3    0    0  0.11832796268E+04  0.16823175322E+04  0.33116392874E+03  0.20832696662E+04  0.00000000000E+00 0. -1.
          2    1    6    6  502    0 -0.45630921595E+03 -0.47046840354E+03  0.61003413955E+03  0.89537716673E+03  0.00000000000E+00 0. -1.
          3    1    5    5  503    0  0.31663976194E+02 -0.35594144891E+03  0.13914719053E+03  0.38348254598E+03  0.00000000000E+00 0. -1.
         -4    1    5    5    0  503 -0.20934563122E+02 -0.23143046058E+03  0.14425804497E+03  0.27351178687E+03  0.00000000000E+00 0.  1.
         -1    1    6    6    0  502 -0.75728996674E+03 -0.64838621964E+03  0.88093355159E+03  0.13303896820E+04  0.00000000000E+00 0.  1.
<mgrwt>
<rscale>  0 0.45352663E+04</rscale>
<asrwt>0</asrwt>
<pdfrwt beam="1">  1        2 0.54591198E+00 0.45352663E+04</pdfrwt>
<pdfrwt beam="2">  1       -2 0.22294424E+00 0.45352663E+04</pdfrwt>
<totfact> 0.53651277E-02</totfact>
</mgrwt>
</event>
<event>
12    1  0.1598876E-007  0.2176317E+04  0.7818608E-02  0.8528351E-01
          1   -1    0    0  501    0  0.00000000000E+00  0.00000000000E+00  0.33509095479E+04  0.33509095479E+04  0.00000000000E+00 0. -1.
         -1   -1    0    0    0  501 -0.00000000000E+00 -0.00000000000E+00 -0.35336329861E+03  0.35336329861E+03  0.00000000000E+00 0.  1.
         23    2    1    2    0    0 -0.74722222923E+03 -0.10194708003E+03  0.19309258449E+04  0.20747007272E+04  0.84700777992E+02 0.  0.
        254    2    1    2    0    0  0.74722222923E+03  0.10194708003E+03  0.10666204043E+04  0.16295721193E+04  0.97421349717E+03 0.  0.
        -24    2    4    4    0    0  0.23886586993E+03  0.27726562881E+03  0.10169744881E+04  0.10836460451E+04  0.78220898244E+02 0.  0.
         24    2    4    4    0    0  0.50835635930E+03 -0.17531854878E+03  0.49645916257E+02  0.54592607420E+03  0.80048609601E+02 0.  0.
         13    1    3    3    0    0 -0.61708945230E+03 -0.58726036655E+02  0.16344999401E+04  0.17480955905E+04  0.00000000000E+00 0. -1.
        -13    1    3    3    0    0 -0.13013277693E+03 -0.43221043377E+02  0.29642590481E+03  0.32660513662E+03  0.00000000000E+00 0.  1.
          2    1    6    6  502    0  0.21337090308E+03 -0.11565184584E+03  0.20856106568E+02  0.24359283427E+03  0.00000000000E+00 0. -1.
          1    1    5    5  503    0  0.25363669000E+02  0.75767021477E+02  0.19037260886E+03  0.20645989308E+03  0.00000000000E+00 0. -1.
         -2    1    5    5    0  503  0.21350220093E+03  0.20149860733E+03  0.82660187923E+03  0.87718615202E+03  0.00000000000E+00 0.  1.
         -1    1    6    6    0  502  0.29498545623E+03 -0.59666702939E+02  0.28789809689E+02  0.30233323993E+03  0.00000000000E+00 0.  1.
<mgrwt>
<rscale>  0 0.21763166E+04</rscale>
<asrwt>0</asrwt>
<pdfrwt beam="1">  1        1 0.51552453E+00 0.21763166E+04</pdfrwt>
<pdfrwt beam="2">  1       -1 0.54363587E-01 0.21763166E+04</pdfrwt>
<totfact> 0.10215873E+00</totfact>
</mgrwt>
</event>
<event>
12    1  0.1598876E-007  0.1501064E+04  0.7818608E-02  0.8883746E-01
          2   -1    0    0  501    0  0.00000000000E+00  0.00000000000E+00  0.69392614867E+03  0.69392614867E+03  0.00000000000E+00 0.  1.
         -2   -1    0    0    0  501 -0.00000000000E+00 -0.00000000000E+00 -0.81175492353E+03  0.81175492353E+03  0.00000000000E+00 0. -1.
         23    2    1    2    0    0 -0.20074634174E+03  0.17198867223E+03 -0.42977121729E+03  0.51290571690E+03  0.92139991986E+02 0.  0.
        254    2    1    2    0    0  0.20074634174E+03 -0.17198867223E+03  0.31194244243E+03  0.99277535529E+03  0.90466326420E+03 0.  0.
        -24    2    4    4    0    0  0.15273901150E+03 -0.22089530848E+03 -0.27710600975E+03  0.39447560885E+03  0.81849388490E+02 0.  0.
         24    2    4    4    0    0  0.48007330239E+02  0.48906636252E+02  0.58904845217E+03  0.59829974644E+03  0.79296562079E+02 0.  0.
         13    1    3    3    0    0 -0.39098688379E+02  0.42148813306E+02 -0.35853876165E+02  0.67754928471E+02  0.00000000000E+00 0.  1.
        -13    1    3    3    0    0 -0.16164765336E+03  0.12983985892E+03 -0.39391734113E+03  0.44515078843E+03  0.00000000000E+00 0. -1.
          4    1    6    6  502    0  0.59850356298E+01  0.51523840013E+02  0.18725682167E+03  0.19430811615E+03  0.00000000000E+00 0. -1.
          1    1    5    5  503    0  0.80055226877E+02 -0.18040584227E+03 -0.20137823485E+03  0.28197216307E+03  0.00000000000E+00 0. -1.
         -2    1    5    5    0  503  0.72683784626E+02 -0.40489466212E+02 -0.75727774903E+02  0.11250344578E+03  0.00000000000E+00 0.  1.
         -3    1    6    6    0  502  0.42022294609E+02 -0.26172037609E+01  0.40179163051E+03  0.40399163029E+03  0.00000000000E+00 0.  1.
<mgrwt>
<rscale>  0 0.15010636E+04</rscale>
<asrwt>0</asrwt>
<pdfrwt beam="1">  1        2 0.10675787E+00 0.15010636E+04</pdfrwt>
<pdfrwt beam="2">  1       -2 0.12488537E+00 0.15010636E+04</pdfrwt>
<totfact> 0.19230970E+01</totfact>
</mgrwt>
</event>
<event>
12    1  0.1598876E-007  0.1643488E+04  0.7818608E-02  0.8794268E-01
         -1   -1    0    0    0  501 -0.00000000000E+00  0.00000000000E+00  0.65876693331E+03  0.65876693331E+03  0.00000000000E+00 0.  1.
          1   -1    0    0  501    0  0.00000000000E+00 -0.00000000000E+00 -0.10250413957E+04  0.10250413957E+04  0.00000000000E+00 0. -1.
         23    2    1    2    0    0 -0.35391592408E+03  0.58923625858E+02  0.32732405498E+03  0.49373892770E+03  0.88930403972E+02 0.  0.
        254    2    1    2    0    0  0.35391592408E+03 -0.58923625858E+02 -0.69359851739E+03  0.11900694013E+04  0.89802995589E+03 0.  0.
        -24    2    4    4    0    0 -0.26351291357E+03 -0.18416304101E+03 -0.24455343388E+03  0.41216833178E+03  0.81983354477E+02 0.  0.
         24    2    4    4    0    0  0.61742883765E+03  0.12523941515E+03 -0.44904508351E+03  0.77790106956E+03  0.81149900279E+02 0.  0.
         13    1    3    3    0    0 -0.26489485138E+03  0.81751285754E+02  0.23426945097E+03  0.36295279399E+03  0.00000000000E+00 0.  1.
        -13    1    3    3    0    0 -0.89021072708E+02 -0.22827659896E+02  0.93054604009E+02  0.13078613371E+03  0.00000000000E+00 0. -1.
          2    1    6    6  502    0  0.61812232057E+03  0.12005460402E+03 -0.44293111187E+03  0.76985471421E+03  0.00000000000E+00 0. -1.
          3    1    5    5  503    0 -0.24903694511E+03 -0.19068449076E+03 -0.22072770339E+03  0.38353708307E+03  0.00000000000E+00 0. -1.
         -4    1    5    5    0  503 -0.14475968465E+02  0.65214497505E+01 -0.23825730482E+02  0.28631248713E+02  0.00000000000E+00 0.  1.
         -1    1    6    6    0  502 -0.69348291894E+00  0.51848111313E+01 -0.61139716421E+01  0.80463553405E+01  0.00000000000E+00 0.  1.
<mgrwt>
<rscale>  0 0.16434882E+04</rscale>
<asrwt>0</asrwt>
<pdfrwt beam="1">  1        1 0.15769868E+00 0.16434882E+04</pdfrwt>
<pdfrwt beam="2">  1       -1 0.10134876E+00 0.16434882E+04</pdfrwt>
<totfact> 0.12785662E+01</totfact>
</mgrwt>
</event>
<event>
12    1  0.1598876E-007  0.1360586E+04  0.7818608E-02  0.8982853E-01
          2   -1    0    0  501    0  0.00000000000E+00  0.00000000000E+00  0.20811919256E+04  0.20811919256E+04  0.00000000000E+00 0. -1.
         -2   -1    0    0    0  501 -0.00000000000E+00 -0.00000000000E+00 -0.22237182059E+03  0.22237182059E+03  0.00000000000E+00 0.  1.
         23    2    1    2    0    0  0.32039606731E+03 -0.16015673829E+03  0.71846822598E+03  0.80799156789E+03  0.91378122508E+02 0.  0.
        254    2    1    2    0    0 -0.32039606731E+03  0.16015673829E+03  0.11403518790E+04  0.14955721783E+04  0.89890484019E+03 0.  0.
        -24    2    4    4    0    0 -0.38274063866E+03  0.22843655660E+03  0.12086815649E+03  0.46858705875E+03  0.79316224744E+02 0.  0.
         24    2    4    4    0    0  0.62344571352E+02 -0.68279818303E+02  0.10194837225E+04  0.10269851195E+04  0.82476639744E+02 0.  0.
         11    1    3    3    0    0  0.31994520974E+02  0.93802334094E+01  0.90930132326E+02  0.96850023830E+02  0.00000000000E+00 0. -1.
        -11    1    3    3    0    0  0.28840154633E+03 -0.16953697170E+03  0.62753809365E+03  0.71114154406E+03  0.00000000000E+00 0.  1.
          4    1    6    6  502    0 -0.47780895721E+01  0.13057504524E+02  0.54088935824E+02  0.55847484661E+02  0.00000000000E+00 0. -1.
          1    1    5    5  503    0 -0.14445047127E+02  0.15702373979E+02  0.24495787745E+02  0.32484881904E+02  0.00000000000E+00 0. -1.
         -2    1    5    5    0  503 -0.36829559153E+03  0.21273418262E+03  0.96372368750E+02  0.43610217685E+03  0.00000000000E+00 0.  1.
         -3    1    6    6    0  502  0.67122660924E+02 -0.81337322827E+02  0.96539478667E+03  0.97113763485E+03  0.00000000000E+00 0.  1.
<mgrwt>
<rscale>  0 0.13605858E+04</rscale>
<asrwt>0</asrwt>
<pdfrwt beam="1">  1        2 0.32018336E+00 0.13605858E+04</pdfrwt>
<pdfrwt beam="2">  1       -2 0.34211051E-01 0.13605858E+04</pdfrwt>
<totfact> 0.47068889E+01</totfact>
</mgrwt>
</event>
<event>
12    1  0.1598876E-007  0.1217336E+04  0.7818608E-02  0.9097816E-01
         -1   -1    0    0    0  501 -0.00000000000E+00  0.00000000000E+00  0.38821726422E+03  0.38821726422E+03  0.00000000000E+00 0.  1.
          1   -1    0    0  501    0  0.00000000000E+00 -0.00000000000E+00 -0.95430324765E+03  0.95430324765E+03  0.00000000000E+00 0. -1.
         23    2    1    2    0    0  0.63801488630E+02 -0.43290316394E+01  0.15303310333E+03  0.18966414964E+03  0.91999937379E+02 0.  0.
        254    2    1    2    0    0 -0.63801488630E+02  0.43290316394E+01 -0.71911908676E+03  0.11528563622E+04  0.89880818895E+03 0.  0.
        -24    2    4    4    0    0 -0.29304201077E+03 -0.19602911146E+03 -0.75424662876E+03  0.83624297035E+03  0.78187568320E+02 0.  0.
         24    2    4    4    0    0  0.22924052214E+03  0.20035814310E+03  0.35127542002E+02  0.31661339188E+03  0.79470077480E+02 0.  0.
         11    1    3    3    0    0 -0.15722145343E+02 -0.17005020412E+01 -0.14644392932E+01  0.15881503198E+02  0.00000000000E+00 0. -1.
        -11    1    3    3    0    0  0.79523633973E+02 -0.26285295982E+01  0.15449754262E+03  0.17378264644E+03  0.00000000000E+00 0.  1.
          2    1    6    6  502    0  0.15525521130E+03  0.17489070994E+03  0.86916836291E+01  0.23402240581E+03  0.00000000000E+00 0. -1.
          1    1    5    5  503    0 -0.22530970062E+03 -0.18487788984E+03 -0.63400528402E+03  0.69778721364E+03  0.00000000000E+00 0. -1.
         -2    1    5    5    0  503 -0.67732310147E+02 -0.11151221623E+02 -0.12024134474E+03  0.13845575671E+03  0.00000000000E+00 0.  1.
         -3    1    6    6    0  502  0.73985310838E+02  0.25467433163E+02  0.26435858373E+02  0.82590986068E+02  0.00000000000E+00 0.  1.
<mgrwt>
<rscale>  0 0.12173364E+04</rscale>
<asrwt>0</asrwt>
<pdfrwt beam="1">  1        1 0.14681588E+00 0.12173364E+04</pdfrwt>
<pdfrwt beam="2">  1       -1 0.59725733E-01 0.12173364E+04</pdfrwt>
<totfact> 0.46200111E+01</totfact>
</mgrwt>
</event>
<event>
12    1  0.1598876E-007  0.2274738E+04  0.7818608E-02  0.8487949E-01
          1   -1    0    0  501    0  0.00000000000E+00  0.00000000000E+00  0.18820199958E+04  0.18820199958E+04  0.00000000000E+00 0. -1.
         -1   -1    0    0    0  501 -0.00000000000E+00 -0.00000000000E+00 -0.68735081675E+03  0.68735081675E+03  0.00000000000E+00 0.  1.
         23    2    1    2    0    0  0.75394616634E+03  0.27332764548E+03  0.10938191534E+04  0.13599761662E+04  0.99759754954E+02 0.  0.
        254    2    1    2    0    0 -0.75394616634E+03 -0.27332764548E+03  0.10085002564E+03  0.12093946464E+04  0.89962317635E+03 0.  0.
        -24    2    4    4    0    0 -0.21301320828E+03  0.39569152599E+02  0.43765293595E+03  0.49480333656E+03  0.79686289851E+02 0.  0.
         24    2    4    4    0    0 -0.54093295805E+03 -0.31289679808E+03 -0.33680291031E+03  0.71459130979E+03  0.81802617742E+02 0.  0.
         11    1    3    3    0    0 -0.52424732484E+00  0.42985228280E+01  0.12431263441E+00  0.43321573600E+01  0.00000000000E+00 0.  1.
        -11    1    3    3    0    0  0.75447041366E+03  0.26902912266E+03  0.10936948408E+04  0.13556440088E+04  0.00000000000E+00 0. -1.
          2    1    6    6  502    0 -0.25702568279E+03 -0.16677268059E+03 -0.12214778057E+03  0.32984149057E+03  0.00000000000E+00 0. -1.
          1    1    5    5  503    0 -0.16635140447E+03  0.44052152784E+02  0.39723640862E+03  0.43290893531E+03  0.00000000000E+00 0. -1.
         -2    1    5    5    0  503 -0.46661803814E+02 -0.44830001851E+01  0.40416527327E+02  0.61894401258E+02  0.00000000000E+00 0.  1.
         -1    1    6    6    0  502 -0.28390727526E+03 -0.14612411750E+03 -0.21465512975E+03  0.38474981921E+03  0.00000000000E+00 0.  1.
<mgrwt>
<rscale>  0 0.22747378E+04</rscale>
<asrwt>0</asrwt>
<pdfrwt beam="1">  1        1 0.28954154E+00 0.22747378E+04</pdfrwt>
<pdfrwt beam="2">  1       -1 0.10574628E+00 0.22747378E+04</pdfrwt>
<totfact> 0.27178019E+00</totfact>
</mgrwt>
</event>
<event>
12    1  0.1598876E-007  0.1256450E+04  0.7818608E-02  0.9064832E-01
          2   -1    0    0  501    0  0.00000000000E+00  0.00000000000E+00  0.70999737457E+03  0.70999737457E+03  0.00000000000E+00 0. -1.
         -2   -1    0    0    0  501 -0.00000000000E+00 -0.00000000000E+00 -0.55587099592E+03  0.55587099592E+03  0.00000000000E+00 0.  1.
         23    2    1    2    0    0 -0.63518453330E+01  0.20464101496E+03  0.27302142597E+03  0.35324998533E+03  0.91249998109E+02 0.  0.
        254    2    1    2    0    0  0.63518453330E+01 -0.20464101496E+03 -0.11889504732E+03  0.91261838515E+03  0.88137278929E+03 0.  0.
        -24    2    4    4    0    0  0.79613121993E+02 -0.90683293404E+02 -0.48986232357E+03  0.50977817315E+03  0.73123052953E+02 0.  0.
         24    2    4    4    0    0 -0.73261276660E+02 -0.11395772156E+03  0.37096727625E+03  0.40284021200E+03  0.79435126954E+02 0.  0.
         11    1    3    3    0    0 -0.20493011676E+02  0.16596040066E+03  0.26165527872E+03  0.31052584916E+03  0.00000000000E+00 0. -1.
        -11    1    3    3    0    0  0.14141166343E+02  0.38680614299E+02  0.11366147247E+02  0.42724136168E+02  0.00000000000E+00 0.  1.
          4    1    6    6  502    0 -0.26123696534E+02 -0.10524929506E+03  0.27377002904E+03  0.29446543164E+03  0.00000000000E+00 0. -1.
          1    1    5    5  503    0  0.77978562635E+02 -0.99474603341E+02 -0.40054765492E+03  0.42001699585E+03  0.00000000000E+00 0. -1.
         -2    1    5    5    0  503  0.16345593574E+01  0.87913099372E+01 -0.89314668653E+02  0.89761177306E+02  0.00000000000E+00 0.  1.
         -3    1    6    6    0  502 -0.47137580126E+02 -0.87084264964E+01  0.97197247215E+02  0.10837478036E+03  0.00000000000E+00 0.  1.
<mgrwt>
<rscale>  0 0.12564505E+04</rscale>
<asrwt>0</asrwt>
<pdfrwt beam="1">  1        2 0.10923037E+00 0.12564505E+04</pdfrwt>
<pdfrwt beam="2">  1       -2 0.85518614E-01 0.12564505E+04</pdfrwt>
<totfact> 0.47029979E+01</totfact>
</mgrwt>
</event>
<event>
12    1  0.1598876E-007  0.1412137E+04  0.7818608E-02  0.8945080E-01
          2   -1    0    0  501    0  0.00000000000E+00  0.00000000000E+00  0.99083190245E+03  0.99083190245E+03  0.00000000000E+00 0. -1.
         -2   -1    0    0    0  501 -0.00000000000E+00 -0.00000000000E+00 -0.50314542673E+03  0.50314542673E+03  0.00000000000E+00 0.  1.
         23    2    1    2    0    0 -0.63047734793E+02  0.38432028453E+03  0.22534122785E+03  0.45878331117E+03  0.89589952983E+02 0.  0.
        254    2    1    2    0    0  0.63047734793E+02 -0.38432028453E+03  0.26234524787E+03  0.10351940180E+04  0.92256410503E+03 0.  0.
        -24    2    4    4    0    0  0.27946928321E+03 -0.26820555599E+03  0.53108333979E+03  0.66229140933E+03  0.80889409374E+02 0.  0.
         24    2    4    4    0    0 -0.21642154842E+03 -0.11611472855E+03 -0.26873809192E+03  0.37290260868E+03  0.80717264000E+02 0.  0.
         13    1    3    3    0    0 -0.78274203787E+02  0.36702525382E+03  0.22041214043E+03  0.43521936948E+03  0.00000000000E+00 0. -1.
        -13    1    3    3    0    0  0.15226468994E+02  0.17295030712E+02  0.49290874201E+01  0.23563941694E+02  0.00000000000E+00 0.  1.
          2    1    6    6  502    0 -0.17121270243E+03 -0.92582064776E+02 -0.25369922033E+03  0.31976322895E+03  0.00000000000E+00 0. -1.
          3    1    5    5  503    0  0.21222419105E+03 -0.24597974761E+03  0.43690190597E+03  0.54445240282E+03  0.00000000000E+00 0. -1.
         -4    1    5    5    0  503  0.67245092160E+02 -0.22225808375E+02  0.94181433825E+02  0.11783900651E+03  0.00000000000E+00 0.  1.
         -3    1    6    6    0  502 -0.45208845992E+02 -0.23532663770E+02 -0.15038871593E+02  0.53139379737E+02  0.00000000000E+00 0.  1.
<mgrwt>
<rscale>  0 0.14121367E+04</rscale>
<asrwt>0</asrwt>
<pdfrwt beam="1">  1        2 0.15243568E+00 0.14121367E+04</pdfrwt>
<pdfrwt beam="2">  1       -2 0.77406989E-01 0.14121367E+04</pdfrwt>
<totfact> 0.36965583E+01</totfact>
</mgrwt>
</event>
<event>
12    1  0.1598876E-007  0.2454974E+04  0.7818608E-02  0.8419204E-01
         -2   -1    0    0    0  501 -0.00000000000E+00  0.00000000000E+00  0.52463678701E+03  0.52463678701E+03  0.00000000000E+00 0.  1.
          2   -1    0    0  501    0  0.00000000000E+00 -0.00000000000E+00 -0.28719385111E+04  0.28719385111E+04  0.00000000000E+00 0. -1.
         23    2    1    2    0    0 -0.10221751712E+04  0.12420548806E+03 -0.65885798474E+03  0.12257666345E+04  0.90227014586E+02 0.  0.
        254    2    1    2    0    0  0.10221751712E+04 -0.12420548806E+03 -0.16884437394E+04  0.21708086637E+04  0.89515300889E+03 0.  0.
        -24    2    4    4    0    0 -0.23848504818E+02 -0.12559571194E+03 -0.74438580876E+03  0.75957218477E+03  0.80601721779E+02 0.  0.
         24    2    4    4    0    0  0.10460236761E+04  0.13902238748E+01 -0.94405793063E+03  0.14112364789E+04  0.78584727988E+02 0.  0.
         13    1    3    3    0    0 -0.26939143184E+03  0.58024361377E+02 -0.21359317659E+03  0.34865543900E+03  0.00000000000E+00 0. -1.
        -13    1    3    3    0    0 -0.75278373940E+03  0.66181126684E+02 -0.44526480815E+03  0.87711119546E+03  0.00000000000E+00 0.  1.
          4    1    6    6  502    0  0.64950940229E+03 -0.26310277675E+02 -0.54952997497E+03  0.85119791339E+03  0.00000000000E+00 0. -1.
          3    1    5    5  503    0 -0.98088119837E+01 -0.10930318585E+01 -0.22764435225E+03  0.22785819850E+03  0.00000000000E+00 0. -1.
         -4    1    5    5    0  503 -0.14039692834E+02 -0.12450268008E+03 -0.51674145651E+03  0.53171398627E+03  0.00000000000E+00 0.  1.
         -3    1    6    6    0  502  0.39651427377E+03  0.27700501549E+02 -0.39452795566E+03  0.56003856553E+03  0.00000000000E+00 0.  1.
<mgrwt>
<rscale>  0 0.24549742E+04</rscale>
<asrwt>0</asrwt>
<pdfrwt beam="1">  1        2 0.44183669E+00 0.24549742E+04</pdfrwt>
<pdfrwt beam="2">  1       -2 0.80713352E-01 0.24549742E+04</pdfrwt>
<totfact> 0.25357864E+00</totfact>
</mgrwt>
</event>
<event>
12    1  0.1598876E-007  0.1963008E+04  0.7818608E-02  0.8624114E-01
          2   -1    0    0  501    0  0.00000000000E+00  0.00000000000E+00  0.27723832422E+04  0.27723832422E+04  0.00000000000E+00 0. -1.
         -2   -1    0    0    0  501 -0.00000000000E+00 -0.00000000000E+00 -0.34748086988E+03  0.34748086988E+03  0.00000000000E+00 0.  1.
         23    2    1    2    0    0 -0.77133364811E+03  0.75910268987E+02  0.98991022677E+03  0.12589039673E+04  0.64799507434E+02 0.  0.
        254    2    1    2    0    0  0.77133364811E+03 -0.75910268987E+02  0.14349921456E+04  0.18609601448E+04  0.89624340282E+03 0.  0.
        -24    2    4    4    0    0 -0.10925040574E+02 -0.33954137758E+03  0.51512184446E+03  0.62238572835E+03  0.81275928865E+02 0.  0.
         24    2    4    4    0    0  0.78225868868E+03  0.26363110859E+03  0.91987030109E+03  0.12385744164E+04  0.80468607671E+02 0.  0.
         13    1    3    3    0    0 -0.44906727588E+03  0.62717183751E+02  0.53584465500E+03  0.70194327242E+03  0.00000000000E+00 0. -1.
        -13    1    3    3    0    0 -0.32226637222E+03  0.13193085236E+02  0.45406557178E+03  0.55696069488E+03  0.00000000000E+00 0.  1.
          4    1    6    6  502    0  0.16913726319E+03  0.71815569387E+02  0.16113261714E+03  0.24439437414E+03  0.00000000000E+00 0. -1.
          1    1    5    5  503    0 -0.12641616153E+02 -0.11125878798E+03  0.24034300300E+03  0.26514729388E+03  0.00000000000E+00 0. -1.
         -2    1    5    5    0  503  0.17165755797E+01 -0.22828258960E+03  0.27477884146E+03  0.35723843447E+03  0.00000000000E+00 0.  1.
         -3    1    6    6    0  502  0.61312142549E+03  0.19181553921E+03  0.75873768395E+03  0.99418004230E+03  0.00000000000E+00 0.  1.
<mgrwt>
<rscale>  0 0.19630080E+04</rscale>
<asrwt>0</asrwt>
<pdfrwt beam="1">  1        2 0.42652048E+00 0.19630080E+04</pdfrwt>
<pdfrwt beam="2">  1       -2 0.53458597E-01 0.19630080E+04</pdfrwt>
<totfact> 0.73963695E+00</totfact>
</mgrwt>
</event>
<event>
12    1  0.1598876E-007  0.1280848E+04  0.7818608E-02  0.9044892E-01
         -1   -1    0    0    0  501 -0.00000000000E+00  0.00000000000E+00  0.11846909280E+04  0.11846909280E+04  0.00000000000E+00 0.  1.
          1   -1    0    0  501    0  0.00000000000E+00 -0.00000000000E+00 -0.34620271559E+03  0.34620271559E+03  0.00000000000E+00 0. -1.
         23    2    1    2    0    0 -0.22361905467E+03  0.22032835645E+03  0.18613576225E+03  0.37786508058E+03  0.97905213687E+02 0.  0.
        254    2    1    2    0    0  0.22361905467E+03 -0.22032835645E+03  0.65235245012E+03  0.11530285630E+04  0.89741912258E+03 0.  0.
        -24    2    4    4    0    0 -0.34146024197E+02  0.32412380830E+03  0.30698710297E+03  0.45446966871E+03  0.77970534923E+02 0.  0.
         24    2    4    4    0    0  0.25776507887E+03 -0.54445216475E+03  0.34536534716E+03  0.69855889426E+03  0.76395746895E+02 0.  0.
         11    1    3    3    0    0 -0.29146303180E+02  0.90253060563E+02  0.51278656462E+02  0.10781754281E+03  0.00000000000E+00 0.  1.
        -11    1    3    3    0    0 -0.19447275149E+03  0.13007529589E+03  0.13485710579E+03  0.27004753777E+03  0.00000000000E+00 0. -1.
          2    1    6    6  502    0  0.17143982154E+03 -0.42516990737E+03  0.28228417568E+03  0.53837293615E+03  0.00000000000E+00 0. -1.
          3    1    5    5  503    0 -0.49297405600E+02  0.11384809908E+03  0.12192142362E+03  0.17394383404E+03  0.00000000000E+00 0. -1.
         -4    1    5    5    0  503  0.15151381403E+02  0.21027570922E+03  0.18506567934E+03  0.28052583467E+03  0.00000000000E+00 0.  1.
         -1    1    6    6    0  502  0.86325257334E+02 -0.11928225738E+03  0.63081171478E+02  0.16018595811E+03  0.00000000000E+00 0.  1.
<mgrwt>
<rscale>  0 0.12808485E+04</rscale>
<asrwt>0</asrwt>
<pdfrwt beam="1">  1        1 0.53261957E-01 0.12808485E+04</pdfrwt>
<pdfrwt beam="2">  1       -1 0.18226014E+00 0.12808485E+04</pdfrwt>
<totfact> 0.14331707E+01</totfact>
</mgrwt>
</event>
<event>
12    1  0.1598876E-007  0.2271978E+04  0.7818608E-02  0.8489053E-01
         -2   -1    0    0    0  501 -0.00000000000E+00  0.00000000000E+00  0.44760692905E+03  0.44760692905E+03  0.00000000000E+00 0.  1.
          2   -1    0    0  501    0  0.00000000000E+00 -0.00000000000E+00 -0.28830445321E+04  0.28830445321E+04  0.00000000000E+00 0. -1.
         23    2    1    2    0    0  0.41263642681E+02  0.61851961419E+03 -0.20963385608E+04  0.21881876744E+04  0.96232716516E+02 0.  0.
        254    2    1    2    0    0 -0.41263642681E+02 -0.61851961419E+03 -0.33909904230E+03  0.11424637868E+04  0.89775617080E+03 0.  0.
        -24    2    4    4    0    0  0.23071198681E+03 -0.51451273571E+02  0.19246010481E+03  0.31510950548E+03  0.79861468136E+02 0.  0.
         24    2    4    4    0    0 -0.27197562949E+03 -0.56706834062E+03 -0.53155914711E+03  0.82735428127E+03  0.80141960947E+02 0.  0.
         13    1    3    3    0    0  0.15770709421E+02  0.21848157114E+03 -0.58741830369E+03  0.62693155585E+03  0.00000000000E+00 0.  1.
        -13    1    3    3    0    0  0.25492933260E+02  0.40003804304E+03 -0.15089202571E+04  0.15612561186E+04  0.00000000000E+00 0. -1.
          2    1    6    6  502    0 -0.59485396498E+02 -0.10990441392E+03 -0.66921418157E+02  0.14176025114E+03  0.00000000000E+00 0. -1.
          1    1    5    5  503    0  0.11824494388E+03  0.12829583144E+02  0.77898248199E+02  0.14217806451E+03  0.00000000000E+00 0. -1.
         -2    1    5    5    0  503  0.11246704293E+03 -0.64280856716E+02  0.11456185661E+03  0.17293144097E+03  0.00000000000E+00 0.  1.
         -1    1    6    6    0  502 -0.21249023299E+03 -0.45716392669E+03 -0.46463772895E+03  0.68559403013E+03  0.00000000000E+00 0.  1.
<mgrwt>
<rscale>  0 0.22719777E+04</rscale>
<asrwt>0</asrwt>
<pdfrwt beam="1">  1        2 0.44354530E+00 0.22719777E+04</pdfrwt>
<pdfrwt beam="2">  1       -2 0.68862606E-01 0.22719777E+04</pdfrwt>
<totfact> 0.36049138E+00</totfact>
</mgrwt>
</event>
<event>
12    1  0.1598876E-007  0.1508622E+04  0.7818608E-02  0.8878740E-01
          2   -1    0    0  501    0  0.00000000000E+00  0.00000000000E+00  0.22278129790E+04  0.22278129790E+04  0.00000000000E+00 0. -1.
         -2   -1    0    0    0  501 -0.00000000000E+00 -0.00000000000E+00 -0.25540067784E+03  0.25540067784E+03  0.00000000000E+00 0.  1.
         23    2    1    2    0    0 -0.31562948206E+03  0.36766131205E+03  0.46790269513E+03  0.67970985307E+03  0.90971104930E+02 0.  0.
        254    2    1    2    0    0  0.31562948206E+03 -0.36766131205E+03  0.15045096060E+04  0.18035038037E+04  0.86849295058E+03 0.  0.
        -24    2    4    4    0    0  0.34437361273E+03 -0.62779901722E+03  0.11017211363E+04  0.13163911557E+04  0.79821183713E+02 0.  0.
         24    2    4    4    0    0 -0.28744130673E+02  0.26013770517E+03  0.40278846970E+03  0.48711264807E+03  0.80884670260E+02 0.  0.
         11    1    3    3    0    0  0.13184724981E+01  0.88725056039E+01  0.28558091470E+02  0.29933665226E+02  0.00000000000E+00 0. -1.
        -11    1    3    3    0    0 -0.31694795456E+03  0.35878880645E+03  0.43934460366E+03  0.64977618785E+03  0.00000000000E+00 0.  1.
          2    1    6    6  502    0  0.25454883365E+02  0.13178911636E+03  0.18471610007E+03  0.22833387813E+03  0.00000000000E+00 0. -1.
          1    1    5    5  503    0  0.76352198641E+02 -0.21507134117E+03  0.36136621095E+03  0.42740013857E+03  0.00000000000E+00 0. -1.
         -2    1    5    5    0  503  0.26802141409E+03 -0.41272767605E+03  0.74035492536E+03  0.88899101711E+03  0.00000000000E+00 0.  1.
         -1    1    6    6    0  502 -0.54199014038E+02  0.12834858882E+03  0.21807236963E+03  0.25877876994E+03  0.00000000000E+00 0.  1.
<mgrwt>
<rscale>  0 0.15086218E+04</rscale>
<asrwt>0</asrwt>
<pdfrwt beam="1">  1        2 0.34274045E+00 0.15086218E+04</pdfrwt>
<pdfrwt beam="2">  1       -2 0.39292413E-01 0.15086218E+04</pdfrwt>
<totfact> 0.29489259E+01</totfact>
</mgrwt>
</event>
<event>
12    1  0.1598876E-007  0.1947515E+04  0.7818608E-02  0.8631560E-01
          2   -1    0    0  501    0  0.00000000000E+00  0.00000000000E+00  0.24410535994E+04  0.24410535994E+04  0.00000000000E+00 0. -1.
         -2   -1    0    0    0  501 -0.00000000000E+00 -0.00000000000E+00 -0.38844038786E+03  0.38844038786E+03  0.00000000000E+00 0.  1.
         23    2    1    2    0    0  0.68886696975E+03  0.20646322937E+03  0.12092565839E+04  0.14101881886E+04  0.95731261947E+02 0.  0.
        254    2    1    2    0    0 -0.68886696975E+03 -0.20646322937E+03  0.84335662758E+03  0.14193057986E+04  0.88657418275E+03 0.  0.
        -24    2    4    4    0    0 -0.65011022171E+03 -0.17462042676E+03  0.10163815263E+04  0.12217016255E+04  0.79924095097E+02 0.  0.
         24    2    4    4    0    0 -0.38756748045E+02 -0.31842802613E+02 -0.17302489874E+03  0.19760417305E+03  0.81201872055E+02 0.  0.
         13    1    3    3    0    0  0.19206257975E+02 -0.91483480010E+01  0.26081297085E+02  0.33657193499E+02  0.00000000000E+00 0.  1.
        -13    1    3    3    0    0  0.66966071178E+03  0.21561157737E+03  0.11831752868E+04  0.13765309951E+04  0.00000000000E+00 0. -1.
          4    1    6    6  502    0 -0.33690244649E+01 -0.53649734380E+02 -0.92580255722E+02  0.10705488347E+03  0.00000000000E+00 0. -1.
          3    1    5    5  503    0 -0.96474387208E+02 -0.20009452613E+01  0.17468748882E+03  0.19956710630E+03  0.00000000000E+00 0. -1.
         -4    1    5    5    0  503 -0.55363583450E+03 -0.17261948149E+03  0.84169403751E+03  0.10221345192E+04  0.00000000000E+00 0.  1.
         -3    1    6    6    0  502 -0.35387723580E+02  0.21806931767E+02 -0.80444643021E+02  0.90549289584E+02  0.00000000000E+00 0.  1.
<mgrwt>
<rscale>  0 0.19475151E+04</rscale>
<asrwt>0</asrwt>
<pdfrwt beam="1">  1        2 0.37554670E+00 0.19475151E+04</pdfrwt>
<pdfrwt beam="2">  1       -2 0.59760061E-01 0.19475151E+04</pdfrwt>
<totfact> 0.91808441E+00</totfact>
</mgrwt>
</event>
<event>
12    1  0.1598876E-007  0.1300672E+04  0.7818608E-02  0.9029033E-01
         -3   -1    0    0    0  501 -0.00000000000E+00  0.00000000000E+00  0.12427034829E+04  0.12427034829E+04  0.00000000000E+00 0.  1.
          3   -1    0    0  501    0  0.00000000000E+00 -0.00000000000E+00 -0.34033602882E+03  0.34033602882E+03  0.00000000000E+00 0. -1.
         23    2    1    2    0    0  0.27873935521E+03  0.97883622730E+02  0.52756241185E+02  0.31365100574E+03  0.91197043133E+02 0.  0.
        254    2    1    2    0    0 -0.27873935521E+03 -0.97883622730E+02  0.84961121292E+03  0.12693885060E+04  0.89567356461E+03 0.  0.
        -24    2    4    4    0    0  0.91010334369E+02 -0.46594162189E+02  0.87723922593E+03  0.88667050531E+03  0.78625877208E+02 0.  0.
         24    2    4    4    0    0 -0.36974968958E+03 -0.51289460540E+02 -0.27628013004E+02  0.38271800071E+03  0.79776683674E+02 0.  0.
         11    1    3    3    0    0  0.11034601145E+03 -0.67466432820E+00  0.42554122743E+02  0.11826897640E+03  0.00000000000E+00 0. -1.
        -11    1    3    3    0    0  0.16839334375E+03  0.98558287058E+02  0.10202118441E+02  0.19538202934E+03  0.00000000000E+00 0.  1.
          2    1    6    6  502    0 -0.27904454356E+03 -0.73010763654E+02 -0.19580374704E+02  0.28910174675E+03  0.00000000000E+00 0. -1.
          3    1    5    5  503    0  0.75337074634E+02 -0.59593536397E+02  0.82547648426E+03  0.83104662352E+03  0.00000000000E+00 0. -1.
         -4    1    5    5    0  503  0.15673259735E+02  0.12999374208E+02  0.51762741665E+02  0.55623881788E+02  0.00000000000E+00 0.  1.
         -1    1    6    6    0  502 -0.90705146014E+02  0.21721303114E+02 -0.80476383002E+01  0.93616253955E+02  0.00000000000E+00 0.  1.
<mgrwt>
<rscale>  0 0.13006718E+04</rscale>
<asrwt>0</asrwt>
<pdfrwt beam="1">  1        3 0.52359390E-01 0.13006718E+04</pdfrwt>
<pdfrwt beam="2">  1       -3 0.19118515E+00 0.13006718E+04</pdfrwt>
<totfact> 0.15467989E+00</totfact>
</mgrwt>
</event>
<event>
12    1  0.1598876E-007  0.1685285E+04  0.7818608E-02  0.8769801E-01
          2   -1    0    0  501    0  0.00000000000E+00  0.00000000000E+00  0.23882034036E+04  0.23882034036E+04  0.00000000000E+00 0. -1.
         -2   -1    0    0    0  501 -0.00000000000E+00 -0.00000000000E+00 -0.29731414568E+03  0.29731414568E+03  0.00000000000E+00 0.  1.
         23    2    1    2    0    0  0.25313500959E+03  0.20085373142E+03 -0.41045509009E+02  0.33809702917E+03  0.90583181782E+02 0.  0.
        254    2    1    2    0    0 -0.25313500959E+03 -0.20085373142E+03  0.21319347669E+04  0.23474205201E+04  0.92780261548E+03 0.  0.
        -24    2    4    4    0    0 -0.20501109662E+03 -0.55930616807E+03  0.11446282334E+04  0.12930201146E+04  0.82911307054E+02 0.  0.
         24    2    4    4    0    0 -0.48123912971E+02  0.35845243665E+03  0.98730653350E+03  0.10544004054E+04  0.78625463636E+02 0.  0.
         13    1    3    3    0    0  0.48044879341E+02  0.49893517963E+02  0.27260984967E+02  0.74436784367E+02  0.00000000000E+00 0. -1.
        -13    1    3    3    0    0  0.20509013025E+03  0.15096021345E+03 -0.68306493977E+02  0.26366024481E+03  0.00000000000E+00 0.  1.
          2    1    6    6  502    0 -0.23201208847E+02  0.33362882947E+03  0.90846250758E+03  0.96806540049E+03  0.00000000000E+00 0. -1.
          1    1    5    5  503    0 -0.21200967498E+03 -0.52703972783E+03  0.10712994185E+04  0.12126010972E+04  0.00000000000E+00 0. -1.
         -2    1    5    5    0  503  0.69985783594E+01 -0.32266440234E+02  0.73328814905E+02  0.80419017401E+02  0.00000000000E+00 0.  1.
         -1    1    6    6    0  502 -0.24922704124E+02  0.24823607179E+02  0.78844025917E+02  0.86335004935E+02  0.00000000000E+00 0.  1.
<mgrwt>
<rscale>  0 0.16852853E+04</rscale>
<asrwt>0</asrwt>
<pdfrwt beam="1">  1        2 0.36741590E+00 0.16852853E+04</pdfrwt>
<pdfrwt beam="2">  1       -2 0.45740639E-01 0.16852853E+04</pdfrwt>
<totfact> 0.17455191E+01</totfact>
</mgrwt>
</event>
<event>
12    1  0.1598876E-007  0.1595366E+04  0.7818608E-02  0.8823400E-01
          1   -1    0    0  501    0  0.00000000000E+00  0.00000000000E+00  0.26188542179E+03  0.26188542179E+03  0.00000000000E+00 0. -1.
         -1   -1    0    0    0  501 -0.00000000000E+00 -0.00000000000E+00 -0.24296829178E+04  0.24296829178E+04  0.00000000000E+00 0.  1.
         23    2    1    2    0    0  0.43388372569E+03  0.30088282475E+03 -0.66965941037E+03  0.85768655249E+03  0.91634790245E+02 0.  0.
        254    2    1    2    0    0 -0.43388372569E+03 -0.30088282475E+03 -0.14981380856E+04  0.18338817871E+04  0.91647101629E+03 0.  0.
        -24    2    4    4    0    0 -0.12653418938E+03  0.32006924120E+03 -0.40676747448E+03  0.53871408911E+03  0.79359128434E+02 0.  0.
         24    2    4    4    0    0 -0.30734953631E+03 -0.62095206595E+03 -0.10913706111E+04  0.12951676980E+04  0.79525777570E+02 0.  0.
         13    1    3    3    0    0  0.43025788607E+03  0.28894811726E+03 -0.62824842164E+03  0.81443780750E+03  0.00000000000E+00 0. -1.
        -13    1    3    3    0    0  0.36258396174E+01  0.11934707492E+02 -0.41410988728E+02  0.43248744990E+02  0.00000000000E+00 0.  1.
          4    1    6    6  502    0 -0.71763024545E+02 -0.83303113311E+02 -0.15565822579E+03  0.19057498166E+03  0.00000000000E+00 0. -1.
          1    1    5    5  503    0 -0.62132059430E+01  0.33043557005E+02 -0.83327626035E+02  0.89855293936E+02  0.00000000000E+00 0. -1.
         -2    1    5    5    0  503 -0.12032098344E+03  0.28702568419E+03 -0.32343984845E+03  0.44885879518E+03  0.00000000000E+00 0.  1.
         -3    1    6    6    0  502 -0.23558651176E+03 -0.53764895264E+03 -0.93571238534E+03  0.11045927163E+04  0.00000000000E+00 0.  1.
<mgrwt>
<rscale>  0 0.15953665E+04</rscale>
<asrwt>0</asrwt>
<pdfrwt beam="1">  1        1 0.40290064E-01 0.15953665E+04</pdfrwt>
<pdfrwt beam="2">  1       -1 0.37379738E+00 0.15953665E+04</pdfrwt>
<totfact> 0.10878139E+00</totfact>
</mgrwt>
</event>
<event>
12    1  0.1598876E-007  0.1951333E+04  0.7818608E-02  0.8629718E-01
         -2   -1    0    0    0  501 -0.00000000000E+00  0.00000000000E+00  0.94438913210E+03  0.94438913210E+03  0.00000000000E+00 0.  1.
          2   -1    0    0  501    0  0.00000000000E+00 -0.00000000000E+00 -0.10079798434E+04  0.10079798434E+04  0.00000000000E+00 0. -1.
         23    2    1    2    0    0 -0.28367559834E+03 -0.76145989185E+02 -0.73282996388E+03  0.79351298977E+03  0.79706036222E+02 0.  0.
        254    2    1    2    0    0  0.28367559834E+03  0.76145989185E+02  0.66923925253E+03  0.11588559858E+04  0.89933084117E+03 0.  0.
        -24    2    4    4    0    0  0.59659517021E+03 -0.37507821067E+02  0.43726587723E+03  0.74506842898E+03  0.81196568374E+02 0.  0.
         24    2    4    4    0    0 -0.31291957187E+03  0.11365381025E+03  0.23197337529E+03  0.41378755679E+03  0.81071871002E+02 0.  0.
         13    1    3    3    0    0 -0.18838283174E+03 -0.74136343615E+02 -0.41580036366E+03  0.46246538374E+03  0.00000000000E+00 0.  1.
        -13    1    3    3    0    0 -0.95292766602E+02 -0.20096455706E+01 -0.31702960022E+03  0.33104760603E+03  0.00000000000E+00 0. -1.
          4    1    6    6  502    0 -0.19768583860E+03  0.45551274594E+02  0.17648143633E+03  0.26888716364E+03  0.00000000000E+00 0. -1.
          1    1    5    5  503    0  0.36157371302E+03 -0.57406194621E+02  0.24188751455E+03  0.43879447447E+03  0.00000000000E+00 0. -1.
         -2    1    5    5    0  503  0.23502145719E+03  0.19898373555E+02  0.19537836268E+03  0.30627395452E+03  0.00000000000E+00 0.  1.
         -3    1    6    6    0  502 -0.11523373327E+03  0.68102535658E+02  0.55491938960E+02  0.14490039315E+03  0.00000000000E+00 0.  1.
<mgrwt>
<rscale>  0 0.19513331E+04</rscale>
<asrwt>0</asrwt>
<pdfrwt beam="1">  1        2 0.15507382E+00 0.19513331E+04</pdfrwt>
<pdfrwt beam="2">  1       -2 0.14529064E+00 0.19513331E+04</pdfrwt>
<totfact> 0.75674901E+00</totfact>
</mgrwt>
</event>
<event>
12    1  0.1598876E-007  0.1585765E+04  0.7818608E-02  0.8829341E-01
          2   -1    0    0  501    0  0.00000000000E+00  0.00000000000E+00  0.11937914790E+04  0.11937914790E+04  0.00000000000E+00 0. -1.
         -2   -1    0    0    0  501 -0.00000000000E+00 -0.00000000000E+00 -0.52660993528E+03  0.52660993528E+03  0.00000000000E+00 0.  1.
         23    2    1    2    0    0  0.56241389198E+02 -0.35782245271E+03  0.63382333250E+03  0.73517319109E+03  0.86876939118E+02 0.  0.
        254    2    1    2    0    0 -0.56241389198E+02  0.35782245271E+03  0.33358211199E+02  0.98522822318E+03  0.91562103513E+03 0.  0.
        -24    2    4    4    0    0  0.11830484827E+03  0.17158791537E+03  0.44371673924E+03  0.49682374246E+03  0.80689755031E+02 0.  0.
         24    2    4    4    0    0 -0.17454623746E+03  0.18623453734E+03 -0.41035852804E+03  0.48840448072E+03  0.70676186537E+02 0.  0.
         11    1    3    3    0    0  0.27391844609E+02 -0.34488446909E+02  0.46082460201E+02  0.63744484149E+02  0.00000000000E+00 0. -1.
        -11    1    3    3    0    0  0.28849544589E+02 -0.32333400580E+03  0.58774087230E+03  0.67142870694E+03  0.00000000000E+00 0.  1.
          2    1    6    6  502    0 -0.10180043159E+03  0.15282182228E+03 -0.26393875904E+03  0.32152994536E+03  0.00000000000E+00 0. -1.
          1    1    5    5  503    0  0.27630099604E+02  0.43547020171E+02  0.20331025362E+03  0.20974943289E+03  0.00000000000E+00 0. -1.
         -2    1    5    5    0  503  0.90674748662E+02  0.12804089520E+03  0.24040648561E+03  0.28707430957E+03  0.00000000000E+00 0.  1.
         -1    1    6    6    0  502 -0.72745805870E+02  0.33412715059E+02 -0.14641976900E+03  0.16687453536E+03  0.00000000000E+00 0.  1.
<mgrwt>
<rscale>  0 0.15857647E+04</rscale>
<asrwt>0</asrwt>
<pdfrwt beam="1">  1        2 0.18366023E+00 0.15857647E+04</pdfrwt>
<pdfrwt beam="2">  1       -2 0.81016913E-01 0.15857647E+04</pdfrwt>
<totfact> 0.24641832E+01</totfact>
</mgrwt>
</event>
<event>
12    1  0.1598876E-007  0.3006826E+04  0.7818608E-02  0.8241784E-01
         -2   -1    0    0    0  501 -0.00000000000E+00  0.00000000000E+00  0.27261014168E+04  0.27261014168E+04  0.00000000000E+00 0.  1.
          2   -1    0    0  501    0  0.00000000000E+00 -0.00000000000E+00 -0.82911448979E+03  0.82911448979E+03  0.00000000000E+00 0. -1.
         23    2    1    2    0    0  0.88390348933E+03  0.38340570795E+03  0.20112004620E+04  0.22319768373E+04  0.92238758755E+02 0.  0.
        254    2    1    2    0    0 -0.88390348933E+03 -0.38340570795E+03 -0.11421353500E+03  0.13232390693E+04  0.89979530313E+03 0.  0.
        -24    2    4    4    0    0 -0.77398381938E+03  0.39649406850E+02  0.16778071122E+03  0.79685772519E+03  0.78796186478E+02 0.  0.
         24    2    4    4    0    0 -0.10991966994E+03 -0.42305511480E+03 -0.28199424622E+03  0.52638134408E+03  0.80613897663E+02 0.  0.
         13    1    3    3    0    0  0.21940013261E+03  0.13880515428E+03  0.52133523695E+03  0.58240339828E+03  0.00000000000E+00 0. -1.
        -13    1    3    3    0    0  0.66450335672E+03  0.24460055367E+03  0.14898652250E+04  0.16495734390E+04  0.00000000000E+00 0.  1.
          4    1    6    6  502    0  0.54304080546E+01 -0.92674049583E+02 -0.78515982129E+02  0.12158424342E+03  0.00000000000E+00 0. -1.
          3    1    5    5  503    0 -0.25573098565E+03  0.47885283882E+02  0.69578910359E+02  0.26931870006E+03  0.00000000000E+00 0. -1.
         -4    1    5    5    0  503 -0.51825283373E+03 -0.82358770323E+01  0.98201800863E+02  0.52753902513E+03  0.00000000000E+00 0.  1.
         -3    1    6    6    0  502 -0.11535007800E+03 -0.33038106522E+03 -0.20347826409E+03  0.40479710067E+03  0.00000000000E+00 0.  1.
<mgrwt>
<rscale>  0 0.30068257E+04</rscale>
<asrwt>0</asrwt>
<pdfrwt beam="1">  1        2 0.12755608E+00 0.30068257E+04</pdfrwt>
<pdfrwt beam="2">  1       -2 0.41940021E+00 0.30068257E+04</pdfrwt>
<totfact> 0.15526933E-01</totfact>
</mgrwt>
</event>
<event>
12    1  0.1598876E-007  0.1685421E+04  0.7818608E-02  0.8769723E-01
         -2   -1    0    0    0  501 -0.00000000000E+00  0.00000000000E+00  0.24818961385E+03  0.24818961385E+03  0.00000000000E+00 0.  1.
          2   -1    0    0  501    0  0.00000000000E+00 -0.00000000000E+00 -0.28613651891E+04  0.28613651891E+04  0.00000000000E+00 0. -1.
         23    2    1    2    0    0  0.28298037245E+03  0.46620468414E+03 -0.51036514642E+03  0.75234470938E+03  0.90140336926E+02 0.  0.
        254    2    1    2    0    0 -0.28298037245E+03 -0.46620468414E+03 -0.21028104288E+04  0.23572100936E+04  0.91498799277E+03 0.  0.
        -24    2    4    4    0    0 -0.48788754745E+03 -0.56606724977E+03 -0.18939701395E+04  0.20376937741E+04  0.81281224626E+02 0.  0.
         24    2    4    4    0    0  0.20490717500E+03  0.99862565626E+02 -0.20884028932E+03  0.31951631946E+03  0.80727501988E+02 0.  0.
         13    1    3    3    0    0  0.10585453924E+03  0.10073643433E+03 -0.14952438667E+03  0.20907069352E+03  0.00000000000E+00 0. -1.
        -13    1    3    3    0    0  0.17712583321E+03  0.36546824981E+03 -0.36084075975E+03  0.54327401586E+03  0.00000000000E+00 0.  1.
          2    1    6    6  502    0  0.49163388533E+02  0.44637932612E+02 -0.10537259420E+03  0.12455106345E+03  0.00000000000E+00 0. -1.
          3    1    5    5  503    0 -0.13014780264E+03 -0.17141864139E+03 -0.45605271517E+03  0.50428848902E+03  0.00000000000E+00 0. -1.
         -4    1    5    5    0  503 -0.35773974481E+03 -0.39464860838E+03 -0.14379174243E+04  0.15334052851E+04  0.00000000000E+00 0.  1.
         -1    1    6    6    0  502  0.15574378647E+03  0.55224633014E+02 -0.10346769512E+03  0.19496525600E+03  0.00000000000E+00 0.  1.
<mgrwt>
<rscale>  0 0.16854212E+04</rscale>
<asrwt>0</asrwt>
<pdfrwt beam="1">  1        2 0.44021000E+00 0.16854212E+04</pdfrwt>
<pdfrwt beam="2">  1       -2 0.38183020E-01 0.16854212E+04</pdfrwt>
<totfact> 0.13141788E+01</totfact>
</mgrwt>
</event>
<event>
12    1  0.1598876E-007  0.1760148E+04  0.7818608E-02  0.8727784E-01
          2   -1    0    0  501    0  0.00000000000E+00  0.00000000000E+00  0.13430055549E+04  0.13430055549E+04  0.00000000000E+00 0. -1.
         -2   -1    0    0    0  501 -0.00000000000E+00 -0.00000000000E+00 -0.57671435080E+03  0.57671435080E+03  0.00000000000E+00 0.  1.
         23    2    1    2    0    0  0.15357987222E+02 -0.14265695275E+03  0.97353975231E+03  0.98873591538E+03  0.96084270842E+02 0.  0.
        254    2    1    2    0    0 -0.15357987222E+02  0.14265695275E+03 -0.20724854819E+03  0.93098399032E+03  0.89620999524E+03 0.  0.
        -24    2    4    4    0    0  0.45027780823E+02 -0.35498159279E+03  0.35958160536E+02  0.36812131951E+03  0.78618600245E+02 0.  0.
         24    2    4    4    0    0 -0.60385768045E+02  0.49763854554E+03 -0.24320670873E+03  0.56286267082E+03  0.79839338932E+02 0.  0.
         13    1    3    3    0    0  0.20607457511E+01 -0.84836143663E+02  0.81589315024E+03  0.82029449014E+03  0.00000000000E+00 0. -1.
        -13    1    3    3    0    0  0.13297241471E+02 -0.57820809087E+02  0.15764660207E+03  0.16844142524E+03  0.00000000000E+00 0.  1.
          2    1    6    6  502    0  0.12190625693E+02  0.70212700879E+02 -0.55970504826E+02  0.90615297439E+02  0.00000000000E+00 0. -1.
          1    1    5    5  503    0 -0.10664691638E+02 -0.13974599832E+02  0.12944646297E+02  0.21830917432E+02  0.00000000000E+00 0. -1.
         -2    1    5    5    0  503  0.55692472460E+02 -0.34100699295E+03  0.23013514239E+02  0.34629040208E+03  0.00000000000E+00 0.  1.
         -1    1    6    6    0  502 -0.72576393737E+02  0.42742584466E+03 -0.18723620390E+03  0.47224737338E+03  0.00000000000E+00 0.  1.
<mgrwt>
<rscale>  0 0.17601484E+04</rscale>
<asrwt>0</asrwt>
<pdfrwt beam="1">  1        2 0.20661624E+00 0.17601484E+04</pdfrwt>
<pdfrwt beam="2">  1       -2 0.88725285E-01 0.17601484E+04</pdfrwt>
<totfact> 0.16144038E+01</totfact>
</mgrwt>
</event>
<event>
12    1  0.1598876E-007  0.1935660E+04  0.7818608E-02  0.8637307E-01
          2   -1    0    0  501    0  0.00000000000E+00  0.00000000000E+00  0.11489681913E+04  0.11489681913E+04  0.00000000000E+00 0. -1.
         -2   -1    0    0    0  501 -0.00000000000E+00 -0.00000000000E+00 -0.81524914047E+03  0.81524914047E+03  0.00000000000E+00 0.  1.
         23    2    1    2    0    0  0.46480317885E+03 -0.11164755796E+03 -0.46038133187E+03  0.67012988225E+03  0.92821959075E+02 0.  0.
        254    2    1    2    0    0 -0.46480317885E+03  0.11164755796E+03  0.79410038274E+03  0.12940874496E+04  0.90308346069E+03 0.  0.
        -24    2    4    4    0    0 -0.57527243504E+03 -0.25207225989E+03  0.52341531283E+03  0.82065747909E+03  0.70966960965E+02 0.  0.
         24    2    4    4    0    0  0.11046925620E+03  0.36371981785E+03  0.27068506991E+03  0.47342997047E+03  0.79812075561E+02 0.  0.
         13    1    3    3    0    0  0.41970810044E+02  0.53811597542E+01 -0.75297983540E+02  0.86372982473E+02  0.00000000000E+00 0. -1.
        -13    1    3    3    0    0  0.42283236881E+03 -0.11702871772E+03 -0.38508334833E+03  0.58375689978E+03  0.00000000000E+00 0.  1.
          2    1    6    6  502    0  0.97689768600E+02  0.31097347041E+03  0.19346936798E+03  0.37904905558E+03  0.00000000000E+00 0. -1.
          3    1    5    5  503    0 -0.51560029815E+03 -0.20566445602E+03  0.44220448875E+03  0.70970863444E+03  0.00000000000E+00 0. -1.
         -4    1    5    5    0  503 -0.59672136893E+02 -0.46407803871E+02  0.81210824079E+02  0.11094884465E+03  0.00000000000E+00 0.  1.
         -1    1    6    6    0  502  0.12779487595E+02  0.52746347440E+02  0.77215701925E+02  0.94380914889E+02  0.00000000000E+00 0.  1.
<mgrwt>
<rscale>  0 0.19356604E+04</rscale>
<asrwt>0</asrwt>
<pdfrwt beam="1">  1        2 0.17676434E+00 0.19356604E+04</pdfrwt>
<pdfrwt beam="2">  1       -2 0.12542295E+00 0.19356604E+04</pdfrwt>
<totfact> 0.90284001E+00</totfact>
</mgrwt>
</event>
<event>
12    1  0.1598876E-007  0.1554245E+04  0.7818608E-02  0.8849161E-01
          2   -1    0    0  501    0  0.00000000000E+00  0.00000000000E+00  0.65754002350E+03  0.65754002350E+03  0.00000000000E+00 0. -1.
         -2   -1    0    0    0  501 -0.00000000000E+00 -0.00000000000E+00 -0.91845321599E+03  0.91845321599E+03  0.00000000000E+00 0.  1.
         23    2    1    2    0    0 -0.14480069677E+03  0.31390487715E+03 -0.46222234161E+03  0.58414281232E+03  0.89832168096E+02 0.  0.
        254    2    1    2    0    0  0.14480069677E+03 -0.31390487715E+03  0.20130914911E+03  0.99185042717E+03  0.90760034304E+03 0.  0.
        -24    2    4    4    0    0  0.95879587670E+02 -0.30631476689E+03  0.54380036545E+03  0.63650471369E+03  0.79986132201E+02 0.  0.
         24    2    4    4    0    0  0.48921109097E+02 -0.75901102542E+01 -0.34249121634E+03  0.35534571348E+03  0.80743161489E+02 0.  0.
         13    1    3    3    0    0 -0.69203770034E+00  0.37791626759E+02 -0.97266996414E+02  0.10435302852E+03  0.00000000000E+00 0.  1.
        -13    1    3    3    0    0 -0.14410865907E+03  0.27611325039E+03 -0.36495534519E+03  0.47978978380E+03  0.00000000000E+00 0. -1.
          4    1    6    6  502    0 -0.40589937993E+01 -0.34189893094E+02 -0.15162235887E+03  0.15548235890E+03  0.00000000000E+00 0. -1.
          3    1    5    5  503    0  0.25863774753E+02 -0.14552623058E+03  0.31739036441E+03  0.35011921120E+03  0.00000000000E+00 0. -1.
         -4    1    5    5    0  503  0.70015812917E+02 -0.16078853631E+03  0.22641000104E+03  0.28638550249E+03  0.00000000000E+00 0.  1.
         -3    1    6    6    0  502  0.52980102896E+02  0.26599782839E+02 -0.19086885748E+03  0.19986335458E+03  0.00000000000E+00 0.  1.
<mgrwt>
<rscale>  0 0.15542455E+04</rscale>
<asrwt>0</asrwt>
<pdfrwt beam="1">  1        2 0.10116000E+00 0.15542455E+04</pdfrwt>
<pdfrwt beam="2">  1       -2 0.14130049E+00 0.15542455E+04</pdfrwt>
<totfact> 0.14946163E+01</totfact>
</mgrwt>
</event>
<event>
12    1  0.1598876E-007  0.1538304E+04  0.7818608E-02  0.8859373E-01
          2   -1    0    0  501    0  0.00000000000E+00  0.00000000000E+00  0.17796898662E+04  0.17796898662E+04  0.00000000000E+00 0. -1.
         -2   -1    0    0    0  501 -0.00000000000E+00 -0.00000000000E+00 -0.33241440430E+03  0.33241440430E+03  0.00000000000E+00 0.  1.
         23    2    1    2    0    0 -0.30116725209E+03  0.34814784083E+03  0.20399224740E+03  0.51178078084E+03  0.91641136146E+02 0.  0.
        254    2    1    2    0    0  0.30116725209E+03 -0.34814784083E+03  0.12432832145E+04  0.16003234896E+04  0.89631104383E+03 0.  0.
        -24    2    4    4    0    0  0.15960045575E+03  0.15561539234E+03  0.98129077857E+03  0.10095941689E+04  0.81610893730E+02 0.  0.
         24    2    4    4    0    0  0.14156679634E+03 -0.50376323316E+03  0.26199243593E+03  0.59072932075E+03  0.80638334526E+02 0.  0.
         11    1    3    3    0    0  0.15738316950E+01  0.26806774212E+02  0.41628506059E+01  0.27173689758E+02  0.00000000000E+00 0. -1.
        -11    1    3    3    0    0 -0.30274108378E+03  0.32134106661E+03  0.19982939679E+03  0.48460709108E+03  0.00000000000E+00 0.  1.
          2    1    6    6  502    0  0.72544285358E+02 -0.13579015343E+03  0.93947926314E+02  0.18035479468E+03  0.00000000000E+00 0. -1.
          1    1    5    5  503    0  0.11909804819E+03  0.14942735615E+03  0.87630635805E+03  0.89689782752E+03  0.00000000000E+00 0. -1.
         -2    1    5    5    0  503  0.40502407566E+02  0.61880361906E+01  0.10498442051E+03  0.11269634138E+03  0.00000000000E+00 0.  1.
         -1    1    6    6    0  502  0.69022510979E+02 -0.36797307974E+03  0.16804450961E+03  0.41037452607E+03  0.00000000000E+00 0.  1.
<mgrwt>
<rscale>  0 0.15383037E+04</rscale>
<asrwt>0</asrwt>
<pdfrwt beam="1">  1        2 0.27379843E+00 0.15383037E+04</pdfrwt>
<pdfrwt beam="2">  1       -2 0.51140679E-01 0.15383037E+04</pdfrwt>
<totfact> 0.30827308E+01</totfact>
</mgrwt>
</event>
<event>
12    1  0.1838093E-007  0.4168193E+04  0.7818608E-02  0.7971450E-01
         -2   -1    0    0    0  501 -0.00000000000E+00  0.00000000000E+00  0.11901600260E+04  0.11901600260E+04  0.00000000000E+00 0. -1.
          2   -1    0    0  501    0  0.00000000000E+00 -0.00000000000E+00 -0.36494738252E+04  0.36494738252E+04  0.00000000000E+00 0.  1.
         23    2    1    2    0    0 -0.20150054481E+03 -0.12585129686E+03 -0.34584646557E+04  0.34678034983E+04  0.90787167467E+02 0.  0.
        254    2    1    2    0    0  0.20150054481E+03  0.12585129686E+03  0.99915085659E+03  0.13718303529E+04  0.90949165162E+03 0.  0.
        -24    2    4    4    0    0  0.51748783523E+03  0.11214643330E+03  0.86697763285E+03  0.10193460962E+04  0.83939060335E+02 0.  0.
         24    2    4    4    0    0 -0.31598729042E+03  0.13704863559E+02  0.13217322374E+03  0.35248425669E+03  0.82095061648E+02 0.  0.
         13    1    3    3    0    0 -0.14701732597E+03 -0.13438460350E+03 -0.27100100796E+04  0.27173199935E+04  0.00000000000E+00 0.  1.
        -13    1    3    3    0    0 -0.54483218840E+02  0.85333066376E+01 -0.74845457613E+03  0.75048350480E+03  0.00000000000E+00 0. -1.
          2    1    6    6  502    0 -0.31156148308E+03  0.14810191023E+02  0.14118889684E+03  0.34238020400E+03  0.00000000000E+00 0. -1.
          3    1    5    5  503    0  0.45796759640E+03  0.11127937710E+03  0.71740116105E+03  0.85835997402E+03  0.00000000000E+00 0. -1.
         -4    1    5    5    0  503  0.59520238827E+02  0.86705619951E+00  0.14957647180E+03  0.16098612217E+03  0.00000000000E+00 0.  1.
         -1    1    6    6    0  502 -0.44258073319E+01 -0.11053274648E+01 -0.90156730951E+01  0.10104052687E+02  0.00000000000E+00 0.  1.
<mgrwt>
<rscale>  0 0.41681928E+04</rscale>
<asrwt>0</asrwt>
<pdfrwt beam="1">  1        2 0.56145750E+00 0.41681928E+04</pdfrwt>
<pdfrwt beam="2">  1       -2 0.18310155E+00 0.41681928E+04</pdfrwt>
<totfact> 0.85210288E-02</totfact>
</mgrwt>
</event>
<event>
12    1  0.1598876E-007  0.1372929E+04  0.7818608E-02  0.8973651E-01
          2   -1    0    0  501    0  0.00000000000E+00  0.00000000000E+00  0.18967980872E+04  0.18967980872E+04  0.00000000000E+00 0. -1.
         -2   -1    0    0    0  501 -0.00000000000E+00 -0.00000000000E+00 -0.24843612531E+03  0.24843612531E+03  0.00000000000E+00 0.  1.
         23    2    1    2    0    0  0.16648510775E+03  0.10654985374E+03 -0.29423631789E+02  0.22165009072E+03  0.95879352185E+02 0.  0.
        254    2    1    2    0    0 -0.16648510775E+03 -0.10654985374E+03  0.16777855937E+04  0.19235841218E+04  0.91985934405E+03 0.  0.
        -24    2    4    4    0    0  0.16262921567E+03 -0.42765504905E+03  0.69787968274E+03  0.83813718348E+03  0.78107515547E+02 0.  0.
         24    2    4    4    0    0 -0.32911432342E+03  0.32110519531E+03  0.97990591092E+03  0.10854469383E+04  0.80960961346E+02 0.  0.
         13    1    3    3    0    0  0.10748813580E+03  0.57775556632E+02  0.28909347237E+02  0.12540918882E+03  0.00000000000E+00 0. -1.
        -13    1    3    3    0    0  0.58996971947E+02  0.48774297107E+02 -0.58332979027E+02  0.96240901904E+02  0.00000000000E+00 0.  1.
          2    1    6    6  502    0 -0.21988701437E+03  0.20024677506E+03  0.54219214564E+03  0.61840229042E+03  0.00000000000E+00 0. -1.
          1    1    5    5  503    0  0.13222268817E+03 -0.26253766094E+03  0.48338534541E+03  0.56574751863E+03  0.00000000000E+00 0. -1.
         -2    1    5    5    0  503  0.30406527499E+02 -0.16511738811E+03  0.21449433733E+03  0.27238966485E+03  0.00000000000E+00 0.  1.
         -1    1    6    6    0  502 -0.10922730905E+03  0.12085842026E+03  0.43771376528E+03  0.46704464787E+03  0.00000000000E+00 0.  1.
<mgrwt>
<rscale>  0 0.13729285E+04</rscale>
<asrwt>0</asrwt>
<pdfrwt beam="1">  1        2 0.29181508E+00 0.13729285E+04</pdfrwt>
<pdfrwt beam="2">  1       -2 0.38220944E-01 0.13729285E+04</pdfrwt>
<totfact> 0.48075417E+01</totfact>
</mgrwt>
</event>
<event>
12    1  0.1598876E-007  0.1360587E+04  0.7818608E-02  0.8982852E-01
          2   -1    0    0  501    0  0.00000000000E+00  0.00000000000E+00  0.16443769301E+04  0.16443769301E+04  0.00000000000E+00 0. -1.
         -2   -1    0    0    0  501 -0.00000000000E+00 -0.00000000000E+00 -0.28144362075E+03  0.28144362075E+03  0.00000000000E+00 0.  1.
         23    2    1    2    0    0 -0.95435146548E+01 -0.20291669929E+03  0.80446342530E+03  0.83455065400E+03  0.89705774207E+02 0.  0.
        254    2    1    2    0    0  0.95435146548E+01  0.20291669929E+03  0.55846988400E+03  0.10912698968E+04  0.91526778093E+03 0.  0.
        -24    2    4    4    0    0 -0.24505079660E+03  0.33317944466E+03 -0.40986690285E+02  0.42227052564E+03  0.74659579353E+02 0.  0.
         24    2    4    4    0    0  0.25459431125E+03 -0.13026274536E+03  0.59945657429E+03  0.66899937116E+03  0.80158143716E+02 0.  0.
         11    1    3    3    0    0  0.17506441475E+02 -0.18984271513E+03  0.72334638470E+03  0.74804861088E+03  0.00000000000E+00 0. -1.
        -11    1    3    3    0    0 -0.27049956130E+02 -0.13073984160E+02  0.81117040603E+02  0.86502043124E+02  0.00000000000E+00 0.  1.
          2    1    6    6  502    0 -0.22427534571E+01  0.39880615618E+01  0.20595054989E+01  0.50175831822E+01  0.00000000000E+00 0. -1.
          3    1    5    5  503    0 -0.44559703552E+02  0.11601528545E+03 -0.20932170895E+02  0.12602884359E+03  0.00000000000E+00 0. -1.
         -4    1    5    5    0  503 -0.20049109305E+03  0.21716415920E+03 -0.20054519389E+02  0.29624168205E+03  0.00000000000E+00 0.  1.
         -1    1    6    6    0  502  0.25683706471E+03 -0.13425080693E+03  0.59739706879E+03  0.66398178798E+03  0.00000000000E+00 0.  1.
<mgrwt>
<rscale>  0 0.13605872E+04</rscale>
<asrwt>0</asrwt>
<pdfrwt beam="1">  1        2 0.25298106E+00 0.13605872E+04</pdfrwt>
<pdfrwt beam="2">  1       -2 0.43299020E-01 0.13605872E+04</pdfrwt>
<totfact> 0.51982874E+01</totfact>
</mgrwt>
</event>
<event>
12    1  0.1598876E-007  0.1097954E+04  0.7818608E-02  0.9207189E-01
         -1   -1    0    0    0  501 -0.00000000000E+00  0.00000000000E+00  0.50517275082E+03  0.50517275082E+03  0.00000000000E+00 0.  1.
          1   -1    0    0  501    0  0.00000000000E+00 -0.00000000000E+00 -0.59657922916E+03  0.59657922916E+03  0.00000000000E+00 0. -1.
         23    2    1    2    0    0 -0.11424620530E+03  0.41809947079E+02 -0.13227057620E+03  0.19520040677E+03  0.76206471996E+02 0.  0.
        254    2    1    2    0    0  0.11424620530E+03 -0.41809947079E+02  0.40864097852E+02  0.90655157322E+03  0.89742164745E+03 0.  0.
        -24    2    4    4    0    0  0.14986144361E+03  0.76068144358E+02  0.44198178129E+03  0.47958341861E+03  0.80047145772E+02 0.  0.
         24    2    4    4    0    0 -0.35615238310E+02 -0.11787809144E+03 -0.40111768344E+03  0.42696815461E+03  0.79010881803E+02 0.  0.
         13    1    3    3    0    0 -0.11794409501E+03  0.54575131684E+02 -0.11606454008E+03  0.17424187788E+03  0.00000000000E+00 0.  1.
        -13    1    3    3    0    0  0.36978897044E+01 -0.12765184605E+02 -0.16206036119E+02  0.20958528883E+02  0.00000000000E+00 0. -1.
          4    1    6    6  502    0 -0.38285504120E+02 -0.43893445997E+02 -0.90295493196E+02  0.10745087491E+03  0.00000000000E+00 0. -1.
          1    1    5    5  503    0  0.89501506569E+02  0.31898907683E+02  0.14522730513E+03  0.17354835102E+03  0.00000000000E+00 0. -1.
         -2    1    5    5    0  503  0.60359937042E+02  0.44169236675E+02  0.29675447616E+03  0.30603506758E+03  0.00000000000E+00 0.  1.
         -3    1    6    6    0  502  0.26702658098E+01 -0.73984645440E+02 -0.31082219024E+03  0.31951727970E+03  0.00000000000E+00 0.  1.
<mgrwt>
<rscale>  0 0.10979537E+04</rscale>
<asrwt>0</asrwt>
<pdfrwt beam="1">  1        1 0.91781419E-01 0.10979537E+04</pdfrwt>
<pdfrwt beam="2">  1       -1 0.77718885E-01 0.10979537E+04</pdfrwt>
<totfact> 0.57118463E+01</totfact>
</mgrwt>
</event>
<event>
12    1  0.1598876E-007  0.2604421E+04  0.7818608E-02  0.8366701E-01
          1   -1    0    0  501    0  0.00000000000E+00  0.00000000000E+00  0.18025633079E+04  0.18025633079E+04  0.00000000000E+00 0. -1.
         -1   -1    0    0    0  501 -0.00000000000E+00 -0.00000000000E+00 -0.94074500498E+03  0.94074500498E+03  0.00000000000E+00 0.  1.
         23    2    1    2    0    0  0.42274044414E+03  0.53852714739E+03 -0.58594479594E+03  0.90590961325E+03  0.92843696093E+02 0.  0.
        254    2    1    2    0    0 -0.42274044414E+03 -0.53852714739E+03  0.14477630988E+04  0.18373986996E+04  0.90071916788E+03 0.  0.
        -24    2    4    4    0    0 -0.15346818378E+03 -0.14051781825E+03  0.13135095627E+04  0.13322220961E+04  0.78807368643E+02 0.  0.
         24    2    4    4    0    0 -0.26927226037E+03 -0.39800932914E+03  0.13425353612E+03  0.50517660350E+03  0.79122768362E+02 0.  0.
         11    1    3    3    0    0  0.24175948464E+03  0.27045677366E+03 -0.36216318302E+03  0.51259797695E+03  0.00000000000E+00 0.  1.
        -11    1    3    3    0    0  0.18098095950E+03  0.26807037373E+03 -0.22378161291E+03  0.39331163630E+03  0.00000000000E+00 0. -1.
          2    1    6    6  502    0 -0.19961075838E+03 -0.32357289498E+03  0.75841909002E+02  0.38768011090E+03  0.00000000000E+00 0. -1.
          1    1    5    5  503    0 -0.14057183326E+03 -0.86168134559E+02  0.10490069397E+04  0.10618855623E+04  0.00000000000E+00 0. -1.
         -4    1    5    5    0  503 -0.12896350520E+02 -0.54349683689E+02  0.26450262294E+03  0.27033653382E+03  0.00000000000E+00 0.  1.
         -1    1    6    6    0  502 -0.69661501990E+02 -0.74436434161E+02  0.58411627119E+02  0.11749649260E+03  0.00000000000E+00 0.  1.
<mgrwt>
<rscale>  0 0.26044212E+04</rscale>
<asrwt>0</asrwt>
<pdfrwt beam="1">  1        1 0.27731743E+00 0.26044212E+04</pdfrwt>
<pdfrwt beam="2">  1       -1 0.14473000E+00 0.26044212E+04</pdfrwt>
<totfact> 0.13716663E+00</totfact>
</mgrwt>
</event>
<event>
12    1  0.1598876E-007  0.2108934E+04  0.7818608E-02  0.8557318E-01
         -1   -1    0    0    0  501 -0.00000000000E+00  0.00000000000E+00  0.50813583078E+03  0.50813583078E+03  0.00000000000E+00 0.  1.
          1   -1    0    0  501    0  0.00000000000E+00 -0.00000000000E+00 -0.21881947445E+04  0.21881947445E+04  0.00000000000E+00 0. -1.
         23    2    1    2    0    0  0.51856979617E+03 -0.67481391555E+03 -0.52381885301E+03  0.10036231938E+04  0.92654574442E+02 0.  0.
        254    2    1    2    0    0 -0.51856979617E+03  0.67481391555E+03 -0.11562400607E+04  0.16927073815E+04  0.89670438124E+03 0.  0.
        -24    2    4    4    0    0 -0.69736015309E+03  0.73507639577E+03 -0.10501316549E+04  0.14614750327E+04  0.80525076822E+02 0.  0.
         24    2    4    4    0    0  0.17879035692E+03 -0.60262480217E+02 -0.10610840582E+03  0.23123234877E+03  0.81313265125E+02 0.  0.
         13    1    3    3    0    0  0.16894376072E+01 -0.16357456609E+01  0.36520101576E+01  0.43436207808E+01  0.00000000000E+00 0. -1.
        -13    1    3    3    0    0  0.51688035856E+03 -0.67317816989E+03 -0.52747086316E+03  0.99927957297E+03  0.00000000000E+00 0.  1.
          4    1    6    6  502    0  0.23797786096E+02 -0.18371035701E+02 -0.55103827363E+02  0.62771501224E+02  0.00000000000E+00 0. -1.
          3    1    5    5  503    0 -0.33486317433E+03  0.32003586082E+03 -0.43219951933E+03  0.63352405025E+03  0.00000000000E+00 0. -1.
         -4    1    5    5    0  503 -0.36249697876E+03  0.41504053495E+03 -0.61793213552E+03  0.82795098246E+03  0.00000000000E+00 0.  1.
         -3    1    6    6    0  502  0.15499257082E+03 -0.41891444516E+02 -0.51004578455E+02  0.16846084755E+03  0.00000000000E+00 0.  1.
<mgrwt>
<rscale>  0 0.21089335E+04</rscale>
<asrwt>0</asrwt>
<pdfrwt beam="1">  1        1 0.33664534E+00 0.21089335E+04</pdfrwt>
<pdfrwt beam="2">  1       -1 0.78174743E-01 0.21089335E+04</pdfrwt>
<totfact> 0.33411362E+00</totfact>
</mgrwt>
</event>
<event>
12    1  0.1598876E-007  0.2474818E+04  0.7818608E-02  0.8412012E-01
          1   -1    0    0  501    0  0.00000000000E+00  0.00000000000E+00  0.16712315005E+04  0.16712315005E+04  0.00000000000E+00 0. -1.
         -1   -1    0    0    0  501 -0.00000000000E+00 -0.00000000000E+00 -0.91619903226E+03  0.91619903226E+03  0.00000000000E+00 0.  1.
         23    2    1    2    0    0 -0.93537975158E+03  0.79259071679E+02 -0.20114069943E+03  0.96441319787E+03  0.91749415010E+02 0.  0.
        254    2    1    2    0    0  0.93537975158E+03 -0.79259071679E+02  0.95617316767E+03  0.16230173349E+04  0.91580612723E+03 0.  0.
        -24    2    4    4    0    0  0.10369832425E+04 -0.16348731129E+03  0.54865128899E+03  0.11871803205E+04  0.79476602633E+02 0.  0.
         24    2    4    4    0    0 -0.10160349089E+03  0.84228239610E+02  0.40752187868E+03  0.43583701438E+03  0.80387535067E+02 0.  0.
         11    1    3    3    0    0 -0.12095321069E+03  0.38343832684E+02 -0.13102837092E+02  0.12756023292E+03  0.00000000000E+00 0. -1.
        -11    1    3    3    0    0 -0.81442654089E+03  0.40915238995E+02 -0.18803786234E+03  0.83685296496E+03  0.00000000000E+00 0.  1.
          2    1    6    6  502    0 -0.17340691383E+02  0.27314009812E+02  0.22138906244E+03  0.22374063484E+03  0.00000000000E+00 0. -1.
          1    1    5    5  503    0  0.29981026259E+03 -0.61600331108E+02  0.12295991479E+03  0.32984835150E+03  0.00000000000E+00 0. -1.
         -2    1    5    5    0  503  0.73717297988E+03 -0.10188698018E+03  0.42569137420E+03  0.85733196900E+03  0.00000000000E+00 0.  1.
         -1    1    6    6    0  502 -0.84262799510E+02  0.56914229798E+02  0.18613281624E+03  0.21209637955E+03  0.00000000000E+00 0.  1.
<mgrwt>
<rscale>  0 0.24748177E+04</rscale>
<asrwt>0</asrwt>
<pdfrwt beam="1">  1        1 0.25711254E+00 0.24748177E+04</pdfrwt>
<pdfrwt beam="2">  1       -1 0.14095370E+00 0.24748177E+04</pdfrwt>
<totfact> 0.18281345E+00</totfact>
</mgrwt>
</event>
<event>
12    1  0.1598876E-007  0.2974610E+04  0.7818608E-02  0.8251019E-01
          2   -1    0    0  501    0  0.00000000000E+00  0.00000000000E+00  0.95015550928E+03  0.95015550928E+03  0.00000000000E+00 0. -1.
         -2   -1    0    0    0  501 -0.00000000000E+00 -0.00000000000E+00 -0.23281193663E+04  0.23281193663E+04  0.00000000000E+00 0.  1.
         23    2    1    2    0    0  0.11933956561E+04  0.62589990240E+03 -0.67795175325E+03  0.15112247222E+04  0.90761783957E+02 0.  0.
        254    2    1    2    0    0 -0.11933956561E+04 -0.62589990240E+03 -0.70001210377E+03  0.17670501534E+04  0.90360689418E+03 0.  0.
        -24    2    4    4    0    0 -0.33665997207E+02 -0.35916025816E+03  0.25972913613E+02  0.37067822492E+03  0.81229697635E+02 0.  0.
         24    2    4    4    0    0 -0.11597296589E+04 -0.26673964424E+03 -0.72598501739E+03  0.13963719284E+04  0.81715344388E+02 0.  0.
         13    1    3    3    0    0  0.33995223537E+02  0.36911809786E+02 -0.23982900631E+02  0.55617770970E+02  0.00000000000E+00 0.  1.
        -13    1    3    3    0    0  0.11594004326E+04  0.58898809261E+03 -0.65396885262E+03  0.14556069512E+04  0.00000000000E+00 0. -1.
          4    1    6    6  502    0 -0.96497852813E+03 -0.19166637055E+03 -0.60996258707E+03  0.11575724232E+04  0.00000000000E+00 0. -1.
          3    1    5    5  503    0 -0.22466953528E+02 -0.35227760757E+03  0.14598124867E+02  0.35329503541E+03  0.00000000000E+00 0. -1.
         -4    1    5    5    0  503 -0.11199043679E+02 -0.68826505895E+01  0.11374788746E+02  0.17383189508E+02  0.00000000000E+00 0.  1.
         -3    1    6    6    0  502 -0.19475113079E+03 -0.75073273692E+02 -0.11602243031E+03  0.23879950524E+03  0.00000000000E+00 0.  1.
<mgrwt>
<rscale>  0 0.29746095E+04</rscale>
<asrwt>0</asrwt>
<pdfrwt beam="1">  1        2 0.14617777E+00 0.29746095E+04</pdfrwt>
<pdfrwt beam="2">  1       -2 0.35817221E+00 0.29746095E+04</pdfrwt>
<totfact> 0.32150208E-01</totfact>
</mgrwt>
</event>
<event>
12    1  0.1598876E-007  0.1872316E+04  0.7818608E-02  0.8668760E-01
          1   -1    0    0  501    0  0.00000000000E+00  0.00000000000E+00  0.32328569727E+04  0.32328569727E+04  0.00000000000E+00 0. -1.
         -1   -1    0    0    0  501 -0.00000000000E+00 -0.00000000000E+00 -0.27108896888E+03  0.27108896888E+03  0.00000000000E+00 0.  1.
         23    2    1    2    0    0 -0.28195617475E+02 -0.69066314017E+03  0.85370094554E+03  0.11023358918E+04  0.92350137467E+02 0.  0.
        254    2    1    2    0    0  0.28195617475E+02  0.69066314017E+03  0.21080670583E+04  0.24016100498E+04  0.91976820072E+03 0.  0.
        -24    2    4    4    0    0  0.23589835734E+03  0.44917085559E+03  0.37133044572E+03  0.63382509996E+03  0.80283652889E+02 0.  0.
         24    2    4    4    0    0 -0.20770273986E+03  0.24149228458E+03  0.17367366126E+04  0.17677849499E+04  0.85735732215E+02 0.  0.
         13    1    3    3    0    0  0.17974359903E+02 -0.52722545677E+03  0.64272851606E+03  0.83149846977E+03  0.00000000000E+00 0.  1.
        -13    1    3    3    0    0 -0.46169977378E+02 -0.16343768339E+03  0.21097242949E+03  0.27083742202E+03  0.00000000000E+00 0. -1.
          4    1    6    6  502    0 -0.18147115284E+03  0.22863531577E+03  0.16638674331E+04  0.16892781659E+04  0.00000000000E+00 0. -1.
          1    1    5    5  503    0  0.19189635582E+03  0.39749314347E+03  0.34792678235E+03  0.56203029844E+03  0.00000000000E+00 0. -1.
         -2    1    5    5    0  503  0.44002001521E+02  0.51677712113E+02  0.23403663370E+02  0.71794801526E+02  0.00000000000E+00 0.  1.
         -3    1    6    6    0  502 -0.26231587020E+02  0.12856968811E+02  0.72869179498E+02  0.78506783944E+02  0.00000000000E+00 0.  1.
<mgrwt>
<rscale>  0 0.18723161E+04</rscale>
<asrwt>0</asrwt>
<pdfrwt beam="1">  1        1 0.49736258E+00 0.18723161E+04</pdfrwt>
<pdfrwt beam="2">  1       -1 0.41705998E-01 0.18723161E+04</pdfrwt>
<totfact> 0.21323465E+00</totfact>
</mgrwt>
</event>
