<event>
12    7  0.1741211E-007  0.3018618E+04  0.7818608E-02  0.8238434E-01
         -1   -1    0    0    0  501 -0.00000000000E+00  0.00000000000E+00  0.10305844566E+04  0.10305844566E+04  0.00000000000E+00 0.  1.
          2   -1    0    0  501    0  0.00000000000E+00 -0.00000000000E+00 -0.22104095724E+04  0.22104095724E+04  0.00000000000E+00 0. -1.
         24    2    1    2    0    0 -0.12652286149E+04  0.42293337706E+03 -0.89054142327E+03  0.16059650994E+04  0.79898589992E+02 0.  0.
        254    2    1    2    0    0  0.12652286149E+04 -0.42293337706E+03 -0.28928369246E+03  0.16350289296E+04  0.89997692002E+03 0.  0.
         23    2    4    4    0    0  0.51013928656E+03 -0.63338186084E+03 -0.11077689052E+03  0.82598498135E+03  0.92547266883E+02 0.  0.
         23    2    4    4    0    0  0.75508932830E+03  0.21044848378E+03 -0.17850680194E+03  0.80904394824E+03  0.90768793080E+02 0.  0.
          4    1    3    3  502    0 -0.94039546220E+03  0.33289550730E+03 -0.70101965030E+03  0.12192586248E+04  0.00000000000E+00 0. -1.
         -3    1    3    3    0  502 -0.32483315266E+03  0.90037869760E+02 -0.18952177297E+03  0.38670647459E+03  0.00000000000E+00 0.  1.
         13    1    5    5    0    0  0.20288677948E+01 -0.17979362684E+02 -0.12290502456E+02  0.21873048203E+02  0.00000000000E+00 0.  1.
        -13    1    5    5    0    0  0.50811041876E+03 -0.61540249816E+03 -0.98486388064E+02  0.80411193314E+03  0.00000000000E+00 0. -1.
          1    1    6    6  503    0  0.73855358810E+03  0.19085042804E+03 -0.17841808346E+03  0.78340174935E+03  0.00000000000E+00 0. -1.
         -1    1    6    6    0  503  0.16535740203E+02  0.19598055738E+02 -0.88718478286E-01  0.25642198886E+02  0.00000000000E+00 0.  1.
<mgrwt>
<rscale>  0 0.30186181E+04</rscale>
<asrwt>0</asrwt>
<pdfrwt beam="1">  1        2 0.34006301E+00 0.30186181E+04</pdfrwt>
<pdfrwt beam="2">  1       -1 0.15855146E+00 0.30186181E+04</pdfrwt>
<totfact> 0.14840193E+00</totfact>
</mgrwt>
</event>
<event>
12    7  0.1741211E-007  0.1091172E+04  0.7818608E-02  0.9213839E-01
         -1   -1    0    0    0  501 -0.00000000000E+00  0.00000000000E+00  0.20194224762E+03  0.20194224762E+03  0.00000000000E+00 0.  1.
          2   -1    0    0  501    0  0.00000000000E+00 -0.00000000000E+00 -0.14740055093E+04  0.14740055093E+04  0.00000000000E+00 0. -1.
         24    2    1    2    0    0  0.10377898812E+03 -0.67054062603E+02 -0.33552339399E+03  0.36657932201E+03  0.80858677469E+02 0.  0.
        254    2    1    2    0    0 -0.10377898812E+03  0.67054062603E+02 -0.93653986769E+03  0.13093684349E+04  0.90668211017E+03 0.  0.
         23    2    4    4    0    0  0.36277328952E+03 -0.13088605601E+03 -0.34965511166E+03  0.52865563527E+03  0.92100295014E+02 0.  0.
         23    2    4    4    0    0 -0.46655227764E+03  0.19794011861E+03 -0.58688475602E+03  0.78071279964E+03  0.90705238799E+02 0.  0.
          4    1    3    3  502    0  0.66906301953E+02 -0.18433739607E+02 -0.26198398751E+03  0.27102004669E+03  0.00000000000E+00 0. -1.
         -3    1    3    3    0  502  0.36872686164E+02 -0.48620322996E+02 -0.73539406477E+02  0.95559275312E+02  0.00000000000E+00 0.  1.
         13    1    5    5    0    0  0.32641196717E+03 -0.14446451737E+03 -0.32448147474E+03  0.48239298973E+03  0.00000000000E+00 0. -1.
        -13    1    5    5    0    0  0.36361322352E+02  0.13578461366E+02 -0.25173636921E+02  0.46262645537E+02  0.00000000000E+00 0.  1.
          1    1    6    6  503    0 -0.34582922934E+03  0.18720964855E+03 -0.46158638445E+03  0.60638873562E+03  0.00000000000E+00 0. -1.
         -1    1    6    6    0  503 -0.12072304831E+03  0.10730470065E+02 -0.12529837157E+03  0.17432406402E+03  0.00000000000E+00 0.  1.
<mgrwt>
<rscale>  0 0.10911718E+04</rscale>
<asrwt>0</asrwt>
<pdfrwt beam="1">  1        2 0.22677007E+00 0.10911718E+04</pdfrwt>
<pdfrwt beam="2">  1       -1 0.31068039E-01 0.10911718E+04</pdfrwt>
<totfact> 0.14248106E+02</totfact>
</mgrwt>
</event>
<event>
12    7  0.1741211E-007  0.1655276E+04  0.7818608E-02  0.8787292E-01
         -1   -1    0    0    0  501 -0.00000000000E+00  0.00000000000E+00  0.15739447276E+04  0.15739447276E+04  0.00000000000E+00 0.  1.
          2   -1    0    0  501    0  0.00000000000E+00 -0.00000000000E+00 -0.43520228639E+03  0.43520228639E+03  0.00000000000E+00 0. -1.
         24    2    1    2    0    0  0.29344532272E+03  0.90062002327E+02  0.99191093603E+03  0.10413652089E+04  0.79579340880E+02 0.  0.
        254    2    1    2    0    0 -0.29344532272E+03 -0.90062002327E+02  0.14683150513E+03  0.96778180510E+03  0.90599161679E+03 0.  0.
         23    2    4    4    0    0  0.17988420374E+03  0.99844042140E+02 -0.23399803155E+03  0.32496431022E+03  0.92301487767E+02 0.  0.
         23    2    4    4    0    0 -0.47332952646E+03 -0.18990604447E+03  0.38082953668E+03  0.64281749487E+03  0.89877969280E+02 0.  0.
          2    1    3    3  502    0  0.71409910844E+01  0.85035755008E+00  0.10265047098E+03  0.10290207021E+03  0.00000000000E+00 0. -1.
         -1    1    3    3    0  502  0.28630433164E+03  0.89211644777E+02  0.88926046505E+03  0.93846313864E+03  0.00000000000E+00 0.  1.
         13    1    5    5    0    0  0.38983093445E+02 -0.16627804651E+02 -0.50821502408E+02  0.66173941767E+02  0.00000000000E+00 0. -1.
        -13    1    5    5    0    0  0.14090111030E+03  0.11647184679E+03 -0.18317652914E+03  0.25879036846E+03  0.00000000000E+00 0.  1.
          3    1    6    6  503    0 -0.13790985851E+02  0.66610839407E+01  0.15603935540E+01  0.15394679537E+02  0.00000000000E+00 0. -1.
         -3    1    6    6    0  503 -0.45953854061E+03 -0.19656712841E+03  0.37926914312E+03  0.62742281534E+03  0.00000000000E+00 0.  1.
<mgrwt>
<rscale>  0 0.16552756E+04</rscale>
<asrwt>0</asrwt>
<pdfrwt beam="1">  1        2 0.66954199E-01 0.16552756E+04</pdfrwt>
<pdfrwt beam="2">  1       -1 0.24214534E+00 0.16552756E+04</pdfrwt>
<totfact> 0.61930671E+00</totfact>
</mgrwt>
</event>
<event>
12    7  0.1741211E-007  0.1496784E+04  0.7818608E-02  0.8886594E-01
         -1   -1    0    0    0  501 -0.00000000000E+00  0.00000000000E+00  0.15845028558E+03  0.15845028558E+03  0.00000000000E+00 0.  1.
          2   -1    0    0  501    0  0.00000000000E+00 -0.00000000000E+00 -0.35348051393E+04  0.35348051393E+04  0.00000000000E+00 0. -1.
         24    2    1    2    0    0 -0.14531089887E+03  0.12137989490E+03 -0.14796242275E+02  0.20613043726E+03  0.80140452727E+02 0.  0.
        254    2    1    2    0    0  0.14531089887E+03 -0.12137989490E+03 -0.33615586115E+04  0.34871249876E+04  0.90780837454E+03 0.  0.
         23    2    4    4    0    0 -0.36808584672E+02 -0.48624867727E+03 -0.15277214130E+04  0.16062515150E+04  0.91206170139E+02 0.  0.
         23    2    4    4    0    0  0.18211948354E+03  0.36486878237E+03 -0.18338371984E+04  0.18808734726E+04  0.91811846622E+02 0.  0.
          4    1    3    3  502    0  0.48545699451E+01 -0.14274815113E+01  0.93640371464E+01  0.10643765522E+02  0.00000000000E+00 0. -1.
         -3    1    3    3    0  502 -0.15016546881E+03  0.12280737641E+03 -0.24160279421E+02  0.19548667173E+03  0.00000000000E+00 0.  1.
         13    1    5    5    0    0 -0.51176742384E+02 -0.31935939392E+03 -0.11110838970E+04  0.11572021896E+04  0.00000000000E+00 0.  1.
        -13    1    5    5    0    0  0.14368157712E+02 -0.16688928336E+03 -0.41663751605E+03  0.44904932539E+03  0.00000000000E+00 0. -1.
          4    1    6    6  503    0  0.77448086244E+02  0.12012622533E+03 -0.83661923320E+03  0.84874039460E+03  0.00000000000E+00 0. -1.
         -4    1    6    6    0  503  0.10467139729E+03  0.24474255704E+03 -0.99721796522E+03  0.10321330780E+04  0.00000000000E+00 0.  1.
<mgrwt>
<rscale>  0 0.14967844E+04</rscale>
<asrwt>0</asrwt>
<pdfrwt beam="1">  1        2 0.54381618E+00 0.14967844E+04</pdfrwt>
<pdfrwt beam="2">  1       -1 0.24376967E-01 0.14967844E+04</pdfrwt>
<totfact> 0.12554144E+01</totfact>
</mgrwt>
</event>
<event>
12    7  0.1741211E-007  0.2241223E+04  0.7818608E-02  0.8501463E-01
         -1   -1    0    0    0  501 -0.00000000000E+00  0.00000000000E+00  0.52460719619E+03  0.52460719619E+03  0.00000000000E+00 0.  1.
          2   -1    0    0  501    0  0.00000000000E+00 -0.00000000000E+00 -0.23937340592E+04  0.23937340592E+04  0.00000000000E+00 0. -1.
         24    2    1    2    0    0 -0.10269435869E+03  0.59186436459E+03 -0.17273034839E+04  0.18305363882E+04  0.80228336434E+02 0.  0.
        254    2    1    2    0    0  0.10269435869E+03 -0.59186436459E+03 -0.14182337915E+03  0.10878048671E+04  0.89574326720E+03 0.  0.
         23    2    4    4    0    0  0.12278510174E+03 -0.69732748836E+02 -0.44672297231E+03  0.47624039531E+03  0.85467319296E+02 0.  0.
         23    2    4    4    0    0 -0.20090743044E+02 -0.52213161575E+03  0.30489959317E+03  0.61156447183E+03  0.89567176820E+02 0.  0.
          4    1    3    3  502    0 -0.10545955431E+03  0.39036011353E+03 -0.11726518151E+04  0.12404092128E+04  0.00000000000E+00 0. -1.
         -3    1    3    3    0  502  0.27651956166E+01  0.20150425106E+03 -0.55465166875E+03  0.59012717540E+03  0.00000000000E+00 0.  1.
         13    1    5    5    0    0  0.59048158757E+02  0.62583337433E+00 -0.26174053786E+03  0.26831918657E+03  0.00000000000E+00 0. -1.
        -13    1    5    5    0    0  0.63736942980E+02 -0.70358582211E+02 -0.18498243445E+03  0.20792120875E+03  0.00000000000E+00 0.  1.
          3    1    6    6  503    0  0.10949473360E+02 -0.45196167068E+03  0.24491969224E+03  0.51417399621E+03  0.00000000000E+00 0. -1.
         -3    1    6    6    0  503 -0.31040216405E+02 -0.70169945076E+02  0.59979900930E+02  0.97390475623E+02  0.00000000000E+00 0.  1.
<mgrwt>
<rscale>  0 0.22412230E+04</rscale>
<asrwt>0</asrwt>
<pdfrwt beam="1">  1        2 0.36826677E+00 0.22412230E+04</pdfrwt>
<pdfrwt beam="2">  1       -1 0.80708800E-01 0.22412230E+04</pdfrwt>
<totfact> 0.63604833E+00</totfact>
</mgrwt>
</event>
<event>
12    7  0.1741211E-007  0.1359188E+04  0.7818608E-02  0.8983902E-01
          2   -1    0    0  501    0  0.00000000000E+00  0.00000000000E+00  0.11691205975E+04  0.11691205975E+04  0.00000000000E+00 0. -1.
         -1   -1    0    0    0  501 -0.00000000000E+00 -0.00000000000E+00 -0.39503888603E+03  0.39503888603E+03  0.00000000000E+00 0.  1.
         24    2    1    2    0    0 -0.20000656252E+03  0.19462222419E+03 -0.74309789873E+02  0.29919429298E+03  0.78197473633E+02 0.  0.
        254    2    1    2    0    0  0.20000656252E+03 -0.19462222419E+03  0.84839150131E+03  0.12649651905E+04  0.89581714569E+03 0.  0.
         23    2    4    4    0    0  0.42212745242E+03 -0.29994527177E+03  0.19476623111E+03  0.56049562903E+03  0.89792612382E+02 0.  0.
         23    2    4    4    0    0 -0.22212088990E+03  0.10532304758E+03  0.65362527020E+03  0.70446956148E+03  0.92847913988E+02 0.  0.
          4    1    3    3  502    0 -0.24002740671E+02  0.48141213970E+02  0.10868579322E+02  0.54880179106E+02  0.00000000000E+00 0. -1.
         -3    1    3    3    0  502 -0.17600382185E+03  0.14648101022E+03 -0.85178369195E+02  0.24431411388E+03  0.00000000000E+00 0.  1.
         13    1    5    5    0    0  0.19794160850E+03 -0.87287398260E+02  0.72023238874E+02  0.22800727447E+03  0.00000000000E+00 0. -1.
        -13    1    5    5    0    0  0.22418584392E+03 -0.21265787351E+03  0.12274299224E+03  0.33248835457E+03  0.00000000000E+00 0.  1.
          3    1    6    6  503    0 -0.18907997207E+03  0.46443674465E+02  0.46455349237E+03  0.50370447488E+03  0.00000000000E+00 0. -1.
         -3    1    6    6    0  503 -0.33040917830E+02  0.58879373114E+02  0.18907177782E+03  0.20076508660E+03  0.00000000000E+00 0.  1.
<mgrwt>
<rscale>  0 0.13591881E+04</rscale>
<asrwt>0</asrwt>
<pdfrwt beam="1">  1        2 0.17986471E+00 0.13591881E+04</pdfrwt>
<pdfrwt beam="2">  1       -1 0.60775214E-01 0.13591881E+04</pdfrwt>
<totfact> 0.60412344E+01</totfact>
</mgrwt>
</event>
<event>
12    7  0.1741211E-007  0.2254475E+04  0.7818608E-02  0.8496091E-01
         -1   -1    0    0    0  501 -0.00000000000E+00  0.00000000000E+00  0.62565361273E+03  0.62565361273E+03  0.00000000000E+00 0.  1.
          2   -1    0    0  501    0  0.00000000000E+00 -0.00000000000E+00 -0.20309382379E+04  0.20309382379E+04  0.00000000000E+00 0. -1.
         24    2    1    2    0    0  0.19436063939E+03 -0.23801137249E+03 -0.16119839013E+04  0.16429400461E+04  0.79589102793E+02 0.  0.
        254    2    1    2    0    0 -0.19436063939E+03  0.23801137249E+03  0.20669927615E+03  0.10136518046E+04  0.94357825248E+03 0.  0.
         23    2    4    4    0    0  0.21311870752E+03  0.96467677045E+02  0.44657813889E+03  0.51243027413E+03  0.91799539778E+02 0.  0.
         23    2    4    4    0    0 -0.40747934691E+03  0.14154369545E+03 -0.23987886274E+03  0.50122153043E+03  0.87218793270E+02 0.  0.
          4    1    3    3  502    0  0.12116336959E+03 -0.19604533654E+03 -0.12668425337E+04  0.12876351740E+04  0.00000000000E+00 0. -1.
         -3    1    3    3    0  502  0.73197269799E+02 -0.41966035952E+02 -0.34514136765E+03  0.35530487211E+03  0.00000000000E+00 0.  1.
         13    1    5    5    0    0  0.14836286827E+03  0.70707190093E+02  0.21517659456E+03  0.27076191434E+03  0.00000000000E+00 0. -1.
        -13    1    5    5    0    0  0.64755839250E+02  0.25760486952E+02  0.23140154433E+03  0.24166835979E+03  0.00000000000E+00 0.  1.
          2    1    6    6  503    0 -0.34370801682E+03  0.84871861020E+02 -0.18149439498E+03  0.39784249274E+03  0.00000000000E+00 0. -1.
         -2    1    6    6    0  503 -0.63771330093E+02  0.56671834428E+02 -0.58384467755E+02  0.10337903769E+03  0.00000000000E+00 0.  1.
<mgrwt>
<rscale>  0 0.22544745E+04</rscale>
<asrwt>0</asrwt>
<pdfrwt beam="1">  1        2 0.31245203E+00 0.22544745E+04</pdfrwt>
<pdfrwt beam="2">  1       -1 0.96254404E-01 0.22544745E+04</pdfrwt>
<totfact> 0.69129959E+00</totfact>
</mgrwt>
</event>
<event>
12    7  0.1741211E-007  0.2360802E+04  0.7818608E-02  0.8454326E-01
          2   -1    0    0  501    0  0.00000000000E+00  0.00000000000E+00  0.27122994144E+04  0.27122994144E+04  0.00000000000E+00 0. -1.
         -1   -1    0    0    0  501 -0.00000000000E+00 -0.00000000000E+00 -0.51371414556E+03  0.51371414556E+03  0.00000000000E+00 0.  1.
         24    2    1    2    0    0 -0.53951095294E+03  0.46409311497E+03  0.19092634451E+04  0.20389760697E+04  0.75379190563E+02 0.  0.
        254    2    1    2    0    0  0.53951095294E+03 -0.46409311497E+03  0.28932182382E+03  0.11870374903E+04  0.90492894638E+03 0.  0.
         23    2    4    4    0    0 -0.12525745921E+03  0.16217910780E+03  0.20145817295E+00  0.22431961684E+03  0.91256538499E+02 0.  0.
         23    2    4    4    0    0  0.66476841216E+03 -0.62627222277E+03  0.28912036565E+03  0.96271787349E+03  0.95400101097E+02 0.  0.
          4    1    3    3  502    0 -0.52280970014E+03  0.43203872887E+03  0.17828224614E+04  0.19074704126E+04  0.00000000000E+00 0. -1.
         -3    1    3    3    0  502 -0.16701252805E+02  0.32054386106E+02  0.12644098363E+03  0.13150565712E+03  0.00000000000E+00 0.  1.
         13    1    5    5    0    0 -0.47763087689E+02  0.32738743463E+02  0.37403166332E+02  0.68935728913E+02  0.00000000000E+00 0.  1.
        -13    1    5    5    0    0 -0.77494371523E+02  0.12944036434E+03 -0.37201708159E+02  0.15538388793E+03  0.00000000000E+00 0. -1.
          1    1    6    6  503    0  0.14276930517E+03 -0.12092838874E+03  0.20954227022E+02  0.18827062791E+03  0.00000000000E+00 0. -1.
         -1    1    6    6    0  503  0.52199910699E+03 -0.50534383403E+03  0.26816613862E+03  0.77444724558E+03  0.00000000000E+00 0.  1.
<mgrwt>
<rscale>  0 0.23608020E+04</rscale>
<asrwt>0</asrwt>
<pdfrwt beam="1">  1        2 0.41727682E+00 0.23608020E+04</pdfrwt>
<pdfrwt beam="2">  1       -1 0.79032947E-01 0.23608020E+04</pdfrwt>
<totfact> 0.42898894E+00</totfact>
</mgrwt>
</event>
<event>
12    7  0.1741211E-007  0.2298285E+04  0.7818608E-02  0.8478597E-01
          2   -1    0    0  501    0  0.00000000000E+00  0.00000000000E+00  0.36252588930E+04  0.36252588930E+04  0.00000000000E+00 0. -1.
         -1   -1    0    0    0  501 -0.00000000000E+00 -0.00000000000E+00 -0.36425781391E+03  0.36425781391E+03  0.00000000000E+00 0.  1.
         24    2    1    2    0    0  0.83269989315E+03 -0.14355253860E+03  0.55210978680E+03  0.10125514606E+04  0.80242135574E+02 0.  0.
        254    2    1    2    0    0 -0.83269989315E+03  0.14355253860E+03  0.27088912923E+04  0.29769652463E+04  0.90012976888E+03 0.  0.
         23    2    4    4    0    0 -0.17612218742E+03 -0.39354680075E+02  0.19193581264E+04  0.19299638884E+04  0.90869010519E+02 0.  0.
         23    2    4    4    0    0 -0.65657770573E+03  0.18290721867E+03  0.78953316587E+03  0.10470013580E+04  0.91103728044E+02 0.  0.
          4    1    3    3  502    0  0.39917735884E+03 -0.28441391468E+02  0.26584526090E+03  0.48044269097E+03  0.00000000000E+00 0. -1.
         -3    1    3    3    0  502  0.43352253431E+03 -0.11511114713E+03  0.28626452589E+03  0.53210876965E+03  0.00000000000E+00 0.  1.
         13    1    5    5    0    0 -0.17802598536E+03 -0.54609930977E+02  0.17343172987E+04  0.17442855238E+04  0.00000000000E+00 0. -1.
        -13    1    5    5    0    0  0.19037979382E+01  0.15255250902E+02  0.18504082774E+03  0.18567836454E+03  0.00000000000E+00 0.  1.
          1    1    6    6  503    0 -0.54143502445E+03  0.12963485855E+03  0.68429201911E+03  0.88216361842E+03  0.00000000000E+00 0.  1.
         -1    1    6    6    0  503 -0.11514268128E+03  0.53272360122E+02  0.10524114677E+03  0.16483773954E+03  0.00000000000E+00 0. -1.
<mgrwt>
<rscale>  0 0.22982853E+04</rscale>
<asrwt>0</asrwt>
<pdfrwt beam="1">  1        2 0.55773211E+00 0.22982853E+04</pdfrwt>
<pdfrwt beam="2">  1       -1 0.56039666E-01 0.22982853E+04</pdfrwt>
<totfact> 0.22073910E+00</totfact>
</mgrwt>
</event>
<event>
12    7  0.1741211E-007  0.1939020E+04  0.7818608E-02  0.8635674E-01
          2   -1    0    0  501    0  0.00000000000E+00  0.00000000000E+00  0.19901869100E+04  0.19901869100E+04  0.00000000000E+00 0. -1.
         -1   -1    0    0    0  501 -0.00000000000E+00 -0.00000000000E+00 -0.47229194856E+03  0.47229194856E+03  0.00000000000E+00 0.  1.
         24    2    1    2    0    0 -0.10802695138E+03  0.73531683377E+03  0.47620711443E+03  0.88631193572E+03  0.80093466223E+02 0.  0.
        254    2    1    2    0    0  0.10802695138E+03 -0.73531683377E+03  0.10416878470E+04  0.15761669229E+04  0.92023254116E+03 0.  0.
         23    2    4    4    0    0  0.20090345120E+03 -0.16432011900E+03  0.94364900849E+03  0.98246157473E+03  0.85988350271E+02 0.  0.
         23    2    4    4    0    0 -0.92876499824E+02 -0.57099671476E+03  0.98038838555E+02  0.59370534813E+03  0.90615308025E+02 0.  0.
          2    1    3    3  502    0  0.12908888384E+02  0.56485468999E+02  0.34161302224E+02  0.67262487145E+02  0.00000000000E+00 0. -1.
         -1    1    3    3    0  502 -0.12093583976E+03  0.67883136477E+03  0.44204581220E+03  0.81904944858E+03  0.00000000000E+00 0.  1.
         13    1    5    5    0    0  0.15479655795E+03 -0.16226322672E+03  0.83092195827E+03  0.86065244427E+03  0.00000000000E+00 0. -1.
        -13    1    5    5    0    0  0.46106893249E+02 -0.20568922782E+01  0.11272705022E+03  0.12180913046E+03  0.00000000000E+00 0.  1.
          1    1    6    6  503    0 -0.41847059722E+02 -0.35853608700E+03  0.19430486957E+02  0.36149252539E+03  0.00000000000E+00 0. -1.
         -1    1    6    6    0  503 -0.51029440102E+02 -0.21246062777E+03  0.78608351598E+02  0.23221282275E+03  0.00000000000E+00 0.  1.
<mgrwt>
<rscale>  0 0.19390196E+04</rscale>
<asrwt>0</asrwt>
<pdfrwt beam="1">  1        2 0.30618260E+00 0.19390196E+04</pdfrwt>
<pdfrwt beam="2">  1       -1 0.72660301E-01 0.19390196E+04</pdfrwt>
<totfact> 0.13738175E+01</totfact>
</mgrwt>
</event>
<event>
12    7  0.1741211E-007  0.1504904E+04  0.7818608E-02  0.8881198E-01
         -1   -1    0    0    0  501 -0.00000000000E+00  0.00000000000E+00  0.34881560688E+03  0.34881560688E+03  0.00000000000E+00 0.  1.
          2   -1    0    0  501    0  0.00000000000E+00 -0.00000000000E+00 -0.16231618922E+04  0.16231618922E+04  0.00000000000E+00 0. -1.
         24    2    1    2    0    0  0.14458131010E+03 -0.52663770183E+02 -0.10320349450E+04  0.10464135644E+04  0.78790812964E+02 0.  0.
        254    2    1    2    0    0 -0.14458131010E+03  0.52663770183E+02 -0.24231134035E+03  0.92556393468E+03  0.87992987425E+03 0.  0.
         23    2    4    4    0    0 -0.71201519344E+02 -0.22504769861E+03 -0.47942505416E+03  0.54209552429E+03  0.91121083709E+02 0.  0.
         23    2    4    4    0    0 -0.73379790756E+02  0.27771146880E+03  0.23711371381E+03  0.38346841038E+03  0.91196792117E+02 0.  0.
          2    1    3    3  502    0  0.38680914619E+02 -0.31721856092E+02 -0.55820604168E+03  0.56044310530E+03  0.00000000000E+00 0. -1.
         -1    1    3    3    0  502  0.10590039548E+03 -0.20941914092E+02 -0.47382890332E+03  0.48597045914E+03  0.00000000000E+00 0.  1.
         13    1    5    5    0    0 -0.16800865008E+02 -0.15148098398E+02 -0.94598145854E+01  0.24519829569E+02  0.00000000000E+00 0. -1.
        -13    1    5    5    0    0 -0.54400654335E+02 -0.20989960022E+03 -0.46996523957E+03  0.51757569472E+03  0.00000000000E+00 0.  1.
          2    1    6    6  503    0 -0.51057486336E+02  0.27349149167E+03  0.21344285352E+03  0.35065982753E+03  0.00000000000E+00 0. -1.
         -2    1    6    6    0  503 -0.22322304420E+02  0.42199771228E+01  0.23670860293E+02  0.32808582849E+02  0.00000000000E+00 0.  1.
<mgrwt>
<rscale>  0 0.15049043E+04</rscale>
<asrwt>0</asrwt>
<pdfrwt beam="1">  1        2 0.24971721E+00 0.15049043E+04</pdfrwt>
<pdfrwt beam="2">  1       -1 0.53663940E-01 0.15049043E+04</pdfrwt>
<totfact> 0.41735450E+01</totfact>
</mgrwt>
</event>
<event>
12    7  0.1741211E-007  0.3908243E+04  0.7818608E-02  0.8023317E-01
          2   -1    0    0  501    0  0.00000000000E+00  0.00000000000E+00  0.28595399241E+04  0.28595399241E+04  0.00000000000E+00 0. -1.
         -1   -1    0    0    0  501 -0.00000000000E+00 -0.00000000000E+00 -0.13353862960E+04  0.13353862960E+04  0.00000000000E+00 0.  1.
         24    2    1    2    0    0  0.34904621156E+03 -0.17717938440E+04  0.11420532538E+04  0.21382132728E+04  0.81139893151E+02 0.  0.
        254    2    1    2    0    0 -0.34904621156E+03  0.17717938440E+04  0.38210037431E+03  0.20567129473E+04  0.90718287470E+03 0.  0.
         23    2    4    4    0    0 -0.27803526453E+03  0.13802079214E+04  0.66528315608E+03  0.15598585729E+04  0.90992170268E+02 0.  0.
         23    2    4    4    0    0 -0.71010947024E+02  0.39158592257E+03 -0.28318278177E+03  0.49685437439E+03  0.91047746304E+02 0.  0.
          4    1    3    3  502    0  0.61625899414E+02 -0.31978121878E+03  0.16979931165E+03  0.36727317572E+03  0.00000000000E+00 0. -1.
         -3    1    3    3    0  502  0.28742031214E+03 -0.14520126252E+04  0.97225394214E+03  0.17709400971E+04  0.00000000000E+00 0.  1.
         13    1    5    5    0    0 -0.53697158392E+02  0.48567146436E+03  0.23168108324E+03  0.54077377936E+03  0.00000000000E+00 0.  1.
        -13    1    5    5    0    0 -0.22433810614E+03  0.89453645704E+03  0.43360207284E+03  0.10190847935E+04  0.00000000000E+00 0. -1.
          4    1    6    6  503    0 -0.54818772470E+02  0.37283189367E+03 -0.23912204847E+03  0.44630491014E+03  0.00000000000E+00 0. -1.
         -4    1    6    6    0  503 -0.16192174554E+02  0.18754028901E+02 -0.44060733301E+02  0.50549464249E+02  0.00000000000E+00 0.  1.
<mgrwt>
<rscale>  0 0.39082428E+04</rscale>
<asrwt>0</asrwt>
<pdfrwt beam="1">  1        2 0.43992922E+00 0.39082428E+04</pdfrwt>
<pdfrwt beam="2">  1       -1 0.20544405E+00 0.39082428E+04</pdfrwt>
<totfact> 0.26506277E-01</totfact>
</mgrwt>
</event>
<event>
12    7  0.1741211E-007  0.1516336E+04  0.7818608E-02  0.8873662E-01
         -1   -1    0    0    0  501 -0.00000000000E+00  0.00000000000E+00  0.44630133989E+03  0.44630133989E+03  0.00000000000E+00 0.  1.
          2   -1    0    0  501    0  0.00000000000E+00 -0.00000000000E+00 -0.12879613668E+04  0.12879613668E+04  0.00000000000E+00 0. -1.
         24    2    1    2    0    0 -0.38711789897E+03  0.10407590518E+03 -0.59622234042E+03  0.72283109409E+03  0.79445891148E+02 0.  0.
        254    2    1    2    0    0  0.38711789897E+03 -0.10407590518E+03 -0.24543768654E+03  0.10114316127E+04  0.89557924683E+03 0.  0.
         23    2    4    4    0    0  0.52620520321E+03  0.21424092339E+03 -0.29797981917E+03  0.64814793521E+03  0.92264208359E+02 0.  0.
         23    2    4    4    0    0 -0.13908730424E+03 -0.31831682856E+03  0.52542132637E+02  0.36328367744E+03  0.92430909570E+02 0.  0.
          2    1    3    3  502    0 -0.27876928466E+03  0.88810629345E+02 -0.37141415209E+03  0.47280875026E+03  0.00000000000E+00 0. -1.
         -1    1    3    3    0  502 -0.10834861431E+03  0.15265275831E+02 -0.22480818833E+03  0.25002234382E+03  0.00000000000E+00 0.  1.
         13    1    5    5    0    0  0.90940119904E+02  0.59644318009E+02 -0.24936038996E+02  0.11157668269E+03  0.00000000000E+00 0. -1.
        -13    1    5    5    0    0  0.43526508331E+03  0.15459660538E+03 -0.27304378018E+03  0.53657125252E+03  0.00000000000E+00 0.  1.
          1    1    6    6  503    0 -0.36622270902E+02 -0.23144430189E+02 -0.10405019179E+02  0.44554683244E+02  0.00000000000E+00 0. -1.
         -1    1    6    6    0  503 -0.10246503334E+03 -0.29517239838E+03  0.62947151816E+02  0.31872899420E+03  0.00000000000E+00 0.  1.
<mgrwt>
<rscale>  0 0.15163362E+04</rscale>
<asrwt>0</asrwt>
<pdfrwt beam="1">  1        2 0.19814790E+00 0.15163362E+04</pdfrwt>
<pdfrwt beam="2">  1       -1 0.68661745E-01 0.15163362E+04</pdfrwt>
<totfact> 0.39678285E+01</totfact>
</mgrwt>
</event>
<event>
12    7  0.1741211E-007  0.1449987E+04  0.7818608E-02  0.8918410E-01
          2   -1    0    0  501    0  0.00000000000E+00  0.00000000000E+00  0.16374036690E+04  0.16374036690E+04  0.00000000000E+00 0. -1.
         -1   -1    0    0    0  501 -0.00000000000E+00 -0.00000000000E+00 -0.32100540832E+03  0.32100540832E+03  0.00000000000E+00 0.  1.
         24    2    1    2    0    0  0.24764079525E+03  0.37655456120E+03  0.61414847486E+03  0.76811473275E+03  0.98501738418E+02 0.  0.
        254    2    1    2    0    0 -0.24764079525E+03 -0.37655456120E+03  0.70224978582E+03  0.11902943446E+04  0.84883836153E+03 0.  0.
         23    2    4    4    0    0 -0.20067465104E+03 -0.29181419201E+03 -0.98104707330E+02  0.37884564875E+03  0.92052451079E+02 0.  0.
         23    2    4    4    0    0 -0.46966144203E+02 -0.84740369197E+02  0.80035449315E+03  0.81144869582E+03  0.92167903138E+02 0.  0.
          4    1    3    3  502    0  0.14703998782E+03  0.26505535300E+03  0.47445831399E+03  0.56301491089E+03  0.00000000000E+00 0. -1.
         -3    1    3    3    0  502  0.10060080742E+03  0.11149920821E+03  0.13969016086E+03  0.20509982186E+03  0.00000000000E+00 0.  1.
         13    1    5    5    0    0 -0.83938997500E+02 -0.10658322704E+03  0.72670672708E+01  0.13586224587E+03  0.00000000000E+00 0. -1.
        -13    1    5    5    0    0 -0.11673565354E+03 -0.18523096497E+03 -0.10537177460E+03  0.24298340288E+03  0.00000000000E+00 0.  1.
          4    1    6    6  503    0 -0.21386762455E+02  0.80155075848E+01  0.35909728345E+03  0.35982287442E+03  0.00000000000E+00 0. -1.
         -4    1    6    6    0  503 -0.25579381748E+02 -0.92755876782E+02  0.44125720970E+03  0.45162582140E+03  0.00000000000E+00 0.  1.
<mgrwt>
<rscale>  0 0.14499868E+04</rscale>
<asrwt>0</asrwt>
<pdfrwt beam="1">  1        2 0.25190825E+00 0.14499868E+04</pdfrwt>
<pdfrwt beam="2">  1       -1 0.49385448E-01 0.14499868E+04</pdfrwt>
<totfact> 0.48251562E+01</totfact>
</mgrwt>
</event>
<event>
12    7  0.1741211E-007  0.1810958E+04  0.7818608E-02  0.8700494E-01
          2   -1    0    0  501    0  0.00000000000E+00  0.00000000000E+00  0.20817123102E+04  0.20817123102E+04  0.00000000000E+00 0. -1.
         -1   -1    0    0    0  501 -0.00000000000E+00 -0.00000000000E+00 -0.39385486119E+03  0.39385486119E+03  0.00000000000E+00 0.  1.
         24    2    1    2    0    0 -0.33377179798E+03  0.39096138234E+03  0.11291309511E+04  0.12432899721E+04  0.81110014676E+02 0.  0.
        254    2    1    2    0    0  0.33377179798E+03 -0.39096138234E+03  0.55872649794E+03  0.12322771993E+04  0.97060670756E+03 0.  0.
         23    2    4    4    0    0  0.16578071158E+03 -0.56766497487E+03 -0.19091949604E+02  0.59862087906E+03  0.90860807159E+02 0.  0.
         23    2    4    4    0    0  0.16799108640E+03  0.17670359253E+03  0.57781844754E+03  0.63365632022E+03  0.90559423122E+02 0.  0.
          4    1    3    3  502    0 -0.30423433747E+03  0.37191137540E+03  0.10867219033E+04  0.11882091981E+04  0.00000000000E+00 0. -1.
         -3    1    3    3    0  502 -0.29537460509E+02  0.19050006944E+02  0.42409047813E+02  0.55080774089E+02  0.00000000000E+00 0.  1.
         13    1    5    5    0    0 -0.38162422689E+01 -0.85938141539E+02 -0.18121157652E+02  0.87910774259E+02  0.00000000000E+00 0. -1.
        -13    1    5    5    0    0  0.16959695385E+03 -0.48172683333E+03 -0.97079195263E+00  0.51071010480E+03  0.00000000000E+00 0.  1.
          4    1    6    6  503    0  0.97790740845E+02  0.15954181506E+03  0.43690556641E+03  0.47529264007E+03  0.00000000000E+00 0.  1.
         -4    1    6    6    0  503  0.70200345556E+02  0.17161777473E+02  0.14091288114E+03  0.15836368016E+03  0.00000000000E+00 0. -1.
<mgrwt>
<rscale>  0 0.18109583E+04</rscale>
<asrwt>0</asrwt>
<pdfrwt beam="1">  1        2 0.32026343E+00 0.18109583E+04</pdfrwt>
<pdfrwt beam="2">  1       -1 0.60593057E-01 0.18109583E+04</pdfrwt>
<totfact> 0.17849639E+01</totfact>
</mgrwt>
</event>
<event>
12    7  0.1741211E-007  0.1065441E+04  0.7818608E-02  0.9239546E-01
          2   -1    0    0  501    0  0.00000000000E+00  0.00000000000E+00  0.25492701317E+04  0.25492701317E+04  0.00000000000E+00 0. -1.
         -1   -1    0    0    0  501 -0.00000000000E+00 -0.00000000000E+00 -0.11132249603E+03  0.11132249603E+03  0.00000000000E+00 0.  1.
         24    2    1    2    0    0  0.11008343914E+03  0.51373138130E+02  0.30116815110E+03  0.33542895005E+03  0.83980726377E+02 0.  0.
        254    2    1    2    0    0 -0.11008343914E+03 -0.51373138130E+02  0.21367794846E+04  0.23251636777E+04  0.90873648516E+03 0.  0.
         23    2    4    4    0    0  0.14254269646E+03 -0.18433693472E+03  0.10469504411E+03  0.27116822440E+03  0.90953987534E+02 0.  0.
         23    2    4    4    0    0 -0.25262613560E+03  0.13296379659E+03  0.20320844405E+04  0.20539954533E+04  0.89614805348E+02 0.  0.
          2    1    3    3  502    0  0.19011360931E+01  0.17742888261E+02  0.12303810977E+03  0.12432538300E+03  0.00000000000E+00 0. -1.
         -1    1    3    3    0  502  0.10818230305E+03  0.33630249870E+02  0.17813004133E+03  0.21110356705E+03  0.00000000000E+00 0.  1.
         13    1    5    5    0    0  0.69968758729E+02 -0.87655936563E+02  0.99878872753E+02  0.15018315363E+03  0.00000000000E+00 0. -1.
        -13    1    5    5    0    0  0.72573937734E+02 -0.96680998158E+02  0.48161713573E+01  0.12098507077E+03  0.00000000000E+00 0.  1.
          2    1    6    6  503    0  0.72811208730E+01  0.78190608434E+01  0.80945914378E+02  0.81647985206E+02  0.00000000000E+00 0. -1.
         -2    1    6    6    0  503 -0.25990725647E+03  0.12514473575E+03  0.19511385261E+04  0.19723474681E+04  0.00000000000E+00 0.  1.
<mgrwt>
<rscale>  0 0.10654410E+04</rscale>
<asrwt>0</asrwt>
<pdfrwt beam="1">  1        2 0.39219536E+00 0.10654410E+04</pdfrwt>
<pdfrwt beam="2">  1       -1 0.17126540E-01 0.10654410E+04</pdfrwt>
<totfact> 0.98820370E+01</totfact>
</mgrwt>
</event>
<event>
12    7  0.1741211E-007  0.1334051E+04  0.7818608E-02  0.9002990E-01
          2   -1    0    0  501    0  0.00000000000E+00  0.00000000000E+00  0.15321453722E+04  0.15321453722E+04  0.00000000000E+00 0. -1.
         -1   -1    0    0    0  501 -0.00000000000E+00 -0.00000000000E+00 -0.29039203821E+03  0.29039203821E+03  0.00000000000E+00 0.  1.
         24    2    1    2    0    0 -0.33245657117E+03 -0.16903072233E+03  0.33447061541E+03  0.50730783461E+03  0.79949294437E+02 0.  0.
        254    2    1    2    0    0  0.33245657117E+03  0.16903072233E+03  0.90728271862E+03  0.13152295758E+04  0.87610966713E+03 0.  0.
         23    2    4    4    0    0 -0.11399289272E+03 -0.14065813764E+03  0.69580235771E+03  0.72478817517E+03  0.91639983647E+02 0.  0.
         23    2    4    4    0    0  0.44644946389E+03  0.30968885997E+03  0.21148036091E+03  0.59044140066E+03  0.93127819519E+02 0.  0.
          2    1    3    3  502    0 -0.14004822720E+03 -0.76582237138E+02  0.19638967243E+03  0.25307557848E+03  0.00000000000E+00 0. -1.
         -1    1    3    3    0  502 -0.19240834396E+03 -0.92448485189E+02  0.13808094298E+03  0.25423225612E+03  0.00000000000E+00 0.  1.
         13    1    5    5    0    0 -0.91246280083E+02 -0.66836066695E+02  0.28199209809E+03  0.30382970036E+03  0.00000000000E+00 0. -1.
        -13    1    5    5    0    0 -0.22746612639E+02 -0.73822070949E+02  0.41381025962E+03  0.42095847481E+03  0.00000000000E+00 0.  1.
          2    1    6    6  503    0  0.34908003111E+03  0.21674325930E+03  0.12133338356E+03  0.42843470743E+03  0.00000000000E+00 0.  1.
         -2    1    6    6    0  503  0.97369432781E+02  0.92945600675E+02  0.90146977353E+02  0.16200669323E+03  0.00000000000E+00 0. -1.
<mgrwt>
<rscale>  0 0.13340507E+04</rscale>
<asrwt>0</asrwt>
<pdfrwt beam="1">  1        2 0.23571467E+00 0.13340507E+04</pdfrwt>
<pdfrwt beam="2">  1       -1 0.44675699E-01 0.13340507E+04</pdfrwt>
<totfact> 0.67323587E+01</totfact>
</mgrwt>
</event>
<event>
12    7  0.2656714E-007  0.2159156E+04  0.7818608E-02  0.8535623E-01
          2   -1    0    0  501    0  0.00000000000E+00  0.00000000000E+00  0.17195203645E+04  0.17195203645E+04  0.00000000000E+00 0. -1.
         -1   -1    0    0    0  501 -0.00000000000E+00 -0.00000000000E+00 -0.67779871375E+03  0.67779871375E+03  0.00000000000E+00 0.  1.
         24    2    1    2    0    0 -0.64344506063E+03 -0.37973761094E+03  0.96761917766E+03  0.12250656219E+04  0.79225663201E+02 0.  0.
        254    2    1    2    0    0  0.64344506063E+03  0.37973761094E+03  0.74102473076E+02  0.11722534564E+04  0.90025817978E+03 0.  0.
         23    2    4    4    0    0 -0.50836152697E+02  0.69224676584E+02  0.33898550521E+03  0.36197767617E+03  0.93489545070E+02 0.  0.
         23    2    4    4    0    0  0.69428121332E+03  0.31051293435E+03 -0.26488303213E+03  0.81027578020E+03  0.89101816469E+02 0.  0.
          2    1    3    3  502    0 -0.61549091881E+03 -0.36057495720E+03  0.94623679930E+03  0.11849925954E+04  0.00000000000E+00 0. -1.
         -1    1    3    3    0  502 -0.27954141820E+02 -0.19162653732E+02  0.21382378355E+02  0.40073026427E+02  0.00000000000E+00 0.  1.
         13    1    5    5    0    0  0.19905631599E+02  0.15953775697E+02  0.24904173796E+02  0.35650736329E+02  0.00000000000E+00 0.  1.
        -13    1    5    5    0    0 -0.70741784295E+02  0.53270900887E+02  0.31408133141E+03  0.32632693984E+03  0.00000000000E+00 0. -1.
          4    1    6    6  503    0  0.68960993003E+03  0.29935943983E+03 -0.25271772495E+03  0.79312305370E+03  0.00000000000E+00 0. -1.
         -4    1    6    6    0  503  0.46712832955E+01  0.11153494520E+02 -0.12165307178E+02  0.17152726499E+02  0.00000000000E+00 0.  1.
<mgrwt>
<rscale>  0 0.21591560E+04</rscale>
<asrwt>0</asrwt>
<pdfrwt beam="1">  1        2 0.26454159E+00 0.21591560E+04</pdfrwt>
<pdfrwt beam="2">  1       -1 0.10427673E+00 0.21591560E+04</pdfrwt>
<totfact> 0.86420854E+00</totfact>
</mgrwt>
</event>
<event>
12    7  0.1741211E-007  0.2082130E+04  0.7818608E-02  0.8569156E-01
          2   -1    0    0  501    0  0.00000000000E+00  0.00000000000E+00  0.12658569169E+04  0.12658569169E+04  0.00000000000E+00 0. -1.
         -1   -1    0    0    0  501 -0.00000000000E+00 -0.00000000000E+00 -0.85619215308E+03  0.85619215308E+03  0.00000000000E+00 0.  1.
         24    2    1    2    0    0  0.11702011783E+03 -0.43904188724E+03 -0.55650545954E+03  0.72253792419E+03  0.76884580122E+02 0.  0.
        254    2    1    2    0    0 -0.11702011783E+03  0.43904188724E+03  0.96617022332E+03  0.13995111457E+04  0.90481769430E+03 0.  0.
         23    2    4    4    0    0 -0.17230138524E+03  0.62247267812E+03  0.99023399059E+03  0.11857730711E+04  0.91293032130E+02 0.  0.
         23    2    4    4    0    0  0.55281267408E+02 -0.18343079087E+03 -0.24063767270E+02  0.21373807463E+03  0.91662566423E+02 0.  0.
          2    1    3    3  502    0  0.48683620254E+02 -0.12696194218E+03 -0.21922988142E+03  0.25797513553E+03  0.00000000000E+00 0. -1.
         -1    1    3    3    0  502  0.68336497577E+02 -0.31207994506E+03 -0.33727557812E+03  0.46456278866E+03  0.00000000000E+00 0.  1.
         13    1    5    5    0    0 -0.14825369671E+03  0.45539705460E+03  0.79056371728E+03  0.92431413870E+03  0.00000000000E+00 0.  1.
        -13    1    5    5    0    0 -0.24047688529E+02  0.16707562351E+03  0.19967027331E+03  0.26145893242E+03  0.00000000000E+00 0. -1.
          3    1    6    6  503    0 -0.10075612646E+02 -0.95083134003E+02  0.15649800973E+02  0.96887752644E+02  0.00000000000E+00 0. -1.
         -3    1    6    6    0  503  0.65356880054E+02 -0.88347656872E+02 -0.39713568242E+02  0.11685032198E+03  0.00000000000E+00 0.  1.
<mgrwt>
<rscale>  0 0.20821304E+04</rscale>
<asrwt>0</asrwt>
<pdfrwt beam="1">  1        2 0.19474722E+00 0.20821304E+04</pdfrwt>
<pdfrwt beam="2">  1       -1 0.13172187E+00 0.20821304E+04</pdfrwt>
<totfact> 0.89334394E+00</totfact>
</mgrwt>
</event>
<event>
12    7  0.1741211E-007  0.2516865E+04  0.7818608E-02  0.8397002E-01
          2   -1    0    0  501    0  0.00000000000E+00  0.00000000000E+00  0.10498555245E+04  0.10498555245E+04  0.00000000000E+00 0. -1.
         -1   -1    0    0    0  501 -0.00000000000E+00 -0.00000000000E+00 -0.15084483986E+04  0.15084483986E+04  0.00000000000E+00 0.  1.
         24    2    1    2    0    0 -0.57271281213E+03  0.87323513535E+03 -0.53749580404E+03  0.11772525293E+04  0.80512183523E+02 0.  0.
        254    2    1    2    0    0  0.57271281213E+03 -0.87323513535E+03  0.78902929956E+02  0.13810513937E+04  0.90029867986E+03 0.  0.
         23    2    4    4    0    0  0.14203910496E+03  0.15619046290E+03  0.12537093467E+03  0.26078019861E+03  0.87851423931E+02 0.  0.
         23    2    4    4    0    0  0.43067370717E+03 -0.10294255982E+04 -0.46468004719E+02  0.11202711951E+04  0.87472114202E+02 0.  0.
          2    1    3    3  502    0 -0.15964557986E+03  0.30232048283E+03 -0.19769354409E+03  0.39492673103E+03  0.00000000000E+00 0. -1.
         -1    1    3    3    0  502 -0.41306723227E+03  0.57091465252E+03 -0.33980225995E+03  0.78232579831E+03  0.00000000000E+00 0.  1.
         13    1    5    5    0    0  0.13268583574E+03  0.16526047811E+03  0.10480135647E+03  0.23643155658E+03  0.00000000000E+00 0. -1.
        -13    1    5    5    0    0  0.93532692158E+01 -0.90700152082E+01  0.20569578204E+02  0.24348642023E+02  0.00000000000E+00 0.  1.
          4    1    6    6  503    0  0.38911878676E+03 -0.97522117295E+03 -0.55084457010E+02  0.10514295334E+04  0.00000000000E+00 0. -1.
         -4    1    6    6    0  503  0.41554920412E+02 -0.54204425295E+02  0.86164522915E+01  0.68841661675E+02  0.00000000000E+00 0.  1.
<mgrwt>
<rscale>  0 0.25168654E+04</rscale>
<asrwt>0</asrwt>
<pdfrwt beam="1">  1        2 0.16151624E+00 0.25168654E+04</pdfrwt>
<pdfrwt beam="2">  1       -1 0.23206898E+00 0.25168654E+04</pdfrwt>
<totfact> 0.21740280E+00</totfact>
</mgrwt>
</event>
<event>
12    7  0.1741211E-007  0.1804701E+04  0.7818608E-02  0.8703803E-01
          2   -1    0    0  501    0  0.00000000000E+00  0.00000000000E+00  0.56546627794E+03  0.56546627794E+03  0.00000000000E+00 0. -1.
         -1   -1    0    0    0  501 -0.00000000000E+00 -0.00000000000E+00 -0.14399382301E+04  0.14399382301E+04  0.00000000000E+00 0.  1.
         24    2    1    2    0    0  0.51181769189E+02 -0.52918769992E+03  0.13475982838E+03  0.55446638592E+03  0.81323837413E+02 0.  0.
        254    2    1    2    0    0 -0.51181769189E+02  0.52918769992E+03 -0.10092317805E+04  0.14509381221E+04  0.89666797206E+03 0.  0.
         23    2    4    4    0    0  0.28891331284E+03 -0.54903763073E+02 -0.54271598963E+03  0.62417486086E+03  0.92565036547E+02 0.  0.
         23    2    4    4    0    0 -0.34009508203E+03  0.58409146299E+03 -0.46651579092E+03  0.82676326127E+03  0.95252323047E+02 0.  0.
          4    1    3    3  502    0  0.36286146309E+02 -0.50670688077E+03  0.14011224516E+03  0.52697247431E+03  0.00000000000E+00 0. -1.
         -3    1    3    3    0  502  0.14895622879E+02 -0.22480819146E+02 -0.53524167802E+01  0.27493911614E+02  0.00000000000E+00 0.  1.
         13    1    5    5    0    0  0.21641041478E+03 -0.79262652235E+02 -0.38098980030E+03  0.44527436889E+03  0.00000000000E+00 0. -1.
        -13    1    5    5    0    0  0.72502898061E+02  0.24358889162E+02 -0.16172618933E+03  0.17890049196E+03  0.00000000000E+00 0.  1.
          4    1    6    6  503    0 -0.31539610046E+03  0.54304742222E+03 -0.45994626570E+03  0.77841233951E+03  0.00000000000E+00 0. -1.
         -4    1    6    6    0  503 -0.24698981568E+02  0.41044040770E+02 -0.65695252147E+01  0.48350921757E+02  0.00000000000E+00 0.  1.
<mgrwt>
<rscale>  0 0.18047011E+04</rscale>
<asrwt>0</asrwt>
<pdfrwt beam="1">  1        2 0.86994814E-01 0.18047011E+04</pdfrwt>
<pdfrwt beam="2">  1       -1 0.22152895E+00 0.18047011E+04</pdfrwt>
<totfact> 0.61713709E+00</totfact>
</mgrwt>
</event>
<event>
12    7  0.1741211E-007  0.2732350E+04  0.7818608E-02  0.8324584E-01
          2   -1    0    0  501    0  0.00000000000E+00  0.00000000000E+00  0.13649292781E+04  0.13649292781E+04  0.00000000000E+00 0. -1.
         -1   -1    0    0    0  501 -0.00000000000E+00 -0.00000000000E+00 -0.13674214427E+04  0.13674214427E+04  0.00000000000E+00 0.  1.
         24    2    1    2    0    0 -0.84877583881E+03 -0.47433704629E+03  0.73105908047E+03  0.12190284679E+04  0.78530046926E+02 0.  0.
        254    2    1    2    0    0  0.84877583881E+03  0.47433704629E+03 -0.73355124511E+03  0.15133222529E+04  0.89812624607E+03 0.  0.
         23    2    4    4    0    0  0.35225981974E+03  0.31281350994E+03  0.13256819116E+03  0.49774137263E+03  0.90735197756E+02 0.  0.
         23    2    4    4    0    0  0.49651601906E+03  0.16152353635E+03 -0.86611943627E+03  0.10155808803E+04  0.92863536956E+02 0.  0.
          2    1    3    3  502    0 -0.68496580926E+03 -0.40918535790E+03  0.62257315365E+03  0.10120316935E+04  0.00000000000E+00 0. -1.
         -1    1    3    3    0  502 -0.16381002955E+03 -0.65151688396E+02  0.10848592682E+03  0.20699677437E+03  0.00000000000E+00 0.  1.
         13    1    5    5    0    0  0.34894744525E+03  0.29247775108E+03  0.13917153286E+03  0.47610531396E+03  0.00000000000E+00 0. -1.
        -13    1    5    5    0    0  0.33123744967E+01  0.20335758862E+02 -0.66033416966E+01  0.21636058672E+02  0.00000000000E+00 0.  1.
          4    1    6    6  503    0  0.39520203974E+03  0.12329745545E+03 -0.75091989194E+03  0.85747746259E+03  0.00000000000E+00 0. -1.
         -4    1    6    6    0  503  0.10131397932E+03  0.38226080900E+02 -0.11519954432E+03  0.15810341767E+03  0.00000000000E+00 0.  1.
<mgrwt>
<rscale>  0 0.27323496E+04</rscale>
<asrwt>0</asrwt>
<pdfrwt beam="1">  1        2 0.20998912E+00 0.27323496E+04</pdfrwt>
<pdfrwt beam="2">  1       -1 0.21037253E+00 0.27323496E+04</pdfrwt>
<totfact> 0.19310616E+00</totfact>
</mgrwt>
</event>
<event>
12    7  0.1741211E-007  0.1058438E+04  0.7818608E-02  0.9246675E-01
          2   -1    0    0  501    0  0.00000000000E+00  0.00000000000E+00  0.16839709180E+04  0.16839709180E+04  0.00000000000E+00 0. -1.
         -1   -1    0    0    0  501 -0.00000000000E+00 -0.00000000000E+00 -0.16631696871E+03  0.16631696871E+03  0.00000000000E+00 0.  1.
         24    2    1    2    0    0 -0.43722206384E+02  0.34402376186E+02  0.14143238919E+02  0.97858162809E+02  0.79252974726E+02 0.  0.
        254    2    1    2    0    0  0.43722206384E+02 -0.34402376186E+02  0.15035107104E+04  0.17524297239E+04  0.89853788245E+03 0.  0.
         23    2    4    4    0    0  0.37575517738E+03  0.19662955244E+03  0.10578996184E+04  0.11433104428E+04  0.90288602785E+02 0.  0.
         23    2    4    4    0    0 -0.33203297099E+03 -0.23103192863E+03  0.44561109193E+03  0.60911928106E+03  0.93996848038E+02 0.  0.
          2    1    3    3  502    0 -0.60501285680E+02  0.26342120252E+01  0.48728406497E+01  0.60754334972E+02  0.00000000000E+00 0. -1.
         -1    1    3    3    0  502  0.16779079295E+02  0.31768164161E+02  0.92703982693E+01  0.37103827838E+02  0.00000000000E+00 0.  1.
         13    1    5    5    0    0  0.66669485342E+02  0.33709847110E+02  0.10913413491E+03  0.13225518315E+03  0.00000000000E+00 0.  1.
        -13    1    5    5    0    0  0.30908569204E+03  0.16291970533E+03  0.94876548353E+03  0.10110552597E+04  0.00000000000E+00 0. -1.
          4    1    6    6  503    0 -0.20838032354E+03 -0.88314898419E+02  0.23552008233E+03  0.32663678559E+03  0.00000000000E+00 0. -1.
         -4    1    6    6    0  503 -0.12365264746E+03 -0.14271703021E+03  0.21009100960E+03  0.28248249547E+03  0.00000000000E+00 0.  1.
<mgrwt>
<rscale>  0 0.10584384E+04</rscale>
<asrwt>0</asrwt>
<pdfrwt beam="1">  1        2 0.25907244E+00 0.10584384E+04</pdfrwt>
<pdfrwt beam="2">  1       -1 0.25587227E-01 0.10584384E+04</pdfrwt>
<totfact> 0.15276613E+02</totfact>
</mgrwt>
</event>
<event>
12    7  0.1741211E-007  0.2487574E+04  0.7818608E-02  0.8407426E-01
          2   -1    0    0  501    0  0.00000000000E+00  0.00000000000E+00  0.20867736627E+04  0.20867736627E+04  0.00000000000E+00 0. -1.
         -1   -1    0    0    0  501 -0.00000000000E+00 -0.00000000000E+00 -0.74133879160E+03  0.74133879160E+03  0.00000000000E+00 0.  1.
         24    2    1    2    0    0  0.57267169983E+03  0.75861943039E+03  0.20511654868E+01  0.95388531883E+03  0.80228911628E+02 0.  0.
        254    2    1    2    0    0 -0.57267169983E+03 -0.75861943039E+03  0.13433837056E+04  0.18742271354E+04  0.89699011078E+03 0.  0.
         23    2    4    4    0    0 -0.66356944946E+03 -0.33153097270E+03  0.11852628690E+04  0.14011134413E+04  0.89630389121E+02 0.  0.
         23    2    4    4    0    0  0.90897749638E+02 -0.42708845769E+03  0.15812083659E+03  0.47311369414E+03  0.90373762976E+02 0.  0.
          4    1    3    3  502    0  0.15254933856E+03  0.26379635612E+03  0.45824256701E+01  0.30476354247E+03  0.00000000000E+00 0. -1.
         -3    1    3    3    0  502  0.42012236126E+03  0.49482307427E+03 -0.25312601833E+01  0.64912177636E+03  0.00000000000E+00 0.  1.
         13    1    5    5    0    0 -0.12803781088E+03 -0.27657282281E+02  0.22680110074E+03  0.26191094971E+03  0.00000000000E+00 0.  1.
        -13    1    5    5    0    0 -0.53553163858E+03 -0.30387369041E+03  0.95846176825E+03  0.11392024916E+04  0.00000000000E+00 0. -1.
          2    1    6    6  503    0  0.10387932078E+03 -0.35093044773E+03  0.11024884773E+03  0.38222755115E+03  0.00000000000E+00 0. -1.
         -2    1    6    6    0  503 -0.12981571143E+02 -0.76158009963E+02  0.47871988855E+02  0.90886142991E+02  0.00000000000E+00 0.  1.
<mgrwt>
<rscale>  0 0.24875741E+04</rscale>
<asrwt>0</asrwt>
<pdfrwt beam="1">  1        2 0.32104210E+00 0.24875741E+04</pdfrwt>
<pdfrwt beam="2">  1       -1 0.11405212E+00 0.24875741E+04</pdfrwt>
<totfact> 0.42504170E+00</totfact>
</mgrwt>
</event>
<event>
12    7  0.1741211E-007  0.1196053E+04  0.7818608E-02  0.9116319E-01
         -1   -1    0    0    0  501 -0.00000000000E+00  0.00000000000E+00  0.18850326401E+03  0.18850326401E+03  0.00000000000E+00 0.  1.
          2   -1    0    0  501    0  0.00000000000E+00 -0.00000000000E+00 -0.18972372501E+04  0.18972372501E+04  0.00000000000E+00 0. -1.
         24    2    1    2    0    0  0.13548939355E+03  0.97236227520E+02 -0.18519656012E+02  0.18556012229E+03  0.79229550166E+02 0.  0.
        254    2    1    2    0    0 -0.13548939355E+03 -0.97236227520E+02 -0.16902143301E+04  0.19001803918E+04  0.85208496060E+03 0.  0.
         23    2    4    4    0    0 -0.32183059149E+03 -0.38381633110E+03 -0.10988013799E+04  0.12110306498E+04  0.91328290508E+02 0.  0.
         23    2    4    4    0    0  0.18634119794E+03  0.28658010358E+03 -0.59141295015E+03  0.68914974198E+03  0.91142149651E+02 0.  0.
          2    1    3    3  502    0  0.28645868900E+02  0.12204446764E+02 -0.36336365551E+02  0.47852542120E+02  0.00000000000E+00 0. -1.
         -3    1    3    3    0  502  0.10684352465E+03  0.85031780755E+02  0.17816709539E+02  0.13770758018E+03  0.00000000000E+00 0.  1.
         13    1    5    5    0    0 -0.15007914995E+03 -0.11327011949E+03 -0.43649123181E+03  0.47526673212E+03  0.00000000000E+00 0. -1.
        -13    1    5    5    0    0 -0.17175144155E+03 -0.27054621162E+03 -0.66231014810E+03  0.73576391769E+03  0.00000000000E+00 0.  1.
          1    1    6    6  503    0  0.65022864375E+01  0.38289223036E+02 -0.28526204726E+02  0.48188055425E+02  0.00000000000E+00 0. -1.
         -1    1    6    6    0  503  0.17983891150E+03  0.24829088055E+03 -0.56288674543E+03  0.64096168656E+03  0.00000000000E+00 0.  1.
<mgrwt>
<rscale>  0 0.11960525E+04</rscale>
<asrwt>0</asrwt>
<pdfrwt beam="1">  1        2 0.29188265E+00 0.11960525E+04</pdfrwt>
<pdfrwt beam="2">  1       -1 0.29000503E-01 0.11960525E+04</pdfrwt>
<totfact> 0.92850159E+01</totfact>
</mgrwt>
</event>
<event>
12    7  0.1741211E-007  0.1330077E+04  0.7818608E-02  0.9006048E-01
         -1   -1    0    0    0  501 -0.00000000000E+00  0.00000000000E+00  0.42154746475E+03  0.42154746475E+03  0.00000000000E+00 0.  1.
          2   -1    0    0  501    0  0.00000000000E+00 -0.00000000000E+00 -0.10491725566E+04  0.10491725566E+04  0.00000000000E+00 0. -1.
         24    2    1    2    0    0  0.32252520956E+02  0.23318413316E+03  0.11925283716E+03  0.27525122823E+03  0.78274736670E+02 0.  0.
        254    2    1    2    0    0 -0.32252520956E+02 -0.23318413316E+03 -0.74687792899E+03  0.11954687931E+04  0.90327400572E+03 0.  0.
         23    2    4    4    0    0 -0.23642789262E+03  0.27760250707E+03 -0.28540942938E+03  0.47187945492E+03  0.90831587339E+02 0.  0.
         23    2    4    4    0    0  0.20417537166E+03 -0.51078664024E+03 -0.46146849961E+03  0.72358933818E+03  0.89653666724E+02 0.  0.
          4    1    3    3  502    0  0.47480085109E+02  0.18048044845E+03  0.63743743424E+02  0.19720754443E+03  0.00000000000E+00 0. -1.
         -3    1    3    3    0  502 -0.15227564153E+02  0.52703684713E+02  0.55509093741E+02  0.78043683795E+02  0.00000000000E+00 0.  1.
         13    1    5    5    0    0 -0.11302777812E+03  0.11838617920E+03 -0.73243398793E+02  0.17931860338E+03  0.00000000000E+00 0.  1.
        -13    1    5    5    0    0 -0.12340011450E+03  0.15921632788E+03 -0.21216603059E+03  0.29256085154E+03  0.00000000000E+00 0. -1.
          2    1    6    6  503    0  0.68884329936E+02 -0.29269496234E+03 -0.24800739974E+03  0.38977309068E+03  0.00000000000E+00 0. -1.
         -2    1    6    6    0  503  0.13529104173E+03 -0.21809167790E+03 -0.21346109987E+03  0.33381624751E+03  0.00000000000E+00 0.  1.
<mgrwt>
<rscale>  0 0.13300767E+04</rscale>
<asrwt>0</asrwt>
<pdfrwt beam="1">  1        2 0.16141116E+00 0.13300767E+04</pdfrwt>
<pdfrwt beam="2">  1       -1 0.64853457E-01 0.13300767E+04</pdfrwt>
<totfact> 0.63040408E+01</totfact>
</mgrwt>
</event>
<event>
12    7  0.1741211E-007  0.1470304E+04  0.7818608E-02  0.8904444E-01
          2   -1    0    0  501    0  0.00000000000E+00  0.00000000000E+00  0.66647945717E+03  0.66647945717E+03  0.00000000000E+00 0. -1.
         -1   -1    0    0    0  501 -0.00000000000E+00 -0.00000000000E+00 -0.81090072595E+03  0.81090072595E+03  0.00000000000E+00 0.  1.
         24    2    1    2    0    0 -0.10625805273E+03  0.32693974164E+03  0.25565678044E+03  0.43575116907E+03  0.79613588853E+02 0.  0.
        254    2    1    2    0    0  0.10625805273E+03 -0.32693974164E+03 -0.40007804921E+03  0.10416290140E+04  0.89819162154E+03 0.  0.
         23    2    4    4    0    0 -0.31432988243E+03  0.11293952572E+03 -0.17713538389E+03  0.38816187856E+03  0.87943665414E+02 0.  0.
         23    2    4    4    0    0  0.42058793516E+03 -0.43987926736E+03 -0.22294266533E+03  0.65346713548E+03  0.83233911840E+02 0.  0.
          4    1    3    3  502    0 -0.84089236010E+02  0.30162552989E+03  0.20270521457E+03  0.37301255194E+03  0.00000000000E+00 0. -1.
         -3    1    3    3    0  502 -0.22168816717E+02  0.25314211754E+02  0.52951565873E+02  0.62738617133E+02  0.00000000000E+00 0.  1.
         13    1    5    5    0    0 -0.81048360010E+02  0.60245410535E+02 -0.22801568700E+02  0.10352901857E+03  0.00000000000E+00 0.  1.
        -13    1    5    5    0    0 -0.23328152242E+03  0.52694115183E+02 -0.15433381519E+03  0.28463285999E+03  0.00000000000E+00 0. -1.
          3    1    6    6  503    0  0.39251170628E+03 -0.43444283575E+03 -0.21571377170E+03  0.62396990985E+03  0.00000000000E+00 0. -1.
         -3    1    6    6    0  503  0.28076228883E+02 -0.54364316096E+01 -0.72288936224E+01  0.29497225632E+02  0.00000000000E+00 0.  1.
<mgrwt>
<rscale>  0 0.14703043E+04</rscale>
<asrwt>0</asrwt>
<pdfrwt beam="1">  1        2 0.10253530E+00 0.14703043E+04</pdfrwt>
<pdfrwt beam="2">  1       -1 0.12475396E+00 0.14703043E+04</pdfrwt>
<totfact> 0.27120758E+01</totfact>
</mgrwt>
</event>
<event>
12    7  0.2338837E-007  0.3717215E+04  0.7818608E-02  0.8064157E-01
          2   -1    0    0  501    0  0.00000000000E+00  0.00000000000E+00  0.27592896666E+04  0.27592896666E+04  0.00000000000E+00 0. -1.
         -1   -1    0    0    0  501 -0.00000000000E+00 -0.00000000000E+00 -0.12519245578E+04  0.12519245578E+04  0.00000000000E+00 0.  1.
         24    2    1    2    0    0  0.73063875066E+03  0.11253698694E+04 -0.50097701499E+03  0.14344347778E+04  0.79591678235E+02 0.  0.
        254    2    1    2    0    0 -0.73063875066E+03 -0.11253698694E+04  0.20083421238E+04  0.25767794467E+04  0.89781061667E+03 0.  0.
         23    2    4    4    0    0 -0.57247384808E+03 -0.12133091782E+03  0.79338298126E+03  0.99012970597E+03  0.91939008842E+02 0.  0.
         23    2    4    4    0    0 -0.15816490258E+03 -0.10040389516E+04  0.12149591426E+04  0.15866497407E+04  0.90671543319E+02 0.  0.
          2    1    3    3  502    0  0.47640274386E+01  0.20715924186E+02 -0.15470115701E+02  0.26290111299E+02  0.00000000000E+00 0. -1.
         -1    1    3    3    0  502  0.72587472322E+03  0.11046539452E+04 -0.48550689929E+03  0.14081446665E+04  0.00000000000E+00 0.  1.
         13    1    5    5    0    0 -0.19848745306E+03 -0.18326634289E+02  0.33309570020E+03  0.38818279204E+03  0.00000000000E+00 0.  1.
        -13    1    5    5    0    0 -0.37398639502E+03 -0.10300428354E+03  0.46028728106E+03  0.60194691393E+03  0.00000000000E+00 0. -1.
          3    1    6    6  503    0 -0.10072729886E+03 -0.53429890575E+03  0.58372679658E+03  0.79772067948E+03  0.00000000000E+00 0. -1.
         -3    1    6    6    0  503 -0.57437603718E+02 -0.46974004585E+03  0.63123234598E+03  0.78892906120E+03  0.00000000000E+00 0.  1.
<mgrwt>
<rscale>  0 0.37172154E+04</rscale>
<asrwt>0</asrwt>
<pdfrwt beam="1">  1        2 0.42450610E+00 0.37172154E+04</pdfrwt>
<pdfrwt beam="2">  1       -1 0.19260378E+00 0.37172154E+04</pdfrwt>
<totfact> 0.38007185E-01</totfact>
</mgrwt>
</event>
<event>
12    7  0.1741211E-007  0.3618396E+04  0.7818608E-02  0.8086291E-01
          2   -1    0    0  501    0  0.00000000000E+00  0.00000000000E+00  0.36360781762E+04  0.36360781762E+04  0.00000000000E+00 0. -1.
         -1   -1    0    0    0  501 -0.00000000000E+00 -0.00000000000E+00 -0.90019988388E+03  0.90019988388E+03  0.00000000000E+00 0.  1.
         24    2    1    2    0    0 -0.93270567805E+03 -0.21896409581E+03 -0.46991635729E+03  0.10702808741E+04  0.82429420795E+02 0.  0.
        254    2    1    2    0    0  0.93270567805E+03  0.21896409581E+03  0.32057946496E+04  0.34659971860E+04  0.90450649580E+03 0.  0.
         23    2    4    4    0    0  0.39117006927E+03 -0.21076651904E+03  0.21736796798E+04  0.22205612714E+04  0.92587586885E+02 0.  0.
         23    2    4    4    0    0  0.54153560878E+03  0.42973061485E+03  0.10321149698E+04  0.12454359146E+04  0.88994884711E+02 0.  0.
          2    1    3    3  502    0 -0.14446877063E+01 -0.23201952170E+00 -0.77434900427E+01  0.78805198857E+01  0.00000000000E+00 0. -1.
         -1    1    3    3    0  502 -0.93126099034E+03 -0.21873207629E+03 -0.46217286725E+03  0.10624003542E+04  0.00000000000E+00 0.  1.
         13    1    5    5    0    0  0.31677800329E+02 -0.10873876153E+02  0.32246389006E+03  0.32419852653E+03  0.00000000000E+00 0. -1.
        -13    1    5    5    0    0  0.35949226894E+03 -0.19989264289E+03  0.18512157897E+04  0.18963627449E+04  0.00000000000E+00 0.  1.
          4    1    6    6  503    0  0.30401569536E+03  0.29421987533E+03  0.64974770540E+03  0.77534699247E+03  0.00000000000E+00 0.  1.
         -4    1    6    6    0  503  0.23751991342E+03  0.13551073952E+03  0.38236726443E+03  0.47008892213E+03  0.00000000000E+00 0. -1.
<mgrwt>
<rscale>  0 0.36183959E+04</rscale>
<asrwt>0</asrwt>
<pdfrwt beam="1">  1        2 0.55939663E+00 0.36183959E+04</pdfrwt>
<pdfrwt beam="2">  1       -1 0.13849229E+00 0.36183959E+04</pdfrwt>
<totfact> 0.25841540E-01</totfact>
</mgrwt>
</event>
<event>
12    7  0.1741211E-007  0.1743738E+04  0.7818608E-02  0.8736805E-01
         -1   -1    0    0    0  501 -0.00000000000E+00  0.00000000000E+00  0.13399777808E+04  0.13399777808E+04  0.00000000000E+00 0.  1.
          2   -1    0    0  501    0  0.00000000000E+00 -0.00000000000E+00 -0.56728955323E+03  0.56728955323E+03  0.00000000000E+00 0. -1.
         24    2    1    2    0    0 -0.53026611301E+03  0.24064646164E+03  0.17949354213E+03  0.61463380090E+03  0.80398429320E+02 0.  0.
        254    2    1    2    0    0  0.53026611301E+03 -0.24064646164E+03  0.59319468543E+03  0.12926335331E+04  0.98991345381E+03 0.  0.
         23    2    4    4    0    0  0.53545373546E+03 -0.48469968936E+03  0.10049710046E+03  0.73499753783E+03  0.92071829231E+02 0.  0.
         23    2    4    4    0    0 -0.51876224498E+01  0.24405322773E+03  0.49269758497E+03  0.55763599529E+03  0.92833741797E+02 0.  0.
          2    1    3    3  502    0 -0.52913326791E+03  0.23616116763E+03  0.16966627389E+03  0.60377210668E+03  0.00000000000E+00 0. -1.
         -1    1    3    3    0  502 -0.11328450945E+01  0.44852940013E+01  0.98272682319E+01  0.10861694214E+02  0.00000000000E+00 0.  1.
         13    1    5    5    0    0  0.33294074633E+03 -0.35842181263E+03  0.76347464099E+02  0.49512086566E+03  0.00000000000E+00 0. -1.
        -13    1    5    5    0    0  0.20251298913E+03 -0.12627787673E+03  0.24149636365E+02  0.23987667218E+03  0.00000000000E+00 0.  1.
          2    1    6    6  503    0 -0.73445063865E+01  0.37735080262E+01 -0.12417534674E+01  0.83500352430E+01  0.00000000000E+00 0. -1.
         -2    1    6    6    0  503  0.21568839367E+01  0.24027971970E+03  0.49393933843E+03  0.54928596004E+03  0.00000000000E+00 0.  1.
<mgrwt>
<rscale>  0 0.17437378E+04</rscale>
<asrwt>0</asrwt>
<pdfrwt beam="1">  1        2 0.87275316E-01 0.17437378E+04</pdfrwt>
<pdfrwt beam="2">  1       -1 0.20615043E+00 0.17437378E+04</pdfrwt>
<totfact> 0.78486535E+00</totfact>
</mgrwt>
</event>
<event>
12    7  0.1741211E-007  0.1793885E+04  0.7818608E-02  0.8709558E-01
         -1   -1    0    0    0  501 -0.00000000000E+00  0.00000000000E+00  0.33238450763E+03  0.33238450763E+03  0.00000000000E+00 0.  1.
          2   -1    0    0  501    0  0.00000000000E+00 -0.00000000000E+00 -0.24204070163E+04  0.24204070163E+04  0.00000000000E+00 0. -1.
         24    2    1    2    0    0 -0.15250489430E+03 -0.14163468029E+03  0.18902521338E+03  0.29162451513E+03  0.77435141137E+02 0.  0.
        254    2    1    2    0    0  0.15250489430E+03  0.14163468029E+03 -0.22770477220E+04  0.24611670088E+04  0.91053752875E+03 0.  0.
         23    2    4    4    0    0 -0.29471000016E+03 -0.13511859341E+03 -0.47813396851E+03  0.58475703023E+03  0.90651387657E+02 0.  0.
         23    2    4    4    0    0  0.44721489447E+03  0.27675327370E+03 -0.17989137535E+04  0.18764099786E+04  0.90720332009E+02 0.  0.
          4    1    3    3  502    0 -0.54605339728E+02 -0.10266302989E+03  0.10804957567E+03  0.15873295699E+03  0.00000000000E+00 0. -1.
         -3    1    3    3    0  502 -0.97899554575E+02 -0.38971650397E+02  0.80975637712E+02  0.13289155813E+03  0.00000000000E+00 0.  1.
         13    1    5    5    0    0 -0.29240249231E+03 -0.12856294977E+03 -0.42751662989E+03  0.53366479966E+03  0.00000000000E+00 0. -1.
        -13    1    5    5    0    0 -0.23075078502E+01 -0.65556436417E+01 -0.50617338621E+02  0.51092230575E+02  0.00000000000E+00 0.  1.
          1    1    6    6  503    0  0.31718401799E+03  0.24182761936E+03 -0.13665112149E+04  0.14235305403E+04  0.00000000000E+00 0. -1.
         -1    1    6    6    0  503  0.13003087648E+03  0.34925654337E+02 -0.43240253866E+03  0.45287943827E+03  0.00000000000E+00 0.  1.
<mgrwt>
<rscale>  0 0.17938849E+04</rscale>
<asrwt>0</asrwt>
<pdfrwt beam="1">  1        2 0.37237031E+00 0.17938849E+04</pdfrwt>
<pdfrwt beam="2">  1       -1 0.51136079E-01 0.17938849E+04</pdfrwt>
<totfact> 0.16017326E+01</totfact>
</mgrwt>
</event>
<event>
12    7  0.1741211E-007  0.1698864E+04  0.7818608E-02  0.8762013E-01
          2   -1    0    0  501    0  0.00000000000E+00  0.00000000000E+00  0.19948822759E+04  0.19948822759E+04  0.00000000000E+00 0. -1.
         -1   -1    0    0    0  501 -0.00000000000E+00 -0.00000000000E+00 -0.36169272066E+03  0.36169272066E+03  0.00000000000E+00 0.  1.
         24    2    1    2    0    0 -0.49961816794E+03 -0.12530497913E+03  0.17737771728E+03  0.55033065887E+03  0.77982869729E+02 0.  0.
        254    2    1    2    0    0  0.49961816794E+03  0.12530497913E+03  0.14558118379E+04  0.18062443377E+04  0.93691560363E+03 0.  0.
         23    2    4    4    0    0  0.59992474696E+03 -0.25544760094E+03  0.81100799261E+03  0.10445076229E+04  0.89994618693E+02 0.  0.
         23    2    4    4    0    0 -0.10030657902E+03  0.38075258007E+03  0.64480384532E+03  0.76173671475E+03  0.97143639172E+02 0.  0.
          2    1    3    3  502    0 -0.10275310518E+03  0.26382013596E+01  0.50186433622E+02  0.11438460932E+03  0.00000000000E+00 0. -1.
         -1    1    3    3    0  502 -0.39686506276E+03 -0.12794318049E+03  0.12719128365E+03  0.43594604954E+03  0.00000000000E+00 0.  1.
         13    1    5    5    0    0  0.24945331197E+03 -0.13290438258E+03  0.41031480648E+03  0.49824569259E+03  0.00000000000E+00 0. -1.
        -13    1    5    5    0    0  0.35047143499E+03 -0.12254321835E+03  0.40069318613E+03  0.54626193032E+03  0.00000000000E+00 0.  1.
          3    1    6    6  503    0  0.13093324268E+02  0.88204443786E+01  0.16418938606E+02  0.22777553081E+02  0.00000000000E+00 0. -1.
         -3    1    6    6    0  503 -0.11339990329E+03  0.37193213569E+03  0.62838490672E+03  0.73895916167E+03  0.00000000000E+00 0.  1.
<mgrwt>
<rscale>  0 0.16988636E+04</rscale>
<asrwt>0</asrwt>
<pdfrwt beam="1">  1        2 0.30690496E+00 0.16988636E+04</pdfrwt>
<pdfrwt beam="2">  1       -1 0.55645035E-01 0.16988636E+04</pdfrwt>
<totfact> 0.23810037E+01</totfact>
</mgrwt>
</event>
<event>
12    7  0.1741211E-007  0.1249004E+04  0.7818608E-02  0.9071013E-01
          2   -1    0    0  501    0  0.00000000000E+00  0.00000000000E+00  0.11776048243E+04  0.11776048243E+04  0.00000000000E+00 0. -1.
         -1   -1    0    0    0  501 -0.00000000000E+00 -0.00000000000E+00 -0.33118288555E+03  0.33118288555E+03  0.00000000000E+00 0.  1.
         24    2    1    2    0    0  0.52523918190E+02 -0.28643203422E+03  0.27935964309E+03  0.41348165601E+03  0.90128782631E+02 0.  0.
        254    2    1    2    0    0 -0.52523918190E+02  0.28643203422E+03  0.56706229570E+03  0.10953060539E+04  0.89069278220E+03 0.  0.
         23    2    4    4    0    0  0.77720624043E+02 -0.55694305517E+02  0.68567927275E+03  0.69825471220E+03  0.90891292046E+02 0.  0.
         23    2    4    4    0    0 -0.13024454223E+03  0.34212633974E+03 -0.11861697705E+03  0.39705134168E+03  0.97804435288E+02 0.  0.
          4    1    3    3  502    0  0.11231500569E+02 -0.14566336581E+03  0.81882820888E+02  0.16747763761E+03  0.00000000000E+00 0. -1.
         -3    1    3    3    0  502  0.41292417621E+02 -0.14076866841E+03  0.19747682220E+03  0.24600401839E+03  0.00000000000E+00 0.  1.
         13    1    5    5    0    0  0.92481054117E+02 -0.40304193576E+02  0.63926665124E+03  0.64717773817E+03  0.00000000000E+00 0. -1.
        -13    1    5    5    0    0 -0.14760430074E+02 -0.15390111941E+02  0.46412621502E+02  0.51076974032E+02  0.00000000000E+00 0.  1.
          4    1    6    6  503    0 -0.13807646437E+03  0.32986012613E+03 -0.96169598488E+02  0.37029907440E+03  0.00000000000E+00 0. -1.
         -4    1    6    6    0  503  0.78319221367E+01  0.12266213603E+02 -0.22447378560E+02  0.26752267282E+02  0.00000000000E+00 0.  1.
<mgrwt>
<rscale>  0 0.12490037E+04</rscale>
<asrwt>0</asrwt>
<pdfrwt beam="1">  1        2 0.18116997E+00 0.12490037E+04</pdfrwt>
<pdfrwt beam="2">  1       -1 0.50951214E-01 0.12490037E+04</pdfrwt>
<totfact> 0.84805719E+01</totfact>
</mgrwt>
</event>
<event>
12    7  0.1741211E-007  0.2106147E+04  0.7818608E-02  0.8558540E-01
         -1   -1    0    0    0  501 -0.00000000000E+00  0.00000000000E+00  0.10556204813E+04  0.10556204813E+04  0.00000000000E+00 0.  1.
          2   -1    0    0  501    0  0.00000000000E+00 -0.00000000000E+00 -0.10505327797E+04  0.10505327797E+04  0.00000000000E+00 0. -1.
         24    2    1    2    0    0 -0.81073553941E+03  0.26850840291E+03  0.11700269323E+03  0.86584212502E+03  0.81265478230E+02 0.  0.
        254    2    1    2    0    0  0.81073553941E+03 -0.26850840291E+03 -0.11191499159E+03  0.12403111360E+04  0.89244488423E+03 0.  0.
         23    2    4    4    0    0  0.90525261192E+03 -0.37696979318E+03 -0.25541009105E+03  0.10174182805E+04  0.91198281526E+02 0.  0.
         23    2    4    4    0    0 -0.94517072511E+02  0.10846139027E+03  0.14349509946E+03  0.22289285546E+03  0.91613488476E+02 0.  0.
          2    1    3    3  502    0 -0.30653794319E+03  0.13239380982E+03  0.18749668964E+02  0.33443262637E+03  0.00000000000E+00 0. -1.
         -1    1    3    3    0  502 -0.50419759622E+03  0.13611459309E+03  0.98253024263E+02  0.53140949865E+03  0.00000000000E+00 0.  1.
         13    1    5    5    0    0  0.80406357567E+03 -0.34224190641E+03 -0.19805910948E+03  0.89603301673E+03  0.00000000000E+00 0. -1.
        -13    1    5    5    0    0  0.10118903625E+03 -0.34727886774E+02 -0.57350981568E+02  0.12138526378E+03  0.00000000000E+00 0.  1.
          1    1    6    6  503    0 -0.10267954279E+03  0.99769756465E+02  0.15156721383E+03  0.20849391627E+03  0.00000000000E+00 0. -1.
         -1    1    6    6    0  503  0.81624702794E+01  0.86916338062E+01 -0.80721143747E+01  0.14398939189E+02  0.00000000000E+00 0.  1.
<mgrwt>
<rscale>  0 0.21061471E+04</rscale>
<asrwt>0</asrwt>
<pdfrwt beam="1">  1        2 0.16162043E+00 0.21061471E+04</pdfrwt>
<pdfrwt beam="2">  1       -1 0.16240315E+00 0.21061471E+04</pdfrwt>
<totfact> 0.68867295E+00</totfact>
</mgrwt>
</event>
<event>
12    7  0.1741211E-007  0.1596639E+04  0.7818608E-02  0.8822615E-01
          2   -1    0    0  501    0  0.00000000000E+00  0.00000000000E+00  0.44068066169E+03  0.44068066169E+03  0.00000000000E+00 0. -1.
         -1   -1    0    0    0  501 -0.00000000000E+00 -0.00000000000E+00 -0.14462045634E+04  0.14462045634E+04  0.00000000000E+00 0.  1.
         24    2    1    2    0    0 -0.46362063402E+03 -0.12414470982E+03 -0.65385098328E+03  0.81473557976E+03  0.76921748036E+02 0.  0.
        254    2    1    2    0    0  0.46362063402E+03  0.12414470982E+03 -0.35167291843E+03  0.10721496453E+04  0.89189406274E+03 0.  0.
         23    2    4    4    0    0  0.50621904075E+03  0.14975703529E+03 -0.59869175758E+03  0.80356859036E+03  0.92767300132E+02 0.  0.
         23    2    4    4    0    0 -0.42598406733E+02 -0.25612325474E+02  0.24701883915E+03  0.26858105497E+03  0.92988497791E+02 0.  0.
          2    1    3    3  502    0 -0.11814762650E+03 -0.42581865906E+02 -0.22838117375E+03  0.26063391467E+03  0.00000000000E+00 0. -1.
         -1    1    3    3    0  502 -0.34547300752E+03 -0.81562843911E+02 -0.42546980953E+03  0.55410166509E+03  0.00000000000E+00 0.  1.
         13    1    5    5    0    0  0.48026822607E+03  0.11741405564E+03 -0.55671651683E+03  0.74456491292E+03  0.00000000000E+00 0.  1.
        -13    1    5    5    0    0  0.25950814682E+02  0.32342979652E+02 -0.41975240746E+02  0.59003677437E+02  0.00000000000E+00 0. -1.
          4    1    6    6  503    0 -0.32941491969E+02  0.16712184288E+02  0.30939572043E+02  0.48183981934E+02  0.00000000000E+00 0. -1.
         -4    1    6    6    0  503 -0.96569147634E+01 -0.42324509762E+02  0.21607926711E+03  0.22039707304E+03  0.00000000000E+00 0.  1.
<mgrwt>
<rscale>  0 0.15966395E+04</rscale>
<asrwt>0</asrwt>
<pdfrwt beam="1">  1        2 0.67797024E-01 0.15966395E+04</pdfrwt>
<pdfrwt beam="2">  1       -1 0.22249301E+00 0.15966395E+04</pdfrwt>
<totfact> 0.82739622E+00</totfact>
</mgrwt>
</event>
<event>
12    7  0.1741211E-007  0.2009946E+04  0.7818608E-02  0.8601985E-01
         -1   -1    0    0    0  501 -0.00000000000E+00  0.00000000000E+00  0.10285872686E+04  0.10285872686E+04  0.00000000000E+00 0.  1.
          2   -1    0    0  501    0  0.00000000000E+00 -0.00000000000E+00 -0.98190063829E+03  0.98190063829E+03  0.00000000000E+00 0. -1.
         24    2    1    2    0    0  0.47296947677E+03  0.62260180248E+03 -0.15205368663E+03  0.80198995315E+03  0.93458177391E+02 0.  0.
        254    2    1    2    0    0 -0.47296947677E+03 -0.62260180248E+03  0.19874031697E+03  0.12084979538E+04  0.89979801081E+03 0.  0.
         23    2    4    4    0    0 -0.62867506674E+03 -0.34130427468E+03  0.39354504098E+03  0.82175718510E+03  0.93199916956E+02 0.  0.
         23    2    4    4    0    0  0.15570558997E+03 -0.28129752780E+03 -0.19480472402E+03  0.38674076867E+03  0.90813059396E+02 0.  0.
          4    1    3    3  502    0  0.46651072206E+03  0.58043689757E+03 -0.14071806867E+03  0.75785276981E+03  0.00000000000E+00 0. -1.
         -3    1    3    3    0  502  0.64587547140E+01  0.42164904909E+02 -0.11335617961E+02  0.44137183338E+02  0.00000000000E+00 0.  1.
         13    1    5    5    0    0 -0.55056107611E+03 -0.32198350889E+03  0.37238491480E+03  0.73855358864E+03  0.00000000000E+00 0. -1.
        -13    1    5    5    0    0 -0.78113990632E+02 -0.19320765789E+02  0.21160126181E+02  0.83203596455E+02  0.00000000000E+00 0.  1.
          1    1    6    6  503    0  0.13190297068E+03 -0.17554871039E+03 -0.94482419332E+02  0.23904533243E+03  0.00000000000E+00 0. -1.
         -1    1    6    6    0  503  0.23802619292E+02 -0.10574881741E+03 -0.10032230469E+03  0.14769543624E+03  0.00000000000E+00 0.  1.
<mgrwt>
<rscale>  0 0.20099458E+04</rscale>
<asrwt>0</asrwt>
<pdfrwt beam="1">  1        2 0.15106164E+00 0.20099458E+04</pdfrwt>
<pdfrwt beam="2">  1       -1 0.15824420E+00 0.20099458E+04</pdfrwt>
<totfact> 0.82582902E+00</totfact>
</mgrwt>
</event>
<event>
12    7  0.1741211E-007  0.1680982E+04  0.7818608E-02  0.8772286E-01
         -1   -1    0    0    0  501 -0.00000000000E+00  0.00000000000E+00  0.47302836398E+03  0.47302836398E+03  0.00000000000E+00 0.  1.
          2   -1    0    0  501    0  0.00000000000E+00 -0.00000000000E+00 -0.14934097622E+04  0.14934097622E+04  0.00000000000E+00 0. -1.
         24    2    1    2    0    0  0.19411881034E+03 -0.53489999240E+02  0.29239424634E+03  0.36396621365E+03  0.80210453449E+02 0.  0.
        254    2    1    2    0    0 -0.19411881034E+03  0.53489999240E+02 -0.13127756445E+04  0.16024719125E+04  0.89665659254E+03 0.  0.
         23    2    4    4    0    0  0.11606792132E+02  0.42370505920E+03 -0.92075192949E+03  0.10176885514E+04  0.90802957699E+02 0.  0.
         23    2    4    4    0    0 -0.20572560247E+03 -0.37021505996E+03 -0.39202371504E+03  0.58478336112E+03  0.94375696871E+02 0.  0.
          4    1    3    3  502    0  0.13025949336E+02 -0.26063138450E+02  0.70241132650E+02  0.76044587302E+02  0.00000000000E+00 0. -1.
         -3    1    3    3    0  502  0.18109286100E+03 -0.27426860790E+02  0.22215311369E+03  0.28792162635E+03  0.00000000000E+00 0.  1.
         13    1    5    5    0    0  0.11254590297E+01  0.13463432528E+03 -0.39918576871E+03  0.42128012788E+03  0.00000000000E+00 0.  1.
        -13    1    5    5    0    0  0.10481333102E+02  0.28907073392E+03 -0.52156616078E+03  0.59640842350E+03  0.00000000000E+00 0. -1.
          1    1    6    6  503    0 -0.21449254726E+03 -0.36377639994E+03 -0.38697537088E+03  0.57279163721E+03  0.00000000000E+00 0. -1.
         -1    1    6    6    0  503  0.87669447874E+01 -0.64386600185E+01 -0.50483441517E+01  0.11991723913E+02  0.00000000000E+00 0.  1.
<mgrwt>
<rscale>  0 0.16809821E+04</rscale>
<asrwt>0</asrwt>
<pdfrwt beam="1">  1        2 0.22975535E+00 0.16809821E+04</pdfrwt>
<pdfrwt beam="2">  1       -1 0.72773595E-01 0.16809821E+04</pdfrwt>
<totfact> 0.26470656E+01</totfact>
</mgrwt>
</event>
<event>
12    7  0.1741211E-007  0.1288211E+04  0.7818608E-02  0.9038966E-01
          2   -1    0    0  501    0  0.00000000000E+00  0.00000000000E+00  0.25548752057E+04  0.25548752057E+04  0.00000000000E+00 0. -1.
         -1   -1    0    0    0  501 -0.00000000000E+00 -0.00000000000E+00 -0.16238443351E+03  0.16238443351E+03  0.00000000000E+00 0.  1.
         24    2    1    2    0    0  0.11060095793E+03  0.54748421244E+02 -0.12858558583E+02  0.14734969988E+03  0.79477229449E+02 0.  0.
        254    2    1    2    0    0 -0.11060095793E+03 -0.54748421244E+02  0.24053493308E+04  0.25699099393E+04  0.89638258110E+03 0.  0.
         23    2    4    4    0    0  0.39201819025E+02  0.16870282463E+03  0.22239790336E+04  0.22325791780E+04  0.91266743269E+02 0.  0.
         23    2    4    4    0    0 -0.14980277696E+03 -0.22345124587E+03  0.18137029712E+03  0.33733076130E+03  0.92333778073E+02 0.  0.
          2    1    3    3  502    0  0.21570478583E+02  0.11067926866E+02  0.30630649642E+02  0.39064321943E+02  0.00000000000E+00 0. -1.
         -1    1    3    3    0  502  0.89030479349E+02  0.43680494378E+02 -0.43489208225E+02  0.10828537793E+03  0.00000000000E+00 0.  1.
         13    1    5    5    0    0  0.44374330224E+02  0.16944942077E+03  0.22167454067E+04  0.22236551858E+04  0.00000000000E+00 0. -1.
        -13    1    5    5    0    0 -0.51725111985E+01 -0.74659613650E+00  0.72336269562E+01  0.89239922025E+01  0.00000000000E+00 0.  1.
          1    1    6    6  503    0 -0.75210989492E+02 -0.65652061870E+02  0.24831092695E+02  0.10287599007E+03  0.00000000000E+00 0. -1.
         -1    1    6    6    0  503 -0.74591787465E+02 -0.15779918400E+03  0.15653920443E+03  0.23445477123E+03  0.00000000000E+00 0.  1.
<mgrwt>
<rscale>  0 0.12882111E+04</rscale>
<asrwt>0</asrwt>
<pdfrwt beam="1">  1        2 0.39305769E+00 0.12882111E+04</pdfrwt>
<pdfrwt beam="2">  1       -1 0.24982222E-01 0.12882111E+04</pdfrwt>
<totfact> 0.50959676E+01</totfact>
</mgrwt>
</event>
<event>
12    7  0.1741211E-007  0.2125811E+04  0.7818608E-02  0.8549958E-01
          2   -1    0    0  501    0  0.00000000000E+00  0.00000000000E+00  0.78577433355E+03  0.78577433355E+03  0.00000000000E+00 0. -1.
         -1   -1    0    0    0  501 -0.00000000000E+00 -0.00000000000E+00 -0.14377770558E+04  0.14377770558E+04  0.00000000000E+00 0.  1.
         24    2    1    2    0    0  0.25085048014E+03  0.38013062128E+03  0.51911429862E+03  0.69612027567E+03  0.87627224892E+02 0.  0.
        254    2    1    2    0    0 -0.25085048014E+03 -0.38013062128E+03 -0.11711170209E+04  0.15274311137E+04  0.86839246761E+03 0.  0.
         23    2    4    4    0    0  0.14883047438E+03 -0.29362357306E+02  0.57437585194E+02  0.18567825233E+03  0.90358613668E+02 0.  0.
         23    2    4    4    0    0 -0.39968095452E+03 -0.35076826397E+03 -0.12285546061E+04  0.13417528613E+04  0.90394028571E+02 0.  0.
          4    1    3    3  502    0  0.73511352133E+02  0.12438657791E+03  0.10746449520E+03  0.18006820204E+03  0.00000000000E+00 0. -1.
         -3    1    3    3    0  502  0.17733912801E+03  0.25574404337E+03  0.41164980342E+03  0.51605207363E+03  0.00000000000E+00 0.  1.
         13    1    5    5    0    0  0.39313093318E+02  0.31863319214E+02  0.22881337834E+02  0.55536888990E+02  0.00000000000E+00 0.  1.
        -13    1    5    5    0    0  0.10951738107E+03 -0.61225676520E+02  0.34556247360E+02  0.13014136334E+03  0.00000000000E+00 0. -1.
          3    1    6    6  503    0 -0.39817673089E+03 -0.34408023262E+03 -0.12264460999E+04  0.13345808149E+04  0.00000000000E+00 0. -1.
         -3    1    6    6    0  503 -0.15042236292E+01 -0.66880313567E+01 -0.21085061786E+01  0.71720464625E+01  0.00000000000E+00 0.  1.
<mgrwt>
<rscale>  0 0.21258112E+04</rscale>
<asrwt>0</asrwt>
<pdfrwt beam="1">  1        2 0.12088836E+00 0.21258112E+04</pdfrwt>
<pdfrwt beam="2">  1       -1 0.22119647E+00 0.21258112E+04</pdfrwt>
<totfact> 0.39990658E+00</totfact>
</mgrwt>
</event>
<event>
12    7  0.1741211E-007  0.1069367E+04  0.7818608E-02  0.9235574E-01
         -1   -1    0    0    0  501 -0.00000000000E+00  0.00000000000E+00  0.30153171884E+03  0.30153171884E+03  0.00000000000E+00 0.  1.
          2   -1    0    0  501    0  0.00000000000E+00 -0.00000000000E+00 -0.94811415938E+03  0.94811415938E+03  0.00000000000E+00 0. -1.
         24    2    1    2    0    0 -0.57189015452E+02  0.12029150888E+03 -0.10954427835E+03  0.18972831612E+03  0.79096488059E+02 0.  0.
        254    2    1    2    0    0  0.57189015452E+02 -0.12029150888E+03 -0.53703816219E+03  0.10599175621E+04  0.90403242209E+03 0.  0.
         23    2    4    4    0    0  0.22369664061E+03 -0.33029119380E+03  0.46388235101E+02  0.41134450702E+03  0.88994243522E+02 0.  0.
         23    2    4    4    0    0 -0.16650762516E+03  0.20999968492E+03 -0.58342639729E+03  0.64857305507E+03  0.91847644567E+02 0.  0.
          4    1    3    3  502    0 -0.29397138445E+02  0.78293811566E+02 -0.11144179844E+03  0.13933193143E+03  0.00000000000E+00 0. -1.
         -3    1    3    3    0  502 -0.27791877007E+02  0.41997697317E+02  0.18975200890E+01  0.50396384691E+02  0.00000000000E+00 0.  1.
         13    1    5    5    0    0 -0.54315857977E+01 -0.15532065553E+00  0.49600790671E+01  0.73572163986E+01  0.00000000000E+00 0. -1.
        -13    1    5    5    0    0  0.22912822640E+03 -0.33013587315E+03  0.41428156034E+02  0.40398729062E+03  0.00000000000E+00 0.  1.
          3    1    6    6  503    0 -0.44356705963E+02  0.52415760652E+02 -0.25749766135E+03  0.26649573154E+03  0.00000000000E+00 0. -1.
         -3    1    6    6    0  503 -0.12215091919E+03  0.15758392427E+03 -0.32592873594E+03  0.38207732353E+03  0.00000000000E+00 0.  1.
<mgrwt>
<rscale>  0 0.10693671E+04</rscale>
<asrwt>0</asrwt>
<pdfrwt beam="1">  1        2 0.14586372E+00 0.10693671E+04</pdfrwt>
<pdfrwt beam="2">  1       -1 0.46389496E-01 0.10693671E+04</pdfrwt>
<totfact> 0.14282119E+02</totfact>
</mgrwt>
</event>
<event>
12    7  0.1741211E-007  0.2588175E+04  0.7818608E-02  0.8372229E-01
          2   -1    0    0  501    0  0.00000000000E+00  0.00000000000E+00  0.30962247168E+04  0.30962247168E+04  0.00000000000E+00 0. -1.
         -1   -1    0    0    0  501 -0.00000000000E+00 -0.00000000000E+00 -0.54087233789E+03  0.54087233789E+03  0.00000000000E+00 0.  1.
         24    2    1    2    0    0  0.16817103571E+03 -0.39424903521E+03 -0.35389371880E+03  0.56162067817E+03  0.80394172165E+02 0.  0.
        254    2    1    2    0    0 -0.16817103571E+03  0.39424903521E+03  0.29092460977E+04  0.30754763765E+04  0.90062660768E+03 0.  0.
         23    2    4    4    0    0  0.12804614030E+03  0.57356168783E+03  0.22248694973E+04  0.23029988922E+04  0.91601273769E+02 0.  0.
         23    2    4    4    0    0 -0.29621717601E+03 -0.17931265261E+03  0.68437660036E+03  0.77247748434E+03  0.91937424034E+02 0.  0.
          2    1    3    3  502    0  0.61299496960E+02 -0.24211255921E+03 -0.21499073420E+03  0.32954079482E+03  0.00000000000E+00 0. -1.
         -1    1    3    3    0  502  0.10687153875E+03 -0.15213647600E+03 -0.13890298460E+03  0.23207988335E+03  0.00000000000E+00 0.  1.
         13    1    5    5    0    0  0.66050320256E+02  0.42594547248E+03  0.17292201441E+04  0.17821320089E+04  0.00000000000E+00 0.  1.
        -13    1    5    5    0    0  0.61995820048E+02  0.14761621534E+03  0.49564935325E+03  0.52086688330E+03  0.00000000000E+00 0. -1.
          2    1    6    6  503    0 -0.13685863920E+03 -0.77270093520E+02  0.41075884030E+03  0.43979970369E+03  0.00000000000E+00 0. -1.
         -2    1    6    6    0  503 -0.15935853681E+03 -0.10204255909E+03  0.27361776006E+03  0.33267778065E+03  0.00000000000E+00 0.  1.
<mgrwt>
<rscale>  0 0.25881749E+04</rscale>
<asrwt>0</asrwt>
<pdfrwt beam="1">  1        2 0.47634225E+00 0.25881749E+04</pdfrwt>
<pdfrwt beam="2">  1       -1 0.83211131E-01 0.25881749E+04</pdfrwt>
<totfact> 0.21841245E+00</totfact>
</mgrwt>
</event>
<event>
12    7  0.1741211E-007  0.1956084E+04  0.7818608E-02  0.8627432E-01
         -3   -1    0    0    0  501 -0.00000000000E+00  0.00000000000E+00  0.10329209639E+04  0.10329209639E+04  0.00000000000E+00 0.  1.
          2   -1    0    0  501    0  0.00000000000E+00 -0.00000000000E+00 -0.92607918380E+03  0.92607918380E+03  0.00000000000E+00 0. -1.
         24    2    1    2    0    0 -0.74246157752E+03 -0.15783763683E+03 -0.72327913943E+02  0.76659640188E+03  0.79226274325E+02 0.  0.
        254    2    1    2    0    0  0.74246157752E+03  0.15783763683E+03  0.17916969400E+03  0.11924037458E+04  0.90197727244E+03 0.  0.
         23    2    4    4    0    0  0.89751139343E+03  0.20089614025E+03 -0.15612506206E+02  0.92433451920E+03  0.90909804403E+02 0.  0.
         23    2    4    4    0    0 -0.15504981590E+03 -0.43058503418E+02  0.19478220020E+03  0.26806922658E+03  0.89590873387E+02 0.  0.
          4    1    3    3  502    0 -0.35985437389E+03 -0.10094762335E+03 -0.67262216836E+02  0.37974965291E+03  0.00000000000E+00 0. -1.
         -3    1    3    3    0  502 -0.38260720363E+03 -0.56890013473E+02 -0.50656971070E+01  0.38684674897E+03  0.00000000000E+00 0.  1.
         13    1    5    5    0    0  0.10790732387E+03  0.48653410606E+02  0.16686804086E+02  0.11953909126E+03  0.00000000000E+00 0. -1.
        -13    1    5    5    0    0  0.78960406955E+03  0.15224272964E+03 -0.32299310293E+02  0.80479542794E+03  0.00000000000E+00 0.  1.
          3    1    6    6  503    0 -0.92419911490E+00 -0.19741163917E+01  0.57725544379E+02  0.57766683766E+02  0.00000000000E+00 0. -1.
         -3    1    6    6    0  503 -0.15412561679E+03 -0.41084387027E+02  0.13705665582E+03  0.21030254281E+03  0.00000000000E+00 0.  1.
<mgrwt>
<rscale>  0 0.19560845E+04</rscale>
<asrwt>0</asrwt>
<pdfrwt beam="1">  1        2 0.14247372E+00 0.19560845E+04</pdfrwt>
<pdfrwt beam="2">  1       -3 0.15891092E+00 0.19560845E+04</pdfrwt>
<totfact> 0.45900622E+00</totfact>
</mgrwt>
</event>
<event>
12    7  0.1741211E-007  0.1399564E+04  0.7818608E-02  0.8954134E-01
          2   -1    0    0  501    0  0.00000000000E+00  0.00000000000E+00  0.19600573136E+04  0.19600573136E+04  0.00000000000E+00 0. -1.
         -1   -1    0    0    0  501 -0.00000000000E+00 -0.00000000000E+00 -0.24983705409E+03  0.24983705409E+03  0.00000000000E+00 0.  1.
         24    2    1    2    0    0  0.14078608816E+03  0.97399564869E+02 -0.74479298420E+02  0.20241905238E+03  0.78223455660E+02 0.  0.
        254    2    1    2    0    0 -0.14078608816E+03 -0.97399564869E+02  0.17846995579E+04  0.20074753153E+04  0.90304885341E+03 0.  0.
         23    2    4    4    0    0  0.26444875714E+03 -0.33168589381E+03  0.98629341207E+03  0.10773173368E+04  0.88821575447E+02 0.  0.
         23    2    4    4    0    0 -0.40523484531E+03  0.23428632895E+03  0.79840614586E+03  0.93015797847E+03  0.92930766564E+02 0.  0.
          2    1    3    3  502    0 -0.16796889059E+01  0.12182877512E+01  0.10474735886E+02  0.10678280374E+02  0.00000000000E+00 0. -1.
         -1    1    3    3    0  502  0.14246577707E+03  0.96181277118E+02 -0.84954034306E+02  0.19174077200E+03  0.00000000000E+00 0.  1.
         13    1    5    5    0    0  0.23982955624E+02 -0.82993694543E+02  0.16815671533E+03  0.18904977229E+03  0.00000000000E+00 0. -1.
        -13    1    5    5    0    0  0.24046580152E+03 -0.24869219927E+03  0.81813669674E+03  0.88826756455E+03  0.00000000000E+00 0.  1.
          1    1    6    6  503    0 -0.55338942328E+02  0.62665447396E+01  0.60261444526E+02  0.82055528865E+02  0.00000000000E+00 0. -1.
         -1    1    6    6    0  503 -0.34989590298E+03  0.22801978421E+03  0.73814470134E+03  0.84810244960E+03  0.00000000000E+00 0.  1.
<mgrwt>
<rscale>  0 0.13995641E+04</rscale>
<asrwt>0</asrwt>
<pdfrwt beam="1">  1        2 0.30154727E+00 0.13995641E+04</pdfrwt>
<pdfrwt beam="2">  1       -1 0.38436471E-01 0.13995641E+04</pdfrwt>
<totfact> 0.51101964E+01</totfact>
</mgrwt>
</event>
<event>
12    7  0.1741211E-007  0.1157770E+04  0.7818608E-02  0.9150645E-01
         -3   -1    0    0    0  501 -0.00000000000E+00  0.00000000000E+00  0.14165742613E+03  0.14165742613E+03  0.00000000000E+00 0.  1.
          2   -1    0    0  501    0  0.00000000000E+00 -0.00000000000E+00 -0.23656214508E+04  0.23656214508E+04  0.00000000000E+00 0. -1.
         24    2    1    2    0    0 -0.14519608609E+03 -0.32551962035E+02 -0.63827537205E+03  0.66038017979E+03  0.81024673121E+02 0.  0.
        254    2    1    2    0    0  0.14519608609E+03  0.32551962035E+02 -0.15856886526E+04  0.18468986972E+04  0.93513889921E+03 0.  0.
         23    2    4    4    0    0 -0.13787130389E+03 -0.19668560006E+03 -0.14091540489E+04  0.14322985238E+04  0.89834325439E+02 0.  0.
         23    2    4    4    0    0  0.28306738998E+03  0.22923756209E+03 -0.17653460370E+03  0.41460017333E+03  0.89731991373E+02 0.  0.
          4    1    3    3  502    0 -0.12650294340E+03 -0.56665519652E+02 -0.53764189661E+03  0.55522318467E+03  0.00000000000E+00 0. -1.
         -3    1    3    3    0  502 -0.18693142689E+02  0.24113557617E+02 -0.10063347543E+03  0.10515699512E+03  0.00000000000E+00 0.  1.
         13    1    5    5    0    0 -0.10101494446E+03 -0.13662731262E+03 -0.11906569835E+04  0.12027198734E+04  0.00000000000E+00 0.  1.
        -13    1    5    5    0    0 -0.36856359432E+02 -0.60058287440E+02 -0.21849706542E+03  0.22957865040E+03  0.00000000000E+00 0. -1.
          2    1    6    6  503    0  0.10404148730E+02  0.10537452288E+02 -0.34065666465E+02  0.37145037935E+02  0.00000000000E+00 0. -1.
         -2    1    6    6    0  503  0.27266324125E+03  0.21870010981E+03 -0.14246893724E+03  0.37745513540E+03  0.00000000000E+00 0.  1.
<mgrwt>
<rscale>  0 0.11577700E+04</rscale>
<asrwt>0</asrwt>
<pdfrwt beam="1">  1        2 0.36394176E+00 0.11577700E+04</pdfrwt>
<pdfrwt beam="2">  1       -3 0.21793450E-01 0.11577700E+04</pdfrwt>
<totfact> 0.52893683E+01</totfact>
</mgrwt>
</event>
<event>
12    7  0.1741211E-007  0.1110955E+04  0.7818608E-02  0.9194580E-01
         -3   -1    0    0    0  501 -0.00000000000E+00  0.00000000000E+00  0.46493987746E+03  0.46493987746E+03  0.00000000000E+00 0.  1.
          2   -1    0    0  501    0  0.00000000000E+00 -0.00000000000E+00 -0.66364494213E+03  0.66364494213E+03  0.00000000000E+00 0. -1.
         24    2    1    2    0    0 -0.24665866408E+02  0.18831535036E+03 -0.57419396039E+02  0.21557657530E+03  0.84292328422E+02 0.  0.
        254    2    1    2    0    0  0.24665866408E+02 -0.18831535036E+03 -0.14128566863E+03  0.91300824428E+03  0.88178871495E+03 0.  0.
         23    2    4    4    0    0 -0.22471023349E+03  0.19910794876E+03  0.16231033269E+03  0.35354540475E+03  0.92255324123E+02 0.  0.
         23    2    4    4    0    0  0.24937609990E+03 -0.38742329912E+03 -0.30359600132E+03  0.55946283953E+03  0.92427727935E+02 0.  0.
          4    1    3    3  502    0 -0.52180282087E+02  0.14730672190E+03 -0.56527329516E+02  0.16618481019E+03  0.00000000000E+00 0. -1.
         -3    1    3    3    0  502  0.27514415678E+02  0.41008628463E+02 -0.89206652243E+00  0.49391765115E+02  0.00000000000E+00 0.  1.
         13    1    5    5    0    0 -0.23204639506E+03  0.19663376124E+03  0.16409909375E+03  0.34559930278E+03  0.00000000000E+00 0. -1.
        -13    1    5    5    0    0  0.73361615643E+01  0.24741875235E+01 -0.17887610557E+01  0.79461019697E+01  0.00000000000E+00 0.  1.
          1    1    6    6  503    0  0.20888547671E+03 -0.28234714485E+03 -0.18917350074E+03  0.39892313291E+03  0.00000000000E+00 0. -1.
         -1    1    6    6    0  503  0.40490623192E+02 -0.10507615426E+03 -0.11442250059E+03  0.16053970662E+03  0.00000000000E+00 0.  1.
<mgrwt>
<rscale>  0 0.11109545E+04</rscale>
<asrwt>0</asrwt>
<pdfrwt beam="1">  1        2 0.10209922E+00 0.11109545E+04</pdfrwt>
<pdfrwt beam="2">  1       -3 0.71529212E-01 0.11109545E+04</pdfrwt>
<totfact> 0.51232972E+01</totfact>
</mgrwt>
</event>
<event>
12    7  0.1741211E-007  0.1283343E+04  0.7818608E-02  0.9042880E-01
          2   -1    0    0  501    0  0.00000000000E+00  0.00000000000E+00  0.79100773325E+03  0.79100773325E+03  0.00000000000E+00 0. -1.
         -3   -1    0    0    0  501 -0.00000000000E+00 -0.00000000000E+00 -0.52052870445E+03  0.52052870445E+03  0.00000000000E+00 0.  1.
         24    2    1    2    0    0 -0.29417591784E+03  0.50748610047E+02  0.18672951333E+03  0.36091353057E+03  0.79219778706E+02 0.  0.
        254    2    1    2    0    0  0.29417591784E+03 -0.50748610047E+02  0.83749515472E+02  0.95062290714E+03  0.89864066131E+03 0.  0.
         23    2    4    4    0    0 -0.19417714938E+03  0.44514440156E+02 -0.25909494290E+03  0.33921695553E+03  0.90838608326E+02 0.  0.
         23    2    4    4    0    0  0.48835306722E+03 -0.95263050204E+02  0.34284445837E+03  0.61140595160E+03  0.93333531051E+02 0.  0.
          4    1    3    3  502    0 -0.13032361695E+03  0.36208277813E+01  0.12197212701E+03  0.17853446529E+03  0.00000000000E+00 0. -1.
         -3    1    3    3    0  502 -0.16385230089E+03  0.47127782266E+02  0.64757386320E+02  0.18237906528E+03  0.00000000000E+00 0.  1.
         13    1    5    5    0    0 -0.11611330279E+03  0.56757667639E+02 -0.10686888237E+03  0.16770417389E+03  0.00000000000E+00 0.  1.
        -13    1    5    5    0    0 -0.78063846586E+02 -0.12243227483E+02 -0.15222606053E+03  0.17151278164E+03  0.00000000000E+00 0. -1.
          1    1    6    6  503    0  0.33728234335E+03 -0.10920353254E+03  0.23913911601E+03  0.42763571817E+03  0.00000000000E+00 0. -1.
         -1    1    6    6    0  503  0.15107072387E+03  0.13940482332E+02  0.10370534236E+03  0.18377023343E+03  0.00000000000E+00 0.  1.
<mgrwt>
<rscale>  0 0.12833429E+04</rscale>
<asrwt>0</asrwt>
<pdfrwt beam="1">  1        2 0.12169350E+00 0.12833429E+04</pdfrwt>
<pdfrwt beam="2">  1       -3 0.80081339E-01 0.12833429E+04</pdfrwt>
<totfact> 0.31547377E+01</totfact>
</mgrwt>
</event>
<event>
12    7  0.1741211E-007  0.1383936E+04  0.7818608E-02  0.8965529E-01
          2   -1    0    0  501    0  0.00000000000E+00  0.00000000000E+00  0.34442682789E+04  0.34442682789E+04  0.00000000000E+00 0. -1.
         -1   -1    0    0    0  501 -0.00000000000E+00 -0.00000000000E+00 -0.13901926038E+03  0.13901926038E+03  0.00000000000E+00 0.  1.
         24    2    1    2    0    0 -0.33013342264E+03  0.15360846867E+03  0.52563997122E+03  0.64326713978E+03  0.70082775229E+02 0.  0.
        254    2    1    2    0    0  0.33013342264E+03 -0.15360846867E+03  0.27796090473E+04  0.29400203995E+04  0.88595138427E+03 0.  0.
         23    2    4    4    0    0  0.51672876860E+03 -0.37779260101E+03  0.20434624788E+04  0.21432216845E+04  0.89019195376E+02 0.  0.
         23    2    4    4    0    0 -0.18659534596E+03  0.22418413235E+03  0.73614656856E+03  0.79679871502E+03  0.88882357804E+02 0.  0.
          2    1    3    3  502    0 -0.13845670205E+03  0.80673844417E+02  0.17684900686E+03  0.23865057876E+03  0.00000000000E+00 0. -1.
         -1    1    3    3    0  502 -0.19167672059E+03  0.72934624249E+02  0.34879096436E+03  0.40461656102E+03  0.00000000000E+00 0.  1.
         13    1    5    5    0    0  0.10534633248E+03 -0.82558340611E+02  0.55801590264E+03  0.57384272843E+03  0.00000000000E+00 0.  1.
        -13    1    5    5    0    0  0.41138243612E+03 -0.29523426040E+03  0.14854465761E+04  0.15693789561E+04  0.00000000000E+00 0. -1.
          4    1    6    6  503    0 -0.18136560941E+03  0.21731802653E+03  0.63435084962E+03  0.69463775405E+03  0.00000000000E+00 0. -1.
         -4    1    6    6    0  503 -0.52297365502E+01  0.68661058187E+01  0.10179571893E+03  0.10216096097E+03  0.00000000000E+00 0.  1.
<mgrwt>
<rscale>  0 0.13839359E+04</rscale>
<asrwt>0</asrwt>
<pdfrwt beam="1">  1        2 0.52988736E+00 0.13839359E+04</pdfrwt>
<pdfrwt beam="2">  1       -1 0.21387581E-01 0.13839359E+04</pdfrwt>
<totfact> 0.18327234E+01</totfact>
</mgrwt>
</event>
<event>
12    7  0.1741211E-007  0.1497541E+04  0.7818608E-02  0.8886090E-01
         -1   -1    0    0    0  501 -0.00000000000E+00  0.00000000000E+00  0.38235060297E+03  0.38235060297E+03  0.00000000000E+00 0.  1.
          2   -1    0    0  501    0  0.00000000000E+00 -0.00000000000E+00 -0.14663424740E+04  0.14663424740E+04  0.00000000000E+00 0. -1.
         24    2    1    2    0    0  0.20070796759E+03  0.37422342118E+03 -0.78540075869E+02  0.43901961679E+03  0.79011538374E+02 0.  0.
        254    2    1    2    0    0 -0.20070796759E+03 -0.37422342118E+03 -0.10054517952E+04  0.14096734602E+04  0.89214297887E+03 0.  0.
         23    2    4    4    0    0  0.24091866411E+03 -0.45209597915E+03 -0.63902696830E+03  0.82362798576E+03  0.87034565728E+02 0.  0.
         23    2    4    4    0    0 -0.44162663170E+03  0.77872557976E+02 -0.36642482688E+03  0.58604547444E+03  0.89910662557E+02 0.  0.
          2    1    3    3  502    0  0.11337056697E+03  0.22106383641E+03 -0.64032505712E+01  0.24852184379E+03  0.00000000000E+00 0. -1.
         -1    1    3    3    0  502  0.87337400622E+02  0.15315958477E+03 -0.72136825297E+02  0.19049777300E+03  0.00000000000E+00 0.  1.
         13    1    5    5    0    0  0.14121694787E+03 -0.18790670021E+03 -0.25292203844E+03  0.34528352390E+03  0.00000000000E+00 0.  1.
        -13    1    5    5    0    0  0.99701716241E+02 -0.26418927895E+03 -0.38610492986E+03  0.47834446186E+03  0.00000000000E+00 0. -1.
          1    1    6    6  503    0 -0.33729740623E+03  0.19606044895E+02 -0.27104040507E+03  0.43314759428E+03  0.00000000000E+00 0.  1.
         -1    1    6    6    0  503 -0.10432922547E+03  0.58266513081E+02 -0.95384421808E+02  0.15289788016E+03  0.00000000000E+00 0. -1.
<mgrwt>
<rscale>  0 0.14975406E+04</rscale>
<asrwt>0</asrwt>
<pdfrwt beam="1">  1        2 0.22559115E+00 0.14975406E+04</pdfrwt>
<pdfrwt beam="2">  1       -1 0.58823169E-01 0.14975406E+04</pdfrwt>
<totfact> 0.42780637E+01</totfact>
</mgrwt>
</event>
<event>
12    7  0.1741211E-007  0.2213953E+04  0.7818608E-02  0.8512643E-01
          2   -1    0    0  501    0  0.00000000000E+00  0.00000000000E+00  0.16069258986E+04  0.16069258986E+04  0.00000000000E+00 0. -1.
         -1   -1    0    0    0  501 -0.00000000000E+00 -0.00000000000E+00 -0.76257233991E+03  0.76257233991E+03  0.00000000000E+00 0.  1.
         24    2    1    2    0    0  0.23901209159E+03  0.40987100923E+03 -0.49913128683E+03  0.69194857278E+03  0.67377754088E+02 0.  0.
        254    2    1    2    0    0 -0.23901209159E+03 -0.40987100923E+03  0.13434848455E+04  0.16775496657E+04  0.88549439675E+03 0.  0.
         23    2    4    4    0    0 -0.42676272301E+03 -0.53868498289E+03  0.12191097789E+04  0.14024246315E+04  0.90874975938E+02 0.  0.
         23    2    4    4    0    0  0.18775063142E+03  0.12881397366E+03  0.12437506659E+03  0.27512503428E+03  0.91549374041E+02 0.  0.
          4    1    3    3  502    0  0.58192374506E+02  0.11820607435E+03 -0.18199556816E+03  0.22468069631E+03  0.00000000000E+00 0. -1.
         -3    1    3    3    0  502  0.18081971708E+03  0.29166493488E+03 -0.31713571867E+03  0.46726787647E+03  0.00000000000E+00 0.  1.
         13    1    5    5    0    0 -0.41122685546E+03 -0.47900143484E+03  0.10995603472E+04  0.12679049090E+04  0.00000000000E+00 0. -1.
        -13    1    5    5    0    0 -0.15535867552E+02 -0.59683548056E+02  0.11954943177E+03  0.13451972244E+03  0.00000000000E+00 0.  1.
          3    1    6    6  503    0  0.16357162817E+03  0.68657478020E+02  0.10994685915E+03  0.20870514768E+03  0.00000000000E+00 0. -1.
         -3    1    6    6    0  503  0.24179003250E+02  0.60156495642E+02  0.14428207445E+02  0.66419886601E+02  0.00000000000E+00 0.  1.
<mgrwt>
<rscale>  0 0.22139532E+04</rscale>
<asrwt>0</asrwt>
<pdfrwt beam="1">  1        2 0.24721937E+00 0.22139532E+04</pdfrwt>
<pdfrwt beam="2">  1       -1 0.11731882E+00 0.22139532E+04</pdfrwt>
<totfact> 0.75184117E+00</totfact>
</mgrwt>
</event>
<event>
12    7  0.1741211E-007  0.1465867E+04  0.7818608E-02  0.8907474E-01
          2   -1    0    0  501    0  0.00000000000E+00  0.00000000000E+00  0.24381461965E+04  0.24381461965E+04  0.00000000000E+00 0. -1.
         -1   -1    0    0    0  501 -0.00000000000E+00 -0.00000000000E+00 -0.22032785611E+03  0.22032785611E+03  0.00000000000E+00 0.  1.
         24    2    1    2    0    0  0.11193387493E+03 -0.43907780611E+03  0.74389721179E+03  0.87458460535E+03  0.78718854341E+02 0.  0.
        254    2    1    2    0    0 -0.11193387493E+03  0.43907780611E+03  0.14739211286E+04  0.17838894472E+04  0.89693899153E+03 0.  0.
         23    2    4    4    0    0 -0.17177832958E+03  0.60477958240E+03  0.55405297010E+03  0.84296321523E+03  0.91357269902E+02 0.  0.
         23    2    4    4    0    0  0.59844454657E+02 -0.16570177629E+03  0.91986815846E+03  0.94092623198E+03  0.90256898219E+02 0.  0.
          2    1    3    3  502    0  0.30204268188E+02 -0.16705305050E+03  0.34956509821E+03  0.38860619834E+03  0.00000000000E+00 0. -1.
         -1    1    3    3    0  502  0.81729606740E+02 -0.27202475561E+03  0.39433211358E+03  0.48597840702E+03  0.00000000000E+00 0.  1.
         13    1    5    5    0    0 -0.15683091017E+03  0.40434072831E+03  0.36108545561E+03  0.56433152066E+03  0.00000000000E+00 0.  1.
        -13    1    5    5    0    0 -0.14947419417E+02  0.20043885409E+03  0.19296751449E+03  0.27863169458E+03  0.00000000000E+00 0. -1.
          1    1    6    6  503    0 -0.39526697377E+01 -0.11846551487E+03  0.54173091671E+03  0.55454674097E+03  0.00000000000E+00 0. -1.
         -1    1    6    6    0  503  0.63797124394E+02 -0.47236261419E+02  0.37813724175E+03  0.38637949101E+03  0.00000000000E+00 0.  1.
<mgrwt>
<rscale>  0 0.14658670E+04</rscale>
<asrwt>0</asrwt>
<pdfrwt beam="1">  1        2 0.37509940E+00 0.14658670E+04</pdfrwt>
<pdfrwt beam="2">  1       -1 0.33896595E-01 0.14658670E+04</pdfrwt>
<totfact> 0.34358215E+01</totfact>
</mgrwt>
</event>
<event>
12    7  0.1741211E-007  0.1182858E+04  0.7818608E-02  0.9127994E-01
         -1   -1    0    0    0  501 -0.00000000000E+00  0.00000000000E+00  0.34333374183E+03  0.34333374183E+03  0.00000000000E+00 0.  1.
          2   -1    0    0  501    0  0.00000000000E+00 -0.00000000000E+00 -0.10188003627E+04  0.10188003627E+04  0.00000000000E+00 0. -1.
         24    2    1    2    0    0  0.15801085697E+03 -0.16432711152E+03 -0.19700956353E+03  0.31186846905E+03  0.80488156629E+02 0.  0.
        254    2    1    2    0    0 -0.15801085697E+03  0.16432711152E+03 -0.47845705735E+03  0.10502656355E+04  0.90673365376E+03 0.  0.
         23    2    4    4    0    0  0.96041012088E+02 -0.33633151267E+03 -0.24306683939E+03  0.43530944381E+03  0.89833518499E+02 0.  0.
         23    2    4    4    0    0 -0.25405186906E+03  0.50065862419E+03 -0.23539021797E+03  0.61495619168E+03  0.86954889603E+02 0.  0.
          4    1    3    3  502    0  0.14651975224E+03 -0.17331730840E+03 -0.18176339897E+03  0.29076598906E+03  0.00000000000E+00 0. -1.
         -3    1    3    3    0  502  0.11491104729E+02  0.89901968726E+01 -0.15246164565E+02  0.21102479988E+02  0.00000000000E+00 0.  1.
         13    1    5    5    0    0 -0.12331054513E+02 -0.65141560856E+01 -0.86178598368E+01  0.16393798921E+02  0.00000000000E+00 0.  1.
        -13    1    5    5    0    0  0.10837206660E+03 -0.32981735658E+03 -0.23444897955E+03  0.41891564489E+03  0.00000000000E+00 0. -1.
          2    1    6    6  503    0 -0.15846343469E+03  0.36179222031E+03 -0.19988830074E+03  0.44267324697E+03  0.00000000000E+00 0. -1.
         -2    1    6    6    0  503 -0.95588434370E+02  0.13886640388E+03 -0.35501917225E+02  0.17228294471E+03  0.00000000000E+00 0.  1.
<mgrwt>
<rscale>  0 0.11828585E+04</rscale>
<asrwt>0</asrwt>
<pdfrwt beam="1">  1        2 0.15673852E+00 0.11828585E+04</pdfrwt>
<pdfrwt beam="2">  1       -1 0.52820576E-01 0.11828585E+04</pdfrwt>
<totfact> 0.99711415E+01</totfact>
</mgrwt>
</event>
<event>
12    7  0.1741211E-007  0.1397703E+04  0.7818608E-02  0.8955483E-01
          2   -1    0    0  501    0  0.00000000000E+00  0.00000000000E+00  0.25748396402E+04  0.25748396402E+04  0.00000000000E+00 0. -1.
         -1   -1    0    0    0  501 -0.00000000000E+00 -0.00000000000E+00 -0.18967918108E+03  0.18967918108E+03  0.00000000000E+00 0.  1.
         24    2    1    2    0    0 -0.34400018592E+02  0.77561378926E+02  0.14852958647E+04  0.14898028661E+04  0.78801303265E+02 0.  0.
        254    2    1    2    0    0  0.34400018592E+02 -0.77561378926E+02  0.89986459438E+03  0.12747159551E+04  0.89885780259E+03 0.  0.
         23    2    4    4    0    0  0.18167953583E+03 -0.91892975953E+02 -0.11056726764E+03  0.24905801403E+03  0.91394753174E+02 0.  0.
         23    2    4    4    0    0 -0.14727951724E+03  0.14331597026E+02  0.10104318620E+04  0.10256579411E+04  0.95420194410E+02 0.  0.
          4    1    3    3  502    0 -0.24298510348E+02  0.36093820645E+02  0.12440519501E+04  0.12448126108E+04  0.00000000000E+00 0. -1.
         -3    1    3    3    0  502 -0.10101508245E+02  0.41467558281E+02  0.24124391457E+03  0.24499025527E+03  0.00000000000E+00 0.  1.
         13    1    5    5    0    0  0.17161126109E+03 -0.91059032845E+02 -0.12531337769E+03  0.23118307685E+03  0.00000000000E+00 0.  1.
        -13    1    5    5    0    0  0.10068274742E+02 -0.83394310781E+00  0.14746110048E+02  0.17874937173E+02  0.00000000000E+00 0. -1.
          4    1    6    6  503    0 -0.13658172634E+03  0.41586150759E+02  0.74011313392E+03  0.75375820188E+03  0.00000000000E+00 0.  1.
         -4    1    6    6    0  503 -0.10697790903E+02 -0.27254553733E+02  0.27031872811E+03  0.27189973923E+03  0.00000000000E+00 0. -1.
<mgrwt>
<rscale>  0 0.13977031E+04</rscale>
<asrwt>0</asrwt>
<pdfrwt beam="1">  1        2 0.39612915E+00 0.13977031E+04</pdfrwt>
<pdfrwt beam="2">  1       -1 0.29181414E-01 0.13977031E+04</pdfrwt>
<totfact> 0.37553231E+01</totfact>
</mgrwt>
</event>
<event>
12    7  0.1741211E-007  0.1290168E+04  0.7818608E-02  0.9037399E-01
          2   -1    0    0  501    0  0.00000000000E+00  0.00000000000E+00  0.15175195734E+04  0.15175195734E+04  0.00000000000E+00 0. -1.
         -1   -1    0    0    0  501 -0.00000000000E+00 -0.00000000000E+00 -0.27421928403E+03  0.27421928403E+03  0.00000000000E+00 0.  1.
         24    2    1    2    0    0  0.35320950348E+03 -0.10225538855E+03  0.36784482073E+03  0.52625797848E+03  0.80153165494E+02 0.  0.
        254    2    1    2    0    0 -0.35320950348E+03  0.10225538855E+03  0.87545546865E+03  0.12654808790E+04  0.83654435601E+03 0.  0.
         23    2    4    4    0    0  0.19457351751E+03 -0.14371965429E+03  0.46904792620E+03  0.53480678494E+03  0.86591843689E+02 0.  0.
         23    2    4    4    0    0 -0.54778302099E+03  0.24597504285E+03  0.40640754245E+03  0.73067409401E+03  0.90263953566E+02 0.  0.
          4    1    3    3  502    0  0.31454140427E+03 -0.10181882391E+03  0.35594355790E+03  0.48579747253E+03  0.00000000000E+00 0. -1.
         -3    1    3    3    0  502  0.38668099211E+02 -0.43656464492E+00  0.11901262835E+02  0.40460505957E+02  0.00000000000E+00 0.  1.
         13    1    5    5    0    0  0.75048288012E+02 -0.10847473466E+03  0.25626406383E+03  0.28821915967E+03  0.00000000000E+00 0. -1.
        -13    1    5    5    0    0  0.11952522950E+03 -0.35244919635E+02  0.21278386238E+03  0.24658762527E+03  0.00000000000E+00 0.  1.
          4    1    6    6  503    0 -0.47848601863E+03  0.24376331188E+03  0.37207876122E+03  0.65330852344E+03  0.00000000000E+00 0. -1.
         -4    1    6    6    0  503 -0.69297002363E+02  0.22117309676E+01  0.34328781228E+02  0.77365570578E+02  0.00000000000E+00 0.  1.
<mgrwt>
<rscale>  0 0.12901676E+04</rscale>
<asrwt>0</asrwt>
<pdfrwt beam="1">  1        2 0.23346455E+00 0.12901676E+04</pdfrwt>
<pdfrwt beam="2">  1       -1 0.42187583E-01 0.12901676E+04</pdfrwt>
<totfact> 0.76551261E+01</totfact>
</mgrwt>
</event>
<event>
12    7  0.1741211E-007  0.1679363E+04  0.7818608E-02  0.8773223E-01
          2   -1    0    0  501    0  0.00000000000E+00  0.00000000000E+00  0.17709593770E+04  0.17709593770E+04  0.00000000000E+00 0. -1.
         -1   -1    0    0    0  501 -0.00000000000E+00 -0.00000000000E+00 -0.39812601534E+03  0.39812601534E+03  0.00000000000E+00 0.  1.
         24    2    1    2    0    0  0.16779581981E+03 -0.82872961348E+02  0.12259859590E+04  0.12429487644E+04  0.82805159088E+02 0.  0.
        254    2    1    2    0    0 -0.16779581981E+03  0.82872961348E+02  0.14684740273E+03  0.92613662803E+03  0.89506509775E+03 0.  0.
         23    2    4    4    0    0 -0.47681936102E+03  0.23583843932E+03 -0.26937121606E+01  0.53932146716E+03  0.88791420442E+02 0.  0.
         23    2    4    4    0    0  0.30902354121E+03 -0.15296547798E+03  0.14954111489E+03  0.38681516087E+03  0.91484627991E+02 0.  0.
          2    1    3    3  502    0  0.13008820976E+03 -0.68873458232E+02  0.69367021912E+03  0.70911555367E+03  0.00000000000E+00 0. -1.
         -1    1    3    3    0  502  0.37707610049E+02 -0.13999503116E+02  0.53231573985E+03  0.53383321069E+03  0.00000000000E+00 0.  1.
         13    1    5    5    0    0 -0.15360134649E+03  0.99765826447E+02 -0.37327748131E+02  0.18692232224E+03  0.00000000000E+00 0. -1.
        -13    1    5    5    0    0 -0.32321801453E+03  0.13607261288E+03  0.34634035970E+02  0.35239914492E+03  0.00000000000E+00 0.  1.
          4    1    6    6  503    0  0.24651341114E+03 -0.15989590067E+03  0.12170174090E+03  0.31803596441E+03  0.00000000000E+00 0. -1.
         -4    1    6    6    0  503  0.62510130077E+02  0.69304226956E+01  0.27839373991E+02  0.68779196456E+02  0.00000000000E+00 0.  1.
<mgrwt>
<rscale>  0 0.16793630E+04</rscale>
<asrwt>0</asrwt>
<pdfrwt beam="1">  1        2 0.27245528E+00 0.16793630E+04</pdfrwt>
<pdfrwt beam="2">  1       -1 0.61250157E-01 0.16793630E+04</pdfrwt>
<totfact> 0.26283056E+01</totfact>
</mgrwt>
</event>
<event>
12    7  0.1741211E-007  0.1936118E+04  0.7818608E-02  0.8637084E-01
         -1   -1    0    0    0  501 -0.00000000000E+00  0.00000000000E+00  0.44999780002E+03  0.44999780002E+03  0.00000000000E+00 0.  1.
          2   -1    0    0  501    0  0.00000000000E+00 -0.00000000000E+00 -0.20825395532E+04  0.20825395532E+04  0.00000000000E+00 0. -1.
         24    2    1    2    0    0  0.71968587944E+03  0.20822317298E+03 -0.77385340039E+03  0.10801240925E+04  0.80711307121E+02 0.  0.
        254    2    1    2    0    0 -0.71968587944E+03 -0.20822317298E+03 -0.85868835281E+03  0.14524132607E+04  0.90047428496E+03 0.  0.
         23    2    4    4    0    0 -0.15754257923E+03 -0.75019924223E+01 -0.82743489975E+03  0.84722680585E+03  0.90932959189E+02 0.  0.
         23    2    4    4    0    0 -0.56214330021E+03 -0.20072118056E+03 -0.31253453053E+02  0.60518645487E+03  0.94761725095E+02 0.  0.
          2    1    3    3  502    0  0.93391353559E+02  0.57284664962E+01 -0.73276586708E+02  0.11884535501E+03  0.00000000000E+00 0. -1.
         -1    1    3    3    0  502  0.62629452588E+03  0.20249470648E+03 -0.70057681369E+03  0.96127873750E+03  0.00000000000E+00 0.  1.
         13    1    5    5    0    0 -0.76707560113E+02  0.97162439543E+01 -0.60523379166E+03  0.61015276591E+03  0.00000000000E+00 0. -1.
        -13    1    5    5    0    0 -0.80835019116E+02 -0.17218236377E+02 -0.22220110809E+03  0.23707403994E+03  0.00000000000E+00 0.  1.
          2    1    6    6  503    0 -0.31950735038E+03 -0.15071430532E+03 -0.49775388699E+02  0.35675949615E+03  0.00000000000E+00 0. -1.
         -2    1    6    6    0  503 -0.24263594982E+03 -0.50006875237E+02  0.18521935647E+02  0.24842695872E+03  0.00000000000E+00 0.  1.
<mgrwt>
<rscale>  0 0.19361180E+04</rscale>
<asrwt>0</asrwt>
<pdfrwt beam="1">  1        2 0.32039069E+00 0.19361180E+04</pdfrwt>
<pdfrwt beam="2">  1       -1 0.69230433E-01 0.19361180E+04</pdfrwt>
<totfact> 0.13486356E+01</totfact>
</mgrwt>
</event>
<event>
12    7  0.1741211E-007  0.2281734E+04  0.7818608E-02  0.8485158E-01
          2   -1    0    0  501    0  0.00000000000E+00  0.00000000000E+00  0.16368398001E+04  0.16368398001E+04  0.00000000000E+00 0. -1.
         -1   -1    0    0    0  501 -0.00000000000E+00 -0.00000000000E+00 -0.79517733502E+03  0.79517733502E+03  0.00000000000E+00 0.  1.
         24    2    1    2    0    0 -0.62001540953E+03 -0.22871164152E+03  0.10966811371E+04  0.12829185667E+04  0.80264621127E+02 0.  0.
        254    2    1    2    0    0  0.62001540953E+03  0.22871164152E+03 -0.25501867200E+03  0.11490985684E+04  0.90480101337E+03 0.  0.
         23    2    4    4    0    0 -0.18991717630E+03  0.20867757771E+03 -0.13131882035E+03  0.32421266986E+03  0.90853494294E+02 0.  0.
         23    2    4    4    0    0  0.80993258582E+03  0.20034063808E+02 -0.12369985165E+03  0.82488589854E+03  0.93503663142E+02 0.  0.
          2    1    3    3  502    0 -0.56385304921E+03 -0.19468201879E+03  0.94348779781E+03  0.11162439582E+04  0.00000000000E+00 0. -1.
         -1    1    3    3    0  502 -0.56162360322E+02 -0.34029622731E+02  0.15319333927E+03  0.16667460855E+03  0.00000000000E+00 0.  1.
         13    1    5    5    0    0 -0.72227251576E+02  0.69576364340E+02 -0.11680329719E+01  0.10029461923E+03  0.00000000000E+00 0. -1.
        -13    1    5    5    0    0 -0.11768992472E+03  0.13910121337E+03 -0.13015078738E+03  0.22391805063E+03  0.00000000000E+00 0.  1.
          1    1    6    6  503    0  0.38629396177E+03  0.21624191207E+02 -0.10471558310E+03  0.40081914113E+03  0.00000000000E+00 0. -1.
         -1    1    6    6    0  503  0.42363862405E+03 -0.15901273987E+01 -0.18984268549E+02  0.42406675742E+03  0.00000000000E+00 0.  1.
<mgrwt>
<rscale>  0 0.22817343E+04</rscale>
<asrwt>0</asrwt>
<pdfrwt beam="1">  1        2 0.25182151E+00 0.22817343E+04</pdfrwt>
<pdfrwt beam="2">  1       -1 0.12233497E+00 0.22817343E+04</pdfrwt>
<totfact> 0.64925230E+00</totfact>
</mgrwt>
</event>
<event>
12    7  0.1741211E-007  0.1204052E+04  0.7818608E-02  0.9109318E-01
         -1   -1    0    0    0  501 -0.00000000000E+00  0.00000000000E+00  0.16430918207E+03  0.16430918207E+03  0.00000000000E+00 0.  1.
          2   -1    0    0  501    0  0.00000000000E+00 -0.00000000000E+00 -0.22058111023E+04  0.22058111023E+04  0.00000000000E+00 0. -1.
         24    2    1    2    0    0 -0.20775961019E+03  0.34050490300E+02 -0.75242695888E+03  0.78537168437E+03  0.79616974574E+02 0.  0.
        254    2    1    2    0    0  0.20775961019E+03 -0.34050490300E+02 -0.12890749614E+04  0.15847486000E+04  0.89743544488E+03 0.  0.
         23    2    4    4    0    0  0.13115656969E+03 -0.94097544806E+02 -0.13993332677E+04  0.14116463253E+04  0.92495188370E+02 0.  0.
         23    2    4    4    0    0  0.76603040499E+02  0.60047054506E+02  0.11025830632E+03  0.17310227476E+03  0.91289806902E+02 0.  0.
          2    1    3    3  502    0 -0.18281108535E+03  0.52364657719E+01 -0.67081313503E+03  0.69529675364E+03  0.00000000000E+00 0. -1.
         -3    1    3    3    0  502 -0.24948524840E+02  0.28814024528E+02 -0.81613823854E+02  0.90074930726E+02  0.00000000000E+00 0.  1.
         13    1    5    5    0    0  0.24998872174E+02  0.18532095068E+02 -0.25616076103E+03  0.25804402270E+03  0.00000000000E+00 0. -1.
        -13    1    5    5    0    0  0.10615769752E+03 -0.11262963987E+03 -0.11431725066E+04  0.11536023026E+04  0.00000000000E+00 0.  1.
          1    1    6    6  503    0  0.33672345750E+02  0.42475849157E+01 -0.85510237692E+01  0.34999840763E+02  0.00000000000E+00 0. -1.
         -1    1    6    6    0  503  0.42930694749E+02  0.55799469590E+02  0.11880933009E+03  0.13810243399E+03  0.00000000000E+00 0.  1.
<mgrwt>
<rscale>  0 0.12040515E+04</rscale>
<asrwt>0</asrwt>
<pdfrwt beam="1">  1        2 0.33935554E+00 0.12040515E+04</pdfrwt>
<pdfrwt beam="2">  1       -1 0.25278337E-01 0.12040515E+04</pdfrwt>
<totfact> 0.79383310E+01</totfact>
</mgrwt>
</event>
<event>
12    7  0.1741211E-007  0.3487806E+04  0.7818608E-02  0.8116686E-01
          2   -1    0    0  501    0  0.00000000000E+00  0.00000000000E+00  0.37066051533E+04  0.37066051533E+04  0.00000000000E+00 0. -1.
         -1   -1    0    0    0  501 -0.00000000000E+00 -0.00000000000E+00 -0.82048062225E+03  0.82048062225E+03  0.00000000000E+00 0.  1.
         24    2    1    2    0    0  0.11246973000E+04  0.11677301180E+04  0.11981487353E+04  0.20175482231E+04  0.80017470423E+02 0.  0.
        254    2    1    2    0    0 -0.11246973000E+04 -0.11677301180E+04  0.16879757958E+04  0.25095375525E+04  0.90552680535E+03 0.  0.
         23    2    4    4    0    0 -0.10848460186E+04 -0.12700215175E+04  0.16723800910E+04  0.23650698397E+04  0.82792746493E+02 0.  0.
         23    2    4    4    0    0 -0.39851281412E+02  0.10229139955E+03  0.15595704803E+02  0.14446771281E+03  0.92606905708E+02 0.  0.
          4    1    3    3  502    0  0.98542035284E+03  0.99442804628E+03  0.10570536224E+04  0.17542242649E+04  0.00000000000E+00 0. -1.
         -3    1    3    3    0  502  0.13927694714E+03  0.17330207171E+03  0.14109511292E+03  0.26332395819E+03  0.00000000000E+00 0.  1.
         13    1    5    5    0    0 -0.92193904140E+03 -0.10422223055E+04  0.13642435830E+04  0.19486814732E+04  0.00000000000E+00 0.  1.
        -13    1    5    5    0    0 -0.16290697716E+03 -0.22779921202E+03  0.30813650798E+03  0.41638836650E+03  0.00000000000E+00 0. -1.
          3    1    6    6  503    0  0.49306599171E+01  0.56073563914E+01 -0.28270389099E+02  0.29239848713E+02  0.00000000000E+00 0. -1.
         -3    1    6    6    0  503 -0.44781941329E+02  0.96684043159E+02  0.43866093902E+02  0.11522786410E+03  0.00000000000E+00 0.  1.
<mgrwt>
<rscale>  0 0.34878060E+04</rscale>
<asrwt>0</asrwt>
<pdfrwt beam="1">  1        2 0.57024694E+00 0.34878060E+04</pdfrwt>
<pdfrwt beam="2">  1       -1 0.12622779E+00 0.34878060E+04</pdfrwt>
<totfact> 0.29369722E-01</totfact>
</mgrwt>
</event>
<event>
12    7  0.1741211E-007  0.3266347E+04  0.7818608E-02  0.8171512E-01
         -1   -1    0    0    0  501 -0.00000000000E+00  0.00000000000E+00  0.13235349940E+04  0.13235349940E+04  0.00000000000E+00 0.  1.
          2   -1    0    0  501    0  0.00000000000E+00 -0.00000000000E+00 -0.20152513837E+04  0.20152513837E+04  0.00000000000E+00 0. -1.
         24    2    1    2    0    0  0.56174676926E+03 -0.11751212307E+04 -0.10969118873E+04  0.17045055829E+04  0.75194775128E+02 0.  0.
        254    2    1    2    0    0 -0.56174676926E+03  0.11751212307E+04  0.40519549758E+03  0.16342807948E+04  0.90012276126E+03 0.  0.
         23    2    4    4    0    0 -0.49271726304E+02  0.10377457910E+04  0.23518179147E+03  0.10691920892E+04  0.92288778952E+02 0.  0.
         23    2    4    4    0    0 -0.51247504295E+03  0.13737543966E+03  0.17001370612E+03  0.56508870560E+03  0.94434653882E+02 0.  0.
          4    1    3    3  502    0  0.54005048136E+03 -0.10964331525E+04 -0.10422305607E+04  0.16062579874E+04  0.00000000000E+00 0. -1.
         -3    1    3    3    0  502  0.21696287899E+02 -0.78688078209E+02 -0.54681326566E+02  0.98247595573E+02  0.00000000000E+00 0.  1.
         13    1    5    5    0    0 -0.13823227592E+02  0.22841190491E+03  0.13154787665E+02  0.22920760974E+03  0.00000000000E+00 0. -1.
        -13    1    5    5    0    0 -0.35448498712E+02  0.80933388613E+03  0.22202700380E+03  0.83998447945E+03  0.00000000000E+00 0.  1.
          4    1    6    6  503    0 -0.29458124575E+02  0.12626516802E+02 -0.11756856884E+02  0.34138449200E+02  0.00000000000E+00 0. -1.
         -4    1    6    6    0  503 -0.48301691838E+03  0.12474892286E+03  0.18177056300E+03  0.53095025640E+03  0.00000000000E+00 0.  1.
<mgrwt>
<rscale>  0 0.32663470E+04</rscale>
<asrwt>0</asrwt>
<pdfrwt beam="1">  1        2 0.31003867E+00 0.32663470E+04</pdfrwt>
<pdfrwt beam="2">  1       -1 0.20362077E+00 0.32663470E+04</pdfrwt>
<totfact> 0.88696217E-01</totfact>
</mgrwt>
</event>
<event>
12    7  0.1741211E-007  0.1669325E+04  0.7818608E-02  0.8779056E-01
          2   -1    0    0  501    0  0.00000000000E+00  0.00000000000E+00  0.26985417196E+04  0.26985417196E+04  0.00000000000E+00 0. -1.
         -1   -1    0    0    0  501 -0.00000000000E+00 -0.00000000000E+00 -0.25816213274E+03  0.25816213274E+03  0.00000000000E+00 0.  1.
         24    2    1    2    0    0 -0.15244579742E+03 -0.32766538318E+02 -0.13702343411E+03  0.22268438041E+03  0.80619753134E+02 0.  0.
        254    2    1    2    0    0  0.15244579742E+03  0.32766538318E+02  0.25774030210E+04  0.27340194720E+04  0.89863383714E+03 0.  0.
         23    2    4    4    0    0  0.23363702858E+02 -0.10654529592E+00 -0.38626006912E+02  0.11304861555E+03  0.10364432983E+03 0.  0.
         23    2    4    4    0    0  0.12908209456E+03  0.32873083614E+02  0.26160290279E+04  0.26209708564E+04  0.90208250806E+02 0.  0.
          2    1    3    3  502    0 -0.13669267930E+03 -0.54962532403E+02 -0.12373473249E+03  0.19239556275E+03  0.00000000000E+00 0. -1.
         -1    1    3    3    0  502 -0.15753118123E+02  0.22195994085E+02 -0.13288701622E+02  0.30288817653E+02  0.00000000000E+00 0.  1.
         13    1    5    5    0    0 -0.15420259150E+02  0.40024831994E+02  0.36309198561E+01  0.43045965518E+02  0.00000000000E+00 0. -1.
        -13    1    5    5    0    0  0.38783962009E+02 -0.40131377290E+02 -0.42256926769E+02  0.70002650037E+02  0.00000000000E+00 0.  1.
          1    1    6    6  503    0  0.68243124714E+02 -0.62973366758E+01  0.64838884584E+03  0.65200067172E+03  0.00000000000E+00 0. -1.
         -1    1    6    6    0  503  0.60838969850E+02  0.39170420290E+02  0.19676401821E+04  0.19689701847E+04  0.00000000000E+00 0.  1.
<mgrwt>
<rscale>  0 0.16693248E+04</rscale>
<asrwt>0</asrwt>
<pdfrwt beam="1">  1        2 0.41516025E+00 0.16693248E+04</pdfrwt>
<pdfrwt beam="2">  1       -1 0.39717253E-01 0.16693248E+04</pdfrwt>
<totfact> 0.17884810E+01</totfact>
</mgrwt>
</event>
<event>
12    7  0.1741211E-007  0.2564774E+04  0.7818608E-02  0.8380266E-01
          2   -1    0    0  501    0  0.00000000000E+00  0.00000000000E+00  0.24458970321E+04  0.24458970321E+04  0.00000000000E+00 0. -1.
         -1   -1    0    0    0  501 -0.00000000000E+00 -0.00000000000E+00 -0.67235743186E+03  0.67235743186E+03  0.00000000000E+00 0.  1.
         24    2    1    2    0    0  0.55668403130E+02 -0.11106163359E+04  0.98973545402E+03  0.14907780293E+04  0.79216456734E+02 0.  0.
        254    2    1    2    0    0 -0.55668403130E+02  0.11106163359E+04  0.78380414627E+03  0.16274764347E+04  0.89317578860E+03 0.  0.
         23    2    4    4    0    0  0.34776596288E+02  0.18636837218E+02  0.47505364973E+03  0.48590167235E+03  0.94168581380E+02 0.  0.
         23    2    4    4    0    0 -0.90444999418E+02  0.10919794986E+04  0.30875049654E+03  0.11415747624E+04  0.85244035781E+02 0.  0.
          4    1    3    3  502    0  0.48894576558E+02 -0.10716280183E+04  0.93366128813E+03  0.14221465080E+04  0.00000000000E+00 0. -1.
         -3    1    3    3    0  502  0.67738265726E+01 -0.38988317532E+02  0.56074165890E+02  0.68631521261E+02  0.00000000000E+00 0.  1.
         13    1    5    5    0    0  0.26096252117E+02 -0.19064919111E+02  0.40145720546E+03  0.40275597243E+03  0.00000000000E+00 0.  1.
        -13    1    5    5    0    0  0.86803441714E+01  0.37701756330E+02  0.73596444272E+02  0.83145699918E+02  0.00000000000E+00 0. -1.
          2    1    6    6  503    0 -0.40959842916E+02  0.17501784303E+03  0.68635828890E+02  0.19240538225E+03  0.00000000000E+00 0. -1.
         -2    1    6    6    0  503 -0.49485156502E+02  0.91696165562E+03  0.24011466764E+03  0.94916938014E+03  0.00000000000E+00 0.  1.
<mgrwt>
<rscale>  0 0.25647745E+04</rscale>
<asrwt>0</asrwt>
<pdfrwt beam="1">  1        2 0.37629185E+00 0.25647745E+04</pdfrwt>
<pdfrwt beam="2">  1       -1 0.10343961E+00 0.25647745E+04</pdfrwt>
<totfact> 0.33267272E+00</totfact>
</mgrwt>
</event>
<event>
12    7  0.1741211E-007  0.1365614E+04  0.7818608E-02  0.8979092E-01
          2   -1    0    0  501    0  0.00000000000E+00  0.00000000000E+00  0.20037999301E+04  0.20037999301E+04  0.00000000000E+00 0. -1.
         -1   -1    0    0    0  501 -0.00000000000E+00 -0.00000000000E+00 -0.23267066905E+03  0.23267066905E+03  0.00000000000E+00 0.  1.
         24    2    1    2    0    0 -0.27053508221E+03  0.20667698256E+02  0.92728225330E+03  0.96963788341E+03  0.82029648354E+02 0.  0.
        254    2    1    2    0    0  0.27053508221E+03 -0.20667698256E+02  0.84384700778E+03  0.12668327158E+04  0.90508064433E+03 0.  0.
         23    2    4    4    0    0 -0.38163597658E+02  0.26872321144E+03  0.77938323755E+03  0.83058999784E+03  0.93663701529E+02 0.  0.
         23    2    4    4    0    0  0.30869867986E+03 -0.28939090970E+03  0.64463770225E+02  0.43624271792E+03  0.84321751072E+02 0.  0.
          4    1    3    3  502    0 -0.23716443335E+03  0.37240773585E+02  0.71819717339E+03  0.75725888805E+03  0.00000000000E+00 0. -1.
         -3    1    3    3    0  502 -0.33370648856E+02 -0.16573075329E+02  0.20908507991E+03  0.21237899537E+03  0.00000000000E+00 0.  1.
         13    1    5    5    0    0 -0.86592748587E+01  0.23970973700E+01  0.98029673423E+02  0.98440570846E+02  0.00000000000E+00 0. -1.
        -13    1    5    5    0    0 -0.29504322799E+02  0.26632611407E+03  0.68135356413E+03  0.73214942700E+03  0.00000000000E+00 0.  1.
          2    1    6    6  503    0  0.85215776887E+02 -0.13487548948E+03  0.17201453750E+02  0.16046500025E+03  0.00000000000E+00 0.  1.
         -2    1    6    6    0  503  0.22348290298E+03 -0.15451542022E+03  0.47262316476E+02  0.27577771768E+03  0.00000000000E+00 0. -1.
<mgrwt>
<rscale>  0 0.13656141E+04</rscale>
<asrwt>0</asrwt>
<pdfrwt beam="1">  1        2 0.30827690E+00 0.13656141E+04</pdfrwt>
<pdfrwt beam="2">  1       -1 0.35795489E-01 0.13656141E+04</pdfrwt>
<totfact> 0.55110870E+01</totfact>
</mgrwt>
</event>
<event>
12    7  0.1741211E-007  0.1403948E+04  0.7818608E-02  0.8950966E-01
          2   -1    0    0  501    0  0.00000000000E+00  0.00000000000E+00  0.39609332976E+03  0.39609332976E+03  0.00000000000E+00 0. -1.
         -1   -1    0    0    0  501 -0.00000000000E+00 -0.00000000000E+00 -0.12440694778E+04  0.12440694778E+04  0.00000000000E+00 0.  1.
         24    2    1    2    0    0  0.32151009158E+03  0.18385060280E+03 -0.41324566745E+03  0.56047263296E+03  0.78662618176E+02 0.  0.
        254    2    1    2    0    0 -0.32151009158E+03 -0.18385060280E+03 -0.43473048056E+03  0.10796901746E+04  0.91628079713E+03 0.  0.
         23    2    4    4    0    0  0.18614013763E+03 -0.26487571810E+03 -0.44434477704E+03  0.55725414241E+03  0.91008798872E+02 0.  0.
         23    2    4    4    0    0 -0.50765022921E+03  0.81025115298E+02  0.96142964814E+01  0.52243603215E+03  0.92591298042E+02 0.  0.
          4    1    3    3  502    0  0.41518864208E+02  0.17673482536E+02 -0.95044919995E+02  0.10521266505E+03  0.00000000000E+00 0. -1.
         -3    1    3    3    0  502  0.27999122737E+03  0.16617712027E+03 -0.31820074745E+03  0.45525996791E+03  0.00000000000E+00 0.  1.
         13    1    5    5    0    0  0.80510725941E+02 -0.14821058501E+03 -0.16119843464E+03  0.23330942937E+03  0.00000000000E+00 0. -1.
        -13    1    5    5    0    0  0.10562941169E+03 -0.11666513309E+03 -0.28314634241E+03  0.32394471305E+03  0.00000000000E+00 0.  1.
          4    1    6    6  503    0 -0.26598259911E+03 -0.48707631321E+00  0.23465407919E+02  0.26701611495E+03  0.00000000000E+00 0. -1.
         -4    1    6    6    0  503 -0.24166763010E+03  0.81512191611E+02 -0.13851111438E+02  0.25541991721E+03  0.00000000000E+00 0.  1.
<mgrwt>
<rscale>  0 0.14039482E+04</rscale>
<asrwt>0</asrwt>
<pdfrwt beam="1">  1        2 0.60937435E-01 0.14039482E+04</pdfrwt>
<pdfrwt beam="2">  1       -1 0.19139530E+00 0.14039482E+04</pdfrwt>
<totfact> 0.15464567E+01</totfact>
</mgrwt>
</event>
<event>
12    7  0.1741211E-007  0.1144343E+04  0.7818608E-02  0.9163019E-01
         -1   -1    0    0    0  501 -0.00000000000E+00  0.00000000000E+00  0.25072551423E+03  0.25072551423E+03  0.00000000000E+00 0.  1.
          2   -1    0    0  501    0  0.00000000000E+00 -0.00000000000E+00 -0.13057307302E+04  0.13057307302E+04  0.00000000000E+00 0. -1.
         24    2    1    2    0    0 -0.12183033468E+03 -0.16298839731E+03 -0.16152656024E+03  0.27118017782E+03  0.77717508162E+02 0.  0.
        254    2    1    2    0    0  0.12183033468E+03  0.16298839731E+03 -0.89347865569E+03  0.12852760666E+04  0.90123393800E+03 0.  0.
         23    2    4    4    0    0  0.46746781942E+03  0.71393601208E+02 -0.74620007412E+03  0.88821554504E+03  0.92136286824E+02 0.  0.
         23    2    4    4    0    0 -0.34563748474E+03  0.91594796106E+02 -0.14727858157E+03  0.39706052153E+03  0.90062198717E+02 0.  0.
          4    1    3    3  502    0 -0.70827570661E+02 -0.44852362535E+02 -0.93675109999E+02  0.12571119848E+03  0.00000000000E+00 0. -1.
         -3    1    3    3    0  502 -0.51002764022E+02 -0.11813603478E+03 -0.67851450238E+02  0.14546897934E+03  0.00000000000E+00 0.  1.
         13    1    5    5    0    0  0.15104601191E+03  0.66349865177E+02 -0.23998829716E+03  0.29122428659E+03  0.00000000000E+00 0. -1.
        -13    1    5    5    0    0  0.31642180750E+03  0.50437360317E+01 -0.50621177696E+03  0.59699125846E+03  0.00000000000E+00 0.  1.
          3    1    6    6  503    0 -0.43205945001E+01 -0.68413889408E+01 -0.16764825497E+02  0.18615356925E+02  0.00000000000E+00 0. -1.
         -3    1    6    6    0  503 -0.34131689024E+03  0.98436185047E+02 -0.13051375608E+03  0.37844516460E+03  0.00000000000E+00 0.  1.
<mgrwt>
<rscale>  0 0.11443426E+04</rscale>
<asrwt>0</asrwt>
<pdfrwt beam="1">  1        2 0.20088166E+00 0.11443426E+04</pdfrwt>
<pdfrwt beam="2">  1       -1 0.38573155E-01 0.11443426E+04</pdfrwt>
<totfact> 0.12041373E+02</totfact>
</mgrwt>
</event>
<event>
12    7  0.1741211E-007  0.1653162E+04  0.7818608E-02  0.8788538E-01
          2   -1    0    0  501    0  0.00000000000E+00  0.00000000000E+00  0.43275935580E+03  0.43275935580E+03  0.00000000000E+00 0. -1.
         -1   -1    0    0    0  501 -0.00000000000E+00 -0.00000000000E+00 -0.15787902907E+04  0.15787902907E+04  0.00000000000E+00 0.  1.
         24    2    1    2    0    0  0.28827198413E+03 -0.29627205030E+03  0.86462514851E+02  0.42970365383E+03  0.79319600463E+02 0.  0.
        254    2    1    2    0    0 -0.28827198413E+03  0.29627205030E+03 -0.12324934498E+04  0.15818459927E+04  0.90128728841E+03 0.  0.
         23    2    4    4    0    0 -0.36448792378E+03  0.47432397623E+03 -0.12261759672E+04  0.13673070642E+04  0.90478861163E+02 0.  0.
         23    2    4    4    0    0  0.76215939641E+02 -0.17805192593E+03 -0.63174826032E+01  0.21453892851E+03  0.92063475248E+02 0.  0.
          2    1    3    3  502    0  0.28950978324E+03 -0.29072162735E+03  0.93349716895E+02  0.42077208659E+03  0.00000000000E+00 0. -1.
         -1    1    3    3    0  502 -0.12377991088E+01 -0.55504229446E+01 -0.68872020439E+01  0.89315672472E+01  0.00000000000E+00 0.  1.
         13    1    5    5    0    0 -0.93181752359E+02  0.69567872921E+02 -0.20082416396E+03  0.23206221740E+03  0.00000000000E+00 0. -1.
        -13    1    5    5    0    0 -0.27130617142E+03  0.40475610331E+03 -0.10253518032E+04  0.11352448468E+04  0.00000000000E+00 0.  1.
          4    1    6    6  503    0  0.35121784591E+02 -0.25497141163E+02 -0.32723114887E+02  0.54354817710E+02  0.00000000000E+00 0. -1.
         -4    1    6    6    0  503  0.41094155050E+02 -0.15255478477E+03  0.26405632284E+02  0.16018411080E+03  0.00000000000E+00 0.  1.
<mgrwt>
<rscale>  0 0.16531621E+04</rscale>
<asrwt>0</asrwt>
<pdfrwt beam="1">  1        2 0.66578362E-01 0.16531621E+04</pdfrwt>
<pdfrwt beam="2">  1       -1 0.24289082E+00 0.16531621E+04</pdfrwt>
<totfact> 0.61643562E+00</totfact>
</mgrwt>
</event>
<event>
12    7  0.1741211E-007  0.1708175E+04  0.7818608E-02  0.8756715E-01
          2   -1    0    0  501    0  0.00000000000E+00  0.00000000000E+00  0.12872121377E+04  0.12872121377E+04  0.00000000000E+00 0. -1.
         -1   -1    0    0    0  501 -0.00000000000E+00 -0.00000000000E+00 -0.56670214597E+03  0.56670214597E+03  0.00000000000E+00 0.  1.
         24    2    1    2    0    0 -0.57258835607E+03  0.15202677478E+03  0.45216627458E+03  0.74951865600E+03  0.79713926422E+02 0.  0.
        254    2    1    2    0    0  0.57258835607E+03 -0.15202677478E+03  0.26834371717E+03  0.11043956277E+04  0.89258713084E+03 0.  0.
         23    2    4    4    0    0  0.74049200905E+03 -0.21317803355E+03  0.39115026743E+03  0.86898802423E+03  0.91478768517E+02 0.  0.
         23    2    4    4    0    0 -0.16790365298E+03  0.61151258778E+02 -0.12280655027E+03  0.23540760345E+03  0.91674303050E+02 0.  0.
          4    1    3    3  502    0 -0.50662474293E+03  0.14487953454E+03  0.42817628161E+03  0.67896512268E+03  0.00000000000E+00 0. -1.
         -3    1    3    3    0  502 -0.65963613138E+02  0.71472402329E+01  0.23989992970E+02  0.70553533319E+02  0.00000000000E+00 0.  1.
         13    1    5    5    0    0  0.54510587144E+03 -0.11744084120E+03  0.29873832725E+03  0.63259572432E+03  0.00000000000E+00 0.  1.
        -13    1    5    5    0    0  0.19538613761E+03 -0.95737192349E+02  0.92411940187E+02  0.23639229991E+03  0.00000000000E+00 0. -1.
          2    1    6    6  503    0 -0.19380004437E+01  0.27029382768E+01  0.12821602656E+02  0.13245950917E+02  0.00000000000E+00 0. -1.
         -2    1    6    6    0  503 -0.16596565254E+03  0.58448320501E+02 -0.13562815292E+03  0.22216165253E+03  0.00000000000E+00 0.  1.
<mgrwt>
<rscale>  0 0.17081755E+04</rscale>
<asrwt>0</asrwt>
<pdfrwt beam="1">  1        2 0.19803263E+00 0.17081755E+04</pdfrwt>
<pdfrwt beam="2">  1       -1 0.87184946E-01 0.17081755E+04</pdfrwt>
<totfact> 0.23620589E+01</totfact>
</mgrwt>
</event>
<event>
12    7  0.1741211E-007  0.1637664E+04  0.7818608E-02  0.8797738E-01
         -1   -1    0    0    0  501 -0.00000000000E+00  0.00000000000E+00  0.54313889460E+03  0.54313889460E+03  0.00000000000E+00 0.  1.
          2   -1    0    0  501    0  0.00000000000E+00 -0.00000000000E+00 -0.12344648324E+04  0.12344648324E+04  0.00000000000E+00 0. -1.
         24    2    1    2    0    0 -0.54520333162E+02  0.51678157657E+03 -0.47353903879E+03  0.70751893848E+03  0.79423941239E+02 0.  0.
        254    2    1    2    0    0  0.54520333162E+02 -0.51678157657E+03 -0.21778689905E+03  0.10700847886E+04  0.90973328877E+03 0.  0.
         23    2    4    4    0    0  0.87052567660E+02  0.11605808153E+03 -0.37386998271E+03  0.41141802409E+03  0.91860757388E+02 0.  0.
         23    2    4    4    0    0 -0.32532234498E+02 -0.63283965811E+03  0.15608308365E+03  0.65866676447E+03  0.89081976091E+02 0.  0.
          2    1    3    3  502    0 -0.91508220090E+01  0.39710843336E+03 -0.37097747987E+03  0.54351001459E+03  0.00000000000E+00 0. -1.
         -1    1    3    3    0  502 -0.45369511153E+02  0.11967314321E+03 -0.10256155892E+03  0.16400892389E+03  0.00000000000E+00 0.  1.
         13    1    5    5    0    0  0.14327040570E+02  0.90706142566E+02 -0.16550039510E+03  0.18927030715E+03  0.00000000000E+00 0. -1.
        -13    1    5    5    0    0  0.72725527091E+02  0.25351938969E+02 -0.20836958761E+03  0.22214771694E+03  0.00000000000E+00 0.  1.
          4    1    6    6  503    0 -0.21696693504E+02 -0.62741246606E+03  0.15311840520E+03  0.64619068013E+03  0.00000000000E+00 0. -1.
         -4    1    6    6    0  503 -0.10835540994E+02 -0.54271920438E+01  0.29646784511E+01  0.12476084339E+02  0.00000000000E+00 0.  1.
<mgrwt>
<rscale>  0 0.16376640E+04</rscale>
<asrwt>0</asrwt>
<pdfrwt beam="1">  1        2 0.18991767E+00 0.16376640E+04</pdfrwt>
<pdfrwt beam="2">  1       -1 0.83559830E-01 0.16376640E+04</pdfrwt>
<totfact> 0.27984912E+01</totfact>
</mgrwt>
</event>
<event>
12    7  0.1741211E-007  0.1172761E+04  0.7818608E-02  0.9137039E-01
         -3   -1    0    0    0  501 -0.00000000000E+00  0.00000000000E+00  0.21538633305E+03  0.21538633305E+03  0.00000000000E+00 0.  1.
          2   -1    0    0  501    0  0.00000000000E+00 -0.00000000000E+00 -0.15963961804E+04  0.15963961804E+04  0.00000000000E+00 0. -1.
         24    2    1    2    0    0  0.14518546427E+03  0.13118292816E+03 -0.46190010008E+03  0.50802789134E+03  0.80329672278E+02 0.  0.
        254    2    1    2    0    0 -0.14518546427E+03 -0.13118292816E+03 -0.91910974729E+03  0.13037546221E+04  0.90372872449E+03 0.  0.
         23    2    4    4    0    0  0.29632358394E+03  0.63206357483E+02 -0.69669176496E+03  0.76502383999E+03  0.89885206584E+02 0.  0.
         23    2    4    4    0    0 -0.44150904821E+03 -0.19438928565E+03 -0.22241798232E+03  0.53873078213E+03  0.89686468988E+02 0.  0.
          4    1    3    3  502    0  0.78324417794E+02  0.11334541463E+03 -0.25466759204E+03  0.28954702532E+03  0.00000000000E+00 0. -1.
         -3    1    3    3    0  502  0.66861046476E+02  0.17837513534E+02 -0.20723250805E+03  0.21848086602E+03  0.00000000000E+00 0.  1.
         13    1    5    5    0    0  0.29629640875E+03  0.59318394159E+02 -0.69825348155E+03  0.76083385718E+03  0.00000000000E+00 0.  1.
        -13    1    5    5    0    0  0.27175192995E-01  0.38879633235E+01  0.15617165903E+01  0.41899828167E+01  0.00000000000E+00 0. -1.
          1    1    6    6  503    0 -0.28881937775E+03 -0.16994199412E+03 -0.16746894376E+03  0.37462349292E+03  0.00000000000E+00 0. -1.
         -1    1    6    6    0  503 -0.15268967046E+03 -0.24447291531E+02 -0.54949038569E+02  0.16410728920E+03  0.00000000000E+00 0.  1.
<mgrwt>
<rscale>  0 0.11727607E+04</rscale>
<asrwt>0</asrwt>
<pdfrwt beam="1">  1        2 0.24559942E+00 0.11727607E+04</pdfrwt>
<pdfrwt beam="2">  1       -3 0.33136358E-01 0.11727607E+04</pdfrwt>
<totfact> 0.63958804E+01</totfact>
</mgrwt>
</event>
<event>
12    7  0.1741211E-007  0.1199661E+04  0.7818608E-02  0.9113153E-01
          2   -1    0    0  501    0  0.00000000000E+00  0.00000000000E+00  0.18695280630E+04  0.18695280630E+04  0.00000000000E+00 0. -1.
         -1   -1    0    0    0  501 -0.00000000000E+00 -0.00000000000E+00 -0.19245332239E+03  0.19245332239E+03  0.00000000000E+00 0.  1.
         24    2    1    2    0    0 -0.14929738098E+03  0.85258655666E+02  0.65687208603E+03  0.68335332600E+03  0.77020026102E+02 0.  0.
        254    2    1    2    0    0  0.14929738098E+03 -0.85258655666E+02  0.10202026546E+04  0.13786280594E+04  0.91117677943E+03 0.  0.
         23    2    4    4    0    0  0.50126162254E+03 -0.18920461289E+03  0.52699911246E+03  0.75696525333E+03  0.90591006373E+02 0.  0.
         23    2    4    4    0    0 -0.35196424155E+03  0.10394595723E+03  0.49320354209E+03  0.62166280604E+03  0.92365151004E+02 0.  0.
          4    1    3    3  502    0 -0.14748582740E+03  0.86123454098E+02  0.65879507745E+03  0.68057348810E+03  0.00000000000E+00 0. -1.
         -3    1    3    3    0  502 -0.18115535860E+01 -0.86479843219E+00 -0.19229914267E+01  0.27798379000E+01  0.00000000000E+00 0.  1.
         13    1    5    5    0    0  0.11677069077E+03 -0.27184044065E+02  0.73029269850E+02  0.14038390481E+03  0.00000000000E+00 0. -1.
        -13    1    5    5    0    0  0.38449093177E+03 -0.16202056883E+03  0.45396984261E+03  0.61658134851E+03  0.00000000000E+00 0.  1.
          1    1    6    6  503    0 -0.35546463740E+03  0.10883839527E+03  0.48924949490E+03  0.61446397208E+03  0.00000000000E+00 0. -1.
         -1    1    6    6    0  503  0.35003958467E+01 -0.48924380441E+01  0.39540471937E+01  0.71988339548E+01  0.00000000000E+00 0.  1.
<mgrwt>
<rscale>  0 0.11996614E+04</rscale>
<asrwt>0</asrwt>
<pdfrwt beam="1">  1        2 0.28761969E+00 0.11996614E+04</pdfrwt>
<pdfrwt beam="2">  1       -1 0.29608205E-01 0.11996614E+04</pdfrwt>
<totfact> 0.92728302E+01</totfact>
</mgrwt>
</event>
<event>
12    7  0.1741211E-007  0.1315824E+04  0.7818608E-02  0.9017110E-01
          2   -1    0    0  501    0  0.00000000000E+00  0.00000000000E+00  0.11374702687E+04  0.11374702687E+04  0.00000000000E+00 0. -1.
         -1   -1    0    0    0  501 -0.00000000000E+00 -0.00000000000E+00 -0.38053607618E+03  0.38053607618E+03  0.00000000000E+00 0.  1.
         24    2    1    2    0    0 -0.64661215697E+02  0.32202068133E+03  0.53908142963E+02  0.34018228603E+03  0.70281632222E+02 0.  0.
        254    2    1    2    0    0  0.64661215697E+02 -0.32202068133E+03  0.70302604952E+03  0.11778240588E+04  0.88608436121E+03 0.  0.
         23    2    4    4    0    0 -0.56916152542E+02  0.29188042006E+03  0.25756934580E+03  0.40421656007E+03  0.92819348785E+02 0.  0.
         23    2    4    4    0    0  0.12157736824E+03 -0.61390110139E+03  0.44545670372E+03  0.77360749874E+03  0.91549267901E+02 0.  0.
          4    1    3    3  502    0 -0.16706640768E+02  0.11340823540E+02  0.10746951697E+02  0.22874070366E+02  0.00000000000E+00 0. -1.
         -3    1    3    3    0  502 -0.47954574929E+02  0.31067985779E+03  0.43161191266E+02  0.31730821566E+03  0.00000000000E+00 0.  1.
         13    1    5    5    0    0  0.18429021709E+02  0.73160922952E+02  0.34891367196E+02  0.83123745062E+02  0.00000000000E+00 0.  1.
        -13    1    5    5    0    0 -0.75345174251E+02  0.21871949711E+03  0.22267797860E+03  0.32109281501E+03  0.00000000000E+00 0. -1.
          2    1    6    6  503    0  0.33362172381E+02 -0.36894326226E+03  0.28912218097E+03  0.46991893008E+03  0.00000000000E+00 0. -1.
         -2    1    6    6    0  503  0.88215195859E+02 -0.24495783913E+03  0.15633452275E+03  0.30368856866E+03  0.00000000000E+00 0.  1.
<mgrwt>
<rscale>  0 0.13158244E+04</rscale>
<asrwt>0</asrwt>
<pdfrwt beam="1">  1        2 0.17499542E+00 0.13158244E+04</pdfrwt>
<pdfrwt beam="2">  1       -1 0.58544012E-01 0.13158244E+04</pdfrwt>
<totfact> 0.68206221E+01</totfact>
</mgrwt>
</event>
<event>
12    7  0.1741211E-007  0.1466056E+04  0.7818608E-02  0.8907345E-01
         -1   -1    0    0    0  501 -0.00000000000E+00  0.00000000000E+00  0.32404728434E+03  0.32404728434E+03  0.00000000000E+00 0.  1.
          2   -1    0    0  501    0  0.00000000000E+00 -0.00000000000E+00 -0.16581833507E+04  0.16581833507E+04  0.00000000000E+00 0. -1.
         24    2    1    2    0    0 -0.65066927262E+02 -0.16755800050E+03 -0.97776130783E+03  0.99732734727E+03  0.79594434316E+02 0.  0.
        254    2    1    2    0    0  0.65066927262E+02  0.16755800050E+03 -0.35637475857E+03  0.98490328782E+03  0.90040109354E+03 0.  0.
         23    2    4    4    0    0  0.20519747380E+03  0.34862740747E+03 -0.53734888101E+03  0.67920935800E+03  0.94522270235E+02 0.  0.
         23    2    4    4    0    0 -0.14013054654E+03 -0.18106940698E+03  0.18097412244E+03  0.30569392982E+03  0.90963979231E+02 0.  0.
          2    1    3    3  502    0 -0.51732885046E+02 -0.12228531925E+03 -0.86433351942E+03  0.87447265451E+03  0.00000000000E+00 0. -1.
         -1    1    3    3    0  502 -0.13334042215E+02 -0.45272681249E+02 -0.11342778841E+03  0.12285469276E+03  0.00000000000E+00 0.  1.
         13    1    5    5    0    0  0.35910113493E+02  0.67785690121E+02 -0.49155658640E+02  0.91108258751E+02  0.00000000000E+00 0. -1.
        -13    1    5    5    0    0  0.16928736031E+03  0.28084171735E+03 -0.48819322237E+03  0.58810109925E+03  0.00000000000E+00 0.  1.
          3    1    6    6  503    0  0.56330107557E+01 -0.49993147621E+02  0.38823352264E+02  0.63547606566E+02  0.00000000000E+00 0. -1.
         -3    1    6    6    0  503 -0.14576355730E+03 -0.13107625935E+03  0.14215077018E+03  0.24214632325E+03  0.00000000000E+00 0.  1.
<mgrwt>
<rscale>  0 0.14660557E+04</rscale>
<asrwt>0</asrwt>
<pdfrwt beam="1">  1        2 0.25510513E+00 0.14660557E+04</pdfrwt>
<pdfrwt beam="2">  1       -1 0.49853428E-01 0.14660557E+04</pdfrwt>
<totfact> 0.46088934E+01</totfact>
</mgrwt>
</event>
<event>
12    7  0.1741211E-007  0.1198214E+04  0.7818608E-02  0.9114422E-01
         -3   -1    0    0    0  501 -0.00000000000E+00  0.00000000000E+00  0.59631526291E+03  0.59631526291E+03  0.00000000000E+00 0.  1.
          2   -1    0    0  501    0  0.00000000000E+00 -0.00000000000E+00 -0.60191151557E+03  0.60191151557E+03  0.00000000000E+00 0. -1.
         24    2    1    2    0    0 -0.12615697332E+03  0.16966701333E+03  0.10043387304E+03  0.24764269341E+03  0.80854581890E+02 0.  0.
        254    2    1    2    0    0  0.12615697332E+03 -0.16966701333E+03 -0.10603012569E+03  0.95058408507E+03  0.92068737252E+03 0.  0.
         23    2    4    4    0    0 -0.16080060790E+02  0.33524687095E+03  0.12617737265E+03  0.36971296065E+03  0.90099451010E+02 0.  0.
         23    2    4    4    0    0  0.14223703411E+03 -0.50491388427E+03 -0.23220749834E+03  0.58087112442E+03  0.91222456085E+02 0.  0.
          4    1    3    3  502    0 -0.64554797289E+02  0.34088023595E+02  0.56703168806E+02  0.92436813869E+02  0.00000000000E+00 0. -1.
         -3    1    3    3    0  502 -0.61602176036E+02  0.13557898973E+03  0.43730704235E+02  0.15520587954E+03  0.00000000000E+00 0.  1.
         13    1    5    5    0    0  0.11940519708E+02  0.17500871626E+03  0.22597011750E+02  0.17686506641E+03  0.00000000000E+00 0. -1.
        -13    1    5    5    0    0 -0.28020580498E+02  0.16023815469E+03  0.10358036090E+03  0.19284789424E+03  0.00000000000E+00 0.  1.
          3    1    6    6  503    0  0.15151925516E+03 -0.41691546043E+03 -0.20141004357E+03  0.48717819274E+03  0.00000000000E+00 0. -1.
         -3    1    6    6    0  503 -0.92822210478E+01 -0.87998423845E+02 -0.30797454768E+02  0.93692931681E+02  0.00000000000E+00 0.  1.
<mgrwt>
<rscale>  0 0.11982137E+04</rscale>
<asrwt>0</asrwt>
<pdfrwt beam="1">  1        2 0.92601772E-01 0.11982137E+04</pdfrwt>
<pdfrwt beam="2">  1       -3 0.91740810E-01 0.11982137E+04</pdfrwt>
<totfact> 0.32835623E+01</totfact>
</mgrwt>
</event>
<event>
12    7  0.1741211E-007  0.1425630E+04  0.7818608E-02  0.8935473E-01
          2   -1    0    0  501    0  0.00000000000E+00  0.00000000000E+00  0.39097490898E+04  0.39097490898E+04  0.00000000000E+00 0. -1.
         -1   -1    0    0    0  501 -0.00000000000E+00 -0.00000000000E+00 -0.12995845062E+03  0.12995845062E+03  0.00000000000E+00 0.  1.
         24    2    1    2    0    0  0.99548341806E+02 -0.19634920799E+03  0.21869879207E+04  0.21997625902E+04  0.87042542425E+02 0.  0.
        254    2    1    2    0    0 -0.99548341806E+02  0.19634920799E+03  0.15928027185E+04  0.18399449502E+04  0.89437913432E+03 0.  0.
         23    2    4    4    0    0  0.15412539263E+02 -0.47053852075E+02  0.15484988385E+04  0.15518145283E+04  0.88476357822E+02 0.  0.
         23    2    4    4    0    0 -0.11496088107E+03  0.24340306007E+03  0.44303879919E+02  0.28813042188E+03  0.92710584147E+02 0.  0.
          4    1    3    3  502    0  0.10314782267E+03 -0.19729532083E+03  0.19378252872E+04  0.19505721624E+04  0.00000000000E+00 0. -1.
         -3    1    3    3    0  502 -0.35994808643E+01  0.94611284110E+00  0.24916263351E+03  0.24919042784E+03  0.00000000000E+00 0.  1.
         13    1    5    5    0    0  0.69187736263E+00  0.22157590165E+02  0.70649127466E+03  0.70683899063E+03  0.00000000000E+00 0. -1.
        -13    1    5    5    0    0  0.14720661900E+02 -0.69211442239E+02  0.84200756388E+03  0.84497553767E+03  0.00000000000E+00 0.  1.
          1    1    6    6  503    0  0.14391260277E+02  0.19014024376E+02 -0.52810706609E+01  0.24423988263E+02  0.00000000000E+00 0. -1.
         -1    1    6    6    0  503 -0.12935214135E+03  0.22438903569E+03  0.49584950580E+02  0.26370643362E+03  0.00000000000E+00 0.  1.
<mgrwt>
<rscale>  0 0.14256296E+04</rscale>
<asrwt>0</asrwt>
<pdfrwt beam="1">  1        2 0.60149977E+00 0.14256296E+04</pdfrwt>
<pdfrwt beam="2">  1       -1 0.19993611E-01 0.14256296E+04</pdfrwt>
<totfact> 0.93749823E+00</totfact>
</mgrwt>
</event>
<event>
12    7  0.1741211E-007  0.1366336E+04  0.7818608E-02  0.8978553E-01
         -1   -1    0    0    0  501 -0.00000000000E+00  0.00000000000E+00  0.77274316131E+03  0.77274316131E+03  0.00000000000E+00 0.  1.
          2   -1    0    0  501    0  0.00000000000E+00 -0.00000000000E+00 -0.60397628047E+03  0.60397628047E+03  0.00000000000E+00 0. -1.
         24    2    1    2    0    0  0.13210695951E+03 -0.35299956263E+03  0.70941883270E+01  0.38561748282E+03  0.81176200839E+02 0.  0.
        254    2    1    2    0    0 -0.13210695951E+03  0.35299956263E+03  0.16167269252E+03  0.99110195896E+03  0.90226608801E+03 0.  0.
         23    2    4    4    0    0 -0.39249024909E+03  0.27042642963E+03  0.38905138434E+03  0.62391653330E+03  0.10359445638E+03 0.  0.
         23    2    4    4    0    0  0.26038328958E+03  0.82573133002E+02 -0.22737869183E+03  0.36718542566E+03  0.92229537197E+02 0.  0.
          2    1    3    3  502    0  0.12465540643E+03 -0.34493433446E+03  0.21624449993E+02  0.36740479349E+03  0.00000000000E+00 0. -1.
         -1    1    3    3    0  502  0.74515530801E+01 -0.80652281738E+01 -0.14530261666E+02  0.18212689337E+02  0.00000000000E+00 0.  1.
         13    1    5    5    0    0 -0.30080692489E+03  0.15084779471E+03  0.25463078286E+03  0.42199134921E+03  0.00000000000E+00 0. -1.
        -13    1    5    5    0    0 -0.91683324202E+02  0.11957863492E+03  0.13442060149E+03  0.20192518409E+03  0.00000000000E+00 0.  1.
          4    1    6    6  503    0  0.23103467186E+03  0.62733334257E+02 -0.15113938837E+03  0.28311765319E+03  0.00000000000E+00 0. -1.
         -4    1    6    6    0  503  0.29348617717E+02  0.19839798745E+02 -0.76239303458E+02  0.84067772469E+02  0.00000000000E+00 0.  1.
<mgrwt>
<rscale>  0 0.13663360E+04</rscale>
<asrwt>0</asrwt>
<pdfrwt beam="1">  1        2 0.92919427E-01 0.13663360E+04</pdfrwt>
<pdfrwt beam="2">  1       -1 0.11888356E+00 0.13663360E+04</pdfrwt>
<totfact> 0.34759815E+01</totfact>
</mgrwt>
</event>
<event>
12    7  0.1741211E-007  0.1696157E+04  0.7818608E-02  0.8763559E-01
          2   -1    0    0  501    0  0.00000000000E+00  0.00000000000E+00  0.15875466038E+04  0.15875466038E+04  0.00000000000E+00 0. -1.
         -1   -1    0    0    0  501 -0.00000000000E+00 -0.00000000000E+00 -0.45304970164E+03  0.45304970164E+03  0.00000000000E+00 0.  1.
         24    2    1    2    0    0 -0.13684108022E+02  0.42137261076E+03  0.91539688998E+03  0.10110700289E+04  0.81049400277E+02 0.  0.
        254    2    1    2    0    0  0.13684108022E+02 -0.42137261076E+03  0.21910001218E+03  0.10295262765E+04  0.91333313025E+03 0.  0.
         23    2    4    4    0    0  0.23533048000E+03  0.11043325888E+03 -0.17457679892E+03  0.32556259552E+03  0.89095484718E+02 0.  0.
         23    2    4    4    0    0 -0.22164637198E+03 -0.53180586964E+03  0.39367681110E+03  0.70396368101E+03  0.92945335465E+02 0.  0.
          4    1    3    3  502    0 -0.41800510297E+02  0.32207735449E+03  0.65904611516E+03  0.73472640272E+03  0.00000000000E+00 0. -1.
         -3    1    3    3    0  502  0.28116402275E+02  0.99295256270E+02  0.25635077482E+03  0.27634362621E+03  0.00000000000E+00 0.  1.
         13    1    5    5    0    0  0.25672998588E+01  0.55916979034E+01 -0.33158045000E+02  0.33724087271E+02  0.00000000000E+00 0.  1.
        -13    1    5    5    0    0  0.23276318014E+03  0.10484156097E+03 -0.14141875392E+03  0.29183850825E+03  0.00000000000E+00 0. -1.
          4    1    6    6  503    0 -0.21876866070E+03 -0.43660207179E+03  0.32862969648E+03  0.58862430582E+03  0.00000000000E+00 0. -1.
         -4    1    6    6    0  503 -0.28777112728E+01 -0.95203797852E+02  0.65047114629E+02  0.11533937519E+03  0.00000000000E+00 0.  1.
<mgrwt>
<rscale>  0 0.16961574E+04</rscale>
<asrwt>0</asrwt>
<pdfrwt beam="1">  1        2 0.24423794E+00 0.16961574E+04</pdfrwt>
<pdfrwt beam="2">  1       -1 0.69699955E-01 0.16961574E+04</pdfrwt>
<totfact> 0.25580575E+01</totfact>
</mgrwt>
</event>
<event>
12    7  0.1741211E-007  0.1356686E+04  0.7818608E-02  0.8985782E-01
         -1   -1    0    0    0  501 -0.00000000000E+00  0.00000000000E+00  0.38204122955E+03  0.38204122955E+03  0.00000000000E+00 0.  1.
          2   -1    0    0  501    0  0.00000000000E+00 -0.00000000000E+00 -0.12044497540E+04  0.12044497540E+04  0.00000000000E+00 0. -1.
         24    2    1    2    0    0  0.25654439192E+03 -0.68213774310E+02 -0.54130894400E+03  0.60804540722E+03  0.78966450840E+02 0.  0.
        254    2    1    2    0    0 -0.25654439192E+03  0.68213774310E+02 -0.28109958041E+03  0.97844557629E+03  0.89881623685E+03 0.  0.
         23    2    4    4    0    0 -0.60069809837E+02  0.42305058786E+03  0.59577438893E+02  0.44097969218E+03  0.91287653845E+02 0.  0.
         23    2    4    4    0    0 -0.19647458209E+03 -0.35483681355E+03 -0.34067701930E+03  0.53746588412E+03  0.91089623177E+02 0.  0.
          2    1    3    3  502    0  0.18685164417E+03 -0.12262892694E+02 -0.38002636835E+03  0.42365546864E+03  0.00000000000E+00 0. -1.
         -1    1    3    3    0  502  0.69692747757E+02 -0.55950881616E+02 -0.16128257564E+03  0.18438993858E+03  0.00000000000E+00 0.  1.
         13    1    5    5    0    0 -0.46197338189E+02  0.35695311502E+03  0.15365789883E+02  0.36025800182E+03  0.00000000000E+00 0. -1.
        -13    1    5    5    0    0 -0.13872471648E+02  0.66097472841E+02  0.44211649010E+02  0.80721690355E+02  0.00000000000E+00 0.  1.
          2    1    6    6  503    0 -0.20410399194E+03 -0.31735114881E+03 -0.31310077698E+03  0.49030835983E+03  0.00000000000E+00 0. -1.
         -2    1    6    6    0  503  0.76294098538E+01 -0.37485664745E+02 -0.27576242325E+02  0.47157524287E+02  0.00000000000E+00 0.  1.
<mgrwt>
<rscale>  0 0.13566864E+04</rscale>
<asrwt>0</asrwt>
<pdfrwt beam="1">  1        2 0.18529996E+00 0.13566864E+04</pdfrwt>
<pdfrwt beam="2">  1       -1 0.58775575E-01 0.13566864E+04</pdfrwt>
<totfact> 0.61474824E+01</totfact>
</mgrwt>
</event>
<event>
12    7  0.1741211E-007  0.2217983E+04  0.7818608E-02  0.8510980E-01
         -1   -1    0    0    0  501 -0.00000000000E+00  0.00000000000E+00  0.65698760887E+03  0.65698760887E+03  0.00000000000E+00 0.  1.
          2   -1    0    0  501    0  0.00000000000E+00 -0.00000000000E+00 -0.18719712546E+04  0.18719712546E+04  0.00000000000E+00 0. -1.
         24    2    1    2    0    0 -0.54927891867E+03 -0.81556071342E+02  0.33602826419E+03  0.65401518402E+03  0.80387457529E+02 0.  0.
        254    2    1    2    0    0  0.54927891867E+03  0.81556071342E+02 -0.15510119099E+04  0.18749436795E+04  0.89521904202E+03 0.  0.
         23    2    4    4    0    0  0.40074414721E+01 -0.31115113892E+03 -0.80119559569E+03  0.86397397581E+03  0.87781304819E+02 0.  0.
         23    2    4    4    0    0  0.54527147719E+03  0.39270721026E+03 -0.74981631425E+03  0.10109697037E+04  0.91078536449E+02 0.  0.
          2    1    3    3  502    0 -0.18382422130E+03 -0.64733204351E+02  0.10572755064E+03  0.22172065092E+03  0.00000000000E+00 0. -1.
         -1    1    3    3    0  502 -0.36545469737E+03 -0.16822866991E+02  0.23030071355E+03  0.43229453310E+03  0.00000000000E+00 0.  1.
         13    1    5    5    0    0  0.29200312578E+02 -0.75993876702E+02 -0.14261741677E+03  0.16421770646E+03  0.00000000000E+00 0. -1.
        -13    1    5    5    0    0 -0.25192871105E+02 -0.23515726222E+03 -0.65857817892E+03  0.69975626934E+03  0.00000000000E+00 0.  1.
          4    1    6    6  503    0  0.24532104016E+03  0.23048529294E+03 -0.39177838406E+03  0.51652317007E+03  0.00000000000E+00 0. -1.
         -4    1    6    6    0  503  0.29995043703E+03  0.16222191732E+03 -0.35803793020E+03  0.49444653360E+03  0.00000000000E+00 0.  1.
<mgrwt>
<rscale>  0 0.22179828E+04</rscale>
<asrwt>0</asrwt>
<pdfrwt beam="1">  1        2 0.28799558E+00 0.22179828E+04</pdfrwt>
<pdfrwt beam="2">  1       -1 0.10107502E+00 0.22179828E+04</pdfrwt>
<totfact> 0.76045266E+00</totfact>
</mgrwt>
</event>
<event>
12    7  0.1741211E-007  0.1297721E+04  0.7818608E-02  0.9031374E-01
         -1   -1    0    0    0  501 -0.00000000000E+00  0.00000000000E+00  0.35668780553E+03  0.35668780553E+03  0.00000000000E+00 0.  1.
          2   -1    0    0  501    0  0.00000000000E+00 -0.00000000000E+00 -0.11803598983E+04  0.11803598983E+04  0.00000000000E+00 0. -1.
         24    2    1    2    0    0 -0.18774579498E+03 -0.88213283081E+02 -0.52914376156E+03  0.57416896611E+03  0.81527997600E+02 0.  0.
        254    2    1    2    0    0  0.18774579498E+03  0.88213283081E+02 -0.29452833122E+03  0.96287873773E+03  0.89294930362E+03 0.  0.
         23    2    4    4    0    0  0.26880914605E+03  0.55105936859E+00  0.26202120290E+03  0.38654035640E+03  0.92193685765E+02 0.  0.
         23    2    4    4    0    0 -0.81063351063E+02  0.87662223713E+02 -0.55654953412E+03  0.57633838132E+03  0.90347183192E+02 0.  0.
          2    1    3    3  502    0 -0.12218913261E+03 -0.97935853104E+02 -0.36867181897E+03  0.40055027843E+03  0.00000000000E+00 0. -1.
         -1    1    3    3    0  502 -0.65556662374E+02  0.97225700226E+01 -0.16047194259E+03  0.17361868767E+03  0.00000000000E+00 0.  1.
         13    1    5    5    0    0  0.18495876338E+03  0.35689008086E+02  0.14161521153E+03  0.23566569030E+03  0.00000000000E+00 0.  1.
        -13    1    5    5    0    0  0.83850382670E+02 -0.35137948717E+02  0.12040599137E+03  0.15087466610E+03  0.00000000000E+00 0. -1.
          2    1    6    6  503    0 -0.96322354012E+02  0.64163328705E+02 -0.50010365502E+03  0.51332114158E+03  0.00000000000E+00 0. -1.
         -2    1    6    6    0  503  0.15259002948E+02  0.23498895007E+02 -0.56445879098E+02  0.63017239742E+02  0.00000000000E+00 0.  1.
<mgrwt>
<rscale>  0 0.12977211E+04</rscale>
<asrwt>0</asrwt>
<pdfrwt beam="1">  1        2 0.18159383E+00 0.12977211E+04</pdfrwt>
<pdfrwt beam="2">  1       -1 0.54875046E-01 0.12977211E+04</pdfrwt>
<totfact> 0.72992809E+01</totfact>
</mgrwt>
</event>
<event>
12    7  0.1741211E-007  0.2603489E+04  0.7818608E-02  0.8367017E-01
          2   -1    0    0  501    0  0.00000000000E+00  0.00000000000E+00  0.13900935192E+04  0.13900935192E+04  0.00000000000E+00 0. -1.
         -1   -1    0    0    0  501 -0.00000000000E+00 -0.00000000000E+00 -0.12190106160E+04  0.12190106160E+04  0.00000000000E+00 0.  1.
         24    2    1    2    0    0 -0.11106504093E+04  0.27076288294E+03  0.45112595481E+02  0.11468435569E+04  0.79737865824E+02 0.  0.
        254    2    1    2    0    0  0.11106504093E+04 -0.27076288294E+03  0.12597030770E+03  0.14622605783E+04  0.90303965019E+03 0.  0.
         23    2    4    4    0    0  0.20422365060E+02 -0.31141699814E+03 -0.10796111746E+03  0.34257924958E+03  0.91144498643E+02 0.  0.
         23    2    4    4    0    0  0.10902280443E+04  0.40654115202E+02  0.23393142517E+03  0.11196813287E+04  0.93340347872E+02 0.  0.
          2    1    3    3  502    0 -0.42093570133E+03  0.13086089039E+03 -0.10071176042E+02  0.44092274366E+03  0.00000000000E+00 0. -1.
         -1    1    3    3    0  502 -0.68971470802E+03  0.13990199254E+03  0.55183771523E+02  0.70592081327E+03  0.00000000000E+00 0.  1.
         13    1    5    5    0    0  0.31853625155E+02 -0.46880641700E+02 -0.12315330118E+00  0.56678595328E+02  0.00000000000E+00 0. -1.
        -13    1    5    5    0    0 -0.11431260095E+02 -0.26453635644E+03 -0.10783796416E+03  0.28590065425E+03  0.00000000000E+00 0.  1.
          1    1    6    6  503    0  0.17415564580E+01 -0.14838854936E+01 -0.40821060387E+01  0.46795859609E+01  0.00000000000E+00 0. -1.
         -1    1    6    6    0  503  0.10884864878E+04  0.42138000695E+02  0.23801353121E+03  0.11150017427E+04  0.00000000000E+00 0.  1.
<mgrwt>
<rscale>  0 0.26034890E+04</rscale>
<asrwt>0</asrwt>
<pdfrwt beam="1">  1        2 0.21386054E+00 0.26034890E+04</pdfrwt>
<pdfrwt beam="2">  1       -1 0.18754010E+00 0.26034890E+04</pdfrwt>
<totfact> 0.27160618E+00</totfact>
</mgrwt>
</event>
<event>
12    7  0.1741211E-007  0.2176042E+04  0.7818608E-02  0.8528467E-01
          2   -1    0    0  501    0  0.00000000000E+00  0.00000000000E+00  0.12254282087E+04  0.12254282087E+04  0.00000000000E+00 0. -1.
         -1   -1    0    0    0  501 -0.00000000000E+00 -0.00000000000E+00 -0.96602097076E+03  0.96602097076E+03  0.00000000000E+00 0.  1.
         24    2    1    2    0    0 -0.87437118329E+03 -0.15872881799E+03  0.24275857507E+03  0.92469610952E+03  0.80071002013E+02 0.  0.
        254    2    1    2    0    0  0.87437118329E+03  0.15872881799E+03  0.16648662900E+02  0.12667530700E+04  0.90258869840E+03 0.  0.
         23    2    4    4    0    0 -0.96224366464E+01  0.33795687036E+03  0.67951614647E+02  0.35874538091E+03  0.98860451549E+02 0.  0.
         23    2    4    4    0    0  0.88399361994E+03 -0.17922805237E+03 -0.51302951748E+02  0.90800768906E+03  0.90986568703E+02 0.  0.
          2    1    3    3  502    0 -0.20128809593E+03 -0.11655965017E+02  0.31505153913E+02  0.20407188392E+03  0.00000000000E+00 0. -1.
         -1    1    3    3    0  502 -0.67308308737E+03 -0.14707285297E+03  0.21125342115E+03  0.72062422561E+03  0.00000000000E+00 0.  1.
         13    1    5    5    0    0 -0.53150554537E+02  0.16809927996E+03  0.44558730631E+02  0.18184562092E+03  0.00000000000E+00 0. -1.
        -13    1    5    5    0    0  0.43528117890E+02  0.16985759040E+03  0.23392884016E+02  0.17689975999E+03  0.00000000000E+00 0.  1.
          1    1    6    6  503    0  0.72631902135E+03 -0.12514334697E+03 -0.69667385644E+02  0.74030650590E+03  0.00000000000E+00 0. -1.
         -1    1    6    6    0  503  0.15767459859E+03 -0.54084705403E+02  0.18364433896E+02  0.16770118316E+03  0.00000000000E+00 0.  1.
<mgrwt>
<rscale>  0 0.21760417E+04</rscale>
<asrwt>0</asrwt>
<pdfrwt beam="1">  1        2 0.18852742E+00 0.21760417E+04</pdfrwt>
<pdfrwt beam="2">  1       -1 0.14861861E+00 0.21760417E+04</pdfrwt>
<totfact> 0.68310868E+00</totfact>
</mgrwt>
</event>
<event>
12    7  0.1741211E-007  0.4066054E+04  0.7818608E-02  0.7991352E-01
          2   -1    0    0  501    0  0.00000000000E+00  0.00000000000E+00  0.33139293854E+04  0.33139293854E+04  0.00000000000E+00 0. -1.
         -1   -1    0    0    0  501 -0.00000000000E+00 -0.00000000000E+00 -0.12472201229E+04  0.12472201229E+04  0.00000000000E+00 0.  1.
         24    2    1    2    0    0  0.47330332856E+03  0.88964887058E+03  0.28319255974E+04  0.30069154050E+04  0.79034865680E+02 0.  0.
        254    2    1    2    0    0 -0.47330332856E+03 -0.88964887058E+03 -0.76521633489E+03  0.15542341033E+04  0.90254997357E+03 0.  0.
         23    2    4    4    0    0  0.90417954334E+02 -0.44764999130E+03 -0.68402025064E+03  0.82744810968E+03  0.90668350363E+02 0.  0.
         23    2    4    4    0    0 -0.56372128289E+03 -0.44199887928E+03 -0.81196084251E+02  0.72678599357E+03  0.92088991125E+02 0.  0.
          4    1    3    3  502    0  0.29183356814E+03  0.52760791316E+03  0.18039848107E+04  0.19020773219E+04  0.00000000000E+00 0. -1.
         -3    1    3    3    0  502  0.18146976042E+03  0.36204095742E+03  0.10279407868E+04  0.11048380831E+04  0.00000000000E+00 0.  1.
         13    1    5    5    0    0  0.32448680396E+02 -0.15399369319E+03 -0.31643047224E+03  0.35340517563E+03  0.00000000000E+00 0.  1.
        -13    1    5    5    0    0  0.57969273937E+02 -0.29365629811E+03 -0.36758977840E+03  0.47404293405E+03  0.00000000000E+00 0. -1.
          3    1    6    6  503    0 -0.55898193300E+03 -0.44537296008E+03 -0.75580926997E+02  0.71870046022E+03  0.00000000000E+00 0. -1.
         -3    1    6    6    0  503 -0.47393498880E+01  0.33740808004E+01 -0.56151572542E+01  0.80855333527E+01  0.00000000000E+00 0.  1.
<mgrwt>
<rscale>  0 0.40660543E+04</rscale>
<asrwt>0</asrwt>
<pdfrwt beam="1">  1        2 0.50983529E+00 0.40660543E+04</pdfrwt>
<pdfrwt beam="2">  1       -1 0.19188002E+00 0.40660543E+04</pdfrwt>
<totfact> 0.16625041E-01</totfact>
</mgrwt>
</event>
<event>
12    7  0.1741211E-007  0.1869743E+04  0.7818608E-02  0.8670066E-01
         -1   -1    0    0    0  501 -0.00000000000E+00  0.00000000000E+00  0.36829391050E+04  0.36829391050E+04  0.00000000000E+00 0.  1.
          2   -1    0    0  501    0  0.00000000000E+00 -0.00000000000E+00 -0.23730632204E+03  0.23730632204E+03  0.00000000000E+00 0. -1.
         24    2    1    2    0    0  0.20248024997E+03 -0.13892915828E+03 -0.81646221003E+02  0.27082003033E+03  0.79861259557E+02 0.  0.
        254    2    1    2    0    0 -0.20248024997E+03  0.13892915828E+03  0.35272790040E+04  0.36494253967E+04  0.90349819683E+03 0.  0.
         23    2    4    4    0    0 -0.44888745807E+03 -0.93035004194E+02  0.28362541185E+04  0.28744982808E+04  0.90815637245E+02 0.  0.
         23    2    4    4    0    0  0.24640720810E+03  0.23196416247E+03  0.69102488551E+03  0.77492711588E+03  0.92047583701E+02 0.  0.
          2    1    3    3  502    0  0.19621685415E+03 -0.10613329893E+03 -0.81286109692E+02  0.23742948979E+03  0.00000000000E+00 0. -1.
         -1    1    3    3    0  502  0.62633958231E+01 -0.32795859349E+02 -0.36011131150E+00  0.33390540544E+02  0.00000000000E+00 0.  1.
         13    1    5    5    0    0 -0.57950760537E+02 -0.44750663171E+02  0.41405820181E+03  0.42048199365E+03  0.00000000000E+00 0. -1.
        -13    1    5    5    0    0 -0.39093669753E+03 -0.48284341023E+02  0.24221959167E+04  0.24540162872E+04  0.00000000000E+00 0.  1.
          2    1    6    6  503    0  0.24415886467E+03  0.19960855123E+03  0.59252781910E+03  0.67122748851E+03  0.00000000000E+00 0.  1.
         -2    1    6    6    0  503  0.22483434319E+01  0.32355611238E+02  0.98497066407E+02  0.10369962737E+03  0.00000000000E+00 0. -1.
<mgrwt>
<rscale>  0 0.18697430E+04</rscale>
<asrwt>0</asrwt>
<pdfrwt beam="1">  1        2 0.36508668E-01 0.18697430E+04</pdfrwt>
<pdfrwt beam="2">  1       -1 0.56660597E+00 0.18697430E+04</pdfrwt>
<totfact> 0.93088100E-02</totfact>
</mgrwt>
</event>
<event>
12    7  0.1741211E-007  0.1784140E+04  0.7818608E-02  0.8714779E-01
          2   -1    0    0  501    0  0.00000000000E+00  0.00000000000E+00  0.55683003118E+03  0.55683003118E+03  0.00000000000E+00 0. -1.
         -1   -1    0    0    0  501 -0.00000000000E+00 -0.00000000000E+00 -0.14291420821E+04  0.14291420821E+04  0.00000000000E+00 0.  1.
         24    2    1    2    0    0  0.10338273855E+03 -0.14586628369E+03  0.38324762387E+03  0.43043628757E+03  0.80197837295E+02 0.  0.
        254    2    1    2    0    0 -0.10338273855E+03  0.14586628369E+03 -0.12555596747E+04  0.15555358257E+04  0.90072007015E+03 0.  0.
         23    2    4    4    0    0  0.32897682809E+03 -0.83657779163E+02 -0.82761547966E+03  0.89920357968E+03  0.91625968475E+02 0.  0.
         23    2    4    4    0    0 -0.43235956664E+03  0.22952406286E+03 -0.42794419509E+03  0.65633224600E+03  0.89552737154E+02 0.  0.
          4    1    3    3  502    0  0.69276329339E+02 -0.13645550939E+03  0.34952470106E+03  0.38155842607E+03  0.00000000000E+00 0. -1.
         -3    1    3    3    0  502  0.34106409216E+02 -0.94107743053E+01  0.33722922803E+02  0.48877861502E+02  0.00000000000E+00 0.  1.
         13    1    5    5    0    0  0.23298433304E+02 -0.25325146549E+02 -0.14455904330E+03  0.14859844226E+03  0.00000000000E+00 0. -1.
        -13    1    5    5    0    0  0.30567839478E+03 -0.58332632614E+02 -0.68305643635E+03  0.75060513741E+03  0.00000000000E+00 0.  1.
          2    1    6    6  503    0 -0.10347670526E+03  0.36767566521E+02 -0.54149859547E+02  0.12243973933E+03  0.00000000000E+00 0. -1.
         -2    1    6    6    0  503 -0.32888286138E+03  0.19275649633E+03 -0.37379433554E+03  0.53389250667E+03  0.00000000000E+00 0.  1.
<mgrwt>
<rscale>  0 0.17841404E+04</rscale>
<asrwt>0</asrwt>
<pdfrwt beam="1">  1        2 0.85666159E-01 0.17841404E+04</pdfrwt>
<pdfrwt beam="2">  1       -1 0.21986801E+00 0.17841404E+04</pdfrwt>
<totfact> 0.64597909E+00</totfact>
</mgrwt>
</event>
<event>
12    7  0.1741211E-007  0.1216642E+04  0.7818608E-02  0.9098414E-01
         -1   -1    0    0    0  501 -0.00000000000E+00  0.00000000000E+00  0.10404746162E+04  0.10404746162E+04  0.00000000000E+00 0.  1.
          2   -1    0    0  501    0  0.00000000000E+00 -0.00000000000E+00 -0.35565909151E+03  0.35565909151E+03  0.00000000000E+00 0. -1.
         24    2    1    2    0    0 -0.21589275013E+03 -0.56807298182E+02  0.30507225977E+03  0.38699736272E+03  0.82831916490E+02 0.  0.
        254    2    1    2    0    0  0.21589275013E+03  0.56807298182E+02  0.37974326495E+03  0.10091363450E+04  0.90791765423E+03 0.  0.
         23    2    4    4    0    0 -0.29875839235E+03 -0.12198624672E+03 -0.62223799674E+01  0.33527892895E+03  0.90752525032E+02 0.  0.
         23    2    4    4    0    0  0.51465114248E+03  0.17879354490E+03  0.38596564492E+03  0.67385741606E+03  0.91002241592E+02 0.  0.
          4    1    3    3  502    0 -0.21327003708E+03 -0.36336841374E+02  0.26657514492E+03  0.34331732063E+03  0.00000000000E+00 0. -1.
         -3    1    3    3    0  502 -0.26227130543E+01 -0.20470456809E+02  0.38497114844E+02  0.43680042091E+02  0.00000000000E+00 0.  1.
         13    1    5    5    0    0 -0.23328965478E+03 -0.76223236525E+02  0.30592985525E+02  0.24732564682E+03  0.00000000000E+00 0. -1.
        -13    1    5    5    0    0 -0.65468737570E+02 -0.45763010193E+02 -0.36815365493E+02  0.87953282130E+02  0.00000000000E+00 0.  1.
          4    1    6    6  503    0  0.45190610967E+03  0.15122409179E+03  0.29684185048E+03  0.56142937408E+03  0.00000000000E+00 0. -1.
         -4    1    6    6    0  503  0.62745032812E+02  0.27569453112E+02  0.89123794443E+02  0.11242804198E+03  0.00000000000E+00 0.  1.
<mgrwt>
<rscale>  0 0.12166417E+04</rscale>
<asrwt>0</asrwt>
<pdfrwt beam="1">  1        2 0.54716784E-01 0.12166417E+04</pdfrwt>
<pdfrwt beam="2">  1       -1 0.16007302E+00 0.12166417E+04</pdfrwt>
<totfact> 0.29898176E+01</totfact>
</mgrwt>
</event>
<event>
12    7  0.1741211E-007  0.2248770E+04  0.7818608E-02  0.8498399E-01
         -1   -1    0    0    0  501 -0.00000000000E+00  0.00000000000E+00  0.10038575075E+04  0.10038575075E+04  0.00000000000E+00 0.  1.
          2   -1    0    0  501    0  0.00000000000E+00 -0.00000000000E+00 -0.12593839929E+04  0.12593839929E+04  0.00000000000E+00 0. -1.
         24    2    1    2    0    0  0.35622326535E+03  0.60344179978E+03  0.48930515989E+03  0.85836451875E+03  0.79580695168E+02 0.  0.
        254    2    1    2    0    0 -0.35622326535E+03 -0.60344179978E+03 -0.74483164531E+03  0.14048769816E+04  0.96325912042E+03 0.  0.
         23    2    4    4    0    0  0.11556202008E+03 -0.44788805082E+03  0.39325322914E+02  0.47234842620E+03  0.87225387107E+02 0.  0.
         23    2    4    4    0    0 -0.47178528542E+03 -0.15555374896E+03 -0.78415696822E+03  0.93252855540E+03  0.89045109170E+02 0.  0.
          2    1    3    3  502    0  0.10928825197E+03  0.18614573924E+03  0.10715868095E+03  0.24099199397E+03  0.00000000000E+00 0. -1.
         -1    1    3    3    0  502  0.24693501338E+03  0.41729606054E+03  0.38214647894E+03  0.61737252477E+03  0.00000000000E+00 0.  1.
         13    1    5    5    0    0 -0.14368751758E+02 -0.35437483541E+02  0.48114796588E+01  0.38541232509E+02  0.00000000000E+00 0. -1.
        -13    1    5    5    0    0  0.12993077183E+03 -0.41245056728E+03  0.34513843255E+02  0.43380719369E+03  0.00000000000E+00 0.  1.
          3    1    6    6  503    0 -0.63471861057E+02 -0.50230725452E+02 -0.97378496822E+02  0.12662691092E+03  0.00000000000E+00 0. -1.
         -3    1    6    6    0  503 -0.40831342436E+03 -0.10532302351E+03 -0.68677847140E+03  0.80590164448E+03  0.00000000000E+00 0.  1.
<mgrwt>
<rscale>  0 0.22487704E+04</rscale>
<asrwt>0</asrwt>
<pdfrwt beam="1">  1        2 0.19375138E+00 0.22487704E+04</pdfrwt>
<pdfrwt beam="2">  1       -1 0.15443962E+00 0.22487704E+04</pdfrwt>
<totfact> 0.58410479E+00</totfact>
</mgrwt>
</event>
<event>
12    7  0.1741211E-007  0.1843524E+04  0.7818608E-02  0.8683490E-01
          2   -1    0    0  501    0  0.00000000000E+00  0.00000000000E+00  0.60585413572E+03  0.60585413572E+03  0.00000000000E+00 0. -1.
         -1   -1    0    0    0  501 -0.00000000000E+00 -0.00000000000E+00 -0.14023924647E+04  0.14023924647E+04  0.00000000000E+00 0.  1.
         24    2    1    2    0    0  0.24881291020E+03  0.15518153906E+03 -0.99357667106E+03  0.10389811668E+04  0.79360502558E+02 0.  0.
        254    2    1    2    0    0 -0.24881291020E+03 -0.15518153906E+03  0.19703834208E+03  0.96926543361E+03  0.90258639376E+03 0.  0.
         23    2    4    4    0    0  0.82872422520E+02  0.16031304698E+03  0.40909761129E+03  0.45643041244E+03  0.91650173996E+02 0.  0.
         23    2    4    4    0    0 -0.33168533272E+03 -0.31549458604E+03 -0.21205926921E+03  0.51283502117E+03  0.92079484773E+02 0.  0.
          4    1    3    3  502    0  0.72117777537E+02  0.90186338790E+02 -0.36927839145E+03  0.38691223803E+03  0.00000000000E+00 0. -1.
         -3    1    3    3    0  502  0.17669513266E+03  0.64995200269E+02 -0.62429827961E+03  0.65206892878E+03  0.00000000000E+00 0.  1.
         13    1    5    5    0    0  0.69024996038E+02  0.69904929877E+02  0.29049773284E+03  0.30665955404E+03  0.00000000000E+00 0.  1.
        -13    1    5    5    0    0  0.13847426482E+02  0.90408117101E+02  0.11859987845E+03  0.14977085840E+03  0.00000000000E+00 0. -1.
          3    1    6    6  503    0 -0.22021158345E+03 -0.21112571244E+03 -0.92169366721E+02  0.31868856286E+03  0.00000000000E+00 0. -1.
         -3    1    6    6    0  503 -0.11147374927E+03 -0.10436887360E+03 -0.11988990249E+03  0.19414645831E+03  0.00000000000E+00 0.  1.
<mgrwt>
<rscale>  0 0.18435241E+04</rscale>
<asrwt>0</asrwt>
<pdfrwt beam="1">  1        2 0.93208329E-01 0.18435241E+04</pdfrwt>
<pdfrwt beam="2">  1       -1 0.21575269E+00 0.18435241E+04</pdfrwt>
<totfact> 0.61891964E+00</totfact>
</mgrwt>
</event>
<event>
12    7  0.1741211E-007  0.1674018E+04  0.7818608E-02  0.8776323E-01
          2   -1    0    0  501    0  0.00000000000E+00  0.00000000000E+00  0.72301230784E+03  0.72301230784E+03  0.00000000000E+00 0. -1.
         -1   -1    0    0    0  501 -0.00000000000E+00 -0.00000000000E+00 -0.96897924988E+03  0.96897924988E+03  0.00000000000E+00 0.  1.
         24    2    1    2    0    0 -0.26243477192E+03  0.14772280550E+03  0.38888397957E+03  0.49833135665E+03  0.80058445384E+02 0.  0.
        254    2    1    2    0    0  0.26243477192E+03 -0.14772280550E+03 -0.63485092162E+03  0.11936602011E+04  0.96493261223E+03 0.  0.
         23    2    4    4    0    0  0.58958946718E+03 -0.71330012955E+02 -0.59074251291E+03  0.84246102595E+03  0.89778355500E+02 0.  0.
         23    2    4    4    0    0 -0.32715469527E+03 -0.76392792548E+02 -0.44108408709E+02  0.35119917512E+03  0.92353968497E+02 0.  0.
          2    1    3    3  502    0 -0.20772999649E+03  0.10716250718E+03  0.24212396507E+03  0.33654059019E+03  0.00000000000E+00 0. -1.
         -1    1    3    3    0  502 -0.54704775430E+02  0.40560298321E+02  0.14676001450E+03  0.16179076646E+03  0.00000000000E+00 0.  1.
         13    1    5    5    0    0  0.25448207833E+03 -0.49034480563E+02 -0.31505573091E+03  0.40795296549E+03  0.00000000000E+00 0. -1.
        -13    1    5    5    0    0  0.33510738886E+03 -0.22295532393E+02 -0.27568678201E+03  0.43450806046E+03  0.00000000000E+00 0.  1.
          4    1    6    6  503    0 -0.97685503761E+02  0.19426747179E+02 -0.79909258669E+01  0.99918522042E+02  0.00000000000E+00 0. -1.
         -4    1    6    6    0  503 -0.22946919151E+03 -0.95819539726E+02 -0.36117482842E+02  0.25128065308E+03  0.00000000000E+00 0.  1.
<mgrwt>
<rscale>  0 0.16740178E+04</rscale>
<asrwt>0</asrwt>
<pdfrwt beam="1">  1        2 0.11123266E+00 0.16740178E+04</pdfrwt>
<pdfrwt beam="2">  1       -1 0.14907373E+00 0.16740178E+04</pdfrwt>
<totfact> 0.15188344E+01</totfact>
</mgrwt>
</event>
<event>
12    7  0.1741211E-007  0.1239170E+04  0.7818608E-02  0.9079245E-01
         -1   -1    0    0    0  501 -0.00000000000E+00  0.00000000000E+00  0.86699570571E+03  0.86699570571E+03  0.00000000000E+00 0.  1.
          2   -1    0    0  501    0  0.00000000000E+00 -0.00000000000E+00 -0.44277712860E+03  0.44277712860E+03  0.00000000000E+00 0. -1.
         24    2    1    2    0    0  0.11330084354E+03 -0.27716097690E+03  0.14581698646E+03  0.34261391253E+03  0.80413999120E+02 0.  0.
        254    2    1    2    0    0 -0.11330084354E+03  0.27716097690E+03  0.27840159065E+03  0.96715892178E+03  0.87648938729E+03 0.  0.
         23    2    4    4    0    0  0.12626061236E+03  0.42194166064E+03 -0.12628595947E+03  0.46682440670E+03  0.89444820497E+02 0.  0.
         23    2    4    4    0    0 -0.23956145590E+03 -0.14478068374E+03  0.40468755013E+03  0.50033451508E+03  0.90617196048E+02 0.  0.
          4    1    3    3  502    0  0.41152452896E+01 -0.52294192360E+02  0.56667941451E+02  0.77219643787E+02  0.00000000000E+00 0. -1.
         -3    1    3    3    0  502  0.10918559825E+03 -0.22486678454E+03  0.89149045011E+02  0.26539426874E+03  0.00000000000E+00 0.  1.
         13    1    5    5    0    0  0.79021263872E+02  0.34188001083E+03 -0.68945489797E+02  0.35760282788E+03  0.00000000000E+00 0. -1.
        -13    1    5    5    0    0  0.47239348490E+02  0.80061649811E+02 -0.57340469676E+02  0.10922157881E+03  0.00000000000E+00 0.  1.
          2    1    6    6  503    0 -0.19326945824E+03 -0.12823637443E+03  0.38031978859E+03  0.44546693795E+03  0.00000000000E+00 0. -1.
         -2    1    6    6    0  503 -0.46291997660E+02 -0.16544309302E+02  0.24367761534E+02  0.54867577127E+02  0.00000000000E+00 0.  1.
<mgrwt>
<rscale>  0 0.12391705E+04</rscale>
<asrwt>0</asrwt>
<pdfrwt beam="1">  1        2 0.68119558E-01 0.12391705E+04</pdfrwt>
<pdfrwt beam="2">  1       -1 0.13338395E+00 0.12391705E+04</pdfrwt>
<totfact> 0.37908528E+01</totfact>
</mgrwt>
</event>
<event>
12    7  0.1741211E-007  0.1309861E+04  0.7818608E-02  0.9021782E-01
          2   -1    0    0  501    0  0.00000000000E+00  0.00000000000E+00  0.34464229427E+03  0.34464229427E+03  0.00000000000E+00 0. -1.
         -1   -1    0    0    0  501 -0.00000000000E+00 -0.00000000000E+00 -0.12445767983E+04  0.12445767983E+04  0.00000000000E+00 0.  1.
         24    2    1    2    0    0 -0.30205550724E+01 -0.24476867279E+03 -0.51788616278E+03  0.57829844624E+03  0.79386323682E+02 0.  0.
        254    2    1    2    0    0  0.30205550724E+01  0.24476867279E+03 -0.38204834124E+03  0.10109206463E+04  0.90337079385E+03 0.  0.
         23    2    4    4    0    0  0.37900651808E+03 -0.11453497248E+03 -0.13749986247E+03  0.42908575874E+03  0.91892195025E+02 0.  0.
         23    2    4    4    0    0 -0.37598596300E+03  0.35930364527E+03 -0.24454847878E+03  0.58183488759E+03  0.90902827582E+02 0.  0.
          4    1    3    3  502    0 -0.18874039256E+02 -0.42737876784E+02 -0.16368675100E+03  0.17022369965E+03  0.00000000000E+00 0. -1.
         -3    1    3    3    0  502  0.15853484184E+02 -0.20203079601E+03 -0.35419941178E+03  0.40807474659E+03  0.00000000000E+00 0.  1.
         13    1    5    5    0    0  0.48574712498E+02 -0.14515768510E+02  0.13204294544E+02  0.52388582955E+02  0.00000000000E+00 0.  1.
        -13    1    5    5    0    0  0.33043180558E+03 -0.10001920397E+03 -0.15070415701E+03  0.37669717578E+03  0.00000000000E+00 0. -1.
          1    1    6    6  503    0 -0.24241239225E+03  0.23215025863E+03 -0.20476603091E+03  0.39317507285E+03  0.00000000000E+00 0. -1.
         -1    1    6    6    0  503 -0.13357357075E+03  0.12715338664E+03 -0.39782447869E+02  0.18865981474E+03  0.00000000000E+00 0.  1.
<mgrwt>
<rscale>  0 0.13098608E+04</rscale>
<asrwt>0</asrwt>
<pdfrwt beam="1">  1        2 0.53021891E-01 0.13098608E+04</pdfrwt>
<pdfrwt beam="2">  1       -1 0.19147335E+00 0.13098608E+04</pdfrwt>
<totfact> 0.18193594E+01</totfact>
</mgrwt>
</event>
<event>
12    7  0.1741211E-007  0.1453102E+04  0.7818608E-02  0.8916253E-01
         -1   -1    0    0    0  501 -0.00000000000E+00  0.00000000000E+00  0.73168853231E+03  0.73168853231E+03  0.00000000000E+00 0.  1.
          2   -1    0    0  501    0  0.00000000000E+00 -0.00000000000E+00 -0.72144990922E+03  0.72144990922E+03  0.00000000000E+00 0. -1.
         24    2    1    2    0    0  0.11210958510E+03 -0.24977007302E+03  0.34870873632E+03  0.45046234843E+03  0.79780299074E+02 0.  0.
        254    2    1    2    0    0 -0.11210958510E+03  0.24977007302E+03 -0.33847011323E+03  0.10026760931E+04  0.90324065546E+03 0.  0.
         23    2    4    4    0    0 -0.35650469631E+03 -0.82083722265E+02  0.10146810971E+03  0.39103598312E+03  0.93701797490E+02 0.  0.
         23    2    4    4    0    0  0.24439511121E+03  0.33185379528E+03 -0.43993822294E+03  0.61164010998E+03  0.10345082071E+03 0.  0.
          4    1    3    3  502    0  0.57047065214E+02 -0.44102958596E+02  0.94586820581E+02  0.11893740049E+03  0.00000000000E+00 0. -1.
         -3    1    3    3    0  502  0.55062519881E+02 -0.20566711442E+03  0.25412191574E+03  0.33152494795E+03  0.00000000000E+00 0.  1.
         13    1    5    5    0    0 -0.30353765334E+03 -0.54380130792E+02  0.11609107690E+03  0.32949877657E+03  0.00000000000E+00 0. -1.
        -13    1    5    5    0    0 -0.52967042962E+02 -0.27703591473E+02 -0.14622967185E+02  0.61537206549E+02  0.00000000000E+00 0.  1.
          3    1    6    6  503    0  0.13268137978E+03  0.11911934805E+03 -0.24039283585E+03  0.29930332966E+03  0.00000000000E+00 0. -1.
         -3    1    6    6    0  503  0.11171373143E+03  0.21273444723E+03 -0.19954538709E+03  0.31233678032E+03  0.00000000000E+00 0.  1.
<mgrwt>
<rscale>  0 0.14531024E+04</rscale>
<asrwt>0</asrwt>
<pdfrwt beam="1">  1        2 0.11099229E+00 0.14531024E+04</pdfrwt>
<pdfrwt beam="2">  1       -1 0.11256747E+00 0.14531024E+04</pdfrwt>
<totfact> 0.31552002E+01</totfact>
</mgrwt>
</event>
<event>
12    7  0.1741211E-007  0.1873426E+04  0.7818608E-02  0.8668198E-01
          2   -1    0    0  501    0  0.00000000000E+00  0.00000000000E+00  0.14326502182E+04  0.14326502182E+04  0.00000000000E+00 0. -1.
         -1   -1    0    0    0  501 -0.00000000000E+00 -0.00000000000E+00 -0.61245325095E+03  0.61245325095E+03  0.00000000000E+00 0.  1.
         24    2    1    2    0    0  0.81432399607E+02 -0.21344373080E+03 -0.42245095415E+03  0.48685016306E+03  0.79804828738E+02 0.  0.
        254    2    1    2    0    0 -0.81432399607E+02  0.21344373080E+03  0.12426479214E+04  0.15582533061E+04  0.91202524497E+03 0.  0.
         23    2    4    4    0    0 -0.30131114426E+03  0.30300518386E+03  0.12279305106E+04  0.13037352035E+04  0.96496605669E+02 0.  0.
         23    2    4    4    0    0  0.21987874466E+03 -0.89561453068E+02  0.14717410849E+02  0.25451810262E+03  0.90525941877E+02 0.  0.
          2    1    3    3  502    0  0.51259206196E+01 -0.10712026699E+03 -0.14775635186E+03  0.18257318033E+03  0.00000000000E+00 0. -1.
         -1    1    3    3    0  502  0.76306478988E+02 -0.10632346381E+03 -0.27469460229E+03  0.30427698273E+03  0.00000000000E+00 0.  1.
         13    1    5    5    0    0 -0.24965477928E+03  0.19457885822E+03  0.93570143690E+03  0.98778824649E+03  0.00000000000E+00 0.  1.
        -13    1    5    5    0    0 -0.51656364982E+02  0.10842632564E+03  0.29222907367E+03  0.31594695699E+03  0.00000000000E+00 0. -1.
          4    1    6    6  503    0 -0.46261830654E+01 -0.17769890813E+02  0.12587148088E+00  0.18362636872E+02  0.00000000000E+00 0. -1.
         -4    1    6    6    0  503  0.22450492772E+03 -0.71791562255E+02  0.14591539368E+02  0.23615546575E+03  0.00000000000E+00 0.  1.
<mgrwt>
<rscale>  0 0.18734260E+04</rscale>
<asrwt>0</asrwt>
<pdfrwt beam="1">  1        2 0.22040773E+00 0.18734260E+04</pdfrwt>
<pdfrwt beam="2">  1       -1 0.94223577E-01 0.18734260E+04</pdfrwt>
<totfact> 0.16171282E+01</totfact>
</mgrwt>
</event>
<event>
12    7  0.1741211E-007  0.1768823E+04  0.7818608E-02  0.8723057E-01
          2   -1    0    0  501    0  0.00000000000E+00  0.00000000000E+00  0.62165818732E+03  0.62165818732E+03  0.00000000000E+00 0. -1.
         -1   -1    0    0    0  501 -0.00000000000E+00 -0.00000000000E+00 -0.12582219565E+04  0.12582219565E+04  0.00000000000E+00 0.  1.
         24    2    1    2    0    0  0.45408106329E+03 -0.43556011828E+03 -0.57455662714E+02  0.63685190434E+03  0.79855909033E+02 0.  0.
        254    2    1    2    0    0 -0.45408106329E+03  0.43556011828E+03 -0.57910810649E+03  0.12430282395E+04  0.90213678372E+03 0.  0.
         23    2    4    4    0    0  0.10381871497E+03 -0.79670696641E+02 -0.43909899800E+03  0.46549023334E+03  0.82143056935E+02 0.  0.
         23    2    4    4    0    0 -0.55789977826E+03  0.51523081492E+03 -0.14000910848E+03  0.77753800617E+03  0.90817648971E+02 0.  0.
          4    1    3    3  502    0  0.44199425932E+03 -0.40363947767E+03 -0.64392694090E+02  0.60202173736E+03  0.00000000000E+00 0. -1.
         -1    1    3    3    0  502  0.12086803967E+02 -0.31920640610E+02  0.69370313763E+01  0.34830166974E+02  0.00000000000E+00 0.  1.
         13    1    5    5    0    0  0.17454890391E+02 -0.11724523597E+02 -0.21369162727E+03  0.21472365780E+03  0.00000000000E+00 0.  1.
        -13    1    5    5    0    0  0.86363824578E+02 -0.67946173044E+02 -0.22540737074E+03  0.25076657554E+03  0.00000000000E+00 0. -1.
          2    1    6    6  503    0 -0.50827007375E+03  0.44604493745E+03 -0.14726085310E+03  0.69208403605E+03  0.00000000000E+00 0. -1.
         -2    1    6    6    0  503 -0.49629704510E+02  0.69185877464E+02  0.72517446182E+01  0.85453970125E+02  0.00000000000E+00 0.  1.
<mgrwt>
<rscale>  0 0.17688233E+04</rscale>
<asrwt>0</asrwt>
<pdfrwt beam="1">  1        2 0.95639723E-01 0.17688233E+04</pdfrwt>
<pdfrwt beam="2">  1       -1 0.19357261E+00 0.17688233E+04</pdfrwt>
<totfact> 0.85634569E+00</totfact>
</mgrwt>
</event>
<event>
12    7  0.1741211E-007  0.1201508E+04  0.7818608E-02  0.9111537E-01
         -1   -1    0    0    0  501 -0.00000000000E+00  0.00000000000E+00  0.66438071927E+03  0.66438071927E+03  0.00000000000E+00 0.  1.
          2   -1    0    0  501    0  0.00000000000E+00 -0.00000000000E+00 -0.54322097457E+03  0.54322097457E+03  0.00000000000E+00 0. -1.
         24    2    1    2    0    0  0.26128688837E+02 -0.10191672332E+03  0.26632524210E+03  0.29710389377E+03  0.79195089739E+02 0.  0.
        254    2    1    2    0    0 -0.26128688837E+02  0.10191672332E+03 -0.14516549740E+03  0.91049780008E+03  0.89267210970E+03 0.  0.
         23    2    4    4    0    0 -0.22860204984E+03  0.19996224545E+03  0.27823517909E+03  0.42244234910E+03  0.93802593951E+02 0.  0.
         23    2    4    4    0    0  0.20247336100E+03 -0.98045522127E+02 -0.42340067649E+03  0.48805545098E+03  0.91222826409E+02 0.  0.
          4    1    3    3  502    0  0.14203890608E+02 -0.22957531478E+02  0.16931927959E+03  0.17145791671E+03  0.00000000000E+00 0. -1.
         -3    1    3    3    0  502  0.11924798229E+02 -0.78959191842E+02  0.97005962509E+02  0.12564597706E+03  0.00000000000E+00 0.  1.
         13    1    5    5    0    0 -0.21598033083E+03  0.14192584630E+03  0.22358479294E+03  0.34173177902E+03  0.00000000000E+00 0.  1.
        -13    1    5    5    0    0 -0.12621719007E+02  0.58036399147E+02  0.54650386147E+02  0.80710570080E+02  0.00000000000E+00 0. -1.
          2    1    6    6  503    0  0.12789881023E+03 -0.17051872902E+02 -0.18606413870E+03  0.22642600499E+03  0.00000000000E+00 0. -1.
         -2    1    6    6    0  503  0.74574550768E+02 -0.80993649224E+02 -0.23733653780E+03  0.26162944599E+03  0.00000000000E+00 0.  1.
<mgrwt>
<rscale>  0 0.12015083E+04</rscale>
<asrwt>0</asrwt>
<pdfrwt beam="1">  1        2 0.83572458E-01 0.12015083E+04</pdfrwt>
<pdfrwt beam="2">  1       -1 0.10221242E+00 0.12015083E+04</pdfrwt>
<totfact> 0.57141700E+01</totfact>
</mgrwt>
</event>
<event>
12    7  0.1741211E-007  0.2561384E+04  0.7818608E-02  0.8381438E-01
         -1   -1    0    0    0  501 -0.00000000000E+00  0.00000000000E+00  0.11979835886E+04  0.11979835886E+04  0.00000000000E+00 0.  1.
          2   -1    0    0  501    0  0.00000000000E+00 -0.00000000000E+00 -0.13691109989E+04  0.13691109989E+04  0.00000000000E+00 0. -1.
         24    2    1    2    0    0 -0.79534754294E+03 -0.42611058224E+03 -0.73076444488E+03  0.11642033781E+04  0.84881619382E+02 0.  0.
        254    2    1    2    0    0  0.79534754294E+03  0.42611058224E+03  0.55963703452E+03  0.14028912094E+04  0.91693085494E+03 0.  0.
         23    2    4    4    0    0 -0.13155410085E+03  0.23254022947E+03 -0.29194567262E+02  0.28422275292E+03  0.92459779083E+02 0.  0.
         23    2    4    4    0    0  0.92690164379E+03  0.19357035277E+03  0.58883160178E+03  0.11186684565E+04  0.89890609092E+02 0.  0.
          4    1    3    3  502    0 -0.64511944421E+03 -0.31145023066E+03 -0.55630107009E+03  0.90700122606E+03  0.00000000000E+00 0. -1.
         -3    1    3    3    0  502 -0.15022809873E+03 -0.11466035158E+03 -0.17446337478E+03  0.25720215204E+03  0.00000000000E+00 0.  1.
         13    1    5    5    0    0 -0.12094354167E+03  0.21035296735E+03  0.42846559229E+01  0.24268100342E+03  0.00000000000E+00 0. -1.
        -13    1    5    5    0    0 -0.10610559180E+02  0.22187262118E+02 -0.33479223185E+02  0.41541749499E+02  0.00000000000E+00 0.  1.
          1    1    6    6  503    0  0.68129703927E+03  0.17921227315E+03  0.41799712044E+03  0.81914851356E+03  0.00000000000E+00 0. -1.
         -1    1    6    6    0  503  0.24560460452E+03  0.14358079620E+02  0.17083448134E+03  0.29951994295E+03  0.00000000000E+00 0.  1.
<mgrwt>
<rscale>  0 0.25613844E+04</rscale>
<asrwt>0</asrwt>
<pdfrwt beam="1">  1        2 0.21063246E+00 0.25613844E+04</pdfrwt>
<pdfrwt beam="2">  1       -1 0.18430517E+00 0.25613844E+04</pdfrwt>
<totfact> 0.29544777E+00</totfact>
</mgrwt>
</event>
<event>
12    7  0.1741211E-007  0.1896864E+04  0.7818608E-02  0.8656419E-01
         -1   -1    0    0    0  501 -0.00000000000E+00  0.00000000000E+00  0.96478282597E+03  0.96478282597E+03  0.00000000000E+00 0.  1.
          2   -1    0    0  501    0  0.00000000000E+00 -0.00000000000E+00 -0.93235835832E+03  0.93235835832E+03  0.00000000000E+00 0. -1.
         24    2    1    2    0    0 -0.72491723854E+03  0.41449766263E+02  0.10697518543E+03  0.73858257656E+03  0.82688852011E+02 0.  0.
        254    2    1    2    0    0  0.72491723854E+03 -0.41449766263E+02 -0.74550717781E+02  0.11585586077E+04  0.89970948209E+03 0.  0.
         23    2    4    4    0    0  0.71291630862E+03  0.31279789723E+03  0.69720195088E+01  0.78385396765E+03  0.91028819323E+02 0.  0.
         23    2    4    4    0    0  0.12000929924E+02 -0.35424766349E+03 -0.81522737290E+02  0.37470464008E+03  0.90123144586E+02 0.  0.
          4    1    3    3  502    0 -0.48468620452E+03  0.40090266115E+02  0.10870275354E+03  0.49834148424E+03  0.00000000000E+00 0. -1.
         -3    1    3    3    0  502 -0.24023103402E+03  0.13595001488E+01 -0.17275681149E+01  0.24024109232E+03  0.00000000000E+00 0.  1.
         13    1    5    5    0    0 -0.43124650114E+00  0.60036367052E+01 -0.40469953194E+01  0.72531233512E+01  0.00000000000E+00 0.  1.
        -13    1    5    5    0    0  0.71334755512E+03  0.30679426052E+03  0.11019014828E+02  0.77660084430E+03  0.00000000000E+00 0. -1.
          1    1    6    6  503    0  0.22793736785E+01 -0.35380533085E+03 -0.85811214868E+02  0.36407001014E+03  0.00000000000E+00 0. -1.
         -1    1    6    6    0  503  0.97215562454E+01 -0.44233263987E+00  0.42884775779E+01  0.10634629939E+02  0.00000000000E+00 0.  1.
<mgrwt>
<rscale>  0 0.18968641E+04</rscale>
<asrwt>0</asrwt>
<pdfrwt beam="1">  1        2 0.14343975E+00 0.18968641E+04</pdfrwt>
<pdfrwt beam="2">  1       -1 0.14842813E+00 0.18968641E+04</pdfrwt>
<totfact> 0.10701294E+01</totfact>
</mgrwt>
</event>
<event>
12    7  0.1741211E-007  0.1140519E+04  0.7818608E-02  0.9166575E-01
          2   -1    0    0  501    0  0.00000000000E+00  0.00000000000E+00  0.96350596585E+03  0.96350596585E+03  0.00000000000E+00 0. -1.
         -1   -1    0    0    0  501 -0.00000000000E+00 -0.00000000000E+00 -0.33751334411E+03  0.33751334411E+03  0.00000000000E+00 0.  1.
         24    2    1    2    0    0 -0.13942145954E+02 -0.17487002741E+02  0.33277821343E+03  0.34271480549E+03  0.78815733640E+02 0.  0.
        254    2    1    2    0    0  0.13942145954E+02  0.17487002741E+02  0.29321440831E+03  0.95830450447E+03  0.91207053200E+03 0.  0.
         23    2    4    4    0    0 -0.29949158024E+03 -0.19788487287E+02  0.48410511023E+03  0.57834580043E+03  0.10019638849E+03 0.  0.
         23    2    4    4    0    0  0.31343372620E+03  0.37275490028E+02 -0.19089070191E+03  0.37995870404E+03  0.91099911221E+02 0.  0.
          2    1    3    3  502    0  0.21479166259E+02  0.20238393220E+02  0.14260479784E+03  0.14562649316E+03  0.00000000000E+00 0. -1.
         -1    1    3    3    0  502 -0.35421312213E+02 -0.37725395961E+02  0.19017341559E+03  0.19708831233E+03  0.00000000000E+00 0.  1.
         13    1    5    5    0    0 -0.23993357521E+00 -0.15116024283E+02  0.40417019194E+02  0.43151908402E+02  0.00000000000E+00 0. -1.
        -13    1    5    5    0    0 -0.29925164667E+03 -0.46724630042E+01  0.44368809103E+03  0.53519389203E+03  0.00000000000E+00 0.  1.
          1    1    6    6  503    0  0.14297766933E+03  0.50194910054E+02 -0.12613288658E+03  0.19715894096E+03  0.00000000000E+00 0. -1.
         -1    1    6    6    0  503  0.17045605686E+03 -0.12919420026E+02 -0.64757815331E+02  0.18279976308E+03  0.00000000000E+00 0.  1.
<mgrwt>
<rscale>  0 0.11405194E+04</rscale>
<asrwt>0</asrwt>
<pdfrwt beam="1">  1        2 0.14823169E+00 0.11405194E+04</pdfrwt>
<pdfrwt beam="2">  1       -1 0.51925130E-01 0.11405194E+04</pdfrwt>
<totfact> 0.11219324E+02</totfact>
</mgrwt>
</event>
<event>
12    7  0.1741211E-007  0.1343228E+04  0.7818608E-02  0.8995970E-01
         -1   -1    0    0    0  501 -0.00000000000E+00  0.00000000000E+00  0.34098260693E+03  0.34098260693E+03  0.00000000000E+00 0.  1.
          2   -1    0    0  501    0  0.00000000000E+00 -0.00000000000E+00 -0.13228400922E+04  0.13228400922E+04  0.00000000000E+00 0. -1.
         24    2    1    2    0    0 -0.16307136405E+03 -0.83791040885E+02 -0.64213070253E+03  0.67261475229E+03  0.80408690864E+02 0.  0.
        254    2    1    2    0    0  0.16307136405E+03  0.83791040885E+02 -0.33972678272E+03  0.99120794683E+03  0.91294342576E+03 0.  0.
         23    2    4    4    0    0  0.12093064198E+03  0.11131095402E+03  0.29447940625E+03  0.34828791866E+03  0.87017267975E+02 0.  0.
         23    2    4    4    0    0  0.42140722068E+02 -0.27519913131E+02 -0.63420618897E+03  0.64292002817E+03  0.92711846161E+02 0.  0.
          4    1    3    3  502    0 -0.13938059146E+03 -0.35246213133E+02 -0.50978977774E+03  0.52967429832E+03  0.00000000000E+00 0. -1.
         -3    1    3    3    0  502 -0.23690772595E+02 -0.48544827751E+02 -0.13234092479E+03  0.14294045397E+03  0.00000000000E+00 0.  1.
         13    1    5    5    0    0  0.58595158025E+02  0.34992805274E+00  0.98368875371E+02  0.11449869272E+03  0.00000000000E+00 0. -1.
        -13    1    5    5    0    0  0.62335483958E+02  0.11096102596E+03  0.19611053087E+03  0.23378922593E+03  0.00000000000E+00 0.  1.
          1    1    6    6  503    0  0.33385200485E+02  0.31408991499E+02 -0.26350480437E+03  0.26746191932E+03  0.00000000000E+00 0. -1.
         -1    1    6    6    0  503  0.87555215831E+01 -0.58928904630E+02 -0.37070138460E+03  0.37545810885E+03  0.00000000000E+00 0.  1.
<mgrwt>
<rscale>  0 0.13432281E+04</rscale>
<asrwt>0</asrwt>
<pdfrwt beam="1">  1        2 0.20351385E+00 0.13432281E+04</pdfrwt>
<pdfrwt beam="2">  1       -1 0.52458864E-01 0.13432281E+04</pdfrwt>
<totfact> 0.65372594E+01</totfact>
</mgrwt>
</event>
<event>
12    7  0.1741211E-007  0.1525957E+04  0.7818608E-02  0.8867373E-01
          4   -1    0    0  501    0  0.00000000000E+00  0.00000000000E+00  0.11823556439E+04  0.11823556439E+04  0.00000000000E+00 0. -1.
         -3   -1    0    0    0  501 -0.00000000000E+00 -0.00000000000E+00 -0.49235261788E+03  0.49235261788E+03  0.00000000000E+00 0.  1.
         24    2    1    2    0    0  0.43404966550E+03 -0.19343142173E+03  0.90736255701E+02  0.49206733663E+03  0.89901994672E+02 0.  0.
        254    2    1    2    0    0 -0.43404966550E+03  0.19343142173E+03  0.59926677036E+03  0.11826409252E+04  0.90205546884E+03 0.  0.
         23    2    4    4    0    0 -0.33494827861E+03 -0.29261446592E+03  0.48454570137E+03  0.66542395946E+03  0.10095015648E+03 0.  0.
         23    2    4    4    0    0 -0.99101386887E+02  0.48604588765E+03  0.11472106900E+03  0.51721696574E+03  0.91053699506E+02 0.  0.
          2    1    3    3  502    0  0.66598754779E+02 -0.40651187115E+01  0.33778421403E+02  0.74785701045E+02  0.00000000000E+00 0. -1.
         -3    1    3    3    0  502  0.36745091072E+03 -0.18936630302E+03  0.56957834298E+02  0.41728163559E+03  0.00000000000E+00 0.  1.
         13    1    5    5    0    0 -0.18451319747E+03 -0.11367161278E+03  0.18146389612E+03  0.28265792256E+03  0.00000000000E+00 0.  1.
        -13    1    5    5    0    0 -0.15043508115E+03 -0.17894285314E+03  0.30308180524E+03  0.38276603689E+03  0.00000000000E+00 0. -1.
          2    1    6    6  503    0 -0.62243762170E+02  0.12016972615E+03  0.14701043750E+02  0.13612923896E+03  0.00000000000E+00 0. -1.
         -2    1    6    6    0  503 -0.36857624717E+02  0.36587616150E+03  0.10002002525E+03  0.38108772678E+03  0.00000000000E+00 0.  1.
<mgrwt>
<rscale>  0 0.15259566E+04</rscale>
<asrwt>0</asrwt>
<pdfrwt beam="1">  1        4 0.18190087E+00 0.15259566E+04</pdfrwt>
<pdfrwt beam="2">  1       -3 0.75746557E-01 0.15259566E+04</pdfrwt>
<totfact> 0.63098580E-01</totfact>
</mgrwt>
</event>
<event>
12    7  0.1741211E-007  0.1550549E+04  0.7818608E-02  0.8851517E-01
         -1   -1    0    0    0  501 -0.00000000000E+00  0.00000000000E+00  0.27316278830E+03  0.27316278830E+03  0.00000000000E+00 0.  1.
          2   -1    0    0  501    0  0.00000000000E+00 -0.00000000000E+00 -0.22003372514E+04  0.22003372514E+04  0.00000000000E+00 0. -1.
         24    2    1    2    0    0 -0.22585332709E+03 -0.13887382919E+03  0.61066480760E+02  0.28357347377E+03  0.79932059654E+02 0.  0.
        254    2    1    2    0    0  0.22585332709E+03  0.13887382919E+03 -0.19882409439E+04  0.21899265660E+04  0.87885189173E+03 0.  0.
         23    2    4    4    0    0  0.74339623641E+01 -0.28187604901E+02  0.65864873150E+02  0.11540937210E+03  0.90173925200E+02 0.  0.
         23    2    4    4    0    0  0.21841936473E+03  0.16706143409E+03 -0.20541058170E+04  0.20745171939E+04  0.93028696841E+02 0.  0.
          4    1    3    3  502    0 -0.36783430011E+02  0.77555292256E+01  0.62233348824E+01  0.38103790546E+02  0.00000000000E+00 0. -1.
         -3    1    3    3    0  502 -0.18906989708E+03 -0.14662935842E+03  0.54843145878E+02  0.24546968322E+03  0.00000000000E+00 0.  1.
         13    1    5    5    0    0  0.28066422906E+02  0.66870899393E+01  0.68978051941E+02  0.74769063898E+02  0.00000000000E+00 0. -1.
        -13    1    5    5    0    0 -0.20632460542E+02 -0.34874694840E+02 -0.31131787914E+01  0.40640308197E+02  0.00000000000E+00 0.  1.
          3    1    6    6  503    0  0.21413857625E+03  0.15215973516E+03 -0.17097946338E+04  0.17298571053E+04  0.00000000000E+00 0. -1.
         -3    1    6    6    0  503  0.42807884790E+01  0.14901698937E+02 -0.34431118325E+03  0.34466008863E+03  0.00000000000E+00 0.  1.
<mgrwt>
<rscale>  0 0.15505486E+04</rscale>
<asrwt>0</asrwt>
<pdfrwt beam="1">  1        2 0.33851344E+00 0.15505486E+04</pdfrwt>
<pdfrwt beam="2">  1       -1 0.42025043E-01 0.15505486E+04</pdfrwt>
<totfact> 0.31498753E+01</totfact>
</mgrwt>
</event>
<event>
12    7  0.1741211E-007  0.1586370E+04  0.7818608E-02  0.8828965E-01
         -1   -1    0    0    0  501 -0.00000000000E+00  0.00000000000E+00  0.28619174516E+03  0.28619174516E+03  0.00000000000E+00 0.  1.
          2   -1    0    0  501    0  0.00000000000E+00 -0.00000000000E+00 -0.21983252759E+04  0.21983252759E+04  0.00000000000E+00 0. -1.
         24    2    1    2    0    0  0.36570791622E+03  0.36732927543E+03 -0.44843591368E+03  0.68961478088E+03  0.76162331601E+02 0.  0.
        254    2    1    2    0    0 -0.36570791622E+03 -0.36732927543E+03 -0.14636976170E+04  0.17949022402E+04  0.90032786308E+03 0.  0.
         23    2    4    4    0    0 -0.59336030765E+03 -0.16615764530E+03 -0.56037078075E+03  0.83733706056E+03  0.86215562909E+02 0.  0.
         23    2    4    4    0    0  0.22765239143E+03 -0.20117163012E+03 -0.90332683629E+03  0.95756517960E+03  0.92930425211E+02 0.  0.
          2    1    3    3  502    0  0.65428908314E+01  0.27973000863E+01  0.24976168514E+01  0.75413790609E+01  0.00000000000E+00 0. -1.
         -1    1    3    3    0  502  0.35916502539E+03  0.36453197534E+03 -0.45093353053E+03  0.68207340182E+03  0.00000000000E+00 0.  1.
         13    1    5    5    0    0 -0.49312168468E+03 -0.11812243673E+03 -0.42094963661E+03  0.65902997088E+03  0.00000000000E+00 0. -1.
        -13    1    5    5    0    0 -0.10023862297E+03 -0.48035208569E+02 -0.13942114413E+03  0.17830708968E+03  0.00000000000E+00 0.  1.
          4    1    6    6  503    0  0.12054879430E+03 -0.16492835680E+03 -0.55998439513E+03  0.59608380071E+03  0.00000000000E+00 0. -1.
         -4    1    6    6    0  503  0.10710359713E+03 -0.36243273319E+02 -0.34334244116E+03  0.36148137888E+03  0.00000000000E+00 0.  1.
<mgrwt>
<rscale>  0 0.15863701E+04</rscale>
<asrwt>0</asrwt>
<pdfrwt beam="1">  1        2 0.33820391E+00 0.15863701E+04</pdfrwt>
<pdfrwt beam="2">  1       -1 0.44029497E-01 0.15863701E+04</pdfrwt>
<totfact> 0.28882841E+01</totfact>
</mgrwt>
</event>
<event>
12    7  0.1741211E-007  0.2090494E+04  0.7818608E-02  0.8565442E-01
          2   -1    0    0  501    0  0.00000000000E+00  0.00000000000E+00  0.10306381769E+04  0.10306381769E+04  0.00000000000E+00 0. -1.
         -1   -1    0    0    0  501 -0.00000000000E+00 -0.00000000000E+00 -0.10600630130E+04  0.10600630130E+04  0.00000000000E+00 0.  1.
         24    2    1    2    0    0  0.64306814964E+03 -0.26223775610E+03 -0.50069010958E+03  0.85989802078E+03  0.80179389546E+02 0.  0.
        254    2    1    2    0    0 -0.64306814964E+03  0.26223775610E+03  0.47126527352E+03  0.12308031691E+04  0.90026673673E+03 0.  0.
         23    2    4    4    0    0 -0.14639923794E+03  0.21602154541E+02 -0.25795044535E+03  0.31149914986E+03  0.92703280195E+02 0.  0.
         23    2    4    4    0    0 -0.49666891170E+03  0.24063560156E+03  0.72921571887E+03  0.91930401925E+03  0.93695328467E+02 0.  0.
          2    1    3    3  502    0  0.25915013983E+03 -0.64841664666E+02 -0.17996152790E+03  0.32210151812E+03  0.00000000000E+00 0. -1.
         -1    1    3    3    0  502  0.38391800981E+03 -0.19739609144E+03 -0.32072858167E+03  0.53779650266E+03  0.00000000000E+00 0.  1.
         13    1    5    5    0    0 -0.76313103023E+02  0.57309107140E+02 -0.12926626985E+03  0.16067915849E+03  0.00000000000E+00 0. -1.
        -13    1    5    5    0    0 -0.70086134915E+02 -0.35706952600E+02 -0.12868417550E+03  0.15081999137E+03  0.00000000000E+00 0.  1.
          3    1    6    6  503    0 -0.28584310239E+03  0.10309862881E+03  0.45427220196E+03  0.54653347557E+03  0.00000000000E+00 0. -1.
         -3    1    6    6    0  503 -0.21082580931E+03  0.13753697275E+03  0.27494351691E+03  0.37277054368E+03  0.00000000000E+00 0.  1.
<mgrwt>
<rscale>  0 0.20904941E+04</rscale>
<asrwt>0</asrwt>
<pdfrwt beam="1">  1        2 0.15855972E+00 0.20904941E+04</pdfrwt>
<pdfrwt beam="2">  1       -1 0.16308662E+00 0.20904941E+04</pdfrwt>
<totfact> 0.70150747E+00</totfact>
</mgrwt>
</event>
<event>
12    7  0.1741211E-007  0.1999445E+04  0.7818608E-02  0.8606880E-01
          2   -1    0    0  501    0  0.00000000000E+00  0.00000000000E+00  0.22515749238E+04  0.22515749238E+04  0.00000000000E+00 0. -1.
         -1   -1    0    0    0  501 -0.00000000000E+00 -0.00000000000E+00 -0.44388732593E+03  0.44388732593E+03  0.00000000000E+00 0.  1.
         24    2    1    2    0    0 -0.40703870228E+01 -0.16714343386E+03  0.17751572356E+04  0.17848421389E+04  0.80775949908E+02 0.  0.
        254    2    1    2    0    0  0.40703870228E+01  0.16714343386E+03  0.32530362300E+02  0.91062011087E+03  0.89454863832E+03 0.  0.
         23    2    4    4    0    0 -0.58849942082E+02 -0.35275205888E+03  0.78590834011E+02  0.37677820326E+03  0.88814213563E+02 0.  0.
         23    2    4    4    0    0  0.62920329105E+02  0.51989549274E+03 -0.46060471711E+02  0.53384190762E+03  0.92818770108E+02 0.  0.
          2    1    3    3  502    0 -0.73994970295E+01 -0.17176785522E+03  0.15318060287E+04  0.15414242304E+04  0.00000000000E+00 0. -1.
         -1    1    3    3    0  502  0.33291100067E+01  0.46244213626E+01  0.24335120692E+03  0.24341790845E+03  0.00000000000E+00 0.  1.
         13    1    5    5    0    0  0.13057356452E+02 -0.60159833767E+01  0.31401035923E+01  0.14715531390E+02  0.00000000000E+00 0.  1.
        -13    1    5    5    0    0 -0.71907298535E+02 -0.34673607550E+03  0.75450730419E+02  0.36206267187E+03  0.00000000000E+00 0. -1.
          3    1    6    6  503    0  0.26695036104E+02  0.34769059841E+03  0.10884533307E+02  0.34888372023E+03  0.00000000000E+00 0. -1.
         -3    1    6    6    0  503  0.36225293001E+02  0.17220489433E+03 -0.56945005019E+02  0.18495818739E+03  0.00000000000E+00 0.  1.
<mgrwt>
<rscale>  0 0.19994455E+04</rscale>
<asrwt>0</asrwt>
<pdfrwt beam="1">  1        2 0.34639614E+00 0.19994455E+04</pdfrwt>
<pdfrwt beam="2">  1       -1 0.68290359E-01 0.19994455E+04</pdfrwt>
<totfact> 0.11088143E+01</totfact>
</mgrwt>
</event>
<event>
12    7  0.1741211E-007  0.1598836E+04  0.7818608E-02  0.8821264E-01
         -1   -1    0    0    0  501 -0.00000000000E+00  0.00000000000E+00  0.40456876575E+03  0.40456876575E+03  0.00000000000E+00 0.  1.
          2   -1    0    0  501    0  0.00000000000E+00 -0.00000000000E+00 -0.15796300827E+04  0.15796300827E+04  0.00000000000E+00 0. -1.
         24    2    1    2    0    0 -0.21763644184E+03 -0.34478017203E+03 -0.88045809633E+03  0.97354937605E+03  0.79705334706E+02 0.  0.
        254    2    1    2    0    0  0.21763644184E+03  0.34478017203E+03 -0.29460322066E+03  0.10106494724E+04  0.87657419005E+03 0.  0.
         23    2    4    4    0    0  0.17181932427E+03  0.48826603740E+03 -0.50875943374E+03  0.73140247697E+03  0.90486564869E+02 0.  0.
         23    2    4    4    0    0  0.45817117574E+02 -0.14348586537E+03  0.21415621308E+03  0.27924699547E+03  0.97100973473E+02 0.  0.
          2    1    3    3  502    0 -0.20460442553E+03 -0.31425707963E+03 -0.84759595913E+03  0.92684378024E+03  0.00000000000E+00 0. -1.
         -1    1    3    3    0  502 -0.13032016313E+02 -0.30523092395E+02 -0.32862137201E+02  0.46705595810E+02  0.00000000000E+00 0.  1.
         13    1    5    5    0    0 -0.75571714636E+01  0.68796600064E+02 -0.63944272491E+02  0.94228196445E+02  0.00000000000E+00 0. -1.
        -13    1    5    5    0    0  0.17937649573E+03  0.41946943734E+03 -0.44481516125E+03  0.63717428052E+03  0.00000000000E+00 0.  1.
          3    1    6    6  503    0  0.67790528521E+02 -0.71306885133E+02  0.15402288772E+03  0.18276563562E+03  0.00000000000E+00 0. -1.
         -3    1    6    6    0  503 -0.21973410948E+02 -0.72178980239E+02  0.60133325368E+02  0.96481359842E+02  0.00000000000E+00 0.  1.
<mgrwt>
<rscale>  0 0.15988358E+04</rscale>
<asrwt>0</asrwt>
<pdfrwt beam="1">  1        2 0.24302001E+00 0.15988358E+04</pdfrwt>
<pdfrwt beam="2">  1       -1 0.62241348E-01 0.15988358E+04</pdfrwt>
<totfact> 0.32752273E+01</totfact>
</mgrwt>
</event>
<event>
12    7  0.1741211E-007  0.2287942E+04  0.7818608E-02  0.8482690E-01
         -1   -1    0    0    0  501 -0.00000000000E+00  0.00000000000E+00  0.20632611662E+04  0.20632611662E+04  0.00000000000E+00 0.  1.
          2   -1    0    0  501    0  0.00000000000E+00 -0.00000000000E+00 -0.63427262499E+03  0.63427262499E+03  0.00000000000E+00 0. -1.
         24    2    1    2    0    0 -0.50641079315E+03 -0.65347900511E+03  0.16999995923E+02  0.83076068576E+03  0.79922560052E+02 0.  0.
        254    2    1    2    0    0  0.50641079315E+03  0.65347900511E+03  0.14119885452E+04  0.18667731054E+04  0.89868986507E+03 0.  0.
         23    2    4    4    0    0  0.60593295931E+03  0.23339984604E+03  0.41394680558E+03  0.77530069527E+03  0.90049824727E+02 0.  0.
         23    2    4    4    0    0 -0.99522166165E+02  0.42007915907E+03  0.99804173967E+03  0.10914724101E+04  0.94093286075E+02 0.  0.
          4    1    3    3  502    0 -0.45753160229E+03 -0.54893976239E+03  0.25309705710E+02  0.71505986535E+03  0.00000000000E+00 0. -1.
         -3    1    3    3    0  502 -0.48879190857E+02 -0.10453924272E+03 -0.83097097870E+01  0.11570082041E+03  0.00000000000E+00 0.  1.
         13    1    5    5    0    0  0.34635358917E+03  0.14946972540E+03  0.28915595299E+03  0.47530324288E+03  0.00000000000E+00 0. -1.
        -13    1    5    5    0    0  0.25957937014E+03  0.83930120645E+02  0.12479085259E+03  0.29999745240E+03  0.00000000000E+00 0.  1.
          2    1    6    6  503    0 -0.30390548065E+02  0.22519798623E+03  0.41958671333E+03  0.47716949653E+03  0.00000000000E+00 0. -1.
         -2    1    6    6    0  503 -0.69131618099E+02  0.19488117284E+03  0.57845502634E+03  0.61430291359E+03  0.00000000000E+00 0.  1.
<mgrwt>
<rscale>  0 0.22879424E+04</rscale>
<asrwt>0</asrwt>
<pdfrwt beam="1">  1        2 0.97580405E-01 0.22879424E+04</pdfrwt>
<pdfrwt beam="2">  1       -1 0.31742479E+00 0.22879424E+04</pdfrwt>
<totfact> 0.12216644E+00</totfact>
</mgrwt>
</event>
<event>
12    7  0.1741211E-007  0.1363178E+04  0.7818608E-02  0.8980912E-01
          2   -1    0    0  501    0  0.00000000000E+00  0.00000000000E+00  0.14116759550E+04  0.14116759550E+04  0.00000000000E+00 0. -1.
         -1   -1    0    0    0  501 -0.00000000000E+00 -0.00000000000E+00 -0.32908645583E+03  0.32908645583E+03  0.00000000000E+00 0.  1.
         24    2    1    2    0    0  0.83213317977E+02 -0.24427151124E+03  0.77990256131E+03  0.82538858359E+03  0.80157852305E+02 0.  0.
        254    2    1    2    0    0 -0.83213317977E+02  0.24427151124E+03  0.30268693789E+03  0.91537382727E+03  0.82443728311E+03 0.  0.
         23    2    4    4    0    0 -0.20347295094E+03  0.19211404748E+02 -0.22796886584E+03  0.31953960446E+03  0.91462753026E+02 0.  0.
         23    2    4    4    0    0  0.12025963296E+03  0.22506010649E+03  0.53065580373E+03  0.59583422280E+03  0.91150469990E+02 0.  0.
          4    1    3    3  502    0  0.60191215977E+02 -0.64010199879E+02  0.22844108998E+03  0.24475624560E+03  0.00000000000E+00 0. -1.
         -3    1    3    3    0  502  0.23022102000E+02 -0.18026131136E+03  0.55146147133E+03  0.58063233799E+03  0.00000000000E+00 0.  1.
         13    1    5    5    0    0 -0.17451188270E+03 -0.19395129353E+02 -0.18187343917E+03  0.25280133726E+03  0.00000000000E+00 0.  1.
        -13    1    5    5    0    0 -0.28961068238E+02  0.38606534101E+02 -0.46095426671E+02  0.66738267199E+02  0.00000000000E+00 0. -1.
          4    1    6    6  503    0  0.99095540151E+02  0.22581507193E+03  0.50874524909E+03  0.56536192060E+03  0.00000000000E+00 0.  1.
         -4    1    6    6    0  503  0.21164092812E+02 -0.75496543339E+00  0.21910554635E+02  0.30472302207E+02  0.00000000000E+00 0. -1.
<mgrwt>
<rscale>  0 0.13631778E+04</rscale>
<asrwt>0</asrwt>
<pdfrwt beam="1">  1        2 0.21718091E+00 0.13631778E+04</pdfrwt>
<pdfrwt beam="2">  1       -1 0.50628686E-01 0.13631778E+04</pdfrwt>
<totfact> 0.62100003E+01</totfact>
</mgrwt>
</event>
<event>
12    7  0.1741211E-007  0.2263214E+04  0.7818608E-02  0.8492568E-01
          2   -1    0    0  501    0  0.00000000000E+00  0.00000000000E+00  0.30385912707E+04  0.30385912707E+04  0.00000000000E+00 0. -1.
         -1   -1    0    0    0  501 -0.00000000000E+00 -0.00000000000E+00 -0.42142380417E+03  0.42142380417E+03  0.00000000000E+00 0.  1.
         24    2    1    2    0    0  0.54498772283E+03  0.46279639162E+03  0.14784212606E+03  0.73441987386E+03  0.79518166074E+02 0.  0.
        254    2    1    2    0    0 -0.54498772283E+03 -0.46279639162E+03  0.24693253404E+04  0.27255952010E+04  0.90559894243E+03 0.  0.
         23    2    4    4    0    0 -0.29699091571E+03  0.23886261430E+03  0.66968026067E+03  0.77582782991E+03  0.90433498327E+02 0.  0.
         23    2    4    4    0    0 -0.24799680713E+03 -0.70165900593E+03  0.17996450798E+04  0.19497673711E+04  0.95092645238E+02 0.  0.
          4    1    3    3  502    0  0.11621951550E+03  0.59838642172E+02  0.19242028257E+02  0.13212832600E+03  0.00000000000E+00 0. -1.
         -3    1    3    3    0  502  0.42876820734E+03  0.40295774945E+03  0.12860009780E+03  0.60229154786E+03  0.00000000000E+00 0.  1.
         13    1    5    5    0    0 -0.27015004382E+03  0.23770514943E+03  0.64839091885E+03  0.74154943725E+03  0.00000000000E+00 0. -1.
        -13    1    5    5    0    0 -0.26840871889E+02  0.11574648726E+01  0.21289341822E+02  0.34278392668E+02  0.00000000000E+00 0.  1.
          4    1    6    6  503    0 -0.22202187848E+03 -0.64530684985E+03  0.15703510142E+04  0.17122257307E+04  0.00000000000E+00 0. -1.
         -4    1    6    6    0  503 -0.25974928652E+02 -0.56352156076E+02  0.22929406556E+03  0.23754164038E+03  0.00000000000E+00 0.  1.
<mgrwt>
<rscale>  0 0.22632143E+04</rscale>
<asrwt>0</asrwt>
<pdfrwt beam="1">  1        2 0.46747557E+00 0.22632143E+04</pdfrwt>
<pdfrwt beam="2">  1       -1 0.64834433E-01 0.22632143E+04</pdfrwt>
<totfact> 0.41130090E+00</totfact>
</mgrwt>
</event>
<event>
12    7  0.1741211E-007  0.1128760E+04  0.7818608E-02  0.9177605E-01
          2   -1    0    0  501    0  0.00000000000E+00  0.00000000000E+00  0.24941428037E+04  0.24941428037E+04  0.00000000000E+00 0. -1.
         -1   -1    0    0    0  501 -0.00000000000E+00 -0.00000000000E+00 -0.12770915777E+03  0.12770915777E+03  0.00000000000E+00 0.  1.
         24    2    1    2    0    0  0.17815888009E+03  0.54365566169E+02  0.48994225829E+03  0.53011746193E+03  0.79277396796E+02 0.  0.
        254    2    1    2    0    0 -0.17815888009E+03 -0.54365566169E+02  0.18764913876E+04  0.20917344995E+04  0.90522764392E+03 0.  0.
         23    2    4    4    0    0  0.10448862927E+03  0.53939506581E+02 -0.35658887650E+02  0.15365551372E+03  0.92255713172E+02 0.  0.
         23    2    4    4    0    0 -0.28264750936E+03 -0.10830507275E+03  0.19121502752E+04  0.19380789858E+04  0.90619405362E+02 0.  0.
          2    1    3    3  502    0  0.15840142931E+03  0.51828089225E+02  0.47947414955E+03  0.50761464097E+03  0.00000000000E+00 0. -1.
         -1    1    3    3    0  502  0.19757450780E+02  0.25374769435E+01  0.10468108744E+02  0.22502820961E+02  0.00000000000E+00 0.  1.
         13    1    5    5    0    0  0.46836211244E+02 -0.12581808953E+02  0.16630148284E+02  0.51268844654E+02  0.00000000000E+00 0. -1.
        -13    1    5    5    0    0  0.57652418024E+02  0.66521315534E+02 -0.52289035934E+02  0.10238666907E+03  0.00000000000E+00 0.  1.
          1    1    6    6  503    0 -0.90760748987E+02 -0.24778708723E+02  0.36911559835E+03  0.38091708141E+03  0.00000000000E+00 0. -1.
         -1    1    6    6    0  503 -0.19188676037E+03 -0.83526364026E+02  0.15430346769E+04  0.15571619044E+04  0.00000000000E+00 0.  1.
<mgrwt>
<rscale>  0 0.11287602E+04</rscale>
<asrwt>0</asrwt>
<pdfrwt beam="1">  1        2 0.38371424E+00 0.11287602E+04</pdfrwt>
<pdfrwt beam="2">  1       -1 0.19647565E-01 0.11287602E+04</pdfrwt>
<totfact> 0.84134436E+01</totfact>
</mgrwt>
</event>
<event>
12    7  0.1741211E-007  0.1396928E+04  0.7818608E-02  0.8956045E-01
          2   -1    0    0  501    0  0.00000000000E+00  0.00000000000E+00  0.26832950866E+04  0.26832950866E+04  0.00000000000E+00 0. -1.
         -1   -1    0    0    0  501 -0.00000000000E+00 -0.00000000000E+00 -0.18181075245E+03  0.18181075245E+03  0.00000000000E+00 0.  1.
         24    2    1    2    0    0 -0.31518526176E+02  0.37012807233E+03  0.42617441225E+03  0.57091932739E+03  0.79599254525E+02 0.  0.
        254    2    1    2    0    0  0.31518526176E+02 -0.37012807233E+03  0.20753099219E+04  0.22941865117E+04  0.90465035835E+03 0.  0.
         23    2    4    4    0    0 -0.21048849518E+03  0.18986165872E+03  0.11073878734E+04  0.11467725338E+04  0.91795893465E+02 0.  0.
         23    2    4    4    0    0  0.24200702135E+03 -0.55998973104E+03  0.96792204852E+03  0.11474139779E+04  0.86774692961E+02 0.  0.
          2    1    3    3  502    0  0.26394975642E+02  0.11214177103E+03  0.11925396595E+03  0.16581308737E+03  0.00000000000E+00 0. -1.
         -1    1    3    3    0  502 -0.57913501818E+02  0.25798630130E+03  0.30692044630E+03  0.40510624002E+03  0.00000000000E+00 0.  1.
         13    1    5    5    0    0  0.79743291932E+01  0.55781677089E+01  0.17402968504E+02  0.19939137238E+02  0.00000000000E+00 0. -1.
        -13    1    5    5    0    0 -0.21846282437E+03  0.18428349101E+03  0.10899849049E+04  0.11268333966E+04  0.00000000000E+00 0.  1.
          2    1    6    6  503    0  0.93263900281E+02 -0.13874024140E+03  0.30907954239E+03  0.35139318890E+03  0.00000000000E+00 0. -1.
         -2    1    6    6    0  503  0.14874312107E+03 -0.42124948964E+03  0.65884250612E+03  0.79602078896E+03  0.00000000000E+00 0.  1.
<mgrwt>
<rscale>  0 0.13969279E+04</rscale>
<asrwt>0</asrwt>
<pdfrwt beam="1">  1        2 0.41281460E+00 0.13969279E+04</pdfrwt>
<pdfrwt beam="2">  1       -1 0.27970887E-01 0.13969279E+04</pdfrwt>
<totfact> 0.34936048E+01</totfact>
</mgrwt>
</event>
<event>
12    7  0.1741211E-007  0.1837488E+04  0.7818608E-02  0.8686614E-01
          2   -1    0    0  501    0  0.00000000000E+00  0.00000000000E+00  0.33064788737E+04  0.33064788737E+04  0.00000000000E+00 0. -1.
         -1   -1    0    0    0  501 -0.00000000000E+00 -0.00000000000E+00 -0.25528380465E+03  0.25528380465E+03  0.00000000000E+00 0.  1.
         24    2    1    2    0    0 -0.96348924412E+02 -0.24485660774E+03  0.24044340363E+04  0.24201483079E+04  0.81098232917E+02 0.  0.
        254    2    1    2    0    0  0.96348924412E+02  0.24485660774E+03  0.64676103275E+03  0.11416143705E+04  0.90318639488E+03 0.  0.
         23    2    4    4    0    0  0.24590662311E+03  0.51685813333E+03  0.25551044092E+03  0.63362625483E+03  0.92651217585E+02 0.  0.
         23    2    4    4    0    0 -0.14955769870E+03 -0.27200152559E+03  0.39125059183E+03  0.50798811569E+03  0.92857767058E+02 0.  0.
          2    1    3    3  502    0 -0.10172531569E+03 -0.24843722398E+03  0.23236221397E+04  0.23390786524E+04  0.00000000000E+00 0. -1.
         -1    1    3    3    0  502  0.53763912754E+01  0.35806162413E+01  0.80811896622E+02  0.81069655429E+02  0.00000000000E+00 0.  1.
         13    1    5    5    0    0  0.67532096522E+02  0.10242303176E+03  0.18812253478E+02  0.12411672883E+03  0.00000000000E+00 0.  1.
        -13    1    5    5    0    0  0.17837452659E+03  0.41443510157E+03  0.23669818744E+03  0.50950952600E+03  0.00000000000E+00 0. -1.
          2    1    6    6  503    0 -0.15753619426E+03 -0.26218391244E+03  0.34989774844E+03  0.46474346774E+03  0.00000000000E+00 0. -1.
         -2    1    6    6    0  503  0.79784955561E+01 -0.98176131547E+01  0.41352843394E+02  0.43244647948E+02  0.00000000000E+00 0.  1.
<mgrwt>
<rscale>  0 0.18374880E+04</rscale>
<asrwt>0</asrwt>
<pdfrwt beam="1">  1        2 0.50868903E+00 0.18374880E+04</pdfrwt>
<pdfrwt beam="2">  1       -1 0.39274434E-01 0.18374880E+04</pdfrwt>
<totfact> 0.74864477E+00</totfact>
</mgrwt>
</event>
<event>
12    7  0.1741211E-007  0.1140255E+04  0.7818608E-02  0.9166821E-01
          2   -1    0    0  501    0  0.00000000000E+00  0.00000000000E+00  0.71510795632E+03  0.71510795632E+03  0.00000000000E+00 0. -1.
         -1   -1    0    0    0  501 -0.00000000000E+00 -0.00000000000E+00 -0.45454023629E+03  0.45454023629E+03  0.00000000000E+00 0.  1.
         24    2    1    2    0    0 -0.14584021619E+03 -0.77165600726E+02 -0.23486854197E+02  0.18487849757E+03  0.80028294683E+02 0.  0.
        254    2    1    2    0    0  0.14584021619E+03  0.77165600726E+02  0.28405457423E+03  0.98476969504E+03  0.92836439642E+03 0.  0.
         23    2    4    4    0    0 -0.26669791042E+03  0.69069344513E+02 -0.19239417266E+03  0.34786638562E+03  0.89984191924E+02 0.  0.
         23    2    4    4    0    0  0.41253812661E+03  0.80962562128E+01  0.47644874690E+03  0.63690330942E+03  0.91592367883E+02 0.  0.
          2    1    3    3  502    0 -0.25373647780E+02  0.14316467438E+02  0.83341559186E+01  0.30302498188E+02  0.00000000000E+00 0. -1.
         -1    1    3    3    0  502 -0.12046656841E+03 -0.91482068164E+02 -0.31821010116E+02  0.15457599938E+03  0.00000000000E+00 0.  1.
         13    1    5    5    0    0 -0.19855925049E+03  0.14929688613E+02 -0.10748116629E+03  0.22627609831E+03  0.00000000000E+00 0. -1.
        -13    1    5    5    0    0 -0.68138659932E+02  0.54139655900E+02 -0.84913006376E+02  0.12159028732E+03  0.00000000000E+00 0.  1.
          1    1    6    6  503    0  0.28503158240E+03  0.13280167874E+02  0.26212316193E+03  0.38746344065E+03  0.00000000000E+00 0. -1.
         -1    1    6    6    0  503  0.12750654421E+03 -0.51839116615E+01  0.21432558497E+03  0.24943986877E+03  0.00000000000E+00 0.  1.
<mgrwt>
<rscale>  0 0.11402550E+04</rscale>
<asrwt>0</asrwt>
<pdfrwt beam="1">  1        2 0.11001661E+00 0.11402550E+04</pdfrwt>
<pdfrwt beam="2">  1       -1 0.69929267E-01 0.11402550E+04</pdfrwt>
<totfact> 0.93287290E+01</totfact>
</mgrwt>
</event>
<event>
12    7  0.1741211E-007  0.1197063E+04  0.7818608E-02  0.9115431E-01
         -1   -1    0    0    0  501 -0.00000000000E+00  0.00000000000E+00  0.19230070015E+03  0.19230070015E+03  0.00000000000E+00 0.  1.
          2   -1    0    0  501    0  0.00000000000E+00 -0.00000000000E+00 -0.18629147889E+04  0.18629147889E+04  0.00000000000E+00 0. -1.
         24    2    1    2    0    0 -0.21189203494E+03 -0.66870592525E+02 -0.17824478110E+03  0.29766146272E+03  0.86378433552E+02 0.  0.
        254    2    1    2    0    0  0.21189203494E+03  0.66870592525E+02 -0.14923693076E+04  0.17575540263E+04  0.90136568296E+03 0.  0.
         23    2    4    4    0    0  0.48380242422E+03 -0.13308285190E+03 -0.11927374876E+04  0.12971268711E+04  0.90219588777E+02 0.  0.
         23    2    4    4    0    0 -0.27191038928E+03  0.19995344443E+03 -0.29963182002E+03  0.46042715521E+03  0.91089505186E+02 0.  0.
          2    1    3    3  502    0 -0.21263438053E+02 -0.40168106255E+02 -0.41484005786E+02  0.61534813675E+02  0.00000000000E+00 0. -1.
         -1    1    3    3    0  502 -0.19062859689E+03 -0.26702486270E+02 -0.13676077531E+03  0.23612664905E+03  0.00000000000E+00 0.  1.
         13    1    5    5    0    0 -0.24978452185E+00 -0.20176929350E+01 -0.39755697027E+02  0.39807649054E+02  0.00000000000E+00 0. -1.
        -13    1    5    5    0    0  0.48405220875E+03 -0.13106515897E+03 -0.11529817906E+04  0.12573192220E+04  0.00000000000E+00 0.  1.
          4    1    6    6  503    0 -0.15885808594E+03  0.63494780605E+02 -0.16709384256E+03  0.23913977263E+03  0.00000000000E+00 0. -1.
         -4    1    6    6    0  503 -0.11305230334E+03  0.13645866382E+03 -0.13253797746E+03  0.22128738259E+03  0.00000000000E+00 0.  1.
<mgrwt>
<rscale>  0 0.11970628E+04</rscale>
<asrwt>0</asrwt>
<pdfrwt beam="1">  1        2 0.28660228E+00 0.11970628E+04</pdfrwt>
<pdfrwt beam="2">  1       -1 0.29584723E-01 0.11970628E+04</pdfrwt>
<totfact> 0.93659244E+01</totfact>
</mgrwt>
</event>
<event>
12    7  0.1741211E-007  0.2009442E+04  0.7818608E-02  0.8602219E-01
          2   -1    0    0  501    0  0.00000000000E+00  0.00000000000E+00  0.95317390647E+03  0.95317390647E+03  0.00000000000E+00 0. -1.
         -1   -1    0    0    0  501 -0.00000000000E+00 -0.00000000000E+00 -0.10590557273E+04  0.10590557273E+04  0.00000000000E+00 0.  1.
         24    2    1    2    0    0  0.23313475245E+03 -0.50713627120E+03 -0.62046848883E+03  0.83830259581E+03  0.78937229165E+02 0.  0.
        254    2    1    2    0    0 -0.23313475245E+03  0.50713627120E+03  0.51458666802E+03  0.11739270379E+04  0.89541400542E+03 0.  0.
         23    2    4    4    0    0 -0.49399365726E+02  0.61526438920E+03  0.65111416524E+03  0.90171190476E+03  0.90244872700E+02 0.  0.
         23    2    4    4    0    0 -0.18373538672E+03 -0.10812811800E+03 -0.13652749723E+03  0.27221513317E+03  0.10005468000E+03 0.  0.
          4    1    3    3  502    0  0.17130990550E+03 -0.28517805300E+03 -0.34702234588E+03  0.48072665224E+03  0.00000000000E+00 0. -1.
         -3    1    3    3    0  502  0.61824846953E+02 -0.22195821820E+03 -0.27344614295E+03  0.35757594357E+03  0.00000000000E+00 0.  1.
         13    1    5    5    0    0 -0.40169704480E+02  0.56390735411E+03  0.55435262977E+03  0.79177771332E+03  0.00000000000E+00 0. -1.
        -13    1    5    5    0    0 -0.92296612456E+01  0.51357035092E+02  0.96761535471E+02  0.10993419144E+03  0.00000000000E+00 0.  1.
          3    1    6    6  503    0 -0.17009348976E+03 -0.11434073886E+03 -0.14844567381E+03  0.25306465161E+03  0.00000000000E+00 0. -1.
         -3    1    6    6    0  503 -0.13641896963E+02  0.62126208580E+01  0.11918176587E+02  0.19150481556E+02  0.00000000000E+00 0.  1.
<mgrwt>
<rscale>  0 0.20094420E+04</rscale>
<asrwt>0</asrwt>
<pdfrwt beam="1">  1        2 0.14664214E+00 0.20094420E+04</pdfrwt>
<pdfrwt beam="2">  1       -1 0.16293165E+00 0.20094420E+04</pdfrwt>
<totfact> 0.79473544E+00</totfact>
</mgrwt>
</event>
<event>
12    7  0.1741211E-007  0.1700458E+04  0.7818608E-02  0.8761103E-01
          2   -1    0    0  501    0  0.00000000000E+00  0.00000000000E+00  0.12644772284E+04  0.12644772284E+04  0.00000000000E+00 0. -1.
         -1   -1    0    0    0  501 -0.00000000000E+00 -0.00000000000E+00 -0.57169022917E+03  0.57169022917E+03  0.00000000000E+00 0.  1.
         24    2    1    2    0    0 -0.56756369636E+03 -0.10615368373E+03  0.46699696673E+03  0.74696389833E+03  0.80447153387E+02 0.  0.
        254    2    1    2    0    0  0.56756369636E+03  0.10615368373E+03  0.22579003254E+03  0.10892035593E+04  0.89553676683E+03 0.  0.
         23    2    4    4    0    0  0.30918710927E+03 -0.35928153528E+01  0.55732135837E+03  0.64544672785E+03  0.10190586411E+03 0.  0.
         23    2    4    4    0    0  0.25837658709E+03  0.10974649908E+03 -0.33153132582E+03  0.44375683143E+03  0.90577870474E+02 0.  0.
          2    1    3    3  502    0 -0.42875541049E+03 -0.45976633269E+02  0.35878775730E+03  0.56095784834E+03  0.00000000000E+00 0. -1.
         -1    1    3    3    0  502 -0.13880828587E+03 -0.60177050459E+02  0.10820920943E+03  0.18600604999E+03  0.00000000000E+00 0.  1.
         13    1    5    5    0    0  0.28739594424E+03  0.16812379878E+02  0.45131586572E+03  0.53531775194E+03  0.00000000000E+00 0.  1.
        -13    1    5    5    0    0  0.21791165031E+02 -0.20405195231E+02  0.10600549264E+03  0.11012897591E+03  0.00000000000E+00 0. -1.
          1    1    6    6  503    0 -0.54183832745E+01  0.10640343347E+02 -0.22924287622E+02  0.25847606211E+02  0.00000000000E+00 0. -1.
         -1    1    6    6    0  503  0.26379497036E+03  0.99106155734E+02 -0.30860703820E+03  0.41790922521E+03  0.00000000000E+00 0.  1.
<mgrwt>
<rscale>  0 0.17004579E+04</rscale>
<asrwt>0</asrwt>
<pdfrwt beam="1">  1        2 0.19453496E+00 0.17004579E+04</pdfrwt>
<pdfrwt beam="2">  1       -1 0.87952343E-01 0.17004579E+04</pdfrwt>
<totfact> 0.23910476E+01</totfact>
</mgrwt>
</event>
<event>
12    7  0.1741211E-007  0.1609507E+04  0.7818608E-02  0.8814728E-01
         -1   -1    0    0    0  501 -0.00000000000E+00  0.00000000000E+00  0.30365780498E+03  0.30365780498E+03  0.00000000000E+00 0.  1.
          2   -1    0    0  501    0  0.00000000000E+00 -0.00000000000E+00 -0.21327576549E+04  0.21327576549E+04  0.00000000000E+00 0. -1.
         24    2    1    2    0    0  0.22407066888E+03  0.42377829952E+03 -0.10262457909E+04  0.11355898070E+04  0.81166956399E+02 0.  0.
        254    2    1    2    0    0 -0.22407066888E+03 -0.42377829952E+03 -0.80285405905E+03  0.13008256528E+04  0.90431024936E+03 0.  0.
         23    2    4    4    0    0  0.25922451906E+03  0.17839969474E+02 -0.50658156320E+03  0.57505239650E+03  0.80899707986E+02 0.  0.
         23    2    4    4    0    0 -0.48329518794E+03 -0.44161826900E+03 -0.29627249585E+03  0.72577325632E+03  0.10182580026E+03 0.  0.
          4    1    3    3  502    0  0.10824546178E+03  0.20784370603E+03 -0.59669891196E+03  0.64106604782E+03  0.00000000000E+00 0. -1.
         -3    1    3    3    0  502  0.11582520710E+03  0.21593459350E+03 -0.42954687889E+03  0.49452375922E+03  0.00000000000E+00 0.  1.
         13    1    5    5    0    0  0.50383855669E+01 -0.37141438725E+01  0.15790822374E+01  0.64555165974E+01  0.00000000000E+00 0.  1.
        -13    1    5    5    0    0  0.25418613349E+03  0.21554113347E+02 -0.50816064544E+03  0.56859687990E+03  0.00000000000E+00 0. -1.
          1    1    6    6  503    0 -0.46931292538E+03 -0.42064663568E+03 -0.30356301603E+03  0.69953464442E+03  0.00000000000E+00 0. -1.
         -1    1    6    6    0  503 -0.13982262562E+02 -0.20971633311E+02  0.72905201826E+01  0.26238611904E+02  0.00000000000E+00 0.  1.
<mgrwt>
<rscale>  0 0.16095074E+04</rscale>
<asrwt>0</asrwt>
<pdfrwt beam="1">  1        2 0.32811656E+00 0.16095074E+04</pdfrwt>
<pdfrwt beam="2">  1       -1 0.46716585E-01 0.16095074E+04</pdfrwt>
<totfact> 0.28080210E+01</totfact>
</mgrwt>
</event>
<event>
12    7  0.1741211E-007  0.1544322E+04  0.7818608E-02  0.8855503E-01
          2   -1    0    0  501    0  0.00000000000E+00  0.00000000000E+00  0.14556037942E+04  0.14556037942E+04  0.00000000000E+00 0. -1.
         -1   -1    0    0    0  501 -0.00000000000E+00 -0.00000000000E+00 -0.40961178498E+03  0.40961178498E+03  0.00000000000E+00 0.  1.
         24    2    1    2    0    0  0.20864977709E+03  0.36731275858E+03  0.68485255010E+03  0.80906374946E+03  0.84307432796E+02 0.  0.
        254    2    1    2    0    0 -0.20864977709E+03 -0.36731275858E+03  0.36113945914E+03  0.10561518297E+04  0.89809887340E+03 0.  0.
         23    2    4    4    0    0 -0.54431308083E+03 -0.24183023396E+03  0.32787964846E+03  0.68589231003E+03  0.90468807062E+02 0.  0.
         23    2    4    4    0    0  0.33566330374E+03 -0.12548252462E+03  0.33259810675E+02  0.37025951971E+03  0.87006778256E+02 0.  0.
          4    1    3    3  502    0  0.16479105247E+03  0.31090323005E+03  0.61830943063E+03  0.71142354574E+03  0.00000000000E+00 0. -1.
         -1    1    3    3    0  502  0.43858724622E+02  0.56409528527E+02  0.66543119467E+02  0.97640203720E+02  0.00000000000E+00 0.  1.
         13    1    5    5    0    0 -0.69169668752E+02 -0.61499029658E+02  0.32625844843E+02  0.98137757646E+02  0.00000000000E+00 0.  1.
        -13    1    5    5    0    0 -0.47514341208E+03 -0.18033120430E+03  0.29525380362E+03  0.58775455238E+03  0.00000000000E+00 0. -1.
          3    1    6    6  503    0  0.29299933117E+03 -0.11950029978E+03  0.56304754267E+02  0.32140185916E+03  0.00000000000E+00 0. -1.
         -3    1    6    6    0  503  0.42663972570E+02 -0.59822248447E+01 -0.23044943592E+02  0.48857660553E+02  0.00000000000E+00 0.  1.
<mgrwt>
<rscale>  0 0.15443218E+04</rscale>
<asrwt>0</asrwt>
<pdfrwt beam="1">  1        2 0.22393904E+00 0.15443218E+04</pdfrwt>
<pdfrwt beam="2">  1       -1 0.63017199E-01 0.15443218E+04</pdfrwt>
<totfact> 0.37700148E+01</totfact>
</mgrwt>
</event>
<event>
12    7  0.1741211E-007  0.1527022E+04  0.7818608E-02  0.8866680E-01
         -1   -1    0    0    0  501 -0.00000000000E+00  0.00000000000E+00  0.23527143183E+03  0.23527143183E+03  0.00000000000E+00 0.  1.
          2   -1    0    0  501    0  0.00000000000E+00 -0.00000000000E+00 -0.24777733979E+04  0.24777733979E+04  0.00000000000E+00 0. -1.
         24    2    1    2    0    0  0.36827097184E+03 -0.32763592178E+03 -0.68327963921E+03  0.84624351571E+03  0.79298276072E+02 0.  0.
        254    2    1    2    0    0 -0.36827097184E+03  0.32763592178E+03 -0.15592223269E+04  0.18668013141E+04  0.90044659784E+03 0.  0.
         23    2    4    4    0    0  0.49165883820E+01  0.82656106241E+02 -0.13662068651E+04  0.13716041821E+04  0.88997917839E+02 0.  0.
         23    2    4    4    0    0 -0.37318756022E+03  0.24497981553E+03 -0.19301546179E+03  0.49519713195E+03  0.93172774346E+02 0.  0.
          4    1    3    3  502    0  0.22935263420E+03 -0.15984148211E+03 -0.41994626862E+03  0.50448666856E+03  0.00000000000E+00 0. -1.
         -3    1    3    3    0  502  0.13891833764E+03 -0.16779443966E+03 -0.26333337059E+03  0.34175684716E+03  0.00000000000E+00 0.  1.
         13    1    5    5    0    0  0.22583770668E+02  0.95449923051E+02 -0.11938473350E+04  0.11978698485E+04  0.00000000000E+00 0. -1.
        -13    1    5    5    0    0 -0.17667182286E+02 -0.12793816810E+02 -0.17235953007E+03  0.17373433363E+03  0.00000000000E+00 0.  1.
          1    1    6    6  503    0 -0.13511062789E+03  0.13807594047E+03 -0.60060416206E+02  0.20230447523E+03  0.00000000000E+00 0.  1.
         -1    1    6    6    0  503 -0.23807693233E+03  0.10690387507E+03 -0.13295504558E+03  0.29289265672E+03  0.00000000000E+00 0. -1.
<mgrwt>
<rscale>  0 0.15270223E+04</rscale>
<asrwt>0</asrwt>
<pdfrwt beam="1">  1        2 0.38119589E+00 0.15270223E+04</pdfrwt>
<pdfrwt beam="2">  1       -1 0.36195606E-01 0.15270223E+04</pdfrwt>
<totfact> 0.28833761E+01</totfact>
</mgrwt>
</event>
<event>
12    7  0.1741211E-007  0.1403657E+04  0.7818608E-02  0.8951176E-01
          2   -1    0    0  501    0  0.00000000000E+00  0.00000000000E+00  0.67129029659E+03  0.67129029659E+03  0.00000000000E+00 0. -1.
         -1   -1    0    0    0  501 -0.00000000000E+00 -0.00000000000E+00 -0.73375598867E+03  0.73375598867E+03  0.00000000000E+00 0.  1.
         24    2    1    2    0    0  0.16123734302E+03 -0.10296032838E+03 -0.40534546733E+03  0.45546266085E+03  0.80888673734E+02 0.  0.
        254    2    1    2    0    0 -0.16123734302E+03  0.10296032838E+03  0.34287977525E+03  0.94958362441E+03  0.86460638990E+03 0.  0.
         23    2    4    4    0    0 -0.35323989115E+03 -0.27085929241E+03  0.15875267279E+03  0.48155925261E+03  0.92486353985E+02 0.  0.
         23    2    4    4    0    0  0.19200254813E+03  0.37381962079E+03  0.18412710246E+03  0.46802437180E+03  0.92400948912E+02 0.  0.
          4    1    3    3  502    0  0.31140156728E+02 -0.26729567537E+02 -0.29625649585E+02  0.50614802727E+02  0.00000000000E+00 0. -1.
         -3    1    3    3    0  502  0.13009718629E+03 -0.76230760847E+02 -0.37571981774E+03  0.40484785812E+03  0.00000000000E+00 0.  1.
         13    1    5    5    0    0 -0.18940046324E+03 -0.11220341965E+03  0.37665850071E+02  0.22334023175E+03  0.00000000000E+00 0. -1.
        -13    1    5    5    0    0 -0.16383942791E+03 -0.15865587275E+03  0.12108682272E+03  0.25821902086E+03  0.00000000000E+00 0.  1.
          3    1    6    6  503    0  0.97541531296E+02  0.23023617487E+03  0.15362769476E+03  0.29346978574E+03  0.00000000000E+00 0. -1.
         -3    1    6    6    0  503  0.94461016833E+02  0.14358344592E+03  0.30499407707E+02  0.17455458605E+03  0.00000000000E+00 0.  1.
<mgrwt>
<rscale>  0 0.14036570E+04</rscale>
<asrwt>0</asrwt>
<pdfrwt beam="1">  1        2 0.10327543E+00 0.14036570E+04</pdfrwt>
<pdfrwt beam="2">  1       -1 0.11288554E+00 0.14036570E+04</pdfrwt>
<totfact> 0.34468005E+01</totfact>
</mgrwt>
</event>
<event>
12    7  0.1741211E-007  0.1196227E+04  0.7818608E-02  0.9116165E-01
         -1   -1    0    0    0  501 -0.00000000000E+00  0.00000000000E+00  0.28175913143E+03  0.28175913143E+03  0.00000000000E+00 0.  1.
          2   -1    0    0  501    0  0.00000000000E+00 -0.00000000000E+00 -0.12696652382E+04  0.12696652382E+04  0.00000000000E+00 0. -1.
         24    2    1    2    0    0 -0.18208833885E+03  0.12757037940E+03 -0.55357924294E+02  0.24268730919E+03  0.80014157594E+02 0.  0.
        254    2    1    2    0    0  0.18208833885E+03 -0.12757037940E+03 -0.93254818250E+03  0.13087370605E+04  0.89090752377E+03 0.  0.
         23    2    4    4    0    0  0.30837153379E+03 -0.45476211354E+03 -0.54352004495E+03  0.77836255765E+03  0.92372339622E+02 0.  0.
         23    2    4    4    0    0 -0.12628319493E+03  0.32719173414E+03 -0.38902813755E+03  0.53037450281E+03  0.83380724496E+02 0.  0.
          2    1    3    3  502    0 -0.72653259722E+02  0.82138596992E+02 -0.58231117104E+02  0.12416162154E+03  0.00000000000E+00 0. -1.
         -3    1    3    3    0  502 -0.10943507913E+03  0.45431782407E+02  0.28731928106E+01  0.11852568765E+03  0.00000000000E+00 0.  1.
         13    1    5    5    0    0  0.53687512539E+02 -0.70384975995E+02 -0.13996313252E+03  0.16560818915E+03  0.00000000000E+00 0.  1.
        -13    1    5    5    0    0  0.25468402125E+03 -0.38437713755E+03 -0.40355691243E+03  0.61275436850E+03  0.00000000000E+00 0. -1.
          1    1    6    6  503    0 -0.87468902713E+02  0.21917098988E+03 -0.31577562086E+03  0.39420930288E+03  0.00000000000E+00 0. -1.
         -1    1    6    6    0  503 -0.38814292221E+02  0.10802074427E+03 -0.73252516682E+02  0.13616519993E+03  0.00000000000E+00 0.  1.
<mgrwt>
<rscale>  0 0.11962270E+04</rscale>
<asrwt>0</asrwt>
<pdfrwt beam="1">  1        2 0.19533311E+00 0.11962270E+04</pdfrwt>
<pdfrwt beam="2">  1       -1 0.43347559E-01 0.11962270E+04</pdfrwt>
<totfact> 0.10168700E+02</totfact>
</mgrwt>
</event>
<event>
12    7  0.1741211E-007  0.1596603E+04  0.7818608E-02  0.8822638E-01
         -1   -1    0    0    0  501 -0.00000000000E+00  0.00000000000E+00  0.39243287618E+03  0.39243287618E+03  0.00000000000E+00 0.  1.
          2   -1    0    0  501    0  0.00000000000E+00 -0.00000000000E+00 -0.16239341968E+04  0.16239341968E+04  0.00000000000E+00 0. -1.
         24    2    1    2    0    0  0.39416291997E+03  0.33627978150E+03 -0.60072406972E+03  0.79732964801E+03  0.80104061901E+02 0.  0.
        254    2    1    2    0    0 -0.39416291997E+03 -0.33627978150E+03 -0.63077725093E+03  0.12190374250E+04  0.90538599743E+03 0.  0.
         23    2    4    4    0    0 -0.62792156842E+03 -0.20411137579E+03 -0.18749199675E+03  0.69244767997E+03  0.91561950757E+02 0.  0.
         23    2    4    4    0    0  0.23375864845E+03 -0.13216840570E+03 -0.44328525418E+03  0.52658974504E+03  0.93184493430E+02 0.  0.
          2    1    3    3  502    0  0.22561606333E+03  0.18661948560E+03 -0.39854891724E+03  0.49454087785E+03  0.00000000000E+00 0. -1.
         -3    1    3    3    0  502  0.16854685663E+03  0.14966029590E+03 -0.20217515248E+03  0.30278877015E+03  0.00000000000E+00 0.  1.
         13    1    5    5    0    0  0.61634617861E+00  0.30173665925E+01  0.24573161982E+01  0.39398967834E+01  0.00000000000E+00 0.  1.
        -13    1    5    5    0    0 -0.62853791460E+03 -0.20712874239E+03 -0.18994931295E+03  0.68850778318E+03  0.00000000000E+00 0. -1.
          4    1    6    6  503    0  0.15241441536E+03 -0.70725660149E+02 -0.19044121611E+03  0.25396875754E+03  0.00000000000E+00 0. -1.
         -4    1    6    6    0  503  0.81344233092E+02 -0.61442745553E+02 -0.25284403806E+03  0.27262098749E+03  0.00000000000E+00 0.  1.
<mgrwt>
<rscale>  0 0.15966029E+04</rscale>
<asrwt>0</asrwt>
<pdfrwt beam="1">  1        2 0.24983603E+00 0.15966029E+04</pdfrwt>
<pdfrwt beam="2">  1       -1 0.60374288E-01 0.15966029E+04</pdfrwt>
<totfact> 0.32872749E+01</totfact>
</mgrwt>
</event>
<event>
12    7  0.1741211E-007  0.2013274E+04  0.7818608E-02  0.8600440E-01
          2   -1    0    0  501    0  0.00000000000E+00  0.00000000000E+00  0.29642541969E+04  0.29642541969E+04  0.00000000000E+00 0. -1.
         -1   -1    0    0    0  501 -0.00000000000E+00 -0.00000000000E+00 -0.34184587102E+03  0.34184587102E+03  0.00000000000E+00 0.  1.
         24    2    1    2    0    0  0.17469047336E+03  0.47854572704E+02 -0.23221867321E+03  0.30601215530E+03  0.83133058365E+02 0.  0.
        254    2    1    2    0    0 -0.17469047336E+03 -0.47854572704E+02  0.28546269991E+04  0.30000879126E+04  0.90488969375E+03 0.  0.
         23    2    4    4    0    0 -0.31443795151E+03  0.35519364439E+03  0.16257502942E+04  0.16959867156E+04  0.90956968125E+02 0.  0.
         23    2    4    4    0    0  0.13974747815E+03 -0.40304821710E+03  0.12288767049E+04  0.13041011970E+04  0.92545952122E+02 0.  0.
          2    1    3    3  502    0  0.15019421305E+02  0.34101403960E+02 -0.29080829332E+02  0.47267149301E+02  0.00000000000E+00 0. -1.
         -1    1    3    3    0  502  0.15967105205E+03  0.13753168744E+02 -0.20313784388E+03  0.25874500600E+03  0.00000000000E+00 0.  1.
         13    1    5    5    0    0 -0.23269515660E+03  0.27571101769E+03  0.10871632488E+04  0.11454638932E+04  0.00000000000E+00 0.  1.
        -13    1    5    5    0    0 -0.81742794905E+02  0.79482626707E+02  0.53858704548E+03  0.55052282244E+03  0.00000000000E+00 0. -1.
          4    1    6    6  503    0  0.48297403494E+02 -0.82181537290E+02  0.18364711835E+03  0.20691232040E+03  0.00000000000E+00 0. -1.
         -4    1    6    6    0  503  0.91450074655E+02 -0.32086667981E+03  0.10452295865E+04  0.10971888766E+04  0.00000000000E+00 0.  1.
<mgrwt>
<rscale>  0 0.20132740E+04</rscale>
<asrwt>0</asrwt>
<pdfrwt beam="1">  1        2 0.45603909E+00 0.20132740E+04</pdfrwt>
<pdfrwt beam="2">  1       -1 0.52591675E-01 0.20132740E+04</pdfrwt>
<totfact> 0.70700222E+00</totfact>
</mgrwt>
</event>
<event>
12    7  0.1741211E-007  0.1724621E+04  0.7818608E-02  0.8747445E-01
         -1   -1    0    0    0  501 -0.00000000000E+00  0.00000000000E+00  0.47148699186E+03  0.47148699186E+03  0.00000000000E+00 0.  1.
          2   -1    0    0  501    0  0.00000000000E+00 -0.00000000000E+00 -0.15770946335E+04  0.15770946335E+04  0.00000000000E+00 0. -1.
         24    2    1    2    0    0 -0.16171001197E+03 -0.21354040826E+03  0.26605548092E+03  0.38582645909E+03  0.79541836003E+02 0.  0.
        254    2    1    2    0    0  0.16171001197E+03  0.21354040826E+03 -0.13716631226E+04  0.16627551663E+04  0.90085813933E+03 0.  0.
         23    2    4    4    0    0  0.52663323290E+03  0.17232941591E+03 -0.80364366092E+03  0.98035761316E+03  0.90652779110E+02 0.  0.
         23    2    4    4    0    0 -0.36492322094E+03  0.41210992348E+02 -0.56801946165E+03  0.68239755311E+03  0.90294011981E+02 0.  0.
          2    1    3    3  502    0 -0.36790862321E+02 -0.70825800929E+02  0.35684509749E+02  0.87425659068E+02  0.00000000000E+00 0. -1.
         -1    1    3    3    0  502 -0.12491914965E+03 -0.14271460733E+03  0.23037097117E+03  0.29840080002E+03  0.00000000000E+00 0.  1.
         13    1    5    5    0    0  0.35482663292E+03  0.12230033750E+03 -0.61397121177E+03  0.71959708231E+03  0.00000000000E+00 0. -1.
        -13    1    5    5    0    0  0.17180659999E+03  0.50029078416E+02 -0.18967244914E+03  0.26076053085E+03  0.00000000000E+00 0.  1.
          1    1    6    6  503    0 -0.35794597109E+03  0.55315339904E+02 -0.54899473396E+03  0.65770838748E+03  0.00000000000E+00 0. -1.
         -1    1    6    6    0  503 -0.69772498441E+01 -0.14104347556E+02 -0.19024727693E+02  0.24689165623E+02  0.00000000000E+00 0.  1.
<mgrwt>
<rscale>  0 0.17246212E+04</rscale>
<asrwt>0</asrwt>
<pdfrwt beam="1">  1        2 0.24262994E+00 0.17246212E+04</pdfrwt>
<pdfrwt beam="2">  1       -1 0.72536460E-01 0.17246212E+04</pdfrwt>
<totfact> 0.23824349E+01</totfact>
</mgrwt>
</event>
<event>
12    7  0.1741211E-007  0.2911033E+04  0.7818608E-02  0.8269603E-01
         -1   -1    0    0    0  501 -0.00000000000E+00  0.00000000000E+00  0.10163734388E+04  0.10163734388E+04  0.00000000000E+00 0.  1.
          2   -1    0    0  501    0  0.00000000000E+00 -0.00000000000E+00 -0.20843988659E+04  0.20843988659E+04  0.00000000000E+00 0. -1.
         24    2    1    2    0    0 -0.76114392057E+03  0.18616545565E+03  0.64348790400E+03  0.10171048172E+04  0.80174072894E+02 0.  0.
        254    2    1    2    0    0  0.76114392057E+03 -0.18616545565E+03 -0.17115133311E+04  0.20836674875E+04  0.89352933428E+03 0.  0.
         23    2    4    4    0    0  0.40798749176E+03 -0.52509973295E+03 -0.79384672180E+03  0.10395838573E+04  0.91424590151E+02 0.  0.
         23    2    4    4    0    0  0.35315642880E+03  0.33893427730E+03 -0.91766660926E+03  0.10440836302E+04  0.91666315937E+02 0.  0.
          4    1    3    3  502    0 -0.25007118943E+03  0.78446423293E+02  0.17211758576E+03  0.31355048149E+03  0.00000000000E+00 0. -1.
         -3    1    3    3    0  502 -0.51107273113E+03  0.10771903236E+03  0.47137031824E+03  0.70355433576E+03  0.00000000000E+00 0.  1.
         13    1    5    5    0    0  0.10269358295E+03 -0.74295112731E+02 -0.14674910674E+03  0.19390986588E+03  0.00000000000E+00 0. -1.
        -13    1    5    5    0    0  0.30529390881E+03 -0.45080462022E+03 -0.64709761506E+03  0.84567399143E+03  0.00000000000E+00 0.  1.
          1    1    6    6  503    0  0.90237098311E+02  0.10819035469E+03 -0.34998803057E+03  0.37727908542E+03  0.00000000000E+00 0. -1.
         -1    1    6    6    0  503  0.26291933049E+03  0.23074392261E+03 -0.56767857870E+03  0.66680454474E+03  0.00000000000E+00 0.  1.
<mgrwt>
<rscale>  0 0.29110326E+04</rscale>
<asrwt>0</asrwt>
<pdfrwt beam="1">  1        2 0.32067675E+00 0.29110326E+04</pdfrwt>
<pdfrwt beam="2">  1       -1 0.15636515E+00 0.29110326E+04</pdfrwt>
<totfact> 0.18315019E+00</totfact>
</mgrwt>
</event>
<event>
12    7  0.1741211E-007  0.3276565E+04  0.7818608E-02  0.8168884E-01
         -1   -1    0    0    0  501 -0.00000000000E+00  0.00000000000E+00  0.93030318193E+03  0.93030318193E+03  0.00000000000E+00 0.  1.
          2   -1    0    0  501    0  0.00000000000E+00 -0.00000000000E+00 -0.28850477828E+04  0.28850477828E+04  0.00000000000E+00 0. -1.
         24    2    1    2    0    0  0.23333020819E+03  0.61340538795E+03  0.68523524098E+03  0.95189049352E+03  0.76413481458E+02 0.  0.
        254    2    1    2    0    0 -0.23333020819E+03 -0.61340538795E+03 -0.26399798419E+04  0.28634604712E+04  0.89398162669E+03 0.  0.
         23    2    4    4    0    0  0.11878710133E+03 -0.46134070795E+02 -0.20222737962E+02  0.15840582481E+03  0.91895148251E+02 0.  0.
         23    2    4    4    0    0 -0.35211730953E+03 -0.56727131716E+03 -0.26197571039E+04  0.27050546464E+04  0.91706105374E+02 0.  0.
          4    1    3    3  502    0  0.80835144937E+02  0.29566199191E+03  0.35351998420E+03  0.46789604972E+03  0.00000000000E+00 0. -1.
         -3    1    3    3    0  502  0.15249506326E+03  0.31774339604E+03  0.33171525678E+03  0.48399444380E+03  0.00000000000E+00 0.  1.
         13    1    5    5    0    0  0.74812718231E+02  0.18900424059E+02 -0.20724770208E+02  0.79897965800E+02  0.00000000000E+00 0. -1.
        -13    1    5    5    0    0  0.43974383101E+02 -0.65034494854E+02  0.50203224678E+00  0.78507859010E+02  0.00000000000E+00 0.  1.
          1    1    6    6  503    0 -0.19935356514E+03 -0.30797333962E+03 -0.12558014447E+04  0.13082915158E+04  0.00000000000E+00 0. -1.
         -1    1    6    6    0  503 -0.15276374439E+03 -0.25929797753E+03 -0.13639556592E+04  0.13967631306E+04  0.00000000000E+00 0.  1.
<mgrwt>
<rscale>  0 0.32765647E+04</rscale>
<asrwt>0</asrwt>
<pdfrwt beam="1">  1        2 0.44385350E+00 0.32765647E+04</pdfrwt>
<pdfrwt beam="2">  1       -1 0.14312357E+00 0.32765647E+04</pdfrwt>
<totfact> 0.77101082E-01</totfact>
</mgrwt>
</event>
<event>
12    7  0.1741211E-007  0.2163238E+04  0.7818608E-02  0.8533887E-01
         -1   -1    0    0    0  501 -0.00000000000E+00  0.00000000000E+00  0.89629813662E+03  0.89629813662E+03  0.00000000000E+00 0.  1.
          2   -1    0    0  501    0  0.00000000000E+00 -0.00000000000E+00 -0.13052571214E+04  0.13052571214E+04  0.00000000000E+00 0. -1.
         24    2    1    2    0    0 -0.75979650570E+03 -0.19318524416E+03  0.25923104466E+03  0.82965894133E+03  0.80758626630E+02 0.  0.
        254    2    1    2    0    0  0.75979650570E+03  0.19318524416E+03 -0.66819002944E+03  0.13718963167E+04  0.90609619779E+03 0.  0.
         23    2    4    4    0    0  0.65708935644E+03 -0.48084181373E+02 -0.18617932179E+02  0.66538364394E+03  0.91160602085E+02 0.  0.
         23    2    4    4    0    0  0.10270714926E+03  0.24126942554E+03 -0.64957209726E+03  0.70651267275E+03  0.91959518315E+02 0.  0.
          4    1    3    3  502    0 -0.13108945776E+03 -0.24663529867E+01  0.44645243866E+02  0.13850533070E+03  0.00000000000E+00 0. -1.
         -3    1    3    3    0  502 -0.62870704794E+03 -0.19071889118E+03  0.21458580079E+03  0.69115361063E+03  0.00000000000E+00 0.  1.
         13    1    5    5    0    0  0.58283118526E+03 -0.64313832551E+02  0.29342314078E+01  0.58637621821E+03  0.00000000000E+00 0. -1.
        -13    1    5    5    0    0  0.74258171187E+02  0.16229651178E+02 -0.21552163587E+02  0.79007425731E+02  0.00000000000E+00 0.  1.
          3    1    6    6  503    0  0.73283409526E+02  0.20792573836E+03 -0.60337437670E+03  0.64238945293E+03  0.00000000000E+00 0. -1.
         -3    1    6    6    0  503  0.29423739730E+02  0.33343687177E+02 -0.46197720557E+02  0.64123219811E+02  0.00000000000E+00 0.  1.
<mgrwt>
<rscale>  0 0.21632379E+04</rscale>
<asrwt>0</asrwt>
<pdfrwt beam="1">  1        2 0.20080879E+00 0.21632379E+04</pdfrwt>
<pdfrwt beam="2">  1       -1 0.13789202E+00 0.21632379E+04</pdfrwt>
<totfact> 0.74806063E+00</totfact>
</mgrwt>
</event>
<event>
12    7  0.1741211E-007  0.1611316E+04  0.7818608E-02  0.8813626E-01
          2   -1    0    0  501    0  0.00000000000E+00  0.00000000000E+00  0.19098549573E+04  0.19098549573E+04  0.00000000000E+00 0. -1.
         -1   -1    0    0    0  501 -0.00000000000E+00 -0.00000000000E+00 -0.33986069692E+03  0.33986069692E+03  0.00000000000E+00 0.  1.
         24    2    1    2    0    0 -0.50763311919E+02 -0.54909064216E+03  0.54441290713E+03  0.77903992658E+03  0.80251770153E+02 0.  0.
        254    2    1    2    0    0  0.50763311919E+02  0.54909064216E+03  0.10255813532E+04  0.14706757276E+04  0.89832763321E+03 0.  0.
         23    2    4    4    0    0  0.32579176472E+03  0.62098108159E+03  0.49980345354E+03  0.86622489635E+03  0.93724603163E+02 0.  0.
         23    2    4    4    0    0 -0.27502845280E+03 -0.71890439431E+02  0.52577789970E+03  0.60445083128E+03  0.90052887206E+02 0.  0.
          2    1    3    3  502    0 -0.11394020395E+02 -0.33772295445E+03  0.28454806674E+03  0.44176262851E+03  0.00000000000E+00 0. -1.
         -1    1    3    3    0  502 -0.39369291524E+02 -0.21136768771E+03  0.25986484039E+03  0.33727729807E+03  0.00000000000E+00 0.  1.
         13    1    5    5    0    0  0.13779403294E+03  0.21334245396E+03  0.22897957281E+03  0.34195590789E+03  0.00000000000E+00 0.  1.
        -13    1    5    5    0    0  0.18799773178E+03  0.40763862763E+03  0.27082388072E+03  0.52426898846E+03  0.00000000000E+00 0. -1.
          4    1    6    6  503    0 -0.27766774958E+01  0.21948688114E+01 -0.33005759919E+01  0.48395442857E+01  0.00000000000E+00 0.  1.
         -4    1    6    6    0  503 -0.27225177530E+03 -0.74085308243E+02  0.52907847569E+03  0.59961128699E+03  0.00000000000E+00 0. -1.
<mgrwt>
<rscale>  0 0.16113158E+04</rscale>
<asrwt>0</asrwt>
<pdfrwt beam="1">  1        2 0.29382383E+00 0.16113158E+04</pdfrwt>
<pdfrwt beam="2">  1       -1 0.52286262E-01 0.16113158E+04</pdfrwt>
<totfact> 0.30153697E+01</totfact>
</mgrwt>
</event>
<event>
12    7  0.1741211E-007  0.2226577E+04  0.7818608E-02  0.8507447E-01
          2   -1    0    0  501    0  0.00000000000E+00  0.00000000000E+00  0.38260896096E+04  0.38260896096E+04  0.00000000000E+00 0. -1.
         -1   -1    0    0    0  501 -0.00000000000E+00 -0.00000000000E+00 -0.32393679219E+03  0.32393679219E+03  0.00000000000E+00 0.  1.
         24    2    1    2    0    0 -0.45704503990E+03 -0.40052065737E+03  0.14237179199E+03  0.62911035563E+03  0.78760059248E+02 0.  0.
        254    2    1    2    0    0  0.45704503990E+03  0.40052065737E+03  0.33597810254E+04  0.35209160462E+04  0.85989202804E+03 0.  0.
         23    2    4    4    0    0 -0.12464702860E+03  0.74108018861E+02  0.19560481648E+04  0.19640199855E+04  0.10109995147E+03 0.  0.
         23    2    4    4    0    0  0.58169206850E+03  0.32641263851E+03  0.14037328607E+04  0.15568960607E+04  0.92458242653E+02 0.  0.
          2    1    3    3  502    0 -0.12523121812E+01 -0.17128898453E+02  0.32251633739E+01  0.17474814071E+02  0.00000000000E+00 0. -1.
         -1    1    3    3    0  502 -0.45579272772E+03 -0.38339175891E+03  0.13914662861E+03  0.61163554156E+03  0.00000000000E+00 0.  1.
         13    1    5    5    0    0 -0.13075148644E+03  0.86774507786E+02  0.18893530698E+04  0.18958588526E+04  0.00000000000E+00 0. -1.
        -13    1    5    5    0    0  0.61044578353E+01 -0.12666488926E+02  0.66695094921E+02  0.68161132867E+02  0.00000000000E+00 0.  1.
          4    1    6    6  503    0  0.48845364101E+03  0.26392303094E+03  0.10816569110E+04  0.12158223549E+04  0.00000000000E+00 0. -1.
         -4    1    6    6    0  503  0.93238427486E+02  0.62489607564E+02  0.32207594966E+03  0.34107370577E+03  0.00000000000E+00 0.  1.
<mgrwt>
<rscale>  0 0.22265769E+04</rscale>
<asrwt>0</asrwt>
<pdfrwt beam="1">  1        2 0.58862914E+00 0.22265769E+04</pdfrwt>
<pdfrwt beam="2">  1       -1 0.49836432E-01 0.22265769E+04</pdfrwt>
<totfact> 0.19768163E+00</totfact>
</mgrwt>
</event>
<event>
12    7  0.1741211E-007  0.2930489E+04  0.7818608E-02  0.8263864E-01
          2   -1    0    0  501    0  0.00000000000E+00  0.00000000000E+00  0.19302111762E+04  0.19302111762E+04  0.00000000000E+00 0. -1.
         -1   -1    0    0    0  501 -0.00000000000E+00 -0.00000000000E+00 -0.11122830867E+04  0.11122830867E+04  0.00000000000E+00 0.  1.
         24    2    1    2    0    0 -0.12358471478E+03 -0.10410203243E+04  0.12159592252E+04  0.16073971659E+04  0.78564076937E+02 0.  0.
        254    2    1    2    0    0  0.12358471478E+03  0.10410203243E+04 -0.39803113575E+03  0.14350970970E+04  0.89558829580E+03 0.  0.
         23    2    4    4    0    0 -0.45929154230E+01  0.18001262409E+03 -0.51396771774E+03  0.55228897400E+03  0.91840384468E+02 0.  0.
         23    2    4    4    0    0  0.12817763021E+03  0.86100770019E+03  0.11593658198E+03  0.88280812303E+03  0.90250353873E+02 0.  0.
          2    1    3    3  502    0 -0.35512996154E+02 -0.13910135903E+03  0.13802683151E+03  0.19915262287E+03  0.00000000000E+00 0. -1.
         -1    1    3    3    0  502 -0.88071718629E+02 -0.90191896525E+03  0.10779323937E+04  0.14082445430E+04  0.00000000000E+00 0.  1.
         13    1    5    5    0    0  0.14382359763E+01  0.21946399419E+02 -0.19516854238E+03  0.19640385155E+03  0.00000000000E+00 0.  1.
        -13    1    5    5    0    0 -0.60311513993E+01  0.15806622467E+03 -0.31879917536E+03  0.35588512244E+03  0.00000000000E+00 0. -1.
          2    1    6    6  503    0  0.13899537011E+03  0.81861741294E+03  0.11961380187E+03  0.83890502637E+03  0.00000000000E+00 0. -1.
         -2    1    6    6    0  503 -0.10817739902E+02  0.42390287255E+02 -0.36772198896E+01  0.43903096659E+02  0.00000000000E+00 0.  1.
<mgrwt>
<rscale>  0 0.29304889E+04</rscale>
<asrwt>0</asrwt>
<pdfrwt beam="1">  1        2 0.29695557E+00 0.29304889E+04</pdfrwt>
<pdfrwt beam="2">  1       -1 0.17112047E+00 0.29304889E+04</pdfrwt>
<totfact> 0.17277173E+00</totfact>
</mgrwt>
</event>
<event>
12    7  0.1741211E-007  0.1142164E+04  0.7818608E-02  0.9165043E-01
          2   -1    0    0  501    0  0.00000000000E+00  0.00000000000E+00  0.10317629451E+04  0.10317629451E+04  0.00000000000E+00 0. -1.
         -1   -1    0    0    0  501 -0.00000000000E+00 -0.00000000000E+00 -0.31609464733E+03  0.31609464733E+03  0.00000000000E+00 0.  1.
         24    2    1    2    0    0 -0.98336864593E+02 -0.17088463358E+03  0.56832920200E+02  0.22076869752E+03  0.81468644606E+02 0.  0.
        254    2    1    2    0    0  0.98336864593E+02  0.17088463358E+03  0.65883537760E+03  0.11270888949E+04  0.89296899465E+03 0.  0.
         23    2    4    4    0    0  0.47218218089E+03  0.21586315990E+03  0.40221209877E+03  0.66317196683E+03  0.92030263705E+02 0.  0.
         23    2    4    4    0    0 -0.37384531630E+03 -0.44978526324E+02  0.25662327883E+03  0.46391692812E+03  0.87063313779E+02 0.  0.
          4    1    3    3  502    0 -0.56916813670E+02 -0.48374838868E+02  0.52633883340E+02  0.91378194277E+02  0.00000000000E+00 0. -1.
         -3    1    3    3    0  502 -0.41420050923E+02 -0.12250979471E+03  0.41990368603E+01  0.12939050324E+03  0.00000000000E+00 0.  1.
         13    1    5    5    0    0  0.64631830612E+01 -0.69769300523E+00 -0.46057828310E+01  0.79669784924E+01  0.00000000000E+00 0.  1.
        -13    1    5    5    0    0  0.46571899783E+03  0.21656085290E+03  0.40681788160E+03  0.65520498834E+03  0.00000000000E+00 0. -1.
          4    1    6    6  503    0 -0.74310649976E+02  0.21437728164E+02  0.32143521896E+02  0.83754730544E+02  0.00000000000E+00 0.  1.
         -4    1    6    6    0  503 -0.29953466633E+03 -0.66416254487E+02  0.22447975693E+03  0.38016219757E+03  0.00000000000E+00 0. -1.
<mgrwt>
<rscale>  0 0.11421642E+04</rscale>
<asrwt>0</asrwt>
<pdfrwt beam="1">  1        2 0.15873276E+00 0.11421642E+04</pdfrwt>
<pdfrwt beam="2">  1       -1 0.48629946E-01 0.11421642E+04</pdfrwt>
<totfact> 0.11484614E+02</totfact>
</mgrwt>
</event>
<event>
12    7  0.1741211E-007  0.1666588E+04  0.7818608E-02  0.8780653E-01
          2   -1    0    0  501    0  0.00000000000E+00  0.00000000000E+00  0.21394527320E+04  0.21394527320E+04  0.00000000000E+00 0. -1.
         -1   -1    0    0    0  501 -0.00000000000E+00 -0.00000000000E+00 -0.32455903953E+03  0.32455903953E+03  0.00000000000E+00 0.  1.
         24    2    1    2    0    0  0.33693022485E+03 -0.34674441069E-01  0.13395005550E+04  0.13835644893E+04  0.80417544893E+02 0.  0.
        254    2    1    2    0    0 -0.33693022485E+03  0.34674441069E-01  0.47539313745E+03  0.10804472822E+04  0.90986027331E+03 0.  0.
         23    2    4    4    0    0  0.27335064038E+02  0.40255633090E+03  0.14214359538E+03  0.43689290991E+03  0.88723208617E+02 0.  0.
         23    2    4    4    0    0 -0.36426528888E+03 -0.40252165646E+03  0.33324954207E+03  0.64355437232E+03  0.91619256935E+02 0.  0.
          2    1    3    3  502    0  0.17308706220E+03 -0.95392486880E+01  0.53116380953E+03  0.55873528699E+03  0.00000000000E+00 0. -1.
         -1    1    3    3    0  502  0.16384316264E+03  0.95045742470E+01  0.80833674550E+03  0.82482920232E+03  0.00000000000E+00 0.  1.
         13    1    5    5    0    0  0.25506377299E+02  0.19009148686E+03  0.22660863918E+02  0.19312913663E+03  0.00000000000E+00 0. -1.
        -13    1    5    5    0    0  0.18286867390E+01  0.21246484404E+03  0.11948273146E+03  0.24376377329E+03  0.00000000000E+00 0.  1.
          3    1    6    6  503    0 -0.12354395675E+03 -0.17054520753E+03  0.17439228375E+03  0.27342539328E+03  0.00000000000E+00 0. -1.
         -3    1    6    6    0  503 -0.24072133214E+03 -0.23197644894E+03  0.15885725831E+03  0.37012897904E+03  0.00000000000E+00 0.  1.
<mgrwt>
<rscale>  0 0.16665878E+04</rscale>
<asrwt>0</asrwt>
<pdfrwt beam="1">  1        2 0.32914657E+00 0.16665878E+04</pdfrwt>
<pdfrwt beam="2">  1       -1 0.49932161E-01 0.16665878E+04</pdfrwt>
<totfact> 0.24429026E+01</totfact>
</mgrwt>
</event>
<event>
12    7  0.1741211E-007  0.2385877E+04  0.7818608E-02  0.8444810E-01
          2   -1    0    0  501    0  0.00000000000E+00  0.00000000000E+00  0.12064536332E+04  0.12064536332E+04  0.00000000000E+00 0. -1.
         -1   -1    0    0    0  501 -0.00000000000E+00 -0.00000000000E+00 -0.11795748351E+04  0.11795748351E+04  0.00000000000E+00 0.  1.
         24    2    1    2    0    0 -0.35382702251E+03 -0.93225329256E+03 -0.23743261627E+03  0.10277625252E+04  0.75045303231E+02 0.  0.
        254    2    1    2    0    0  0.35382702251E+03  0.93225329256E+03  0.26431141431E+03  0.13582659431E+04  0.88359271455E+03 0.  0.
         23    2    4    4    0    0 -0.11530454691E+03 -0.10646806606E+03 -0.13710197237E+02  0.18154576973E+03  0.90223663035E+02 0.  0.
         23    2    4    4    0    0  0.46913156942E+03  0.10387213586E+04  0.27802161154E+03  0.11767201734E+04  0.91366622602E+02 0.  0.
          4    1    3    3  502    0 -0.30520065460E+03 -0.79881748301E+03 -0.17617522632E+03  0.87309479503E+03  0.00000000000E+00 0. -1.
         -3    1    3    3    0  502 -0.48626367909E+02 -0.13343580955E+03 -0.61257389945E+02  0.15466773015E+03  0.00000000000E+00 0.  1.
         13    1    5    5    0    0 -0.86519353565E+02 -0.84540948511E+02  0.30168416785E+02  0.12467118307E+03  0.00000000000E+00 0.  1.
        -13    1    5    5    0    0 -0.28785193341E+02 -0.21927117550E+02 -0.43878614022E+02  0.56874586664E+02  0.00000000000E+00 0. -1.
          1    1    6    6  503    0  0.16651928776E+02  0.23820379231E+02 -0.62677395022E+01  0.29731830706E+02  0.00000000000E+00 0. -1.
         -1    1    6    6    0  503  0.45247964064E+03  0.10149009794E+04  0.28428935104E+03  0.11469883427E+04  0.00000000000E+00 0.  1.
<mgrwt>
<rscale>  0 0.23858771E+04</rscale>
<asrwt>0</asrwt>
<pdfrwt beam="1">  1        2 0.18560825E+00 0.23858771E+04</pdfrwt>
<pdfrwt beam="2">  1       -1 0.18147305E+00 0.23858771E+04</pdfrwt>
<totfact> 0.39126469E+00</totfact>
</mgrwt>
</event>
<event>
12    7  0.1741211E-007  0.1444535E+04  0.7818608E-02  0.8922198E-01
          2   -1    0    0  501    0  0.00000000000E+00  0.00000000000E+00  0.65044354274E+03  0.65044354274E+03  0.00000000000E+00 0. -1.
         -1   -1    0    0    0  501 -0.00000000000E+00 -0.00000000000E+00 -0.80202221842E+03  0.80202221842E+03  0.00000000000E+00 0.  1.
         24    2    1    2    0    0  0.28522932639E+03  0.31374131967E+03 -0.12305123822E+03  0.44899873026E+03  0.81663138841E+02 0.  0.
        254    2    1    2    0    0 -0.28522932639E+03 -0.31374131967E+03 -0.28527437468E+02  0.10034670309E+04  0.90903403848E+03 0.  0.
         23    2    4    4    0    0  0.25833405193E+03 -0.11014512739E+03  0.21776708084E+03  0.36629240356E+03  0.88764812499E+02 0.  0.
         23    2    4    4    0    0 -0.54356337832E+03 -0.20359619228E+03 -0.24629451831E+03  0.63717462734E+03  0.91749442575E+02 0.  0.
          4    1    3    3  502    0  0.27346837770E+03  0.31006574214E+03 -0.10400299342E+03  0.42631249183E+03  0.00000000000E+00 0. -1.
         -3    1    3    3    0  502  0.11760948690E+02  0.36755775347E+01 -0.19048244796E+02  0.22686238430E+02  0.00000000000E+00 0.  1.
         13    1    5    5    0    0  0.13589338655E+03 -0.98661618876E+01  0.98956973690E+02  0.16839488205E+03  0.00000000000E+00 0. -1.
        -13    1    5    5    0    0  0.12244066538E+03 -0.10027896551E+03  0.11881010715E+03  0.19789752151E+03  0.00000000000E+00 0.  1.
          3    1    6    6  503    0 -0.51194812422E+03 -0.18815748038E+03 -0.20441403864E+03  0.58247679654E+03  0.00000000000E+00 0. -1.
         -3    1    6    6    0  503 -0.31615254102E+02 -0.15438711895E+02 -0.41880479663E+02  0.54697830796E+02  0.00000000000E+00 0.  1.
<mgrwt>
<rscale>  0 0.14445348E+04</rscale>
<asrwt>0</asrwt>
<pdfrwt beam="1">  1        2 0.10006824E+00 0.14445348E+04</pdfrwt>
<pdfrwt beam="2">  1       -1 0.12338803E+00 0.14445348E+04</pdfrwt>
<totfact> 0.28788444E+01</totfact>
</mgrwt>
</event>
<event>
12    7  0.1741211E-007  0.4812708E+04  0.7818608E-02  0.7858067E-01
          2   -1    0    0  501    0  0.00000000000E+00  0.00000000000E+00  0.23249492705E+04  0.23249492705E+04  0.00000000000E+00 0. -1.
         -1   -1    0    0    0  501 -0.00000000000E+00 -0.00000000000E+00 -0.24906088858E+04  0.24906088858E+04  0.00000000000E+00 0.  1.
         24    2    1    2    0    0  0.78549445513E+03  0.14608443867E+04 -0.17004503592E+04  0.23768786159E+04  0.83382670374E+02 0.  0.
        254    2    1    2    0    0 -0.78549445513E+03 -0.14608443867E+04  0.15347907439E+04  0.24386795403E+04  0.91679191308E+03 0.  0.
         23    2    4    4    0    0 -0.19617049419E+03 -0.42463330255E+03  0.10416978479E+04  0.11455390863E+04  0.91263834257E+02 0.  0.
         23    2    4    4    0    0 -0.58932396094E+03 -0.10362110841E+04  0.49309289598E+03  0.12931404541E+04  0.89640884116E+02 0.  0.
          4    1    3    3  502    0  0.22327721011E+02  0.36504469768E+02 -0.64647813209E+02  0.77527048127E+02  0.00000000000E+00 0. -1.
         -3    1    3    3    0  502  0.76316673412E+03  0.14243399169E+04 -0.16358025460E+04  0.22993515678E+04  0.00000000000E+00 0.  1.
         13    1    5    5    0    0 -0.11040601559E+02 -0.11525046067E+03  0.23737606505E+03  0.26410596326E+03  0.00000000000E+00 0. -1.
        -13    1    5    5    0    0 -0.18512989263E+03 -0.30938284188E+03  0.80432178283E+03  0.88143312300E+03  0.00000000000E+00 0.  1.
          4    1    6    6  503    0 -0.17015135323E+02 -0.14351263784E+02 -0.26319293903E+00  0.22260792276E+02  0.00000000000E+00 0. -1.
         -4    1    6    6    0  503 -0.57230882561E+03 -0.10218598203E+04  0.49335608892E+03  0.12708796618E+04  0.00000000000E+00 0.  1.
<mgrwt>
<rscale>  0 0.48127079E+04</rscale>
<asrwt>0</asrwt>
<pdfrwt beam="1">  1        2 0.35768450E+00 0.48127079E+04</pdfrwt>
<pdfrwt beam="2">  1       -1 0.38317060E+00 0.48127079E+04</pdfrwt>
<totfact> 0.34362465E-02</totfact>
</mgrwt>
</event>
<event>
12    7  0.1741211E-007  0.1895309E+04  0.7818608E-02  0.8657195E-01
         -1   -1    0    0    0  501 -0.00000000000E+00  0.00000000000E+00  0.28551091313E+03  0.28551091313E+03  0.00000000000E+00 0.  1.
          2   -1    0    0  501    0  0.00000000000E+00 -0.00000000000E+00 -0.31454122023E+04  0.31454122023E+04  0.00000000000E+00 0. -1.
         24    2    1    2    0    0  0.16672743318E+03 -0.32338260204E+02 -0.24031343736E+04  0.24104841688E+04  0.80841269136E+02 0.  0.
        254    2    1    2    0    0 -0.16672743318E+03  0.32338260204E+02 -0.45676691562E+03  0.10204389466E+04  0.89655776640E+03 0.  0.
         23    2    4    4    0    0 -0.20797900502E+03  0.85312472459E+02 -0.70577258039E+03  0.74646476587E+03  0.92526898678E+02 0.  0.
         23    2    4    4    0    0  0.41251571843E+02 -0.52974212254E+02  0.24900566476E+03  0.27397418073E+03  0.92466595487E+02 0.  0.
          4    1    3    3  502    0  0.13830800951E+03 -0.75733435120E+01 -0.21608384075E+04  0.21652734433E+04  0.00000000000E+00 0. -1.
         -3    1    3    3    0  502  0.28419423672E+02 -0.24764916692E+02 -0.24229596610E+03  0.24521072555E+03  0.00000000000E+00 0.  1.
         13    1    5    5    0    0 -0.12867531258E+03  0.76711856812E+02 -0.56642841123E+03  0.58590373791E+03  0.00000000000E+00 0.  1.
        -13    1    5    5    0    0 -0.79303692441E+02  0.86006156464E+01 -0.13934416916E+03  0.16056102797E+03  0.00000000000E+00 0. -1.
          1    1    6    6  503    0 -0.26539814721E+02  0.22540085886E+01  0.65156727295E+02  0.70390634547E+02  0.00000000000E+00 0. -1.
         -1    1    6    6    0  503  0.67791386564E+02 -0.55228220843E+02  0.18384893747E+03  0.20358354618E+03  0.00000000000E+00 0.  1.
<mgrwt>
<rscale>  0 0.18953095E+04</rscale>
<asrwt>0</asrwt>
<pdfrwt beam="1">  1        2 0.48390956E+00 0.18953095E+04</pdfrwt>
<pdfrwt beam="2">  1       -1 0.43924757E-01 0.18953095E+04</pdfrwt>
<totfact> 0.77198297E+00</totfact>
</mgrwt>
</event>
<event>
12    7  0.1741211E-007  0.2203496E+04  0.7818608E-02  0.8516975E-01
          2   -1    0    0  501    0  0.00000000000E+00  0.00000000000E+00  0.29719696280E+04  0.29719696280E+04  0.00000000000E+00 0. -1.
         -1   -1    0    0    0  501 -0.00000000000E+00 -0.00000000000E+00 -0.40843229965E+03  0.40843229965E+03  0.00000000000E+00 0.  1.
         24    2    1    2    0    0  0.20967453873E+03  0.72805507483E+02 -0.29289947063E+03  0.37614445652E+03  0.80190386979E+02 0.  0.
        254    2    1    2    0    0 -0.20967453873E+03 -0.72805507483E+02  0.28564367990E+04  0.30042574712E+04  0.90391797870E+03 0.  0.
         23    2    4    4    0    0  0.13753134377E+03  0.32046177284E+03  0.75911051598E+03  0.84038479575E+03  0.91581718141E+02 0.  0.
         23    2    4    4    0    0 -0.34720588250E+03 -0.39326728032E+03  0.20973262830E+04  0.21638726754E+04  0.91413014839E+02 0.  0.
          2    1    3    3  502    0  0.39755580692E+02  0.34332683178E+02 -0.29223779711E+02  0.60110470227E+02  0.00000000000E+00 0. -1.
         -1    1    3    3    0  502  0.16991895804E+03  0.38472824305E+02 -0.26367569091E+03  0.31603398629E+03  0.00000000000E+00 0.  1.
         13    1    5    5    0    0  0.34990617226E+02  0.18792159075E+03  0.44638584784E+03  0.48559159045E+03  0.00000000000E+00 0. -1.
        -13    1    5    5    0    0  0.10254072655E+03  0.13254018209E+03  0.31272466814E+03  0.35479320530E+03  0.00000000000E+00 0.  1.
          1    1    6    6  503    0 -0.21485887557E+03 -0.29227165617E+03  0.13213240824E+04  0.13702132637E+04  0.00000000000E+00 0. -1.
         -1    1    6    6    0  503 -0.13234700693E+03 -0.10099562415E+03  0.77600220063E+03  0.79365941167E+03  0.00000000000E+00 0.  1.
<mgrwt>
<rscale>  0 0.22034958E+04</rscale>
<asrwt>0</asrwt>
<pdfrwt beam="1">  1        2 0.45722608E+00 0.22034958E+04</pdfrwt>
<pdfrwt beam="2">  1       -1 0.62835740E-01 0.22034958E+04</pdfrwt>
<totfact> 0.48476988E+00</totfact>
</mgrwt>
</event>
<event>
12    7  0.2802558E-007  0.2619445E+04  0.7818608E-02  0.8361626E-01
         -1   -1    0    0    0  501 -0.00000000000E+00  0.00000000000E+00  0.12185716178E+04  0.12185716178E+04  0.00000000000E+00 0.  1.
          2   -1    0    0  501    0  0.00000000000E+00 -0.00000000000E+00 -0.14076914360E+04  0.14076914360E+04  0.00000000000E+00 0. -1.
         24    2    1    2    0    0 -0.49243946195E+03  0.75553378948E+03 -0.80209132527E+03  0.12094464648E+04  0.77989271859E+02 0.  0.
        254    2    1    2    0    0  0.49243946195E+03 -0.75553378948E+03  0.61297150703E+03  0.14168165889E+04  0.90460336472E+03 0.  0.
         23    2    4    4    0    0  0.66018816651E+03 -0.22291930690E+03  0.25848212921E+03  0.74882576708E+03  0.91572843903E+02 0.  0.
         23    2    4    4    0    0 -0.16774870456E+03 -0.53261448258E+03  0.35448937782E+03  0.66799082183E+03  0.93440912489E+02 0.  0.
          4    1    3    3  502    0 -0.47798100770E+03  0.75043901205E+03 -0.79122602938E+03  0.11906566189E+04  0.00000000000E+00 0. -1.
         -3    1    3    3    0  502 -0.14458454257E+02  0.50947774300E+01 -0.10865295890E+02  0.18789845964E+02  0.00000000000E+00 0.  1.
         13    1    5    5    0    0  0.52431794379E+03 -0.14469370999E+03  0.17606703363E+03  0.57170374865E+03  0.00000000000E+00 0. -1.
        -13    1    5    5    0    0  0.13587022272E+03 -0.78225596914E+02  0.82415095582E+02  0.17712201843E+03  0.00000000000E+00 0.  1.
          4    1    6    6  503    0 -0.13846762543E+03 -0.51134010450E+03  0.33626320718E+03  0.62746707504E+03  0.00000000000E+00 0. -1.
         -4    1    6    6    0  503 -0.29281079122E+02 -0.21274378081E+02  0.18226170646E+02  0.40523746788E+02  0.00000000000E+00 0.  1.
<mgrwt>
<rscale>  0 0.26194448E+04</rscale>
<asrwt>0</asrwt>
<pdfrwt beam="1">  1        2 0.21656791E+00 0.26194448E+04</pdfrwt>
<pdfrwt beam="2">  1       -1 0.18747256E+00 0.26194448E+04</pdfrwt>
<totfact> 0.26530047E+00</totfact>
</mgrwt>
</event>
<event>
12    7  0.1741211E-007  0.1371822E+04  0.7818608E-02  0.8974472E-01
         -1   -1    0    0    0  501 -0.00000000000E+00  0.00000000000E+00  0.28362912685E+03  0.28362912685E+03  0.00000000000E+00 0.  1.
          2   -1    0    0  501    0  0.00000000000E+00 -0.00000000000E+00 -0.16587645653E+04  0.16587645653E+04  0.00000000000E+00 0. -1.
         24    2    1    2    0    0  0.11192120655E+02  0.26398099454E+03 -0.73728481886E+03  0.78751460041E+03  0.82335367271E+02 0.  0.
        254    2    1    2    0    0 -0.11192120655E+02 -0.26398099454E+03 -0.63785061960E+03  0.11548790917E+04  0.92578673276E+03 0.  0.
         23    2    4    4    0    0  0.41867843437E+03 -0.29760355305E+03 -0.37230687375E+03  0.64047498883E+03  0.87956221401E+02 0.  0.
         23    2    4    4    0    0 -0.42987055503E+03  0.33622558516E+02 -0.26554374585E+03  0.51440410290E+03  0.90437434728E+02 0.  0.
          2    1    3    3  502    0  0.38420891057E+02  0.22093463412E+03 -0.63079055270E+03  0.66946620438E+03  0.00000000000E+00 0. -1.
         -1    1    3    3    0  502 -0.27228770402E+02  0.43046360422E+02 -0.10649426615E+03  0.11804839603E+03  0.00000000000E+00 0.  1.
         13    1    5    5    0    0  0.81282635984E+01  0.38739281487E+01 -0.17645783684E+02  0.19810342507E+02  0.00000000000E+00 0. -1.
        -13    1    5    5    0    0  0.41055017077E+03 -0.30147748120E+03 -0.35466109006E+03  0.62066464633E+03  0.00000000000E+00 0.  1.
          3    1    6    6  503    0 -0.51186437507E+02 -0.25678511686E+02 -0.34624499889E+02  0.66920051850E+02  0.00000000000E+00 0. -1.
         -3    1    6    6    0  503 -0.37868411752E+03  0.59301070202E+02 -0.23091924596E+03  0.44748405105E+03  0.00000000000E+00 0.  1.
<mgrwt>
<rscale>  0 0.13718221E+04</rscale>
<asrwt>0</asrwt>
<pdfrwt beam="1">  1        2 0.25519455E+00 0.13718221E+04</pdfrwt>
<pdfrwt beam="2">  1       -1 0.43635250E-01 0.13718221E+04</pdfrwt>
<totfact> 0.59586430E+01</totfact>
</mgrwt>
</event>
<event>
12    7  0.1741211E-007  0.1579781E+04  0.7818608E-02  0.8833066E-01
         -1   -1    0    0    0  501 -0.00000000000E+00  0.00000000000E+00  0.25799403145E+03  0.25799403145E+03  0.00000000000E+00 0.  1.
          2   -1    0    0  501    0  0.00000000000E+00 -0.00000000000E+00 -0.24183785636E+04  0.24183785636E+04  0.00000000000E+00 0. -1.
         24    2    1    2    0    0 -0.95356638725E+01  0.17958472184E+03 -0.15401795758E+04  0.15527302758E+04  0.80477216384E+02 0.  0.
        254    2    1    2    0    0  0.95356638725E+01 -0.17958472184E+03 -0.62020495629E+03  0.11236423192E+04  0.91955221305E+03 0.  0.
         23    2    4    4    0    0 -0.97676158750E+02  0.24080059678E+03  0.87484150724E+02  0.28862697472E+03  0.90147071545E+02 0.  0.
         23    2    4    4    0    0  0.10721182262E+03 -0.42038531862E+03 -0.70768910702E+03  0.83501534450E+03  0.90601116702E+02 0.  0.
          4    1    3    3  502    0 -0.36036723846E+02  0.15993754936E+03 -0.12989152832E+04  0.13092209814E+04  0.00000000000E+00 0. -1.
         -3    1    3    3    0  502  0.26501059973E+02  0.19647172475E+02 -0.24126429259E+03  0.24350929437E+03  0.00000000000E+00 0.  1.
         13    1    5    5    0    0 -0.78011004008E+02  0.10494822881E+03  0.75109231380E+02  0.15080200302E+03  0.00000000000E+00 0.  1.
        -13    1    5    5    0    0 -0.19665154742E+02  0.13585236797E+03  0.12374919344E+02  0.13782497169E+03  0.00000000000E+00 0. -1.
          2    1    6    6  503    0  0.12334051530E+03 -0.36126333552E+03 -0.60137197848E+03  0.71230073481E+03  0.00000000000E+00 0.  1.
         -2    1    6    6    0  503 -0.16128692676E+02 -0.59121983093E+02 -0.10631712854E+03  0.12271460970E+03  0.00000000000E+00 0. -1.
<mgrwt>
<rscale>  0 0.15797813E+04</rscale>
<asrwt>0</asrwt>
<pdfrwt beam="1">  1        2 0.37205825E+00 0.15797813E+04</pdfrwt>
<pdfrwt beam="2">  1       -1 0.39691388E-01 0.15797813E+04</pdfrwt>
<totfact> 0.26265742E+01</totfact>
</mgrwt>
</event>
<event>
12    7  0.1741211E-007  0.1873409E+04  0.7818608E-02  0.8668207E-01
         -1   -1    0    0    0  501 -0.00000000000E+00  0.00000000000E+00  0.25161905199E+03  0.25161905199E+03  0.00000000000E+00 0.  1.
          2   -1    0    0  501    0  0.00000000000E+00 -0.00000000000E+00 -0.34870792892E+04  0.34870792892E+04  0.00000000000E+00 0. -1.
         24    2    1    2    0    0  0.49191865387E+03 -0.51203706998E+03 -0.10846470373E+04  0.12989429474E+04  0.81410453110E+02 0.  0.
        254    2    1    2    0    0 -0.49191865387E+03  0.51203706998E+03 -0.21508131999E+04  0.24397553938E+04  0.90677617844E+03 0.  0.
         23    2    4    4    0    0 -0.27678957999E+03 -0.13611061086E+03 -0.13286136372E+04  0.13670288864E+04  0.91734450305E+02 0.  0.
         23    2    4    4    0    0 -0.21512907387E+03  0.64814768084E+03 -0.82219956266E+03  0.10727265074E+04  0.91400788656E+02 0.  0.
          4    1    3    3  502    0  0.45261955930E+03 -0.44601229556E+03 -0.99806124044E+03  0.11831811666E+04  0.00000000000E+00 0. -1.
         -3    1    3    3    0  502  0.39299094564E+02 -0.66024774420E+02 -0.86585796875E+02  0.11576178079E+03  0.00000000000E+00 0.  1.
         13    1    5    5    0    0  0.45874416888E+01 -0.79467017279E+01 -0.15568674959E+02  0.18071478345E+02  0.00000000000E+00 0. -1.
        -13    1    5    5    0    0 -0.28137702168E+03 -0.12816390913E+03 -0.13130449623E+04  0.13489574081E+04  0.00000000000E+00 0.  1.
          3    1    6    6  503    0 -0.12083032129E+02  0.14776213118E+03 -0.19803382736E+03  0.24738036272E+03  0.00000000000E+00 0. -1.
         -3    1    6    6    0  503 -0.20304604174E+03  0.50038554966E+03 -0.62416573530E+03  0.82534614465E+03  0.00000000000E+00 0.  1.
<mgrwt>
<rscale>  0 0.18734093E+04</rscale>
<asrwt>0</asrwt>
<pdfrwt beam="1">  1        2 0.53647372E+00 0.18734093E+04</pdfrwt>
<pdfrwt beam="2">  1       -1 0.38710624E-01 0.18734093E+04</pdfrwt>
<totfact> 0.57758272E+00</totfact>
</mgrwt>
</event>
<event>
12    7  0.1741211E-007  0.1376838E+04  0.7818608E-02  0.8970757E-01
          2   -1    0    0  501    0  0.00000000000E+00  0.00000000000E+00  0.18653760260E+04  0.18653760260E+04  0.00000000000E+00 0. -1.
         -1   -1    0    0    0  501 -0.00000000000E+00 -0.00000000000E+00 -0.25406180263E+03  0.25406180263E+03  0.00000000000E+00 0.  1.
         24    2    1    2    0    0 -0.16962521157E+03  0.23833636677E+03  0.65722100059E+02  0.31071474884E+03  0.81531126446E+02 0.  0.
        254    2    1    2    0    0  0.16962521157E+03 -0.23833636677E+03  0.15455921233E+04  0.18087230798E+04  0.89277501734E+03 0.  0.
         23    2    4    4    0    0  0.51534590355E+03 -0.13195039312E+03  0.11150035880E+04  0.12386991980E+04  0.90279540472E+02 0.  0.
         23    2    4    4    0    0 -0.34572069198E+03 -0.10638597365E+03  0.43058853534E+03  0.57002388177E+03  0.93166339246E+02 0.  0.
          2    1    3    3  502    0 -0.64825255161E+02  0.13811765102E+03  0.64646537063E+02  0.16570447786E+03  0.00000000000E+00 0. -1.
         -1    1    3    3    0  502 -0.10479995641E+03  0.10021871575E+03  0.10755629958E+01  0.14501027097E+03  0.00000000000E+00 0.  1.
         13    1    5    5    0    0  0.43566078569E+03 -0.76453013838E+02  0.90279524258E+03  0.10053281223E+04  0.00000000000E+00 0. -1.
        -13    1    5    5    0    0  0.79685117862E+02 -0.55497379286E+02  0.21220834537E+03  0.23337107567E+03  0.00000000000E+00 0.  1.
          3    1    6    6  503    0 -0.33644755981E+03 -0.80392038305E+02  0.39970726485E+03  0.52860735703E+03  0.00000000000E+00 0. -1.
         -3    1    6    6    0  503 -0.92731321701E+01 -0.25993935346E+02  0.30881270492E+02  0.41416524748E+02  0.00000000000E+00 0.  1.
<mgrwt>
<rscale>  0 0.13768381E+04</rscale>
<asrwt>0</asrwt>
<pdfrwt beam="1">  1        2 0.28698092E+00 0.13768381E+04</pdfrwt>
<pdfrwt beam="2">  1       -1 0.39086432E-01 0.13768381E+04</pdfrwt>
<totfact> 0.56023357E+01</totfact>
</mgrwt>
</event>
<event>
12    7  0.1741211E-007  0.1401149E+04  0.7818608E-02  0.8952987E-01
          2   -1    0    0  501    0  0.00000000000E+00  0.00000000000E+00  0.17020905453E+04  0.17020905453E+04  0.00000000000E+00 0. -1.
         -1   -1    0    0    0  501 -0.00000000000E+00 -0.00000000000E+00 -0.28835418572E+03  0.28835418572E+03  0.00000000000E+00 0.  1.
         24    2    1    2    0    0 -0.16657657293E+02 -0.39680046283E+03  0.26904049332E+03  0.48451720661E+03  0.68161951291E+02 0.  0.
        254    2    1    2    0    0  0.16657657293E+02  0.39680046283E+03  0.11446958663E+04  0.15059275244E+04  0.89429357467E+03 0.  0.
         23    2    4    4    0    0  0.38239755079E+03  0.32562586391E+03  0.33378565620E+03  0.60891205914E+03  0.84267083637E+02 0.  0.
         23    2    4    4    0    0 -0.36573989349E+03  0.71174598920E+02  0.81091021008E+03  0.89701546528E+03  0.90718702187E+02 0.  0.
          2    1    3    3  502    0 -0.77622076888E+00 -0.37033852355E+03  0.23518546210E+03  0.43870653759E+03  0.00000000000E+00 0. -1.
         -1    1    3    3    0  502 -0.15881436524E+02 -0.26461939282E+02  0.33855031226E+02  0.45810669018E+02  0.00000000000E+00 0.  1.
         13    1    5    5    0    0  0.75457483677E+02  0.10136080396E+03  0.11167573872E+03  0.16863960105E+03  0.00000000000E+00 0. -1.
        -13    1    5    5    0    0  0.30694006711E+03  0.22426505995E+03  0.22210991748E+03  0.44027245809E+03  0.00000000000E+00 0.  1.
          3    1    6    6  503    0 -0.11321420332E+02  0.18425873940E+02  0.23660297491E+02  0.32054595086E+02  0.00000000000E+00 0. -1.
         -3    1    6    6    0  503 -0.35441847316E+03  0.52748724979E+02  0.78724991259E+03  0.86496087020E+03  0.00000000000E+00 0.  1.
<mgrwt>
<rscale>  0 0.14011494E+04</rscale>
<asrwt>0</asrwt>
<pdfrwt beam="1">  1        2 0.26186008E+00 0.14011494E+04</pdfrwt>
<pdfrwt beam="2">  1       -1 0.44362184E-01 0.14011494E+04</pdfrwt>
<totfact> 0.54542671E+01</totfact>
</mgrwt>
</event>
<event>
12    7  0.1741211E-007  0.1625836E+04  0.7818608E-02  0.8804831E-01
          2   -1    0    0  501    0  0.00000000000E+00  0.00000000000E+00  0.61205780659E+03  0.61205780659E+03  0.00000000000E+00 0. -1.
         -1   -1    0    0    0  501 -0.00000000000E+00 -0.00000000000E+00 -0.10796952236E+04  0.10796952236E+04  0.00000000000E+00 0.  1.
         24    2    1    2    0    0 -0.39862020785E+03 -0.33464328997E+03  0.53636952961E+02  0.52877109476E+03  0.76405145739E+02 0.  0.
        254    2    1    2    0    0  0.39862020785E+03  0.33464328997E+03 -0.52127436998E+03  0.11629819354E+04  0.89995322752E+03 0.  0.
         23    2    4    4    0    0 -0.50572957737E+02  0.19907970740E+03  0.19783137515E+03  0.29955449357E+03  0.91680355975E+02 0.  0.
         23    2    4    4    0    0  0.44919316559E+03  0.13556358256E+03 -0.71910574513E+03  0.86342744187E+03  0.90784854208E+02 0.  0.
          4    1    3    3  502    0 -0.34254362831E+03 -0.24823745604E+03  0.42569561172E+02  0.42517071797E+03  0.00000000000E+00 0. -1.
         -3    1    3    3    0  502 -0.56076579546E+02 -0.86405833926E+02  0.11067391789E+02  0.10360037679E+03  0.00000000000E+00 0.  1.
         13    1    5    5    0    0  0.37782163889E+01  0.84030550419E+02  0.13139510520E+03  0.15601308277E+03  0.00000000000E+00 0. -1.
        -13    1    5    5    0    0 -0.54351174126E+02  0.11504915699E+03  0.66436269946E+02  0.14354141081E+03  0.00000000000E+00 0.  1.
          4    1    6    6  503    0  0.41484034408E+03  0.10297348711E+03 -0.67351040521E+03  0.79769186786E+03  0.00000000000E+00 0. -1.
         -4    1    6    6    0  503  0.34352821511E+02  0.32590095451E+02 -0.45595339925E+02  0.65735574008E+02  0.00000000000E+00 0.  1.
<mgrwt>
<rscale>  0 0.16258363E+04</rscale>
<asrwt>0</asrwt>
<pdfrwt beam="1">  1        2 0.94162740E-01 0.16258363E+04</pdfrwt>
<pdfrwt beam="2">  1       -1 0.16610696E+00 0.16258363E+04</pdfrwt>
<totfact> 0.13917325E+01</totfact>
</mgrwt>
</event>
<event>
12    7  0.1741211E-007  0.4153288E+04  0.7818608E-02  0.7974318E-01
          2   -1    0    0  501    0  0.00000000000E+00  0.00000000000E+00  0.33694123261E+04  0.33694123261E+04  0.00000000000E+00 0. -1.
         -1   -1    0    0    0  501 -0.00000000000E+00 -0.00000000000E+00 -0.12798818036E+04  0.12798818036E+04  0.00000000000E+00 0.  1.
         24    2    1    2    0    0  0.87117830044E+03  0.14217804187E+04  0.21863194613E+04  0.27506700672E+04  0.76038420359E+02 0.  0.
        254    2    1    2    0    0 -0.87117830044E+03 -0.14217804187E+04 -0.96788938812E+02  0.18986240625E+04  0.90277020432E+03 0.  0.
         23    2    4    4    0    0 -0.87823878222E+03 -0.76817000462E+03 -0.29964377027E+03  0.12083306777E+04  0.94276842946E+02 0.  0.
         23    2    4    4    0    0  0.70604817842E+01 -0.65361041412E+03  0.20285483146E+03  0.69029338476E+03  0.89991391584E+02 0.  0.
          2    1    3    3  502    0  0.82332736429E+03  0.13373532887E+04  0.20282198811E+04  0.25651623056E+04  0.00000000000E+00 0. -1.
         -1    1    3    3    0  502  0.47850936149E+02  0.84427130021E+02  0.15809958017E+03  0.18550776163E+03  0.00000000000E+00 0.  1.
         13    1    5    5    0    0 -0.12201743036E+03 -0.80960895046E+02 -0.63292945353E+02  0.15952716624E+03  0.00000000000E+00 0. -1.
        -13    1    5    5    0    0 -0.75622135186E+03 -0.68720910957E+03 -0.23635082492E+03  0.10488035115E+04  0.00000000000E+00 0.  1.
          3    1    6    6  503    0  0.12302431207E+02 -0.45684976249E+03  0.98496394067E+02  0.46750892499E+03  0.00000000000E+00 0. -1.
         -3    1    6    6    0  503 -0.52419494225E+01 -0.19676065162E+03  0.10435843739E+03  0.22278445977E+03  0.00000000000E+00 0.  1.
<mgrwt>
<rscale>  0 0.41532876E+04</rscale>
<asrwt>0</asrwt>
<pdfrwt beam="1">  1        2 0.51837112E+00 0.41532876E+04</pdfrwt>
<pdfrwt beam="2">  1       -1 0.19690489E+00 0.41532876E+04</pdfrwt>
<totfact> 0.13968480E-01</totfact>
</mgrwt>
</event>
<event>
12    7  0.1741211E-007  0.1896617E+04  0.7818608E-02  0.8656542E-01
         -1   -1    0    0    0  501 -0.00000000000E+00  0.00000000000E+00  0.11641529036E+04  0.11641529036E+04  0.00000000000E+00 0.  1.
          2   -1    0    0  501    0  0.00000000000E+00 -0.00000000000E+00 -0.77248384010E+03  0.77248384010E+03  0.00000000000E+00 0. -1.
         24    2    1    2    0    0  0.24297884488E+03 -0.66114900198E+03  0.34919718167E+03  0.79049238974E+03  0.82357905918E+02 0.  0.
        254    2    1    2    0    0 -0.24297884488E+03  0.66114900198E+03  0.42471881811E+02  0.11461443539E+04  0.90315352928E+03 0.  0.
         23    2    4    4    0    0 -0.42977069145E+03  0.63046325608E+03  0.28961036943E+03  0.82128084478E+03  0.91876522721E+02 0.  0.
         23    2    4    4    0    0  0.18679184657E+03  0.30685745903E+02 -0.24713848762E+03  0.32486350916E+03  0.92876577084E+02 0.  0.
          2    1    3    3  502    0  0.50260425830E+02 -0.22412810175E+03  0.86910676443E+02  0.24558701528E+03  0.00000000000E+00 0. -1.
         -1    1    3    3    0  502  0.19271841905E+03 -0.43702090024E+03  0.26228650523E+03  0.54490537445E+03  0.00000000000E+00 0.  1.
         13    1    5    5    0    0 -0.39141685712E+03  0.56974913830E+03  0.28961979527E+03  0.74946705228E+03  0.00000000000E+00 0.  1.
        -13    1    5    5    0    0 -0.38353834330E+02  0.60714117776E+02 -0.94258393467E-02  0.71813792505E+02  0.00000000000E+00 0. -1.
          1    1    6    6  503    0  0.36990930136E+02  0.45993256879E+02 -0.54328865115E+02  0.80220534624E+02  0.00000000000E+00 0. -1.
         -1    1    6    6    0  503  0.14980091644E+03 -0.15307510976E+02 -0.19280962251E+03  0.24464297454E+03  0.00000000000E+00 0.  1.
<mgrwt>
<rscale>  0 0.18966173E+04</rscale>
<asrwt>0</asrwt>
<pdfrwt beam="1">  1        2 0.11884367E+00 0.18966173E+04</pdfrwt>
<pdfrwt beam="2">  1       -1 0.17910045E+00 0.18966173E+04</pdfrwt>
<totfact> 0.81494060E+00</totfact>
</mgrwt>
</event>
<event>
12    7  0.1741211E-007  0.1570172E+04  0.7818608E-02  0.8839085E-01
         -1   -1    0    0    0  501 -0.00000000000E+00  0.00000000000E+00  0.23844082615E+03  0.23844082615E+03  0.00000000000E+00 0.  1.
          2   -1    0    0  501    0  0.00000000000E+00 -0.00000000000E+00 -0.25849598250E+04  0.25849598250E+04  0.00000000000E+00 0. -1.
         24    2    1    2    0    0  0.25145002745E+03  0.30466967929E+03 -0.16971671000E+03  0.43699477789E+03  0.78166133773E+02 0.  0.
        254    2    1    2    0    0 -0.25145002745E+03 -0.30466967929E+03 -0.21768022889E+04  0.23864058733E+04  0.89465862618E+03 0.  0.
         23    2    4    4    0    0 -0.24880507717E+03 -0.22786777880E+03 -0.19331775286E+03  0.39931564467E+03  0.90848992673E+02 0.  0.
         23    2    4    4    0    0 -0.26449502823E+01 -0.76801900489E+02 -0.19834845360E+04  0.19870902286E+04  0.91712291055E+02 0.  0.
          2    1    3    3  502    0  0.45851040890E+02  0.11128722133E+03 -0.46902709082E+02  0.12917827875E+03  0.00000000000E+00 0. -1.
         -1    1    3    3    0  502  0.20559898656E+03  0.19338245795E+03 -0.12281400092E+03  0.30781649914E+03  0.00000000000E+00 0.  1.
         13    1    5    5    0    0 -0.23349895062E+03 -0.17428027169E+03 -0.17831291157E+03  0.34160045005E+03  0.00000000000E+00 0. -1.
        -13    1    5    5    0    0 -0.15306126549E+02 -0.53587507111E+02 -0.15004841285E+02  0.57715194623E+02  0.00000000000E+00 0.  1.
          4    1    6    6  503    0  0.36720904163E+02 -0.67710762757E+02 -0.14711572326E+04  0.14731723508E+04  0.00000000000E+00 0. -1.
         -4    1    6    6    0  503 -0.39365854445E+02 -0.90911377322E+01 -0.51232730343E+03  0.51391787780E+03  0.00000000000E+00 0.  1.
<mgrwt>
<rscale>  0 0.15701719E+04</rscale>
<asrwt>0</asrwt>
<pdfrwt beam="1">  1        2 0.39768613E+00 0.15701719E+04</pdfrwt>
<pdfrwt beam="2">  1       -1 0.36683204E-01 0.15701719E+04</pdfrwt>
<totfact> 0.24306766E+01</totfact>
</mgrwt>
</event>
<event>
12    7  0.1741211E-007  0.1432666E+04  0.7818608E-02  0.8930507E-01
         -1   -1    0    0    0  501 -0.00000000000E+00  0.00000000000E+00  0.95798171115E+03  0.95798171115E+03  0.00000000000E+00 0.  1.
          2   -1    0    0  501    0  0.00000000000E+00 -0.00000000000E+00 -0.53563964619E+03  0.53563964619E+03  0.00000000000E+00 0. -1.
         24    2    1    2    0    0  0.20744445774E+03  0.10910560482E+03 -0.24872206277E+03  0.35091244735E+03  0.79621888659E+02 0.  0.
        254    2    1    2    0    0 -0.20744445774E+03 -0.10910560482E+03  0.67106412772E+03  0.11427089100E+04  0.89471747127E+03 0.  0.
         23    2    4    4    0    0 -0.47321325119E+03 -0.28704409270E+03  0.27303743233E+03  0.62394522342E+03  0.91831966746E+02 0.  0.
         23    2    4    4    0    0  0.26576879346E+03  0.17793848788E+03  0.39802669538E+03  0.51876368656E+03  0.91626171011E+02 0.  0.
          2    1    3    3  502    0  0.20571008845E+03  0.92509302475E+02 -0.24642949599E+03  0.33406901686E+03  0.00000000000E+00 0. -1.
         -3    1    3    3    0  502  0.17343692911E+01  0.16596302342E+02 -0.22925667713E+01  0.16843430490E+02  0.00000000000E+00 0.  1.
         13    1    5    5    0    0 -0.20163221317E+03 -0.11049670842E+03  0.16301230105E+03  0.28184762240E+03  0.00000000000E+00 0.  1.
        -13    1    5    5    0    0 -0.27158103803E+03 -0.17654738427E+03  0.11002513128E+03  0.34209760102E+03  0.00000000000E+00 0. -1.
          2    1    6    6  503    0  0.27429880409E+02  0.12642375490E+01  0.76468767572E+02  0.81249424920E+02  0.00000000000E+00 0. -1.
         -2    1    6    6    0  503  0.23833891305E+03  0.17667425033E+03  0.32155792781E+03  0.43751426164E+03  0.00000000000E+00 0.  1.
<mgrwt>
<rscale>  0 0.14326660E+04</rscale>
<asrwt>0</asrwt>
<pdfrwt beam="1">  1        2 0.82406099E-01 0.14326660E+04</pdfrwt>
<pdfrwt beam="2">  1       -1 0.14738180E+00 0.14326660E+04</pdfrwt>
<totfact> 0.23067893E+01</totfact>
</mgrwt>
</event>
<event>
12    7  0.1741211E-007  0.1418818E+04  0.7818608E-02  0.8940309E-01
          2   -1    0    0  501    0  0.00000000000E+00  0.00000000000E+00  0.83310686793E+03  0.83310686793E+03  0.00000000000E+00 0. -1.
         -1   -1    0    0    0  501 -0.00000000000E+00 -0.00000000000E+00 -0.60407767865E+03  0.60407767865E+03  0.00000000000E+00 0.  1.
         24    2    1    2    0    0  0.26302842545E+03 -0.30274256065E+03  0.18533280050E+03  0.44884563188E+03  0.79228427275E+02 0.  0.
        254    2    1    2    0    0 -0.26302842545E+03  0.30274256065E+03  0.43696388778E+02  0.98833891470E+03  0.90225685107E+03 0.  0.
         23    2    4    4    0    0 -0.77175160378E+02  0.28176909057E+03 -0.39718329664E+03  0.50104810216E+03  0.89133628737E+02 0.  0.
         23    2    4    4    0    0 -0.18585326508E+03  0.20973470083E+02  0.44087968542E+03  0.48729081254E+03  0.89978421762E+02 0.  0.
          4    1    3    3  502    0  0.19512410588E+03 -0.26788471071E+03  0.16291818077E+03  0.36929387830E+03  0.00000000000E+00 0. -1.
         -3    1    3    3    0  502  0.67904319570E+02 -0.34857849945E+02  0.22414619726E+02  0.79551753573E+02  0.00000000000E+00 0.  1.
         13    1    5    5    0    0 -0.68358704158E+02  0.90337273921E+02 -0.16187327017E+03  0.19757705102E+03  0.00000000000E+00 0. -1.
        -13    1    5    5    0    0 -0.88164562200E+01  0.19143181665E+03 -0.23531002647E+03  0.30347105114E+03  0.00000000000E+00 0.  1.
          3    1    6    6  503    0 -0.12024924798E+03  0.16690330606E+02  0.17225077681E+03  0.21073390541E+03  0.00000000000E+00 0. -1.
         -3    1    6    6    0  503 -0.65604017096E+02  0.42831394768E+01  0.26862890861E+03  0.27655690713E+03  0.00000000000E+00 0.  1.
<mgrwt>
<rscale>  0 0.14188182E+04</rscale>
<asrwt>0</asrwt>
<pdfrwt beam="1">  1        2 0.12817029E+00 0.14188182E+04</pdfrwt>
<pdfrwt beam="2">  1       -1 0.92935027E-01 0.14188182E+04</pdfrwt>
<totfact> 0.40726581E+01</totfact>
</mgrwt>
</event>
<event>
12    7  0.1741211E-007  0.2467584E+04  0.7818608E-02  0.8414626E-01
          2   -1    0    0  501    0  0.00000000000E+00  0.00000000000E+00  0.14232302140E+04  0.14232302140E+04  0.00000000000E+00 0. -1.
         -1   -1    0    0    0  501 -0.00000000000E+00 -0.00000000000E+00 -0.10695686800E+04  0.10695686800E+04  0.00000000000E+00 0.  1.
         24    2    1    2    0    0 -0.52069425971E+02  0.61376066038E+02  0.12327988490E+04  0.12380269925E+04  0.80247027737E+02 0.  0.
        254    2    1    2    0    0  0.52069425971E+02 -0.61376066038E+02 -0.87913731506E+03  0.12547719015E+04  0.89167923577E+03 0.  0.
         23    2    4    4    0    0  0.21113864840E+03  0.88086771749E+02  0.86512827606E+02  0.26055036786E+03  0.89795415504E+02 0.  0.
         23    2    4    4    0    0 -0.15906922243E+03 -0.14946283779E+03 -0.96565014266E+03  0.99422153366E+03  0.91400779860E+02 0.  0.
          4    1    3    3  502    0 -0.18980943126E+02  0.43113867254E+02  0.10642862796E+04  0.10653282906E+04  0.00000000000E+00 0. -1.
         -3    1    3    3    0  502 -0.33088482845E+02  0.18262198785E+02  0.16851256941E+03  0.17269870194E+03  0.00000000000E+00 0.  1.
         13    1    5    5    0    0  0.42439158208E+02  0.25727771606E+02  0.61400876276E+02  0.78949781436E+02  0.00000000000E+00 0.  1.
        -13    1    5    5    0    0  0.16869949019E+03  0.62359000143E+02  0.25111951330E+02  0.18160058642E+03  0.00000000000E+00 0. -1.
          4    1    6    6  503    0 -0.91269112302E+02 -0.78307815857E+02 -0.33441988175E+03  0.35538545580E+03  0.00000000000E+00 0. -1.
         -4    1    6    6    0  503 -0.67800110123E+02 -0.71155021930E+02 -0.63123026091E+03  0.63883607785E+03  0.00000000000E+00 0.  1.
<mgrwt>
<rscale>  0 0.24675838E+04</rscale>
<asrwt>0</asrwt>
<pdfrwt beam="1">  1        2 0.21895850E+00 0.24675838E+04</pdfrwt>
<pdfrwt beam="2">  1       -1 0.16454903E+00 0.24675838E+04</pdfrwt>
<totfact> 0.38615970E+00</totfact>
</mgrwt>
</event>
<event>
12    7  0.1741211E-007  0.3462263E+04  0.7818608E-02  0.8122792E-01
          2   -1    0    0  501    0  0.00000000000E+00  0.00000000000E+00  0.10648304373E+04  0.10648304373E+04  0.00000000000E+00 0. -1.
         -1   -1    0    0    0  501 -0.00000000000E+00 -0.00000000000E+00 -0.28143603443E+04  0.28143603443E+04  0.00000000000E+00 0.  1.
         24    2    1    2    0    0 -0.12014477797E+03  0.15738296985E+04 -0.11365982074E+04  0.19466938930E+04  0.79918334900E+02 0.  0.
        254    2    1    2    0    0  0.12014477797E+03 -0.15738296985E+04 -0.61293169952E+03  0.19324968886E+04  0.93138835541E+03 0.  0.
         23    2    4    4    0    0 -0.14373320142E+03 -0.40712154782E+02 -0.29570563512E+03  0.34233555640E+03  0.86227013156E+02 0.  0.
         23    2    4    4    0    0  0.26387797939E+03 -0.15331175437E+04 -0.31722606440E+03  0.15901613322E+04  0.88880231691E+02 0.  0.
          2    1    3    3  502    0 -0.10233365285E+03  0.11355962807E+04 -0.78062718122E+03  0.13818212205E+04  0.00000000000E+00 0. -1.
         -1    1    3    3    0  502 -0.17811125119E+02  0.43823341781E+03 -0.35597102623E+03  0.56487267254E+03  0.00000000000E+00 0.  1.
         13    1    5    5    0    0 -0.34341941471E+02 -0.19378340427E+02 -0.18484753918E+02  0.43549685982E+02  0.00000000000E+00 0. -1.
        -13    1    5    5    0    0 -0.10939125995E+03 -0.21333814355E+02 -0.27722088120E+03  0.29878587042E+03  0.00000000000E+00 0.  1.
          4    1    6    6  503    0  0.20678354493E+03 -0.97393272239E+03 -0.22135132077E+03  0.10199513662E+04  0.00000000000E+00 0. -1.
         -4    1    6    6    0  503  0.57094434455E+02 -0.55918482135E+03 -0.95874743627E+02  0.57020996601E+03  0.00000000000E+00 0.  1.
<mgrwt>
<rscale>  0 0.34622632E+04</rscale>
<asrwt>0</asrwt>
<pdfrwt beam="1">  1        2 0.16382007E+00 0.34622632E+04</pdfrwt>
<pdfrwt beam="2">  1       -1 0.43297851E+00 0.34622632E+04</pdfrwt>
<totfact> 0.91189519E-02</totfact>
</mgrwt>
</event>
<event>
12    7  0.2310060E-007  0.2099826E+04  0.7818608E-02  0.8561320E-01
         -1   -1    0    0    0  501 -0.00000000000E+00  0.00000000000E+00  0.55303020204E+03  0.55303020204E+03  0.00000000000E+00 0.  1.
          2   -1    0    0  501    0  0.00000000000E+00 -0.00000000000E+00 -0.19932324784E+04  0.19932324784E+04  0.00000000000E+00 0. -1.
         24    2    1    2    0    0  0.66175738587E+03  0.24824129200E+03 -0.11827463576E+04  0.13804613173E+04  0.85075996440E+02 0.  0.
        254    2    1    2    0    0 -0.66175738587E+03 -0.24824129200E+03 -0.25745591868E+03  0.11658013631E+04  0.89065295790E+03 0.  0.
         23    2    4    4    0    0 -0.64282923992E+03 -0.52767931755E+03 -0.13690802211E+03  0.84803205732E+03  0.93486201417E+02 0.  0.
         23    2    4    4    0    0 -0.18928145954E+02  0.27943802555E+03 -0.12054789657E+03  0.31776930582E+03  0.89451950886E+02 0.  0.
          4    1    3    3  502    0  0.60820294762E+03  0.24628093524E+03 -0.11188160920E+04  0.12970406980E+04  0.00000000000E+00 0. -1.
         -3    1    3    3    0  502  0.53554438249E+02  0.19603567545E+01 -0.63930265657E+02  0.83420619284E+02  0.00000000000E+00 0.  1.
         13    1    5    5    0    0 -0.30080678484E+03 -0.27688428126E+03 -0.10834392813E+03  0.42295157380E+03  0.00000000000E+00 0.  1.
        -13    1    5    5    0    0 -0.34202245508E+03 -0.25079503629E+03 -0.28564093982E+02  0.42508048352E+03  0.00000000000E+00 0. -1.
          1    1    6    6  503    0 -0.14893595769E+02  0.90799997575E+02  0.33005870216E+01  0.92072540039E+02  0.00000000000E+00 0. -1.
         -1    1    6    6    0  503 -0.40345501848E+01  0.18863802798E+03 -0.12384848359E+03  0.22569676578E+03  0.00000000000E+00 0.  1.
<mgrwt>
<rscale>  0 0.20998264E+04</rscale>
<asrwt>0</asrwt>
<pdfrwt beam="1">  1        2 0.30665115E+00 0.20998264E+04</pdfrwt>
<pdfrwt beam="2">  1       -1 0.85081570E-01 0.20998264E+04</pdfrwt>
<totfact> 0.96593187E+00</totfact>
</mgrwt>
</event>
<event>
12    7  0.1741211E-007  0.1802323E+04  0.7818608E-02  0.8705065E-01
          2   -1    0    0  501    0  0.00000000000E+00  0.00000000000E+00  0.10775975681E+04  0.10775975681E+04  0.00000000000E+00 0. -1.
         -1   -1    0    0    0  501 -0.00000000000E+00 -0.00000000000E+00 -0.75361375100E+03  0.75361375100E+03  0.00000000000E+00 0.  1.
         24    2    1    2    0    0 -0.46359263320E+02 -0.66818125798E+03 -0.43238303946E+01  0.67431496935E+03  0.77888430241E+02 0.  0.
        254    2    1    2    0    0  0.46359263320E+02  0.66818125798E+03  0.32830764747E+03  0.11568963497E+04  0.88431209300E+03 0.  0.
         23    2    4    4    0    0  0.38234686783E+03  0.66536801125E+02  0.21376374782E+03  0.45230537037E+03  0.90933684313E+02 0.  0.
         23    2    4    4    0    0 -0.33598760451E+03  0.60164445686E+03  0.11454389966E+03  0.70459097937E+03  0.92002284794E+02 0.  0.
          4    1    3    3  502    0 -0.60814644528E+02 -0.60466226543E+03  0.92020857421E+01  0.60778248955E+03  0.00000000000E+00 0. -1.
         -3    1    3    3    0  502  0.14455381208E+02 -0.63518992556E+02 -0.13525916137E+02  0.66532479801E+02  0.00000000000E+00 0.  1.
         13    1    5    5    0    0  0.92346229232E+02  0.47443190895E+02  0.86083963589E+02  0.13486708717E+03  0.00000000000E+00 0. -1.
        -13    1    5    5    0    0  0.29000063859E+03  0.19093610230E+02  0.12767978423E+03  0.31743828319E+03  0.00000000000E+00 0.  1.
          2    1    6    6  503    0 -0.25318651729E+03  0.45514432695E+03  0.12623202103E+03  0.53590511662E+03  0.00000000000E+00 0.  1.
         -2    1    6    6    0  503 -0.82801087221E+02  0.14650012991E+03 -0.11688121377E+02  0.16868586275E+03  0.00000000000E+00 0. -1.
<mgrwt>
<rscale>  0 0.18023233E+04</rscale>
<asrwt>0</asrwt>
<pdfrwt beam="1">  1        2 0.16578424E+00 0.18023233E+04</pdfrwt>
<pdfrwt beam="2">  1       -1 0.11594058E+00 0.18023233E+04</pdfrwt>
<totfact> 0.16303141E+01</totfact>
</mgrwt>
</event>
<event>
12    7  0.1741211E-007  0.2333351E+04  0.7818608E-02  0.8464886E-01
          2   -1    0    0  501    0  0.00000000000E+00  0.00000000000E+00  0.16546631304E+04  0.16546631304E+04  0.00000000000E+00 0. -1.
         -1   -1    0    0    0  501 -0.00000000000E+00 -0.00000000000E+00 -0.82260348358E+03  0.82260348358E+03  0.00000000000E+00 0.  1.
         24    2    1    2    0    0 -0.21756849587E+03  0.70769660354E+03 -0.34552200418E+03  0.82093272428E+03  0.79840775135E+02 0.  0.
        254    2    1    2    0    0  0.21756849587E+03 -0.70769660354E+03  0.11775816510E+04  0.16563338897E+04  0.89920680402E+03 0.  0.
         23    2    4    4    0    0  0.30965773758E+03 -0.31897131410E+03  0.11604364366E+04  0.12461138468E+04  0.92500713902E+02 0.  0.
         23    2    4    4    0    0 -0.92089241705E+02 -0.38872528944E+03  0.17145214398E+02  0.41022004293E+03  0.91644673392E+02 0.  0.
          4    1    3    3  502    0 -0.31766476794E+02  0.15472068518E+03 -0.42485384143E+02  0.16356224300E+03  0.00000000000E+00 0. -1.
         -3    1    3    3    0  502 -0.18580201908E+03  0.55297591836E+03 -0.30303662003E+03  0.65737048128E+03  0.00000000000E+00 0.  1.
         13    1    5    5    0    0  0.29558077802E+03 -0.26168337828E+03  0.99342451397E+03  0.10689894535E+04  0.00000000000E+00 0. -1.
        -13    1    5    5    0    0  0.14076959555E+02 -0.57287935822E+02  0.16701192265E+03  0.17712439327E+03  0.00000000000E+00 0.  1.
          2    1    6    6  503    0 -0.88020879833E+02 -0.26945772804E+03  0.46667669845E+02  0.28728559640E+03  0.00000000000E+00 0. -1.
         -2    1    6    6    0  503 -0.40683618715E+01 -0.11926756140E+03 -0.29522455447E+02  0.12293444654E+03  0.00000000000E+00 0.  1.
<mgrwt>
<rscale>  0 0.23333509E+04</rscale>
<asrwt>0</asrwt>
<pdfrwt beam="1">  1        2 0.25456356E+00 0.23333509E+04</pdfrwt>
<pdfrwt beam="2">  1       -1 0.12655438E+00 0.23333509E+04</pdfrwt>
<totfact> 0.58071503E+00</totfact>
</mgrwt>
</event>
<event>
12    7  0.1741211E-007  0.1569363E+04  0.7818608E-02  0.8839594E-01
          2   -1    0    0  501    0  0.00000000000E+00  0.00000000000E+00  0.71155345078E+03  0.71155345078E+03  0.00000000000E+00 0. -1.
         -1   -1    0    0    0  501 -0.00000000000E+00 -0.00000000000E+00 -0.86532537471E+03  0.86532537471E+03  0.00000000000E+00 0.  1.
         24    2    1    2    0    0  0.21598651578E+03  0.31176640272E+03  0.33057408678E+03  0.50931582450E+03  0.79214376044E+02 0.  0.
        254    2    1    2    0    0 -0.21598651578E+03 -0.31176640272E+03 -0.48434601071E+03  0.10675630010E+04  0.87249712787E+03 0.  0.
         23    2    4    4    0    0 -0.39712301248E+02  0.25001244345E+03  0.40811923686E+02  0.27342118116E+03  0.94922286318E+02 0.  0.
         23    2    4    4    0    0 -0.17627421453E+03 -0.56177884617E+03 -0.52515793440E+03  0.79414181984E+03  0.90566568032E+02 0.  0.
          4    1    3    3  502    0  0.19778510551E+03  0.26110203627E+03  0.31199605220E+03  0.45236573466E+03  0.00000000000E+00 0. -1.
         -3    1    3    3    0  502  0.18201410272E+02  0.50664366454E+02  0.18578034574E+02  0.56950089840E+02  0.00000000000E+00 0.  1.
         13    1    5    5    0    0  0.20422513181E+01  0.14448862009E+03  0.63250760175E+02  0.15773962973E+03  0.00000000000E+00 0. -1.
        -13    1    5    5    0    0 -0.41754552566E+02  0.10552382336E+03 -0.22438836489E+02  0.11568155142E+03  0.00000000000E+00 0.  1.
          4    1    6    6  503    0 -0.12868001351E+03 -0.36263435772E+03 -0.39544297129E+03  0.55175843158E+03  0.00000000000E+00 0. -1.
         -4    1    6    6    0  503 -0.47594201024E+02 -0.19914448845E+03 -0.12971496311E+03  0.24238338826E+03  0.00000000000E+00 0.  1.
<mgrwt>
<rscale>  0 0.15693633E+04</rscale>
<asrwt>0</asrwt>
<pdfrwt beam="1">  1        2 0.10946976E+00 0.15693633E+04</pdfrwt>
<pdfrwt beam="2">  1       -1 0.13312698E+00 0.15693633E+04</pdfrwt>
<totfact> 0.21034134E+01</totfact>
</mgrwt>
</event>
<event>
12    7  0.1741211E-007  0.1935406E+04  0.7818608E-02  0.8637431E-01
          2   -1    0    0  501    0  0.00000000000E+00  0.00000000000E+00  0.13046265511E+04  0.13046265511E+04  0.00000000000E+00 0. -1.
         -1   -1    0    0    0  501 -0.00000000000E+00 -0.00000000000E+00 -0.71779087102E+03  0.71779087102E+03  0.00000000000E+00 0.  1.
         24    2    1    2    0    0 -0.47762707517E+03  0.51399109747E+03  0.21668484542E+03  0.73878224302E+03  0.80823320566E+02 0.  0.
        254    2    1    2    0    0  0.47762707517E+03 -0.51399109747E+03  0.37015083465E+03  0.12836351791E+04  0.10091546767E+04 0.  0.
         23    2    4    4    0    0  0.14828887259E+03 -0.49494203442E+03 -0.24543993548E+03  0.57911744312E+03  0.90438066264E+02 0.  0.
         23    2    4    4    0    0  0.32933820258E+03 -0.19049063044E+02  0.61559077013E+03  0.70451773598E+03  0.92556607287E+02 0.  0.
          4    1    3    3  502    0 -0.36964741491E+03  0.35253739137E+03  0.17646747750E+03  0.54042815829E+03  0.00000000000E+00 0. -1.
         -3    1    3    3    0  502 -0.10797966027E+03  0.16145370610E+03  0.40217367922E+02  0.19835408472E+03  0.00000000000E+00 0.  1.
         13    1    5    5    0    0  0.11445051601E+03 -0.22464270801E+03 -0.11952757743E+03  0.27901632326E+03  0.00000000000E+00 0. -1.
        -13    1    5    5    0    0  0.33838356572E+02 -0.27029932641E+03 -0.12591235804E+03  0.30010111986E+03  0.00000000000E+00 0.  1.
          2    1    6    6  503    0  0.31106904504E+03 -0.84432585056E+01  0.51485053988E+03  0.60158650069E+03  0.00000000000E+00 0. -1.
         -2    1    6    6    0  503  0.18269157546E+02 -0.10605804539E+02  0.10074023025E+03  0.10293123529E+03  0.00000000000E+00 0.  1.
<mgrwt>
<rscale>  0 0.19354059E+04</rscale>
<asrwt>0</asrwt>
<pdfrwt beam="1">  1        2 0.20071178E+00 0.19354059E+04</pdfrwt>
<pdfrwt beam="2">  1       -1 0.11042936E+00 0.19354059E+04</pdfrwt>
<totfact> 0.13226156E+01</totfact>
</mgrwt>
</event>
<event>
12    7  0.1741211E-007  0.3245916E+04  0.7818608E-02  0.8176795E-01
         -1   -1    0    0    0  501 -0.00000000000E+00  0.00000000000E+00  0.18607943919E+04  0.18607943919E+04  0.00000000000E+00 0.  1.
          2   -1    0    0  501    0  0.00000000000E+00 -0.00000000000E+00 -0.14155209233E+04  0.14155209233E+04  0.00000000000E+00 0. -1.
         24    2    1    2    0    0 -0.99625245051E+03  0.64700384800E+03 -0.71430642199E+03  0.13885080446E+04  0.81166501818E+02 0.  0.
        254    2    1    2    0    0  0.99625245051E+03 -0.64700384800E+03  0.11595798906E+04  0.18878072706E+04  0.89892037681E+03 0.  0.
         23    2    4    4    0    0  0.58651740554E+03 -0.28048531795E+03  0.11573679310E+04  0.13305202410E+04  0.90049450264E+02 0.  0.
         23    2    4    4    0    0  0.40973504497E+03 -0.36651853005E+03  0.22119596272E+01  0.55728702961E+03  0.91352617159E+02 0.  0.
          4    1    3    3  502    0 -0.82381889996E+03  0.56306500151E+03 -0.57733142989E+03  0.11528362225E+04  0.00000000000E+00 0. -1.
         -3    1    3    3    0  502 -0.17243355055E+03  0.83938846485E+02 -0.13697499211E+03  0.23567182217E+03  0.00000000000E+00 0.  1.
         13    1    5    5    0    0  0.54795574221E+03 -0.26404049473E+03  0.11192980482E+04  0.12738920672E+04  0.00000000000E+00 0. -1.
        -13    1    5    5    0    0  0.38561663327E+02 -0.16444823219E+02  0.38069882774E+02  0.56628173762E+02  0.00000000000E+00 0.  1.
          3    1    6    6  503    0  0.29862710934E+03 -0.28152559506E+03 -0.36816664667E+02  0.41205615868E+03  0.00000000000E+00 0. -1.
         -3    1    6    6    0  503  0.11110793562E+03 -0.84992934987E+02  0.39028624294E+02  0.14523087093E+03  0.00000000000E+00 0.  1.
<mgrwt>
<rscale>  0 0.32459164E+04</rscale>
<asrwt>0</asrwt>
<pdfrwt beam="1">  1        2 0.21777245E+00 0.32459164E+04</pdfrwt>
<pdfrwt beam="2">  1       -1 0.28627606E+00 0.32459164E+04</pdfrwt>
<totfact> 0.54886831E-01</totfact>
</mgrwt>
</event>
<event>
12    7  0.1741211E-007  0.1179032E+04  0.7818608E-02  0.9131410E-01
          2   -1    0    0  501    0  0.00000000000E+00  0.00000000000E+00  0.12575571941E+04  0.12575571941E+04  0.00000000000E+00 0. -1.
         -1   -1    0    0    0  501 -0.00000000000E+00 -0.00000000000E+00 -0.27635270040E+03  0.27635270040E+03  0.00000000000E+00 0.  1.
         24    2    1    2    0    0 -0.10918912290E+03  0.77942896740E+02  0.43516600908E+03  0.46229465370E+03  0.79683948600E+02 0.  0.
        254    2    1    2    0    0  0.10918912290E+03 -0.77942896740E+02  0.54603848458E+03  0.10716152408E+04  0.91225206928E+03 0.  0.
         23    2    4    4    0    0 -0.29545729043E+03 -0.30844119101E+03  0.34477950076E+03  0.55650448897E+03  0.91615300663E+02 0.  0.
         23    2    4    4    0    0  0.40464641333E+03  0.23049829427E+03  0.20125898381E+03  0.51511075180E+03  0.89250907980E+02 0.  0.
          2    1    3    3  502    0 -0.64285328541E+02  0.20358166457E+02  0.31118346318E+03  0.31840572570E+03  0.00000000000E+00 0. -1.
         -1    1    3    3    0  502 -0.44903794357E+02  0.57584730283E+02  0.12398254591E+03  0.14388892799E+03  0.00000000000E+00 0.  1.
         13    1    5    5    0    0 -0.76841652427E+02 -0.56695965225E+02  0.12443732835E+03  0.15685573215E+03  0.00000000000E+00 0. -1.
        -13    1    5    5    0    0 -0.21861563801E+03 -0.25174522578E+03  0.22034217241E+03  0.39964875682E+03  0.00000000000E+00 0.  1.
          3    1    6    6  503    0  0.54606531863E+02  0.59257981975E+02  0.60583012957E+02  0.10081509415E+03  0.00000000000E+00 0. -1.
         -3    1    6    6    0  503  0.35003988147E+03  0.17124031229E+03  0.14067597086E+03  0.41429565765E+03  0.00000000000E+00 0.  1.
<mgrwt>
<rscale>  0 0.11790324E+04</rscale>
<asrwt>0</asrwt>
<pdfrwt beam="1">  1        2 0.19347034E+00 0.11790324E+04</pdfrwt>
<pdfrwt beam="2">  1       -1 0.42515801E-01 0.11790324E+04</pdfrwt>
<totfact> 0.10726605E+02</totfact>
</mgrwt>
</event>
<event>
12    7  0.1741211E-007  0.1510593E+04  0.7818608E-02  0.8877439E-01
          2   -1    0    0  501    0  0.00000000000E+00  0.00000000000E+00  0.12203667587E+04  0.12203667587E+04  0.00000000000E+00 0. -1.
         -1   -1    0    0    0  501 -0.00000000000E+00 -0.00000000000E+00 -0.46746019295E+03  0.46746019295E+03  0.00000000000E+00 0.  1.
         24    2    1    2    0    0  0.13904373097E+03 -0.17963318153E+03  0.70149651750E+03  0.74147764961E+03  0.78041666931E+02 0.  0.
        254    2    1    2    0    0 -0.13904373097E+03  0.17963318153E+03  0.51410048294E+02  0.94634930209E+03  0.91724193617E+03 0.  0.
         23    2    4    4    0    0 -0.46330736466E+03  0.25443089776E+03  0.19659784137E+03  0.57207225752E+03  0.96058111101E+02 0.  0.
         23    2    4    4    0    0  0.32426363370E+03 -0.74797716231E+02 -0.14518779308E+03  0.37427704457E+03  0.90896690475E+02 0.  0.
          2    1    3    3  502    0  0.13982713755E+03 -0.14828761290E+03  0.64980768285E+03  0.68102193007E+03  0.00000000000E+00 0. -1.
         -1    1    3    3    0  502 -0.78340658191E+00 -0.31345568624E+02  0.51688834646E+02  0.60455719542E+02  0.00000000000E+00 0.  1.
         13    1    5    5    0    0 -0.16542925398E+02  0.35875188118E+02  0.20104734339E+02  0.44327168261E+02  0.00000000000E+00 0. -1.
        -13    1    5    5    0    0 -0.44676443926E+03  0.21855570964E+03  0.17649310703E+03  0.52774508926E+03  0.00000000000E+00 0.  1.
          2    1    6    6  503    0  0.61345476892E+01 -0.64403540081E+01  0.10330616947E+02  0.13632038791E+02  0.00000000000E+00 0. -1.
         -2    1    6    6    0  503  0.31812908601E+03 -0.68357362223E+02 -0.15551841002E+03  0.36064500577E+03  0.00000000000E+00 0.  1.
<mgrwt>
<rscale>  0 0.15105931E+04</rscale>
<asrwt>0</asrwt>
<pdfrwt beam="1">  1        2 0.18774873E+00 0.15105931E+04</pdfrwt>
<pdfrwt beam="2">  1       -1 0.71916954E-01 0.15105931E+04</pdfrwt>
<totfact> 0.39563658E+01</totfact>
</mgrwt>
</event>
<event>
12    7  0.1741211E-007  0.2929365E+04  0.7818608E-02  0.8264194E-01
         -1   -1    0    0    0  501 -0.00000000000E+00  0.00000000000E+00  0.77691389506E+03  0.77691389506E+03  0.00000000000E+00 0.  1.
          2   -1    0    0  501    0  0.00000000000E+00 -0.00000000000E+00 -0.27613028623E+04  0.27613028623E+04  0.00000000000E+00 0. -1.
         24    2    1    2    0    0  0.45087608420E+02  0.12991186916E+04 -0.11869494555E+04  0.17622582485E+04  0.83443736597E+02 0.  0.
        254    2    1    2    0    0 -0.45087608420E+02 -0.12991186916E+04 -0.79743951173E+03  0.17759585089E+04  0.91015195611E+03 0.  0.
         23    2    4    4    0    0  0.32807202859E+03 -0.10930998451E+04 -0.64361597492E+03  0.13136734885E+04  0.94857703227E+02 0.  0.
         23    2    4    4    0    0 -0.37315963701E+03 -0.20601884644E+03 -0.15382353681E+03  0.46228502039E+03  0.91399561374E+02 0.  0.
          4    1    3    3  502    0  0.38427259598E+02  0.84408250701E+03 -0.71833814424E+03  0.11090363485E+04  0.00000000000E+00 0. -1.
         -3    1    3    3    0  502  0.66603488217E+01  0.45503618455E+03 -0.46861131126E+03  0.65322189992E+03  0.00000000000E+00 0.  1.
         13    1    5    5    0    0  0.16097281360E+03 -0.56793163694E+03 -0.27941769272E+03  0.65309481544E+03  0.00000000000E+00 0. -1.
        -13    1    5    5    0    0  0.16709921499E+03 -0.52516820818E+03 -0.36419828220E+03  0.66057867305E+03  0.00000000000E+00 0.  1.
          3    1    6    6  503    0 -0.23888253979E+03 -0.11322214925E+03 -0.13824278433E+03  0.29832061665E+03  0.00000000000E+00 0. -1.
         -3    1    6    6    0  503 -0.13427709722E+03 -0.92796697191E+02 -0.15580752479E+02  0.16396440374E+03  0.00000000000E+00 0.  1.
<mgrwt>
<rscale>  0 0.29293648E+04</rscale>
<asrwt>0</asrwt>
<pdfrwt beam="1">  1        2 0.42481582E+00 0.29293648E+04</pdfrwt>
<pdfrwt beam="2">  1       -1 0.11952522E+00 0.29293648E+04</pdfrwt>
<totfact> 0.14920066E+00</totfact>
</mgrwt>
</event>
<event>
12    7  0.1741211E-007  0.1209012E+04  0.7818608E-02  0.9105004E-01
         -1   -1    0    0    0  501 -0.00000000000E+00  0.00000000000E+00  0.36401719988E+03  0.36401719988E+03  0.00000000000E+00 0.  1.
          2   -1    0    0  501    0  0.00000000000E+00 -0.00000000000E+00 -0.10038748692E+04  0.10038748692E+04  0.00000000000E+00 0. -1.
         24    2    1    2    0    0 -0.64818952767E+01  0.23193585326E+03 -0.28086581060E+03  0.36982735597E+03  0.63642868182E+02 0.  0.
        254    2    1    2    0    0  0.64818952767E+01 -0.23193585326E+03 -0.35899185874E+03  0.99806471312E+03  0.90189897546E+03 0.  0.
         23    2    4    4    0    0  0.10103400857E+02  0.32856860757E+03 -0.23990224442E+03  0.41737415913E+03  0.92675202964E+02 0.  0.
         23    2    4    4    0    0 -0.36215055800E+01 -0.56050446083E+03 -0.11908961433E+03  0.58069055399E+03  0.94025620641E+02 0.  0.
          4    1    3    3  502    0  0.24396503692E+02  0.15278191104E+03 -0.19641482979E+03  0.25003257206E+03  0.00000000000E+00 0. -1.
         -3    1    3    3    0  502 -0.30878398969E+02  0.79153942221E+02 -0.84450980810E+02  0.11979478391E+03  0.00000000000E+00 0.  1.
         13    1    5    5    0    0 -0.22179498313E+01  0.29905530988E+02  0.56695947077E+01  0.30518918547E+02  0.00000000000E+00 0.  1.
        -13    1    5    5    0    0  0.12321350688E+02  0.29866307659E+03 -0.24557183912E+03  0.38685524059E+03  0.00000000000E+00 0. -1.
          1    1    6    6  503    0 -0.40526701810E+01 -0.46298144828E+03 -0.60538672379E+02  0.46694022791E+03  0.00000000000E+00 0. -1.
         -1    1    6    6    0  503  0.43116460099E+00 -0.97523012545E+02 -0.58550941947E+02  0.11375032607E+03  0.00000000000E+00 0.  1.
<mgrwt>
<rscale>  0 0.12090124E+04</rscale>
<asrwt>0</asrwt>
<pdfrwt beam="1">  1        2 0.15444229E+00 0.12090124E+04</pdfrwt>
<pdfrwt beam="2">  1       -1 0.56002646E-01 0.12090124E+04</pdfrwt>
<totfact> 0.90864084E+01</totfact>
</mgrwt>
</event>
<event>
12    7  0.1741211E-007  0.2254136E+04  0.7818608E-02  0.8496227E-01
          2   -1    0    0  501    0  0.00000000000E+00  0.00000000000E+00  0.16968782042E+04  0.16968782042E+04  0.00000000000E+00 0. -1.
         -1   -1    0    0    0  501 -0.00000000000E+00 -0.00000000000E+00 -0.74859970079E+03  0.74859970079E+03  0.00000000000E+00 0.  1.
         24    2    1    2    0    0  0.50854508912E+03 -0.72593423132E+03  0.89768048171E+01  0.88989160071E+03  0.78916805076E+02 0.  0.
        254    2    1    2    0    0 -0.50854508912E+03  0.72593423132E+03  0.93930169858E+03  0.15555863043E+04  0.86715768647E+03 0.  0.
         23    2    4    4    0    0 -0.41314539995E+03  0.35359915782E+03  0.16350696298E+02  0.55150116025E+03  0.90358721621E+02 0.  0.
         23    2    4    4    0    0 -0.95399689167E+02  0.37233507350E+03  0.92295100228E+03  0.10040851440E+04  0.92811185645E+02 0.  0.
          4    1    3    3  502    0  0.16704565460E+03 -0.18974993329E+03  0.24615951405E+02  0.25399849009E+03  0.00000000000E+00 0. -1.
         -3    1    3    3    0  502  0.34149943452E+03 -0.53618429803E+03 -0.15639146588E+02  0.63589311062E+03  0.00000000000E+00 0.  1.
         13    1    5    5    0    0 -0.21619564862E+02  0.53793112918E+02 -0.22873141184E+01  0.58020137781E+02  0.00000000000E+00 0.  1.
        -13    1    5    5    0    0 -0.39152583509E+03  0.29980604490E+03  0.18638010416E+02  0.49348102247E+03  0.00000000000E+00 0. -1.
          3    1    6    6  503    0 -0.11929673414E+02  0.22915173465E+03  0.55196450437E+03  0.59776052787E+03  0.00000000000E+00 0. -1.
         -3    1    6    6    0  503 -0.83470015752E+02  0.14318333885E+03  0.37098649791E+03  0.40632461615E+03  0.00000000000E+00 0.  1.
<mgrwt>
<rscale>  0 0.22541362E+04</rscale>
<asrwt>0</asrwt>
<pdfrwt beam="1">  1        2 0.26105818E+00 0.22541362E+04</pdfrwt>
<pdfrwt beam="2">  1       -1 0.11516919E+00 0.22541362E+04</pdfrwt>
<totfact> 0.69786719E+00</totfact>
</mgrwt>
</event>
<event>
12    7  0.1741211E-007  0.2050418E+04  0.7818608E-02  0.8583405E-01
         -1   -1    0    0    0  501 -0.00000000000E+00  0.00000000000E+00  0.17196321961E+04  0.17196321961E+04  0.00000000000E+00 0.  1.
          2   -1    0    0  501    0  0.00000000000E+00 -0.00000000000E+00 -0.61120841327E+03  0.61120841327E+03  0.00000000000E+00 0. -1.
         24    2    1    2    0    0  0.48398310642E+02 -0.46435277151E+03 -0.32281303135E+03  0.57378675582E+03  0.84006517966E+02 0.  0.
        254    2    1    2    0    0 -0.48398310642E+02  0.46435277151E+03  0.14312368142E+04  0.17570538536E+04  0.90599863860E+03 0.  0.
         23    2    4    4    0    0  0.37603880857E+02  0.70917103394E+03  0.12019342105E+04  0.13991467762E+04  0.92888361924E+02 0.  0.
         23    2    4    4    0    0 -0.86002191499E+02 -0.24481826243E+03  0.22930260373E+03  0.35790707739E+03  0.90473385054E+02 0.  0.
          4    1    3    3  502    0  0.28723993248E+02 -0.43413381543E+03 -0.31431082290E+03  0.53673879204E+03  0.00000000000E+00 0. -1.
         -3    1    3    3    0  502  0.19674317394E+02 -0.30218956082E+02 -0.85022084449E+01  0.37047963777E+02  0.00000000000E+00 0.  1.
         13    1    5    5    0    0 -0.36160417205E+01  0.48568840310E+03  0.87904172552E+03  0.10043010783E+04  0.00000000000E+00 0. -1.
        -13    1    5    5    0    0  0.41219922577E+02  0.22348263084E+03  0.32289248494E+03  0.39484569788E+03  0.00000000000E+00 0.  1.
          1    1    6    6  503    0 -0.31054048238E+02 -0.11321006953E+03  0.47012321210E+02  0.12645565270E+03  0.00000000000E+00 0. -1.
         -1    1    6    6    0  503 -0.54948143261E+02 -0.13160819290E+03  0.18229028252E+03  0.23145142469E+03  0.00000000000E+00 0.  1.
<mgrwt>
<rscale>  0 0.20504182E+04</rscale>
<asrwt>0</asrwt>
<pdfrwt beam="1">  1        2 0.94032065E-01 0.20504182E+04</pdfrwt>
<pdfrwt beam="2">  1       -1 0.26455880E+00 0.20504182E+04</pdfrwt>
<totfact> 0.28717563E+00</totfact>
</mgrwt>
</event>
<event>
12    7  0.1741211E-007  0.1328813E+04  0.7818608E-02  0.9007023E-01
         -1   -1    0    0    0  501 -0.00000000000E+00  0.00000000000E+00  0.28340796979E+03  0.28340796979E+03  0.00000000000E+00 0.  1.
          2   -1    0    0  501    0  0.00000000000E+00 -0.00000000000E+00 -0.15575986015E+04  0.15575986015E+04  0.00000000000E+00 0. -1.
         24    2    1    2    0    0  0.13308614571E+02  0.47353782233E+02 -0.80526457814E+03  0.81063721129E+03  0.79133732367E+02 0.  0.
        254    2    1    2    0    0 -0.13308614571E+02 -0.47353782233E+02 -0.46892605355E+03  0.10303693600E+04  0.91616039775E+03 0.  0.
         23    2    4    4    0    0 -0.16359564268E+03 -0.10830544496E+03 -0.70072929212E+03  0.73300427541E+03  0.88205006798E+02 0.  0.
         23    2    4    4    0    0  0.15028702811E+03  0.60951662726E+02  0.23180323856E+03  0.29736508459E+03  0.91607620400E+02 0.  0.
          4    1    3    3  502    0 -0.15265312826E+02  0.15303584557E+02 -0.62331965053E+03  0.62369432915E+03  0.00000000000E+00 0. -1.
         -3    1    3    3    0  502  0.28573927397E+02  0.32050197676E+02 -0.18194492761E+03  0.18694288213E+03  0.00000000000E+00 0.  1.
         13    1    5    5    0    0 -0.96305123308E+02 -0.39027675522E+02 -0.49423778723E+03  0.50504339077E+03  0.00000000000E+00 0.  1.
        -13    1    5    5    0    0 -0.67290519376E+02 -0.69277769437E+02 -0.20649150489E+03  0.22796088464E+03  0.00000000000E+00 0. -1.
          3    1    6    6  503    0 -0.93268149343E+00  0.31812551085E+02  0.47706412992E+02  0.57348148548E+02  0.00000000000E+00 0. -1.
         -3    1    6    6    0  503  0.15121970961E+03  0.29139111642E+02  0.18409682557E+03  0.24001693604E+03  0.00000000000E+00 0.  1.
<mgrwt>
<rscale>  0 0.13288128E+04</rscale>
<asrwt>0</asrwt>
<pdfrwt beam="1">  1        2 0.23963055E+00 0.13288128E+04</pdfrwt>
<pdfrwt beam="2">  1       -1 0.43601227E-01 0.13288128E+04</pdfrwt>
<totfact> 0.68186990E+01</totfact>
</mgrwt>
</event>
<event>
12    7  0.1741211E-007  0.1969164E+04  0.7818608E-02  0.8621175E-01
         -1   -1    0    0    0  501 -0.00000000000E+00  0.00000000000E+00  0.91116296855E+03  0.91116296855E+03  0.00000000000E+00 0.  1.
          2   -1    0    0  501    0  0.00000000000E+00 -0.00000000000E+00 -0.10639167662E+04  0.10639167662E+04  0.00000000000E+00 0. -1.
         24    2    1    2    0    0  0.11679906617E+01  0.24185583252E+03 -0.80802908276E+03  0.84719072674E+03  0.79533143826E+02 0.  0.
        254    2    1    2    0    0 -0.11679906617E+01 -0.24185583252E+03  0.65527528508E+03  0.11278890080E+04  0.88558020940E+03 0.  0.
         23    2    4    4    0    0  0.57962728912E+02 -0.42817337633E+03  0.76626650529E+03  0.88446334098E+03  0.91754707041E+02 0.  0.
         23    2    4    4    0    0 -0.59130719574E+02  0.18631754381E+03 -0.11099122021E+03  0.24342566706E+03  0.93414855828E+02 0.  0.
          4    1    3    3  502    0 -0.28515596856E+02  0.19349808444E+03 -0.66969329494E+03  0.69767023531E+03  0.00000000000E+00 0. -1.
         -3    1    3    3    0  502  0.29683587518E+02  0.48357748079E+02 -0.13833578781E+03  0.14952049143E+03  0.00000000000E+00 0.  1.
         13    1    5    5    0    0 -0.97033036319E+01 -0.25596900373E+03  0.42319683745E+03  0.49468156242E+03  0.00000000000E+00 0. -1.
        -13    1    5    5    0    0  0.67666032544E+02 -0.17220437259E+03  0.34306966784E+03  0.38978177855E+03  0.00000000000E+00 0.  1.
          3    1    6    6  503    0  0.13141314584E+02  0.84201648790E+02 -0.74273836895E+02  0.11304518855E+03  0.00000000000E+00 0. -1.
         -3    1    6    6    0  503 -0.72272034158E+02  0.10211589502E+03 -0.36717383313E+02  0.13038047850E+03  0.00000000000E+00 0.  1.
<mgrwt>
<rscale>  0 0.19691638E+04</rscale>
<asrwt>0</asrwt>
<pdfrwt beam="1">  1        2 0.16367950E+00 0.19691638E+04</pdfrwt>
<pdfrwt beam="2">  1       -1 0.14017892E+00 0.19691638E+04</pdfrwt>
<totfact> 0.10181985E+01</totfact>
</mgrwt>
</event>
<event>
12    7  0.1741211E-007  0.1876792E+04  0.7818608E-02  0.8666495E-01
         -1   -1    0    0    0  501 -0.00000000000E+00  0.00000000000E+00  0.22721522113E+03  0.22721522113E+03  0.00000000000E+00 0.  1.
          2   -1    0    0  501    0  0.00000000000E+00 -0.00000000000E+00 -0.38755651835E+04  0.38755651835E+04  0.00000000000E+00 0. -1.
         24    2    1    2    0    0  0.23869680166E+03 -0.62715190123E+02 -0.28659483141E+04  0.28775362175E+04  0.75137114504E+02 0.  0.
        254    2    1    2    0    0 -0.23869680166E+03  0.62715190123E+02 -0.78240164829E+03  0.12252441871E+04  0.91003385684E+03 0.  0.
         23    2    4    4    0    0  0.13073704702E+03 -0.34702893860E+03 -0.32318328652E+03  0.50111691701E+03  0.95652852215E+02 0.  0.
         23    2    4    4    0    0 -0.36943384868E+03  0.40974412872E+03 -0.45921836177E+03  0.72412727009E+03  0.95431545824E+02 0.  0.
          2    1    3    3  502    0  0.20045735837E+03 -0.21313813627E+02 -0.22196065857E+04  0.22287419829E+04  0.00000000000E+00 0. -1.
         -1    1    3    3    0  502  0.38239443293E+02 -0.41401376496E+02 -0.64634172836E+03  0.64879423458E+03  0.00000000000E+00 0.  1.
         13    1    5    5    0    0 -0.81123345126E+01  0.10396104069E+01 -0.57029576252E+01  0.99706813567E+01  0.00000000000E+00 0. -1.
        -13    1    5    5    0    0  0.13884938153E+03 -0.34806854901E+03 -0.31748032890E+03  0.49114623565E+03  0.00000000000E+00 0.  1.
          2    1    6    6  503    0 -0.89660269720E+02  0.63095676706E+02 -0.55245701976E+02  0.12276854635E+03  0.00000000000E+00 0. -1.
         -2    1    6    6    0  503 -0.27977357896E+03  0.34664845202E+03 -0.40397265979E+03  0.60135872375E+03  0.00000000000E+00 0.  1.
<mgrwt>
<rscale>  0 0.18767924E+04</rscale>
<asrwt>0</asrwt>
<pdfrwt beam="1">  1        2 0.59624074E+00 0.18767924E+04</pdfrwt>
<pdfrwt beam="2">  1       -1 0.34956191E-01 0.18767924E+04</pdfrwt>
<totfact> 0.36088285E+00</totfact>
</mgrwt>
</event>
<event>
12    7  0.1741211E-007  0.1505709E+04  0.7818608E-02  0.8880666E-01
         -1   -1    0    0    0  501 -0.00000000000E+00  0.00000000000E+00  0.27863932292E+04  0.27863932292E+04  0.00000000000E+00 0.  1.
          2   -1    0    0  501    0  0.00000000000E+00 -0.00000000000E+00 -0.20341337273E+03  0.20341337273E+03  0.00000000000E+00 0. -1.
         24    2    1    2    0    0  0.43017837741E+03 -0.70588204495E+02  0.41894333511E+03  0.60983531204E+03  0.79683491239E+02 0.  0.
        254    2    1    2    0    0 -0.43017837741E+03  0.70588204495E+02  0.21640365214E+04  0.23799712899E+04  0.88947914193E+03 0.  0.
         23    2    4    4    0    0 -0.62238580342E+03  0.18181099775E+03  0.10285920623E+04  0.12193834738E+04  0.92060297713E+02 0.  0.
         23    2    4    4    0    0  0.19220742602E+03 -0.11122279326E+03  0.11354444591E+04  0.11605878161E+04  0.91737423296E+02 0.  0.
          4    1    3    3  502    0  0.42459356580E+03 -0.76309740952E+02  0.39620185147E+03  0.58572927176E+03  0.00000000000E+00 0. -1.
         -3    1    3    3    0  502  0.55848116051E+01  0.57215364563E+01  0.22741483634E+02  0.24106040280E+02  0.00000000000E+00 0.  1.
         13    1    5    5    0    0 -0.21511944726E+03  0.26559336789E+02  0.29479697245E+03  0.36590576646E+03  0.00000000000E+00 0.  1.
        -13    1    5    5    0    0 -0.40726635616E+03  0.15525166096E+03  0.73379508987E+03  0.85347770738E+03  0.00000000000E+00 0. -1.
          3    1    6    6  503    0  0.47612874596E+01  0.11366316452E+02  0.26147932987E+02  0.28906355831E+02  0.00000000000E+00 0. -1.
         -3    1    6    6    0  503  0.18744613856E+03 -0.12258910971E+03  0.11092965261E+04  0.11316814603E+04  0.00000000000E+00 0.  1.
<mgrwt>
<rscale>  0 0.15057087E+04</rscale>
<asrwt>0</asrwt>
<pdfrwt beam="1">  1        2 0.31294367E-01 0.15057087E+04</pdfrwt>
<pdfrwt beam="2">  1       -1 0.42867585E+00 0.15057087E+04</pdfrwt>
<totfact> 0.85952356E-01</totfact>
</mgrwt>
</event>
<event>
12    7  0.1741211E-007  0.1606894E+04  0.7818608E-02  0.8816324E-01
         -1   -1    0    0    0  501 -0.00000000000E+00  0.00000000000E+00  0.42157803689E+03  0.42157803689E+03  0.00000000000E+00 0.  1.
          2   -1    0    0  501    0  0.00000000000E+00 -0.00000000000E+00 -0.15312161105E+04  0.15312161105E+04  0.00000000000E+00 0. -1.
         24    2    1    2    0    0 -0.10970706424E+03  0.42144243214E+03 -0.68418191747E+03  0.81512460038E+03  0.81693661967E+02 0.  0.
        254    2    1    2    0    0  0.10970706424E+03 -0.42144243214E+03 -0.42545615610E+03  0.11376695470E+04  0.96105655078E+03 0.  0.
         23    2    4    4    0    0  0.69671688893E+02 -0.72475262129E+03 -0.27138348109E+03  0.78205630638E+03  0.88558264688E+02 0.  0.
         23    2    4    4    0    0  0.40035375348E+02  0.30331018916E+03 -0.15407267501E+03  0.35561324059E+03  0.95511703840E+02 0.  0.
          2    1    3    3  502    0 -0.77914648123E+02  0.31149565784E+03 -0.56514626381E+03  0.64999272053E+03  0.00000000000E+00 0. -1.
         -1    1    3    3    0  502 -0.31792416118E+02  0.10994677430E+03 -0.11903565366E+03  0.16513187985E+03  0.00000000000E+00 0.  1.
         13    1    5    5    0    0  0.33130684547E+02 -0.11273535807E+03 -0.69745305778E+02  0.13664300529E+03  0.00000000000E+00 0.  1.
        -13    1    5    5    0    0  0.36541004346E+02 -0.61201726323E+03 -0.20163817531E+03  0.64541330109E+03  0.00000000000E+00 0. -1.
          1    1    6    6  503    0  0.66199209864E+01  0.63315895028E+02 -0.79992377903E+02  0.10223260947E+03  0.00000000000E+00 0. -1.
         -1    1    6    6    0  503  0.33415454362E+02  0.23999429413E+03 -0.74080297110E+02  0.25338063112E+03  0.00000000000E+00 0.  1.
<mgrwt>
<rscale>  0 0.16068940E+04</rscale>
<asrwt>0</asrwt>
<pdfrwt beam="1">  1        2 0.23557171E+00 0.16068940E+04</pdfrwt>
<pdfrwt beam="2">  1       -1 0.64858160E-01 0.16068940E+04</pdfrwt>
<totfact> 0.32084013E+01</totfact>
</mgrwt>
</event>
<event>
12    7  0.1741211E-007  0.3822966E+04  0.7818608E-02  0.8041244E-01
         -1   -1    0    0    0  501 -0.00000000000E+00  0.00000000000E+00  0.19600337903E+04  0.19600337903E+04  0.00000000000E+00 0.  1.
          2   -1    0    0  501    0  0.00000000000E+00 -0.00000000000E+00 -0.18641352053E+04  0.18641352053E+04  0.00000000000E+00 0. -1.
         24    2    1    2    0    0  0.33928349923E+03 -0.10913017375E+04 -0.13524791066E+04  0.17725589605E+04  0.81931431735E+02 0.  0.
        254    2    1    2    0    0 -0.33928349923E+03  0.10913017375E+04  0.14483776916E+04  0.20516100351E+04  0.89735891573E+03 0.  0.
         23    2    4    4    0    0 -0.22711921125E+02  0.72626349626E+03  0.27976595206E+03  0.78383414790E+03  0.90291118668E+02 0.  0.
         23    2    4    4    0    0 -0.31657157811E+03  0.36503824126E+03  0.11686117395E+04  0.12677758873E+04  0.90176609374E+02 0.  0.
          2    1    3    3  502    0  0.34236890671E+03 -0.10638972259E+04 -0.13277730649E+04  0.17355330845E+04  0.00000000000E+00 0. -1.
         -1    1    3    3    0  502 -0.30854074789E+01 -0.27404511605E+02 -0.24706041674E+02  0.37025875963E+02  0.00000000000E+00 0.  1.
         13    1    5    5    0    0 -0.41510461168E+02  0.18279080879E+03  0.89459298422E+02  0.20769825286E+03  0.00000000000E+00 0. -1.
        -13    1    5    5    0    0  0.18798540043E+02  0.54347268747E+03  0.19030665364E+03  0.57613589504E+03  0.00000000000E+00 0.  1.
          1    1    6    6  503    0 -0.77128362765E+02  0.13730334802E+03  0.45186716205E+03  0.47852369414E+03  0.00000000000E+00 0. -1.
         -1    1    6    6    0  503 -0.23944321534E+03  0.22773489324E+03  0.71674457748E+03  0.78925219311E+03  0.00000000000E+00 0.  1.
<mgrwt>
<rscale>  0 0.38229664E+04</rscale>
<asrwt>0</asrwt>
<pdfrwt beam="1">  1        2 0.28679003E+00 0.38229664E+04</pdfrwt>
<pdfrwt beam="2">  1       -1 0.30154366E+00 0.38229664E+04</pdfrwt>
<totfact> 0.23362417E-01</totfact>
</mgrwt>
</event>
<event>
12    7  0.1741211E-007  0.1524955E+04  0.7818608E-02  0.8868025E-01
         -1   -1    0    0    0  501 -0.00000000000E+00  0.00000000000E+00  0.23974439625E+03  0.23974439625E+03  0.00000000000E+00 0.  1.
          2   -1    0    0  501    0  0.00000000000E+00 -0.00000000000E+00 -0.24249669479E+04  0.24249669479E+04  0.00000000000E+00 0. -1.
         24    2    1    2    0    0 -0.10258218775E+03 -0.30476232259E+03 -0.58976452601E+02  0.33670482158E+03  0.80552693311E+02 0.  0.
        254    2    1    2    0    0  0.10258218775E+03  0.30476232259E+03 -0.21262460990E+04  0.23280065226E+04  0.89178961472E+03 0.  0.
         23    2    4    4    0    0 -0.20063887523E+03 -0.40571960365E+02 -0.16309691804E+04  0.16463333829E+04  0.91929852115E+02 0.  0.
         23    2    4    4    0    0  0.30322106299E+03  0.34533428295E+03 -0.49527691858E+03  0.68167313970E+03  0.90444807999E+02 0.  0.
          2    1    3    3  502    0 -0.32971078830E+02 -0.20965357570E+02 -0.30464248309E+01  0.39190802001E+02  0.00000000000E+00 0. -1.
         -1    1    3    3    0  502 -0.69611108925E+02 -0.28379696502E+03 -0.55930027770E+02  0.29751401958E+03  0.00000000000E+00 0.  1.
         13    1    5    5    0    0 -0.20174070552E+03 -0.18853282303E+02 -0.14649275336E+04  0.14788737056E+04  0.00000000000E+00 0.  1.
        -13    1    5    5    0    0  0.11018302913E+01 -0.21718678062E+02 -0.16604164684E+03  0.16745967721E+03  0.00000000000E+00 0. -1.
          3    1    6    6  503    0  0.46016913032E+02  0.64880009592E+02 -0.14026111866E+03  0.16124563045E+03  0.00000000000E+00 0. -1.
         -3    1    6    6    0  503  0.25720414995E+03  0.28045427336E+03 -0.35501579992E+03  0.52042750926E+03  0.00000000000E+00 0.  1.
<mgrwt>
<rscale>  0 0.15249554E+04</rscale>
<asrwt>0</asrwt>
<pdfrwt beam="1">  1        2 0.37307183E+00 0.15249554E+04</pdfrwt>
<pdfrwt beam="2">  1       -1 0.36883754E-01 0.15249554E+04</pdfrwt>
<totfact> 0.29889610E+01</totfact>
</mgrwt>
</event>
<event>
12    7  0.1741211E-007  0.1932245E+04  0.7818608E-02  0.8638970E-01
         -1   -1    0    0    0  501 -0.00000000000E+00  0.00000000000E+00  0.10484320143E+04  0.10484320143E+04  0.00000000000E+00 0.  1.
          2   -1    0    0  501    0  0.00000000000E+00 -0.00000000000E+00 -0.89027522348E+03  0.89027522348E+03  0.00000000000E+00 0. -1.
         24    2    1    2    0    0 -0.18609977824E+03 -0.22521848174E+03  0.75890292052E+03  0.81677395571E+03  0.76351555231E+02 0.  0.
        254    2    1    2    0    0  0.18609977824E+03  0.22521848174E+03 -0.60074612968E+03  0.11219332821E+04  0.90137777049E+03 0.  0.
         23    2    4    4    0    0 -0.21073617036E+03 -0.21986530086E+03 -0.33758536857E+03  0.46375469133E+03  0.91400484927E+02 0.  0.
         23    2    4    4    0    0  0.39683594860E+03  0.44508378260E+03 -0.26316076112E+03  0.65817859075E+03  0.91472003870E+02 0.  0.
          4    1    3    3  502    0 -0.75534405298E+02 -0.51193956533E+02  0.30247634299E+03  0.31594019313E+03  0.00000000000E+00 0. -1.
         -3    1    3    3    0  502 -0.11056537294E+03 -0.17402452521E+03  0.45642657753E+03  0.50083376258E+03  0.00000000000E+00 0.  1.
         13    1    5    5    0    0 -0.19853781908E+03 -0.21981598520E+03 -0.28963194981E+03  0.41427406304E+03  0.00000000000E+00 0.  1.
        -13    1    5    5    0    0 -0.12198351278E+02 -0.49315655714E-01 -0.47953418760E+02  0.49480628298E+02  0.00000000000E+00 0. -1.
          3    1    6    6  503    0  0.23436154404E+03  0.20718533579E+03 -0.10776582365E+03  0.33085430243E+03  0.00000000000E+00 0. -1.
         -3    1    6    6    0  503  0.16247440456E+03  0.23789844680E+03 -0.15539493746E+03  0.32732428831E+03  0.00000000000E+00 0.  1.
<mgrwt>
<rscale>  0 0.19322454E+04</rscale>
<asrwt>0</asrwt>
<pdfrwt beam="1">  1        2 0.13696542E+00 0.19322454E+04</pdfrwt>
<pdfrwt beam="2">  1       -1 0.16129723E+00 0.19322454E+04</pdfrwt>
<totfact> 0.90668373E+00</totfact>
</mgrwt>
</event>
<event>
12    7  0.1741211E-007  0.1524982E+04  0.7818608E-02  0.8868008E-01
         -1   -1    0    0    0  501 -0.00000000000E+00  0.00000000000E+00  0.11192966050E+04  0.11192966050E+04  0.00000000000E+00 0.  1.
          2   -1    0    0  501    0  0.00000000000E+00 -0.00000000000E+00 -0.51942639819E+03  0.51942639819E+03  0.00000000000E+00 0. -1.
         24    2    1    2    0    0 -0.30830912623E+03 -0.30101911046E+03 -0.37460718005E+02  0.43953636242E+03  0.78242484132E+02 0.  0.
        254    2    1    2    0    0  0.30830912623E+03  0.30101911046E+03  0.63733092485E+03  0.11991866408E+04  0.91988633512E+03 0.  0.
         23    2    4    4    0    0  0.24872607205E+03  0.61781864461E+03  0.49747554920E+03  0.83624640559E+03  0.90893301547E+02 0.  0.
         23    2    4    4    0    0  0.59583054181E+02 -0.31679953415E+03  0.13985537564E+03  0.36294023521E+03  0.90851544065E+02 0.  0.
          4    1    3    3  502    0 -0.90374292464E+02 -0.12270866727E+03 -0.41411316342E+02  0.15792348426E+03  0.00000000000E+00 0. -1.
         -3    1    3    3    0  502 -0.21793483376E+03 -0.17831044319E+03  0.39505983370E+01  0.28161287816E+03  0.00000000000E+00 0.  1.
         13    1    5    5    0    0  0.79448509314E+01  0.21800537699E+02 -0.34182077033E+00  0.23205623063E+02  0.00000000000E+00 0. -1.
        -13    1    5    5    0    0  0.24078122111E+03  0.59601810691E+03  0.49781736997E+03  0.81304078253E+03  0.00000000000E+00 0.  1.
          2    1    6    6  503    0 -0.18485670048E+02 -0.71158736735E+02  0.54173003310E+02  0.91323600994E+02  0.00000000000E+00 0. -1.
         -2    1    6    6    0  503  0.78068724229E+02 -0.24564079741E+03  0.85682372331E+02  0.27161663422E+03  0.00000000000E+00 0.  1.
<mgrwt>
<rscale>  0 0.15249816E+04</rscale>
<asrwt>0</asrwt>
<pdfrwt beam="1">  1        2 0.79911754E-01 0.15249816E+04</pdfrwt>
<pdfrwt beam="2">  1       -1 0.17219948E+00 0.15249816E+04</pdfrwt>
<totfact> 0.15391749E+01</totfact>
</mgrwt>
</event>
<event>
12    7  0.1741211E-007  0.1720891E+04  0.7818608E-02  0.8749538E-01
          2   -1    0    0  501    0  0.00000000000E+00  0.00000000000E+00  0.21056915773E+04  0.21056915773E+04  0.00000000000E+00 0. -1.
         -1   -1    0    0    0  501 -0.00000000000E+00 -0.00000000000E+00 -0.35160241701E+03  0.35160241701E+03  0.00000000000E+00 0.  1.
         24    2    1    2    0    0 -0.18728670590E+03 -0.49435337694E+03  0.10979368364E+04  0.12212192997E+04  0.80310085416E+02 0.  0.
        254    2    1    2    0    0  0.18728670590E+03  0.49435337694E+03  0.65615232397E+03  0.12360746947E+04  0.90436895513E+03 0.  0.
         23    2    4    4    0    0 -0.16437328119E+03  0.63054587599E+03  0.44785623447E+03  0.79571909980E+03  0.89370027050E+02 0.  0.
         23    2    4    4    0    0  0.35165998709E+03 -0.13619249904E+03  0.20829608951E+03  0.44035559486E+03  0.91173711676E+02 0.  0.
          2    1    3    3  502    0 -0.15930405851E+03 -0.33180603164E+03  0.80187840722E+03  0.88231627304E+03  0.00000000000E+00 0. -1.
         -1    1    3    3    0  502 -0.27982647391E+02 -0.16254734530E+03  0.29605842914E+03  0.33890302666E+03  0.00000000000E+00 0.  1.
         13    1    5    5    0    0 -0.17460131791E+03  0.58079921699E+03  0.40507138804E+03  0.72931212802E+03  0.00000000000E+00 0. -1.
        -13    1    5    5    0    0  0.10228036716E+02  0.49746659000E+02  0.42784846425E+02  0.66406971775E+02  0.00000000000E+00 0.  1.
          1    1    6    6  503    0  0.24910433970E+03 -0.69145977104E+02  0.17879339152E+03  0.31432660571E+03  0.00000000000E+00 0. -1.
         -1    1    6    6    0  503  0.10255564739E+03 -0.67046521940E+02  0.29502697983E+02  0.12602898914E+03  0.00000000000E+00 0.  1.
<mgrwt>
<rscale>  0 0.17208908E+04</rscale>
<asrwt>0</asrwt>
<pdfrwt beam="1">  1        2 0.32395254E+00 0.17208908E+04</pdfrwt>
<pdfrwt beam="2">  1       -1 0.54092681E-01 0.17208908E+04</pdfrwt>
<totfact> 0.21781987E+01</totfact>
</mgrwt>
</event>
<event>
12    7  0.1741211E-007  0.1762668E+04  0.7818608E-02  0.8726408E-01
         -1   -1    0    0    0  501 -0.00000000000E+00  0.00000000000E+00  0.75553767377E+03  0.75553767377E+03  0.00000000000E+00 0.  1.
          2   -1    0    0  501    0  0.00000000000E+00 -0.00000000000E+00 -0.10280755653E+04  0.10280755653E+04  0.00000000000E+00 0. -1.
         24    2    1    2    0    0  0.47976074927E+03 -0.25644518489E+03  0.25752803956E+03  0.60728880292E+03  0.80898019725E+02 0.  0.
        254    2    1    2    0    0 -0.47976074927E+03  0.25644518489E+03 -0.53006593113E+03  0.11763244362E+04  0.89823982234E+03 0.  0.
         23    2    4    4    0    0 -0.45585407445E+03  0.54495939125E+03 -0.49595081093E+03  0.87067251219E+03  0.85555486765E+02 0.  0.
         23    2    4    4    0    0 -0.23906674827E+02 -0.28851420636E+03 -0.34115120195E+02  0.30565192400E+03  0.91909090119E+02 0.  0.
          2    1    3    3  502    0  0.40197983878E+03 -0.19918972974E+03  0.17979908931E+03  0.48331361634E+03  0.00000000000E+00 0. -1.
         -1    1    3    3    0  502  0.77780910491E+02 -0.57255455155E+02  0.77728950243E+02  0.12397518658E+03  0.00000000000E+00 0.  1.
         13    1    5    5    0    0 -0.40383683111E+03  0.44109962712E+03 -0.39439759297E+03  0.71638155236E+03  0.00000000000E+00 0.  1.
        -13    1    5    5    0    0 -0.52017243334E+02  0.10385976413E+03 -0.10155321796E+03  0.15429095984E+03  0.00000000000E+00 0. -1.
          4    1    6    6  503    0 -0.39653963400E+02 -0.13193654807E+03 -0.52037560891E+02  0.14726709501E+03  0.00000000000E+00 0. -1.
         -4    1    6    6    0  503  0.15747288573E+02 -0.15657765829E+03  0.17922440697E+02  0.15838482899E+03  0.00000000000E+00 0.  1.
<mgrwt>
<rscale>  0 0.17626682E+04</rscale>
<asrwt>0</asrwt>
<pdfrwt beam="1">  1        2 0.15816547E+00 0.17626682E+04</pdfrwt>
<pdfrwt beam="2">  1       -1 0.11623657E+00 0.17626682E+04</pdfrwt>
<totfact> 0.17466466E+01</totfact>
</mgrwt>
</event>
<event>
12    7  0.1741211E-007  0.1551230E+04  0.7818608E-02  0.8851083E-01
          2   -1    0    0  501    0  0.00000000000E+00  0.00000000000E+00  0.34606460913E+04  0.34606460913E+04  0.00000000000E+00 0. -1.
         -1   -1    0    0    0  501 -0.00000000000E+00 -0.00000000000E+00 -0.17383408476E+03  0.17383408476E+03  0.00000000000E+00 0.  1.
         24    2    1    2    0    0 -0.24815245396E+03 -0.38130720319E+03  0.15370535082E+04  0.16048392669E+04  0.77464585077E+02 0.  0.
        254    2    1    2    0    0  0.24815245396E+03  0.38130720319E+03  0.17497584984E+04  0.20296409092E+04  0.92239503141E+03 0.  0.
         23    2    4    4    0    0  0.55614158801E+03  0.50092342933E+02  0.10230486352E+04  0.11691564036E+04  0.92170913963E+02 0.  0.
         23    2    4    4    0    0 -0.30798913405E+03  0.33121486026E+03  0.72670986316E+03  0.86048450556E+03  0.88123599203E+02 0.  0.
          4    1    3    3  502    0 -0.40714506185E+02 -0.36498593233E+02  0.12219738635E+03  0.13387314724E+03  0.00000000000E+00 0. -1.
         -3    1    3    3    0  502 -0.20743794777E+03 -0.34480860996E+03  0.14148561219E+04  0.14709661197E+04  0.00000000000E+00 0.  1.
         13    1    5    5    0    0  0.14334892984E+02  0.15318592697E+02  0.60690562453E+02  0.64214428363E+02  0.00000000000E+00 0. -1.
        -13    1    5    5    0    0  0.54180669503E+03  0.34773750237E+02  0.96235807276E+03  0.11049419753E+04  0.00000000000E+00 0.  1.
          3    1    6    6  503    0 -0.18410069236E+02  0.49565194868E+02  0.52446744481E+02  0.74473486545E+02  0.00000000000E+00 0. -1.
         -3    1    6    6    0  503 -0.28957906482E+03  0.28164966539E+03  0.67426311868E+03  0.78601101901E+03  0.00000000000E+00 0.  1.
<mgrwt>
<rscale>  0 0.15512295E+04</rscale>
<asrwt>0</asrwt>
<pdfrwt beam="1">  1        2 0.53240704E+00 0.15512295E+04</pdfrwt>
<pdfrwt beam="2">  1       -1 0.26743708E-01 0.15512295E+04</pdfrwt>
<totfact> 0.11981699E+01</totfact>
</mgrwt>
</event>
<event>
12    7  0.1741211E-007  0.1601406E+04  0.7818608E-02  0.8819685E-01
         -1   -1    0    0    0  501 -0.00000000000E+00  0.00000000000E+00  0.77078189979E+03  0.77078189979E+03  0.00000000000E+00 0.  1.
          2   -1    0    0  501    0  0.00000000000E+00 -0.00000000000E+00 -0.83178511306E+03  0.83178511306E+03  0.00000000000E+00 0. -1.
         24    2    1    2    0    0 -0.41902798858E+02  0.12175349853E+03 -0.55005502680E+03  0.57075329552E+03  0.81357439031E+02 0.  0.
        254    2    1    2    0    0  0.41902798858E+02 -0.12175349853E+03  0.48905181352E+03  0.10318137173E+04  0.89938207232E+03 0.  0.
         23    2    4    4    0    0  0.43158044919E+03 -0.10340195329E+03  0.81319145379E+02  0.46078531080E+03  0.93576979960E+02 0.  0.
         23    2    4    4    0    0 -0.38967765033E+03 -0.18351545241E+02  0.40773266814E+03  0.57102840653E+03  0.87418888188E+02 0.  0.
          2    1    3    3  502    0 -0.53834957527E+02  0.81626392511E+02 -0.26161361422E+03  0.27928973084E+03  0.00000000000E+00 0. -1.
         -1    1    3    3    0  502  0.11932158669E+02  0.40127106023E+02 -0.28844141257E+03  0.29146356468E+03  0.00000000000E+00 0.  1.
         13    1    5    5    0    0  0.35424382928E+02 -0.37996656921E+02  0.12180100331E+02  0.53357170906E+02  0.00000000000E+00 0. -1.
        -13    1    5    5    0    0  0.39615606626E+03 -0.65405296372E+02  0.69139045049E+02  0.40742813990E+03  0.00000000000E+00 0.  1.
          2    1    6    6  503    0 -0.14804790165E+03 -0.45566805621E+02  0.13321345570E+03  0.20430452696E+03  0.00000000000E+00 0. -1.
         -2    1    6    6    0  503 -0.24162974869E+03  0.27215260379E+02  0.27451921244E+03  0.36672387957E+03  0.00000000000E+00 0.  1.
<mgrwt>
<rscale>  0 0.16014055E+04</rscale>
<asrwt>0</asrwt>
<pdfrwt beam="1">  1        2 0.12796694E+00 0.16014055E+04</pdfrwt>
<pdfrwt beam="2">  1       -1 0.11858183E+00 0.16014055E+04</pdfrwt>
<totfact> 0.22810171E+01</totfact>
</mgrwt>
</event>
<event>
12    7  0.1741211E-007  0.1507435E+04  0.7818608E-02  0.8879524E-01
         -1   -1    0    0    0  501 -0.00000000000E+00  0.00000000000E+00  0.10679382202E+04  0.10679382202E+04  0.00000000000E+00 0.  1.
          2   -1    0    0  501    0  0.00000000000E+00 -0.00000000000E+00 -0.53195055396E+03  0.53195055396E+03  0.00000000000E+00 0. -1.
         24    2    1    2    0    0  0.31398076105E+03 -0.29031847220E+03  0.40772419558E+03  0.59637250416E+03  0.80946960721E+02 0.  0.
        254    2    1    2    0    0 -0.31398076105E+03  0.29031847220E+03  0.12826347070E+03  0.10035162701E+04  0.89873502921E+03 0.  0.
         23    2    4    4    0    0 -0.24186483581E+03 -0.23355130707E+03  0.28077097917E+03  0.44664953334E+03  0.87284884459E+02 0.  0.
         23    2    4    4    0    0 -0.72115925245E+02  0.52386977926E+03 -0.15250750846E+03  0.55686673671E+03  0.84863243050E+02 0.  0.
          2    1    3    3  502    0  0.22514783715E+02 -0.21423353618E+02  0.55490940105E+01  0.31570049261E+02  0.00000000000E+00 0. -1.
         -1    1    3    3    0  502  0.29146597734E+03 -0.26889511858E+03  0.40217510157E+03  0.56480245490E+03  0.00000000000E+00 0.  1.
         13    1    5    5    0    0 -0.67906974882E+02 -0.17907127146E+02  0.53075228214E+02  0.88028417515E+02  0.00000000000E+00 0.  1.
        -13    1    5    5    0    0 -0.17395786093E+03 -0.21564417992E+03  0.22769575095E+03  0.35862111582E+03  0.00000000000E+00 0. -1.
          2    1    6    6  503    0  0.75808159814E+01  0.18776245858E+03 -0.78202878233E+02  0.20353844794E+03  0.00000000000E+00 0.  1.
         -2    1    6    6    0  503 -0.79696741227E+02  0.33610732068E+03 -0.74304630228E+02  0.35332828878E+03  0.00000000000E+00 0. -1.
<mgrwt>
<rscale>  0 0.15074353E+04</rscale>
<asrwt>0</asrwt>
<pdfrwt beam="1">  1        2 0.81838547E-01 0.15074353E+04</pdfrwt>
<pdfrwt beam="2">  1       -1 0.16429819E+00 0.15074353E+04</pdfrwt>
<totfact> 0.17145333E+01</totfact>
</mgrwt>
</event>
<event>
12    7  0.1741211E-007  0.3482486E+04  0.7818608E-02  0.8117953E-01
         -1   -1    0    0    0  501 -0.00000000000E+00  0.00000000000E+00  0.94394147558E+03  0.94394147558E+03  0.00000000000E+00 0.  1.
          2   -1    0    0  501    0  0.00000000000E+00 -0.00000000000E+00 -0.32119864350E+04  0.32119864350E+04  0.00000000000E+00 0. -1.
         24    2    1    2    0    0 -0.12835302113E+04  0.70437859419E+03 -0.21893152505E+03  0.14825083766E+04  0.79379259861E+02 0.  0.
        254    2    1    2    0    0  0.12835302113E+04 -0.70437859419E+03 -0.20491134343E+04  0.26734195339E+04  0.89705469760E+03 0.  0.
         23    2    4    4    0    0  0.13689898299E+04 -0.55887656200E+03 -0.15668860254E+04  0.21564893528E+04  0.94012479242E+02 0.  0.
         23    2    4    4    0    0 -0.85459618681E+02 -0.14550203219E+03 -0.48222740894E+03  0.51693018110E+03  0.78735953734E+02 0.  0.
          2    1    3    3  502    0 -0.54238491930E+03  0.27284863179E+03 -0.12364886494E+03  0.61961021486E+03  0.00000000000E+00 0. -1.
         -1    1    3    3    0  502 -0.74114529195E+03  0.43152996240E+03 -0.95282660106E+02  0.86289816175E+03  0.00000000000E+00 0.  1.
         13    1    5    5    0    0  0.55572426119E+03 -0.19268716353E+03 -0.67161789272E+03  0.89276446573E+03  0.00000000000E+00 0.  1.
        -13    1    5    5    0    0  0.81326556875E+03 -0.36618939848E+03 -0.89526813268E+03  0.12637248871E+04  0.00000000000E+00 0. -1.
          4    1    6    6  503    0 -0.65145548985E+02 -0.74804795519E+02 -0.17636505575E+03  0.20234706046E+03  0.00000000000E+00 0.  1.
         -4    1    6    6    0  503 -0.20314069696E+02 -0.70697236668E+02 -0.30586235318E+03  0.31458312065E+03  0.00000000000E+00 0. -1.
<mgrwt>
<rscale>  0 0.34824860E+04</rscale>
<asrwt>0</asrwt>
<pdfrwt beam="1">  1        2 0.49415176E+00 0.34824860E+04</pdfrwt>
<pdfrwt beam="2">  1       -1 0.14522176E+00 0.34824860E+04</pdfrwt>
<totfact> 0.45231607E-01</totfact>
</mgrwt>
</event>
<event>
12    7  0.1741211E-007  0.4049839E+04  0.7818608E-02  0.7994567E-01
          2   -1    0    0  501    0  0.00000000000E+00  0.00000000000E+00  0.32689512026E+04  0.32689512026E+04  0.00000000000E+00 0. -1.
         -1   -1    0    0    0  501 -0.00000000000E+00 -0.00000000000E+00 -0.12543165692E+04  0.12543165692E+04  0.00000000000E+00 0.  1.
         24    2    1    2    0    0 -0.35014717256E+03  0.15898719753E+04 -0.18721720839E+03  0.16408050690E+04  0.83036442876E+02 0.  0.
        254    2    1    2    0    0  0.35014717256E+03 -0.15898719753E+04  0.22018518418E+04  0.28824627028E+04  0.90007986279E+03 0.  0.
         23    2    4    4    0    0  0.52954368625E+03 -0.45805081097E+03  0.74307094042E+03  0.10249824001E+04  0.90594905569E+02 0.  0.
         23    2    4    4    0    0 -0.17939651369E+03 -0.11318211644E+04  0.14587809014E+04  0.18574803027E+04  0.94810861770E+02 0.  0.
          4    1    3    3  502    0 -0.17365035016E+03  0.70132519713E+03 -0.46095482862E+02  0.72397256149E+03  0.00000000000E+00 0. -1.
         -3    1    3    3    0  502 -0.17649682240E+03  0.88854677821E+03 -0.14112172553E+03  0.91683250750E+03  0.00000000000E+00 0.  1.
         13    1    5    5    0    0  0.27661969824E+03 -0.19291124627E+03  0.31468457824E+03  0.46125870200E+03  0.00000000000E+00 0.  1.
        -13    1    5    5    0    0  0.25292398801E+03 -0.26513956470E+03  0.42838636218E+03  0.56372369809E+03  0.00000000000E+00 0. -1.
          3    1    6    6  503    0 -0.39975148846E+02 -0.50984729001E+03  0.68888969060E+03  0.85796927536E+03  0.00000000000E+00 0. -1.
         -3    1    6    6    0  503 -0.13942136485E+03 -0.62197387437E+03  0.76989121081E+03  0.99951102738E+03  0.00000000000E+00 0.  1.
<mgrwt>
<rscale>  0 0.40498393E+04</rscale>
<asrwt>0</asrwt>
<pdfrwt beam="1">  1        2 0.50291557E+00 0.40498393E+04</pdfrwt>
<pdfrwt beam="2">  1       -1 0.19297178E+00 0.40498393E+04</pdfrwt>
<totfact> 0.17527918E-01</totfact>
</mgrwt>
</event>
<event>
12    7  0.1741211E-007  0.1708419E+04  0.7818608E-02  0.8756577E-01
         -1   -1    0    0    0  501 -0.00000000000E+00  0.00000000000E+00  0.12553010538E+04  0.12553010538E+04  0.00000000000E+00 0.  1.
          2   -1    0    0  501    0  0.00000000000E+00 -0.00000000000E+00 -0.58127421220E+03  0.58127421220E+03  0.00000000000E+00 0. -1.
         24    2    1    2    0    0  0.51814540502E+02 -0.60698723785E+03  0.41482722351E+03  0.74145371419E+03  0.80955119696E+02 0.  0.
        254    2    1    2    0    0 -0.51814540502E+02  0.60698723785E+03  0.25919961805E+03  0.10951215518E+04  0.87234655822E+03 0.  0.
         23    2    4    4    0    0 -0.39989314423E+03  0.50834337255E+03  0.30106430484E+03  0.71925031681E+03  0.91399077538E+02 0.  0.
         23    2    4    4    0    0  0.34807860372E+03  0.98643865297E+02 -0.41864686782E+02  0.37587123495E+03  0.92936573725E+02 0.  0.
          2    1    3    3  502    0  0.43409116771E+02 -0.16693067362E+03  0.90929054079E+02  0.19498280460E+03  0.00000000000E+00 0. -1.
         -1    1    3    3    0  502  0.84054237304E+01 -0.44005656423E+03  0.32389816943E+03  0.54647090959E+03  0.00000000000E+00 0.  1.
         13    1    5    5    0    0 -0.34145771916E+03  0.41669094776E+03  0.28470834870E+03  0.60933042247E+03  0.00000000000E+00 0. -1.
        -13    1    5    5    0    0 -0.58435425063E+02  0.91652424791E+02  0.16355956132E+02  0.10991989435E+03  0.00000000000E+00 0.  1.
          4    1    6    6  503    0  0.21444891629E+03  0.74316673322E+02 -0.69293534174E+02  0.23730339128E+03  0.00000000000E+00 0. -1.
         -4    1    6    6    0  503  0.13362968743E+03  0.24327191975E+02  0.27428847393E+02  0.13856784368E+03  0.00000000000E+00 0.  1.
<mgrwt>
<rscale>  0 0.17084193E+04</rscale>
<asrwt>0</asrwt>
<pdfrwt beam="1">  1        2 0.89426802E-01 0.17084193E+04</pdfrwt>
<pdfrwt beam="2">  1       -1 0.19312324E+00 0.17084193E+04</pdfrwt>
<totfact> 0.94046509E+00</totfact>
</mgrwt>
</event>
<event>
12    7  0.1741211E-007  0.1611632E+04  0.7818608E-02  0.8813434E-01
          2   -1    0    0  501    0  0.00000000000E+00  0.00000000000E+00  0.24528775400E+04  0.24528775400E+04  0.00000000000E+00 0. -1.
         -3   -1    0    0    0  501 -0.00000000000E+00 -0.00000000000E+00 -0.26472556377E+03  0.26472556377E+03  0.00000000000E+00 0.  1.
         24    2    1    2    0    0 -0.45498445044E+03 -0.52565080893E+02  0.11021382876E+04  0.11960967485E+04  0.78515533478E+02 0.  0.
        254    2    1    2    0    0  0.45498445044E+03  0.52565080893E+02  0.10860136887E+04  0.15215063553E+04  0.96217561770E+03 0.  0.
         23    2    4    4    0    0  0.49606374639E+03  0.36745776772E+03  0.10031098296E+04  0.11807231064E+04  0.82299891642E+02 0.  0.
         23    2    4    4    0    0 -0.41079295950E+02 -0.31489268682E+03  0.82903859079E+02  0.34078324890E+03  0.91734726836E+02 0.  0.
          4    1    3    3  502    0 -0.29131601560E+03 -0.64199619940E+02  0.65250613820E+03  0.71746140839E+03  0.00000000000E+00 0. -1.
         -3    1    3    3    0  502 -0.16366843484E+03  0.11634539047E+02  0.44963214936E+03  0.47863534010E+03  0.00000000000E+00 0.  1.
         13    1    5    5    0    0  0.36501444437E+03  0.29086420503E+03  0.81302666728E+03  0.93746994196E+03  0.00000000000E+00 0.  1.
        -13    1    5    5    0    0  0.13104930202E+03  0.76593562683E+02  0.19008316234E+03  0.24325316444E+03  0.00000000000E+00 0. -1.
          3    1    6    6  503    0  0.31462159084E+01 -0.50953254589E+02  0.49463925307E+02  0.71083139594E+02  0.00000000000E+00 0. -1.
         -3    1    6    6    0  503 -0.44225511858E+02 -0.26393943223E+03  0.33439933772E+02  0.26970010930E+03  0.00000000000E+00 0.  1.
<mgrwt>
<rscale>  0 0.16116320E+04</rscale>
<asrwt>0</asrwt>
<pdfrwt beam="1">  1        2 0.37736576E+00 0.16116320E+04</pdfrwt>
<pdfrwt beam="2">  1       -3 0.40727011E-01 0.16116320E+04</pdfrwt>
<totfact> 0.13776354E+01</totfact>
</mgrwt>
</event>
<event>
12    7  0.1928957E-007  0.2318893E+04  0.7818608E-02  0.8470509E-01
         -1   -1    0    0    0  501 -0.00000000000E+00  0.00000000000E+00  0.92271656268E+03  0.92271656268E+03  0.00000000000E+00 0.  1.
          2   -1    0    0  501    0  0.00000000000E+00 -0.00000000000E+00 -0.14569111120E+04  0.14569111120E+04  0.00000000000E+00 0. -1.
         24    2    1    2    0    0 -0.66730969560E+03 -0.49027180176E+03  0.31093817431E+03  0.88813664789E+03  0.80221491092E+02 0.  0.
        254    2    1    2    0    0  0.66730969560E+03  0.49027180176E+03 -0.84513272365E+03  0.14914910268E+04  0.90809002476E+03 0.  0.
         23    2    4    4    0    0 -0.18817043976E+03  0.20116982380E+03 -0.35897548836E+03  0.46201141004E+03  0.93347358547E+02 0.  0.
         23    2    4    4    0    0  0.85548013537E+03  0.28910197795E+03 -0.48615723529E+03  0.10294796168E+04  0.89739669585E+02 0.  0.
          4    1    3    3  502    0 -0.18125087505E+03 -0.13835308333E+03  0.48220205325E+02  0.23306360414E+03  0.00000000000E+00 0. -1.
         -3    1    3    3    0  502 -0.48605882056E+03 -0.35191871843E+03  0.26271796898E+03  0.65507304375E+03  0.00000000000E+00 0.  1.
         13    1    5    5    0    0 -0.16479292091E+03  0.18972453017E+03 -0.35607304073E+03  0.43582119552E+03  0.00000000000E+00 0. -1.
        -13    1    5    5    0    0 -0.23377518850E+02  0.11445293632E+02 -0.29024476309E+01  0.26190214511E+02  0.00000000000E+00 0.  1.
          3    1    6    6  503    0  0.66759773105E+03  0.20503492403E+03 -0.33797905118E+03  0.77585816333E+03  0.00000000000E+00 0. -1.
         -3    1    6    6    0  503  0.18788240432E+03  0.84067053927E+02 -0.14817818411E+03  0.25362145346E+03  0.00000000000E+00 0.  1.
<mgrwt>
<rscale>  0 0.23188929E+04</rscale>
<asrwt>0</asrwt>
<pdfrwt beam="1">  1        2 0.22414017E+00 0.23188929E+04</pdfrwt>
<pdfrwt beam="2">  1       -1 0.14195640E+00 0.23188929E+04</pdfrwt>
<totfact> 0.55968906E+00</totfact>
</mgrwt>
</event>
<event>
12    7  0.1741211E-007  0.1263286E+04  0.7818608E-02  0.9059197E-01
          2   -1    0    0  501    0  0.00000000000E+00  0.00000000000E+00  0.22547959237E+04  0.22547959237E+04  0.00000000000E+00 0. -1.
         -1   -1    0    0    0  501 -0.00000000000E+00 -0.00000000000E+00 -0.17694410447E+03  0.17694410447E+03  0.00000000000E+00 0.  1.
         24    2    1    2    0    0  0.21666698142E+03 -0.19743788780E+03  0.55319662602E+03  0.63076310875E+03  0.76871919112E+02 0.  0.
        254    2    1    2    0    0 -0.21666698142E+03  0.19743788780E+03  0.15246551932E+04  0.18009769194E+04  0.91269825557E+03 0.  0.
         23    2    4    4    0    0 -0.32717251167E+03  0.40333084633E+03  0.43644155349E+03  0.68430168969E+03  0.89832894315E+02 0.  0.
         23    2    4    4    0    0  0.11050553025E+03 -0.20589295853E+03  0.10882136397E+04  0.11166752297E+04  0.90284331072E+02 0.  0.
          4    1    3    3  502    0  0.17006298362E+03 -0.18940783157E+03  0.48548769564E+03  0.54817428586E+03  0.00000000000E+00 0. -1.
         -3    1    3    3    0  502  0.46603997804E+02 -0.80300562313E+01  0.67708930379E+02  0.82588822897E+02  0.00000000000E+00 0.  1.
         13    1    5    5    0    0  0.29957319085E+01  0.40344575346E+01 -0.21550218688E+01  0.54676664603E+01  0.00000000000E+00 0. -1.
        -13    1    5    5    0    0 -0.33016824358E+03  0.39929638879E+03  0.43859657536E+03  0.67883402323E+03  0.00000000000E+00 0.  1.
          3    1    6    6  503    0 -0.10790903089E+02 -0.17496407111E+02  0.42308051341E+02  0.47037634502E+02  0.00000000000E+00 0. -1.
         -3    1    6    6    0  503  0.12129643334E+03 -0.18839655142E+03  0.10459055884E+04  0.10696375952E+04  0.00000000000E+00 0.  1.
<mgrwt>
<rscale>  0 0.12632859E+04</rscale>
<asrwt>0</asrwt>
<pdfrwt beam="1">  1        2 0.34689166E+00 0.12632859E+04</pdfrwt>
<pdfrwt beam="2">  1       -1 0.27222172E-01 0.12632859E+04</pdfrwt>
<totfact> 0.65267456E+01</totfact>
</mgrwt>
</event>
<event>
12    7  0.1741211E-007  0.1228475E+04  0.7818608E-02  0.9088292E-01
          2   -1    0    0  501    0  0.00000000000E+00  0.00000000000E+00  0.56720807419E+03  0.56720807419E+03  0.00000000000E+00 0. -1.
         -1   -1    0    0    0  501 -0.00000000000E+00 -0.00000000000E+00 -0.66516578424E+03  0.66516578424E+03  0.00000000000E+00 0.  1.
         24    2    1    2    0    0  0.14637633673E+03  0.18437880353E+03  0.11780261301E+03  0.27547781370E+03  0.81172625100E+02 0.  0.
        254    2    1    2    0    0 -0.14637633673E+03 -0.18437880353E+03 -0.21576032306E+03  0.95689604473E+03  0.90203988175E+03 0.  0.
         23    2    4    4    0    0 -0.93040694525E+02  0.23749376835E+03  0.21355313876E+03  0.34490662741E+03  0.91081160047E+02 0.  0.
         23    2    4    4    0    0 -0.53335642203E+02 -0.42187257188E+03 -0.42931346182E+03  0.61198941733E+03  0.96952776090E+02 0.  0.
          2    1    3    3  502    0  0.11573658251E+03  0.18099756737E+03  0.86654522659E+02  0.23165509324E+03  0.00000000000E+00 0. -1.
         -1    1    3    3    0  502  0.30639754215E+02  0.33812361581E+01  0.31148090353E+02  0.43822720465E+02  0.00000000000E+00 0.  1.
         13    1    5    5    0    0 -0.97778180750E+02  0.19672160432E+03  0.20966496696E+03  0.30367640772E+03  0.00000000000E+00 0. -1.
        -13    1    5    5    0    0  0.47374862255E+01  0.40772164029E+02  0.38881717953E+01  0.41230219685E+02  0.00000000000E+00 0.  1.
          2    1    6    6  503    0 -0.36773895967E+02 -0.41253577651E+03 -0.42288319615E+03  0.59191915319E+03  0.00000000000E+00 0. -1.
         -2    1    6    6    0  503 -0.16561746236E+02 -0.93367953647E+01 -0.64302656722E+01  0.20070264141E+02  0.00000000000E+00 0.  1.
<mgrwt>
<rscale>  0 0.12284745E+04</rscale>
<asrwt>0</asrwt>
<pdfrwt beam="1">  1        2 0.87262781E-01 0.12284745E+04</pdfrwt>
<pdfrwt beam="2">  1       -1 0.10233320E+00 0.12284745E+04</pdfrwt>
<totfact> 0.54025860E+01</totfact>
</mgrwt>
</event>
<event>
12    7  0.1741211E-007  0.2859498E+04  0.7818608E-02  0.8285031E-01
          2   -1    0    0  501    0  0.00000000000E+00  0.00000000000E+00  0.12794793599E+04  0.12794793599E+04  0.00000000000E+00 0. -1.
         -1   -1    0    0    0  501 -0.00000000000E+00 -0.00000000000E+00 -0.15976672021E+04  0.15976672021E+04  0.00000000000E+00 0.  1.
         24    2    1    2    0    0  0.18972387129E+03 -0.43640995716E+03  0.10570127811E+04  0.11619717724E+04  0.80334190893E+02 0.  0.
        254    2    1    2    0    0 -0.18972387129E+03  0.43640995716E+03 -0.13752006233E+04  0.17151747897E+04  0.90785406690E+03 0.  0.
         23    2    4    4    0    0 -0.19162736081E+03  0.46986714812E+03 -0.22817729077E+03  0.56375784950E+03  0.90894744365E+02 0.  0.
         23    2    4    4    0    0  0.19034895171E+01 -0.33457190959E+02 -0.11470233325E+04  0.11514169402E+04  0.94738787656E+02 0.  0.
          4    1    3    3  502    0  0.13845094902E+03 -0.35136616894E+03  0.75746162688E+03  0.84638937030E+03  0.00000000000E+00 0. -1.
         -1    1    3    3    0  502  0.51272922270E+02 -0.85043788218E+02  0.29955115426E+03  0.31558240206E+03  0.00000000000E+00 0.  1.
         13    1    5    5    0    0 -0.15258926999E+03  0.32813656219E+03 -0.12007287888E+03  0.38128019225E+03  0.00000000000E+00 0. -1.
        -13    1    5    5    0    0 -0.39038090823E+02  0.14173058593E+03 -0.10810441190E+03  0.18247765725E+03  0.00000000000E+00 0.  1.
          1    1    6    6  503    0  0.46686797750E+02 -0.17170066444E+02 -0.44335277714E+03  0.44613468063E+03  0.00000000000E+00 0. -1.
         -1    1    6    6    0  503 -0.44783308233E+02 -0.16287124516E+02 -0.70367055540E+03  0.70528225956E+03  0.00000000000E+00 0.  1.
<mgrwt>
<rscale>  0 0.28594980E+04</rscale>
<asrwt>0</asrwt>
<pdfrwt beam="1">  1        2 0.19684298E+00 0.28594980E+04</pdfrwt>
<pdfrwt beam="2">  1       -1 0.24579495E+00 0.28594980E+04</pdfrwt>
<totfact> 0.12452589E+00</totfact>
</mgrwt>
</event>
<event>
12    7  0.1741211E-007  0.1551223E+04  0.7818608E-02  0.8851087E-01
         -1   -1    0    0    0  501 -0.00000000000E+00  0.00000000000E+00  0.84737838413E+03  0.84737838413E+03  0.00000000000E+00 0.  1.
          2   -1    0    0  501    0  0.00000000000E+00 -0.00000000000E+00 -0.70992285808E+03  0.70992285808E+03  0.00000000000E+00 0. -1.
         24    2    1    2    0    0  0.19485331626E+03  0.28749302146E+02  0.52114827927E+03  0.56324077343E+03  0.82766555082E+02 0.  0.
        254    2    1    2    0    0 -0.19485331626E+03 -0.28749302146E+02 -0.38369275322E+03  0.99406046878E+03  0.89562366510E+03 0.  0.
         23    2    4    4    0    0 -0.26895641014E+03 -0.30721294619E+03  0.93804573326E+02  0.42882149571E+03  0.91494438864E+02 0.  0.
         23    2    4    4    0    0  0.74103093883E+02  0.27846364404E+03 -0.47749732654E+03  0.56523897307E+03  0.91968093612E+02 0.  0.
          4    1    3    3  502    0  0.26782276120E+02  0.31436419002E+02  0.63995770262E+02  0.76164278801E+02  0.00000000000E+00 0. -1.
         -3    1    3    3    0  502  0.16807104014E+03 -0.26871168566E+01  0.45715250901E+03  0.48707649463E+03  0.00000000000E+00 0.  1.
         13    1    5    5    0    0 -0.16018340085E+03 -0.15203992299E+03  0.92176960633E+02  0.23931454650E+03  0.00000000000E+00 0.  1.
        -13    1    5    5    0    0 -0.10877300929E+03 -0.15517302319E+03  0.16276126929E+01  0.18950694921E+03  0.00000000000E+00 0. -1.
          3    1    6    6  503    0  0.70546265429E+02  0.22671622487E+03 -0.31371149786E+03  0.39343605081E+03  0.00000000000E+00 0. -1.
         -3    1    6    6    0  503  0.35568284541E+01  0.51747419172E+02 -0.16378582869E+03  0.17180292226E+03  0.00000000000E+00 0.  1.
<mgrwt>
<rscale>  0 0.15512231E+04</rscale>
<asrwt>0</asrwt>
<pdfrwt beam="1">  1        2 0.10921890E+00 0.15512231E+04</pdfrwt>
<pdfrwt beam="2">  1       -1 0.13036591E+00 0.15512231E+04</pdfrwt>
<totfact> 0.22281925E+01</totfact>
</mgrwt>
</event>
<event>
12    7  0.1741211E-007  0.2385721E+04  0.7818608E-02  0.8444869E-01
         -1   -1    0    0    0  501 -0.00000000000E+00  0.00000000000E+00  0.22888632938E+04  0.22888632938E+04  0.00000000000E+00 0.  1.
          2   -1    0    0  501    0  0.00000000000E+00 -0.00000000000E+00 -0.62166950978E+03  0.62166950978E+03  0.00000000000E+00 0. -1.
         24    2    1    2    0    0 -0.50747680037E+03 -0.16860810580E+03 -0.34725230728E+03  0.64259956770E+03  0.79928988742E+02 0.  0.
        254    2    1    2    0    0  0.50747680037E+03  0.16860810580E+03  0.20144460913E+04  0.22679332359E+04  0.89418494252E+03 0.  0.
         23    2    4    4    0    0  0.52532238738E+03  0.21922375910E+02  0.46095725188E+03  0.70465753084E+03  0.87272254816E+02 0.  0.
         23    2    4    4    0    0 -0.17845587010E+02  0.14668572989E+03  0.15534888394E+04  0.15632757051E+04  0.93103101276E+02 0.  0.
          4    1    3    3  502    0 -0.18804266100E+03 -0.52407202471E+02 -0.17196811728E+03  0.26015301380E+03  0.00000000000E+00 0. -1.
         -3    1    3    3    0  502 -0.31943413936E+03 -0.11620090332E+03 -0.17528419000E+03  0.38244655390E+03  0.00000000000E+00 0.  1.
         13    1    5    5    0    0  0.45512361149E+02 -0.20837389196E+02  0.58131681320E+02  0.76712868406E+02  0.00000000000E+00 0. -1.
        -13    1    5    5    0    0  0.47981002623E+03  0.42759765106E+02  0.40282557056E+03  0.62794466243E+03  0.00000000000E+00 0.  1.
          2    1    6    6  503    0 -0.20475395663E+02  0.11484563432E+03  0.73816203659E+03  0.74732319234E+03  0.00000000000E+00 0. -1.
         -2    1    6    6    0  503  0.26298086540E+01  0.31840095561E+02  0.81532680284E+03  0.81595251271E+03  0.00000000000E+00 0.  1.
<mgrwt>
<rscale>  0 0.23857213E+04</rscale>
<asrwt>0</asrwt>
<pdfrwt beam="1">  1        2 0.95641464E-01 0.23857213E+04</pdfrwt>
<pdfrwt beam="2">  1       -1 0.35213281E+00 0.23857213E+04</pdfrwt>
<totfact> 0.73428453E-01</totfact>
</mgrwt>
</event>
<event>
12    7  0.1741211E-007  0.2134768E+04  0.7818608E-02  0.8546081E-01
          2   -1    0    0  501    0  0.00000000000E+00  0.00000000000E+00  0.15971428471E+04  0.15971428471E+04  0.00000000000E+00 0. -1.
         -3   -1    0    0    0  501 -0.00000000000E+00 -0.00000000000E+00 -0.71334165623E+03  0.71334165623E+03  0.00000000000E+00 0.  1.
         24    2    1    2    0    0  0.71466020777E+03 -0.48373106943E+03  0.22876018720E+03  0.89703561399E+03  0.87216451519E+02 0.  0.
        254    2    1    2    0    0 -0.71466020777E+03  0.48373106943E+03  0.65504100369E+03  0.14134488894E+04  0.90775772442E+03 0.  0.
         23    2    4    4    0    0  0.11847543984E+03  0.25589713656E+03 -0.42182517001E+02  0.29943390264E+03  0.91441363523E+02 0.  0.
         23    2    4    4    0    0 -0.83313564761E+03  0.22783393287E+03  0.69722352069E+03  0.11140149867E+04  0.94262636064E+02 0.  0.
          2    1    3    3  502    0  0.12452567372E+03 -0.57084190232E+02  0.13346513339E+02  0.13763494326E+03  0.00000000000E+00 0. -1.
         -1    1    3    3    0  502  0.59013453405E+03 -0.42664687920E+03  0.21541367386E+03  0.75940067072E+03  0.00000000000E+00 0.  1.
         13    1    5    5    0    0  0.12577238608E+03  0.23562313950E+03 -0.18970735668E+02  0.26776266689E+03  0.00000000000E+00 0. -1.
        -13    1    5    5    0    0 -0.72969462383E+01  0.20273997064E+02 -0.23211781333E+02  0.31671235751E+02  0.00000000000E+00 0.  1.
          1    1    6    6  503    0 -0.72239899622E+03  0.22022844938E+03  0.57722567668E+03  0.95055266108E+03  0.00000000000E+00 0. -1.
         -1    1    6    6    0  503 -0.11073665139E+03  0.76054834906E+01  0.11999784401E+03  0.16346232565E+03  0.00000000000E+00 0.  1.
<mgrwt>
<rscale>  0 0.21347679E+04</rscale>
<asrwt>0</asrwt>
<pdfrwt beam="1">  1        2 0.24571428E+00 0.21347679E+04</pdfrwt>
<pdfrwt beam="2">  1       -3 0.10974487E+00 0.21347679E+04</pdfrwt>
<totfact> 0.45871021E+00</totfact>
</mgrwt>
</event>
<event>
12    7  0.1741211E-007  0.1585847E+04  0.7818608E-02  0.8829290E-01
          2   -1    0    0  501    0  0.00000000000E+00  0.00000000000E+00  0.14113564960E+04  0.14113564960E+04  0.00000000000E+00 0. -1.
         -1   -1    0    0    0  501 -0.00000000000E+00 -0.00000000000E+00 -0.44547756368E+03  0.44547756368E+03  0.00000000000E+00 0.  1.
         24    2    1    2    0    0  0.52873321296E+03  0.34683630968E+02  0.43934340844E+03  0.69305617190E+03  0.80885487741E+02 0.  0.
        254    2    1    2    0    0 -0.52873321296E+03 -0.34683630968E+02  0.52653552389E+03  0.11637778878E+04  0.89239988202E+03 0.  0.
         23    2    4    4    0    0 -0.40771814277E+03 -0.37527821460E+03  0.55538021385E+03  0.78998657121E+03  0.92540685364E+02 0.  0.
         23    2    4    4    0    0 -0.12101507019E+03  0.34059458363E+03 -0.28844689962E+02  0.37379131658E+03  0.90766814402E+02 0.  0.
          4    1    3    3  502    0  0.75675998900E+02  0.12876730213E+02  0.31145304889E+02  0.82841396699E+02  0.00000000000E+00 0. -1.
         -3    1    3    3    0  502  0.45305721406E+03  0.21806900755E+02  0.40819810355E+03  0.61021477520E+03  0.00000000000E+00 0.  1.
         13    1    5    5    0    0 -0.68901908684E+02 -0.42140381123E+02  0.12539804265E+03  0.14915748000E+03  0.00000000000E+00 0.  1.
        -13    1    5    5    0    0 -0.33881623409E+03 -0.33313783348E+03  0.42998217120E+03  0.64082909120E+03  0.00000000000E+00 0. -1.
          3    1    6    6  503    0 -0.13191801072E+03  0.28267590229E+03 -0.10701311512E+02  0.31212584859E+03  0.00000000000E+00 0. -1.
         -3    1    6    6    0  503  0.10902940534E+02  0.57918681345E+02 -0.18143378450E+02  0.61665467992E+02  0.00000000000E+00 0.  1.
<mgrwt>
<rscale>  0 0.15858470E+04</rscale>
<asrwt>0</asrwt>
<pdfrwt beam="1">  1        2 0.21713177E+00 0.15858470E+04</pdfrwt>
<pdfrwt beam="2">  1       -1 0.68535010E-01 0.15858470E+04</pdfrwt>
<totfact> 0.33606824E+01</totfact>
</mgrwt>
</event>
<event>
12    7  0.1741211E-007  0.1561546E+04  0.7818608E-02  0.8844527E-01
         -1   -1    0    0    0  501 -0.00000000000E+00  0.00000000000E+00  0.89051097109E+03  0.89051097109E+03  0.00000000000E+00 0.  1.
          2   -1    0    0  501    0  0.00000000000E+00 -0.00000000000E+00 -0.68455781693E+03  0.68455781693E+03  0.00000000000E+00 0. -1.
         24    2    1    2    0    0  0.43631839005E+03  0.22746022568E+03  0.20399547805E+03  0.53881538724E+03  0.81215606269E+02 0.  0.
        254    2    1    2    0    0 -0.43631839005E+03 -0.22746022568E+03  0.19576761105E+01  0.10362534008E+04  0.91197883001E+03 0.  0.
         23    2    4    4    0    0 -0.58513244141E+03 -0.24812318545E+03  0.28598065378E+03  0.70216554940E+03  0.85477688751E+02 0.  0.
         23    2    4    4    0    0  0.14881405136E+03  0.20662959770E+02 -0.28402297767E+03  0.33408785139E+03  0.91504430573E+02 0.  0.
          2    1    3    3  502    0  0.31116188007E+03  0.17374460416E+03  0.10870472272E+03  0.37259310222E+03  0.00000000000E+00 0. -1.
         -1    1    3    3    0  502  0.12515650998E+03  0.53715621525E+02  0.95290755327E+02  0.16622228502E+03  0.00000000000E+00 0.  1.
         13    1    5    5    0    0 -0.25196432681E+03 -0.14232210177E+03  0.15947638764E+03  0.33041537623E+03  0.00000000000E+00 0. -1.
        -13    1    5    5    0    0 -0.33316811460E+03 -0.10580108368E+03  0.12650426613E+03  0.37175017316E+03  0.00000000000E+00 0.  1.
          4    1    6    6  503    0  0.39559134086E+02  0.31165162452E+02 -0.16348249899E+03  0.17106349674E+03  0.00000000000E+00 0. -1.
         -4    1    6    6    0  503  0.10925491728E+03 -0.10502202681E+02 -0.12054047868E+03  0.16302435465E+03  0.00000000000E+00 0.  1.
<mgrwt>
<rscale>  0 0.15615457E+04</rscale>
<asrwt>0</asrwt>
<pdfrwt beam="1">  1        2 0.10531659E+00 0.15615457E+04</pdfrwt>
<pdfrwt beam="2">  1       -1 0.13700169E+00 0.15615457E+04</pdfrwt>
<totfact> 0.20535319E+01</totfact>
</mgrwt>
</event>
<event>
12    7  0.1741211E-007  0.1634467E+04  0.7818608E-02  0.8799649E-01
         -1   -1    0    0    0  501 -0.00000000000E+00  0.00000000000E+00  0.21929074293E+03  0.21929074293E+03  0.00000000000E+00 0.  1.
          2   -1    0    0  501    0  0.00000000000E+00 -0.00000000000E+00 -0.30455927080E+04  0.30455927080E+04  0.00000000000E+00 0. -1.
         24    2    1    2    0    0 -0.29651194079E+03  0.41325978400E+03 -0.14832402358E+04  0.15699585424E+04  0.77879698791E+02 0.  0.
        254    2    1    2    0    0  0.29651194079E+03 -0.41325978400E+03 -0.13430617293E+04  0.16949249086E+04  0.90014035406E+03 0.  0.
         23    2    4    4    0    0  0.39531005081E+03  0.16349987000E+03 -0.49603498890E+03  0.66145625406E+03  0.92040328472E+02 0.  0.
         23    2    4    4    0    0 -0.98798110013E+02 -0.57675965400E+03 -0.84702674036E+03  0.10334686545E+04  0.90500806382E+02 0.  0.
          4    1    3    3  502    0 -0.20979297073E+03  0.29978366793E+03 -0.11657460740E+04  0.12218212829E+04  0.00000000000E+00 0. -1.
         -3    1    3    3    0  502 -0.86718970058E+02  0.11347611606E+03 -0.31749416177E+03  0.34813725949E+03  0.00000000000E+00 0.  1.
         13    1    5    5    0    0  0.29115574797E+03  0.14141273344E+03 -0.42171071422E+03  0.53160996722E+03  0.00000000000E+00 0. -1.
        -13    1    5    5    0    0  0.10415430284E+03  0.22087136562E+02 -0.74324274675E+02  0.12984628684E+03  0.00000000000E+00 0.  1.
          1    1    6    6  503    0 -0.29867346255E+02 -0.21241042027E+03 -0.23764956066E+03  0.32013678122E+03  0.00000000000E+00 0. -1.
         -1    1    6    6    0  503 -0.68930763759E+02 -0.36434923373E+03 -0.60937717970E+03  0.71333187329E+03  0.00000000000E+00 0.  1.
<mgrwt>
<rscale>  0 0.16344666E+04</rscale>
<asrwt>0</asrwt>
<pdfrwt beam="1">  1        2 0.46855271E+00 0.16344666E+04</pdfrwt>
<pdfrwt beam="2">  1       -1 0.33737038E-01 0.16344666E+04</pdfrwt>
<totfact> 0.14796909E+01</totfact>
</mgrwt>
</event>
<event>
12    7  0.1741211E-007  0.1362693E+04  0.7818608E-02  0.8981275E-01
          2   -1    0    0  501    0  0.00000000000E+00  0.00000000000E+00  0.81106413958E+03  0.81106413958E+03  0.00000000000E+00 0. -1.
         -1   -1    0    0    0  501 -0.00000000000E+00 -0.00000000000E+00 -0.57237547681E+03  0.57237547681E+03  0.00000000000E+00 0.  1.
         24    2    1    2    0    0  0.22556437190E+03  0.63750255941E+02  0.37122421405E+03  0.44672002359E+03  0.82510492512E+02 0.  0.
        254    2    1    2    0    0 -0.22556437190E+03 -0.63750255941E+02 -0.13253555128E+03  0.93671959281E+03  0.89718144329E+03 0.  0.
         23    2    4    4    0    0  0.25060229549E+03 -0.28685619041E+03 -0.91202929213E+02  0.40110740353E+03  0.86493874867E+02 0.  0.
         23    2    4    4    0    0 -0.47616666739E+03  0.22310593447E+03 -0.41332622065E+02  0.53561218928E+03  0.93064915671E+02 0.  0.
          4    1    3    3  502    0  0.20975325939E+02 -0.17357176438E+02  0.56038934427E+02  0.62302472213E+02  0.00000000000E+00 0. -1.
         -3    1    3    3    0  502  0.20458904596E+03  0.81107432379E+02  0.31518527962E+03  0.38441755137E+03  0.00000000000E+00 0.  1.
         13    1    5    5    0    0  0.15658081805E+03 -0.15342435462E+03 -0.11660637782E+02  0.21952802929E+03  0.00000000000E+00 0.  1.
        -13    1    5    5    0    0  0.94021477432E+02 -0.13343183579E+03 -0.79542291431E+02  0.18157937424E+03  0.00000000000E+00 0. -1.
          2    1    6    6  503    0 -0.15507188996E+03  0.56334484302E+02  0.27608725173E+02  0.16728151985E+03  0.00000000000E+00 0. -1.
         -2    1    6    6    0  503 -0.32109477743E+03  0.16677145017E+03 -0.68941347238E+02  0.36833066943E+03  0.00000000000E+00 0.  1.
<mgrwt>
<rscale>  0 0.13626933E+04</rscale>
<asrwt>0</asrwt>
<pdfrwt beam="1">  1        2 0.12477910E+00 0.13626933E+04</pdfrwt>
<pdfrwt beam="2">  1       -1 0.88057766E-01 0.13626933E+04</pdfrwt>
<totfact> 0.47775936E+01</totfact>
</mgrwt>
</event>
<event>
12    7  0.1741211E-007  0.1123059E+04  0.7818608E-02  0.9183004E-01
          2   -1    0    0  501    0  0.00000000000E+00  0.00000000000E+00  0.24578485969E+04  0.24578485969E+04  0.00000000000E+00 0. -1.
         -1   -1    0    0    0  501 -0.00000000000E+00 -0.00000000000E+00 -0.12828928791E+03  0.12828928791E+03  0.00000000000E+00 0.  1.
         24    2    1    2    0    0 -0.11215897401E+02 -0.15692170431E+03  0.17726707398E+03  0.25018031947E+03  0.80102179097E+02 0.  0.
        254    2    1    2    0    0  0.11215897401E+02  0.15692170431E+03  0.21522922350E+04  0.23359575654E+04  0.89419554046E+03 0.  0.
         23    2    4    4    0    0 -0.29799723842E+03 -0.24231645713E+03  0.92123708628E+03  0.10021875579E+04  0.90457241841E+02 0.  0.
         23    2    4    4    0    0  0.30921313583E+03  0.39923816144E+03  0.12310551488E+04  0.13337700075E+04  0.91879162970E+02 0.  0.
          4    1    3    3  502    0 -0.10846884611E+02 -0.16567435004E+03  0.17479299353E+03  0.24107724022E+03  0.00000000000E+00 0. -1.
         -1    1    3    3    0  502 -0.36901279023E+00  0.87526457306E+01  0.24740804498E+01  0.91030792481E+01  0.00000000000E+00 0.  1.
         13    1    5    5    0    0 -0.11605194075E+03 -0.40697755285E+02  0.29315053161E+03  0.31790186287E+03  0.00000000000E+00 0.  1.
        -13    1    5    5    0    0 -0.18194529767E+03 -0.20161870185E+03  0.62808655467E+03  0.68428569504E+03  0.00000000000E+00 0. -1.
          3    1    6    6  503    0  0.11512506807E+03  0.22047511209E+03  0.63165423818E+03  0.67885943535E+03  0.00000000000E+00 0. -1.
         -3    1    6    6    0  503  0.19408806775E+03  0.17876304935E+03  0.59940091059E+03  0.65491057212E+03  0.00000000000E+00 0.  1.
<mgrwt>
<rscale>  0 0.11230595E+04</rscale>
<asrwt>0</asrwt>
<pdfrwt beam="1">  1        2 0.37813052E+00 0.11230595E+04</pdfrwt>
<pdfrwt beam="2">  1       -1 0.19736815E-01 0.11230595E+04</pdfrwt>
<totfact> 0.87628253E+01</totfact>
</mgrwt>
</event>
<event>
12    7  0.1741211E-007  0.1690594E+04  0.7818608E-02  0.8766747E-01
          2   -1    0    0  501    0  0.00000000000E+00  0.00000000000E+00  0.27964491475E+04  0.27964491475E+04  0.00000000000E+00 0. -1.
         -1   -1    0    0    0  501 -0.00000000000E+00 -0.00000000000E+00 -0.25551232729E+03  0.25551232729E+03  0.00000000000E+00 0.  1.
         24    2    1    2    0    0  0.30197315766E+03 -0.35207968339E+03  0.21849921448E+03  0.51933719201E+03  0.82591288127E+02 0.  0.
        254    2    1    2    0    0 -0.30197315766E+03  0.35207968339E+03  0.23224376057E+04  0.25326242827E+04  0.89739703243E+03 0.  0.
         23    2    4    4    0    0 -0.88995694557E+02  0.39672848472E+03  0.22467917442E+04  0.22853451297E+04  0.97033477331E+02 0.  0.
         23    2    4    4    0    0 -0.21297746310E+03 -0.44648801331E+02  0.75645861500E+02  0.24727915307E+03  0.89843018270E+02 0.  0.
          4    1    3    3  502    0  0.25389941616E+03 -0.32760296421E+03  0.21029210897E+03  0.46477025161E+03  0.00000000000E+00 0. -1.
         -3    1    3    3    0  502  0.48073741500E+02 -0.24476719176E+02  0.82071055017E+01  0.54566940396E+02  0.00000000000E+00 0.  1.
         13    1    5    5    0    0 -0.61066177290E+02  0.84003757580E+02  0.58814493836E+03  0.59724381772E+03  0.00000000000E+00 0. -1.
        -13    1    5    5    0    0 -0.27929517267E+02  0.31272472714E+03  0.16586468058E+04  0.16881013119E+04  0.00000000000E+00 0.  1.
          1    1    6    6  503    0 -0.21118508862E+02  0.17849183928E+02  0.29212506250E+02  0.40223815145E+02  0.00000000000E+00 0. -1.
         -1    1    6    6    0  503 -0.19185895424E+03 -0.62497985260E+02  0.46433355250E+02  0.20705533792E+03  0.00000000000E+00 0.  1.
<mgrwt>
<rscale>  0 0.16905943E+04</rscale>
<asrwt>0</asrwt>
<pdfrwt beam="1">  1        2 0.43022292E+00 0.16905943E+04</pdfrwt>
<pdfrwt beam="2">  1       -1 0.39309591E-01 0.16905943E+04</pdfrwt>
<totfact> 0.15898492E+01</totfact>
</mgrwt>
</event>
<event>
12    7  0.1741211E-007  0.2430140E+04  0.7818608E-02  0.8428305E-01
          2   -1    0    0  501    0  0.00000000000E+00  0.00000000000E+00  0.33943415684E+04  0.33943415684E+04  0.00000000000E+00 0. -1.
         -1   -1    0    0    0  501 -0.00000000000E+00 -0.00000000000E+00 -0.43495780138E+03  0.43495780138E+03  0.00000000000E+00 0.  1.
         24    2    1    2    0    0  0.44267091176E+03 -0.89088212685E+03  0.73927290347E+03  0.12420132041E+04  0.80273739144E+02 0.  0.
        254    2    1    2    0    0 -0.44267091176E+03  0.89088212685E+03  0.22201108636E+04  0.25872861657E+04  0.88064121911E+03 0.  0.
         23    2    4    4    0    0 -0.64834271218E+03  0.63282819650E+03  0.19477996649E+04  0.21501330267E+04  0.91261706325E+02 0.  0.
         23    2    4    4    0    0  0.20567180042E+03  0.25805393035E+03  0.27231119861E+03  0.43715313902E+03  0.89759443009E+02 0.  0.
          2    1    3    3  502    0  0.15644945956E+03 -0.26479346140E+03  0.19196695222E+03  0.36255112928E+03  0.00000000000E+00 0. -1.
         -1    1    3    3    0  502  0.28622145220E+03 -0.62608866545E+03  0.54730595125E+03  0.87946207478E+03  0.00000000000E+00 0.  1.
         13    1    5    5    0    0 -0.12792096087E+03  0.17321741810E+03  0.50327932410E+03  0.54741038009E+03  0.00000000000E+00 0.  1.
        -13    1    5    5    0    0 -0.52042175130E+03  0.45961077840E+03  0.14445203409E+04  0.16027226466E+04  0.00000000000E+00 0. -1.
          3    1    6    6  503    0  0.19556977463E+03  0.26118288293E+03  0.27444863356E+03  0.42636379718E+03  0.00000000000E+00 0. -1.
         -3    1    6    6    0  503  0.10102025792E+02 -0.31289525753E+01 -0.21374349435E+01  0.10789341846E+02  0.00000000000E+00 0.  1.
<mgrwt>
<rscale>  0 0.24301402E+04</rscale>
<asrwt>0</asrwt>
<pdfrwt beam="1">  1        2 0.52220638E+00 0.24301402E+04</pdfrwt>
<pdfrwt beam="2">  1       -1 0.66916587E-01 0.24301402E+04</pdfrwt>
<totfact> 0.22233966E+00</totfact>
</mgrwt>
</event>
<event>
12    7  0.1741211E-007  0.1903505E+04  0.7818608E-02  0.8653114E-01
         -1   -1    0    0    0  501 -0.00000000000E+00  0.00000000000E+00  0.21443318795E+03  0.21443318795E+03  0.00000000000E+00 0.  1.
          2   -1    0    0  501    0  0.00000000000E+00 -0.00000000000E+00 -0.42243116647E+04  0.42243116647E+04  0.00000000000E+00 0. -1.
         24    2    1    2    0    0  0.24610563756E+03  0.47427160336E+03 -0.37910637791E+03  0.65985988464E+03  0.78688518820E+02 0.  0.
        254    2    1    2    0    0 -0.24610563756E+03 -0.47427160336E+03 -0.36307720989E+04  0.37788849680E+04  0.90109046665E+03 0.  0.
         23    2    4    4    0    0 -0.48588608999E+03  0.10080652522E+02 -0.18994101136E+04  0.19628074852E+04  0.93099583583E+02 0.  0.
         23    2    4    4    0    0  0.23978045243E+03 -0.48435225588E+03 -0.17313619853E+04  0.18160774828E+04  0.91822253970E+02 0.  0.
          4    1    3    3  502    0  0.14433362981E+02  0.31720339267E+02 -0.37983443328E+01  0.35056088056E+02  0.00000000000E+00 0. -1.
         -3    1    3    3    0  502  0.23167227458E+03  0.44255126409E+03 -0.37530803358E+03  0.62480379659E+03  0.00000000000E+00 0.  1.
         13    1    5    5    0    0 -0.12863647504E+03  0.31424792442E+02 -0.63876003110E+03  0.65234135053E+03  0.00000000000E+00 0. -1.
        -13    1    5    5    0    0 -0.35724961495E+03 -0.21344139920E+02 -0.12606500825E+04  0.13104661347E+04  0.00000000000E+00 0.  1.
          1    1    6    6  503    0  0.27959521425E+01 -0.48505423194E+02 -0.10429106821E+03  0.11505311963E+03  0.00000000000E+00 0. -1.
         -1    1    6    6    0  503  0.23698450029E+03 -0.43584683269E+03 -0.16270709171E+04  0.17010243632E+04  0.00000000000E+00 0.  1.
<mgrwt>
<rscale>  0 0.19035048E+04</rscale>
<asrwt>0</asrwt>
<pdfrwt beam="1">  1        2 0.64989407E+00 0.19035048E+04</pdfrwt>
<pdfrwt beam="2">  1       -1 0.32989723E-01 0.19035048E+04</pdfrwt>
<totfact> 0.20672098E+00</totfact>
</mgrwt>
</event>
<event>
12    7  0.1741211E-007  0.3009109E+04  0.7818608E-02  0.8241135E-01
         -1   -1    0    0    0  501 -0.00000000000E+00  0.00000000000E+00  0.14930544614E+04  0.14930544614E+04  0.00000000000E+00 0.  1.
          2   -1    0    0  501    0  0.00000000000E+00 -0.00000000000E+00 -0.15161432369E+04  0.15161432369E+04  0.00000000000E+00 0. -1.
         24    2    1    2    0    0  0.59845372244E+03 -0.11940487763E+04 -0.31995983738E+03  0.13754257350E+04  0.74312293272E+02 0.  0.
        254    2    1    2    0    0 -0.59845372244E+03  0.11940487763E+04  0.29687106193E+03  0.16337719633E+04  0.89284884653E+03 0.  0.
         23    2    4    4    0    0  0.47519040809E+02  0.77779821502E+03  0.34720728682E+03  0.85794924375E+03  0.91081734162E+02 0.  0.
         23    2    4    4    0    0 -0.64597276325E+03  0.41625056126E+03 -0.50336224889E+02  0.77582271960E+03  0.93924523397E+02 0.  0.
          4    1    3    3  502    0  0.66966220109E+02 -0.16688061775E+03 -0.22177456059E+02  0.18117796437E+03  0.00000000000E+00 0. -1.
         -3    1    3    3    0  502  0.53148750233E+03 -0.10271681585E+04 -0.29778238132E+03  0.11942477706E+04  0.00000000000E+00 0.  1.
         13    1    5    5    0    0  0.34716540621E+02  0.98243234654E+02  0.34228197017E+02  0.10967470455E+03  0.00000000000E+00 0.  1.
        -13    1    5    5    0    0  0.12802500188E+02  0.67955498037E+03  0.31297908980E+03  0.74827453919E+03  0.00000000000E+00 0. -1.
          4    1    6    6  503    0 -0.11922542824E+03  0.40859442383E+02  0.85601331781E+01  0.12632289044E+03  0.00000000000E+00 0. -1.
         -4    1    6    6    0  503 -0.52674733501E+03  0.37539111888E+03 -0.58896358067E+02  0.64949982915E+03  0.00000000000E+00 0.  1.
<mgrwt>
<rscale>  0 0.30091091E+04</rscale>
<asrwt>0</asrwt>
<pdfrwt beam="1">  1        2 0.23325281E+00 0.30091091E+04</pdfrwt>
<pdfrwt beam="2">  1       -1 0.22970069E+00 0.30091091E+04</pdfrwt>
<totfact> 0.11479831E+00</totfact>
</mgrwt>
</event>
<event>
12    7  0.1741211E-007  0.1897203E+04  0.7818608E-02  0.8656250E-01
         -1   -1    0    0    0  501 -0.00000000000E+00  0.00000000000E+00  0.81650158279E+03  0.81650158279E+03  0.00000000000E+00 0.  1.
          2   -1    0    0  501    0  0.00000000000E+00 -0.00000000000E+00 -0.11020731396E+04  0.11020731396E+04  0.00000000000E+00 0. -1.
         24    2    1    2    0    0  0.29360099648E+03 -0.67388227670E+03 -0.16071631129E+02  0.73947769296E+03  0.79057530127E+02 0.  0.
        254    2    1    2    0    0 -0.29360099648E+03  0.67388227670E+03 -0.26949992571E+03  0.11790970295E+04  0.88165794213E+03 0.  0.
         23    2    4    4    0    0 -0.27787940636E+03  0.68874305803E+03  0.13826989072E+03  0.76093126104E+03  0.91180353662E+02 0.  0.
         23    2    4    4    0    0 -0.15721590128E+02 -0.14860781328E+02 -0.40776981642E+03  0.41816576841E+03  0.90102028067E+02 0.  0.
          4    1    3    3  502    0  0.25207365249E+03 -0.62378593135E+03 -0.14941426623E+01  0.67279435706E+03  0.00000000000E+00 0. -1.
         -3    1    3    3    0  502  0.41527343992E+02 -0.50096345350E+02 -0.14577488467E+02  0.66683335898E+02  0.00000000000E+00 0.  1.
         13    1    5    5    0    0 -0.15803057437E+03  0.37974800505E+03  0.12233465850E+03  0.42912466538E+03  0.00000000000E+00 0. -1.
        -13    1    5    5    0    0 -0.11984883199E+03  0.30899505298E+03  0.15935232219E+02  0.33180659566E+03  0.00000000000E+00 0.  1.
          1    1    6    6  503    0  0.24924446945E+02 -0.34429844002E+02 -0.26649357476E+03  0.26986194175E+03  0.00000000000E+00 0. -1.
         -1    1    6    6    0  503 -0.40646037073E+02  0.19569062674E+02 -0.14127624166E+03  0.14830382666E+03  0.00000000000E+00 0.  1.
<mgrwt>
<rscale>  0 0.18972026E+04</rscale>
<asrwt>0</asrwt>
<pdfrwt beam="1">  1        2 0.16954971E+00 0.18972026E+04</pdfrwt>
<pdfrwt beam="2">  1       -1 0.12561563E+00 0.18972026E+04</pdfrwt>
<totfact> 0.12830760E+01</totfact>
</mgrwt>
</event>
<event>
12    7  0.1741211E-007  0.1118143E+04  0.7818608E-02  0.9187687E-01
          2   -1    0    0  501    0  0.00000000000E+00  0.00000000000E+00  0.86482308650E+03  0.86482308650E+03  0.00000000000E+00 0. -1.
         -1   -1    0    0    0  501 -0.00000000000E+00 -0.00000000000E+00 -0.36141597107E+03  0.36141597107E+03  0.00000000000E+00 0.  1.
         24    2    1    2    0    0 -0.10827834898E+03  0.14620004042E+03  0.52283342212E+02  0.20525560891E+03  0.79357825320E+02 0.  0.
        254    2    1    2    0    0  0.10827834898E+03 -0.14620004042E+03  0.45112377322E+03  0.10209834487E+04  0.89766134537E+03 0.  0.
         23    2    4    4    0    0  0.26780043095E+03 -0.10766878834E+03 -0.18602196072E+03  0.35580928777E+03  0.93201076154E+02 0.  0.
         23    2    4    4    0    0 -0.15952208197E+03 -0.38531252080E+02  0.63714573394E+03  0.66517416088E+03  0.97826509722E+02 0.  0.
          4    1    3    3  502    0 -0.60836611554E+02  0.42609343759E+02  0.53120506986E+02  0.91315046643E+02  0.00000000000E+00 0. -1.
         -3    1    3    3    0  502 -0.47441737425E+02  0.10359069666E+03 -0.83716477461E+00  0.11394056227E+03  0.00000000000E+00 0.  1.
         13    1    5    5    0    0  0.50458148247E+02  0.13943691206E+02 -0.17910441670E+02  0.55328430032E+02  0.00000000000E+00 0.  1.
        -13    1    5    5    0    0  0.21734228270E+03 -0.12161247955E+03 -0.16811151905E+03  0.30048085774E+03  0.00000000000E+00 0. -1.
          4    1    6    6  503    0 -0.84111230377E+02 -0.69864134063E+02  0.35706641035E+03  0.37343288246E+03  0.00000000000E+00 0. -1.
         -4    1    6    6    0  503 -0.75410851592E+02  0.31332881983E+02  0.28007932359E+03  0.29174127842E+03  0.00000000000E+00 0.  1.
<mgrwt>
<rscale>  0 0.11181429E+04</rscale>
<asrwt>0</asrwt>
<pdfrwt beam="1">  1        2 0.13304970E+00 0.11181429E+04</pdfrwt>
<pdfrwt beam="2">  1       -1 0.55602457E-01 0.11181429E+04</pdfrwt>
<totfact> 0.11473398E+02</totfact>
</mgrwt>
</event>
<event>
12    7  0.1741211E-007  0.1336680E+04  0.7818608E-02  0.9000973E-01
         -1   -1    0    0    0  501 -0.00000000000E+00  0.00000000000E+00  0.46332748579E+03  0.46332748579E+03  0.00000000000E+00 0.  1.
          2   -1    0    0  501    0  0.00000000000E+00 -0.00000000000E+00 -0.96406682779E+03  0.96406682779E+03  0.00000000000E+00 0. -1.
         24    2    1    2    0    0  0.25147455703E+02  0.13241554143E+02 -0.49684592327E+03  0.50433358620E+03  0.81784848351E+02 0.  0.
        254    2    1    2    0    0 -0.25147455703E+02 -0.13241554143E+02 -0.38934187369E+01  0.92306072738E+03  0.92261487872E+03 0.  0.
         23    2    4    4    0    0  0.10216148750E+03 -0.38711846438E+03 -0.21769481358E+03  0.46459050602E+03  0.90308534688E+02 0.  0.
         23    2    4    4    0    0 -0.12730894320E+03  0.37387691023E+03  0.21380139484E+03  0.45847022135E+03  0.92154199076E+02 0.  0.
          2    1    3    3  502    0 -0.18008819142E+02  0.25925008546E+02 -0.33080517214E+03  0.33230781747E+03  0.00000000000E+00 0. -1.
         -1    1    3    3    0  502  0.43156274845E+02 -0.12683454403E+02 -0.16604075113E+03  0.17202576873E+03  0.00000000000E+00 0.  1.
         13    1    5    5    0    0  0.58499783688E+02 -0.30448586495E+03 -0.20139497724E+03  0.36972125108E+03  0.00000000000E+00 0.  1.
        -13    1    5    5    0    0  0.43661703812E+02 -0.82632599430E+02 -0.16299836338E+02  0.94869254941E+02  0.00000000000E+00 0. -1.
          2    1    6    6  503    0 -0.81297844199E+02  0.11275782049E+03  0.91951830923E+02  0.16666974760E+03  0.00000000000E+00 0. -1.
         -2    1    6    6    0  503 -0.46011099005E+02  0.26111908974E+03  0.12184956392E+03  0.29180047376E+03  0.00000000000E+00 0.  1.
<mgrwt>
<rscale>  0 0.13366805E+04</rscale>
<asrwt>0</asrwt>
<pdfrwt beam="1">  1        2 0.14831797E+00 0.13366805E+04</pdfrwt>
<pdfrwt beam="2">  1       -1 0.71281152E-01 0.13366805E+04</pdfrwt>
<totfact> 0.58939281E+01</totfact>
</mgrwt>
</event>
<event>
12    7  0.1741211E-007  0.1211694E+04  0.7818608E-02  0.9102682E-01
         -1   -1    0    0    0  501 -0.00000000000E+00  0.00000000000E+00  0.35386350012E+03  0.35386350012E+03  0.00000000000E+00 0.  1.
          2   -1    0    0  501    0  0.00000000000E+00 -0.00000000000E+00 -0.10372657066E+04  0.10372657066E+04  0.00000000000E+00 0. -1.
         24    2    1    2    0    0 -0.24669708820E+03  0.10675761198E+03 -0.20181286547E+03  0.34535917268E+03  0.79296181764E+02 0.  0.
        254    2    1    2    0    0  0.24669708820E+03 -0.10675761198E+03 -0.48158934104E+03  0.10457700341E+04  0.88851000541E+03 0.  0.
         23    2    4    4    0    0  0.12485041411E+03  0.34765900821E+03 -0.41346255766E+03  0.56186744040E+03  0.91045714380E+02 0.  0.
         23    2    4    4    0    0  0.12184667409E+03 -0.45441662019E+03 -0.68126783379E+02  0.48390259366E+03  0.90439951609E+02 0.  0.
          2    1    3    3  502    0 -0.21110864789E+03  0.92851927279E+02 -0.20284123939E+03  0.30713663085E+03  0.00000000000E+00 0. -1.
         -1    1    3    3    0  502 -0.35588440310E+02  0.13905684704E+02  0.10283739231E+01  0.38222541827E+02  0.00000000000E+00 0.  1.
         13    1    5    5    0    0  0.16703498956E+01 -0.45464354665E+01  0.12164295932E+00  0.48450945537E+01  0.00000000000E+00 0.  1.
        -13    1    5    5    0    0  0.12318006421E+03  0.35220544367E+03 -0.41358420062E+03  0.55702234585E+03  0.00000000000E+00 0. -1.
          4    1    6    6  503    0  0.56266029778E+02 -0.31551318277E+03 -0.13171955799E+02  0.32076149243E+03  0.00000000000E+00 0. -1.
         -4    1    6    6    0  503  0.65580644312E+02 -0.13890343742E+03 -0.54954827580E+02  0.16314110123E+03  0.00000000000E+00 0.  1.
<mgrwt>
<rscale>  0 0.12116938E+04</rscale>
<asrwt>0</asrwt>
<pdfrwt beam="1">  1        2 0.15957934E+00 0.12116938E+04</pdfrwt>
<pdfrwt beam="2">  1       -1 0.54440539E-01 0.12116938E+04</pdfrwt>
<totfact> 0.91379334E+01</totfact>
</mgrwt>
</event>
<event>
12    7  0.1741211E-007  0.1519354E+04  0.7818608E-02  0.8871684E-01
          2   -1    0    0  501    0  0.00000000000E+00  0.00000000000E+00  0.40954193003E+04  0.40954193003E+04  0.00000000000E+00 0. -1.
         -3   -1    0    0    0  501 -0.00000000000E+00 -0.00000000000E+00 -0.14091582758E+03  0.14091582758E+03  0.00000000000E+00 0.  1.
         24    2    1    2    0    0  0.17707046047E+03  0.31525376072E+03  0.22289021237E+04  0.22600325525E+04  0.94887194014E+02 0.  0.
        254    2    1    2    0    0 -0.17707046047E+03 -0.31525376072E+03  0.17256013490E+04  0.19763025754E+04  0.89293503246E+03 0.  0.
         23    2    4    4    0    0 -0.51088646606E+03 -0.31999218787E+03  0.12084870275E+04  0.13535784401E+04  0.91289191307E+02 0.  0.
         23    2    4    4    0    0  0.33381600559E+03  0.47384271519E+01  0.51711432153E+03  0.62272413528E+03  0.94459244385E+02 0.  0.
          4    1    3    3  502    0  0.11192087500E+03  0.26792335803E+03  0.18520393441E+04  0.18746623536E+04  0.00000000000E+00 0. -1.
         -3    1    3    3    0  502  0.65149585476E+02  0.47330402695E+02  0.37686277963E+03  0.38537019887E+03  0.00000000000E+00 0.  1.
         13    1    5    5    0    0 -0.31257619389E+02 -0.56236912937E+00  0.91643843622E+02  0.96829484676E+02  0.00000000000E+00 0. -1.
        -13    1    5    5    0    0 -0.47962884668E+03 -0.31942981874E+03  0.11168431838E+04  0.12567489554E+04  0.00000000000E+00 0.  1.
          1    1    6    6  503    0  0.16826262273E+01  0.14279703824E+02  0.27111387444E+02  0.30688246959E+02  0.00000000000E+00 0. -1.
         -1    1    6    6    0  503  0.33213337936E+03 -0.95412766717E+01  0.49000293408E+03  0.59203588832E+03  0.00000000000E+00 0.  1.
<mgrwt>
<rscale>  0 0.15193543E+04</rscale>
<asrwt>0</asrwt>
<pdfrwt beam="1">  1        2 0.63006442E+00 0.15193543E+04</pdfrwt>
<pdfrwt beam="2">  1       -3 0.21679361E-01 0.15193543E+04</pdfrwt>
<totfact> 0.36688374E+00</totfact>
</mgrwt>
</event>
<event>
12    7  0.1741211E-007  0.1664172E+04  0.7818608E-02  0.8782066E-01
         -1   -1    0    0    0  501 -0.00000000000E+00  0.00000000000E+00  0.55385328973E+03  0.55385328973E+03  0.00000000000E+00 0.  1.
          2   -1    0    0  501    0  0.00000000000E+00 -0.00000000000E+00 -0.12500911988E+04  0.12500911988E+04  0.00000000000E+00 0. -1.
         24    2    1    2    0    0  0.45550979111E+02  0.43236362521E+03  0.17901528902E+03  0.47669523636E+03  0.78604570900E+02 0.  0.
        254    2    1    2    0    0 -0.45550979111E+02 -0.43236362521E+03 -0.87525319813E+03  0.13272492522E+04  0.89805858415E+03 0.  0.
         23    2    4    4    0    0  0.33707581903E+03 -0.10662854855E+03 -0.66983935069E+02  0.37131308340E+03  0.91634072321E+02 0.  0.
         23    2    4    4    0    0 -0.38262679814E+03 -0.32573507666E+03 -0.80826926306E+03  0.95593616881E+03  0.89488269687E+02 0.  0.
          4    1    3    3  502    0 -0.87562680055E+01  0.73748985013E+02  0.50744279151E+01  0.74440142655E+02  0.00000000000E+00 0. -1.
         -3    1    3    3    0  502  0.54307247117E+02  0.35861464020E+03  0.17394086110E+03  0.40225509371E+03  0.00000000000E+00 0.  1.
         13    1    5    5    0    0  0.34032734395E+02  0.16666442275E+02 -0.10351580404E+02  0.39282980098E+02  0.00000000000E+00 0.  1.
        -13    1    5    5    0    0  0.30304308463E+03 -0.12329499083E+03 -0.56632354664E+02  0.33203010331E+03  0.00000000000E+00 0. -1.
          4    1    6    6  503    0 -0.13728616363E+03 -0.10160993147E+03 -0.35453489203E+03  0.39353152169E+03  0.00000000000E+00 0. -1.
         -4    1    6    6    0  503 -0.24534063451E+03 -0.22412514519E+03 -0.45373437103E+03  0.56240464712E+03  0.00000000000E+00 0.  1.
<mgrwt>
<rscale>  0 0.16641720E+04</rscale>
<asrwt>0</asrwt>
<pdfrwt beam="1">  1        2 0.19232172E+00 0.16641720E+04</pdfrwt>
<pdfrwt beam="2">  1       -1 0.85208199E-01 0.16641720E+04</pdfrwt>
<totfact> 0.26204776E+01</totfact>
</mgrwt>
</event>
<event>
12    7  0.1741211E-007  0.1579188E+04  0.7818608E-02  0.8833436E-01
          2   -1    0    0  501    0  0.00000000000E+00  0.00000000000E+00  0.61754046907E+03  0.61754046907E+03  0.00000000000E+00 0. -1.
         -1   -1    0    0    0  501 -0.00000000000E+00 -0.00000000000E+00 -0.10095839909E+04  0.10095839909E+04  0.00000000000E+00 0.  1.
         24    2    1    2    0    0  0.12489735854E+03 -0.25990537169E+03 -0.63745298467E+03  0.70403333893E+03  0.78526952339E+02 0.  0.
        254    2    1    2    0    0 -0.12489735854E+03  0.25990537169E+03  0.24540946289E+03  0.92309112100E+03  0.84185584323E+03 0.  0.
         23    2    4    4    0    0  0.71188305857E+02 -0.10462159150E+03 -0.23516449663E+03  0.28225040149E+03  0.91375578633E+02 0.  0.
         23    2    4    4    0    0 -0.19608566440E+03  0.36452696320E+03  0.48057395952E+03  0.64084071951E+03  0.91629703313E+02 0.  0.
          4    1    3    3  502    0 -0.77569982769E+01 -0.11620844211E+02 -0.13092030100E+02  0.19147226812E+02  0.00000000000E+00 0. -1.
         -3    1    3    3    0  502  0.13265435682E+03 -0.24828452748E+03 -0.62436095457E+03  0.68488611211E+03  0.00000000000E+00 0.  1.
         13    1    5    5    0    0 -0.22704057693E+01  0.11051437881E+02 -0.15141021229E+01  0.11383388197E+02  0.00000000000E+00 0. -1.
        -13    1    5    5    0    0  0.73458711627E+02 -0.11567302938E+03 -0.23365039450E+03  0.27086701330E+03  0.00000000000E+00 0.  1.
          3    1    6    6  503    0  0.80914854260E+01  0.43100517300E+01  0.16693443572E+02  0.19045202562E+02  0.00000000000E+00 0. -1.
         -3    1    6    6    0  503 -0.20417714982E+03  0.36021691147E+03  0.46388051595E+03  0.62179551695E+03  0.00000000000E+00 0.  1.
<mgrwt>
<rscale>  0 0.15791884E+04</rscale>
<asrwt>0</asrwt>
<pdfrwt beam="1">  1        2 0.95006226E-01 0.15791884E+04</pdfrwt>
<pdfrwt beam="2">  1       -1 0.15532061E+00 0.15791884E+04</pdfrwt>
<totfact> 0.16674662E+01</totfact>
</mgrwt>
</event>
<event>
12    7  0.1741211E-007  0.1308070E+04  0.7818608E-02  0.9023190E-01
         -1   -1    0    0    0  501 -0.00000000000E+00  0.00000000000E+00  0.34382863595E+03  0.34382863595E+03  0.00000000000E+00 0.  1.
          2   -1    0    0  501    0  0.00000000000E+00 -0.00000000000E+00 -0.12441126378E+04  0.12441126378E+04  0.00000000000E+00 0. -1.
         24    2    1    2    0    0 -0.48760724005E+02 -0.27010247985E+03 -0.85613569165E+01  0.28442465712E+03  0.74102165415E+02 0.  0.
        254    2    1    2    0    0  0.48760724005E+02  0.27010247985E+03 -0.89172264491E+03  0.13035166166E+04  0.91030398028E+03 0.  0.
         23    2    4    4    0    0 -0.29183236275E+03  0.10075272944E+02  0.43771946157E+01  0.30635516280E+03  0.92556398297E+02 0.  0.
         23    2    4    4    0    0  0.34059308676E+03  0.26002720691E+03 -0.89609983953E+03  0.99716145382E+03  0.87853534309E+02 0.  0.
          4    1    3    3  502    0 -0.33195904627E+02 -0.17206677775E+03 -0.41042796429E+02  0.17998181916E+03  0.00000000000E+00 0. -1.
         -3    1    3    3    0  502 -0.15564819378E+02 -0.98035702103E+02  0.32481439513E+02  0.10444283796E+03  0.00000000000E+00 0.  1.
         13    1    5    5    0    0 -0.12032839837E+03 -0.33452881784E+02 -0.23929134403E+02  0.12716376145E+03  0.00000000000E+00 0. -1.
        -13    1    5    5    0    0 -0.17150396438E+03  0.43528154728E+02  0.28306329019E+02  0.17919140135E+03  0.00000000000E+00 0.  1.
          4    1    6    6  503    0  0.14117892056E+03  0.10777374591E+03 -0.47324198452E+03  0.50547467180E+03  0.00000000000E+00 0. -1.
         -4    1    6    6    0  503  0.19941416620E+03  0.15225346100E+03 -0.42285785501E+03  0.49168678202E+03  0.00000000000E+00 0.  1.
<mgrwt>
<rscale>  0 0.13080696E+04</rscale>
<asrwt>0</asrwt>
<pdfrwt beam="1">  1        2 0.19140194E+00 0.13080696E+04</pdfrwt>
<pdfrwt beam="2">  1       -1 0.52896714E-01 0.13080696E+04</pdfrwt>
<totfact> 0.71731727E+01</totfact>
</mgrwt>
</event>
<event>
12    7  0.1741211E-007  0.2049675E+04  0.7818608E-02  0.8583742E-01
         -1   -1    0    0    0  501 -0.00000000000E+00  0.00000000000E+00  0.49919167903E+03  0.49919167903E+03  0.00000000000E+00 0.  1.
          2   -1    0    0  501    0  0.00000000000E+00 -0.00000000000E+00 -0.21039858829E+04  0.21039858829E+04  0.00000000000E+00 0. -1.
         24    2    1    2    0    0 -0.32822212281E+03  0.78957138913E+02 -0.16020226357E+04  0.16391414563E+04  0.79650466286E+02 0.  0.
        254    2    1    2    0    0  0.32822212281E+03 -0.78957138913E+02 -0.27715681810E+01  0.96403610565E+03  0.90299166094E+03 0.  0.
         23    2    4    4    0    0 -0.14559461964E+03 -0.12379333541E+03 -0.31966741765E+03  0.38394724399E+03  0.93304046540E+02 0.  0.
         23    2    4    4    0    0  0.47381674245E+03  0.44836196502E+02  0.31689584947E+03  0.58008886166E+03  0.97813690603E+02 0.  0.
          2    1    3    3  502    0 -0.92806182025E+02  0.41720635449E+02 -0.63972442857E+03  0.64776611778E+03  0.00000000000E+00 0. -1.
         -1    1    3    3    0  502 -0.23541594078E+03  0.37236503464E+02 -0.96229820714E+03  0.99137533852E+03  0.00000000000E+00 0.  1.
         13    1    5    5    0    0 -0.71046191766E+02 -0.10654566025E+03 -0.24798248939E+03  0.27909649608E+03  0.00000000000E+00 0. -1.
        -13    1    5    5    0    0 -0.74548427876E+02 -0.17247675166E+02 -0.71684928261E+02  0.10485074791E+03  0.00000000000E+00 0.  1.
          1    1    6    6  503    0  0.35539107734E+01 -0.11703361870E+02  0.80567693810E+01  0.14646176761E+02  0.00000000000E+00 0. -1.
         -1    1    6    6    0  503  0.47026283168E+03  0.56539558372E+02  0.30883908009E+03  0.56544268490E+03  0.00000000000E+00 0.  1.
<mgrwt>
<rscale>  0 0.20496753E+04</rscale>
<asrwt>0</asrwt>
<pdfrwt beam="1">  1        2 0.32369013E+00 0.20496753E+04</pdfrwt>
<pdfrwt beam="2">  1       -1 0.76798721E-01 0.20496753E+04</pdfrwt>
<totfact> 0.10474413E+01</totfact>
</mgrwt>
</event>
<event>
12    7  0.1741211E-007  0.2419805E+04  0.7818608E-02  0.8432126E-01
         -1   -1    0    0    0  501 -0.00000000000E+00  0.00000000000E+00  0.46368448735E+03  0.46368448735E+03  0.00000000000E+00 0.  1.
          2   -1    0    0  501    0  0.00000000000E+00 -0.00000000000E+00 -0.31570253442E+04  0.31570253442E+04  0.00000000000E+00 0. -1.
         24    2    1    2    0    0  0.37501035313E+02  0.14584476333E+03  0.37344276412E+03  0.41060605561E+03  0.80379177593E+02 0.  0.
        254    2    1    2    0    0 -0.37501035313E+02 -0.14584476333E+03 -0.30667836209E+04  0.32101037759E+04  0.93644404622E+03 0.  0.
         23    2    4    4    0    0 -0.19459752551E+03  0.91311881131E+02 -0.27995169309E+04  0.28092839577E+04  0.92602657283E+02 0.  0.
         23    2    4    4    0    0  0.15709649020E+03 -0.23715664446E+03 -0.26726669006E+03  0.40081981820E+03  0.91117845661E+02 0.  0.
          4    1    3    3  502    0 -0.15013091130E+02  0.61108550648E+00  0.21096143258E+02  0.25900069327E+02  0.00000000000E+00 0. -1.
         -3    1    3    3    0  502  0.52514126443E+02  0.14523367782E+03  0.35234662087E+03  0.38470598629E+03  0.00000000000E+00 0.  1.
         13    1    5    5    0    0 -0.11455844285E+03  0.36007844946E+02 -0.10080475628E+04  0.10151749064E+04  0.00000000000E+00 0.  1.
        -13    1    5    5    0    0 -0.80039082660E+02  0.55304036185E+02 -0.17914693681E+04  0.17941090513E+04  0.00000000000E+00 0. -1.
          4    1    6    6  503    0  0.30382406821E+02 -0.12646396168E+02 -0.66028729546E+02  0.73775437009E+02  0.00000000000E+00 0. -1.
         -4    1    6    6    0  503  0.12671408338E+03 -0.22451024829E+03 -0.20123796052E+03  0.32704438119E+03  0.00000000000E+00 0.  1.
<mgrwt>
<rscale>  0 0.24198047E+04</rscale>
<asrwt>0</asrwt>
<pdfrwt beam="1">  1        2 0.48569621E+00 0.24198047E+04</pdfrwt>
<pdfrwt beam="2">  1       -1 0.71336074E-01 0.24198047E+04</pdfrwt>
<totfact> 0.28042607E+00</totfact>
</mgrwt>
</event>
<event>
12    7  0.1741211E-007  0.2391098E+04  0.7818608E-02  0.8442844E-01
         -3   -1    0    0    0  501 -0.00000000000E+00  0.00000000000E+00  0.24788085087E+04  0.24788085087E+04  0.00000000000E+00 0.  1.
          4   -1    0    0  501    0  0.00000000000E+00 -0.00000000000E+00 -0.57662285950E+03  0.57662285950E+03  0.00000000000E+00 0. -1.
         24    2    1    2    0    0  0.53291520301E+03 -0.70831169629E+03  0.14786619811E+04  0.17258160223E+04  0.79344915275E+02 0.  0.
        254    2    1    2    0    0 -0.53291520301E+03  0.70831169629E+03  0.42352366801E+03  0.13296153459E+04  0.89599140507E+03 0.  0.
         23    2    4    4    0    0 -0.17557878279E+03 -0.78166444775E+02  0.40871515409E+03  0.46092140842E+03  0.91992203478E+02 0.  0.
         23    2    4    4    0    0 -0.35733642022E+03  0.78647814106E+03  0.14808513921E+02  0.86869393747E+03  0.90402883395E+02 0.  0.
          4    1    3    3  502    0  0.25107386479E+03 -0.35255619965E+03  0.79561667864E+03  0.90572615002E+03  0.00000000000E+00 0. -1.
         -3    1    3    3    0  502  0.28184133821E+03 -0.35575549664E+03  0.68304530250E+03  0.82008987226E+03  0.00000000000E+00 0.  1.
         13    1    5    5    0    0 -0.17140848640E+03 -0.61107564993E+02  0.30061000394E+03  0.35139917213E+03  0.00000000000E+00 0.  1.
        -13    1    5    5    0    0 -0.41702963922E+01 -0.17058879782E+02  0.10810515015E+03  0.10952223629E+03  0.00000000000E+00 0. -1.
          2    1    6    6  503    0 -0.17348010396E+03  0.36336941849E+03  0.51360831883E+02  0.40591946962E+03  0.00000000000E+00 0. -1.
         -2    1    6    6    0  503 -0.18385631626E+03  0.42310872257E+03 -0.36552317963E+02  0.46277446785E+03  0.00000000000E+00 0.  1.
<mgrwt>
<rscale>  0 0.23910982E+04</rscale>
<asrwt>0</asrwt>
<pdfrwt beam="1">  1        4 0.88711211E-01 0.23910982E+04</pdfrwt>
<pdfrwt beam="2">  1       -3 0.38135515E+00 0.23910982E+04</pdfrwt>
<totfact> 0.30234100E-02</totfact>
</mgrwt>
</event>
<event>
12    7  0.1741211E-007  0.1317202E+04  0.7818608E-02  0.9016034E-01
         -1   -1    0    0    0  501 -0.00000000000E+00  0.00000000000E+00  0.14021173356E+04  0.14021173356E+04  0.00000000000E+00 0.  1.
          2   -1    0    0  501    0  0.00000000000E+00 -0.00000000000E+00 -0.30935737948E+03  0.30935737948E+03  0.00000000000E+00 0. -1.
         24    2    1    2    0    0  0.11070302200E+03 -0.12490244372E+03  0.69492135513E+03  0.71962329023E+03  0.84179632327E+02 0.  0.
        254    2    1    2    0    0 -0.11070302200E+03  0.12490244372E+03  0.39783860101E+03  0.99185142486E+03  0.89310577034E+03 0.  0.
         23    2    4    4    0    0 -0.19007900330E+03  0.47872171228E+03  0.31207699489E+03  0.60831689642E+03  0.85748996651E+02 0.  0.
         23    2    4    4    0    0  0.79375981299E+02 -0.35381926855E+03  0.85761606112E+02  0.38353452844E+03  0.90857361938E+02 0.  0.
          4    1    3    3  502    0  0.93276258389E+02 -0.85514400516E+02  0.35292901157E+03  0.37492940706E+03  0.00000000000E+00 0. -1.
         -3    1    3    3    0  502  0.17426763610E+02 -0.39388043209E+02  0.34199234357E+03  0.34469388317E+03  0.00000000000E+00 0.  1.
         13    1    5    5    0    0 -0.14447590524E+01  0.60474262194E+02  0.58201911328E+02  0.83944542401E+02  0.00000000000E+00 0. -1.
        -13    1    5    5    0    0 -0.18863424425E+03  0.41824745008E+03  0.25387508357E+03  0.52437235402E+03  0.00000000000E+00 0.  1.
          2    1    6    6  503    0 -0.44430221289E+01 -0.81163654335E+02 -0.11641188723E+02  0.82114532852E+02  0.00000000000E+00 0. -1.
         -2    1    6    6    0  503  0.83819003428E+02 -0.27265561422E+03  0.97402794835E+02  0.30141999559E+03  0.00000000000E+00 0.  1.
<mgrwt>
<rscale>  0 0.13172021E+04</rscale>
<asrwt>0</asrwt>
<pdfrwt beam="1">  1        2 0.47593444E-01 0.13172021E+04</pdfrwt>
<pdfrwt beam="2">  1       -1 0.21571036E+00 0.13172021E+04</pdfrwt>
<totfact> 0.13995646E+01</totfact>
</mgrwt>
</event>
<event>
12    7  0.1741211E-007  0.2072390E+04  0.7818608E-02  0.8573504E-01
          2   -1    0    0  501    0  0.00000000000E+00  0.00000000000E+00  0.92119287508E+03  0.92119287508E+03  0.00000000000E+00 0. -1.
         -1   -1    0    0    0  501 -0.00000000000E+00 -0.00000000000E+00 -0.11655542041E+04  0.11655542041E+04  0.00000000000E+00 0.  1.
         24    2    1    2    0    0  0.43954067432E+03 -0.47354150339E+03  0.43710201886E+03  0.78484298147E+03  0.86503010657E+02 0.  0.
        254    2    1    2    0    0 -0.43954067432E+03  0.47354150339E+03 -0.68146334789E+03  0.13019040977E+04  0.90173412121E+03 0.  0.
         23    2    4    4    0    0 -0.13722101846E+03  0.22054377470E+03  0.19428456739E+03  0.33666364958E+03  0.90148518352E+02 0.  0.
         23    2    4    4    0    0 -0.30231965586E+03  0.25299772869E+03 -0.87574791528E+03  0.96524044815E+03  0.96693777357E+02 0.  0.
          2    1    3    3  502    0  0.38372408858E+03 -0.44327193477E+03  0.37458502313E+03  0.69573567097E+03  0.00000000000E+00 0. -1.
         -1    1    3    3    0  502  0.55816585746E+02 -0.30269568615E+02  0.62516995728E+02  0.89107310493E+02  0.00000000000E+00 0.  1.
         13    1    5    5    0    0 -0.16558004626E+02  0.27030930182E+01  0.40856357491E+02  0.44166912690E+02  0.00000000000E+00 0.  1.
        -13    1    5    5    0    0 -0.12066301383E+03  0.21784068168E+03  0.15342820990E+03  0.29249673689E+03  0.00000000000E+00 0. -1.
          3    1    6    6  503    0 -0.98262438795E+02  0.50718658945E+02 -0.33676201528E+03  0.35445245687E+03  0.00000000000E+00 0. -1.
         -3    1    6    6    0  503 -0.20405721707E+03  0.20227906975E+03 -0.53898590000E+03  0.61078799128E+03  0.00000000000E+00 0.  1.
<mgrwt>
<rscale>  0 0.20723901E+04</rscale>
<asrwt>0</asrwt>
<pdfrwt beam="1">  1        2 0.14172198E+00 0.20723901E+04</pdfrwt>
<pdfrwt beam="2">  1       -1 0.17931603E+00 0.20723901E+04</pdfrwt>
<totfact> 0.62926028E+00</totfact>
</mgrwt>
</event>
<event>
12    7  0.1741211E-007  0.1394228E+04  0.7818608E-02  0.8958007E-01
          2   -1    0    0  501    0  0.00000000000E+00  0.00000000000E+00  0.27735428915E+04  0.27735428915E+04  0.00000000000E+00 0. -1.
         -1   -1    0    0    0  501 -0.00000000000E+00 -0.00000000000E+00 -0.17521562100E+03  0.17521562100E+03  0.00000000000E+00 0.  1.
         24    2    1    2    0    0 -0.10001678729E+03  0.27890269928E+03  0.19063043473E+03  0.36120520317E+03  0.79618859268E+02 0.  0.
        254    2    1    2    0    0  0.10001678729E+03 -0.27890269928E+03  0.24076968358E+04  0.25875533094E+04  0.90035437592E+03 0.  0.
         23    2    4    4    0    0  0.29271919949E+03 -0.42854158786E+03  0.79572597805E+03  0.95470969529E+03  0.94648549204E+02 0.  0.
         23    2    4    4    0    0 -0.19270241220E+03  0.14963888858E+03  0.16119708578E+04  0.16328436141E+04  0.90566026274E+02 0.  0.
          4    1    3    3  502    0 -0.84864837891E+02  0.12877452591E+03  0.77413557192E+02  0.17256238892E+03  0.00000000000E+00 0. -1.
         -3    1    3    3    0  502 -0.15151949396E+02  0.15012817337E+03  0.11321687754E+03  0.18864281425E+03  0.00000000000E+00 0.  1.
         13    1    5    5    0    0  0.24381900628E+03 -0.40077166866E+03  0.73498398264E+03  0.87193296357E+03  0.00000000000E+00 0. -1.
        -13    1    5    5    0    0  0.48900193206E+02 -0.27769919200E+02  0.60741995407E+02  0.82776731718E+02  0.00000000000E+00 0.  1.
          4    1    6    6  503    0 -0.17600049075E+03  0.11871608808E+03  0.11423340432E+04  0.11618936046E+04  0.00000000000E+00 0. -1.
         -4    1    6    6    0  503 -0.16701921453E+02  0.30922800505E+02  0.46963681461E+03  0.47095000946E+03  0.00000000000E+00 0.  1.
<mgrwt>
<rscale>  0 0.13942282E+04</rscale>
<asrwt>0</asrwt>
<pdfrwt beam="1">  1        2 0.42669887E+00 0.13942282E+04</pdfrwt>
<pdfrwt beam="2">  1       -1 0.26956251E-01 0.13942282E+04</pdfrwt>
<totfact> 0.32934080E+01</totfact>
</mgrwt>
</event>
<event>
12    7  0.1741211E-007  0.1890179E+04  0.7818608E-02  0.8659760E-01
          2   -1    0    0  501    0  0.00000000000E+00  0.00000000000E+00  0.19369050220E+04  0.19369050220E+04  0.00000000000E+00 0. -1.
         -1   -1    0    0    0  501 -0.00000000000E+00 -0.00000000000E+00 -0.46114497586E+03  0.46114497586E+03  0.00000000000E+00 0.  1.
         24    2    1    2    0    0  0.38512811527E+03 -0.34067995994E+03  0.12267114546E+04  0.13320138481E+04  0.71087260244E+02 0.  0.
        254    2    1    2    0    0 -0.38512811527E+03  0.34067995994E+03  0.24904859160E+03  0.10660361498E+04  0.90001187289E+03 0.  0.
         23    2    4    4    0    0  0.91890144626E+02 -0.22963873615E+03  0.16961517611E+03  0.31285236474E+03  0.89048000187E+02 0.  0.
         23    2    4    4    0    0 -0.47701825989E+03  0.57031869609E+03  0.79433415497E+02  0.75318378502E+03  0.90367644319E+02 0.  0.
          2    1    3    3  502    0  0.37057704447E+03 -0.31338194279E+03  0.11808806107E+04  0.12767202531E+04  0.00000000000E+00 0. -1.
         -1    1    3    3    0  502  0.14551070797E+02 -0.27298017149E+02  0.45830843884E+02  0.55293595042E+02  0.00000000000E+00 0.  1.
         13    1    5    5    0    0  0.11704183666E+02 -0.38936512775E+01 -0.79349739121E+01  0.14666705374E+02  0.00000000000E+00 0. -1.
        -13    1    5    5    0    0  0.80185960960E+02 -0.22574508487E+03  0.17755015002E+03  0.29818565936E+03  0.00000000000E+00 0.  1.
          3    1    6    6  503    0 -0.13456046959E+03  0.13460034551E+03  0.56432705864E+02  0.19851554921E+03  0.00000000000E+00 0. -1.
         -3    1    6    6    0  503 -0.34245779030E+03  0.43571835059E+03  0.23000709632E+02  0.55466823581E+03  0.00000000000E+00 0.  1.
<mgrwt>
<rscale>  0 0.18901788E+04</rscale>
<asrwt>0</asrwt>
<pdfrwt beam="1">  1        2 0.29798538E+00 0.18901788E+04</pdfrwt>
<pdfrwt beam="2">  1       -1 0.70945382E-01 0.18901788E+04</pdfrwt>
<totfact> 0.15515727E+01</totfact>
</mgrwt>
</event>
<event>
12    7  0.1741211E-007  0.2659169E+04  0.7818608E-02  0.8348376E-01
          2   -1    0    0  501    0  0.00000000000E+00  0.00000000000E+00  0.39507407566E+04  0.39507407566E+04  0.00000000000E+00 0. -1.
         -1   -1    0    0    0  501 -0.00000000000E+00 -0.00000000000E+00 -0.44745897154E+03  0.44745897154E+03  0.00000000000E+00 0.  1.
         24    2    1    2    0    0 -0.10895279070E+04  0.79247167826E+02  0.84526518174E+03  0.13835957257E+04  0.80701493065E+02 0.  0.
        254    2    1    2    0    0  0.10895279070E+04 -0.79247167826E+02  0.26580166033E+04  0.30146040024E+04  0.91073259220E+03 0.  0.
         23    2    4    4    0    0  0.11295934832E+04  0.17573043806E+03  0.21194644645E+04  0.24098063475E+04  0.90412343297E+02 0.  0.
         23    2    4    4    0    0 -0.40065576267E+02 -0.25497760589E+03  0.53855213877E+03  0.60479765495E+03  0.95514225906E+02 0.  0.
          4    1    3    3  502    0 -0.40952323918E+02 -0.11738516695E+02  0.38973547786E+02  0.57739267709E+02  0.00000000000E+00 0. -1.
         -3    1    3    3    0  502 -0.10485755830E+04  0.90985684521E+02  0.80629163396E+03  0.13258564580E+04  0.00000000000E+00 0.  1.
         13    1    5    5    0    0  0.63274669608E+03  0.14266835190E+03  0.12197493151E+04  0.13814887013E+04  0.00000000000E+00 0. -1.
        -13    1    5    5    0    0  0.49684678715E+03  0.33062086165E+02  0.89971514941E+03  0.10283176462E+04  0.00000000000E+00 0.  1.
          2    1    6    6  503    0 -0.30253082607E+02 -0.26050080555E+03  0.49956805688E+03  0.56421995902E+03  0.00000000000E+00 0. -1.
         -2    1    6    6    0  503 -0.98124936607E+01  0.55231996577E+01  0.38984081893E+02  0.40577695934E+02  0.00000000000E+00 0.  1.
<mgrwt>
<rscale>  0 0.26591686E+04</rscale>
<asrwt>0</asrwt>
<pdfrwt beam="1">  1        2 0.60780625E+00 0.26591686E+04</pdfrwt>
<pdfrwt beam="2">  1       -1 0.68839844E-01 0.26591686E+04</pdfrwt>
<totfact> 0.80218144E-01</totfact>
</mgrwt>
</event>
<event>
12    7  0.1741211E-007  0.1969226E+04  0.7818608E-02  0.8621145E-01
         -1   -1    0    0    0  501 -0.00000000000E+00  0.00000000000E+00  0.10046928040E+04  0.10046928040E+04  0.00000000000E+00 0.  1.
          2   -1    0    0  501    0  0.00000000000E+00 -0.00000000000E+00 -0.96493478399E+03  0.96493478399E+03  0.00000000000E+00 0. -1.
         24    2    1    2    0    0  0.18797958425E+03 -0.74973421921E+03  0.65181323059E+02  0.78007774431E+03  0.82673809279E+02 0.  0.
        254    2    1    2    0    0 -0.18797958425E+03  0.74973421921E+03 -0.25423303031E+02  0.11895498437E+04  0.90384996695E+03 0.  0.
         23    2    4    4    0    0  0.25052337356E+03  0.19444360756E+03 -0.27931453522E+03  0.43273912265E+03  0.93146451727E+02 0.  0.
         23    2    4    4    0    0 -0.43850295781E+03  0.55529061165E+03  0.25389123219E+03  0.75681072105E+03  0.87573981970E+02 0.  0.
          4    1    3    3  502    0  0.80838174493E+02 -0.17734437970E+03  0.10428383490E+02  0.19517835600E+03  0.00000000000E+00 0. -1.
         -3    1    3    3    0  502  0.10714140976E+03 -0.57238983951E+03  0.54752939569E+02  0.58489938831E+03  0.00000000000E+00 0.  1.
         13    1    5    5    0    0  0.23554960210E+03  0.20409831016E+03 -0.27126698047E+03  0.41318943592E+03  0.00000000000E+00 0.  1.
        -13    1    5    5    0    0  0.14973771452E+02 -0.96547026024E+01 -0.80475547479E+01  0.19549686731E+02  0.00000000000E+00 0. -1.
          2    1    6    6  503    0 -0.36671274976E+02  0.44186970600E+02 -0.35829287165E+01  0.57533539413E+02  0.00000000000E+00 0. -1.
         -2    1    6    6    0  503 -0.40183168283E+03  0.51110364105E+03  0.25747416090E+03  0.69927718164E+03  0.00000000000E+00 0.  1.
<mgrwt>
<rscale>  0 0.19692263E+04</rscale>
<asrwt>0</asrwt>
<pdfrwt beam="1">  1        2 0.14845151E+00 0.19692263E+04</pdfrwt>
<pdfrwt beam="2">  1       -1 0.15456812E+00 0.19692263E+04</pdfrwt>
<totfact> 0.90698825E+00</totfact>
</mgrwt>
</event>
<event>
12    7  0.1741211E-007  0.1361116E+04  0.7818608E-02  0.8982456E-01
          2   -1    0    0  501    0  0.00000000000E+00  0.00000000000E+00  0.19740428403E+04  0.19740428403E+04  0.00000000000E+00 0. -1.
         -1   -1    0    0    0  501 -0.00000000000E+00 -0.00000000000E+00 -0.23462476274E+03  0.23462476274E+03  0.00000000000E+00 0.  1.
         24    2    1    2    0    0  0.10005255083E+03  0.18798875260E+03  0.10126419240E+04  0.10378395173E+04  0.79479011188E+02 0.  0.
        254    2    1    2    0    0 -0.10005255083E+03 -0.18798875260E+03  0.72677615349E+03  0.11708280858E+04  0.89290791524E+03 0.  0.
         23    2    4    4    0    0 -0.12846071849E+03  0.33250389281E+03  0.17905494518E+03  0.40908671865E+03  0.90720863394E+02 0.  0.
         23    2    4    4    0    0  0.28408167659E+02 -0.52049264542E+03  0.54772120831E+03  0.76174136711E+03  0.92367583090E+02 0.  0.
          4    1    3    3  502    0  0.78968152094E+02  0.16797914928E+03  0.71204261266E+03  0.73583805683E+03  0.00000000000E+00 0. -1.
         -3    1    3    3    0  502  0.21084398736E+02  0.20009603319E+02  0.30059931138E+03  0.30200146043E+03  0.00000000000E+00 0.  1.
         13    1    5    5    0    0 -0.38337290124E+02  0.22107801464E+03  0.11458595128E+03  0.25194280422E+03  0.00000000000E+00 0.  1.
        -13    1    5    5    0    0 -0.90123428365E+02  0.11142587817E+03  0.64468993901E+02  0.15714391443E+03  0.00000000000E+00 0. -1.
          3    1    6    6  503    0 -0.20839033702E+02 -0.31824510949E+02  0.45021763651E+02  0.58940851920E+02  0.00000000000E+00 0. -1.
         -3    1    6    6    0  503  0.49247201361E+02 -0.48866813447E+03  0.50269944466E+03  0.70280051519E+03  0.00000000000E+00 0.  1.
<mgrwt>
<rscale>  0 0.13611162E+04</rscale>
<asrwt>0</asrwt>
<pdfrwt beam="1">  1        2 0.30369889E+00 0.13611162E+04</pdfrwt>
<pdfrwt beam="2">  1       -1 0.36096119E-01 0.13611162E+04</pdfrwt>
<totfact> 0.56408635E+01</totfact>
</mgrwt>
</event>
<event>
12    7  0.1741211E-007  0.2615320E+04  0.7818608E-02  0.8363016E-01
          2   -1    0    0  501    0  0.00000000000E+00  0.00000000000E+00  0.33969197055E+04  0.33969197055E+04  0.00000000000E+00 0. -1.
         -1   -1    0    0    0  501 -0.00000000000E+00 -0.00000000000E+00 -0.50338971321E+03  0.50338971321E+03  0.00000000000E+00 0.  1.
         24    2    1    2    0    0  0.42771086921E+03  0.86114625843E+01  0.28591817359E+04  0.28921272445E+04  0.80430431851E+02 0.  0.
        254    2    1    2    0    0 -0.42771086921E+03 -0.86114625843E+01  0.34348256393E+02  0.10081821742E+04  0.91227229970E+03 0.  0.
         23    2    4    4    0    0 -0.11446978005E+03 -0.16633560921E+03 -0.39063624595E+03  0.44909649754E+03  0.91214702852E+02 0.  0.
         23    2    4    4    0    0 -0.31324108916E+03  0.15772414663E+03  0.42498450234E+03  0.55908567670E+03  0.94699948761E+02 0.  0.
          4    1    3    3  502    0  0.24453656271E+03  0.26091610119E+01  0.18914720837E+04  0.19072156621E+04  0.00000000000E+00 0. -1.
         -3    1    3    3    0  502  0.18317430650E+03  0.60023015724E+01  0.96770965222E+03  0.98491158242E+03  0.00000000000E+00 0.  1.
         13    1    5    5    0    0 -0.25998711842E+02 -0.11068619302E+03 -0.16443163460E+03  0.19991280300E+03  0.00000000000E+00 0. -1.
        -13    1    5    5    0    0 -0.88471068210E+02 -0.55649416188E+02 -0.22620461134E+03  0.24918369454E+03  0.00000000000E+00 0.  1.
          3    1    6    6  503    0 -0.11886502161E+03  0.10343954536E+02  0.13663138761E+03  0.18139467147E+03  0.00000000000E+00 0. -1.
         -3    1    6    6    0  503 -0.19437606755E+03  0.14738019209E+03  0.28835311473E+03  0.37769100523E+03  0.00000000000E+00 0.  1.
<mgrwt>
<rscale>  0 0.26153198E+04</rscale>
<asrwt>0</asrwt>
<pdfrwt beam="1">  1        2 0.52260302E+00 0.26153198E+04</pdfrwt>
<pdfrwt beam="2">  1       -1 0.77444573E-01 0.26153198E+04</pdfrwt>
<totfact> 0.16088384E+00</totfact>
</mgrwt>
</event>
<event>
12    7  0.1741211E-007  0.2037294E+04  0.7818608E-02  0.8589380E-01
         -1   -1    0    0    0  501 -0.00000000000E+00  0.00000000000E+00  0.95435004178E+03  0.95435004178E+03  0.00000000000E+00 0.  1.
          2   -1    0    0  501    0  0.00000000000E+00 -0.00000000000E+00 -0.10872754529E+04  0.10872754529E+04  0.00000000000E+00 0. -1.
         24    2    1    2    0    0 -0.27989603634E+03  0.63733135311E+03 -0.49531911704E+03  0.85819088787E+03  0.81348186801E+02 0.  0.
        254    2    1    2    0    0  0.27989603634E+03 -0.63733135311E+03  0.36239370590E+03  0.11834346068E+04  0.88580766861E+03 0.  0.
         23    2    4    4    0    0 -0.90576002240E+02  0.21914065489E+02  0.40093672108E+03  0.42109273351E+03  0.88795255839E+02 0.  0.
         23    2    4    4    0    0  0.37047203858E+03 -0.65924541860E+03 -0.38543015175E+02  0.76234187333E+03  0.88461938087E+02 0.  0.
          4    1    3    3  502    0 -0.23306941780E+03  0.49198186215E+03 -0.42194876977E+03  0.68877301813E+03  0.00000000000E+00 0. -1.
         -3    1    3    3    0  502 -0.46826618545E+02  0.14534949096E+03 -0.73370347270E+02  0.16941786974E+03  0.00000000000E+00 0.  1.
         13    1    5    5    0    0 -0.67630200138E+02  0.26449674684E+02  0.38723488814E+03  0.39398513659E+03  0.00000000000E+00 0. -1.
        -13    1    5    5    0    0 -0.22945802102E+02 -0.45356091947E+01  0.13701832934E+02  0.27107596917E+02  0.00000000000E+00 0.  1.
          1    1    6    6  503    0  0.35522706286E+03 -0.57825554700E+03 -0.27650848451E+02  0.67921301022E+03  0.00000000000E+00 0. -1.
         -1    1    6    6    0  503  0.15244975727E+02 -0.80989871596E+02 -0.10892166724E+02  0.83128863110E+02  0.00000000000E+00 0.  1.
<mgrwt>
<rscale>  0 0.20372937E+04</rscale>
<asrwt>0</asrwt>
<pdfrwt beam="1">  1        2 0.16727315E+00 0.20372937E+04</pdfrwt>
<pdfrwt beam="2">  1       -1 0.14682308E+00 0.20372937E+04</pdfrwt>
<totfact> 0.86611810E+00</totfact>
</mgrwt>
</event>
<event>
12    7  0.1741211E-007  0.1709427E+04  0.7818608E-02  0.8756006E-01
         -1   -1    0    0    0  501 -0.00000000000E+00  0.00000000000E+00  0.53426207822E+03  0.53426207822E+03  0.00000000000E+00 0.  1.
          2   -1    0    0  501    0  0.00000000000E+00 -0.00000000000E+00 -0.13673717287E+04  0.13673717287E+04  0.00000000000E+00 0. -1.
         24    2    1    2    0    0 -0.63586752946E+02 -0.32855116281E+03  0.27050668377E+03  0.43771460113E+03  0.80193917145E+02 0.  0.
        254    2    1    2    0    0  0.63586752946E+02  0.32855116281E+03 -0.11036163343E+04  0.14639192058E+04  0.90172129072E+03 0.  0.
         23    2    4    4    0    0  0.11943213587E+03 -0.23278119395E+03 -0.73019576349E+03  0.78104832933E+03  0.91648897408E+02 0.  0.
         23    2    4    4    0    0 -0.55845382922E+02  0.56133235676E+03 -0.37342057077E+03  0.68287087647E+03  0.93042945561E+02 0.  0.
          2    1    3    3  502    0  0.16161179152E+02 -0.11477513707E+03  0.94613505900E+02  0.14962029040E+03  0.00000000000E+00 0. -1.
         -1    1    3    3    0  502 -0.79747932098E+02 -0.21377602574E+03  0.17589317787E+03  0.28809431073E+03  0.00000000000E+00 0.  1.
         13    1    5    5    0    0  0.75679264722E+02 -0.65990607015E+02 -0.20499869103E+03  0.22826864579E+03  0.00000000000E+00 0. -1.
        -13    1    5    5    0    0  0.43752871146E+02 -0.16679058694E+03 -0.52519707246E+03  0.55277968355E+03  0.00000000000E+00 0.  1.
          4    1    6    6  503    0 -0.32824971274E+02  0.15848257829E+03 -0.62600309697E+02  0.17353099185E+03  0.00000000000E+00 0. -1.
         -4    1    6    6    0  503 -0.23020411648E+02  0.40284977847E+03 -0.31082026108E+03  0.50933988462E+03  0.00000000000E+00 0.  1.
<mgrwt>
<rscale>  0 0.17094266E+04</rscale>
<asrwt>0</asrwt>
<pdfrwt beam="1">  1        2 0.21036488E+00 0.17094266E+04</pdfrwt>
<pdfrwt beam="2">  1       -1 0.82194166E-01 0.17094266E+04</pdfrwt>
<totfact> 0.24106338E+01</totfact>
</mgrwt>
</event>
<event>
12    7  0.1741211E-007  0.2796500E+04  0.7818608E-02  0.8304356E-01
          2   -1    0    0  501    0  0.00000000000E+00  0.00000000000E+00  0.13330914551E+04  0.13330914551E+04  0.00000000000E+00 0. -1.
         -1   -1    0    0    0  501 -0.00000000000E+00 -0.00000000000E+00 -0.14665938740E+04  0.14665938740E+04  0.00000000000E+00 0.  1.
         24    2    1    2    0    0  0.57574494299E+03  0.15951705396E+03  0.10912558683E+04  0.12465465518E+04  0.78172922603E+02 0.  0.
        254    2    1    2    0    0 -0.57574494299E+03 -0.15951705396E+03 -0.12247582872E+04  0.15531387773E+04  0.74517063118E+03 0.  0.
         23    2    4    4    0    0 -0.79234958196E+02  0.22696784649E+03 -0.63803502038E+03  0.68797467859E+03  0.91803535899E+02 0.  0.
         23    2    4    4    0    0 -0.49650998480E+03 -0.38648490045E+03 -0.58672326680E+03  0.86516409869E+03  0.91498538665E+02 0.  0.
          2    1    3    3  502    0  0.56443346368E+03  0.15680537286E+03  0.10856902293E+04  0.12336516258E+04  0.00000000000E+00 0. -1.
         -1    1    3    3    0  502  0.11311479308E+02  0.27116811007E+01  0.55656389849E+01  0.12894925973E+02  0.00000000000E+00 0.  1.
         13    1    5    5    0    0  0.16931796585E+02  0.63036596806E+02 -0.12803725791E+03  0.14371443103E+03  0.00000000000E+00 0.  1.
        -13    1    5    5    0    0 -0.96166754781E+02  0.16393124968E+03 -0.50999776247E+03  0.54426024756E+03  0.00000000000E+00 0. -1.
          1    1    6    6  503    0 -0.48842316403E+03 -0.36056080066E+03 -0.54782668686E+03  0.81772572234E+03  0.00000000000E+00 0. -1.
         -1    1    6    6    0  503 -0.80868207644E+01 -0.25924099783E+02 -0.38896579937E+02  0.47438376347E+02  0.00000000000E+00 0.  1.
<mgrwt>
<rscale>  0 0.27965005E+04</rscale>
<asrwt>0</asrwt>
<pdfrwt beam="1">  1        2 0.20509099E+00 0.27965005E+04</pdfrwt>
<pdfrwt beam="2">  1       -1 0.22562982E+00 0.27965005E+04</pdfrwt>
<totfact> 0.15824544E+00</totfact>
</mgrwt>
</event>
<event>
12    7  0.1741211E-007  0.1609249E+04  0.7818608E-02  0.8814886E-01
          2   -1    0    0  501    0  0.00000000000E+00  0.00000000000E+00  0.18970442528E+04  0.18970442528E+04  0.00000000000E+00 0. -1.
         -1   -1    0    0    0  501 -0.00000000000E+00 -0.00000000000E+00 -0.34127878259E+03  0.34127878259E+03  0.00000000000E+00 0.  1.
         24    2    1    2    0    0 -0.24669033000E+03 -0.10492897659E+02 -0.14620442064E+03  0.29803257776E+03  0.80507546042E+02 0.  0.
        254    2    1    2    0    0  0.24669033000E+03  0.10492897659E+02  0.17019698908E+04  0.19402904576E+04  0.89836480938E+03 0.  0.
         23    2    4    4    0    0  0.46011971942E+03  0.20521001416E+03  0.55805371146E+03  0.75687351560E+03  0.87248310213E+02 0.  0.
         23    2    4    4    0    0 -0.21342938942E+03 -0.19471711650E+03  0.11439161794E+04  0.11834169420E+04  0.92003116501E+02 0.  0.
          4    1    3    3  502    0 -0.44042662024E+02 -0.33949772377E+02 -0.34696580926E+02  0.65545372457E+02  0.00000000000E+00 0. -1.
         -3    1    3    3    0  502 -0.20264766798E+03  0.23456874718E+02 -0.11150783972E+03  0.23248720530E+03  0.00000000000E+00 0.  1.
         13    1    5    5    0    0  0.25616420691E+03  0.11808222748E+03  0.37536069723E+03  0.46953079385E+03  0.00000000000E+00 0.  1.
        -13    1    5    5    0    0  0.20395551252E+03  0.87127786678E+02  0.18269301423E+03  0.28734272175E+03  0.00000000000E+00 0. -1.
          4    1    6    6  503    0 -0.31960938131E+02 -0.25518684664E+02  0.68758545084E+02  0.80002764673E+02  0.00000000000E+00 0.  1.
         -4    1    6    6    0  503 -0.18146845129E+03 -0.16919843184E+03  0.10751576343E+04  0.11034141773E+04  0.00000000000E+00 0. -1.
<mgrwt>
<rscale>  0 0.16092495E+04</rscale>
<asrwt>0</asrwt>
<pdfrwt beam="1">  1        2 0.29185296E+00 0.16092495E+04</pdfrwt>
<pdfrwt beam="2">  1       -1 0.52504429E-01 0.16092495E+04</pdfrwt>
<totfact> 0.30411657E+01</totfact>
</mgrwt>
</event>
<event>
12    7  0.1741211E-007  0.1606011E+04  0.7818608E-02  0.8816864E-01
          2   -1    0    0  501    0  0.00000000000E+00  0.00000000000E+00  0.16106239878E+04  0.16106239878E+04  0.00000000000E+00 0. -1.
         -1   -1    0    0    0  501 -0.00000000000E+00 -0.00000000000E+00 -0.40035279289E+03  0.40035279289E+03  0.00000000000E+00 0.  1.
         24    2    1    2    0    0  0.33239323163E+03 -0.19299626661E+03  0.91950061163E+03  0.99986252433E+03  0.80689983353E+02 0.  0.
        254    2    1    2    0    0 -0.33239323163E+03  0.19299626661E+03  0.29077058325E+03  0.10111142563E+04  0.88885976842E+03 0.  0.
         23    2    4    4    0    0  0.24185157583E+03 -0.12474326482E+03  0.18221564997E+03  0.33988719156E+03  0.90926855444E+02 0.  0.
         23    2    4    4    0    0 -0.57424480746E+03  0.31773953143E+03  0.10855493328E+03  0.67122706478E+03  0.89700001263E+02 0.  0.
          2    1    3    3  502    0  0.23312712740E+03 -0.91286541109E+02  0.60366268707E+03  0.65352133085E+03  0.00000000000E+00 0. -1.
         -1    1    3    3    0  502  0.99266104237E+02 -0.10170972550E+03  0.31583792456E+03  0.34634119348E+03  0.00000000000E+00 0.  1.
         13    1    5    5    0    0  0.20800412974E+03 -0.64431160112E+02  0.13799392870E+03  0.25779723959E+03  0.00000000000E+00 0. -1.
        -13    1    5    5    0    0  0.33847446083E+02 -0.60312104712E+02  0.44221721274E+02  0.82089951965E+02  0.00000000000E+00 0.  1.
          3    1    6    6  503    0 -0.49026747270E+03  0.24727909256E+03  0.11648906419E+03  0.56131884565E+03  0.00000000000E+00 0. -1.
         -3    1    6    6    0  503 -0.83977334758E+02  0.70460438873E+02 -0.79341309117E+01  0.10990821913E+03  0.00000000000E+00 0.  1.
<mgrwt>
<rscale>  0 0.16060110E+04</rscale>
<asrwt>0</asrwt>
<pdfrwt beam="1">  1        2 0.24778830E+00 0.16060110E+04</pdfrwt>
<pdfrwt beam="2">  1       -1 0.61592739E-01 0.16060110E+04</pdfrwt>
<totfact> 0.32114948E+01</totfact>
</mgrwt>
</event>
<event>
12    7  0.1741211E-007  0.1816895E+04  0.7818608E-02  0.8697366E-01
         -1   -1    0    0    0  501 -0.00000000000E+00  0.00000000000E+00  0.43110567435E+03  0.43110567435E+03  0.00000000000E+00 0.  1.
          2   -1    0    0  501    0  0.00000000000E+00 -0.00000000000E+00 -0.19143251561E+04  0.19143251561E+04  0.00000000000E+00 0. -1.
         24    2    1    2    0    0 -0.20860883131E+03  0.55747968268E+03 -0.99204158013E+03  0.11596412824E+04  0.79499471652E+02 0.  0.
        254    2    1    2    0    0  0.20860883131E+03 -0.55747968268E+03 -0.49117790162E+03  0.11857895481E+04  0.90029988346E+03 0.  0.
         23    2    4    4    0    0 -0.39705498382E+02 -0.55048595191E+03 -0.66501080974E+03  0.86893796433E+03  0.90567648357E+02 0.  0.
         23    2    4    4    0    0  0.24831432969E+03 -0.69937307640E+01  0.17383290813E+03  0.31685158373E+03  0.92022429686E+02 0.  0.
          2    1    3    3  502    0 -0.23969843226E+02  0.17107354243E+02 -0.50869710309E+02  0.58778757901E+02  0.00000000000E+00 0. -1.
         -1    1    3    3    0  502 -0.18463898808E+03  0.54037232843E+03 -0.94117186982E+03  0.11008625245E+04  0.00000000000E+00 0.  1.
         13    1    5    5    0    0  0.23422003749E+02 -0.54810249971E+02 -0.69039904237E+02  0.91209989247E+02  0.00000000000E+00 0.  1.
        -13    1    5    5    0    0 -0.63127502131E+02 -0.49567570194E+03 -0.59597090551E+03  0.77772797509E+03  0.00000000000E+00 0. -1.
          2    1    6    6  503    0  0.18654038854E+03 -0.40381419573E+02  0.10203275962E+03  0.21642241021E+03  0.00000000000E+00 0. -1.
         -2    1    6    6    0  503  0.61773941147E+02  0.33387688809E+02  0.71800148508E+02  0.10042917352E+03  0.00000000000E+00 0.  1.
<mgrwt>
<rscale>  0 0.18168945E+04</rscale>
<asrwt>0</asrwt>
<pdfrwt beam="1">  1        2 0.29451157E+00 0.18168945E+04</pdfrwt>
<pdfrwt beam="2">  1       -1 0.66323949E-01 0.18168945E+04</pdfrwt>
<totfact> 0.18440844E+01</totfact>
</mgrwt>
</event>
<event>
12    7  0.1741211E-007  0.1140997E+04  0.7818608E-02  0.9166130E-01
          2   -1    0    0  501    0  0.00000000000E+00  0.00000000000E+00  0.65165918837E+03  0.65165918837E+03  0.00000000000E+00 0. -1.
         -1   -1    0    0    0  501 -0.00000000000E+00 -0.00000000000E+00 -0.49944575714E+03  0.49944575714E+03  0.00000000000E+00 0.  1.
         24    2    1    2    0    0  0.11468757031E+03  0.48076338040E+01 -0.14071374219E+03  0.19845007233E+03  0.80035753512E+02 0.  0.
        254    2    1    2    0    0 -0.11468757031E+03 -0.48076338040E+01  0.29292717342E+03  0.95265487318E+03  0.89920444079E+03 0.  0.
         23    2    4    4    0    0  0.24498762694E+03 -0.57297409567E+02 -0.20029267316E+03  0.33423269747E+03  0.91062674237E+02 0.  0.
         23    2    4    4    0    0 -0.35967519726E+03  0.52489775763E+02  0.49321984659E+03  0.61842217571E+03  0.84016345174E+02 0.  0.
          4    1    3    3  502    0  0.74918676090E+01  0.27270077213E+02 -0.44179135860E+02  0.52455516743E+02  0.00000000000E+00 0. -1.
         -3    1    3    3    0  502  0.10719570270E+03 -0.22462443409E+02 -0.96534606326E+02  0.14599455559E+03  0.00000000000E+00 0.  1.
         13    1    5    5    0    0  0.52259842267E+02  0.98594243391E+01 -0.79232568793E+01  0.53768739632E+02  0.00000000000E+00 0. -1.
        -13    1    5    5    0    0  0.19272778468E+03 -0.67156833906E+02 -0.19236941629E+03  0.28046395784E+03  0.00000000000E+00 0.  1.
          2    1    6    6  503    0 -0.32099229244E+03  0.35421557018E+02  0.46979403761E+03  0.57008523598E+03  0.00000000000E+00 0.  1.
         -2    1    6    6    0  503 -0.38682904813E+02  0.17068218745E+02  0.23425808982E+02  0.48336939729E+02  0.00000000000E+00 0. -1.
<mgrwt>
<rscale>  0 0.11409968E+04</rscale>
<asrwt>0</asrwt>
<pdfrwt beam="1">  1        2 0.10025526E+00 0.11409968E+04</pdfrwt>
<pdfrwt beam="2">  1       -1 0.76837809E-01 0.11409968E+04</pdfrwt>
<totfact> 0.86217230E+01</totfact>
</mgrwt>
</event>
<event>
12    7  0.1741211E-007  0.2119946E+04  0.7818608E-02  0.8552508E-01
          2   -1    0    0  501    0  0.00000000000E+00  0.00000000000E+00  0.27217710550E+04  0.27217710550E+04  0.00000000000E+00 0. -1.
         -1   -1    0    0    0  501 -0.00000000000E+00 -0.00000000000E+00 -0.41279829494E+03  0.41279829494E+03  0.00000000000E+00 0.  1.
         24    2    1    2    0    0  0.61903112888E+03 -0.22297204551E+03  0.17940022440E+04  0.19125652567E+04  0.80905736367E+02 0.  0.
        254    2    1    2    0    0 -0.61903112888E+03  0.22297204551E+03  0.51497051609E+03  0.12220040932E+04  0.89173050852E+03 0.  0.
         23    2    4    4    0    0 -0.69019531080E+03  0.26892497308E+03  0.58492898680E+02  0.74872081482E+03  0.92039291399E+02 0.  0.
         23    2    4    4    0    0  0.71164181915E+02 -0.45952927573E+02  0.45647761741E+03  0.47328327840E+03  0.91919715428E+02 0.  0.
          2    1    3    3  502    0  0.56392663041E+03 -0.20366543935E+03  0.16912021647E+04  0.17943404408E+04  0.00000000000E+00 0. -1.
         -1    1    3    3    0  502  0.55104498474E+02 -0.19306606154E+02  0.10280007928E+03  0.11822481589E+03  0.00000000000E+00 0.  1.
         13    1    5    5    0    0 -0.64160967598E+03  0.22465506868E+03  0.63721634962E+02  0.68278351105E+03  0.00000000000E+00 0. -1.
        -13    1    5    5    0    0 -0.48585634815E+02  0.44269904400E+02 -0.52287362822E+01  0.65937303774E+02  0.00000000000E+00 0.  1.
          3    1    6    6  503    0  0.89294112597E+02 -0.38703613261E+02  0.42682355430E+03  0.43777820266E+03  0.00000000000E+00 0. -1.
         -3    1    6    6    0  503 -0.18129930683E+02 -0.72493143118E+01  0.29654063110E+02  0.35505075743E+02  0.00000000000E+00 0.  1.
<mgrwt>
<rscale>  0 0.21199457E+04</rscale>
<asrwt>0</asrwt>
<pdfrwt beam="1">  1        2 0.41873400E+00 0.21199457E+04</pdfrwt>
<pdfrwt beam="2">  1       -1 0.63507432E-01 0.21199457E+04</pdfrwt>
<totfact> 0.67908883E+00</totfact>
</mgrwt>
</event>
<event>
12    7  0.1741211E-007  0.2008487E+04  0.7818608E-02  0.8602663E-01
          2   -1    0    0  501    0  0.00000000000E+00  0.00000000000E+00  0.12603620191E+04  0.12603620191E+04  0.00000000000E+00 0. -1.
         -3   -1    0    0    0  501 -0.00000000000E+00 -0.00000000000E+00 -0.80017102482E+03  0.80017102482E+03  0.00000000000E+00 0.  1.
         24    2    1    2    0    0 -0.82885671851E+02 -0.54489615027E+03 -0.40272089401E+03  0.68759004594E+03  0.82547584053E+02 0.  0.
        254    2    1    2    0    0  0.82885671851E+02  0.54489615027E+03  0.86291188824E+03  0.13729429979E+04  0.91464402886E+03 0.  0.
         23    2    4    4    0    0 -0.83956386662E+02  0.38180875036E+03  0.10070267614E+04  0.10839946855E+04  0.90083202073E+02 0.  0.
         23    2    4    4    0    0  0.16684205851E+03  0.16308739990E+03 -0.14411487320E+03  0.28894831240E+03  0.91039870755E+02 0.  0.
          4    1    3    3  502    0 -0.75903536050E+02 -0.25598558628E+03 -0.16985136942E+03  0.31644818669E+03  0.00000000000E+00 0. -1.
         -3    1    3    3    0  502 -0.69821358010E+01 -0.28891056399E+03 -0.23286952459E+03  0.37114185925E+03  0.00000000000E+00 0.  1.
         13    1    5    5    0    0  0.20816576827E+01  0.75495136089E+02  0.12167231911E+03  0.14320615248E+03  0.00000000000E+00 0.  1.
        -13    1    5    5    0    0 -0.86038044345E+02  0.30631361427E+03  0.88535444233E+03  0.94078853305E+03  0.00000000000E+00 0. -1.
          4    1    6    6  503    0  0.10069856199E+03  0.70214892858E+02 -0.12147518844E+03  0.17270365651E+03  0.00000000000E+00 0. -1.
         -4    1    6    6    0  503  0.66143496522E+02  0.92872507046E+02 -0.22639684758E+02  0.11624465589E+03  0.00000000000E+00 0.  1.
<mgrwt>
<rscale>  0 0.20084872E+04</rscale>
<asrwt>0</asrwt>
<pdfrwt beam="1">  1        2 0.19390185E+00 0.20084872E+04</pdfrwt>
<pdfrwt beam="2">  1       -3 0.12310323E+00 0.20084872E+04</pdfrwt>
<totfact> 0.54525920E+00</totfact>
</mgrwt>
</event>
<event>
12    7  0.1741211E-007  0.1874889E+04  0.7818608E-02  0.8667458E-01
         -1   -1    0    0    0  501 -0.00000000000E+00  0.00000000000E+00  0.31901513189E+03  0.31901513189E+03  0.00000000000E+00 0.  1.
          2   -1    0    0  501    0  0.00000000000E+00 -0.00000000000E+00 -0.27547345553E+04  0.27547345553E+04  0.00000000000E+00 0. -1.
         24    2    1    2    0    0 -0.21537315271E+03 -0.60240113853E+03 -0.14963978462E+04  0.16290425498E+04  0.72803765517E+02 0.  0.
        254    2    1    2    0    0  0.21537315271E+03  0.60240113853E+03 -0.93932157720E+03  0.14447071374E+04  0.89195345217E+03 0.  0.
         23    2    4    4    0    0  0.39201821202E+03  0.31800712606E+03 -0.81941835801E+02  0.51965302824E+03  0.92292981962E+02 0.  0.
         23    2    4    4    0    0 -0.17664505931E+03  0.28439401246E+03 -0.85737974140E+03  0.92505410915E+03  0.92421061435E+02 0.  0.
          4    1    3    3  502    0 -0.11123498977E+03 -0.27196413322E+03 -0.77290214527E+03  0.82687087194E+03  0.00000000000E+00 0. -1.
         -3    1    3    3    0  502 -0.10413816294E+03 -0.33043700531E+03 -0.72349570095E+03  0.80217167785E+03  0.00000000000E+00 0.  1.
         13    1    5    5    0    0  0.32088841439E+02  0.50031832319E+02 -0.33723137071E+02  0.68338334513E+02  0.00000000000E+00 0. -1.
        -13    1    5    5    0    0  0.35992937058E+03  0.26797529374E+03 -0.48218698730E+02  0.45131469373E+03  0.00000000000E+00 0.  1.
          1    1    6    6  503    0 -0.16073132577E+03  0.28421096743E+03 -0.77208525542E+03  0.83828758474E+03  0.00000000000E+00 0.  1.
         -1    1    6    6    0  503 -0.15913733545E+02  0.18304503612E+00 -0.85294485978E+02  0.86766524415E+02  0.00000000000E+00 0. -1.
<mgrwt>
<rscale>  0 0.18748888E+04</rscale>
<asrwt>0</asrwt>
<pdfrwt beam="1">  1        2 0.42380532E+00 0.18748888E+04</pdfrwt>
<pdfrwt beam="2">  1       -1 0.49079251E-01 0.18748888E+04</pdfrwt>
<totfact> 0.10961197E+01</totfact>
</mgrwt>
</event>
<event>
12    7  0.1741211E-007  0.2063679E+04  0.7818608E-02  0.8577414E-01
          2   -1    0    0  501    0  0.00000000000E+00  0.00000000000E+00  0.17329968237E+04  0.17329968237E+04  0.00000000000E+00 0. -1.
         -1   -1    0    0    0  501 -0.00000000000E+00 -0.00000000000E+00 -0.61436495239E+03  0.61436495239E+03  0.00000000000E+00 0.  1.
         24    2    1    2    0    0 -0.45237787379E+03  0.40685428709E+03 -0.19392341816E+03  0.64350277414E+03  0.79456759260E+02 0.  0.
        254    2    1    2    0    0  0.45237787379E+03 -0.40685428709E+03  0.13125552895E+04  0.17038590020E+04  0.90008775072E+03 0.  0.
         23    2    4    4    0    0 -0.44103405001E+02 -0.42990289480E+02  0.10028153929E+04  0.10088098496E+04  0.90913833384E+02 0.  0.
         23    2    4    4    0    0  0.49648127879E+03 -0.36386399761E+03  0.30973989662E+03  0.69504915239E+03  0.90905729907E+02 0.  0.
          2    1    3    3  502    0 -0.37629484700E+03  0.33380839958E+03 -0.19079123189E+03  0.53798434334E+03  0.00000000000E+00 0. -1.
         -1    1    3    3    0  502 -0.76083026797E+02  0.73045887509E+02 -0.31321862704E+01  0.10551843080E+03  0.00000000000E+00 0.  1.
         13    1    5    5    0    0 -0.24820614291E+02 -0.39704798235E+01  0.60821217474E+02  0.65810698970E+02  0.00000000000E+00 0. -1.
        -13    1    5    5    0    0 -0.19282790710E+02 -0.39019809656E+02  0.94199417540E+03  0.94299915061E+03  0.00000000000E+00 0.  1.
          3    1    6    6  503    0  0.36206110973E+03 -0.29469012294E+03  0.26769404900E+03  0.53813624633E+03  0.00000000000E+00 0. -1.
         -3    1    6    6    0  503  0.13442016906E+03 -0.69173874666E+02  0.42045847619E+02  0.15691290606E+03  0.00000000000E+00 0.  1.
<mgrwt>
<rscale>  0 0.20636788E+04</rscale>
<asrwt>0</asrwt>
<pdfrwt beam="1">  1        2 0.26661489E+00 0.20636788E+04</pdfrwt>
<pdfrwt beam="2">  1       -1 0.94517686E-01 0.20636788E+04</pdfrwt>
<totfact> 0.10717192E+01</totfact>
</mgrwt>
</event>
<event>
12    7  0.1741211E-007  0.1680765E+04  0.7818608E-02  0.8772411E-01
          2   -1    0    0  501    0  0.00000000000E+00  0.00000000000E+00  0.83544341804E+03  0.83544341804E+03  0.00000000000E+00 0. -1.
         -1   -1    0    0    0  501 -0.00000000000E+00 -0.00000000000E+00 -0.84535125351E+03  0.84535125351E+03  0.00000000000E+00 0.  1.
         24    2    1    2    0    0  0.39316023012E+03 -0.77896186741E+02 -0.44632229529E+03  0.60581262273E+03  0.84631909667E+02 0.  0.
        254    2    1    2    0    0 -0.39316023012E+03  0.77896186741E+02  0.43641445982E+03  0.10749820488E+04  0.89693145896E+03 0.  0.
         23    2    4    4    0    0 -0.11653983782E+03  0.38057760495E+03  0.50469267469E+03  0.64954081964E+03  0.93636175155E+02 0.  0.
         23    2    4    4    0    0 -0.27662039229E+03 -0.30268141821E+03 -0.68278214873E+02  0.42544122918E+03  0.90572857388E+02 0.  0.
          2    1    3    3  502    0  0.11861389252E+03 -0.40282916058E+02 -0.19464523290E+03  0.23147080921E+03  0.00000000000E+00 0. -1.
         -1    1    3    3    0  502  0.27454633759E+03 -0.37613270683E+02 -0.25167706239E+03  0.37434181352E+03  0.00000000000E+00 0.  1.
         13    1    5    5    0    0 -0.92865807432E+02  0.26827194019E+03  0.28840316941E+03  0.40468540894E+03  0.00000000000E+00 0. -1.
        -13    1    5    5    0    0 -0.23674030392E+02  0.11230566476E+03  0.21628950528E+03  0.24485541069E+03  0.00000000000E+00 0.  1.
          1    1    6    6  503    0 -0.13225662350E+03 -0.20518057340E+03 -0.21454667155E+02  0.24505343275E+03  0.00000000000E+00 0. -1.
         -1    1    6    6    0  503 -0.14436376879E+03 -0.97500844808E+02 -0.46823547718E+02  0.18038779642E+03  0.00000000000E+00 0.  1.
<mgrwt>
<rscale>  0 0.16807655E+04</rscale>
<asrwt>0</asrwt>
<pdfrwt beam="1">  1        2 0.12852976E+00 0.16807655E+04</pdfrwt>
<pdfrwt beam="2">  1       -1 0.13005404E+00 0.16807655E+04</pdfrwt>
<totfact> 0.17910795E+01</totfact>
</mgrwt>
</event>
<event>
12    7  0.1741211E-007  0.1424973E+04  0.7818608E-02  0.8935938E-01
          2   -1    0    0  501    0  0.00000000000E+00  0.00000000000E+00  0.39825555475E+04  0.39825555475E+04  0.00000000000E+00 0. -1.
         -1   -1    0    0    0  501 -0.00000000000E+00 -0.00000000000E+00 -0.12746507356E+03  0.12746507356E+03  0.00000000000E+00 0.  1.
         24    2    1    2    0    0  0.31254264540E+03 -0.61043171322E+01  0.34320223145E+03  0.47075756711E+03  0.78132883164E+02 0.  0.
        254    2    1    2    0    0 -0.31254264540E+03  0.61043171322E+01  0.35118882425E+04  0.36392630540E+04  0.90175183960E+03 0.  0.
         23    2    4    4    0    0 -0.20836936613E+03 -0.42697413087E+03  0.14801439234E+04  0.15573030438E+04  0.92962547307E+02 0.  0.
         23    2    4    4    0    0 -0.10417327927E+03  0.43307844800E+03  0.20317443192E+04  0.20819600102E+04  0.90352040931E+02 0.  0.
          2    1    3    3  502    0  0.44844459854E+02 -0.63247274763E+00  0.97646114750E+02  0.10745319598E+03  0.00000000000E+00 0. -1.
         -1    1    3    3    0  502  0.26769818555E+03 -0.54718443846E+01  0.24555611670E+03  0.36330437112E+03  0.00000000000E+00 0.  1.
         13    1    5    5    0    0 -0.21266429515E+03 -0.42665808385E+03  0.14384714419E+04  0.15154086287E+04  0.00000000000E+00 0. -1.
        -13    1    5    5    0    0  0.42949290164E+01 -0.31604702087E+00  0.41672481487E+02  0.41894415072E+02  0.00000000000E+00 0.  1.
          1    1    6    6  503    0 -0.92559406766E+02  0.41905339046E+03  0.19984677100E+04  0.20440269509E+04  0.00000000000E+00 0. -1.
         -1    1    6    6    0  503 -0.11613872506E+02  0.14025057546E+02  0.33276609160E+02  0.37933059341E+02  0.00000000000E+00 0.  1.
<mgrwt>
<rscale>  0 0.14249726E+04</rscale>
<asrwt>0</asrwt>
<pdfrwt beam="1">  1        2 0.61270076E+00 0.14249726E+04</pdfrwt>
<pdfrwt beam="2">  1       -1 0.19610014E-01 0.14249726E+04</pdfrwt>
<totfact> 0.84891124E+00</totfact>
</mgrwt>
</event>
<event>
12    7  0.1741211E-007  0.2019806E+04  0.7818608E-02  0.8597416E-01
         -1   -1    0    0    0  501 -0.00000000000E+00  0.00000000000E+00  0.35017247479E+03  0.35017247479E+03  0.00000000000E+00 0.  1.
          2   -1    0    0  501    0  0.00000000000E+00 -0.00000000000E+00 -0.29125776872E+04  0.29125776872E+04  0.00000000000E+00 0. -1.
         24    2    1    2    0    0 -0.30435636061E+03 -0.51754945471E+03 -0.16574375968E+03  0.62846003184E+03  0.83670696394E+02 0.  0.
        254    2    1    2    0    0  0.30435636061E+03  0.51754945471E+03 -0.23966614528E+04  0.26342901302E+04  0.91378779733E+03 0.  0.
         23    2    4    4    0    0 -0.34096483095E+02 -0.23919122907E+03 -0.59109884464E+03  0.64539124890E+03  0.93578874718E+02 0.  0.
         23    2    4    4    0    0  0.33845284370E+03  0.75674068378E+03 -0.18055626081E+04  0.19888988813E+04  0.91954544570E+02 0.  0.
          2    1    3    3  502    0 -0.22387309406E+02 -0.75942443605E+02 -0.43898795350E+02  0.90529280326E+02  0.00000000000E+00 0. -1.
         -1    1    3    3    0  502 -0.28196905120E+03 -0.44160701110E+03 -0.12184496433E+03  0.53793075151E+03  0.00000000000E+00 0.  1.
         13    1    5    5    0    0 -0.18701224663E+02 -0.11748925727E+03 -0.40804634852E+03  0.42503562665E+03  0.00000000000E+00 0. -1.
        -13    1    5    5    0    0 -0.15395258433E+02 -0.12170197179E+03 -0.18305249612E+03  0.22035562225E+03  0.00000000000E+00 0.  1.
          3    1    6    6  503    0  0.24922567002E+03  0.64084648814E+03 -0.14721125025E+04  0.16247808701E+04  0.00000000000E+00 0. -1.
         -3    1    6    6    0  503  0.89227173685E+02  0.11589419563E+03 -0.33345010564E+03  0.36411801117E+03  0.00000000000E+00 0.  1.
<mgrwt>
<rscale>  0 0.20198065E+04</rscale>
<asrwt>0</asrwt>
<pdfrwt beam="1">  1        2 0.44808887E+00 0.20198065E+04</pdfrwt>
<pdfrwt beam="2">  1       -1 0.53872689E-01 0.20198065E+04</pdfrwt>
<totfact> 0.72601501E+00</totfact>
</mgrwt>
</event>
<event>
12    7  0.1741211E-007  0.1582009E+04  0.7818608E-02  0.8831677E-01
         -1   -1    0    0    0  501 -0.00000000000E+00  0.00000000000E+00  0.47985468659E+03  0.47985468659E+03  0.00000000000E+00 0.  1.
          2   -1    0    0  501    0  0.00000000000E+00 -0.00000000000E+00 -0.13039114900E+04  0.13039114900E+04  0.00000000000E+00 0. -1.
         24    2    1    2    0    0  0.22977256408E+03 -0.25206154933E+03 -0.73476794195E+03  0.81394297635E+03  0.79301856068E+02 0.  0.
        254    2    1    2    0    0 -0.22977256408E+03  0.25206154933E+03 -0.89288861505E+02  0.96982320029E+03  0.90346780971E+03 0.  0.
         23    2    4    4    0    0  0.23700838234E+03 -0.14325266549E+03  0.12158666973E+03  0.31650617441E+03  0.93265967617E+02 0.  0.
         23    2    4    4    0    0 -0.46678094642E+03  0.39531421482E+03 -0.21087553124E+03  0.65331702588E+03  0.90536546476E+02 0.  0.
          4    1    3    3  502    0  0.17637056769E+03 -0.21638655828E+03 -0.52555478361E+03  0.59509457259E+03  0.00000000000E+00 0. -1.
         -3    1    3    3    0  502  0.53401996388E+02 -0.35674991049E+02 -0.20921315834E+03  0.21884840375E+03  0.00000000000E+00 0.  1.
         13    1    5    5    0    0  0.11210097248E+03 -0.75125438089E+02  0.93178057615E+01  0.13526744243E+03  0.00000000000E+00 0. -1.
        -13    1    5    5    0    0  0.12490740987E+03 -0.68127227396E+02  0.11226886397E+03  0.18123873198E+03  0.00000000000E+00 0.  1.
          3    1    6    6  503    0 -0.38832701967E+03  0.30891217678E+03 -0.13547143502E+03  0.51437060265E+03  0.00000000000E+00 0. -1.
         -3    1    6    6    0  503 -0.78453926754E+02  0.86402038036E+02 -0.75404096224E+02  0.13894642323E+03  0.00000000000E+00 0.  1.
<mgrwt>
<rscale>  0 0.15820089E+04</rscale>
<asrwt>0</asrwt>
<pdfrwt beam="1">  1        2 0.20060177E+00 0.15820089E+04</pdfrwt>
<pdfrwt beam="2">  1       -1 0.73823798E-01 0.15820089E+04</pdfrwt>
<totfact> 0.33267637E+01</totfact>
</mgrwt>
</event>
<event>
12    7  0.1741211E-007  0.2846220E+04  0.7818608E-02  0.8289061E-01
          2   -1    0    0  501    0  0.00000000000E+00  0.00000000000E+00  0.36818745474E+04  0.36818745474E+04  0.00000000000E+00 0. -1.
         -1   -1    0    0    0  501 -0.00000000000E+00 -0.00000000000E+00 -0.55005742143E+03  0.55005742143E+03  0.00000000000E+00 0.  1.
         24    2    1    2    0    0 -0.95255889084E+03 -0.52637221106E+02  0.27048607140E+04  0.28692512943E+04  0.78691741393E+02 0.  0.
        254    2    1    2    0    0  0.95255889084E+03  0.52637221106E+02  0.42695641190E+03  0.13626806744E+04  0.87433845007E+03 0.  0.
         23    2    4    4    0    0  0.91080895778E+03  0.15791026979E+03  0.62153608909E+03  0.11176695336E+04  0.91484782102E+02 0.  0.
         23    2    4    4    0    0  0.41749933060E+02 -0.10527304868E+03 -0.19457967720E+03  0.24501114087E+03  0.96663005762E+02 0.  0.
          2    1    3    3  502    0 -0.94352722461E+03 -0.59955229990E+02  0.26650518553E+04  0.28277799852E+04  0.00000000000E+00 0. -1.
         -1    1    3    3    0  502 -0.90316662317E+01  0.73180088845E+01  0.39808858740E+02  0.41471309156E+02  0.00000000000E+00 0.  1.
         13    1    5    5    0    0  0.55422237317E+03  0.57492872819E+02  0.40165901868E+03  0.68687541566E+03  0.00000000000E+00 0. -1.
        -13    1    5    5    0    0  0.35658658461E+03  0.10041739697E+03  0.21987707042E+03  0.43079411792E+03  0.00000000000E+00 0.  1.
          2    1    6    6  503    0  0.48005991126E+02 -0.20881843781E+02 -0.31004887349E+02  0.60843484640E+02  0.00000000000E+00 0.  1.
         -2    1    6    6    0  503 -0.62560580658E+01 -0.84391204902E+02 -0.16357478985E+03  0.18416765623E+03  0.00000000000E+00 0. -1.
<mgrwt>
<rscale>  0 0.28462202E+04</rscale>
<asrwt>0</asrwt>
<pdfrwt beam="1">  1        2 0.56644222E+00 0.28462202E+04</pdfrwt>
<pdfrwt beam="2">  1       -1 0.84624221E-01 0.28462202E+04</pdfrwt>
<totfact> 0.81958231E-01</totfact>
</mgrwt>
</event>
<event>
12    7  0.1741211E-007  0.4011781E+04  0.7818608E-02  0.8002174E-01
          2   -1    0    0  501    0  0.00000000000E+00  0.00000000000E+00  0.21321605895E+04  0.21321605895E+04  0.00000000000E+00 0. -1.
         -1   -1    0    0    0  501 -0.00000000000E+00 -0.00000000000E+00 -0.18870984644E+04  0.18870984644E+04  0.00000000000E+00 0.  1.
         24    2    1    2    0    0 -0.10107169379E+04 -0.13902213985E+04 -0.69920157439E+03  0.18575264539E+04  0.85190493035E+02 0.  0.
        254    2    1    2    0    0  0.10107169379E+04  0.13902213985E+04  0.94426369946E+03  0.21617326000E+04  0.90949966156E+03 0.  0.
         23    2    4    4    0    0  0.25992877860E+03  0.12276986948E+03 -0.13762932287E+03  0.33161336556E+03  0.91597941639E+02 0.  0.
         23    2    4    4    0    0  0.75078815930E+03  0.12674515290E+04  0.10818930223E+04  0.18301192344E+04  0.93421956349E+02 0.  0.
          4    1    3    3  502    0 -0.16504748825E+03 -0.27877445808E+03 -0.11718692989E+03  0.34451218904E+03  0.00000000000E+00 0. -1.
         -3    1    3    3    0  502 -0.84566944964E+03 -0.11114469404E+04 -0.58201464450E+03  0.15130142649E+04  0.00000000000E+00 0.  1.
         13    1    5    5    0    0  0.31426349911E+02  0.37384741915E+02 -0.56179009061E+02  0.74440012465E+02  0.00000000000E+00 0. -1.
        -13    1    5    5    0    0  0.22850242869E+03  0.85385127567E+02 -0.81450313807E+02  0.25717335310E+03  0.00000000000E+00 0.  1.
          3    1    6    6  503    0  0.41862631021E+03  0.62325239226E+03  0.57438860485E+03  0.94531148382E+03  0.00000000000E+00 0. -1.
         -3    1    6    6    0  503  0.33216184909E+03  0.64419913673E+03  0.50750441748E+03  0.88480775060E+03  0.00000000000E+00 0.  1.
<mgrwt>
<rscale>  0 0.40117811E+04</rscale>
<asrwt>0</asrwt>
<pdfrwt beam="1">  1        2 0.32802471E+00 0.40117811E+04</pdfrwt>
<pdfrwt beam="2">  1       -1 0.29032284E+00 0.40117811E+04</pdfrwt>
<totfact> 0.19282793E-01</totfact>
</mgrwt>
</event>
<event>
12    7  0.1741211E-007  0.2127296E+04  0.7818608E-02  0.8549314E-01
          2   -1    0    0  501    0  0.00000000000E+00  0.00000000000E+00  0.15103675900E+04  0.15103675900E+04  0.00000000000E+00 0. -1.
         -1   -1    0    0    0  501 -0.00000000000E+00 -0.00000000000E+00 -0.74905442482E+03  0.74905442482E+03  0.00000000000E+00 0.  1.
         24    2    1    2    0    0 -0.69281236288E+03 -0.20774185425E+03 -0.20561645052E+03  0.75622247297E+03  0.80303522605E+02 0.  0.
        254    2    1    2    0    0  0.69281236288E+03  0.20774185425E+03  0.96692961569E+03  0.15031995418E+04  0.89527109451E+03 0.  0.
         23    2    4    4    0    0  0.96416173957E+02 -0.31173305487E+03  0.40480259993E+03  0.52861782109E+03  0.95383854831E+02 0.  0.
         23    2    4    4    0    0  0.59639618892E+03  0.51947490912E+03  0.56212701576E+03  0.97458172073E+03  0.90995346967E+02 0.  0.
          2    1    3    3  502    0 -0.95502576333E+02 -0.40575613681E+02 -0.33629955932E+01  0.10381922872E+03  0.00000000000E+00 0. -1.
         -1    1    3    3    0  502 -0.59730978654E+03 -0.16716624057E+03 -0.20225345493E+03  0.65240324426E+03  0.00000000000E+00 0.  1.
         13    1    5    5    0    0 -0.31860880521E+01 -0.12421893329E+03  0.11461779419E+03  0.16904949953E+03  0.00000000000E+00 0. -1.
        -13    1    5    5    0    0  0.99602262009E+02 -0.18751412158E+03  0.29018480574E+03  0.35956832156E+03  0.00000000000E+00 0.  1.
          4    1    6    6  503    0  0.17634793277E+03  0.11699317419E+03  0.18670051169E+03  0.28221105093E+03  0.00000000000E+00 0. -1.
         -4    1    6    6    0  503  0.42004825615E+03  0.40248173493E+03  0.37542650406E+03  0.69237066980E+03  0.00000000000E+00 0.  1.
<mgrwt>
<rscale>  0 0.21272964E+04</rscale>
<asrwt>0</asrwt>
<pdfrwt beam="1">  1        2 0.23236424E+00 0.21272964E+04</pdfrwt>
<pdfrwt beam="2">  1       -1 0.11523914E+00 0.21272964E+04</pdfrwt>
<totfact> 0.89604587E+00</totfact>
</mgrwt>
</event>
<event>
12    7  0.1741211E-007  0.1816065E+04  0.7818608E-02  0.8697803E-01
         -1   -1    0    0    0  501 -0.00000000000E+00  0.00000000000E+00  0.11199844929E+04  0.11199844929E+04  0.00000000000E+00 0.  1.
          2   -1    0    0  501    0  0.00000000000E+00 -0.00000000000E+00 -0.73619126485E+03  0.73619126485E+03  0.00000000000E+00 0. -1.
         24    2    1    2    0    0 -0.49669233425E+03 -0.46034479466E+03  0.23744200709E+03  0.72211627899E+03  0.80328131892E+02 0.  0.
        254    2    1    2    0    0  0.49669233425E+03  0.46034479466E+03  0.14635122096E+03  0.11340594788E+04  0.89780377401E+03 0.  0.
         23    2    4    4    0    0  0.37759459309E+03 -0.20540867750E+03  0.17388651067E+02  0.44016366705E+03  0.93119745929E+02 0.  0.
         23    2    4    4    0    0  0.11909774116E+03  0.66575347216E+03  0.12896256989E+03  0.69389581171E+03  0.86302348965E+02 0.  0.
          2    1    3    3  502    0 -0.38447619795E+03 -0.34609869162E+03  0.14514657009E+03  0.53728370340E+03  0.00000000000E+00 0. -1.
         -1    1    3    3    0  502 -0.11221613629E+03 -0.11424610304E+03  0.92295437008E+02  0.18483257558E+03  0.00000000000E+00 0.  1.
         13    1    5    5    0    0  0.20978786904E+03 -0.16566175444E+03  0.14121056217E+02  0.26768296753E+03  0.00000000000E+00 0.  1.
        -13    1    5    5    0    0  0.16780672405E+03 -0.39746923065E+02  0.32675948498E+01  0.17248069952E+03  0.00000000000E+00 0. -1.
          4    1    6    6  503    0  0.38766353403E+02  0.44221381454E+03  0.73226541370E+02  0.44990889554E+03  0.00000000000E+00 0. -1.
         -4    1    6    6    0  503  0.80331387755E+02  0.22353965763E+03  0.55736028522E+02  0.24398691618E+03  0.00000000000E+00 0.  1.
<mgrwt>
<rscale>  0 0.18160648E+04</rscale>
<asrwt>0</asrwt>
<pdfrwt beam="1">  1        2 0.11326019E+00 0.18160648E+04</pdfrwt>
<pdfrwt beam="2">  1       -1 0.17230531E+00 0.18160648E+04</pdfrwt>
<totfact> 0.97857261E+00</totfact>
</mgrwt>
</event>
<event>
12    7  0.1741211E-007  0.1936417E+04  0.7818608E-02  0.8636939E-01
          2   -1    0    0  501    0  0.00000000000E+00  0.00000000000E+00  0.17062206163E+04  0.17062206163E+04  0.00000000000E+00 0. -1.
         -1   -1    0    0    0  501 -0.00000000000E+00 -0.00000000000E+00 -0.54941751227E+03  0.54941751227E+03  0.00000000000E+00 0.  1.
         24    2    1    2    0    0  0.36045065326E+03  0.73798232574E+02  0.12458695527E+04  0.13018774078E+04  0.85574469480E+02 0.  0.
        254    2    1    2    0    0 -0.36045065326E+03 -0.73798232574E+02 -0.89066448689E+02  0.95376072084E+03  0.87541751625E+03 0.  0.
         23    2    4    4    0    0 -0.18118398209E+03  0.39107177562E+03 -0.57301498863E+01  0.44068661761E+03  0.91690191791E+02 0.  0.
         23    2    4    4    0    0 -0.17926667117E+03 -0.46487000820E+03 -0.83336298803E+02  0.51307410323E+03  0.89774343729E+02 0.  0.
          4    1    3    3  502    0  0.30721144994E+03  0.47479181433E+02  0.93307867766E+03  0.98349833063E+03  0.00000000000E+00 0. -1.
         -3    1    3    3    0  502  0.53239203322E+02  0.26319051141E+02  0.31279087507E+03  0.31837907713E+03  0.00000000000E+00 0.  1.
         13    1    5    5    0    0 -0.12655992204E+03  0.34260113088E+03 -0.21911578451E+02  0.36588668467E+03  0.00000000000E+00 0.  1.
        -13    1    5    5    0    0 -0.54624060049E+02  0.48470644739E+02  0.16181428564E+02  0.74799932941E+02  0.00000000000E+00 0. -1.
          3    1    6    6  503    0 -0.82465414512E+02 -0.11997473981E+03 -0.47152895585E+02  0.15302901145E+03  0.00000000000E+00 0. -1.
         -3    1    6    6    0  503 -0.96801256657E+02 -0.34489526838E+03 -0.36183403218E+02  0.36004509177E+03  0.00000000000E+00 0.  1.
<mgrwt>
<rscale>  0 0.19364168E+04</rscale>
<asrwt>0</asrwt>
<pdfrwt beam="1">  1        2 0.26249548E+00 0.19364168E+04</pdfrwt>
<pdfrwt beam="2">  1       -1 0.84525772E-01 0.19364168E+04</pdfrwt>
<totfact> 0.14339931E+01</totfact>
</mgrwt>
</event>
<event>
12    7  0.1741211E-007  0.3339364E+04  0.7818608E-02  0.8152951E-01
          2   -1    0    0  501    0  0.00000000000E+00  0.00000000000E+00  0.21616728185E+04  0.21616728185E+04  0.00000000000E+00 0. -1.
         -1   -1    0    0    0  501 -0.00000000000E+00 -0.00000000000E+00 -0.12896671752E+04  0.12896671752E+04  0.00000000000E+00 0.  1.
         24    2    1    2    0    0  0.95415670804E+03  0.69724053277E+03 -0.62950000941E+03  0.13413655817E+04  0.80199612810E+02 0.  0.
        254    2    1    2    0    0 -0.95415670804E+03 -0.69724053277E+03  0.15015056527E+04  0.21099744120E+04  0.89493765716E+03 0.  0.
         23    2    4    4    0    0  0.37432239643E+02 -0.30648650884E+03  0.81634124943E+02  0.33230975051E+03  0.91817684922E+02 0.  0.
         23    2    4    4    0    0 -0.99158894768E+03 -0.39075402393E+03  0.14198715277E+04  0.17776646615E+04  0.90106298511E+02 0.  0.
          2    1    3    3  502    0  0.11997012593E+03  0.64742266910E+02 -0.93089144865E+02  0.16507568304E+03  0.00000000000E+00 0. -1.
         -1    1    3    3    0  502  0.83418658211E+03  0.63249826586E+03 -0.53641086454E+03  0.11762898987E+04  0.00000000000E+00 0.  1.
         13    1    5    5    0    0  0.47880417179E+02 -0.26548868855E+03  0.97894367489E+02  0.28698446871E+03  0.00000000000E+00 0. -1.
        -13    1    5    5    0    0 -0.10448177536E+02 -0.40997820288E+02 -0.16260242546E+02  0.45325281796E+02  0.00000000000E+00 0.  1.
          1    1    6    6  503    0 -0.77146596487E+03 -0.33775802820E+03  0.10863659092E+04  0.13745657894E+04  0.00000000000E+00 0. -1.
         -1    1    6    6    0  503 -0.22012298281E+03 -0.52995995723E+02  0.33350561848E+03  0.40309887209E+03  0.00000000000E+00 0.  1.
<mgrwt>
<rscale>  0 0.33393643E+04</rscale>
<asrwt>0</asrwt>
<pdfrwt beam="1">  1        2 0.33256505E+00 0.33393643E+04</pdfrwt>
<pdfrwt beam="2">  1       -1 0.19841033E+00 0.33393643E+04</pdfrwt>
<totfact> 0.79296633E-01</totfact>
</mgrwt>
</event>
<event>
12    7  0.1741211E-007  0.1816172E+04  0.7818608E-02  0.8697747E-01
          2   -1    0    0  501    0  0.00000000000E+00  0.00000000000E+00  0.13165643005E+04  0.13165643005E+04  0.00000000000E+00 0. -1.
         -1   -1    0    0    0  501 -0.00000000000E+00 -0.00000000000E+00 -0.62634227710E+03  0.62634227710E+03  0.00000000000E+00 0.  1.
         24    2    1    2    0    0  0.61867680197E+03  0.20431462340E+03  0.47620164279E+03  0.81092206536E+03  0.79505602679E+02 0.  0.
        254    2    1    2    0    0 -0.61867680197E+03 -0.20431462340E+03  0.21402038060E+03  0.11319845122E+04  0.90059911279E+03 0.  0.
         23    2    4    4    0    0 -0.75399150032E+03 -0.31373984448E+03  0.34671517261E+03  0.89195788530E+03  0.91878102177E+02 0.  0.
         23    2    4    4    0    0  0.13531469835E+03  0.10942522108E+03 -0.13269479202E+03  0.24002662691E+03  0.98594762539E+02 0.  0.
          2    1    3    3  502    0  0.48000743682E+03  0.18136737458E+03  0.40288768349E+03  0.65239539351E+03  0.00000000000E+00 0. -1.
         -1    1    3    3    0  502  0.13866936515E+03  0.22947248828E+02  0.73313959302E+02  0.15852667185E+03  0.00000000000E+00 0.  1.
         13    1    5    5    0    0 -0.18454365693E+02 -0.95222809665E+00 -0.43369757230E+01  0.18981035532E+02  0.00000000000E+00 0. -1.
        -13    1    5    5    0    0 -0.73553713463E+03 -0.31278761639E+03  0.35105214834E+03  0.87297684977E+03  0.00000000000E+00 0.  1.
          4    1    6    6  503    0  0.22367223856E+02  0.43830584337E+02  0.59282604921E+01  0.49563667124E+02  0.00000000000E+00 0. -1.
         -4    1    6    6    0  503  0.11294747450E+03  0.65594636744E+02 -0.13862305251E+03  0.19046295979E+03  0.00000000000E+00 0.  1.
<mgrwt>
<rscale>  0 0.18161717E+04</rscale>
<asrwt>0</asrwt>
<pdfrwt beam="1">  1        2 0.20254835E+00 0.18161717E+04</pdfrwt>
<pdfrwt beam="2">  1       -1 0.96360350E-01 0.18161717E+04</pdfrwt>
<totfact> 0.18020688E+01</totfact>
</mgrwt>
</event>
<event>
12    7  0.1741211E-007  0.2236267E+04  0.7818608E-02  0.8503483E-01
          2   -1    0    0  501    0  0.00000000000E+00  0.00000000000E+00  0.71754466202E+03  0.71754466202E+03  0.00000000000E+00 0. -1.
         -1   -1    0    0    0  501 -0.00000000000E+00 -0.00000000000E+00 -0.17423618095E+04  0.17423618095E+04  0.00000000000E+00 0.  1.
         24    2    1    2    0    0 -0.21208567342E+03  0.84370813048E+03 -0.44034434307E+02  0.87467660296E+03  0.79349770341E+02 0.  0.
        254    2    1    2    0    0  0.21208567342E+03 -0.84370813048E+03 -0.98078271320E+03  0.15852298686E+04  0.89117633690E+03 0.  0.
         23    2    4    4    0    0 -0.29656834689E+03 -0.48878773580E+03 -0.27418327640E+03  0.64063319603E+03  0.91477799180E+02 0.  0.
         23    2    4    4    0    0  0.50865402031E+03 -0.35492039467E+03 -0.70659943680E+03  0.94459667256E+03  0.91009399466E+02 0.  0.
          4    1    3    3  502    0 -0.11302601540E+03  0.52868446316E+03  0.60733141578E+01  0.54066535574E+03  0.00000000000E+00 0. -1.
         -3    1    3    3    0  502 -0.99059658015E+02  0.31502366731E+03 -0.50107748465E+02  0.33401124722E+03  0.00000000000E+00 0.  1.
         13    1    5    5    0    0 -0.26015551481E+03 -0.47183207713E+03 -0.25670571208E+03  0.59682847076E+03  0.00000000000E+00 0.  1.
        -13    1    5    5    0    0 -0.36412832083E+02 -0.16955658680E+02 -0.17477564324E+02  0.43804725273E+02  0.00000000000E+00 0. -1.
          1    1    6    6  503    0  0.71069545666E+02 -0.59898689707E+02 -0.15835869087E+03  0.18361973838E+03  0.00000000000E+00 0. -1.
         -1    1    6    6    0  503  0.43758447464E+03 -0.29502170497E+03 -0.54824074593E+03  0.76097693418E+03  0.00000000000E+00 0.  1.
<mgrwt>
<rscale>  0 0.22362669E+04</rscale>
<asrwt>0</asrwt>
<pdfrwt beam="1">  1        2 0.11039149E+00 0.22362669E+04</pdfrwt>
<pdfrwt beam="2">  1       -1 0.26805566E+00 0.22362669E+04</pdfrwt>
<totfact> 0.21962596E+00</totfact>
</mgrwt>
</event>
<event>
12    7  0.1741211E-007  0.2020682E+04  0.7818608E-02  0.8597012E-01
          2   -1    0    0  501    0  0.00000000000E+00  0.00000000000E+00  0.18645003146E+04  0.18645003146E+04  0.00000000000E+00 0. -1.
         -1   -1    0    0    0  501 -0.00000000000E+00 -0.00000000000E+00 -0.54748676110E+03  0.54748676110E+03  0.00000000000E+00 0.  1.
         24    2    1    2    0    0  0.64410887334E+03  0.33402995201E+03  0.94417262854E+03  0.11935025251E+04  0.80833627692E+02 0.  0.
        254    2    1    2    0    0 -0.64410887334E+03 -0.33402995201E+03  0.37284092498E+03  0.12184845506E+04  0.90511987893E+03 0.  0.
         23    2    4    4    0    0  0.27800000932E+02 -0.19701520451E+03 -0.21677860985E+03  0.30945569294E+03  0.95822906190E+02 0.  0.
         23    2    4    4    0    0 -0.67190887427E+03 -0.13701474751E+03  0.58961953482E+03  0.90902885769E+03  0.91911326333E+02 0.  0.
          4    1    3    3  502    0  0.62522344842E+03  0.31994489313E+03  0.88505565352E+03  0.11298639763E+04  0.00000000000E+00 0. -1.
         -3    1    3    3    0  502  0.18885424919E+02  0.14085058888E+02  0.59116975024E+02  0.63638548806E+02  0.00000000000E+00 0.  1.
         13    1    5    5    0    0  0.13443937709E+02  0.66741432112E+01 -0.65287363823E+01  0.16367896856E+02  0.00000000000E+00 0.  1.
        -13    1    5    5    0    0  0.14356063222E+02 -0.20368934772E+03 -0.21024987346E+03  0.29308779609E+03  0.00000000000E+00 0. -1.
          4    1    6    6  503    0 -0.53170939613E+03 -0.70555264161E+02  0.46913665064E+03  0.71258832730E+03  0.00000000000E+00 0. -1.
         -4    1    6    6    0  503 -0.14019947814E+03 -0.66459483347E+02  0.12048288419E+03  0.19644053039E+03  0.00000000000E+00 0.  1.
<mgrwt>
<rscale>  0 0.20206823E+04</rscale>
<asrwt>0</asrwt>
<pdfrwt beam="1">  1        2 0.28684620E+00 0.20206823E+04</pdfrwt>
<pdfrwt beam="2">  1       -1 0.84228733E-01 0.20206823E+04</pdfrwt>
<totfact> 0.11718090E+01</totfact>
</mgrwt>
</event>
<event>
12    7  0.1741211E-007  0.1822614E+04  0.7818608E-02  0.8694365E-01
          2   -1    0    0  501    0  0.00000000000E+00  0.00000000000E+00  0.83447330994E+03  0.83447330994E+03  0.00000000000E+00 0. -1.
         -1   -1    0    0    0  501 -0.00000000000E+00 -0.00000000000E+00 -0.99521487376E+03  0.99521487376E+03  0.00000000000E+00 0.  1.
         24    2    1    2    0    0 -0.28365535479E+03 -0.60026098259E+03  0.11396043232E+03  0.67844723202E+03  0.80808780422E+02 0.  0.
        254    2    1    2    0    0  0.28365535479E+03  0.60026098259E+03 -0.27470199614E+03  0.11512409517E+04  0.89951149777E+03 0.  0.
         23    2    4    4    0    0  0.11324977221E+03 -0.20734142802E+03  0.55521273212E+02  0.25766435637E+03  0.86558246768E+02 0.  0.
         23    2    4    4    0    0  0.17040558258E+03  0.80760241061E+03 -0.33022326935E+03  0.89357659531E+03  0.90399158597E+02 0.  0.
          4    1    3    3  502    0 -0.16656112789E+03 -0.35662993182E+03  0.10765190945E+03  0.40806427337E+03  0.00000000000E+00 0. -1.
         -3    1    3    3    0  502 -0.11709422690E+03 -0.24363105076E+03  0.63085228735E+01  0.27038295865E+03  0.00000000000E+00 0.  1.
         13    1    5    5    0    0  0.94353618150E+02 -0.20175201297E+03  0.28972471596E+02  0.22460161198E+03  0.00000000000E+00 0. -1.
        -13    1    5    5    0    0  0.18896154062E+02 -0.55894150511E+01  0.26548801616E+02  0.33062744384E+02  0.00000000000E+00 0.  1.
          2    1    6    6  503    0  0.46202174609E+02  0.36091018220E+03 -0.18190430384E+03  0.40679230119E+03  0.00000000000E+00 0. -1.
         -2    1    6    6    0  503  0.12420340797E+03  0.44669222840E+03 -0.14831896551E+03  0.48678429412E+03  0.00000000000E+00 0.  1.
<mgrwt>
<rscale>  0 0.18226138E+04</rscale>
<asrwt>0</asrwt>
<pdfrwt beam="1">  1        2 0.12838051E+00 0.18226138E+04</pdfrwt>
<pdfrwt beam="2">  1       -1 0.15310998E+00 0.18226138E+04</pdfrwt>
<totfact> 0.11552766E+01</totfact>
</mgrwt>
</event>
<event>
12    7  0.1741211E-007  0.2962290E+04  0.7818608E-02  0.8254582E-01
         -1   -1    0    0    0  501 -0.00000000000E+00  0.00000000000E+00  0.12024766330E+04  0.12024766330E+04  0.00000000000E+00 0.  1.
          2   -1    0    0  501    0  0.00000000000E+00 -0.00000000000E+00 -0.18243930212E+04  0.18243930212E+04  0.00000000000E+00 0. -1.
         24    2    1    2    0    0  0.98168930212E+03  0.30149806902E+03 -0.11670465481E+04  0.15565111033E+04  0.78193334267E+02 0.  0.
        254    2    1    2    0    0 -0.98168930212E+03 -0.30149806902E+03  0.54513015998E+03  0.14703585510E+04  0.90009577577E+03 0.  0.
         23    2    4    4    0    0 -0.47426224837E+03 -0.57049222024E+03  0.13957394820E+03  0.76037312119E+03  0.91106217330E+02 0.  0.
         23    2    4    4    0    0 -0.50742705376E+03  0.26899415122E+03  0.40555621178E+03  0.70998542978E+03  0.98809925134E+02 0.  0.
          4    1    3    3  502    0  0.53718046416E+03  0.16699521093E+03 -0.69770479088E+03  0.89623781819E+03  0.00000000000E+00 0. -1.
         -3    1    3    3    0  502  0.44450883797E+03  0.13450285810E+03 -0.46934175726E+03  0.66027328507E+03  0.00000000000E+00 0.  1.
         13    1    5    5    0    0 -0.14312627618E+03 -0.11366965298E+03  0.22651867881E+02  0.18417119227E+03  0.00000000000E+00 0.  1.
        -13    1    5    5    0    0 -0.33113597218E+03 -0.45682256726E+03  0.11692208032E+03  0.57620192892E+03  0.00000000000E+00 0. -1.
          2    1    6    6  503    0 -0.30430363459E+03  0.14293996910E+03  0.18019345991E+03  0.38144753215E+03  0.00000000000E+00 0. -1.
         -2    1    6    6    0  503 -0.20312341916E+03  0.12605418212E+03  0.22536275187E+03  0.32853789762E+03  0.00000000000E+00 0.  1.
<mgrwt>
<rscale>  0 0.29622896E+04</rscale>
<asrwt>0</asrwt>
<pdfrwt beam="1">  1        2 0.28067585E+00 0.29622896E+04</pdfrwt>
<pdfrwt beam="2">  1       -1 0.18499641E+00 0.29622896E+04</pdfrwt>
<totfact> 0.15665779E+00</totfact>
</mgrwt>
</event>
<event>
12    7  0.1741211E-007  0.1553255E+04  0.7818608E-02  0.8849792E-01
          2   -1    0    0  501    0  0.00000000000E+00  0.00000000000E+00  0.18248882881E+04  0.18248882881E+04  0.00000000000E+00 0. -1.
         -1   -1    0    0    0  501 -0.00000000000E+00 -0.00000000000E+00 -0.33051339473E+03  0.33051339473E+03  0.00000000000E+00 0.  1.
         24    2    1    2    0    0 -0.21682901443E+03  0.16476057194E+03 -0.43065116715E+02  0.28675978156E+03  0.78839713836E+02 0.  0.
        254    2    1    2    0    0  0.21682901443E+03 -0.16476057194E+03  0.15374400101E+04  0.18686419013E+04  0.10266157524E+04 0.  0.
         23    2    4    4    0    0  0.22628462431E+03  0.12742097829E+03  0.15413132310E+04  0.15656082611E+04  0.89676720003E+02 0.  0.
         23    2    4    4    0    0 -0.94556098735E+01 -0.29218155022E+03 -0.38732209089E+01  0.30303364022E+03  0.79717742162E+02 0.  0.
          4    1    3    3  502    0 -0.39849393987E+02  0.60675243544E+02 -0.36704876650E+02  0.81343145686E+02  0.00000000000E+00 0. -1.
         -3    1    3    3    0  502 -0.17697962045E+03  0.10408532839E+03 -0.63602400643E+01  0.20541663587E+03  0.00000000000E+00 0.  1.
         13    1    5    5    0    0  0.23069345724E+03  0.11595738044E+03  0.13885055108E+04  0.14123077352E+04  0.00000000000E+00 0. -1.
        -13    1    5    5    0    0 -0.44088329313E+01  0.11463597843E+02  0.15280772024E+03  0.15330052592E+03  0.00000000000E+00 0.  1.
          3    1    6    6  503    0 -0.11862464122E+02 -0.29705000438E+03 -0.55853769002E+01  0.29733923319E+03  0.00000000000E+00 0. -1.
         -3    1    6    6    0  503  0.24068542489E+01  0.48684541595E+01  0.17121559913E+01  0.56944070294E+01  0.00000000000E+00 0.  1.
<mgrwt>
<rscale>  0 0.15532547E+04</rscale>
<asrwt>0</asrwt>
<pdfrwt beam="1">  1        2 0.28075204E+00 0.15532547E+04</pdfrwt>
<pdfrwt beam="2">  1       -1 0.50848216E-01 0.15532547E+04</pdfrwt>
<totfact> 0.35617377E+01</totfact>
</mgrwt>
</event>
<event>
12    7  0.1741211E-007  0.2264719E+04  0.7818608E-02  0.8491963E-01
          2   -1    0    0  501    0  0.00000000000E+00  0.00000000000E+00  0.28470813062E+04  0.28470813062E+04  0.00000000000E+00 0. -1.
         -1   -1    0    0    0  501 -0.00000000000E+00 -0.00000000000E+00 -0.45036912972E+03  0.45036912972E+03  0.00000000000E+00 0.  1.
         24    2    1    2    0    0 -0.74191630265E+03 -0.40199926444E+03  0.37120604947E+03  0.92539643520E+03  0.80755324184E+02 0.  0.
        254    2    1    2    0    0  0.74191630265E+03  0.40199926444E+03  0.20255061270E+04  0.23720540007E+04  0.90106709131E+03 0.  0.
         23    2    4    4    0    0  0.29521637557E+03  0.53472965361E+03  0.16660805493E+04  0.17769302717E+04  0.92565020039E+02 0.  0.
         23    2    4    4    0    0  0.44669992708E+03 -0.13273038917E+03  0.35942557772E+03  0.59512372902E+03  0.88472175606E+02 0.  0.
          2    1    3    3  502    0 -0.29647594357E+03 -0.18854623494E+03  0.12025770021E+03  0.37136179433E+03  0.00000000000E+00 0. -1.
         -1    1    3    3    0  502 -0.44544035907E+03 -0.21345302950E+03  0.25094834926E+03  0.55403464087E+03  0.00000000000E+00 0.  1.
         13    1    5    5    0    0  0.22376013997E+03  0.46073780371E+03  0.13201757341E+04  0.14160550459E+04  0.00000000000E+00 0. -1.
        -13    1    5    5    0    0  0.71456235598E+02  0.73991849902E+02  0.34590481517E+03  0.36087522583E+03  0.00000000000E+00 0.  1.
          1    1    6    6  503    0  0.38217010007E+03 -0.99975767358E+02  0.33732137389E+03  0.51945630108E+03  0.00000000000E+00 0. -1.
         -1    1    6    6    0  503  0.64529827008E+02 -0.32754621810E+02  0.22104203831E+02  0.75667427937E+02  0.00000000000E+00 0.  1.
<mgrwt>
<rscale>  0 0.22647186E+04</rscale>
<asrwt>0</asrwt>
<pdfrwt beam="1">  1        2 0.43801250E+00 0.22647186E+04</pdfrwt>
<pdfrwt beam="2">  1       -1 0.69287560E-01 0.22647186E+04</pdfrwt>
<totfact> 0.47215154E+00</totfact>
</mgrwt>
</event>
<event>
12    7  0.1741211E-007  0.3821357E+04  0.7818608E-02  0.8041587E-01
          2   -1    0    0  501    0  0.00000000000E+00  0.00000000000E+00  0.31654970162E+04  0.31654970162E+04  0.00000000000E+00 0. -1.
         -1   -1    0    0    0  501 -0.00000000000E+00 -0.00000000000E+00 -0.11532763186E+04  0.11532763186E+04  0.00000000000E+00 0.  1.
         24    2    1    2    0    0 -0.54358080609E+03  0.17023437003E+03 -0.98339046029E+03  0.11393618633E+04  0.81417594023E+02 0.  0.
        254    2    1    2    0    0  0.54358080609E+03 -0.17023437003E+03  0.29956111579E+04  0.31794114716E+04  0.90028399009E+03 0.  0.
         23    2    4    4    0    0 -0.35126305868E+02 -0.11045027739E+03  0.21166043662E+04  0.21216338527E+04  0.88786489659E+02 0.  0.
         23    2    4    4    0    0  0.57870711196E+03 -0.59784092640E+02  0.87900679166E+03  0.10577776188E+04  0.88116354819E+02 0.  0.
          2    1    3    3  502    0 -0.26080709886E+03  0.88197118996E+02 -0.39590375479E+03  0.48222282989E+03  0.00000000000E+00 0. -1.
         -1    1    3    3    0  502 -0.28277370723E+03  0.82037251030E+02 -0.58748670550E+03  0.65713903339E+03  0.00000000000E+00 0.  1.
         13    1    5    5    0    0 -0.48410085171E+02 -0.60984044188E+02  0.74169118220E+03  0.74576698756E+03  0.00000000000E+00 0.  1.
        -13    1    5    5    0    0  0.13283779303E+02 -0.49466233198E+02  0.13749131840E+04  0.13758668652E+04  0.00000000000E+00 0. -1.
          4    1    6    6  503    0  0.52707455032E+03 -0.79720921005E+02  0.79508688962E+03  0.95724927208E+03  0.00000000000E+00 0. -1.
         -4    1    6    6    0  503  0.51632561638E+02  0.19936828365E+02  0.83919902037E+02  0.10052834677E+03  0.00000000000E+00 0.  1.
<mgrwt>
<rscale>  0 0.38213572E+04</rscale>
<asrwt>0</asrwt>
<pdfrwt beam="1">  1        2 0.48699954E+00 0.38213572E+04</pdfrwt>
<pdfrwt beam="2">  1       -1 0.17742713E+00 0.38213572E+04</pdfrwt>
<totfact> 0.26926827E-01</totfact>
</mgrwt>
</event>
<event>
12    7  0.1741211E-007  0.1644617E+04  0.7818608E-02  0.8793597E-01
          2   -1    0    0  501    0  0.00000000000E+00  0.00000000000E+00  0.18923967036E+04  0.18923967036E+04  0.00000000000E+00 0. -1.
         -1   -1    0    0    0  501 -0.00000000000E+00 -0.00000000000E+00 -0.35732020015E+03  0.35732020015E+03  0.00000000000E+00 0.  1.
         24    2    1    2    0    0  0.52053785686E+03  0.19635370347E+03  0.34411031959E+03  0.65888740857E+03  0.78779869495E+02 0.  0.
        254    2    1    2    0    0 -0.52053785686E+03 -0.19635370347E+03  0.11909661838E+04  0.15908294952E+04  0.89600423791E+03 0.  0.
         23    2    4    4    0    0 -0.40160362873E+03 -0.39772884446E+03  0.26450037616E+03  0.63074512926E+03  0.91680209286E+02 0.  0.
         23    2    4    4    0    0 -0.11893422813E+03  0.20137514099E+03  0.92646580769E+03  0.96008436592E+03  0.93411984433E+02 0.  0.
          2    1    3    3  502    0  0.69381546857E+02  0.20685011254E+02  0.78006057065E+02  0.10642656470E+03  0.00000000000E+00 0. -1.
         -1    1    3    3    0  502  0.45115631000E+03  0.17566869221E+03  0.26610426252E+03  0.55246084387E+03  0.00000000000E+00 0.  1.
         13    1    5    5    0    0 -0.24190990280E+03 -0.22668789955E+03  0.20321790285E+03  0.38885128380E+03  0.00000000000E+00 0. -1.
        -13    1    5    5    0    0 -0.15969372593E+03 -0.17104094490E+03  0.61282473310E+02  0.24189384546E+03  0.00000000000E+00 0.  1.
          1    1    6    6  503    0  0.80110854446E+01  0.63350077637E+02  0.21093729552E+03  0.22039045458E+03  0.00000000000E+00 0. -1.
         -1    1    6    6    0  503 -0.12694531358E+03  0.13802506335E+03  0.71552851216E+03  0.73969391134E+03  0.00000000000E+00 0.  1.
<mgrwt>
<rscale>  0 0.16446174E+04</rscale>
<asrwt>0</asrwt>
<pdfrwt beam="1">  1        2 0.29113795E+00 0.16446174E+04</pdfrwt>
<pdfrwt beam="2">  1       -1 0.54972340E-01 0.16446174E+04</pdfrwt>
<totfact> 0.27914842E+01</totfact>
</mgrwt>
</event>
<event>
12    7  0.1741211E-007  0.2476719E+04  0.7818608E-02  0.8411327E-01
          2   -1    0    0  501    0  0.00000000000E+00  0.00000000000E+00  0.28915845966E+04  0.28915845966E+04  0.00000000000E+00 0. -1.
         -1   -1    0    0    0  501 -0.00000000000E+00 -0.00000000000E+00 -0.53034381220E+03  0.53034381220E+03  0.00000000000E+00 0.  1.
         24    2    1    2    0    0  0.68402204348E+03  0.81057351397E+03  0.12615165558E+04  0.16492195575E+04  0.59879466421E+02 0.  0.
        254    2    1    2    0    0 -0.68402204348E+03 -0.81057351397E+03  0.10997242286E+04  0.17727088514E+04  0.89899261137E+03 0.  0.
         23    2    4    4    0    0 -0.17621850122E+03 -0.27281209676E+03  0.95541154215E+03  0.10133169834E+04  0.92307602980E+02 0.  0.
         23    2    4    4    0    0 -0.50780354226E+03 -0.53776141721E+03  0.14431268641E+03  0.75939186801E+03  0.93798072299E+02 0.  0.
          4    1    3    3  502    0  0.55101597901E+03  0.67870354669E+03  0.10140054498E+04  0.13388294013E+04  0.00000000000E+00 0. -1.
         -1    1    3    3    0  502  0.13300606446E+03  0.13186996728E+03  0.24751110601E+03  0.31039015618E+03  0.00000000000E+00 0.  1.
         13    1    5    5    0    0 -0.12251426920E+02 -0.41484853068E+02  0.59189495817E+02  0.73310892169E+02  0.00000000000E+00 0. -1.
        -13    1    5    5    0    0 -0.16396707430E+03 -0.23132724369E+03  0.89622204634E+03  0.94000609119E+03  0.00000000000E+00 0.  1.
          4    1    6    6  503    0 -0.40420879171E+02 -0.12211524534E+02  0.70578158514E+01  0.42810998224E+02  0.00000000000E+00 0. -1.
         -4    1    6    6    0  503 -0.46738266309E+03 -0.52554989267E+03  0.13725487056E+03  0.71658086978E+03  0.00000000000E+00 0.  1.
<mgrwt>
<rscale>  0 0.24767188E+04</rscale>
<asrwt>0</asrwt>
<pdfrwt beam="1">  1        2 0.44485916E+00 0.24767188E+04</pdfrwt>
<pdfrwt beam="2">  1       -1 0.81591358E-01 0.24767188E+04</pdfrwt>
<totfact> 0.30904481E+00</totfact>
</mgrwt>
</event>
<event>
12    7  0.1741211E-007  0.1574275E+04  0.7818608E-02  0.8836509E-01
         -1   -1    0    0    0  501 -0.00000000000E+00  0.00000000000E+00  0.30856731392E+03  0.30856731392E+03  0.00000000000E+00 0.  1.
          2   -1    0    0  501    0  0.00000000000E+00 -0.00000000000E+00 -0.20079434513E+04  0.20079434513E+04  0.00000000000E+00 0. -1.
         24    2    1    2    0    0 -0.69076200234E+02 -0.40183753853E+03 -0.89333772701E+02  0.42542643396E+03  0.82232590593E+02 0.  0.
        254    2    1    2    0    0  0.69076200234E+02  0.40183753853E+03 -0.16100423647E+04  0.18910843313E+04  0.90427794568E+03 0.  0.
         23    2    4    4    0    0  0.61195718284E+02  0.34888402730E+03 -0.17040946642E+04  0.17428118301E+04  0.89383836618E+02 0.  0.
         23    2    4    4    0    0  0.78804819499E+01  0.52953511237E+02  0.94052299465E+02  0.14827250118E+03  0.10135444353E+03 0.  0.
          4    1    3    3  502    0  0.11418054699E+02 -0.14610943613E+03 -0.47658253504E+02  0.15410920941E+03  0.00000000000E+00 0. -1.
         -3    1    3    3    0  502 -0.80494254933E+02 -0.25572810241E+03 -0.41675519197E+02  0.27131722455E+03  0.00000000000E+00 0.  1.
         13    1    5    5    0    0 -0.16962278796E+02  0.25065816147E+02 -0.19946641746E+03  0.20174951236E+03  0.00000000000E+00 0. -1.
        -13    1    5    5    0    0  0.78157997080E+02  0.32381821115E+03 -0.15046282467E+04  0.15410623178E+04  0.00000000000E+00 0.  1.
          1    1    6    6  503    0  0.34048309584E+02  0.31732597088E+02 -0.18954649806E+01  0.46581518771E+02  0.00000000000E+00 0. -1.
         -1    1    6    6    0  503 -0.26167827635E+02  0.21220914148E+02  0.95947764445E+02  0.10169098240E+03  0.00000000000E+00 0.  1.
<mgrwt>
<rscale>  0 0.15742753E+04</rscale>
<asrwt>0</asrwt>
<pdfrwt beam="1">  1        2 0.30891439E+00 0.15742753E+04</pdfrwt>
<pdfrwt beam="2">  1       -1 0.47471893E-01 0.15742753E+04</pdfrwt>
<totfact> 0.32066785E+01</totfact>
</mgrwt>
</event>
<event>
12    7  0.1741211E-007  0.1593243E+04  0.7818608E-02  0.8824710E-01
         -1   -1    0    0    0  501 -0.00000000000E+00  0.00000000000E+00  0.74097253903E+03  0.74097253903E+03  0.00000000000E+00 0.  1.
          2   -1    0    0  501    0  0.00000000000E+00 -0.00000000000E+00 -0.85645033463E+03  0.85645033463E+03  0.00000000000E+00 0. -1.
         24    2    1    2    0    0  0.43512673310E+03  0.32437067277E+03 -0.11481125704E+03  0.56037840085E+03  0.79314060430E+02 0.  0.
        254    2    1    2    0    0 -0.43512673310E+03 -0.32437067277E+03 -0.66653856445E+00  0.10370444728E+04  0.88369066258E+03 0.  0.
         23    2    4    4    0    0  0.25393871480E+03 -0.15980833219E+03  0.57696777331E+02  0.31902399413E+03  0.91781353239E+02 0.  0.
         23    2    4    4    0    0 -0.68906544790E+03 -0.16456234058E+03 -0.58363315896E+02  0.71802047869E+03  0.10126784169E+03 0.  0.
          2    1    3    3  502    0  0.39564693317E+02  0.59226414655E+02 -0.33573505869E+01  0.71305013520E+02  0.00000000000E+00 0. -1.
         -1    1    3    3    0  502  0.39556203978E+03  0.26514425812E+03 -0.11145390645E+03  0.48907338733E+03  0.00000000000E+00 0.  1.
         13    1    5    5    0    0  0.24509233292E+03 -0.12226896924E+03  0.40809483905E+02  0.27692122792E+03  0.00000000000E+00 0. -1.
        -13    1    5    5    0    0  0.88463818800E+01 -0.37539362952E+02  0.16887293426E+02  0.42102766209E+02  0.00000000000E+00 0.  1.
          4    1    6    6  503    0 -0.31327335972E+03 -0.10575398792E+03 -0.67870408047E+02  0.33753591832E+03  0.00000000000E+00 0. -1.
         -4    1    6    6    0  503 -0.37579208818E+03 -0.58808352662E+02  0.95070921517E+01  0.38048456037E+03  0.00000000000E+00 0.  1.
<mgrwt>
<rscale>  0 0.15932435E+04</rscale>
<asrwt>0</asrwt>
<pdfrwt beam="1">  1        2 0.13176159E+00 0.15932435E+04</pdfrwt>
<pdfrwt beam="2">  1       -1 0.11399577E+00 0.15932435E+04</pdfrwt>
<totfact> 0.24120775E+01</totfact>
</mgrwt>
</event>
<event>
12    7  0.1741211E-007  0.1346921E+04  0.7818608E-02  0.8993162E-01
         -1   -1    0    0    0  501 -0.00000000000E+00  0.00000000000E+00  0.75056056873E+03  0.75056056873E+03  0.00000000000E+00 0.  1.
          2   -1    0    0  501    0  0.00000000000E+00 -0.00000000000E+00 -0.60428006277E+03  0.60428006277E+03  0.00000000000E+00 0. -1.
         24    2    1    2    0    0 -0.12271964507E+03  0.36045130014E+03  0.36303568400E+02  0.39076032055E+03  0.79940152467E+02 0.  0.
        254    2    1    2    0    0  0.12271964507E+03 -0.36045130014E+03  0.10997693757E+03  0.96408031095E+03  0.87884621414E+03 0.  0.
         23    2    4    4    0    0 -0.23623627057E+03  0.15886589533E+03  0.12936326003E+03  0.32600370760E+03  0.92182515097E+02 0.  0.
         23    2    4    4    0    0  0.35895591565E+03 -0.51931719547E+03 -0.19386322467E+02  0.63807660335E+03  0.90698530036E+02 0.  0.
          2    1    3    3  502    0 -0.13140262769E+03  0.33773895261E+03  0.44449851190E+02  0.36511647449E+03  0.00000000000E+00 0. -1.
         -1    1    3    3    0  502  0.86829826123E+01  0.22712347533E+02 -0.81462827898E+01  0.25643846061E+02  0.00000000000E+00 0.  1.
         13    1    5    5    0    0 -0.24090934083E+03  0.16021526574E+03  0.11586945436E+03  0.31166002684E+03  0.00000000000E+00 0. -1.
        -13    1    5    5    0    0  0.46730702589E+01 -0.13493704102E+01  0.13493805677E+02  0.14343680762E+02  0.00000000000E+00 0.  1.
          3    1    6    6  503    0  0.11093085179E+03 -0.23630153468E+03  0.34582053367E+01  0.26106709550E+03  0.00000000000E+00 0. -1.
         -3    1    6    6    0  503  0.24802506386E+03 -0.28301566079E+03 -0.22844527803E+02  0.37700950785E+03  0.00000000000E+00 0.  1.
<mgrwt>
<rscale>  0 0.13469206E+04</rscale>
<asrwt>0</asrwt>
<pdfrwt beam="1">  1        2 0.92966164E-01 0.13469206E+04</pdfrwt>
<pdfrwt beam="2">  1       -1 0.11547086E+00 0.13469206E+04</pdfrwt>
<totfact> 0.37329002E+01</totfact>
</mgrwt>
</event>
<event>
12    7  0.1741211E-007  0.1712063E+04  0.7818608E-02  0.8754514E-01
         -1   -1    0    0    0  501 -0.00000000000E+00  0.00000000000E+00  0.11395241138E+04  0.11395241138E+04  0.00000000000E+00 0.  1.
          2   -1    0    0  501    0  0.00000000000E+00 -0.00000000000E+00 -0.64306694141E+03  0.64306694141E+03  0.00000000000E+00 0. -1.
         24    2    1    2    0    0  0.29049592369E+03 -0.29550816648E+03  0.65617162451E+03  0.78015787316E+03  0.79825735896E+02 0.  0.
        254    2    1    2    0    0 -0.29049592369E+03  0.29550816648E+03 -0.15971445213E+03  0.10024331820E+04  0.89869384113E+03 0.  0.
         23    2    4    4    0    0 -0.32479386335E+03  0.23810658276E+03 -0.49729829579E+03  0.64681258907E+03  0.94207918774E+02 0.  0.
         23    2    4    4    0    0  0.34297939663E+02  0.57401583716E+02  0.33758384366E+03  0.35562059297E+03  0.89620668171E+02 0.  0.
          4    1    3    3  502    0  0.52488327801E+02 -0.20515955143E+02  0.11598524093E+03  0.12895156100E+03  0.00000000000E+00 0. -1.
         -3    1    3    3    0  502  0.23800759588E+03 -0.27499221134E+03  0.54018638358E+03  0.65120631216E+03  0.00000000000E+00 0.  1.
         13    1    5    5    0    0 -0.23231366510E+01 -0.13880345375E+01  0.37554266932E+01  0.46289127692E+01  0.00000000000E+00 0. -1.
        -13    1    5    5    0    0 -0.32247072670E+03  0.23949461730E+03 -0.50105372248E+03  0.64218367630E+03  0.00000000000E+00 0.  1.
          3    1    6    6  503    0 -0.23892026237E+02 -0.62743973090E+01  0.58249970421E+02  0.63271289171E+02  0.00000000000E+00 0. -1.
         -3    1    6    6    0  503  0.58189965901E+02  0.63675981025E+02  0.27933387324E+03  0.29234930379E+03  0.00000000000E+00 0.  1.
<mgrwt>
<rscale>  0 0.17120634E+04</rscale>
<asrwt>0</asrwt>
<pdfrwt beam="1">  1        2 0.98933376E-01 0.17120634E+04</pdfrwt>
<pdfrwt beam="2">  1       -1 0.17531140E+00 0.17120634E+04</pdfrwt>
<totfact> 0.11131171E+01</totfact>
</mgrwt>
</event>
<event>
12    7  0.1741211E-007  0.1737747E+04  0.7818608E-02  0.8740124E-01
         -1   -1    0    0    0  501 -0.00000000000E+00  0.00000000000E+00  0.32778306735E+03  0.32778306735E+03  0.00000000000E+00 0.  1.
          2   -1    0    0  501    0  0.00000000000E+00 -0.00000000000E+00 -0.23031737199E+04  0.23031737199E+04  0.00000000000E+00 0. -1.
         24    2    1    2    0    0  0.47420940342E+03 -0.20620104087E+03 -0.17476080538E+03  0.55338055768E+03  0.91078400149E+02 0.  0.
        254    2    1    2    0    0 -0.47420940342E+03  0.20620104087E+03 -0.18006298472E+04  0.20775762296E+04  0.89814348275E+03 0.  0.
         23    2    4    4    0    0 -0.19629505371E+03 -0.33728441430E+03 -0.51922426638E+03  0.65585299589E+03  0.90866876154E+02 0.  0.
         23    2    4    4    0    0 -0.27791434972E+03  0.54348545517E+03 -0.12814055808E+04  0.14217232337E+04  0.81754907736E+02 0.  0.
          4    1    3    3  502    0  0.15891602050E+03 -0.11647214486E+03 -0.73378189416E+02  0.21024847391E+03  0.00000000000E+00 0. -1.
         -3    1    3    3    0  502  0.31529338293E+03 -0.89728896012E+02 -0.10138261597E+03  0.34313208378E+03  0.00000000000E+00 0.  1.
         13    1    5    5    0    0 -0.13993476920E+03 -0.25954129473E+03 -0.32270783748E+03  0.43713129797E+03  0.00000000000E+00 0. -1.
        -13    1    5    5    0    0 -0.56360284513E+02 -0.77743119569E+02 -0.19651642890E+03  0.21872169791E+03  0.00000000000E+00 0.  1.
          3    1    6    6  503    0 -0.28261226696E+03  0.54006079466E+03 -0.12740101661E+04  0.14123162743E+04  0.00000000000E+00 0. -1.
         -3    1    6    6    0  503  0.46979172488E+01  0.34246605081E+01 -0.73954147228E+01  0.94069593916E+01  0.00000000000E+00 0.  1.
<mgrwt>
<rscale>  0 0.17377472E+04</rscale>
<asrwt>0</asrwt>
<pdfrwt beam="1">  1        2 0.35433441E+00 0.17377472E+04</pdfrwt>
<pdfrwt beam="2">  1       -1 0.50428165E-01 0.17377472E+04</pdfrwt>
<totfact> 0.19276247E+01</totfact>
</mgrwt>
</event>
<event>
12    7  0.1741211E-007  0.1821126E+04  0.7818608E-02  0.8695145E-01
          2   -1    0    0  501    0  0.00000000000E+00  0.00000000000E+00  0.12100243468E+04  0.12100243468E+04  0.00000000000E+00 0. -1.
         -1   -1    0    0    0  501 -0.00000000000E+00 -0.00000000000E+00 -0.68521346294E+03  0.68521346294E+03  0.00000000000E+00 0.  1.
         24    2    1    2    0    0  0.17104547650E+02 -0.67614221018E+03  0.30008553329E+03  0.74422639654E+03  0.79754298172E+02 0.  0.
        254    2    1    2    0    0 -0.17104547650E+02  0.67614221018E+03  0.22472535058E+03  0.11510114132E+04  0.90380580668E+03 0.  0.
         23    2    4    4    0    0 -0.18811782077E+03  0.82302247731E+03  0.48676877307E+02  0.85096670309E+03  0.94976727385E+02 0.  0.
         23    2    4    4    0    0  0.17101327312E+03 -0.14688026712E+03  0.17604847327E+03  0.30004471011E+03  0.90633386075E+02 0.  0.
          4    1    3    3  502    0  0.10749722791E+02 -0.56009855530E+03  0.28002358014E+03  0.62628999163E+03  0.00000000000E+00 0. -1.
         -3    1    3    3    0  502  0.63548248591E+01 -0.11604365489E+03  0.20061953151E+02  0.11793640491E+03  0.00000000000E+00 0.  1.
         13    1    5    5    0    0 -0.15899069568E+03  0.67474060293E+03  0.76097553414E+02  0.69738351012E+03  0.00000000000E+00 0. -1.
        -13    1    5    5    0    0 -0.29127125084E+02  0.14828187438E+03 -0.27420676107E+02  0.15358319297E+03  0.00000000000E+00 0.  1.
          2    1    6    6  503    0  0.13742036607E+03 -0.12155541451E+03  0.18095368362E+03  0.25769034018E+03  0.00000000000E+00 0. -1.
         -2    1    6    6    0  503  0.33592907042E+02 -0.25324852613E+02 -0.49052103459E+01  0.42354369927E+02  0.00000000000E+00 0.  1.
<mgrwt>
<rscale>  0 0.18211260E+04</rscale>
<asrwt>0</asrwt>
<pdfrwt beam="1">  1        2 0.18615759E+00 0.18211260E+04</pdfrwt>
<pdfrwt beam="2">  1       -1 0.10541746E+00 0.18211260E+04</pdfrwt>
<totfact> 0.16935665E+01</totfact>
</mgrwt>
</event>
<event>
12    7  0.1741211E-007  0.2780570E+04  0.7818608E-02  0.8309326E-01
         -1   -1    0    0    0  501 -0.00000000000E+00  0.00000000000E+00  0.62812319722E+03  0.62812319722E+03  0.00000000000E+00 0.  1.
          2   -1    0    0  501    0  0.00000000000E+00 -0.00000000000E+00 -0.30772502398E+04  0.30772502398E+04  0.00000000000E+00 0. -1.
         24    2    1    2    0    0 -0.41073814629E+03 -0.10545611772E+04 -0.17725375077E+04  0.21044930220E+04  0.78718244129E+02 0.  0.
        254    2    1    2    0    0  0.41073814629E+03  0.10545611772E+04 -0.67658953480E+03  0.16008804150E+04  0.90787642518E+03 0.  0.
         23    2    4    4    0    0  0.46031894311E+03  0.60262637813E+03  0.19892549303E+02  0.76408353140E+03  0.91519661392E+02 0.  0.
         23    2    4    4    0    0 -0.49580796827E+02  0.45193479902E+03 -0.69648208410E+03  0.83679688362E+03  0.91860834851E+02 0.  0.
          2    1    3    3  502    0 -0.38774409675E+03 -0.92677287793E+03 -0.15678160543E+04  0.18620689117E+04  0.00000000000E+00 0. -1.
         -1    1    3    3    0  502 -0.22994049534E+02 -0.12778829922E+03 -0.20472145340E+03  0.24242411022E+03  0.00000000000E+00 0.  1.
         13    1    5    5    0    0  0.27945302163E+03  0.40008794060E+03 -0.25905145148E+02  0.48870791692E+03  0.00000000000E+00 0.  1.
        -13    1    5    5    0    0  0.18086592149E+03  0.20253843753E+03  0.45797694452E+02  0.27537561448E+03  0.00000000000E+00 0. -1.
          3    1    6    6  503    0  0.13889509662E+02  0.23845691729E+03 -0.31908557153E+03  0.39858527549E+03  0.00000000000E+00 0. -1.
         -3    1    6    6    0  503 -0.63470306489E+02  0.21347788173E+03 -0.37739651257E+03  0.43821160812E+03  0.00000000000E+00 0.  1.
<mgrwt>
<rscale>  0 0.27805699E+04</rscale>
<asrwt>0</asrwt>
<pdfrwt beam="1">  1        2 0.47342311E+00 0.27805699E+04</pdfrwt>
<pdfrwt beam="2">  1       -1 0.96634339E-01 0.27805699E+04</pdfrwt>
<totfact> 0.15875205E+00</totfact>
</mgrwt>
</event>
<event>
12    7  0.1741211E-007  0.2426923E+04  0.7818608E-02  0.8429492E-01
         -1   -1    0    0    0  501 -0.00000000000E+00  0.00000000000E+00  0.10182163648E+04  0.10182163648E+04  0.00000000000E+00 0.  1.
          2   -1    0    0  501    0  0.00000000000E+00 -0.00000000000E+00 -0.14461458867E+04  0.14461458867E+04  0.00000000000E+00 0. -1.
         24    2    1    2    0    0 -0.33719678724E+02 -0.30180973223E+02  0.88028173037E+03  0.88477493049E+03  0.76699706165E+02 0.  0.
        254    2    1    2    0    0  0.33719678724E+02  0.30180973223E+02 -0.13082112523E+04  0.15795873210E+04  0.88409926836E+03 0.  0.
         23    2    4    4    0    0 -0.18917863147E+03  0.13609486146E+03 -0.12926215708E+04  0.13165764381E+04  0.90513126776E+02 0.  0.
         23    2    4    4    0    0  0.22289831020E+03 -0.10591388824E+03 -0.15589681431E+02  0.26301088290E+03  0.89611818114E+02 0.  0.
          4    1    3    3  502    0 -0.59971796938E+01 -0.26790985467E+02  0.92253134340E+02  0.96251565504E+02  0.00000000000E+00 0. -1.
         -3    1    3    3    0  502 -0.27722499030E+02 -0.33899877564E+01  0.78802859603E+03  0.78852336498E+03  0.00000000000E+00 0.  1.
         13    1    5    5    0    0 -0.14679029866E+03  0.11201159037E+03 -0.77624972076E+03  0.79790827614E+03  0.00000000000E+00 0. -1.
        -13    1    5    5    0    0 -0.42388332812E+02  0.24083271097E+02 -0.51637185007E+03  0.51866816198E+03  0.00000000000E+00 0.  1.
          4    1    6    6  503    0  0.60026529031E+02 -0.72680083215E+02 -0.21475980209E+02  0.96678831238E+02  0.00000000000E+00 0. -1.
         -4    1    6    6    0  503  0.16287178117E+03 -0.33233805026E+02  0.58862987778E+01  0.16633205166E+03  0.00000000000E+00 0.  1.
<mgrwt>
<rscale>  0 0.24269235E+04</rscale>
<asrwt>0</asrwt>
<pdfrwt beam="1">  1        2 0.22248398E+00 0.24269235E+04</pdfrwt>
<pdfrwt beam="2">  1       -1 0.15664867E+00 0.24269235E+04</pdfrwt>
<totfact> 0.43147494E+00</totfact>
</mgrwt>
</event>
<event>
12    7  0.1741211E-007  0.1592162E+04  0.7818608E-02  0.8825377E-01
         -1   -1    0    0    0  501 -0.00000000000E+00  0.00000000000E+00  0.14867534718E+04  0.14867534718E+04  0.00000000000E+00 0.  1.
          2   -1    0    0  501    0  0.00000000000E+00 -0.00000000000E+00 -0.42626121012E+03  0.42626121012E+03  0.00000000000E+00 0. -1.
         24    2    1    2    0    0 -0.10269882162E+02 -0.51918031142E+03  0.20782567917E+03  0.56596204008E+03  0.86416732390E+02 0.  0.
        254    2    1    2    0    0  0.10269882162E+02  0.51918031142E+03  0.85266658247E+03  0.13470526418E+04  0.90435438446E+03 0.  0.
         23    2    4    4    0    0  0.43006061354E+03  0.40254464990E+03  0.52438283790E+03  0.79408435718E+03  0.92726906313E+02 0.  0.
         23    2    4    4    0    0 -0.41979073137E+03  0.11663566152E+03  0.32828374457E+03  0.55296828463E+03  0.90418865134E+02 0.  0.
          2    1    3    3  502    0 -0.37197043615E+02 -0.42952765644E+03  0.15299619852E+03  0.45747728300E+03  0.00000000000E+00 0. -1.
         -1    1    3    3    0  502  0.26927161452E+02 -0.89652654986E+02  0.54829480656E+02  0.10848475708E+03  0.00000000000E+00 0.  1.
         13    1    5    5    0    0  0.57063614651E+02  0.18476607440E+02  0.67039032067E+02  0.89954838447E+02  0.00000000000E+00 0.  1.
        -13    1    5    5    0    0  0.37299699888E+03  0.38406804246E+03  0.45734380583E+03  0.70412951873E+03  0.00000000000E+00 0. -1.
          3    1    6    6  503    0 -0.86224042584E+02  0.58410946740E+02  0.10152709547E+03  0.14544475010E+03  0.00000000000E+00 0.  1.
         -3    1    6    6    0  503 -0.33356668879E+03  0.58224714783E+02  0.22675664911E+03  0.40752353453E+03  0.00000000000E+00 0. -1.
<mgrwt>
<rscale>  0 0.15921625E+04</rscale>
<asrwt>0</asrwt>
<pdfrwt beam="1">  1        2 0.65578648E-01 0.15921625E+04</pdfrwt>
<pdfrwt beam="2">  1       -1 0.22873130E+00 0.15921625E+04</pdfrwt>
<totfact> 0.78139780E+00</totfact>
</mgrwt>
</event>
<event>
12    7  0.1741211E-007  0.1774068E+04  0.7818608E-02  0.8720213E-01
          2   -1    0    0  501    0  0.00000000000E+00  0.00000000000E+00  0.16453074542E+04  0.16453074542E+04  0.00000000000E+00 0. -1.
         -1   -1    0    0    0  501 -0.00000000000E+00 -0.00000000000E+00 -0.47822611935E+03  0.47822611935E+03  0.00000000000E+00 0.  1.
         24    2    1    2    0    0 -0.31805548960E+03 -0.56044577454E+03  0.55231932879E+03  0.85244930270E+03  0.79714566112E+02 0.  0.
        254    2    1    2    0    0  0.31805548960E+03  0.56044577454E+03  0.61476200609E+03  0.12710842709E+04  0.90689808628E+03 0.  0.
         23    2    4    4    0    0 -0.25009021832E+03  0.75499970348E+02  0.40529420430E+03  0.48984550471E+03  0.86254644053E+02 0.  0.
         23    2    4    4    0    0  0.56814570792E+03  0.48494580420E+03  0.20946780179E+03  0.78123876618E+03  0.92169796325E+02 0.  0.
          2    1    3    3  502    0 -0.30135140998E+03 -0.48841445317E+03  0.50663051022E+03  0.76552976705E+03  0.00000000000E+00 0. -1.
         -1    1    3    3    0  502 -0.16704079628E+02 -0.72031321371E+02  0.45688818573E+02  0.86919535648E+02  0.00000000000E+00 0.  1.
         13    1    5    5    0    0 -0.13814796445E+02 -0.31836214262E+01  0.24622939370E-01  0.14176905604E+02  0.00000000000E+00 0. -1.
        -13    1    5    5    0    0 -0.23627542187E+03  0.78683591774E+02  0.40526958136E+03  0.47566859911E+03  0.00000000000E+00 0.  1.
          3    1    6    6  503    0  0.22113761431E+03  0.21947535650E+03  0.12783886485E+03  0.33677002827E+03  0.00000000000E+00 0. -1.
         -3    1    6    6    0  503  0.34700809361E+03  0.26547044769E+03  0.81628936936E+02  0.44446873791E+03  0.00000000000E+00 0.  1.
<mgrwt>
<rscale>  0 0.17740676E+04</rscale>
<asrwt>0</asrwt>
<pdfrwt beam="1">  1        2 0.25312422E+00 0.17740676E+04</pdfrwt>
<pdfrwt beam="2">  1       -1 0.73573250E-01 0.17740676E+04</pdfrwt>
<totfact> 0.21099745E+01</totfact>
</mgrwt>
</event>
<event>
12    7  0.1741211E-007  0.2220548E+04  0.7818608E-02  0.8509924E-01
         -1   -1    0    0    0  501 -0.00000000000E+00  0.00000000000E+00  0.69282137088E+03  0.69282137088E+03  0.00000000000E+00 0.  1.
          2   -1    0    0  501    0  0.00000000000E+00 -0.00000000000E+00 -0.17792582495E+04  0.17792582495E+04  0.00000000000E+00 0. -1.
         24    2    1    2    0    0 -0.45997556026E+03  0.73813805967E+03 -0.68919115362E+03  0.11125571694E+04  0.79835442243E+02 0.  0.
        254    2    1    2    0    0  0.45997556026E+03 -0.73813805967E+03 -0.39724572498E+03  0.13595224509E+04  0.96647390933E+03 0.  0.
         23    2    4    4    0    0  0.64843101114E+03 -0.57237237935E+03 -0.57155648851E+03  0.10405755891E+04  0.89709643992E+02 0.  0.
         23    2    4    4    0    0 -0.18845545088E+03 -0.16576568032E+03  0.17431076353E+03  0.31894686184E+03  0.91373632151E+02 0.  0.
          2    1    3    3  502    0 -0.22909228263E+03  0.43724391567E+03 -0.37120827522E+03  0.61762537135E+03  0.00000000000E+00 0. -1.
         -1    1    3    3    0  502 -0.23088327763E+03  0.30089414400E+03 -0.31798287840E+03  0.49493179807E+03  0.00000000000E+00 0.  1.
         13    1    5    5    0    0  0.38905312480E+03 -0.30587131472E+03 -0.36716767632E+03  0.61622373990E+03  0.00000000000E+00 0. -1.
        -13    1    5    5    0    0  0.25937788634E+03 -0.26650106462E+03 -0.20438881220E+03  0.42435184920E+03  0.00000000000E+00 0.  1.
          4    1    6    6  503    0 -0.11063852695E+03 -0.15210996282E+03  0.12199945794E+03  0.22419231068E+03  0.00000000000E+00 0. -1.
         -4    1    6    6    0  503 -0.77816923934E+02 -0.13655717509E+02  0.52311305592E+02  0.94754551152E+02  0.00000000000E+00 0.  1.
<mgrwt>
<rscale>  0 0.22205478E+04</rscale>
<asrwt>0</asrwt>
<pdfrwt beam="1">  1        2 0.27373204E+00 0.22205478E+04</pdfrwt>
<pdfrwt beam="2">  1       -1 0.10658790E+00 0.22205478E+04</pdfrwt>
<totfact> 0.75668784E+00</totfact>
</mgrwt>
</event>
<event>
12    7  0.1741211E-007  0.1568367E+04  0.7818608E-02  0.8840221E-01
          2   -1    0    0  501    0  0.00000000000E+00  0.00000000000E+00  0.88664961541E+03  0.88664961541E+03  0.00000000000E+00 0. -1.
         -1   -1    0    0    0  501 -0.00000000000E+00 -0.00000000000E+00 -0.69355849964E+03  0.69355849964E+03  0.00000000000E+00 0.  1.
         24    2    1    2    0    0 -0.41736887127E+03  0.31935122290E+03  0.10599511443E+02  0.53685551158E+03  0.10917651944E+03 0.  0.
        254    2    1    2    0    0  0.41736887127E+03 -0.31935122290E+03  0.18249160433E+03  0.10433526035E+04  0.88266612672E+03 0.  0.
         23    2    4    4    0    0  0.24397123141E+03  0.18900985662E+03  0.34834683005E+03  0.47422851244E+03  0.91106971995E+02 0.  0.
         23    2    4    4    0    0  0.17339763986E+03 -0.50836107952E+03 -0.16585522573E+03  0.56912409104E+03  0.88862514144E+02 0.  0.
          4    1    3    3  502    0 -0.58144568260E+02  0.32558777731E+01 -0.26442088780E+00  0.58236255688E+02  0.00000000000E+00 0. -1.
         -3    1    3    3    0  502 -0.35922430301E+03  0.31609534513E+03  0.10863932331E+02  0.47861925589E+03  0.00000000000E+00 0.  1.
         13    1    5    5    0    0  0.14440592726E+03  0.16217680752E+03  0.25712398092E+03  0.33655182408E+03  0.00000000000E+00 0. -1.
        -13    1    5    5    0    0  0.99565304147E+02  0.26833049100E+02  0.91222849134E+02  0.13767668836E+03  0.00000000000E+00 0.  1.
          2    1    6    6  503    0  0.11986105473E+03 -0.21683118049E+03 -0.66739027296E+02  0.25658630330E+03  0.00000000000E+00 0. -1.
         -2    1    6    6    0  503  0.53536585121E+02 -0.29152989903E+03 -0.99116198430E+02  0.31253778774E+03  0.00000000000E+00 0.  1.
<mgrwt>
<rscale>  0 0.15683665E+04</rscale>
<asrwt>0</asrwt>
<pdfrwt beam="1">  1        2 0.13640763E+00 0.15683665E+04</pdfrwt>
<pdfrwt beam="2">  1       -1 0.10670131E+00 0.15683665E+04</pdfrwt>
<totfact> 0.26941845E+01</totfact>
</mgrwt>
</event>
<event>
12    7  0.1741211E-007  0.2402716E+04  0.7818608E-02  0.8438488E-01
          2   -1    0    0  501    0  0.00000000000E+00  0.00000000000E+00  0.33133398796E+03  0.33133398796E+03  0.00000000000E+00 0. -1.
         -1   -1    0    0    0  501 -0.00000000000E+00 -0.00000000000E+00 -0.43559086146E+04  0.43559086146E+04  0.00000000000E+00 0.  1.
         24    2    1    2    0    0  0.27516707683E+03  0.43589747060E+02  0.20324623411E+03  0.35396052396E+03  0.79762363466E+02 0.  0.
        254    2    1    2    0    0 -0.27516707683E+03 -0.43589747060E+02 -0.42278208607E+04  0.43332820786E+04  0.90843126093E+03 0.  0.
         23    2    4    4    0    0  0.80437172164E+02 -0.32086133898E+03 -0.73877424600E+03  0.81403800683E+03  0.86303838279E+02 0.  0.
         23    2    4    4    0    0 -0.35560424899E+03  0.27727159192E+03 -0.34890466147E+04  0.35192440717E+04  0.91096866732E+02 0.  0.
          2    1    3    3  502    0  0.21606240638E+03  0.66920320449E+02  0.16162786268E+03  0.27800154448E+03  0.00000000000E+00 0. -1.
         -1    1    3    3    0  502  0.59104670450E+02 -0.23330573389E+02  0.41618371431E+02  0.75958979484E+02  0.00000000000E+00 0.  1.
         13    1    5    5    0    0  0.82561048271E+02 -0.31650971396E+03 -0.67499608999E+03  0.75007629427E+03  0.00000000000E+00 0.  1.
        -13    1    5    5    0    0 -0.21238761074E+01 -0.43516250112E+01 -0.63778156005E+02  0.63961712558E+02  0.00000000000E+00 0. -1.
          1    1    6    6  503    0 -0.88453205963E+02  0.12271718605E+03 -0.11093006352E+04  0.11195674954E+04  0.00000000000E+00 0. -1.
         -1    1    6    6    0  503 -0.26715104303E+03  0.15455440586E+03 -0.23797459795E+04  0.23996765764E+04  0.00000000000E+00 0.  1.
<mgrwt>
<rscale>  0 0.24027156E+04</rscale>
<asrwt>0</asrwt>
<pdfrwt beam="1">  1        2 0.50974460E-01 0.24027156E+04</pdfrwt>
<pdfrwt beam="2">  1       -1 0.67013978E+00 0.24027156E+04</pdfrwt>
<totfact> 0.25008013E-02</totfact>
</mgrwt>
</event>
<event>
12    7  0.1741211E-007  0.1279538E+04  0.7818608E-02  0.9045951E-01
         -1   -1    0    0    0  501 -0.00000000000E+00  0.00000000000E+00  0.68087460487E+03  0.68087460487E+03  0.00000000000E+00 0.  1.
          2   -1    0    0  501    0  0.00000000000E+00 -0.00000000000E+00 -0.60114522631E+03  0.60114522631E+03  0.00000000000E+00 0. -1.
         24    2    1    2    0    0  0.12272857084E+03  0.21740638856E+03 -0.16785328642E+03  0.31087935137E+03  0.78379879173E+02 0.  0.
        254    2    1    2    0    0 -0.12272857084E+03 -0.21740638856E+03  0.24758266497E+03  0.97114047981E+03  0.90525621547E+03 0.  0.
         23    2    4    4    0    0 -0.34647849499E+03 -0.38056943017E+03  0.38507073376E+03  0.64909551299E+03  0.90360811755E+02 0.  0.
         23    2    4    4    0    0  0.22374992416E+03  0.16316304161E+03 -0.13748806879E+03  0.32204496683E+03  0.90132041410E+02 0.  0.
          4    1    3    3  502    0  0.13009163751E+03  0.18959185835E+03 -0.16263748781E+03  0.28163781590E+03  0.00000000000E+00 0. -1.
         -3    1    3    3    0  502 -0.73630666771E+01  0.27814530204E+02 -0.52157986165E+01  0.29241535469E+02  0.00000000000E+00 0.  1.
         13    1    5    5    0    0 -0.22031190778E+03 -0.17664175621E+03  0.22012749792E+03  0.35804435772E+03  0.00000000000E+00 0.  1.
        -13    1    5    5    0    0 -0.12616658721E+03 -0.20392767396E+03  0.16494323584E+03  0.29105115527E+03  0.00000000000E+00 0. -1.
          1    1    6    6  503    0  0.18783457119E+02 -0.16295377794E+01  0.91201149593E+01  0.20943976499E+02  0.00000000000E+00 0. -1.
         -1    1    6    6    0  503  0.20496646704E+03  0.16479257939E+03 -0.14660818375E+03  0.30110099033E+03  0.00000000000E+00 0.  1.
<mgrwt>
<rscale>  0 0.12795382E+04</rscale>
<asrwt>0</asrwt>
<pdfrwt beam="1">  1        2 0.92483881E-01 0.12795382E+04</pdfrwt>
<pdfrwt beam="2">  1       -1 0.10474994E+00 0.12795382E+04</pdfrwt>
<totfact> 0.47542641E+01</totfact>
</mgrwt>
</event>
<event>
12    7  0.1741211E-007  0.3236535E+04  0.7818608E-02  0.8179234E-01
          2   -1    0    0  501    0  0.00000000000E+00  0.00000000000E+00  0.16673451116E+04  0.16673451116E+04  0.00000000000E+00 0. -1.
         -1   -1    0    0    0  501 -0.00000000000E+00 -0.00000000000E+00 -0.15706347251E+04  0.15706347251E+04  0.00000000000E+00 0.  1.
         24    2    1    2    0    0  0.61999117856E+02 -0.32465878820E+03 -0.14163129820E+04  0.14566215731E+04  0.80973605071E+02 0.  0.
        254    2    1    2    0    0 -0.61999117856E+02  0.32465878820E+03  0.15130233686E+04  0.17813582637E+04  0.88019902882E+03 0.  0.
         23    2    4    4    0    0  0.23885976204E+03  0.50311956322E+03  0.10649702707E+04  0.12056946143E+04  0.96718895082E+02 0.  0.
         23    2    4    4    0    0 -0.30085887990E+03 -0.17846077502E+03  0.44805309785E+03  0.57566364935E+03  0.90954630765E+02 0.  0.
          4    1    3    3  502    0  0.60816007639E+01 -0.15398202735E+02 -0.18848371979E+03  0.18920941610E+03  0.00000000000E+00 0. -1.
         -3    1    3    3    0  502  0.55917517093E+02 -0.30926058546E+03 -0.12278292622E+04  0.12674121570E+04  0.00000000000E+00 0.  1.
         13    1    5    5    0    0  0.18691549323E+03  0.45406425683E+03  0.88562322372E+03  0.10126402349E+04  0.00000000000E+00 0. -1.
        -13    1    5    5    0    0  0.51944268804E+02  0.49055306392E+02  0.17934704699E+03  0.19305437941E+03  0.00000000000E+00 0.  1.
          1    1    6    6  503    0 -0.95154175938E+02 -0.10714022676E+03  0.19160794890E+03  0.23926335171E+03  0.00000000000E+00 0. -1.
         -1    1    6    6    0  503 -0.20570470396E+03 -0.71320548262E+02  0.25644514895E+03  0.33640029765E+03  0.00000000000E+00 0.  1.
<mgrwt>
<rscale>  0 0.32365353E+04</rscale>
<asrwt>0</asrwt>
<pdfrwt beam="1">  1        2 0.25651463E+00 0.32365353E+04</pdfrwt>
<pdfrwt beam="2">  1       -1 0.24163611E+00 0.32365353E+04</pdfrwt>
<totfact> 0.77287376E-01</totfact>
</mgrwt>
</event>
<event>
12    7  0.1741211E-007  0.2517079E+04  0.7818608E-02  0.8396926E-01
          2   -1    0    0  501    0  0.00000000000E+00  0.00000000000E+00  0.11012353097E+04  0.11012353097E+04  0.00000000000E+00 0. -1.
         -1   -1    0    0    0  501 -0.00000000000E+00 -0.00000000000E+00 -0.14383132521E+04  0.14383132521E+04  0.00000000000E+00 0.  1.
         24    2    1    2    0    0 -0.70349687579E+03  0.52245993544E+03 -0.81013932308E+03  0.11961465804E+04  0.81047397554E+02 0.  0.
        254    2    1    2    0    0  0.70349687579E+03 -0.52245993544E+03  0.47306138071E+03  0.13434019814E+04  0.90170370708E+03 0.  0.
         23    2    4    4    0    0 -0.83753300536E+02 -0.43185624435E+02  0.39255545467E+03  0.41382030346E+03  0.90927691383E+02 0.  0.
         23    2    4    4    0    0  0.78725017633E+03 -0.47927431100E+03  0.80505926046E+02  0.92958167795E+03  0.90411208050E+02 0.  0.
          2    1    3    3  502    0 -0.14521899847E+03  0.95384628991E+02 -0.12059200106E+03  0.21149282655E+03  0.00000000000E+00 0. -1.
         -1    1    3    3    0  502 -0.55827787732E+03  0.42707530645E+03 -0.68954732203E+03  0.98465375386E+03  0.00000000000E+00 0.  1.
         13    1    5    5    0    0 -0.84690914018E+02 -0.18111150215E+01  0.20614724828E+03  0.22287332507E+03  0.00000000000E+00 0.  1.
        -13    1    5    5    0    0  0.93761348248E+00 -0.41374509414E+02  0.18640820639E+03  0.19094697839E+03  0.00000000000E+00 0. -1.
          3    1    6    6  503    0  0.17115884778E+03 -0.14967639059E+03  0.19242120000E+02  0.22818552157E+03  0.00000000000E+00 0. -1.
         -3    1    6    6    0  503  0.61609132855E+03 -0.32959792041E+03  0.61263806046E+02  0.70139615638E+03  0.00000000000E+00 0.  1.
<mgrwt>
<rscale>  0 0.25170787E+04</rscale>
<asrwt>0</asrwt>
<pdfrwt beam="1">  1        2 0.16942082E+00 0.25170787E+04</pdfrwt>
<pdfrwt beam="2">  1       -1 0.22127896E+00 0.25170787E+04</pdfrwt>
<totfact> 0.23822286E+00</totfact>
</mgrwt>
</event>
<event>
12    7  0.1741211E-007  0.2088253E+04  0.7818608E-02  0.8566436E-01
         -1   -1    0    0    0  501 -0.00000000000E+00  0.00000000000E+00  0.74072428884E+03  0.74072428884E+03  0.00000000000E+00 0.  1.
          2   -1    0    0  501    0  0.00000000000E+00 -0.00000000000E+00 -0.14718021927E+04  0.14718021927E+04  0.00000000000E+00 0. -1.
         24    2    1    2    0    0 -0.88257442104E+02  0.55629184909E+03  0.37279663977E+03  0.67970162104E+03  0.75940513314E+02 0.  0.
        254    2    1    2    0    0  0.88257442104E+02 -0.55629184909E+03 -0.11038745436E+04  0.15328248605E+04  0.90208815945E+03 0.  0.
         23    2    4    4    0    0  0.43680886238E+03 -0.67244961335E+02 -0.39901642976E+03  0.60227040132E+03  0.90507778759E+02 0.  0.
         23    2    4    4    0    0 -0.34855142028E+03 -0.48904688775E+03 -0.70485811385E+03  0.93055445915E+03  0.91933072313E+02 0.  0.
          2    1    3    3  502    0  0.11695534267E+02  0.25484345342E+02  0.22099085463E+02  0.35701638024E+02  0.00000000000E+00 0. -1.
         -1    1    3    3    0  502 -0.99952976371E+02  0.53080750375E+03  0.35069755431E+03  0.64399998301E+03  0.00000000000E+00 0.  1.
         13    1    5    5    0    0  0.35723632314E+03 -0.49915909842E+02 -0.27359515547E+03  0.45272916597E+03  0.00000000000E+00 0.  1.
        -13    1    5    5    0    0  0.79572539245E+02 -0.17329051493E+02 -0.12542127429E+03  0.14954123536E+03  0.00000000000E+00 0. -1.
          4    1    6    6  503    0 -0.71689846406E+02 -0.84015714226E+02 -0.81375226513E+02  0.13718601169E+03  0.00000000000E+00 0. -1.
         -4    1    6    6    0  503 -0.27686157387E+03 -0.40503117353E+03 -0.62348288734E+03  0.79336844746E+03  0.00000000000E+00 0.  1.
<mgrwt>
<rscale>  0 0.20882525E+04</rscale>
<asrwt>0</asrwt>
<pdfrwt beam="1">  1        2 0.22643111E+00 0.20882525E+04</pdfrwt>
<pdfrwt beam="2">  1       -1 0.11395758E+00 0.20882525E+04</pdfrwt>
<totfact> 0.97105317E+00</totfact>
</mgrwt>
</event>
<event>
12    7  0.1741211E-007  0.1299343E+04  0.7818608E-02  0.9030087E-01
         -1   -1    0    0    0  501 -0.00000000000E+00  0.00000000000E+00  0.12101586464E+04  0.12101586464E+04  0.00000000000E+00 0.  1.
          2   -1    0    0  501    0  0.00000000000E+00 -0.00000000000E+00 -0.34877472511E+03  0.34877472511E+03  0.00000000000E+00 0. -1.
         24    2    1    2    0    0 -0.38923268671E+02  0.25897929265E+03  0.48011689108E+03  0.55203827853E+03  0.75158080067E+02 0.  0.
        254    2    1    2    0    0  0.38923268671E+02 -0.25897929265E+03  0.38126703018E+03  0.10068950930E+04  0.89436451464E+03 0.  0.
         23    2    4    4    0    0  0.15304511656E+02  0.29108706662E+03  0.32574752952E+03  0.44581989841E+03  0.87624313960E+02 0.  0.
         23    2    4    4    0    0  0.23618757014E+02 -0.55006635926E+03  0.55519500661E+02  0.56107519455E+03  0.92693655152E+02 0.  0.
          2    1    3    3  502    0  0.88114219741E+01  0.12315980389E+03  0.16974228296E+03  0.20990097921E+03  0.00000000000E+00 0. -1.
         -1    1    3    3    0  502 -0.47734690645E+02  0.13581948876E+03  0.31037460813E+03  0.34213729932E+03  0.00000000000E+00 0.  1.
         13    1    5    5    0    0 -0.23592402696E+02  0.86391298832E+02  0.58588327119E+02  0.10701705497E+03  0.00000000000E+00 0. -1.
        -13    1    5    5    0    0  0.38896914352E+02  0.20469576778E+03  0.26715920240E+03  0.33880284344E+03  0.00000000000E+00 0.  1.
          3    1    6    6  503    0  0.32159482168E+02 -0.59287757885E+02  0.51469834785E+01  0.67644378682E+02  0.00000000000E+00 0. -1.
         -3    1    6    6    0  503 -0.85407251542E+01 -0.49077860138E+03  0.50372517182E+02  0.49343081586E+03  0.00000000000E+00 0.  1.
<mgrwt>
<rscale>  0 0.12993425E+04</rscale>
<asrwt>0</asrwt>
<pdfrwt beam="1">  1        2 0.53657651E-01 0.12993425E+04</pdfrwt>
<pdfrwt beam="2">  1       -1 0.18617825E+00 0.12993425E+04</pdfrwt>
<totfact> 0.19575572E+01</totfact>
</mgrwt>
</event>
<event>
12    7  0.1741211E-007  0.1795403E+04  0.7818608E-02  0.8708748E-01
          2   -1    0    0  501    0  0.00000000000E+00  0.00000000000E+00  0.65204014006E+03  0.65204014006E+03  0.00000000000E+00 0. -1.
         -1   -1    0    0    0  501 -0.00000000000E+00 -0.00000000000E+00 -0.12359171745E+04  0.12359171745E+04  0.00000000000E+00 0.  1.
         24    2    1    2    0    0 -0.25081096577E+02  0.52330704758E+03 -0.66032479460E+03  0.84661128297E+03  0.79009509770E+02 0.  0.
        254    2    1    2    0    0  0.25081096577E+02 -0.52330704758E+03  0.76447760186E+02  0.10413460316E+04  0.89670394779E+03 0.  0.
         23    2    4    4    0    0 -0.84036016768E+02 -0.58629374343E+02  0.42157431657E+03  0.44492002530E+03  0.98638070117E+02 0.  0.
         23    2    4    4    0    0  0.10911711335E+03 -0.46467767323E+03 -0.34512655638E+03  0.59642600627E+03  0.93700355466E+02 0.  0.
          4    1    3    3  502    0  0.13746461709E+02  0.29984512117E+03 -0.33210949649E+03  0.44765252100E+03  0.00000000000E+00 0. -1.
         -3    1    3    3    0  502 -0.38827558287E+02  0.22346192640E+03 -0.32821529811E+03  0.39895876196E+03  0.00000000000E+00 0.  1.
         13    1    5    5    0    0 -0.94905662801E+02 -0.24496076192E+02  0.22982522917E+03  0.24985351417E+03  0.00000000000E+00 0. -1.
        -13    1    5    5    0    0  0.10869646033E+02 -0.34133298150E+02  0.19174908740E+03  0.19506651113E+03  0.00000000000E+00 0.  1.
          1    1    6    6  503    0  0.85616187674E+02 -0.42429622144E+03 -0.33795911309E+03  0.54915733378E+03  0.00000000000E+00 0. -1.
         -1    1    6    6    0  503  0.23500925672E+02 -0.40381451793E+02 -0.71674432909E+01  0.47268672497E+02  0.00000000000E+00 0.  1.
<mgrwt>
<rscale>  0 0.17954026E+04</rscale>
<asrwt>0</asrwt>
<pdfrwt beam="1">  1        2 0.10031387E+00 0.17954026E+04</pdfrwt>
<pdfrwt beam="2">  1       -1 0.19014110E+00 0.17954026E+04</pdfrwt>
<totfact> 0.85150760E+00</totfact>
</mgrwt>
</event>
<event>
12    7  0.1741211E-007  0.1395272E+04  0.7818608E-02  0.8957248E-01
          2   -1    0    0  501    0  0.00000000000E+00  0.00000000000E+00  0.28517547325E+04  0.28517547325E+04  0.00000000000E+00 0. -1.
         -1   -1    0    0    0  501 -0.00000000000E+00 -0.00000000000E+00 -0.17066536862E+03  0.17066536862E+03  0.00000000000E+00 0.  1.
         24    2    1    2    0    0 -0.38850539166E+03  0.67319311726E+02  0.94075140691E+03  0.10231589492E+04  0.79829171661E+02 0.  0.
        254    2    1    2    0    0  0.38850539166E+03 -0.67319311726E+02  0.17403379570E+04  0.19992611519E+04  0.90155455745E+03 0.  0.
         23    2    4    4    0    0  0.59706253913E+01 -0.21388540564E+03  0.14938261320E+04  0.15124062290E+04  0.10036669616E+03 0.  0.
         23    2    4    4    0    0  0.38253476627E+03  0.14656609391E+03  0.24651182498E+03  0.48685492296E+03  0.91897599875E+02 0.  0.
          4    1    3    3  502    0 -0.34256259001E+03  0.54585751565E+02  0.74675578101E+03  0.82339111534E+03  0.00000000000E+00 0. -1.
         -3    1    3    3    0  502 -0.45942801653E+02  0.12733560161E+02  0.19399562590E+03  0.19976783386E+03  0.00000000000E+00 0.  1.
         13    1    5    5    0    0  0.10596104917E+02 -0.20779824770E+03  0.11613107226E+04  0.11798029427E+04  0.00000000000E+00 0.  1.
        -13    1    5    5    0    0 -0.46254795260E+01 -0.60871579361E+01  0.33251540946E+03  0.33260328633E+03  0.00000000000E+00 0. -1.
          4    1    6    6  503    0  0.17387036811E+03  0.93151618546E+02  0.16283428973E+03  0.25577946527E+03  0.00000000000E+00 0. -1.
         -4    1    6    6    0  503  0.20866439816E+03  0.53414475364E+02  0.83677535257E+02  0.23107545769E+03  0.00000000000E+00 0.  1.
<mgrwt>
<rscale>  0 0.13952717E+04</rscale>
<asrwt>0</asrwt>
<pdfrwt beam="1">  1        2 0.43873146E+00 0.13952717E+04</pdfrwt>
<pdfrwt beam="2">  1       -1 0.26256213E-01 0.13952717E+04</pdfrwt>
<totfact> 0.30925023E+01</totfact>
</mgrwt>
</event>
<event>
12    7  0.1741211E-007  0.2483444E+04  0.7818608E-02  0.8408908E-01
         -1   -1    0    0    0  501 -0.00000000000E+00  0.00000000000E+00  0.79765002884E+03  0.79765002884E+03  0.00000000000E+00 0.  1.
          2   -1    0    0  501    0  0.00000000000E+00 -0.00000000000E+00 -0.19330200228E+04  0.19330200228E+04  0.00000000000E+00 0. -1.
         24    2    1    2    0    0 -0.36302542903E+03  0.97418402409E+03 -0.80075791403E+03  0.13147399748E+04  0.80659714397E+02 0.  0.
        254    2    1    2    0    0  0.36302542903E+03 -0.97418402409E+03 -0.33461207995E+03  0.14159300769E+04  0.90114968990E+03 0.  0.
         23    2    4    4    0    0  0.24344895905E+03 -0.11291870351E+04 -0.26367127142E+03  0.11887250750E+04  0.95989628874E+02 0.  0.
         23    2    4    4    0    0  0.11957646998E+03  0.15500301097E+03 -0.70940808528E+02  0.22720500182E+03  0.90912314650E+02 0.  0.
          2    1    3    3  502    0 -0.29033438101E+03  0.76511651074E+03 -0.67016747174E+03  0.10577437156E+04  0.00000000000E+00 0. -1.
         -1    1    3    3    0  502 -0.72691048020E+02  0.20906751334E+03 -0.13059044229E+03  0.25699625915E+03  0.00000000000E+00 0.  1.
         13    1    5    5    0    0  0.46673296044E+02 -0.95373217118E+02 -0.34923219067E+02  0.11177691326E+03  0.00000000000E+00 0.  1.
        -13    1    5    5    0    0  0.19677566300E+03 -0.10338138179E+04 -0.22874805235E+03  0.10769481618E+04  0.00000000000E+00 0. -1.
          3    1    6    6  503    0  0.11503429939E+03  0.16712837948E+03 -0.67110682124E+02  0.21370219680E+03  0.00000000000E+00 0. -1.
         -3    1    6    6    0  503  0.45421705861E+01 -0.12125368506E+02 -0.38301264043E+01  0.13502805017E+02  0.00000000000E+00 0.  1.
<mgrwt>
<rscale>  0 0.24834440E+04</rscale>
<asrwt>0</asrwt>
<pdfrwt beam="1">  1        2 0.29738769E+00 0.24834440E+04</pdfrwt>
<pdfrwt beam="2">  1       -1 0.12271539E+00 0.24834440E+04</pdfrwt>
<totfact> 0.43344168E+00</totfact>
</mgrwt>
</event>
<event>
12    7  0.1741211E-007  0.1307411E+04  0.7818608E-02  0.9023709E-01
         -1   -1    0    0    0  501 -0.00000000000E+00  0.00000000000E+00  0.37651750976E+03  0.37651750976E+03  0.00000000000E+00 0.  1.
          2   -1    0    0  501    0  0.00000000000E+00 -0.00000000000E+00 -0.11349566056E+04  0.11349566056E+04  0.00000000000E+00 0. -1.
         24    2    1    2    0    0  0.14221106837E+03  0.22680871353E+03 -0.62542921951E+01  0.27905545396E+03  0.78528018652E+02 0.  0.
        254    2    1    2    0    0 -0.14221106837E+03 -0.22680871353E+03 -0.75218480369E+03  0.12324186615E+04  0.93883310428E+03 0.  0.
         23    2    4    4    0    0  0.14542641027E+03 -0.18424464532E+03 -0.86959890848E+03  0.90548887210E+03  0.92805741965E+02 0.  0.
         23    2    4    4    0    0 -0.28763747864E+03 -0.42564068208E+02  0.11741410479E+03  0.32692978935E+03  0.92466189163E+02 0.  0.
          4    1    3    3  502    0  0.34164726916E+02  0.96506719169E+02  0.28467910975E+02  0.10626004595E+03  0.00000000000E+00 0. -1.
         -3    1    3    3    0  502  0.10804634146E+03  0.13030199436E+03 -0.34722203170E+02  0.17279540801E+03  0.00000000000E+00 0.  1.
         13    1    5    5    0    0  0.12801318562E+03 -0.15304968226E+03 -0.82260069486E+03  0.84645347428E+03  0.00000000000E+00 0.  1.
        -13    1    5    5    0    0  0.17413224644E+02 -0.31194963062E+02 -0.46998213617E+02  0.59035397823E+02  0.00000000000E+00 0. -1.
          1    1    6    6  503    0 -0.23197744708E+02  0.13543473284E+02 -0.92363445864E+01  0.28405476399E+02  0.00000000000E+00 0. -1.
         -1    1    6    6    0  503 -0.26443973393E+03 -0.56107541491E+02  0.12665044938E+03  0.29852431295E+03  0.00000000000E+00 0.  1.
<mgrwt>
<rscale>  0 0.13074112E+04</rscale>
<asrwt>0</asrwt>
<pdfrwt beam="1">  1        2 0.17460871E+00 0.13074112E+04</pdfrwt>
<pdfrwt beam="2">  1       -1 0.57925771E-01 0.13074112E+04</pdfrwt>
<totfact> 0.69933398E+01</totfact>
</mgrwt>
</event>
<event>
12    7  0.1741211E-007  0.1522320E+04  0.7818608E-02  0.8869745E-01
         -1   -1    0    0    0  501 -0.00000000000E+00  0.00000000000E+00  0.23427591387E+03  0.23427591387E+03  0.00000000000E+00 0.  1.
          2   -1    0    0  501    0  0.00000000000E+00 -0.00000000000E+00 -0.24730011437E+04  0.24730011437E+04  0.00000000000E+00 0. -1.
         24    2    1    2    0    0  0.49858717340E+02  0.87678747004E+02 -0.15764173123E+04  0.15818111182E+04  0.82833667907E+02 0.  0.
        254    2    1    2    0    0 -0.49858717340E+02 -0.87678747004E+02 -0.66230791749E+03  0.11254659394E+04  0.90434968283E+03 0.  0.
         23    2    4    4    0    0 -0.25238350112E+03 -0.30209529584E+03 -0.11265331503E+02  0.40432699069E+03  0.91621003602E+02 0.  0.
         23    2    4    4    0    0  0.20252478378E+03  0.21441654883E+03 -0.65104258599E+03  0.72113894872E+03  0.95886339651E+02 0.  0.
          2    1    3    3  502    0  0.19459133473E+01  0.81922415660E+02 -0.93812341846E+03  0.94169560742E+03  0.00000000000E+00 0. -1.
         -1    1    3    3    0  502  0.47912803993E+02  0.57563313440E+01 -0.63829389388E+03  0.64011551075E+03  0.00000000000E+00 0.  1.
         13    1    5    5    0    0 -0.12105200820E+03 -0.21360718449E+03  0.58094003346E+00  0.24552383885E+03  0.00000000000E+00 0. -1.
        -13    1    5    5    0    0 -0.13133149293E+03 -0.88488111345E+02 -0.11846271537E+02  0.15880315183E+03  0.00000000000E+00 0.  1.
          1    1    6    6  503    0  0.11442494656E+02  0.63196022468E+02 -0.10329266988E+03  0.12163076745E+03  0.00000000000E+00 0. -1.
         -1    1    6    6    0  503  0.19108228913E+03  0.15122052636E+03 -0.54774991611E+03  0.59950818127E+03  0.00000000000E+00 0.  1.
<mgrwt>
<rscale>  0 0.15223201E+04</rscale>
<asrwt>0</asrwt>
<pdfrwt beam="1">  1        2 0.38046172E+00 0.15223201E+04</pdfrwt>
<pdfrwt beam="2">  1       -1 0.36042448E-01 0.15223201E+04</pdfrwt>
<totfact> 0.29250924E+01</totfact>
</mgrwt>
</event>
<event>
12    7  0.1741211E-007  0.1705849E+04  0.7818608E-02  0.8758036E-01
         -1   -1    0    0    0  501 -0.00000000000E+00  0.00000000000E+00  0.30301009463E+03  0.30301009463E+03  0.00000000000E+00 0.  1.
          2   -1    0    0  501    0  0.00000000000E+00 -0.00000000000E+00 -0.24008444345E+04  0.24008444345E+04  0.00000000000E+00 0. -1.
         24    2    1    2    0    0  0.13691493548E+03  0.55672056947E+03 -0.42005435651E+03  0.71518153760E+03  0.79721247331E+02 0.  0.
        254    2    1    2    0    0 -0.13691493548E+03 -0.55672056947E+03 -0.16777799833E+04  0.19886729915E+04  0.90066148059E+03 0.  0.
         23    2    4    4    0    0  0.29070061117E+03 -0.45695613777E+03 -0.55946730082E+03  0.78368707041E+03  0.88577686032E+02 0.  0.
         23    2    4    4    0    0 -0.42761554664E+03 -0.99764431697E+02 -0.11183126825E+04  0.12049859211E+04  0.92519276889E+02 0.  0.
          2    1    3    3  502    0  0.24480308456E+02  0.26286714602E+03 -0.20083770505E+03  0.33171404210E+03  0.00000000000E+00 0. -1.
         -1    1    3    3    0  502  0.11243462702E+03  0.29385342345E+03 -0.21921665146E+03  0.38346749550E+03  0.00000000000E+00 0.  1.
         13    1    5    5    0    0  0.50930014850E+02 -0.81105669855E+02 -0.54938494152E+02  0.11040939378E+03  0.00000000000E+00 0. -1.
        -13    1    5    5    0    0  0.23977059632E+03 -0.37585046791E+03 -0.50452880667E+03  0.67327767663E+03  0.00000000000E+00 0.  1.
          3    1    6    6  503    0 -0.13195857794E+03 -0.71705404485E+02 -0.42449352903E+03  0.45027712302E+03  0.00000000000E+00 0. -1.
         -3    1    6    6    0  503 -0.29565696870E+03 -0.28059027212E+02 -0.69381915346E+03  0.75470879805E+03  0.00000000000E+00 0.  1.
<mgrwt>
<rscale>  0 0.17058489E+04</rscale>
<asrwt>0</asrwt>
<pdfrwt beam="1">  1        2 0.36936067E+00 0.17058489E+04</pdfrwt>
<pdfrwt beam="2">  1       -1 0.46616939E-01 0.17058489E+04</pdfrwt>
<totfact> 0.19736844E+01</totfact>
</mgrwt>
</event>
<event>
12    7  0.1741211E-007  0.1432568E+04  0.7818608E-02  0.8930576E-01
         -1   -1    0    0    0  501 -0.00000000000E+00  0.00000000000E+00  0.49653422303E+03  0.49653422303E+03  0.00000000000E+00 0.  1.
          2   -1    0    0  501    0  0.00000000000E+00 -0.00000000000E+00 -0.10332873297E+04  0.10332873297E+04  0.00000000000E+00 0. -1.
         24    2    1    2    0    0  0.29591525974E+03  0.36403200840E+02 -0.49987279608E+03  0.58704441388E+03  0.76532983919E+02 0.  0.
        254    2    1    2    0    0 -0.29591525974E+03 -0.36403200840E+02 -0.36880310559E+02  0.94277713881E+03  0.89363165912E+03 0.  0.
         23    2    4    4    0    0 -0.24131200109E+02  0.84907766722E+02  0.39359230317E+03  0.41174517942E+03  0.82628977929E+02 0.  0.
         23    2    4    4    0    0 -0.27178405963E+03 -0.12131096756E+03 -0.43047261373E+03  0.53103195939E+03  0.90029688478E+02 0.  0.
          4    1    3    3  502    0  0.23048623218E+03  0.41441737840E+02 -0.43889684281E+03  0.49746533496E+03  0.00000000000E+00 0. -1.
         -3    1    3    3    0  502  0.65429027563E+02 -0.50385369998E+01 -0.60975953273E+02  0.89579078922E+02  0.00000000000E+00 0.  1.
         13    1    5    5    0    0 -0.26299661194E+02 -0.16836521825E+01  0.41544955490E+02  0.49198477520E+02  0.00000000000E+00 0. -1.
        -13    1    5    5    0    0  0.21684610844E+01  0.86591418905E+02  0.35204734768E+03  0.36254670190E+03  0.00000000000E+00 0.  1.
          4    1    6    6  503    0 -0.10545063340E+03 -0.40150604898E+02 -0.24131257087E+03  0.26639005991E+03  0.00000000000E+00 0. -1.
         -4    1    6    6    0  503 -0.16633342623E+03 -0.81160362665E+02 -0.18916004286E+03  0.26464189949E+03  0.00000000000E+00 0.  1.
<mgrwt>
<rscale>  0 0.14325677E+04</rscale>
<asrwt>0</asrwt>
<pdfrwt beam="1">  1        2 0.15896728E+00 0.14325677E+04</pdfrwt>
<pdfrwt beam="2">  1       -1 0.76389881E-01 0.14325677E+04</pdfrwt>
<totfact> 0.45713586E+01</totfact>
</mgrwt>
</event>
<event>
12    7  0.1741211E-007  0.1749993E+04  0.7818608E-02  0.8733354E-01
         -1   -1    0    0    0  501 -0.00000000000E+00  0.00000000000E+00  0.35057893412E+03  0.35057893412E+03  0.00000000000E+00 0.  1.
          2   -1    0    0  501    0  0.00000000000E+00 -0.00000000000E+00 -0.21838704490E+04  0.21838704490E+04  0.00000000000E+00 0. -1.
         24    2    1    2    0    0 -0.32239240209E+03  0.45509629906E+02  0.12713516788E+03  0.35827215013E+03  0.78661269417E+02 0.  0.
        254    2    1    2    0    0  0.32239240209E+03 -0.45509629906E+02 -0.19604266827E+04  0.21761772330E+04  0.88682951212E+03 0.  0.
         23    2    4    4    0    0  0.10486120672E+03 -0.17799369538E+03 -0.29432186004E+02  0.22633444012E+03  0.87654988125E+02 0.  0.
         23    2    4    4    0    0  0.21753119537E+03  0.13248406547E+03 -0.19309944967E+04  0.19498427928E+04  0.90968795991E+02 0.  0.
          4    1    3    3  502    0 -0.11315454535E+03 -0.63038218419E+01  0.12193729838E+02  0.11398410570E+03  0.00000000000E+00 0. -1.
         -1    1    3    3    0  502 -0.20923785674E+03  0.51813451748E+02  0.11494143804E+03  0.24428804443E+03  0.00000000000E+00 0.  1.
         13    1    5    5    0    0  0.36790831261E+02 -0.14260243582E+03 -0.25900797368E+02  0.14953217470E+03  0.00000000000E+00 0. -1.
        -13    1    5    5    0    0  0.68070375456E+02 -0.35391259558E+02 -0.35313886363E+01  0.76802265419E+02  0.00000000000E+00 0.  1.
          4    1    6    6  503    0  0.11169683660E+03  0.25865045591E+02 -0.64586947773E+03  0.65596689410E+03  0.00000000000E+00 0. -1.
         -4    1    6    6    0  503  0.10583435877E+03  0.10661901988E+03 -0.12851250190E+04  0.12938758988E+04  0.00000000000E+00 0.  1.
<mgrwt>
<rscale>  0 0.17499931E+04</rscale>
<asrwt>0</asrwt>
<pdfrwt beam="1">  1        2 0.33598007E+00 0.17499931E+04</pdfrwt>
<pdfrwt beam="2">  1       -1 0.53935220E-01 0.17499931E+04</pdfrwt>
<totfact> 0.19757404E+01</totfact>
</mgrwt>
</event>
<event>
12    7  0.1741211E-007  0.1206805E+04  0.7818608E-02  0.9106921E-01
          2   -1    0    0  501    0  0.00000000000E+00  0.00000000000E+00  0.20272192003E+03  0.20272192003E+03  0.00000000000E+00 0. -1.
         -1   -1    0    0    0  501 -0.00000000000E+00 -0.00000000000E+00 -0.17960302060E+04  0.17960302060E+04  0.00000000000E+00 0.  1.
         24    2    1    2    0    0 -0.77639872115E+02  0.12535149562E+03 -0.54340689205E+01  0.16840445013E+03  0.81176243584E+02 0.  0.
        254    2    1    2    0    0  0.77639872115E+02 -0.12535149562E+03 -0.15878742170E+04  0.18303476758E+04  0.89838028600E+03 0.  0.
         23    2    4    4    0    0  0.17565158287E+03 -0.34094295150E+03 -0.24690819625E+03  0.46563011655E+03  0.93553050820E+02 0.  0.
         23    2    4    4    0    0 -0.98011710751E+02  0.21559145588E+03 -0.13409660207E+04  0.13647175593E+04  0.90433271318E+02 0.  0.
          2    1    3    3  502    0 -0.50325730485E+02  0.11043695635E+03  0.26058677540E+02  0.12412918735E+03  0.00000000000E+00 0. -1.
         -1    1    3    3    0  502 -0.27314141630E+02  0.14914539268E+02 -0.31492746460E+02  0.44275262779E+02  0.00000000000E+00 0.  1.
         13    1    5    5    0    0  0.75191707561E+02 -0.59431484855E+02 -0.57377130421E+02  0.11170510003E+03  0.00000000000E+00 0.  1.
        -13    1    5    5    0    0  0.10045987531E+03 -0.28151146665E+03 -0.18953106583E+03  0.35392501652E+03  0.00000000000E+00 0. -1.
          4    1    6    6  503    0 -0.48792915094E+02  0.24013605664E+02 -0.35053986055E+03  0.35473313301E+03  0.00000000000E+00 0.  1.
         -4    1    6    6    0  503 -0.49218795658E+02  0.19157785022E+03 -0.99042616020E+03  0.10099844263E+04  0.00000000000E+00 0. -1.
<mgrwt>
<rscale>  0 0.12068052E+04</rscale>
<asrwt>0</asrwt>
<pdfrwt beam="1">  1        2 0.31187986E-01 0.12068052E+04</pdfrwt>
<pdfrwt beam="2">  1       -1 0.27631235E+00 0.12068052E+04</pdfrwt>
<totfact> 0.91072103E+00</totfact>
</mgrwt>
</event>
<event>
12    7  0.1741211E-007  0.1747192E+04  0.7818608E-02  0.8734897E-01
         -1   -1    0    0    0  501 -0.00000000000E+00  0.00000000000E+00  0.44977774839E+03  0.44977774839E+03  0.00000000000E+00 0.  1.
          2   -1    0    0  501    0  0.00000000000E+00 -0.00000000000E+00 -0.16967715626E+04  0.16967715626E+04  0.00000000000E+00 0. -1.
         24    2    1    2    0    0 -0.60171879235E+03  0.22535534345E+03 -0.54510064630E+03  0.84619345569E+03  0.77833887058E+02 0.  0.
        254    2    1    2    0    0  0.60171879235E+03 -0.22535534345E+03 -0.70189316787E+03  0.13003558553E+04  0.88623969404E+03 0.  0.
         23    2    4    4    0    0  0.16534581115E+03 -0.35762776097E+03  0.58958256937E+02  0.40832887393E+03  0.89551887413E+02 0.  0.
         23    2    4    4    0    0  0.43637298119E+03  0.13227241753E+03 -0.76085142481E+03  0.89202698132E+03  0.94339141481E+02 0.  0.
          2    1    3    3  502    0 -0.76175353167E+01  0.57082904269E+01 -0.24551183403E+02  0.26331958347E+02  0.00000000000E+00 0. -1.
         -1    1    3    3    0  502 -0.59410125703E+03  0.21964705302E+03 -0.52054946289E+03  0.81986149734E+03  0.00000000000E+00 0.  1.
         13    1    5    5    0    0  0.15241113629E+03 -0.32048776305E+03  0.79910151921E+02  0.36376804850E+03  0.00000000000E+00 0. -1.
        -13    1    5    5    0    0  0.12934674865E+02 -0.37139997926E+02 -0.20951894984E+02  0.44560825432E+02  0.00000000000E+00 0.  1.
          1    1    6    6  503    0  0.40231108789E+02  0.41971902604E+02 -0.75512973301E+02  0.95301583719E+02  0.00000000000E+00 0.  1.
         -1    1    6    6    0  503  0.39614187241E+03  0.90300514924E+02 -0.68533845151E+03  0.79672539760E+03  0.00000000000E+00 0. -1.
<mgrwt>
<rscale>  0 0.17471921E+04</rscale>
<asrwt>0</asrwt>
<pdfrwt beam="1">  1        2 0.26104178E+00 0.17471921E+04</pdfrwt>
<pdfrwt beam="2">  1       -1 0.69196576E-01 0.17471921E+04</pdfrwt>
<totfact> 0.22467701E+01</totfact>
</mgrwt>
</event>
<event>
12    7  0.1741211E-007  0.1819867E+04  0.7818608E-02  0.8695805E-01
         -1   -1    0    0    0  501 -0.00000000000E+00  0.00000000000E+00  0.13211027854E+04  0.13211027854E+04  0.00000000000E+00 0.  1.
          2   -1    0    0  501    0  0.00000000000E+00 -0.00000000000E+00 -0.62673335917E+03  0.62673335917E+03  0.00000000000E+00 0. -1.
         24    2    1    2    0    0  0.32239299885E+03  0.41941579990E+03 -0.20397568666E+03  0.57278688628E+03  0.81436339700E+02 0.  0.
        254    2    1    2    0    0 -0.32239299885E+03 -0.41941579990E+03  0.89834511288E+03  0.13750492583E+04  0.89659894153E+03 0.  0.
         23    2    4    4    0    0  0.75922448970E+02 -0.58641895955E+03  0.48673862015E+03  0.77120344208E+03  0.90492266850E+02 0.  0.
         23    2    4    4    0    0 -0.39831544782E+03  0.16700315965E+03  0.41160649272E+03  0.60384581619E+03  0.93083906120E+02 0.  0.
          4    1    3    3  502    0  0.21796963450E+03  0.31528813494E+03 -0.17971058070E+03  0.42333587424E+03  0.00000000000E+00 0. -1.
         -3    1    3    3    0  502  0.10442336435E+03  0.10412766496E+03 -0.24265105962E+02  0.14945101204E+03  0.00000000000E+00 0.  1.
         13    1    5    5    0    0  0.55418515836E+02 -0.33110308033E+03  0.21985736760E+03  0.40129505827E+03  0.00000000000E+00 0.  1.
        -13    1    5    5    0    0  0.20503933135E+02 -0.25531587922E+03  0.26688125255E+03  0.36990838382E+03  0.00000000000E+00 0. -1.
          1    1    6    6  503    0 -0.76806009613E+02  0.75112423405E+02  0.98101736755E+02  0.14548192333E+03  0.00000000000E+00 0. -1.
         -1    1    6    6    0  503 -0.32150943821E+03  0.91890736240E+02  0.31350475597E+03  0.45836389286E+03  0.00000000000E+00 0.  1.
<mgrwt>
<rscale>  0 0.18198672E+04</rscale>
<asrwt>0</asrwt>
<pdfrwt beam="1">  1        2 0.96420517E-01 0.18198672E+04</pdfrwt>
<pdfrwt beam="2">  1       -1 0.20324658E+00 0.18198672E+04</pdfrwt>
<totfact> 0.72362831E+00</totfact>
</mgrwt>
</event>
<event>
12    7  0.1741211E-007  0.1561367E+04  0.7818608E-02  0.8844640E-01
         -1   -1    0    0    0  501 -0.00000000000E+00  0.00000000000E+00  0.97446738746E+03  0.97446738746E+03  0.00000000000E+00 0.  1.
          2   -1    0    0  501    0  0.00000000000E+00 -0.00000000000E+00 -0.62543569737E+03  0.62543569737E+03  0.00000000000E+00 0. -1.
         24    2    1    2    0    0 -0.39985333676E+03  0.15064659312E+03 -0.18161752897E+03  0.47113718532E+03  0.80051443616E+02 0.  0.
        254    2    1    2    0    0  0.39985333676E+03 -0.15064659312E+03  0.53064921906E+03  0.11287658995E+04  0.89997043022E+03 0.  0.
         23    2    4    4    0    0  0.20020562613E+02  0.32679469446E+03  0.34436465345E+03  0.48350153329E+03  0.89393080821E+02 0.  0.
         23    2    4    4    0    0  0.37983277414E+03 -0.47744128758E+03  0.18628456562E+03  0.64526436621E+03  0.97165032387E+02 0.  0.
          2    1    3    3  502    0 -0.30582194794E+03  0.89848523332E+02 -0.16165761730E+03  0.35739754647E+03  0.00000000000E+00 0. -1.
         -1    1    3    3    0  502 -0.94031388813E+02  0.60798069788E+02 -0.19959911672E+02  0.11373963885E+03  0.00000000000E+00 0.  1.
         13    1    5    5    0    0  0.32835674838E+02  0.90414846531E+02  0.59476073166E+02  0.11309478014E+03  0.00000000000E+00 0.  1.
        -13    1    5    5    0    0 -0.12815112225E+02  0.23637984793E+03  0.28488858028E+03  0.37040675316E+03  0.00000000000E+00 0. -1.
          3    1    6    6  503    0  0.21314163957E+03 -0.32922722946E+03  0.14662815732E+03  0.41871200562E+03  0.00000000000E+00 0. -1.
         -3    1    6    6    0  503  0.16669113457E+03 -0.14821405813E+03  0.39656408299E+02  0.22655236059E+03  0.00000000000E+00 0.  1.
<mgrwt>
<rscale>  0 0.15613670E+04</rscale>
<asrwt>0</asrwt>
<pdfrwt beam="1">  1        2 0.96220876E-01 0.15613670E+04</pdfrwt>
<pdfrwt beam="2">  1       -1 0.14991806E+00 0.15613670E+04</pdfrwt>
<totfact> 0.18103044E+01</totfact>
</mgrwt>
</event>
<event>
12    7  0.1741211E-007  0.2188101E+04  0.7818608E-02  0.8523397E-01
          2   -1    0    0  501    0  0.00000000000E+00  0.00000000000E+00  0.15867486673E+04  0.15867486673E+04  0.00000000000E+00 0. -1.
         -1   -1    0    0    0  501 -0.00000000000E+00 -0.00000000000E+00 -0.75433905073E+03  0.75433905073E+03  0.00000000000E+00 0.  1.
         24    2    1    2    0    0 -0.41459048297E+02  0.84371376064E+03  0.71324489931E+03  0.11084341312E+04  0.79600089911E+02 0.  0.
        254    2    1    2    0    0  0.41459048297E+02 -0.84371376064E+03  0.11916471728E+03  0.12326535868E+04  0.88975438897E+03 0.  0.
         23    2    4    4    0    0 -0.20258021415E+03 -0.68294301748E+03  0.39593885098E+03  0.82039035032E+03  0.93930000023E+02 0.  0.
         23    2    4    4    0    0  0.24403926245E+03 -0.16077074317E+03 -0.27677413370E+03  0.41226323650E+03  0.89188909703E+02 0.  0.
          2    1    3    3  502    0 -0.38358951026E+02  0.27087090930E+03  0.19511621327E+03  0.33602499209E+03  0.00000000000E+00 0. -1.
         -1    1    3    3    0  502 -0.31000972710E+01  0.57284285134E+03  0.51812868604E+03  0.77240913914E+03  0.00000000000E+00 0.  1.
         13    1    5    5    0    0 -0.18054206628E+03 -0.66560402669E+03  0.38771363121E+03  0.79116750304E+03  0.00000000000E+00 0. -1.
        -13    1    5    5    0    0 -0.22038147871E+02 -0.17338990790E+02  0.82252197690E+01  0.29222847285E+02  0.00000000000E+00 0.  1.
          3    1    6    6  503    0  0.22406917247E+03 -0.16166459974E+03 -0.22355700809E+03  0.35541549309E+03  0.00000000000E+00 0. -1.
         -3    1    6    6    0  503  0.19970089978E+02  0.89385657885E+00 -0.53217125607E+02  0.56847743414E+02  0.00000000000E+00 0.  1.
<mgrwt>
<rscale>  0 0.21881010E+04</rscale>
<asrwt>0</asrwt>
<pdfrwt beam="1">  1        2 0.24411518E+00 0.21881010E+04</pdfrwt>
<pdfrwt beam="2">  1       -1 0.11605216E+00 0.21881010E+04</pdfrwt>
<totfact> 0.79389228E+00</totfact>
</mgrwt>
</event>
<event>
12    7  0.1741211E-007  0.1797312E+04  0.7818608E-02  0.8707730E-01
          2   -1    0    0  501    0  0.00000000000E+00  0.00000000000E+00  0.11811330973E+04  0.11811330973E+04  0.00000000000E+00 0. -1.
         -1   -1    0    0    0  501 -0.00000000000E+00 -0.00000000000E+00 -0.68373539452E+03  0.68373539452E+03  0.00000000000E+00 0.  1.
         24    2    1    2    0    0 -0.51666583456E+03 -0.27097179681E+03  0.52393781729E+03  0.78781427903E+03  0.75968431601E+02 0.  0.
        254    2    1    2    0    0  0.51666583456E+03  0.27097179681E+03 -0.26540114475E+02  0.10770542128E+04  0.90497077323E+03 0.  0.
         23    2    4    4    0    0  0.62554485538E+03 -0.34577107440E+02  0.20802338727E+03  0.66638321975E+03  0.91054508179E+02 0.  0.
         23    2    4    4    0    0 -0.10887902083E+03  0.30554890425E+03 -0.23456350174E+03  0.41067099307E+03  0.91737964507E+02 0.  0.
          4    1    3    3  502    0 -0.33299567694E+03 -0.14158609892E+03  0.29272624779E+03  0.46542604183E+03  0.00000000000E+00 0. -1.
         -3    1    3    3    0  502 -0.18367015762E+03 -0.12938569789E+03  0.23121156950E+03  0.32238823720E+03  0.00000000000E+00 0.  1.
         13    1    5    5    0    0  0.98193267606E+01 -0.13537745037E+02  0.87345577553E+01  0.18867491033E+02  0.00000000000E+00 0.  1.
        -13    1    5    5    0    0  0.61572552862E+03 -0.21039362404E+02  0.19928882951E+03  0.64751572872E+03  0.00000000000E+00 0. -1.
          4    1    6    6  503    0 -0.39394755975E+02  0.22167706243E+03 -0.18312628212E+03  0.29022043693E+03  0.00000000000E+00 0. -1.
         -4    1    6    6    0  503 -0.69484264851E+02  0.83871841817E+02 -0.51437219623E+02  0.12045055614E+03  0.00000000000E+00 0.  1.
<mgrwt>
<rscale>  0 0.17973119E+04</rscale>
<asrwt>0</asrwt>
<pdfrwt beam="1">  1        2 0.18171278E+00 0.17973119E+04</pdfrwt>
<pdfrwt beam="2">  1       -1 0.10519006E+00 0.17973119E+04</pdfrwt>
<totfact> 0.17748971E+01</totfact>
</mgrwt>
</event>
<event>
12    7  0.1741211E-007  0.1942011E+04  0.7818608E-02  0.8634223E-01
          2   -1    0    0  501    0  0.00000000000E+00  0.00000000000E+00  0.11043702629E+04  0.11043702629E+04  0.00000000000E+00 0. -1.
         -1   -1    0    0    0  501 -0.00000000000E+00 -0.00000000000E+00 -0.85374604080E+03  0.85374604080E+03  0.00000000000E+00 0.  1.
         24    2    1    2    0    0 -0.10043553481E+03  0.71102475429E+03  0.35713202166E+03  0.80507136331E+03  0.70378414724E+02 0.  0.
        254    2    1    2    0    0  0.10043553481E+03 -0.71102475429E+03 -0.10650779960E+03  0.11530449403E+04  0.89583772259E+03 0.  0.
         23    2    4    4    0    0  0.44308501502E+03 -0.64267217509E+03 -0.82251626379E+02  0.79028955165E+03  0.91871596470E+02 0.  0.
         23    2    4    4    0    0 -0.34264948020E+03 -0.68352579202E+02 -0.24256173220E+02  0.36275538870E+03  0.94458290940E+02 0.  0.
          2    1    3    3  502    0 -0.31296734366E+02  0.32513767153E+03  0.12684195732E+03  0.35040387150E+03  0.00000000000E+00 0. -1.
         -1    1    3    3    0  502 -0.69138800448E+02  0.38588708276E+03  0.23029006434E+03  0.45466749181E+03  0.00000000000E+00 0.  1.
         13    1    5    5    0    0  0.91855439161E+02 -0.79132177806E+02 -0.48717967714E+00  0.12124174451E+03  0.00000000000E+00 0.  1.
        -13    1    5    5    0    0  0.35122957585E+03 -0.56353999728E+03 -0.81764446702E+02  0.66904780714E+03  0.00000000000E+00 0. -1.
          1    1    6    6  503    0 -0.28964243585E+03 -0.28416282293E+02 -0.42021897125E+02  0.29405112750E+03  0.00000000000E+00 0. -1.
         -1    1    6    6    0  503 -0.53007044347E+02 -0.39936296908E+02  0.17765723906E+02  0.68704261200E+02  0.00000000000E+00 0.  1.
<mgrwt>
<rscale>  0 0.19420111E+04</rscale>
<asrwt>0</asrwt>
<pdfrwt beam="1">  1        2 0.16990312E+00 0.19420111E+04</pdfrwt>
<pdfrwt beam="2">  1       -1 0.13134555E+00 0.19420111E+04</pdfrwt>
<totfact> 0.11388721E+01</totfact>
</mgrwt>
</event>
<event>
12    7  0.1741211E-007  0.3895718E+04  0.7818608E-02  0.8025920E-01
         -1   -1    0    0    0  501 -0.00000000000E+00  0.00000000000E+00  0.27872271347E+04  0.27872271347E+04  0.00000000000E+00 0.  1.
          2   -1    0    0  501    0  0.00000000000E+00 -0.00000000000E+00 -0.13612648296E+04  0.13612648296E+04  0.00000000000E+00 0. -1.
         24    2    1    2    0    0  0.29264362099E+03  0.35540797192E+03 -0.12250307576E+04  0.13111640957E+04  0.80596608180E+02 0.  0.
        254    2    1    2    0    0 -0.29264362099E+03 -0.35540797192E+03  0.26509930628E+04  0.28373278686E+04  0.90039441330E+03 0.  0.
         23    2    4    4    0    0 -0.20844655694E+03 -0.19595082095E+03  0.26146644485E+04  0.26318014165E+04  0.89787672281E+02 0.  0.
         23    2    4    4    0    0 -0.84197064057E+02 -0.15945715097E+03  0.36328614262E+02  0.20552645210E+03  0.91682199518E+02 0.  0.
          4    1    3    3  502    0  0.28690159104E+03  0.34334730909E+03 -0.12140348605E+04  0.12938626434E+04  0.00000000000E+00 0. -1.
         -3    1    3    3    0  502  0.57420299551E+01  0.12060662831E+02 -0.10995897153E+02  0.17301452255E+02  0.00000000000E+00 0.  1.
         13    1    5    5    0    0 -0.16231755367E+03 -0.15202021477E+03  0.23017831108E+04  0.23125013779E+04  0.00000000000E+00 0.  1.
        -13    1    5    5    0    0 -0.46129003265E+02 -0.43930606178E+02  0.31288133779E+03  0.31930003858E+03  0.00000000000E+00 0. -1.
          4    1    6    6  503    0 -0.12608021564E+02 -0.51282358745E+01  0.32637268027E+02  0.35361734618E+02  0.00000000000E+00 0. -1.
         -4    1    6    6    0  503 -0.71589042493E+02 -0.15432891510E+03  0.36913462355E+01  0.17016471749E+03  0.00000000000E+00 0.  1.
<mgrwt>
<rscale>  0 0.38957178E+04</rscale>
<asrwt>0</asrwt>
<pdfrwt beam="1">  1        2 0.20942536E+00 0.38957178E+04</pdfrwt>
<pdfrwt beam="2">  1       -1 0.42880417E+00 0.38957178E+04</pdfrwt>
<totfact> 0.62537461E-02</totfact>
</mgrwt>
</event>
<event>
12    7  0.1741211E-007  0.1993573E+04  0.7818608E-02  0.8609631E-01
         -1   -1    0    0    0  501 -0.00000000000E+00  0.00000000000E+00  0.52008479521E+03  0.52008479521E+03  0.00000000000E+00 0.  1.
          2   -1    0    0  501    0  0.00000000000E+00 -0.00000000000E+00 -0.19104258531E+04  0.19104258531E+04  0.00000000000E+00 0. -1.
         24    2    1    2    0    0  0.36687907947E+03 -0.16164610108E+03  0.28044163456E+03  0.49625545293E+03  0.83019535179E+02 0.  0.
        254    2    1    2    0    0 -0.36687907947E+03  0.16164610108E+03 -0.16707826924E+04  0.19342551953E+04  0.88831223928E+03 0.  0.
         23    2    4    4    0    0  0.15668413474E+03  0.28440830382E+03 -0.10740987466E+04  0.11259187169E+04  0.92557216127E+02 0.  0.
         23    2    4    4    0    0 -0.52356321422E+03 -0.12276220274E+03 -0.59668394585E+03  0.80833647847E+03  0.90482780055E+02 0.  0.
          4    1    3    3  502    0  0.10724934844E+03 -0.83821016152E+02  0.69714014142E+02  0.15293276058E+03  0.00000000000E+00 0. -1.
         -3    1    3    3    0  502  0.25962973103E+03 -0.77825084932E+02  0.21072762042E+03  0.34332269236E+03  0.00000000000E+00 0.  1.
         13    1    5    5    0    0  0.15225929482E+03  0.20449344035E+03 -0.75278498769E+03  0.79478657368E+03  0.00000000000E+00 0. -1.
        -13    1    5    5    0    0  0.44248399262E+01  0.79914863469E+02 -0.32131375888E+03  0.33113214320E+03  0.00000000000E+00 0.  1.
          3    1    6    6  503    0 -0.41994984384E+03 -0.13462057565E+03 -0.48602848010E+03  0.65628062153E+03  0.00000000000E+00 0. -1.
         -3    1    6    6    0  503 -0.10361337037E+03  0.11858372909E+02 -0.11065546576E+03  0.15205585694E+03  0.00000000000E+00 0.  1.
<mgrwt>
<rscale>  0 0.19935731E+04</rscale>
<asrwt>0</asrwt>
<pdfrwt beam="1">  1        2 0.29391167E+00 0.19935731E+04</pdfrwt>
<pdfrwt beam="2">  1       -1 0.80013045E-01 0.19935731E+04</pdfrwt>
<totfact> 0.12366073E+01</totfact>
</mgrwt>
</event>
<event>
12    7  0.1741211E-007  0.2727393E+04  0.7818608E-02  0.8326171E-01
         -1   -1    0    0    0  501 -0.00000000000E+00  0.00000000000E+00  0.17047291782E+04  0.17047291782E+04  0.00000000000E+00 0.  1.
          2   -1    0    0  501    0  0.00000000000E+00 -0.00000000000E+00 -0.10908875877E+04  0.10908875877E+04  0.00000000000E+00 0. -1.
         24    2    1    2    0    0 -0.10849935359E+04  0.51471536888E+03  0.48165016476E+03  0.12963892333E+04  0.80593293445E+02 0.  0.
        254    2    1    2    0    0  0.10849935359E+04 -0.51471536888E+03  0.13219142571E+03  0.14992275326E+04  0.88773066727E+03 0.  0.
         23    2    4    4    0    0 -0.10819381623E+03 -0.30877611534E+02  0.15038807259E+03  0.20833569064E+03  0.90154638558E+02 0.  0.
         23    2    4    4    0    0  0.11931873522E+04 -0.48383775734E+03 -0.18196646877E+02  0.12908918420E+04  0.90970308267E+02 0.  0.
          4    1    3    3  502    0 -0.61725115505E+03  0.29723946839E+03  0.23186102467E+03  0.72326331633E+03  0.00000000000E+00 0. -1.
         -3    1    3    3    0  502 -0.46774238089E+03  0.21747590048E+03  0.24978914009E+03  0.57312591694E+03  0.00000000000E+00 0.  1.
         13    1    5    5    0    0 -0.21473936703E+01 -0.24086260113E+01  0.75175043718E+02  0.75244268730E+02  0.00000000000E+00 0. -1.
        -13    1    5    5    0    0 -0.10604642256E+03 -0.28468985522E+02  0.75213028871E+02  0.13309142191E+03  0.00000000000E+00 0.  1.
          3    1    6    6  503    0  0.25614960489E+03 -0.66291724499E+02  0.78162785871E+01  0.26470418779E+03  0.00000000000E+00 0. -1.
         -3    1    6    6    0  503  0.93703774727E+03 -0.41754603284E+03 -0.26012925464E+02  0.10261876542E+04  0.00000000000E+00 0.  1.
<mgrwt>
<rscale>  0 0.27273928E+04</rscale>
<asrwt>0</asrwt>
<pdfrwt beam="1">  1        2 0.16782886E+00 0.27273928E+04</pdfrwt>
<pdfrwt beam="2">  1       -1 0.26226603E+00 0.27273928E+04</pdfrwt>
<totfact> 0.12770189E+00</totfact>
</mgrwt>
</event>
<event>
12    7  0.1741211E-007  0.2300383E+04  0.7818608E-02  0.8477770E-01
          2   -1    0    0  501    0  0.00000000000E+00  0.00000000000E+00  0.17932368151E+04  0.17932368151E+04  0.00000000000E+00 0. -1.
         -1   -1    0    0    0  501 -0.00000000000E+00 -0.00000000000E+00 -0.73773865704E+03  0.73773865704E+03  0.00000000000E+00 0.  1.
         24    2    1    2    0    0 -0.89345154797E+03  0.60438507998E+02  0.80728806406E+02  0.90248247853E+03  0.77775330683E+02 0.  0.
        254    2    1    2    0    0  0.89345154797E+03 -0.60438507998E+02  0.97476935161E+03  0.16284929936E+04  0.94863357490E+03 0.  0.
         23    2    4    4    0    0  0.62350134404E+03  0.20437398652E+03  0.10413714428E+04  0.12342654009E+04  0.91836516369E+02 0.  0.
         23    2    4    4    0    0  0.26995020393E+03 -0.26481249452E+03 -0.66602091181E+02  0.39422759261E+03  0.89335247107E+02 0.  0.
          2    1    3    3  502    0 -0.82036273784E+03  0.53456989165E+02  0.52351138417E+02  0.82376775430E+03  0.00000000000E+00 0. -1.
         -1    1    3    3    0  502 -0.73088810122E+02  0.69815188334E+01  0.28377667989E+02  0.78714724231E+02  0.00000000000E+00 0.  1.
         13    1    5    5    0    0  0.43237167970E+03  0.11630580955E+03  0.77189233138E+03  0.89235087381E+03  0.00000000000E+00 0. -1.
        -13    1    5    5    0    0  0.19112966433E+03  0.88068176967E+02  0.26947911141E+03  0.34191452714E+03  0.00000000000E+00 0.  1.
          3    1    6    6  503    0  0.16474474083E+03 -0.13133523132E+03 -0.76093073611E+02  0.22400876873E+03  0.00000000000E+00 0. -1.
         -3    1    6    6    0  503  0.10520546310E+03 -0.13347726320E+03  0.94909824304E+01  0.17021882388E+03  0.00000000000E+00 0.  1.
<mgrwt>
<rscale>  0 0.23003827E+04</rscale>
<asrwt>0</asrwt>
<pdfrwt beam="1">  1        2 0.27588259E+00 0.23003827E+04</pdfrwt>
<pdfrwt beam="2">  1       -1 0.11349826E+00 0.23003827E+04</pdfrwt>
<totfact> 0.63634383E+00</totfact>
</mgrwt>
</event>
<event>
12    7  0.1741211E-007  0.2807168E+04  0.7818608E-02  0.8301046E-01
          2   -1    0    0  501    0  0.00000000000E+00  0.00000000000E+00  0.27607275184E+04  0.27607275184E+04  0.00000000000E+00 0. -1.
         -1   -1    0    0    0  501 -0.00000000000E+00 -0.00000000000E+00 -0.71359740429E+03  0.71359740429E+03  0.00000000000E+00 0.  1.
         24    2    1    2    0    0 -0.83123561690E+02 -0.40114401071E+03  0.23770591328E+04  0.24130550949E+04  0.67813907457E+02 0.  0.
        254    2    1    2    0    0  0.83123561690E+02  0.40114401071E+03 -0.32992901873E+03  0.10612698278E+04  0.92174532611E+03 0.  0.
         23    2    4    4    0    0 -0.10956446029E+03 -0.65119232372E+02  0.24481342897E+03  0.29110073207E+03  0.92526406102E+02 0.  0.
         23    2    4    4    0    0  0.19268802198E+03  0.46626324308E+03 -0.57474244770E+03  0.77016909575E+03  0.91112398717E+02 0.  0.
          2    1    3    3  502    0 -0.18177397599E+02 -0.22648385660E+03  0.11969984159E+04  0.12183720953E+04  0.00000000000E+00 0. -1.
         -1    1    3    3    0  502 -0.64946164091E+02 -0.17466015411E+03  0.11800607170E+04  0.11946829995E+04  0.00000000000E+00 0.  1.
         13    1    5    5    0    0 -0.72295683029E+02 -0.68622173283E+02  0.98728380775E+02  0.14029597863E+03  0.00000000000E+00 0. -1.
        -13    1    5    5    0    0 -0.37268777263E+02  0.35029409107E+01  0.14608504819E+03  0.15080475344E+03  0.00000000000E+00 0.  1.
          2    1    6    6  503    0  0.10178560014E+03  0.17157635420E+03 -0.17560498836E+03  0.26577408762E+03  0.00000000000E+00 0. -1.
         -2    1    6    6    0  503  0.90902421844E+02  0.29468688889E+03 -0.39913745934E+03  0.50439500813E+03  0.00000000000E+00 0.  1.
<mgrwt>
<rscale>  0 0.28071680E+04</rscale>
<asrwt>0</asrwt>
<pdfrwt beam="1">  1        2 0.42472730E+00 0.28071680E+04</pdfrwt>
<pdfrwt beam="2">  1       -1 0.10978422E+00 0.28071680E+04</pdfrwt>
<totfact> 0.18502312E+00</totfact>
</mgrwt>
</event>
<event>
12    7  0.1741211E-007  0.1322784E+04  0.7818608E-02  0.9011690E-01
         -1   -1    0    0    0  501 -0.00000000000E+00  0.00000000000E+00  0.71250814422E+03  0.71250814422E+03  0.00000000000E+00 0.  1.
          2   -1    0    0  501    0  0.00000000000E+00 -0.00000000000E+00 -0.61394328669E+03  0.61394328669E+03  0.00000000000E+00 0. -1.
         24    2    1    2    0    0  0.24259147347E+03  0.52222411446E+02 -0.19430384842E+03  0.32499209369E+03  0.79297365601E+02 0.  0.
        254    2    1    2    0    0 -0.24259147347E+03 -0.52222411446E+02  0.29286870596E+03  0.10014593372E+04  0.92497076814E+03 0.  0.
         23    2    4    4    0    0 -0.81505781898E+02  0.74204759347E+02 -0.31919666494E+03  0.34998604802E+03  0.91946637282E+02 0.  0.
         23    2    4    4    0    0 -0.16108569157E+03 -0.12642717079E+03  0.61206537089E+03  0.65147328920E+03  0.88662273511E+02 0.  0.
          2    1    3    3  502    0  0.19947451988E+03  0.22305201454E+02 -0.18232170629E+03  0.27116196392E+03  0.00000000000E+00 0. -1.
         -1    1    3    3    0  502  0.43116953594E+02  0.29917209992E+02 -0.11982142130E+02  0.53830129769E+02  0.00000000000E+00 0.  1.
         13    1    5    5    0    0 -0.63157518735E+02  0.92829549774E+02 -0.28899985263E+03  0.31004372644E+03  0.00000000000E+00 0. -1.
        -13    1    5    5    0    0 -0.18348263163E+02 -0.18624790427E+02 -0.30196812306E+02  0.39942321577E+02  0.00000000000E+00 0.  1.
          4    1    6    6  503    0 -0.49699542916E+02 -0.81855497442E+02  0.35668219890E+03  0.36931363099E+03  0.00000000000E+00 0.  1.
         -4    1    6    6    0  503 -0.11138614866E+03 -0.44571673351E+02  0.25538317200E+03  0.28215965820E+03  0.00000000000E+00 0. -1.
<mgrwt>
<rscale>  0 0.13227843E+04</rscale>
<asrwt>0</asrwt>
<pdfrwt beam="1">  1        2 0.94452813E-01 0.13227843E+04</pdfrwt>
<pdfrwt beam="2">  1       -1 0.10961664E+00 0.13227843E+04</pdfrwt>
<totfact> 0.41524177E+01</totfact>
</mgrwt>
</event>
<event>
12    7  0.1741211E-007  0.1705124E+04  0.7818608E-02  0.8758447E-01
         -1   -1    0    0    0  501 -0.00000000000E+00  0.00000000000E+00  0.11177078934E+04  0.11177078934E+04  0.00000000000E+00 0.  1.
          2   -1    0    0  501    0  0.00000000000E+00 -0.00000000000E+00 -0.65031464932E+03  0.65031464932E+03  0.00000000000E+00 0. -1.
         24    2    1    2    0    0  0.26453146594E+03 -0.44781485261E+03 -0.16208214087E+03  0.55024641432E+03  0.77365737894E+02 0.  0.
        254    2    1    2    0    0 -0.26453146594E+03  0.44781485261E+03  0.62947538494E+03  0.12177761284E+04  0.90345138216E+03 0.  0.
         23    2    4    4    0    0 -0.48747298281E+03  0.45424773116E+03  0.69592661515E+03  0.96781390873E+03  0.91536867072E+02 0.  0.
         23    2    4    4    0    0  0.22294151687E+03 -0.64328785556E+01 -0.66451230205E+02  0.24996221965E+03  0.91219753283E+02 0.  0.
          2    1    3    3  502    0  0.23230882084E+03 -0.43057742163E+03 -0.14906013237E+03  0.51145207725E+03  0.00000000000E+00 0. -1.
         -1    1    3    3    0  502  0.32222645097E+02 -0.17237430974E+02 -0.13022008500E+02  0.38794337074E+02  0.00000000000E+00 0.  1.
         13    1    5    5    0    0 -0.46191342045E+03  0.44992620802E+03  0.68123179083E+03  0.93801617977E+03  0.00000000000E+00 0. -1.
        -13    1    5    5    0    0 -0.25559562354E+02  0.43215231397E+01  0.14694824313E+02  0.29797728967E+02  0.00000000000E+00 0.  1.
          3    1    6    6  503    0  0.11876593044E+03 -0.36476515438E+02 -0.67790954778E+02  0.14153266747E+03  0.00000000000E+00 0. -1.
         -3    1    6    6    0  503  0.10417558643E+03  0.30043636882E+02  0.13397245729E+01  0.10842955218E+03  0.00000000000E+00 0.  1.
<mgrwt>
<rscale>  0 0.17051238E+04</rscale>
<asrwt>0</asrwt>
<pdfrwt beam="1">  1        2 0.10004841E+00 0.17051238E+04</pdfrwt>
<pdfrwt beam="2">  1       -1 0.17195506E+00 0.17051238E+04</pdfrwt>
<totfact> 0.11621098E+01</totfact>
</mgrwt>
</event>
<event>
12    7  0.1741211E-007  0.1987340E+04  0.7818608E-02  0.8612563E-01
         -1   -1    0    0    0  501 -0.00000000000E+00  0.00000000000E+00  0.13221347983E+04  0.13221347983E+04  0.00000000000E+00 0.  1.
          2   -1    0    0  501    0  0.00000000000E+00 -0.00000000000E+00 -0.74680728622E+03  0.74680728622E+03  0.00000000000E+00 0. -1.
         24    2    1    2    0    0  0.18437006601E+03 -0.37036753320E+03 -0.45443840435E+03  0.62004592907E+03  0.82330188406E+02 0.  0.
        254    2    1    2    0    0 -0.18437006601E+03  0.37036753320E+03  0.10297659164E+04  0.14488961555E+04  0.93151371207E+03 0.  0.
         23    2    4    4    0    0 -0.40924179156E+03  0.21502624199E+03  0.10576434993E+04  0.11581266184E+04  0.94511183812E+02 0.  0.
         23    2    4    4    0    0  0.22487172555E+03  0.15534129121E+03 -0.27877582902E+02  0.29076953706E+03  0.95244707702E+02 0.  0.
          2    1    3    3  502    0  0.16496777980E+03 -0.31261948680E+03 -0.34027365136E+03  0.49064393373E+03  0.00000000000E+00 0. -1.
         -1    1    3    3    0  502  0.19402286214E+02 -0.57748046399E+02 -0.11416475298E+03  0.12940199534E+03  0.00000000000E+00 0.  1.
         13    1    5    5    0    0 -0.71095007793E+02  0.30379073542E+00  0.14770191437E+03  0.16392207884E+03  0.00000000000E+00 0. -1.
        -13    1    5    5    0    0 -0.33814678377E+03  0.21472245126E+03  0.90994158496E+03  0.99420453957E+03  0.00000000000E+00 0.  1.
          1    1    6    6  503    0  0.78420727902E+02  0.98681245475E+02  0.17642221224E+02  0.12727547581E+03  0.00000000000E+00 0. -1.
         -1    1    6    6    0  503  0.14645099765E+03  0.56660045731E+02 -0.45519804126E+02  0.16349406125E+03  0.00000000000E+00 0.  1.
<mgrwt>
<rscale>  0 0.19873398E+04</rscale>
<asrwt>0</asrwt>
<pdfrwt beam="1">  1        2 0.11489343E+00 0.19873398E+04</pdfrwt>
<pdfrwt beam="2">  1       -1 0.20340535E+00 0.19873398E+04</pdfrwt>
<totfact> 0.57073297E+00</totfact>
</mgrwt>
</event>
<event>
12    7  0.1741211E-007  0.2535205E+04  0.7818608E-02  0.8390550E-01
          2   -1    0    0  501    0  0.00000000000E+00  0.00000000000E+00  0.16641219751E+04  0.16641219751E+04  0.00000000000E+00 0. -1.
         -1   -1    0    0    0  501 -0.00000000000E+00 -0.00000000000E+00 -0.96556424317E+03  0.96556424317E+03  0.00000000000E+00 0.  1.
         24    2    1    2    0    0 -0.37245112784E+03  0.27218473445E+02 -0.77574734838E+03  0.86509754700E+03  0.84552524367E+02 0.  0.
        254    2    1    2    0    0  0.37245112784E+03 -0.27218473445E+02  0.14743050803E+04  0.17645886713E+04  0.89483910346E+03 0.  0.
         23    2    4    4    0    0 -0.23947527882E+03 -0.17269971042E+03  0.68293831322E+03  0.74952169642E+03  0.90578333993E+02 0.  0.
         23    2    4    4    0    0  0.61192640666E+03  0.14548123697E+03  0.79136676711E+03  0.10150669749E+04  0.92091725724E+02 0.  0.
          4    1    3    3  502    0 -0.14499207912E+03  0.13790141394E+02 -0.21362915414E+03  0.25855422354E+03  0.00000000000E+00 0. -1.
         -3    1    3    3    0  502 -0.22745904872E+03  0.13428332052E+02 -0.56211819423E+03  0.60654332346E+03  0.00000000000E+00 0.  1.
         13    1    5    5    0    0 -0.24670406193E+03 -0.16993167708E+03  0.67471887095E+03  0.73823114528E+03  0.00000000000E+00 0.  1.
        -13    1    5    5    0    0  0.72287831047E+01 -0.27680333399E+01  0.82194422769E+01  0.11290551142E+02  0.00000000000E+00 0. -1.
          4    1    6    6  503    0  0.55203192285E+03  0.14914228584E+03  0.74544317845E+03  0.93950422967E+03  0.00000000000E+00 0.  1.
         -4    1    6    6    0  503  0.59894483809E+02 -0.36610488663E+01  0.45923588658E+02  0.75562745217E+02  0.00000000000E+00 0. -1.
<mgrwt>
<rscale>  0 0.25352055E+04</rscale>
<asrwt>0</asrwt>
<pdfrwt beam="1">  1        2 0.25601877E+00 0.25352055E+04</pdfrwt>
<pdfrwt beam="2">  1       -1 0.14854834E+00 0.25352055E+04</pdfrwt>
<totfact> 0.37241155E+00</totfact>
</mgrwt>
</event>
<event>
12    7  0.1741211E-007  0.1514153E+04  0.7818608E-02  0.8875095E-01
         -1   -1    0    0    0  501 -0.00000000000E+00  0.00000000000E+00  0.23282952065E+03  0.23282952065E+03  0.00000000000E+00 0.  1.
          2   -1    0    0  501    0  0.00000000000E+00 -0.00000000000E+00 -0.24617364716E+04  0.24617364716E+04  0.00000000000E+00 0. -1.
         24    2    1    2    0    0 -0.25724378093E+02  0.11883576616E+03  0.10979452959E+03  0.18203704041E+03  0.79366002846E+02 0.  0.
        254    2    1    2    0    0  0.25724378093E+02 -0.11883576616E+03 -0.23387014805E+04  0.25125289518E+04  0.91021614783E+03 0.  0.
         23    2    4    4    0    0  0.31204073749E+03 -0.13441406997E+03 -0.33184068889E+03  0.48322787612E+03  0.89187293931E+02 0.  0.
         23    2    4    4    0    0 -0.28631635940E+03  0.15578303818E+02 -0.20068607916E+04  0.20293010757E+04  0.91394078540E+02 0.  0.
          2    1    3    3  502    0 -0.26073247341E+02  0.32457426714E+01  0.37192407997E+02  0.45537064958E+02  0.00000000000E+00 0. -1.
         -1    1    3    3    0  502  0.34886924855E+00  0.11559002348E+03  0.72602121595E+02  0.13649997545E+03  0.00000000000E+00 0.  1.
         13    1    5    5    0    0  0.29414959639E+03 -0.14410463750E+03 -0.32582856553E+03  0.46201123982E+03  0.00000000000E+00 0.  1.
        -13    1    5    5    0    0  0.17891141103E+02  0.96905675218E+01 -0.60121233629E+01  0.21216636307E+02  0.00000000000E+00 0. -1.
          4    1    6    6  503    0 -0.16454268724E+03  0.46752677753E+02 -0.98562479444E+03  0.10003581080E+04  0.00000000000E+00 0. -1.
         -4    1    6    6    0  503 -0.12177367216E+03 -0.31174373935E+02 -0.10212359972E+04  0.10289429677E+04  0.00000000000E+00 0.  1.
<mgrwt>
<rscale>  0 0.15141531E+04</rscale>
<asrwt>0</asrwt>
<pdfrwt beam="1">  1        2 0.37872867E+00 0.15141531E+04</pdfrwt>
<pdfrwt beam="2">  1       -1 0.35819927E-01 0.15141531E+04</pdfrwt>
<totfact> 0.30044178E+01</totfact>
</mgrwt>
</event>
<event>
12    7  0.1741211E-007  0.1662764E+04  0.7818608E-02  0.8782891E-01
          2   -1    0    0  501    0  0.00000000000E+00  0.00000000000E+00  0.13249855422E+04  0.13249855422E+04  0.00000000000E+00 0. -1.
         -1   -1    0    0    0  501 -0.00000000000E+00 -0.00000000000E+00 -0.52166277781E+03  0.52166277781E+03  0.00000000000E+00 0.  1.
         24    2    1    2    0    0 -0.28116442341E+03 -0.20811785525E+03  0.84973321208E+03  0.92234392986E+03  0.79406036097E+02 0.  0.
        254    2    1    2    0    0  0.28116442341E+03  0.20811785525E+03 -0.46410447698E+02  0.92430439014E+03  0.85429397828E+03 0.  0.
         23    2    4    4    0    0 -0.28827608665E+03  0.70092026686E+01  0.37198866532E+02  0.30781140830E+03  0.10105382898E+03 0.  0.
         23    2    4    4    0    0  0.56944051006E+03  0.20110865258E+03 -0.83609314230E+02  0.61649298184E+03  0.91465264375E+02 0.  0.
          2    1    3    3  502    0 -0.10453230060E+03 -0.64427334481E+02  0.39732834487E+03  0.41586980767E+03  0.00000000000E+00 0. -1.
         -1    1    3    3    0  502 -0.17663212281E+03 -0.14369052077E+03  0.45240486721E+03  0.50647412219E+03  0.00000000000E+00 0.  1.
         13    1    5    5    0    0 -0.20706469958E+03 -0.65591828040E+01  0.70727994308E+02  0.21890925487E+03  0.00000000000E+00 0.  1.
        -13    1    5    5    0    0 -0.81211387077E+02  0.13568385473E+02 -0.33529127776E+02  0.88902153431E+02  0.00000000000E+00 0. -1.
          3    1    6    6  503    0  0.19951253224E+03  0.34310525771E+02 -0.13488404958E+01  0.20244575093E+03  0.00000000000E+00 0. -1.
         -3    1    6    6    0  503  0.36992797782E+03  0.16679812681E+03 -0.82260473734E+02  0.41404723091E+03  0.00000000000E+00 0.  1.
<mgrwt>
<rscale>  0 0.16627635E+04</rscale>
<asrwt>0</asrwt>
<pdfrwt beam="1">  1        2 0.20384393E+00 0.16627635E+04</pdfrwt>
<pdfrwt beam="2">  1       -1 0.80255812E-01 0.16627635E+04</pdfrwt>
<totfact> 0.26945541E+01</totfact>
</mgrwt>
</event>
<event>
12    7  0.1741211E-007  0.1633647E+04  0.7818608E-02  0.8800140E-01
         -1   -1    0    0    0  501 -0.00000000000E+00  0.00000000000E+00  0.41078308057E+03  0.41078308057E+03  0.00000000000E+00 0.  1.
          2   -1    0    0  501    0  0.00000000000E+00 -0.00000000000E+00 -0.16242172016E+04  0.16242172016E+04  0.00000000000E+00 0. -1.
         24    2    1    2    0    0 -0.22346792017E+03 -0.29345079919E+03  0.10786027254E+03  0.39208913947E+03  0.77773851726E+02 0.  0.
        254    2    1    2    0    0  0.22346792017E+03  0.29345079919E+03 -0.13212943936E+04  0.16429111427E+04  0.90403919464E+03 0.  0.
         23    2    4    4    0    0  0.19726709485E+03 -0.18127988261E+03 -0.10514153709E+04  0.10887419232E+04  0.90044381021E+02 0.  0.
         23    2    4    4    0    0  0.26200825321E+02  0.47473068180E+03 -0.26987902270E+03  0.55416921956E+03  0.90626340134E+02 0.  0.
          2    1    3    3  502    0 -0.30469242429E+02 -0.73112039828E+02 -0.20530689184E+01  0.79233579965E+02  0.00000000000E+00 0. -1.
         -1    1    3    3    0  502 -0.19299867774E+03 -0.22033875936E+03  0.10991334145E+03  0.31285555951E+03  0.00000000000E+00 0.  1.
         13    1    5    5    0    0  0.75929285254E+02 -0.11107978589E+03 -0.64335651935E+03  0.65727588285E+03  0.00000000000E+00 0.  1.
        -13    1    5    5    0    0  0.12133780959E+03 -0.70200096718E+02 -0.40805885155E+03  0.43146604031E+03  0.00000000000E+00 0. -1.
          4    1    6    6  503    0 -0.21678346820E+01  0.19748996826E+02 -0.37626947402E+02  0.42550082886E+02  0.00000000000E+00 0. -1.
         -4    1    6    6    0  503  0.28368660003E+02  0.45498168497E+03 -0.23225207530E+03  0.51161913668E+03  0.00000000000E+00 0.  1.
<mgrwt>
<rscale>  0 0.16336474E+04</rscale>
<asrwt>0</asrwt>
<pdfrwt beam="1">  1        2 0.24987957E+00 0.16336474E+04</pdfrwt>
<pdfrwt beam="2">  1       -1 0.63197397E-01 0.16336474E+04</pdfrwt>
<totfact> 0.29911031E+01</totfact>
</mgrwt>
</event>
<event>
12    7  0.1741211E-007  0.1810632E+04  0.7818608E-02  0.8700666E-01
          2   -1    0    0  501    0  0.00000000000E+00  0.00000000000E+00  0.65077462839E+03  0.65077462839E+03  0.00000000000E+00 0. -1.
         -1   -1    0    0    0  501 -0.00000000000E+00 -0.00000000000E+00 -0.12594181150E+04  0.12594181150E+04  0.00000000000E+00 0.  1.
         24    2    1    2    0    0 -0.43903646297E+03 -0.44674610470E+03  0.86030966941E+02  0.63724362947E+03  0.79643067133E+02 0.  0.
        254    2    1    2    0    0  0.43903646297E+03  0.44674610470E+03 -0.69467445360E+03  0.12729491140E+04  0.86341864260E+03 0.  0.
         23    2    4    4    0    0  0.66726797850E+03  0.44348254412E+03 -0.44820368485E+03  0.92361784614E+03  0.10129195683E+03 0.  0.
         23    2    4    4    0    0 -0.22823151553E+03  0.32635605796E+01 -0.24647076875E+03  0.34933126783E+03  0.95834332730E+02 0.  0.
          4    1    3    3  502    0 -0.43273875853E+03 -0.44905078849E+03  0.81009111172E+02  0.62886558172E+03  0.00000000000E+00 0. -1.
         -3    1    3    3    0  502 -0.62977044421E+01  0.23046837981E+01  0.50218557684E+01  0.83780477444E+01  0.00000000000E+00 0.  1.
         13    1    5    5    0    0  0.63984856964E+03  0.40387011323E+03 -0.40174261641E+03  0.85668803556E+03  0.00000000000E+00 0.  1.
        -13    1    5    5    0    0  0.27419408861E+02  0.39612430890E+02 -0.46461068445E+02  0.66929810580E+02  0.00000000000E+00 0. -1.
          3    1    6    6  503    0 -0.83915833889E+02  0.45164704326E+02 -0.11760193774E+03  0.15136688361E+03  0.00000000000E+00 0. -1.
         -3    1    6    6    0  503 -0.14431568164E+03 -0.41901143746E+02 -0.12886883101E+03  0.19796438422E+03  0.00000000000E+00 0.  1.
<mgrwt>
<rscale>  0 0.18106323E+04</rscale>
<asrwt>0</asrwt>
<pdfrwt beam="1">  1        2 0.10011917E+00 0.18106323E+04</pdfrwt>
<pdfrwt beam="2">  1       -1 0.19375663E+00 0.18106323E+04</pdfrwt>
<totfact> 0.80420593E+00</totfact>
</mgrwt>
</event>
<event>
12    7  0.1741211E-007  0.1185757E+04  0.7818608E-02  0.9125416E-01
         -1   -1    0    0    0  501 -0.00000000000E+00  0.00000000000E+00  0.13796949675E+03  0.13796949675E+03  0.00000000000E+00 0.  1.
          2   -1    0    0  501    0  0.00000000000E+00 -0.00000000000E+00 -0.25476981024E+04  0.25476981024E+04  0.00000000000E+00 0. -1.
         24    2    1    2    0    0 -0.18451480736E+03  0.12750603984E+03 -0.32570794943E+03  0.40348875349E+03  0.80087461846E+02 0.  0.
        254    2    1    2    0    0  0.18451480736E+03 -0.12750603984E+03 -0.20840206562E+04  0.22821788457E+04  0.90271517306E+03 0.  0.
         23    2    4    4    0    0 -0.19088011141E+03  0.28302863465E+03 -0.99370328676E+03  0.10547779274E+04  0.92573370834E+02 0.  0.
         23    2    4    4    0    0  0.37539491877E+03 -0.41053467449E+03 -0.10903173695E+04  0.12274009183E+04  0.90889955728E+02 0.  0.
          2    1    3    3  502    0 -0.13058896946E+03  0.82546870409E+02 -0.15470854414E+03  0.21863713863E+03  0.00000000000E+00 0. -1.
         -1    1    3    3    0  502 -0.53925837902E+02  0.44959169430E+02 -0.17099940528E+03  0.18485161486E+03  0.00000000000E+00 0.  1.
         13    1    5    5    0    0 -0.11217265337E+03  0.22226647184E+03 -0.62125822337E+03  0.66928833007E+03  0.00000000000E+00 0. -1.
        -13    1    5    5    0    0 -0.78707458047E+02  0.60762162811E+02 -0.37244506339E+03  0.38548959730E+03  0.00000000000E+00 0.  1.
          2    1    6    6  503    0  0.26497946344E+03 -0.25975262829E+03 -0.63905290055E+03  0.73896830355E+03  0.00000000000E+00 0. -1.
         -2    1    6    6    0  503  0.11041545533E+03 -0.15078204620E+03 -0.45126446893E+03  0.48843261475E+03  0.00000000000E+00 0.  1.
<mgrwt>
<rscale>  0 0.11857565E+04</rscale>
<asrwt>0</asrwt>
<pdfrwt beam="1">  1        2 0.39195353E+00 0.11857565E+04</pdfrwt>
<pdfrwt beam="2">  1       -1 0.21226078E-01 0.11857565E+04</pdfrwt>
<totfact> 0.68490884E+01</totfact>
</mgrwt>
</event>
<event>
12    7  0.1741211E-007  0.4055885E+04  0.7818608E-02  0.7993367E-01
         -1   -1    0    0    0  501 -0.00000000000E+00  0.00000000000E+00  0.12799189112E+04  0.12799189112E+04  0.00000000000E+00 0.  1.
          2   -1    0    0  501    0  0.00000000000E+00 -0.00000000000E+00 -0.32131341585E+04  0.32131341585E+04  0.00000000000E+00 0. -1.
         24    2    1    2    0    0  0.11170689544E+04 -0.68846883046E+03 -0.24819734250E+04  0.28086557358E+04  0.80762495168E+02 0.  0.
        254    2    1    2    0    0 -0.11170689544E+04  0.68846883046E+03  0.54875817765E+03  0.16843973339E+04  0.90234497911E+03 0.  0.
         23    2    4    4    0    0 -0.13355178967E+03  0.57077383729E+03  0.27125395310E+03  0.65165028536E+03  0.86316472817E+02 0.  0.
         23    2    4    4    0    0 -0.98351716475E+03  0.11769499317E+03  0.27750422455E+03  0.10327470485E+04  0.91650132346E+02 0.  0.
          2    1    3    3  502    0  0.75181835475E+03 -0.50351839484E+03 -0.17408847917E+04  0.19619993553E+04  0.00000000000E+00 0. -1.
         -1    1    3    3    0  502  0.36525059967E+03 -0.18495043561E+03 -0.74108863334E+03  0.84665638051E+03  0.00000000000E+00 0.  1.
         13    1    5    5    0    0 -0.53826294627E+01  0.14471246061E+03  0.94418739315E+02  0.17287442636E+03  0.00000000000E+00 0.  1.
        -13    1    5    5    0    0 -0.12816916021E+03  0.42606137668E+03  0.17683521379E+03  0.47877585900E+03  0.00000000000E+00 0. -1.
          1    1    6    6  503    0 -0.91978738092E+03  0.86842417165E+02  0.26114473117E+03  0.96007656056E+03  0.00000000000E+00 0. -1.
         -1    1    6    6    0  503 -0.63729783826E+02  0.30852576005E+02  0.16359493377E+02  0.72670487932E+02  0.00000000000E+00 0.  1.
<mgrwt>
<rscale>  0 0.40558852E+04</rscale>
<asrwt>0</asrwt>
<pdfrwt beam="1">  1        2 0.49432833E+00 0.40558852E+04</pdfrwt>
<pdfrwt beam="2">  1       -1 0.19691060E+00 0.40558852E+04</pdfrwt>
<totfact> 0.17903416E-01</totfact>
</mgrwt>
</event>
<event>
12    7  0.1741211E-007  0.1087695E+04  0.7818608E-02  0.9217269E-01
         -1   -1    0    0    0  501 -0.00000000000E+00  0.00000000000E+00  0.34820474276E+03  0.34820474276E+03  0.00000000000E+00 0.  1.
          2   -1    0    0  501    0  0.00000000000E+00 -0.00000000000E+00 -0.84941368026E+03  0.84941368026E+03  0.00000000000E+00 0. -1.
         24    2    1    2    0    0  0.96526505886E+02 -0.10806322720E+03 -0.15513799698E+03  0.22681254859E+03  0.79881829461E+02 0.  0.
        254    2    1    2    0    0 -0.96526505886E+02  0.10806322720E+03 -0.34607094051E+03  0.97080587443E+03  0.89537920601E+03 0.  0.
         23    2    4    4    0    0 -0.10004561572E+03  0.66108922664E+01  0.29052888462E+03  0.32051013684E+03  0.90922416944E+02 0.  0.
         23    2    4    4    0    0  0.35191098349E+01  0.10145233494E+03 -0.63659982513E+03  0.65029573759E+03  0.85558451218E+02 0.  0.
          2    1    3    3  502    0  0.80679800133E+02 -0.87838465560E+02 -0.16109197799E+03  0.20043814895E+03  0.00000000000E+00 0. -1.
         -1    1    3    3    0  502  0.15846705753E+02 -0.20224761644E+02  0.59539810043E+01  0.26374399644E+02  0.00000000000E+00 0.  1.
         13    1    5    5    0    0 -0.46047335029E+02 -0.41039680751E+02  0.10941754032E+03  0.12560577451E+03  0.00000000000E+00 0.  1.
        -13    1    5    5    0    0 -0.53998280692E+02  0.47650573017E+02  0.18111134429E+03  0.19490436234E+03  0.00000000000E+00 0. -1.
          1    1    6    6  503    0  0.63861047949E+01  0.80903712292E+02 -0.24388518005E+03  0.25703341037E+03  0.00000000000E+00 0. -1.
         -1    1    6    6    0  503 -0.28669949600E+01  0.20548622645E+02 -0.39271464508E+03  0.39326232722E+03  0.00000000000E+00 0.  1.
<mgrwt>
<rscale>  0 0.10876946E+04</rscale>
<asrwt>0</asrwt>
<pdfrwt beam="1">  1        2 0.13067903E+00 0.10876946E+04</pdfrwt>
<pdfrwt beam="2">  1       -1 0.53569961E-01 0.10876946E+04</pdfrwt>
<totfact> 0.12663339E+02</totfact>
</mgrwt>
</event>
<event>
12    7  0.1741211E-007  0.2033119E+04  0.7818608E-02  0.8591291E-01
         -1   -1    0    0    0  501 -0.00000000000E+00  0.00000000000E+00  0.11146717792E+04  0.11146717792E+04  0.00000000000E+00 0.  1.
          2   -1    0    0  501    0  0.00000000000E+00 -0.00000000000E+00 -0.92708278447E+03  0.92708278447E+03  0.00000000000E+00 0. -1.
         24    2    1    2    0    0  0.23482461785E+03 -0.64666277547E+03  0.49898734582E+03  0.85360496556E+03  0.79609795990E+02 0.  0.
        254    2    1    2    0    0 -0.23482461785E+03  0.64666277547E+03 -0.31139835110E+03  0.11881495981E+04  0.91728686248E+03 0.  0.
         23    2    4    4    0    0 -0.39382965161E+03  0.69080645784E+03  0.26956470961E+02  0.80090640216E+03  0.91700910682E+02 0.  0.
         23    2    4    4    0    0  0.15900503376E+03 -0.44143682375E+02 -0.33835482206E+03  0.38724319594E+03  0.90785691248E+02 0.  0.
          2    1    3    3  502    0  0.81165582016E+02 -0.15437750832E+03  0.95789115749E+02  0.19898698821E+03  0.00000000000E+00 0. -1.
         -3    1    3    3    0  502  0.15365903583E+03 -0.49228526714E+03  0.40319823008E+03  0.65461797736E+03  0.00000000000E+00 0.  1.
         13    1    5    5    0    0 -0.25356493578E+03  0.49957599358E+03 -0.13075464413E+02  0.56039478744E+03  0.00000000000E+00 0. -1.
        -13    1    5    5    0    0 -0.14026471583E+03  0.19123046426E+03  0.40031935375E+02  0.24051161472E+03  0.00000000000E+00 0.  1.
          1    1    6    6  503    0  0.11822943071E+03 -0.66684884452E+02 -0.28945034791E+03  0.31969763215E+03  0.00000000000E+00 0. -1.
         -1    1    6    6    0  503  0.40775603048E+02  0.22541202078E+02 -0.48904474155E+02  0.67545563788E+02  0.00000000000E+00 0.  1.
<mgrwt>
<rscale>  0 0.20331188E+04</rscale>
<asrwt>0</asrwt>
<pdfrwt beam="1">  1        2 0.14262812E+00 0.20331188E+04</pdfrwt>
<pdfrwt beam="2">  1       -1 0.17148797E+00 0.20331188E+04</pdfrwt>
<totfact> 0.71318349E+00</totfact>
</mgrwt>
</event>
<event>
12    7  0.1741211E-007  0.2203617E+04  0.7818608E-02  0.8516924E-01
         -1   -1    0    0    0  501 -0.00000000000E+00  0.00000000000E+00  0.13977302775E+04  0.13977302775E+04  0.00000000000E+00 0.  1.
          2   -1    0    0  501    0  0.00000000000E+00 -0.00000000000E+00 -0.86853819856E+03  0.86853819856E+03  0.00000000000E+00 0. -1.
         24    2    1    2    0    0 -0.84366014120E+03  0.33012947378E+03  0.36915771954E+03  0.98150755156E+03  0.79572285170E+02 0.  0.
        254    2    1    2    0    0  0.84366014120E+03 -0.33012947378E+03  0.16003435938E+03  0.12847609245E+04  0.89680083272E+03 0.  0.
         23    2    4    4    0    0  0.49495526112E+03 -0.48525642299E+03  0.41877765739E+03  0.81526041691E+03  0.93916529309E+02 0.  0.
         23    2    4    4    0    0  0.34870488008E+03  0.15512694922E+03 -0.25874329801E+03  0.46950050757E+03  0.88448677639E+02 0.  0.
          4    1    3    3  502    0 -0.73419990998E+03  0.30795480572E+03  0.30418376502E+03  0.85229891064E+03  0.00000000000E+00 0. -1.
         -3    1    3    3    0  502 -0.10946023122E+03  0.22174668063E+02  0.64973954516E+02  0.12920864092E+03  0.00000000000E+00 0.  1.
         13    1    5    5    0    0  0.15946176176E+03 -0.19291593833E+03  0.10861574910E+03  0.27284060123E+03  0.00000000000E+00 0.  1.
        -13    1    5    5    0    0  0.33549349937E+03 -0.29234048466E+03  0.31016190829E+03  0.54241981568E+03  0.00000000000E+00 0. -1.
          3    1    6    6  503    0  0.40382741976E+00 -0.72505608424E+01 -0.70490149699E+01  0.10120391354E+02  0.00000000000E+00 0. -1.
         -3    1    6    6    0  503  0.34830105266E+03  0.16237751006E+03 -0.25169428304E+03  0.45938011621E+03  0.00000000000E+00 0.  1.
<mgrwt>
<rscale>  0 0.22036172E+04</rscale>
<asrwt>0</asrwt>
<pdfrwt beam="1">  1        2 0.13362126E+00 0.22036172E+04</pdfrwt>
<pdfrwt beam="2">  1       -1 0.21503543E+00 0.22036172E+04</pdfrwt>
<totfact> 0.38168470E+00</totfact>
</mgrwt>
</event>
<event>
12    7  0.1741211E-007  0.1942164E+04  0.7818608E-02  0.8634149E-01
          2   -1    0    0  501    0  0.00000000000E+00  0.00000000000E+00  0.14619141898E+04  0.14619141898E+04  0.00000000000E+00 0. -1.
         -1   -1    0    0    0  501 -0.00000000000E+00 -0.00000000000E+00 -0.64504512243E+03  0.64504512243E+03  0.00000000000E+00 0.  1.
         24    2    1    2    0    0 -0.63650716521E+02  0.66116982260E+03  0.69458704145E+03  0.96423313692E+03  0.78086081744E+02 0.  0.
        254    2    1    2    0    0  0.63650716521E+02 -0.66116982260E+03  0.12228202593E+03  0.11427261753E+04  0.92177723440E+03 0.  0.
         23    2    4    4    0    0 -0.36703924769E+03 -0.54398124265E+03 -0.28134765924E+02  0.66310894914E+03  0.91041263604E+02 0.  0.
         23    2    4    4    0    0  0.43068996421E+03 -0.11718857994E+03  0.15041679185E+03  0.47961722617E+03  0.90445916611E+02 0.  0.
          2    1    3    3  502    0  0.25445618840E+01  0.90371841355E+02  0.62009041108E+02  0.10962967520E+03  0.00000000000E+00 0. -1.
         -1    1    3    3    0  502 -0.66195278405E+02  0.57079798124E+03  0.63257800034E+03  0.85460346173E+03  0.00000000000E+00 0.  1.
         13    1    5    5    0    0 -0.16396757199E+03 -0.17797161284E+03  0.14178968487E+02  0.24240524496E+03  0.00000000000E+00 0. -1.
        -13    1    5    5    0    0 -0.20307167570E+03 -0.36600962982E+03 -0.42313734412E+02  0.42070370418E+03  0.00000000000E+00 0.  1.
          2    1    6    6  503    0  0.48390002185E+02 -0.45566348032E+02  0.21480288599E+02  0.69851894626E+02  0.00000000000E+00 0. -1.
         -2    1    6    6    0  503  0.38229996202E+03 -0.71622231910E+02  0.12893650325E+03  0.40976533155E+03  0.00000000000E+00 0.  1.
<mgrwt>
<rscale>  0 0.19421644E+04</rscale>
<asrwt>0</asrwt>
<pdfrwt beam="1">  1        2 0.22490987E+00 0.19421644E+04</pdfrwt>
<pdfrwt beam="2">  1       -1 0.99237711E-01 0.19421644E+04</pdfrwt>
<totfact> 0.13762948E+01</totfact>
</mgrwt>
</event>
<event>
12    7  0.1741211E-007  0.1480162E+04  0.7818608E-02  0.8897753E-01
          2   -1    0    0  501    0  0.00000000000E+00  0.00000000000E+00  0.11153342937E+04  0.11153342937E+04  0.00000000000E+00 0. -1.
         -1   -1    0    0    0  501 -0.00000000000E+00 -0.00000000000E+00 -0.49108122388E+03  0.49108122388E+03  0.00000000000E+00 0.  1.
         24    2    1    2    0    0 -0.24983255488E+03 -0.37587079323E+03  0.15756859656E+03  0.48459382264E+03  0.79423873251E+02 0.  0.
        254    2    1    2    0    0  0.24983255488E+03  0.37587079323E+03  0.46668447326E+03  0.11218216949E+04  0.91487395797E+03 0.  0.
         23    2    4    4    0    0  0.22300140490E+03  0.50570904779E+03 -0.67015927473E+02  0.56424689654E+03  0.91717817840E+02 0.  0.
         23    2    4    4    0    0  0.26831149981E+02 -0.12983825456E+03  0.53370040074E+03  0.55757479840E+03  0.92063321198E+02 0.  0.
          4    1    3    3  502    0 -0.24077599795E+03 -0.33980308560E+03  0.12408415490E+03  0.43455275360E+03  0.00000000000E+00 0. -1.
         -3    1    3    3    0  502 -0.90565569329E+01 -0.36067707635E+02  0.33484441659E+02  0.50041069040E+02  0.00000000000E+00 0.  1.
         13    1    5    5    0    0  0.17570494830E+01 -0.32702087946E+01  0.31172714714E+01  0.48475632922E+01  0.00000000000E+00 0. -1.
        -13    1    5    5    0    0  0.22124435541E+03  0.50897925659E+03 -0.70133198944E+02  0.55939933324E+03  0.00000000000E+00 0.  1.
          3    1    6    6  503    0 -0.98520466314E+01  0.10275469597E+02  0.81857965172E+02  0.83086548613E+02  0.00000000000E+00 0. -1.
         -3    1    6    6    0  503  0.36683196612E+02 -0.14011372416E+03  0.45184243556E+03  0.47448824979E+03  0.00000000000E+00 0.  1.
<mgrwt>
<rscale>  0 0.14801618E+04</rscale>
<asrwt>0</asrwt>
<pdfrwt beam="1">  1        2 0.17158989E+00 0.14801618E+04</pdfrwt>
<pdfrwt beam="2">  1       -1 0.75550958E-01 0.14801618E+04</pdfrwt>
<totfact> 0.41426409E+01</totfact>
</mgrwt>
</event>
<event>
12    7  0.1741211E-007  0.1594733E+04  0.7818608E-02  0.8823790E-01
          2   -1    0    0  501    0  0.00000000000E+00  0.00000000000E+00  0.12307780808E+04  0.12307780808E+04  0.00000000000E+00 0. -1.
         -1   -1    0    0    0  501 -0.00000000000E+00 -0.00000000000E+00 -0.51657863595E+03  0.51657863595E+03  0.00000000000E+00 0.  1.
         24    2    1    2    0    0 -0.99648729470E+02  0.48741461267E+03 -0.59396964211E+02  0.50755257428E+03  0.81109446906E+02 0.  0.
        254    2    1    2    0    0  0.99648729470E+02 -0.48741461267E+03  0.77359640901E+03  0.12398041424E+04  0.83136035124E+03 0.  0.
         23    2    4    4    0    0  0.43700249472E+03 -0.12226963583E+03  0.39026099158E+03  0.60544244215E+03  0.91300958222E+02 0.  0.
         23    2    4    4    0    0 -0.33735376525E+03 -0.36514497683E+03  0.38333541743E+03  0.63436170027E+03  0.91270518175E+02 0.  0.
          2    1    3    3  502    0  0.21938479357E+01 -0.19355630902E+01 -0.35600729362E+01  0.46079813967E+01  0.00000000000E+00 0. -1.
         -1    1    3    3    0  502 -0.10184257741E+03  0.48935017576E+03 -0.55836891275E+02  0.50294459289E+03  0.00000000000E+00 0.  1.
         13    1    5    5    0    0  0.49094723990E+02  0.72372176016E+01  0.19113214112E+02  0.53178794608E+02  0.00000000000E+00 0. -1.
        -13    1    5    5    0    0  0.38790777073E+03 -0.12950685343E+03  0.37114777747E+03  0.55226364754E+03  0.00000000000E+00 0.  1.
          2    1    6    6  503    0 -0.16374827225E+03 -0.16043303367E+03  0.23232252294E+03  0.32638322510E+03  0.00000000000E+00 0. -1.
         -2    1    6    6    0  503 -0.17360549300E+03 -0.20471194316E+03  0.15101289448E+03  0.30797847518E+03  0.00000000000E+00 0.  1.
<mgrwt>
<rscale>  0 0.15947334E+04</rscale>
<asrwt>0</asrwt>
<pdfrwt beam="1">  1        2 0.18935047E+00 0.15947334E+04</pdfrwt>
<pdfrwt beam="2">  1       -1 0.79473637E-01 0.15947334E+04</pdfrwt>
<totfact> 0.31422299E+01</totfact>
</mgrwt>
</event>
<event>
12    7  0.1741211E-007  0.1281533E+04  0.7818608E-02  0.9044339E-01
          2   -1    0    0  501    0  0.00000000000E+00  0.00000000000E+00  0.15494503559E+04  0.15494503559E+04  0.00000000000E+00 0. -1.
         -1   -1    0    0    0  501 -0.00000000000E+00 -0.00000000000E+00 -0.26498558257E+03  0.26498558257E+03  0.00000000000E+00 0.  1.
         24    2    1    2    0    0  0.67719143644E+02 -0.28298140971E+03  0.15021014238E+03  0.33611655539E+03  0.75808253346E+02 0.  0.
        254    2    1    2    0    0 -0.67719143644E+02  0.28298140971E+03  0.11342546310E+04  0.14783193831E+04  0.90234708949E+03 0.  0.
         23    2    4    4    0    0 -0.39350612167E+03  0.39155820072E+03  0.50434104876E+03  0.75506387508E+03  0.87158875882E+02 0.  0.
         23    2    4    4    0    0  0.32578697802E+03 -0.10857679101E+03  0.62991358220E+03  0.72325550802E+03  0.91549627157E+02 0.  0.
          2    1    3    3  502    0  0.33274562415E+01  0.36389313933E+01 -0.19275526043E+01  0.52942653661E+01  0.00000000000E+00 0. -1.
         -1    1    3    3    0  502  0.64391687402E+02 -0.28662034110E+03  0.15213769499E+03  0.33082229002E+03  0.00000000000E+00 0.  1.
         13    1    5    5    0    0 -0.25962978473E+03  0.30565208021E+03  0.38781503900E+03  0.55788110178E+03  0.00000000000E+00 0. -1.
        -13    1    5    5    0    0 -0.13387633694E+03  0.85906120514E+02  0.11652600976E+03  0.19718277330E+03  0.00000000000E+00 0.  1.
          4    1    6    6  503    0  0.40486280110E+02  0.42071271452E+01  0.13469479615E+03  0.14071079172E+03  0.00000000000E+00 0.  1.
         -4    1    6    6    0  503  0.28530069791E+03 -0.11278391816E+03  0.49521878605E+03  0.58254471630E+03  0.00000000000E+00 0. -1.
<mgrwt>
<rscale>  0 0.12815335E+04</rscale>
<asrwt>0</asrwt>
<pdfrwt beam="1">  1        2 0.23837697E+00 0.12815335E+04</pdfrwt>
<pdfrwt beam="2">  1       -1 0.40767014E-01 0.12815335E+04</pdfrwt>
<totfact> 0.78278948E+01</totfact>
</mgrwt>
</event>
<event>
12    7  0.1741211E-007  0.2195464E+04  0.7818608E-02  0.8520319E-01
         -1   -1    0    0    0  501 -0.00000000000E+00  0.00000000000E+00  0.35158487941E+03  0.35158487941E+03  0.00000000000E+00 0.  1.
          2   -1    0    0  501    0  0.00000000000E+00 -0.00000000000E+00 -0.34273812623E+04  0.34273812623E+04  0.00000000000E+00 0. -1.
         24    2    1    2    0    0  0.74184895840E+02 -0.63956360386E+03 -0.24453498354E+04  0.25300048108E+04  0.81507809651E+02 0.  0.
        254    2    1    2    0    0 -0.74184895840E+02  0.63956360386E+03 -0.63044654751E+03  0.12489613309E+04  0.86481012640E+03 0.  0.
         23    2    4    4    0    0 -0.27549851565E+03  0.46572455306E+03 -0.76091712821E+03  0.93807975938E+03  0.90553671970E+02 0.  0.
         23    2    4    4    0    0  0.20131361981E+03  0.17383905080E+03  0.13047058070E+03  0.31088157154E+03  0.94220963662E+02 0.  0.
          4    1    3    3  502    0  0.90119487394E+02 -0.57877267808E+03 -0.21809312123E+04  0.22582206021E+04  0.00000000000E+00 0. -1.
         -3    1    3    3    0  502 -0.15934591554E+02 -0.60790925782E+02 -0.26441862308E+03  0.27178420870E+03  0.00000000000E+00 0.  1.
         13    1    5    5    0    0 -0.17263984712E+03  0.22091024623E+03 -0.43733045196E+03  0.51948414597E+03  0.00000000000E+00 0. -1.
        -13    1    5    5    0    0 -0.10285866853E+03  0.24481430683E+03 -0.32358667626E+03  0.41859561342E+03  0.00000000000E+00 0.  1.
          1    1    6    6  503    0  0.14627058128E+03  0.15532065839E+03  0.13524982991E+03  0.25261058244E+03  0.00000000000E+00 0. -1.
         -1    1    6    6    0  503  0.55043038529E+02  0.18518392409E+02 -0.47792492097E+01  0.58270989102E+02  0.00000000000E+00 0.  1.
<mgrwt>
<rscale>  0 0.21954639E+04</rscale>
<asrwt>0</asrwt>
<pdfrwt beam="1">  1        2 0.52728943E+00 0.21954639E+04</pdfrwt>
<pdfrwt beam="2">  1       -1 0.54089981E-01 0.21954639E+04</pdfrwt>
<totfact> 0.32887153E+00</totfact>
</mgrwt>
</event>
<event>
12    7  0.1741211E-007  0.3313438E+04  0.7818608E-02  0.8159485E-01
         -1   -1    0    0    0  501 -0.00000000000E+00  0.00000000000E+00  0.14471942311E+04  0.14471942311E+04  0.00000000000E+00 0.  1.
          2   -1    0    0  501    0  0.00000000000E+00 -0.00000000000E+00 -0.18965784315E+04  0.18965784315E+04  0.00000000000E+00 0. -1.
         24    2    1    2    0    0 -0.14294582051E+04  0.11628798235E+03 -0.75474270581E+03  0.16226327274E+04  0.80167081958E+02 0.  0.
        254    2    1    2    0    0  0.14294582051E+04 -0.11628798235E+03  0.30535850543E+03  0.17211399352E+04  0.90122428106E+03 0.  0.
         23    2    4    4    0    0  0.63348647952E+03 -0.11350863972E+03 -0.30110283315E+03  0.71655487233E+03  0.92728840751E+02 0.  0.
         23    2    4    4    0    0  0.79597172559E+03 -0.27793426387E+01  0.60646133858E+03  0.10045850629E+04  0.88414256183E+02 0.  0.
          2    1    3    3  502    0 -0.11246383292E+04  0.12405450559E+03 -0.59951689405E+03  0.12804770198E+04  0.00000000000E+00 0. -1.
         -1    1    3    3    0  502 -0.30481987587E+03 -0.77665232378E+01 -0.15522581176E+03  0.34215570760E+03  0.00000000000E+00 0.  1.
         13    1    5    5    0    0  0.56036582734E+03 -0.95534361067E+02 -0.29646487481E+03  0.64111472967E+03  0.00000000000E+00 0. -1.
        -13    1    5    5    0    0  0.73120652179E+02 -0.17974278648E+02 -0.46379583369E+01  0.75440142667E+02  0.00000000000E+00 0.  1.
          2    1    6    6  503    0  0.54382467288E+03 -0.38895085414E+02  0.43573444633E+03  0.69794169543E+03  0.00000000000E+00 0. -1.
         -2    1    6    6    0  503  0.25214705271E+03  0.36115742776E+02  0.17072689225E+03  0.30664336745E+03  0.00000000000E+00 0.  1.
<mgrwt>
<rscale>  0 0.33134377E+04</rscale>
<asrwt>0</asrwt>
<pdfrwt beam="1">  1        2 0.29178130E+00 0.33134377E+04</pdfrwt>
<pdfrwt beam="2">  1       -1 0.22264527E+00 0.33134377E+04</pdfrwt>
<totfact> 0.76485120E-01</totfact>
</mgrwt>
</event>
<event>
12    7  0.1741211E-007  0.1843911E+04  0.7818608E-02  0.8683290E-01
         -1   -1    0    0    0  501 -0.00000000000E+00  0.00000000000E+00  0.53781537512E+03  0.53781537512E+03  0.00000000000E+00 0.  1.
          2   -1    0    0  501    0  0.00000000000E+00 -0.00000000000E+00 -0.15804719499E+04  0.15804719499E+04  0.00000000000E+00 0. -1.
         24    2    1    2    0    0  0.51156975480E+03 -0.43791040934E+03 -0.62182718295E+03  0.92027898521E+03  0.82311751982E+02 0.  0.
        254    2    1    2    0    0 -0.51156975480E+03  0.43791040934E+03 -0.42082939180E+03  0.11980083398E+04  0.89702701439E+03 0.  0.
         23    2    4    4    0    0  0.11463079040E+03  0.37382224798E+03  0.53637065046E+02  0.40436052192E+03  0.88018212588E+02 0.  0.
         23    2    4    4    0    0 -0.62620054520E+03  0.64088161355E+02 -0.47446645684E+03  0.79364781785E+03  0.92325645875E+02 0.  0.
          2    1    3    3  502    0  0.32116712756E+03 -0.26926421044E+03 -0.33202732702E+03  0.53469026991E+03  0.00000000000E+00 0. -1.
         -1    1    3    3    0  502  0.19040262724E+03 -0.16864619890E+03 -0.28979985593E+03  0.38558871529E+03  0.00000000000E+00 0.  1.
         13    1    5    5    0    0  0.12035790200E+03  0.32061092477E+03  0.24276643006E+02  0.34331726588E+03  0.00000000000E+00 0.  1.
        -13    1    5    5    0    0 -0.57271116086E+01  0.53211323213E+02  0.29360422040E+02  0.61043256039E+02  0.00000000000E+00 0. -1.
          3    1    6    6  503    0 -0.13345571826E+03  0.17977833352E+02 -0.15146828685E+03  0.20267282291E+03  0.00000000000E+00 0. -1.
         -3    1    6    6    0  503 -0.49274482694E+03  0.46110328003E+02 -0.32299816999E+03  0.59097499494E+03  0.00000000000E+00 0.  1.
<mgrwt>
<rscale>  0 0.18439112E+04</rscale>
<asrwt>0</asrwt>
<pdfrwt beam="1">  1        2 0.24314952E+00 0.18439112E+04</pdfrwt>
<pdfrwt beam="2">  1       -1 0.82740829E-01 0.18439112E+04</pdfrwt>
<totfact> 0.17788083E+01</totfact>
</mgrwt>
</event>
<event>
12    7  0.1741211E-007  0.1831212E+04  0.7818608E-02  0.8689875E-01
          2   -1    0    0  501    0  0.00000000000E+00  0.00000000000E+00  0.40596612395E+04  0.40596612395E+04  0.00000000000E+00 0. -1.
         -1   -1    0    0    0  501 -0.00000000000E+00 -0.00000000000E+00 -0.20650354525E+03  0.20650354525E+03  0.00000000000E+00 0.  1.
         24    2    1    2    0    0  0.75111380902E+02 -0.15783561264E+03 -0.93510312423E+02  0.21359079522E+03  0.79517602550E+02 0.  0.
        254    2    1    2    0    0 -0.75111380902E+02  0.15783561264E+03  0.39466680066E+04  0.40525739895E+04  0.90366685539E+03 0.  0.
         23    2    4    4    0    0 -0.42031263415E+03  0.16703383175E+03  0.12526680845E+04  0.13348995605E+04  0.90644887078E+02 0.  0.
         23    2    4    4    0    0  0.34520125324E+03 -0.91982191166E+01  0.26939999222E+04  0.27176744289E+04  0.94181784695E+02 0.  0.
          4    1    3    3  502    0  0.34765929255E+02 -0.23869364110E+02  0.50188708660E+01  0.42468876189E+02  0.00000000000E+00 0. -1.
         -3    1    3    3    0  502  0.40345451647E+02 -0.13396624853E+03 -0.98529183289E+02  0.17112191903E+03  0.00000000000E+00 0.  1.
         13    1    5    5    0    0 -0.32639955111E+03  0.86758373956E+02  0.91646311077E+03  0.97671301610E+03  0.00000000000E+00 0. -1.
        -13    1    5    5    0    0 -0.93913083035E+02  0.80275457796E+02  0.33620497369E+03  0.35818654445E+03  0.00000000000E+00 0.  1.
          3    1    6    6  503    0  0.29583521651E+03 -0.23087792869E+02  0.24763164458E+04  0.24940318084E+04  0.00000000000E+00 0. -1.
         -3    1    6    6    0  503  0.49366036739E+02  0.13889573752E+02  0.21768347640E+03  0.22364262058E+03  0.00000000000E+00 0.  1.
<mgrwt>
<rscale>  0 0.18312121E+04</rscale>
<asrwt>0</asrwt>
<pdfrwt beam="1">  1        2 0.62456321E+00 0.18312121E+04</pdfrwt>
<pdfrwt beam="2">  1       -1 0.31769779E-01 0.18312121E+04</pdfrwt>
<totfact> 0.30676365E+00</totfact>
</mgrwt>
</event>
<event>
12    7  0.1741211E-007  0.1674211E+04  0.7818608E-02  0.8776211E-01
         -1   -1    0    0    0  501 -0.00000000000E+00  0.00000000000E+00  0.36444372501E+03  0.36444372501E+03  0.00000000000E+00 0.  1.
          2   -1    0    0  501    0  0.00000000000E+00 -0.00000000000E+00 -0.19227824963E+04  0.19227824963E+04  0.00000000000E+00 0. -1.
         24    2    1    2    0    0  0.10830881071E+03  0.56128186343E+03 -0.34508746347E+03  0.67299221876E+03  0.84053794581E+02 0.  0.
        254    2    1    2    0    0 -0.10830881071E+03 -0.56128186343E+03 -0.12132513078E+04  0.16142340025E+04  0.89833431989E+03 0.  0.
         23    2    4    4    0    0 -0.42626488921E+03 -0.49120790014E+02 -0.64991190753E+03  0.78411571767E+03  0.91309163683E+02 0.  0.
         23    2    4    4    0    0  0.31795607850E+03 -0.51216107341E+03 -0.56333940026E+03  0.83011828483E+03  0.91323895814E+02 0.  0.
          4    1    3    3  502    0  0.46921349889E+02  0.14221957651E+03 -0.12828504735E+03  0.19719298769E+03  0.00000000000E+00 0. -1.
         -3    1    3    3    0  502  0.61387460822E+02  0.41906228691E+03 -0.21680241612E+03  0.47579923108E+03  0.00000000000E+00 0.  1.
         13    1    5    5    0    0 -0.26109206850E+03 -0.85273721371E+01 -0.32131277051E+03  0.41410588115E+03  0.00000000000E+00 0. -1.
        -13    1    5    5    0    0 -0.16517282071E+03 -0.40593417877E+02 -0.32859913702E+03  0.37000983653E+03  0.00000000000E+00 0.  1.
          2    1    6    6  503    0  0.14856104279E+03 -0.30402358555E+03 -0.35451891360E+03  0.49008609867E+03  0.00000000000E+00 0. -1.
         -2    1    6    6    0  503  0.16939503571E+03 -0.20813748786E+03 -0.20882048666E+03  0.34003218616E+03  0.00000000000E+00 0.  1.
<mgrwt>
<rscale>  0 0.16742115E+04</rscale>
<asrwt>0</asrwt>
<pdfrwt beam="1">  1        2 0.29581269E+00 0.16742115E+04</pdfrwt>
<pdfrwt beam="2">  1       -1 0.56068266E-01 0.16742115E+04</pdfrwt>
<totfact> 0.25778588E+01</totfact>
</mgrwt>
</event>
<event>
12    7  0.1741211E-007  0.1259070E+04  0.7818608E-02  0.9062668E-01
          2   -1    0    0  501    0  0.00000000000E+00  0.00000000000E+00  0.42647417100E+03  0.42647417100E+03  0.00000000000E+00 0. -1.
         -1   -1    0    0    0  501 -0.00000000000E+00 -0.00000000000E+00 -0.92928031011E+03  0.92928031011E+03  0.00000000000E+00 0.  1.
         24    2    1    2    0    0  0.13525062738E+03 -0.26801189037E+03 -0.90427811090E+02  0.32379354705E+03  0.80882423961E+02 0.  0.
        254    2    1    2    0    0 -0.13525062738E+03  0.26801189037E+03 -0.41237832802E+03  0.10319609341E+04  0.89708660587E+03 0.  0.
         23    2    4    4    0    0 -0.44339664125E+03  0.97226775401E+02  0.24195188617E+02  0.46377468165E+03  0.91912571829E+02 0.  0.
         23    2    4    4    0    0  0.30814601388E+03  0.17078511497E+03 -0.43657351664E+03  0.56818625241E+03  0.90098061199E+02 0.  0.
          4    1    3    3  502    0  0.10883624689E+03 -0.24684583430E+03 -0.56023828712E+02  0.27553015067E+03  0.00000000000E+00 0. -1.
         -3    1    3    3    0  502  0.26414380483E+02 -0.21166056074E+02 -0.34403982378E+02  0.48263396373E+02  0.00000000000E+00 0.  1.
         13    1    5    5    0    0 -0.22685929039E+03  0.10581414295E+02  0.37432595988E+02  0.23017016142E+03  0.00000000000E+00 0.  1.
        -13    1    5    5    0    0 -0.21653735086E+03  0.86645361106E+02 -0.13237407371E+02  0.23360452023E+03  0.00000000000E+00 0. -1.
          3    1    6    6  503    0  0.64779797828E+02 -0.19923590947E+01 -0.88065173090E+02  0.10934288460E+03  0.00000000000E+00 0. -1.
         -3    1    6    6    0  503  0.24336621605E+03  0.17277747406E+03 -0.34850834355E+03  0.45884336781E+03  0.00000000000E+00 0.  1.
<mgrwt>
<rscale>  0 0.12590696E+04</rscale>
<asrwt>0</asrwt>
<pdfrwt beam="1">  1        2 0.65611411E-01 0.12590696E+04</pdfrwt>
<pdfrwt beam="2">  1       -1 0.14296620E+00 0.12590696E+04</pdfrwt>
<totfact> 0.32991856E+01</totfact>
</mgrwt>
</event>
<event>
12    7  0.1741211E-007  0.1977598E+04  0.7818608E-02  0.8617167E-01
         -3   -1    0    0    0  501 -0.00000000000E+00  0.00000000000E+00  0.12401799751E+04  0.12401799751E+04  0.00000000000E+00 0.  1.
          4   -1    0    0  501    0  0.00000000000E+00 -0.00000000000E+00 -0.78837185904E+03  0.78837185904E+03  0.00000000000E+00 0. -1.
         24    2    1    2    0    0  0.27153852050E+03 -0.24208293817E+03  0.89116289341E+03  0.96590156970E+03  0.80356845998E+02 0.  0.
        254    2    1    2    0    0 -0.27153852050E+03  0.24208293817E+03 -0.43935477735E+03  0.10626502644E+04  0.89657997248E+03 0.  0.
         23    2    4    4    0    0 -0.45762130488E+02  0.52593630124E+03 -0.75537486590E+02  0.54079731962E+03  0.89736633974E+02 0.  0.
         23    2    4    4    0    0 -0.22577639002E+03 -0.28385336308E+03 -0.36381729076E+03  0.52185294481E+03  0.91759277098E+02 0.  0.
          4    1    3    3  502    0  0.24567981777E+02 -0.33340785957E+02  0.51264958155E+02  0.65903639289E+02  0.00000000000E+00 0. -1.
         -3    1    3    3    0  502  0.24697053873E+03 -0.20874215221E+03  0.83989793525E+03  0.89999793041E+03  0.00000000000E+00 0.  1.
         13    1    5    5    0    0  0.21137213348E+01  0.36534034121E+03 -0.76235298338E+02  0.37321555895E+03  0.00000000000E+00 0. -1.
        -13    1    5    5    0    0 -0.47875851823E+02  0.16059596003E+03  0.69781174862E+00  0.16758176067E+03  0.00000000000E+00 0.  1.
          1    1    6    6  503    0 -0.12513620580E+03 -0.21907303263E+03 -0.27208677196E+03  0.37105697016E+03  0.00000000000E+00 0. -1.
         -1    1    6    6    0  503 -0.10064018422E+03 -0.64780330443E+02 -0.91730518808E+02  0.15079597466E+03  0.00000000000E+00 0.  1.
<mgrwt>
<rscale>  0 0.19775975E+04</rscale>
<asrwt>0</asrwt>
<pdfrwt beam="1">  1        4 0.12128798E+00 0.19775975E+04</pdfrwt>
<pdfrwt beam="2">  1       -3 0.19079692E+00 0.19775975E+04</pdfrwt>
<totfact> 0.18407157E-01</totfact>
</mgrwt>
</event>
<event>
12    7  0.1741211E-007  0.2990368E+04  0.7818608E-02  0.8246487E-01
          2   -1    0    0  501    0  0.00000000000E+00  0.00000000000E+00  0.30175066134E+04  0.30175066134E+04  0.00000000000E+00 0. -1.
         -1   -1    0    0    0  501 -0.00000000000E+00 -0.00000000000E+00 -0.74086825432E+03  0.74086825432E+03  0.00000000000E+00 0.  1.
         24    2    1    2    0    0  0.21957382853E+03  0.12747897405E+04  0.63089954402E+03  0.14406899230E+04  0.65204837284E+02 0.  0.
        254    2    1    2    0    0 -0.21957382853E+03 -0.12747897405E+04  0.16457388150E+04  0.23176849447E+04  0.99494005201E+03 0.  0.
         23    2    4    4    0    0 -0.21772904518E+03 -0.49901080359E+03  0.13903028705E+04  0.14957982320E+04  0.89736057913E+02 0.  0.
         23    2    4    4    0    0 -0.18447833519E+01 -0.77577893691E+03  0.25543594454E+03  0.82188671268E+03  0.91727229025E+02 0.  0.
          4    1    3    3  502    0  0.33879238840E+02  0.36996927289E+03  0.18324097613E+03  0.41424910505E+03  0.00000000000E+00 0. -1.
         -3    1    3    3    0  502  0.18569458969E+03  0.90482046761E+03  0.44765856790E+03  0.10264408179E+04  0.00000000000E+00 0.  1.
         13    1    5    5    0    0 -0.12160930237E+03 -0.31560822077E+03  0.96960189579E+03  0.10269007780E+04  0.00000000000E+00 0. -1.
        -13    1    5    5    0    0 -0.96119742811E+02 -0.18340258282E+03  0.42070097470E+03  0.46889745409E+03  0.00000000000E+00 0.  1.
          2    1    6    6  503    0 -0.44668406135E+02 -0.51087098556E+03  0.17034565248E+03  0.54037216038E+03  0.00000000000E+00 0. -1.
         -2    1    6    6    0  503  0.42823622783E+02 -0.26490795135E+03  0.85090292053E+02  0.28151455231E+03  0.00000000000E+00 0.  1.
<mgrwt>
<rscale>  0 0.29903678E+04</rscale>
<asrwt>0</asrwt>
<pdfrwt beam="1">  1        2 0.46423178E+00 0.29903678E+04</pdfrwt>
<pdfrwt beam="2">  1       -1 0.11397973E+00 0.29903678E+04</pdfrwt>
<totfact> 0.11580094E+00</totfact>
</mgrwt>
</event>
<event>
12    7  0.1741211E-007  0.1892218E+04  0.7818608E-02  0.8658740E-01
          2   -1    0    0  501    0  0.00000000000E+00  0.00000000000E+00  0.13335816237E+04  0.13335816237E+04  0.00000000000E+00 0. -1.
         -1   -1    0    0    0  501 -0.00000000000E+00 -0.00000000000E+00 -0.67121680733E+03  0.67121680733E+03  0.00000000000E+00 0.  1.
         24    2    1    2    0    0  0.24215061527E+03  0.45188332121E+03  0.81287068236E+03  0.96431865267E+03  0.79474909160E+02 0.  0.
        254    2    1    2    0    0 -0.24215061527E+03 -0.45188332121E+03 -0.15050586598E+03  0.10404797784E+04  0.89281056055E+03 0.  0.
         23    2    4    4    0    0  0.34632899378E+01  0.25292864186E+03 -0.10765142641E+03  0.28736823626E+03  0.83706519158E+02 0.  0.
         23    2    4    4    0    0 -0.24561390521E+03 -0.70481196307E+03 -0.42854439566E+02  0.75311154211E+03  0.90853718348E+02 0.  0.
          2    1    3    3  502    0  0.17063745052E+03  0.38204418217E+03  0.67104543152E+03  0.79080773126E+03  0.00000000000E+00 0. -1.
         -1    1    3    3    0  502  0.71513164755E+02  0.69839139041E+02  0.14182525084E+03  0.17351092142E+03  0.00000000000E+00 0.  1.
         13    1    5    5    0    0 -0.20134648983E+02  0.18668072791E+03 -0.10884901851E+03  0.21703273277E+03  0.00000000000E+00 0. -1.
        -13    1    5    5    0    0  0.23597938921E+02  0.66247913955E+02  0.11975920944E+01  0.70335503492E+02  0.00000000000E+00 0.  1.
          1    1    6    6  503    0 -0.10644735955E+03 -0.42511564914E+03 -0.36482069919E+01  0.43825525087E+03  0.00000000000E+00 0. -1.
         -1    1    6    6    0  503 -0.13916654566E+03 -0.27969631393E+03 -0.39206232575E+02  0.31485629124E+03  0.00000000000E+00 0.  1.
<mgrwt>
<rscale>  0 0.18922182E+04</rscale>
<asrwt>0</asrwt>
<pdfrwt beam="1">  1        2 0.20516640E+00 0.18922182E+04</pdfrwt>
<pdfrwt beam="2">  1       -1 0.10326412E+00 0.18922182E+04</pdfrwt>
<totfact> 0.14941984E+01</totfact>
</mgrwt>
</event>
<event>
12    7  0.1741211E-007  0.1714114E+04  0.7818608E-02  0.8753355E-01
          2   -1    0    0  501    0  0.00000000000E+00  0.00000000000E+00  0.27537534080E+04  0.27537534080E+04  0.00000000000E+00 0. -1.
         -1   -1    0    0    0  501 -0.00000000000E+00 -0.00000000000E+00 -0.26674377723E+03  0.26674377723E+03  0.00000000000E+00 0.  1.
         24    2    1    2    0    0  0.51384892536E+03  0.25071171325E+03  0.50225253888E+03  0.76535197182E+03  0.81295428528E+02 0.  0.
        254    2    1    2    0    0 -0.51384892536E+03 -0.25071171325E+03  0.19847570919E+04  0.22551452134E+04  0.90527462049E+03 0.  0.
         23    2    4    4    0    0  0.13824232163E+03 -0.71824514569E+01  0.11611758107E+04  0.11730040862E+04  0.91906450932E+02 0.  0.
         23    2    4    4    0    0 -0.65209124699E+03 -0.24352926179E+03  0.82358128118E+03  0.10821411272E+04  0.90629999271E+02 0.  0.
          4    1    3    3  502    0  0.21868106186E+03  0.63140190565E+02  0.20688670664E+03  0.30758771085E+03  0.00000000000E+00 0. -1.
         -3    1    3    3    0  502  0.29516786349E+03  0.18757152268E+03  0.29536583224E+03  0.45776426097E+03  0.00000000000E+00 0.  1.
         13    1    5    5    0    0 -0.67172292598E+01 -0.16298094129E+02  0.21782757433E+03  0.21853970161E+03  0.00000000000E+00 0. -1.
        -13    1    5    5    0    0  0.14495955089E+03  0.91156426724E+01  0.94334823641E+03  0.95446438460E+03  0.00000000000E+00 0.  1.
          3    1    6    6  503    0 -0.22706692579E+03 -0.11955562048E+03  0.25812997887E+03  0.36398354518E+03  0.00000000000E+00 0. -1.
         -3    1    6    6    0  503 -0.42502432120E+03 -0.12397364132E+03  0.56545130231E+03  0.71815758204E+03  0.00000000000E+00 0.  1.
<mgrwt>
<rscale>  0 0.17141139E+04</rscale>
<asrwt>0</asrwt>
<pdfrwt beam="1">  1        2 0.42365435E+00 0.17141139E+04</pdfrwt>
<pdfrwt beam="2">  1       -1 0.41037506E-01 0.17141139E+04</pdfrwt>
<totfact> 0.15553552E+01</totfact>
</mgrwt>
</event>
<event>
12    7  0.1741211E-007  0.1359206E+04  0.7818608E-02  0.8983888E-01
          2   -1    0    0  501    0  0.00000000000E+00  0.00000000000E+00  0.91942628386E+03  0.91942628386E+03  0.00000000000E+00 0. -1.
         -1   -1    0    0    0  501 -0.00000000000E+00 -0.00000000000E+00 -0.50233523786E+03  0.50233523786E+03  0.00000000000E+00 0.  1.
         24    2    1    2    0    0  0.14788953677E+03  0.33286686741E+03  0.20057718365E+03  0.42404949007E+03  0.83157061759E+02 0.  0.
        254    2    1    2    0    0 -0.14788953677E+03 -0.33286686741E+03  0.21651386234E+03  0.99771203166E+03  0.90326041595E+03 0.  0.
         23    2    4    4    0    0 -0.35071699576E+03  0.18507292136E+03  0.13233036425E+03  0.42884870419E+03  0.95632047190E+02 0.  0.
         23    2    4    4    0    0  0.20282745898E+03 -0.51793978877E+03  0.84183498098E+02  0.56886332747E+03  0.84368365389E+02 0.  0.
          2    1    3    3  502    0  0.12688696092E+03  0.30478866911E+03  0.20514166885E+03  0.38868951358E+03  0.00000000000E+00 0. -1.
         -1    1    3    3    0  502  0.21002575853E+02  0.28078198298E+02 -0.45644851962E+01  0.35359976488E+02  0.00000000000E+00 0.  1.
         13    1    5    5    0    0 -0.38423159724E+02 -0.82344650011E+01  0.23485666423E+02  0.45779057924E+02  0.00000000000E+00 0. -1.
        -13    1    5    5    0    0 -0.31229383603E+03  0.19330738636E+03  0.10884469782E+03  0.38306964627E+03  0.00000000000E+00 0.  1.
          2    1    6    6  503    0  0.20866572071E+03 -0.51380697212E+03  0.86663195623E+02  0.56129270178E+03  0.00000000000E+00 0.  1.
         -2    1    6    6    0  503 -0.58382617275E+01 -0.41328166484E+01 -0.24796975248E+01  0.75706256850E+01  0.00000000000E+00 0. -1.
<mgrwt>
<rscale>  0 0.13592060E+04</rscale>
<asrwt>0</asrwt>
<pdfrwt beam="1">  1        2 0.14145020E+00 0.13592060E+04</pdfrwt>
<pdfrwt beam="2">  1       -1 0.77282344E-01 0.13592060E+04</pdfrwt>
<totfact> 0.53216653E+01</totfact>
</mgrwt>
</event>
<event>
12    7  0.1741211E-007  0.2518633E+04  0.7818608E-02  0.8396377E-01
          2   -1    0    0  501    0  0.00000000000E+00  0.00000000000E+00  0.31819249742E+04  0.31819249742E+04  0.00000000000E+00 0. -1.
         -1   -1    0    0    0  501 -0.00000000000E+00 -0.00000000000E+00 -0.49840207670E+03  0.49840207670E+03  0.00000000000E+00 0.  1.
         24    2    1    2    0    0  0.81712041863E+03  0.50462032618E+03  0.39760240964E+03  0.10424640838E+04  0.79474761445E+02 0.  0.
        254    2    1    2    0    0 -0.81712041863E+03 -0.50462032618E+03  0.22859204878E+04  0.26378629671E+04  0.90031167063E+03 0.  0.
         23    2    4    4    0    0 -0.14137537055E+03 -0.18583667304E+03  0.22975782722E+02  0.25301809858E+03  0.94699562695E+02 0.  0.
         23    2    4    4    0    0 -0.67574504808E+03 -0.31878365314E+03  0.22629447051E+04  0.23848448685E+04  0.91169736849E+02 0.  0.
          2    1    3    3  502    0  0.51467619981E+03  0.28369551981E+03  0.21497099444E+03  0.62576934014E+03  0.00000000000E+00 0. -1.
         -1    1    3    3    0  502  0.30244421882E+03  0.22092480636E+03  0.18263141520E+03  0.41669474364E+03  0.00000000000E+00 0.  1.
         13    1    5    5    0    0 -0.15562620314E+03 -0.16768469417E+03  0.18599483217E+02  0.22952911044E+03  0.00000000000E+00 0. -1.
        -13    1    5    5    0    0  0.14250832596E+02 -0.18151978862E+02  0.43762995055E+01  0.23488988136E+02  0.00000000000E+00 0.  1.
          2    1    6    6  503    0 -0.47703378890E+03 -0.26581240947E+03  0.15888057694E+04  0.16800360846E+04  0.00000000000E+00 0. -1.
         -2    1    6    6    0  503 -0.19871125918E+03 -0.52971243668E+02  0.67413893574E+03  0.70480878390E+03  0.00000000000E+00 0.  1.
<mgrwt>
<rscale>  0 0.25186330E+04</rscale>
<asrwt>0</asrwt>
<pdfrwt beam="1">  1        2 0.48952691E+00 0.25186330E+04</pdfrwt>
<pdfrwt beam="2">  1       -1 0.76677245E-01 0.25186330E+04</pdfrwt>
<totfact> 0.23038226E+00</totfact>
</mgrwt>
</event>
<event>
12    7  0.1741211E-007  0.1470689E+04  0.7818608E-02  0.8904181E-01
          2   -1    0    0  501    0  0.00000000000E+00  0.00000000000E+00  0.20189904408E+04  0.20189904408E+04  0.00000000000E+00 0. -1.
         -1   -1    0    0    0  501 -0.00000000000E+00 -0.00000000000E+00 -0.26782288104E+03  0.26782288104E+03  0.00000000000E+00 0.  1.
         24    2    1    2    0    0  0.10068271401E+03  0.42697720199E+03  0.70411755133E+03  0.83337631144E+03  0.79296976343E+02 0.  0.
        254    2    1    2    0    0 -0.10068271401E+03 -0.42697720199E+03  0.10470500084E+04  0.14534370104E+04  0.90758960060E+03 0.  0.
         23    2    4    4    0    0 -0.22340781222E+03 -0.27309467161E+03 -0.19900105986E+02  0.36463978029E+03  0.89857692662E+02 0.  0.
         23    2    4    4    0    0  0.12272509822E+03 -0.15388253038E+03  0.10669501144E+04  0.10887972301E+04  0.91408854944E+02 0.  0.
          2    1    3    3  502    0  0.74921284464E+02  0.33548033782E+03  0.60640776819E+03  0.69705856085E+03  0.00000000000E+00 0. -1.
         -3    1    3    3    0  502  0.25761429541E+02  0.91496864171E+02  0.97709783142E+02  0.13631775059E+03  0.00000000000E+00 0.  1.
         13    1    5    5    0    0 -0.11657421879E+03 -0.86067314700E+02 -0.33829109045E+02  0.14880033523E+03  0.00000000000E+00 0.  1.
        -13    1    5    5    0    0 -0.10683359343E+03 -0.18702735691E+03  0.13929003059E+02  0.21583944506E+03  0.00000000000E+00 0. -1.
          1    1    6    6  503    0  0.48558066777E+02 -0.47654755127E+01  0.18941229513E+03  0.19559553459E+03  0.00000000000E+00 0. -1.
         -1    1    6    6    0  503  0.74167031438E+02 -0.14911705487E+03  0.87753781924E+03  0.89320169548E+03  0.00000000000E+00 0.  1.
<mgrwt>
<rscale>  0 0.14706894E+04</rscale>
<asrwt>0</asrwt>
<pdfrwt beam="1">  1        2 0.31061390E+00 0.14706894E+04</pdfrwt>
<pdfrwt beam="2">  1       -1 0.41203522E-01 0.14706894E+04</pdfrwt>
<totfact> 0.41503700E+01</totfact>
</mgrwt>
</event>
<event>
12    7  0.1741211E-007  0.1865808E+04  0.7818608E-02  0.8672066E-01
          2   -1    0    0  501    0  0.00000000000E+00  0.00000000000E+00  0.30398565541E+04  0.30398565541E+04  0.00000000000E+00 0. -1.
         -1   -1    0    0    0  501 -0.00000000000E+00 -0.00000000000E+00 -0.28629969664E+03  0.28629969664E+03  0.00000000000E+00 0.  1.
         24    2    1    2    0    0  0.19731451830E+03 -0.44414635743E+03  0.19846368789E+04  0.20448114500E+04  0.79191661675E+02 0.  0.
        254    2    1    2    0    0 -0.19731451830E+03  0.44414635743E+03  0.76891997854E+03  0.12813448007E+04  0.90244532180E+03 0.  0.
         23    2    4    4    0    0 -0.15172390358E+03  0.14318987253E+03  0.90715899715E+03  0.93528337572E+03  0.91071753387E+02 0.  0.
         23    2    4    4    0    0 -0.45590614716E+02  0.30095648490E+03 -0.13823901861E+03  0.34606142495E+03  0.89415734725E+02 0.  0.
          2    1    3    3  502    0  0.16801239975E+03 -0.40746233911E+03  0.18630751491E+04  0.19144980375E+04  0.00000000000E+00 0. -1.
         -1    1    3    3    0  502  0.29302118545E+02 -0.36684018321E+02  0.12156172978E+03  0.13031341258E+03  0.00000000000E+00 0.  1.
         13    1    5    5    0    0 -0.14678070664E+03  0.86536893911E+02  0.70267039126E+03  0.72303450029E+03  0.00000000000E+00 0.  1.
        -13    1    5    5    0    0 -0.49431969444E+01  0.56652978618E+02  0.20448860589E+03  0.21224887543E+03  0.00000000000E+00 0. -1.
          2    1    6    6  503    0  0.98744560968E+01  0.37047866381E+02  0.81770395666E+01  0.39203485338E+02  0.00000000000E+00 0. -1.
         -2    1    6    6    0  503 -0.55465070813E+02  0.26390861852E+03 -0.14641605818E+03  0.30685793961E+03  0.00000000000E+00 0.  1.
<mgrwt>
<rscale>  0 0.18658081E+04</rscale>
<asrwt>0</asrwt>
<pdfrwt beam="1">  1        2 0.46767022E+00 0.18658081E+04</pdfrwt>
<pdfrwt beam="2">  1       -1 0.44046109E-01 0.18658081E+04</pdfrwt>
<totfact> 0.89875610E+00</totfact>
</mgrwt>
</event>
<event>
12    7  0.1741211E-007  0.2350934E+04  0.7818608E-02  0.8458105E-01
          2   -1    0    0  501    0  0.00000000000E+00  0.00000000000E+00  0.20857819844E+04  0.20857819844E+04  0.00000000000E+00 0. -1.
         -1   -1    0    0    0  501 -0.00000000000E+00 -0.00000000000E+00 -0.66244843370E+03  0.66244843370E+03  0.00000000000E+00 0.  1.
         24    2    1    2    0    0  0.75641494701E+03  0.64525513541E+03  0.92078528164E+03  0.13574767834E+04  0.79874406052E+02 0.  0.
        254    2    1    2    0    0 -0.75641494701E+03 -0.64525513541E+03  0.50254826910E+03  0.13907536348E+04  0.83254017800E+03 0.  0.
         23    2    4    4    0    0 -0.45809839785E+03 -0.20714788154E+03  0.65632640832E+03  0.83174442825E+03  0.90939830252E+02 0.  0.
         23    2    4    4    0    0 -0.29831654916E+03 -0.43810725387E+03 -0.15377813922E+03  0.55900920651E+03  0.88954187454E+02 0.  0.
          4    1    3    3  502    0  0.59584430150E+03  0.54702249663E+03  0.76071761892E+03  0.11103852211E+04  0.00000000000E+00 0. -1.
         -3    1    3    3    0  502  0.16057064551E+03  0.98232638783E+02  0.16006766272E+03  0.24709156232E+03  0.00000000000E+00 0.  1.
         13    1    5    5    0    0 -0.27354518822E+03 -0.91449868138E+02  0.42864717371E+03  0.51665118592E+03  0.00000000000E+00 0. -1.
        -13    1    5    5    0    0 -0.18455320963E+03 -0.11569801340E+03  0.22767923461E+03  0.31509324233E+03  0.00000000000E+00 0.  1.
          1    1    6    6  503    0 -0.14697055005E+03 -0.19617051716E+03 -0.26532792299E+02  0.24655061033E+03  0.00000000000E+00 0. -1.
         -1    1    6    6    0  503 -0.15134599911E+03 -0.24193673671E+03 -0.12724534692E+03  0.31245859618E+03  0.00000000000E+00 0.  1.
<mgrwt>
<rscale>  0 0.23509343E+04</rscale>
<asrwt>0</asrwt>
<pdfrwt beam="1">  1        2 0.32088953E+00 0.23509343E+04</pdfrwt>
<pdfrwt beam="2">  1       -1 0.10191514E+00 0.23509343E+04</pdfrwt>
<totfact> 0.56090894E+00</totfact>
</mgrwt>
</event>
<event>
12    7  0.1741211E-007  0.4326776E+04  0.7818608E-02  0.7941685E-01
         -1   -1    0    0    0  501 -0.00000000000E+00  0.00000000000E+00  0.24454083224E+04  0.24454083224E+04  0.00000000000E+00 0.  1.
          2   -1    0    0  501    0  0.00000000000E+00 -0.00000000000E+00 -0.19138924532E+04  0.19138924532E+04  0.00000000000E+00 0. -1.
         24    2    1    2    0    0 -0.78259196894E+03  0.30333680797E+03  0.21594830475E+04  0.23182666921E+04  0.80808506162E+02 0.  0.
        254    2    1    2    0    0  0.78259196894E+03 -0.30333680797E+03 -0.16279671783E+04  0.20410340834E+04  0.90059957089E+03 0.  0.
         23    2    4    4    0    0 -0.15769074961E+03  0.57123083868E+02 -0.12728054531E+03  0.23154965713E+03  0.96361233292E+02 0.  0.
         23    2    4    4    0    0  0.94028271855E+03 -0.36045989184E+03 -0.15006866330E+04  0.18094844263E+04  0.90058836740E+02 0.  0.
          4    1    3    3  502    0 -0.13795717494E+03  0.62986345280E+02  0.47801669235E+03  0.50149717843E+03  0.00000000000E+00 0. -1.
         -3    1    3    3    0  502 -0.64463479400E+03  0.24035046269E+03  0.16814663551E+04  0.18167695137E+04  0.00000000000E+00 0.  1.
         13    1    5    5    0    0 -0.96401389562E+02  0.68462186015E+02 -0.12055183723E+03  0.16885805957E+03  0.00000000000E+00 0.  1.
        -13    1    5    5    0    0 -0.61289360043E+02 -0.11339102147E+02 -0.67287080810E+01  0.62691597559E+02  0.00000000000E+00 0. -1.
          4    1    6    6  503    0  0.16303144334E+03 -0.26954556536E+02 -0.24586710543E+03  0.29623712321E+03  0.00000000000E+00 0. -1.
         -4    1    6    6    0  503  0.77725127521E+03 -0.33350533530E+03 -0.12548195276E+04  0.15132473031E+04  0.00000000000E+00 0.  1.
<mgrwt>
<rscale>  0 0.43267764E+04</rscale>
<asrwt>0</asrwt>
<pdfrwt beam="1">  1        2 0.29444499E+00 0.43267764E+04</pdfrwt>
<pdfrwt beam="2">  1       -1 0.37621666E+00 0.43267764E+04</pdfrwt>
<totfact> 0.67684895E-02</totfact>
</mgrwt>
</event>
<event>
12    7  0.1741211E-007  0.2443584E+04  0.7818608E-02  0.8423364E-01
          2   -1    0    0  501    0  0.00000000000E+00  0.00000000000E+00  0.17712933039E+04  0.17712933039E+04  0.00000000000E+00 0. -1.
         -1   -1    0    0    0  501 -0.00000000000E+00 -0.00000000000E+00 -0.84276006512E+03  0.84276006512E+03  0.00000000000E+00 0.  1.
         24    2    1    2    0    0 -0.75499135318E+02  0.17308764587E+03 -0.70754005708E+03  0.73673369782E+03  0.80648351188E+02 0.  0.
        254    2    1    2    0    0  0.75499135318E+02 -0.17308764587E+03  0.16360732959E+04  0.18773196712E+04  0.90107372941E+03 0.  0.
         23    2    4    4    0    0  0.40409586966E+03 -0.23921245810E+03  0.51274618760E+03  0.70138505558E+03  0.92283645923E+02 0.  0.
         23    2    4    4    0    0 -0.32859673435E+03  0.66124812224E+02  0.11233271083E+04  0.11759346156E+04  0.92790750741E+02 0.  0.
          2    1    3    3  502    0  0.79549117530E+01  0.79693010361E+02 -0.27522113972E+03  0.28663728346E+03  0.00000000000E+00 0. -1.
         -1    1    3    3    0  502 -0.83454047071E+02  0.93394635513E+02 -0.43231891736E+03  0.45009641436E+03  0.00000000000E+00 0.  1.
         13    1    5    5    0    0  0.89847173733E+02 -0.13389584787E+02  0.11351230310E+03  0.14538513873E+03  0.00000000000E+00 0.  1.
        -13    1    5    5    0    0  0.31424869593E+03 -0.22582287331E+03  0.39923388450E+03  0.55599991685E+03  0.00000000000E+00 0. -1.
          1    1    6    6  503    0 -0.24572901869E+03  0.83065216309E+02  0.91600078760E+03  0.95201891981E+03  0.00000000000E+00 0. -1.
         -1    1    6    6    0  503 -0.82867715652E+02 -0.16940404086E+02  0.20732632067E+03  0.22391569581E+03  0.00000000000E+00 0.  1.
<mgrwt>
<rscale>  0 0.24435836E+04</rscale>
<asrwt>0</asrwt>
<pdfrwt beam="1">  1        2 0.27250666E+00 0.24435836E+04</pdfrwt>
<pdfrwt beam="2">  1       -1 0.12965540E+00 0.24435836E+04</pdfrwt>
<totfact> 0.46617562E+00</totfact>
</mgrwt>
</event>
<event>
12    7  0.1741211E-007  0.3001587E+04  0.7818608E-02  0.8243278E-01
         -1   -1    0    0    0  501 -0.00000000000E+00  0.00000000000E+00  0.79420840439E+03  0.79420840439E+03  0.00000000000E+00 0.  1.
          2   -1    0    0  501    0  0.00000000000E+00 -0.00000000000E+00 -0.28360077506E+04  0.28360077506E+04  0.00000000000E+00 0. -1.
         24    2    1    2    0    0 -0.14829226600E+03 -0.82954214737E+03  0.36803351486E+03  0.92298401164E+03  0.79498724832E+02 0.  0.
        254    2    1    2    0    0  0.14829226600E+03  0.82954214737E+03 -0.24098328611E+04  0.27072321434E+04  0.90093323245E+03 0.  0.
         23    2    4    4    0    0  0.39044582863E+02  0.99941284792E+03 -0.18451535108E+04  0.21008802624E+04  0.93572849765E+02 0.  0.
         23    2    4    4    0    0  0.10924768314E+03 -0.16987070054E+03 -0.56467935027E+03  0.60635188103E+03  0.89491473516E+02 0.  0.
          2    1    3    3  502    0 -0.78501433963E+02 -0.37067419761E+03  0.20663163635E+03  0.43157672440E+03  0.00000000000E+00 0. -1.
         -1    1    3    3    0  502 -0.69790832041E+02 -0.45886794977E+03  0.16140187852E+03  0.49140728724E+03  0.00000000000E+00 0.  1.
         13    1    5    5    0    0 -0.38619552429E+01  0.93197932655E+02 -0.12292072479E+03  0.15430578062E+03  0.00000000000E+00 0. -1.
        -13    1    5    5    0    0  0.42906538106E+02  0.90621491526E+03 -0.17222327861E+04  0.19465744818E+04  0.00000000000E+00 0.  1.
          3    1    6    6  503    0  0.30063689006E+02 -0.20510119591E+02 -0.21375371404E+03  0.21682975042E+03  0.00000000000E+00 0. -1.
         -3    1    6    6    0  503  0.79183994136E+02 -0.14936058095E+03 -0.35092563623E+03  0.38952213061E+03  0.00000000000E+00 0.  1.
<mgrwt>
<rscale>  0 0.30015870E+04</rscale>
<asrwt>0</asrwt>
<pdfrwt beam="1">  1        2 0.43630888E+00 0.30015870E+04</pdfrwt>
<pdfrwt beam="2">  1       -1 0.12218591E+00 0.30015870E+04</pdfrwt>
<totfact> 0.12657228E+00</totfact>
</mgrwt>
</event>
<event>
12    7  0.1741211E-007  0.1311466E+04  0.7818608E-02  0.9020522E-01
         -1   -1    0    0    0  501 -0.00000000000E+00  0.00000000000E+00  0.31011828870E+03  0.31011828870E+03  0.00000000000E+00 0.  1.
          2   -1    0    0  501    0  0.00000000000E+00 -0.00000000000E+00 -0.13865211954E+04  0.13865211954E+04  0.00000000000E+00 0. -1.
         24    2    1    2    0    0 -0.28863776612E+03 -0.29088753114E+02 -0.56446522220E+03  0.63949162585E+03  0.78553401414E+02 0.  0.
        254    2    1    2    0    0  0.28863776612E+03  0.29088753114E+02 -0.51193768448E+03  0.10571478582E+04  0.87825024097E+03 0.  0.
         23    2    4    4    0    0  0.55126620369E+03 -0.12141522172E+03 -0.17982325632E+03  0.59929955450E+03  0.90484634680E+02 0.  0.
         23    2    4    4    0    0 -0.26262843757E+03  0.15050397483E+03 -0.33211442816E+03  0.45784830372E+03  0.87749263078E+02 0.  0.
          2    1    3    3  502    0 -0.28464597842E+03 -0.35998469184E+02 -0.51625527739E+03  0.59062571418E+03  0.00000000000E+00 0. -1.
         -1    1    3    3    0  502 -0.39917876970E+01  0.69097160695E+01 -0.48209944806E+02  0.48865911671E+02  0.00000000000E+00 0.  1.
         13    1    5    5    0    0  0.45505068705E+03 -0.97570918006E+02 -0.18310636053E+03  0.50011913690E+03  0.00000000000E+00 0. -1.
        -13    1    5    5    0    0  0.96215516644E+02 -0.23844303713E+02  0.32831042145E+01  0.99180417603E+02  0.00000000000E+00 0.  1.
          4    1    6    6  503    0 -0.11022228576E+03  0.15091870880E+02 -0.11397927233E+03  0.15927332283E+03  0.00000000000E+00 0. -1.
         -4    1    6    6    0  503 -0.15240615181E+03  0.13541210395E+03 -0.21813515583E+03  0.29857498089E+03  0.00000000000E+00 0.  1.
<mgrwt>
<rscale>  0 0.13114657E+04</rscale>
<asrwt>0</asrwt>
<pdfrwt beam="1">  1        2 0.21331095E+00 0.13114657E+04</pdfrwt>
<pdfrwt beam="2">  1       -1 0.47710507E-01 0.13114657E+04</pdfrwt>
<totfact> 0.72119962E+01</totfact>
</mgrwt>
</event>
<event>
12    7  0.1741211E-007  0.2088479E+04  0.7818608E-02  0.8566335E-01
         -1   -1    0    0    0  501 -0.00000000000E+00  0.00000000000E+00  0.11365193132E+04  0.11365193132E+04  0.00000000000E+00 0.  1.
          2   -1    0    0  501    0  0.00000000000E+00 -0.00000000000E+00 -0.95945252070E+03  0.95945252070E+03  0.00000000000E+00 0. -1.
         24    2    1    2    0    0 -0.76720823226E+03  0.10010340726E+03  0.41861592001E+03  0.88329560052E+03  0.79640853867E+02 0.  0.
        254    2    1    2    0    0  0.76720823226E+03 -0.10010340726E+03 -0.24154912754E+03  0.12126762333E+04  0.90200249562E+03 0.  0.
         23    2    4    4    0    0  0.24963390194E+03  0.38669161549E+03 -0.79344342098E+02  0.47790046690E+03  0.10122174249E+03 0.  0.
         23    2    4    4    0    0  0.51757433032E+03 -0.48679502275E+03 -0.16220478545E+03  0.73477576645E+03  0.93447594705E+02 0.  0.
          2    1    3    3  502    0 -0.21691204754E+02 -0.67098848200E+00 -0.12965249353E+01  0.21740275208E+02  0.00000000000E+00 0. -1.
         -1    1    3    3    0  502 -0.74551702751E+03  0.10077439575E+03  0.41991244495E+03  0.86155532531E+03  0.00000000000E+00 0.  1.
         13    1    5    5    0    0  0.14894488707E+03  0.21397362187E+03  0.53796591864E+01  0.26076470423E+03  0.00000000000E+00 0. -1.
        -13    1    5    5    0    0  0.10068901487E+03  0.17271799362E+03 -0.84724001284E+02  0.21713576267E+03  0.00000000000E+00 0.  1.
          1    1    6    6  503    0  0.36073960998E+03 -0.35401572307E+03 -0.15686409839E+03  0.52921313641E+03  0.00000000000E+00 0. -1.
         -1    1    6    6    0  503  0.15683472035E+03 -0.13277929968E+03 -0.53406870552E+01  0.20556263004E+03  0.00000000000E+00 0.  1.
<mgrwt>
<rscale>  0 0.20884792E+04</rscale>
<asrwt>0</asrwt>
<pdfrwt beam="1">  1        2 0.14760808E+00 0.20884792E+04</pdfrwt>
<pdfrwt beam="2">  1       -1 0.17484912E+00 0.20884792E+04</pdfrwt>
<totfact> 0.63858168E+00</totfact>
</mgrwt>
</event>
<event>
12    7  0.1741211E-007  0.2949477E+04  0.7818608E-02  0.8258307E-01
         -1   -1    0    0    0  501 -0.00000000000E+00  0.00000000000E+00  0.85373713680E+03  0.85373713680E+03  0.00000000000E+00 0.  1.
          2   -1    0    0  501    0  0.00000000000E+00 -0.00000000000E+00 -0.25474509255E+04  0.25474509255E+04  0.00000000000E+00 0. -1.
         24    2    1    2    0    0 -0.11258973519E+04 -0.29486923356E+03 -0.15218738061E+04  0.19174621065E+04  0.77255007734E+02 0.  0.
        254    2    1    2    0    0  0.11258973519E+04  0.29486923356E+03 -0.17183998253E+03  0.14837259557E+04  0.90405808455E+03 0.  0.
         23    2    4    4    0    0  0.70914260525E+03  0.48969001585E+03 -0.40833946044E+03  0.95803002889E+03  0.91656287937E+02 0.  0.
         23    2    4    4    0    0  0.41675474666E+03 -0.19482078229E+03  0.23649947791E+03  0.52569592685E+03  0.93725921621E+02 0.  0.
          4    1    3    3  502    0 -0.79884882400E+03 -0.23342326489E+03 -0.11289251617E+04  0.14025397980E+04  0.00000000000E+00 0. -1.
         -3    1    3    3    0  502 -0.32704852790E+03 -0.61445968672E+02 -0.39294864443E+03  0.51492230853E+03  0.00000000000E+00 0.  1.
         13    1    5    5    0    0  0.16407537599E+03  0.75133845082E+02 -0.63522000592E+02  0.19131353387E+03  0.00000000000E+00 0. -1.
        -13    1    5    5    0    0  0.54506722926E+03  0.41455617076E+03 -0.34481745984E+03  0.76671649503E+03  0.00000000000E+00 0.  1.
          2    1    6    6  503    0  0.20768042740E+03 -0.11752304454E+03  0.17031368466E+03  0.29317158305E+03  0.00000000000E+00 0. -1.
         -2    1    6    6    0  503  0.20907431926E+03 -0.77297737746E+02  0.66185793247E+02  0.23252434381E+03  0.00000000000E+00 0.  1.
<mgrwt>
<rscale>  0 0.29494769E+04</rscale>
<asrwt>0</asrwt>
<pdfrwt beam="1">  1        2 0.39191552E+00 0.29494769E+04</pdfrwt>
<pdfrwt beam="2">  1       -1 0.13134418E+00 0.29494769E+04</pdfrwt>
<totfact> 0.15765147E+00</totfact>
</mgrwt>
</event>
<event>
12    7  0.1741211E-007  0.1357269E+04  0.7818608E-02  0.8985344E-01
         -1   -1    0    0    0  501 -0.00000000000E+00  0.00000000000E+00  0.56556339895E+03  0.56556339895E+03  0.00000000000E+00 0.  1.
          2   -1    0    0  501    0  0.00000000000E+00 -0.00000000000E+00 -0.81431173569E+03  0.81431173569E+03  0.00000000000E+00 0. -1.
         24    2    1    2    0    0  0.87736534317E+02  0.16183106379E+03  0.25854765888E+03  0.32766467677E+03  0.81426382870E+02 0.  0.
        254    2    1    2    0    0 -0.87736534317E+02 -0.16183106379E+03 -0.50729599562E+03  0.10522104579E+04  0.90327771357E+03 0.  0.
         23    2    4    4    0    0 -0.25827315657E+03 -0.21082977856E+03  0.14148088346E+03  0.37347900048E+03  0.91189387975E+02 0.  0.
         23    2    4    4    0    0  0.17053662226E+03  0.48998714773E+02 -0.64877687908E+03  0.67873145739E+03  0.91001861766E+02 0.  0.
          4    1    3    3  502    0  0.80083848163E+02  0.65145077620E+02  0.11643030117E+03  0.15560629456E+03  0.00000000000E+00 0. -1.
         -3    1    3    3    0  502  0.76526861544E+01  0.96685986170E+02  0.14211735771E+03  0.17205838221E+03  0.00000000000E+00 0.  1.
         13    1    5    5    0    0 -0.10989358870E+03 -0.55711635014E+02  0.90431657862E+02  0.15283413185E+03  0.00000000000E+00 0.  1.
        -13    1    5    5    0    0 -0.14837956787E+03 -0.15511814355E+03  0.51049225598E+02  0.22064486863E+03  0.00000000000E+00 0. -1.
          1    1    6    6  503    0  0.59659176386E+02  0.63899041277E+02 -0.27309233303E+03  0.28674331233E+03  0.00000000000E+00 0. -1.
         -1    1    6    6    0  503  0.11087744587E+03 -0.14900326504E+02 -0.37568454605E+03  0.39198814507E+03  0.00000000000E+00 0.  1.
<mgrwt>
<rscale>  0 0.13572692E+04</rscale>
<asrwt>0</asrwt>
<pdfrwt beam="1">  1        2 0.12527873E+00 0.13572692E+04</pdfrwt>
<pdfrwt beam="2">  1       -1 0.87009754E-01 0.13572692E+04</pdfrwt>
<totfact> 0.48801554E+01</totfact>
</mgrwt>
</event>
<event>
12    7  0.1741211E-007  0.2529205E+04  0.7818608E-02  0.8392654E-01
         -1   -1    0    0    0  501 -0.00000000000E+00  0.00000000000E+00  0.67036317404E+03  0.67036317404E+03  0.00000000000E+00 0.  1.
          2   -1    0    0  501    0  0.00000000000E+00 -0.00000000000E+00 -0.23856023553E+04  0.23856023553E+04  0.00000000000E+00 0. -1.
         24    2    1    2    0    0 -0.15803308382E+03 -0.20641544195E+03 -0.20521371614E+04  0.20700323632E+04  0.78646457320E+02 0.  0.
        254    2    1    2    0    0  0.15803308382E+03  0.20641544195E+03  0.33689798016E+03  0.98593316612E+03  0.88937178320E+03 0.  0.
         23    2    4    4    0    0  0.54879685044E+02  0.54742601130E+03  0.21869749588E+03  0.59974008476E+03  0.95773466507E+02 0.  0.
         23    2    4    4    0    0  0.10315339878E+03 -0.34101056935E+03  0.11820048428E+03  0.38619308136E+03  0.90801484107E+02 0.  0.
          4    1    3    3  502    0 -0.96327447330E+02 -0.14282330282E+03 -0.16035797363E+04  0.16128066975E+04  0.00000000000E+00 0. -1.
         -3    1    3    3    0  502 -0.61705636495E+02 -0.63592139123E+02 -0.44855742510E+03  0.45722566567E+03  0.00000000000E+00 0.  1.
         13    1    5    5    0    0  0.77640159066E+02  0.43854341351E+03  0.19407146547E+03  0.48581071782E+03  0.00000000000E+00 0. -1.
        -13    1    5    5    0    0 -0.22760474022E+02  0.10888259778E+03  0.24626030405E+02  0.11392936694E+03  0.00000000000E+00 0.  1.
          3    1    6    6  503    0  0.73069324716E+02 -0.18124338563E+03  0.10805269859E+03  0.22330176158E+03  0.00000000000E+00 0. -1.
         -3    1    6    6    0  503  0.30084074064E+02 -0.15976718372E+03  0.10147785684E+02  0.16289131978E+03  0.00000000000E+00 0.  1.
<mgrwt>
<rscale>  0 0.25292054E+04</rscale>
<asrwt>0</asrwt>
<pdfrwt beam="1">  1        2 0.36701575E+00 0.25292054E+04</pdfrwt>
<pdfrwt beam="2">  1       -1 0.10313279E+00 0.25292054E+04</pdfrwt>
<totfact> 0.36389033E+00</totfact>
</mgrwt>
</event>
<event>
12    7  0.1741211E-007  0.2489196E+04  0.7818608E-02  0.8406845E-01
         -1   -1    0    0    0  501 -0.00000000000E+00  0.00000000000E+00  0.79803238328E+03  0.79803238328E+03  0.00000000000E+00 0.  1.
          2   -1    0    0  501    0  0.00000000000E+00 -0.00000000000E+00 -0.19410540189E+04  0.19410540189E+04  0.00000000000E+00 0. -1.
         24    2    1    2    0    0 -0.96468054190E+03  0.52836742947E+03 -0.60707873321E+03  0.12588560032E+04  0.79957238839E+02 0.  0.
        254    2    1    2    0    0  0.96468054190E+03 -0.52836742947E+03 -0.53594290236E+03  0.14802303989E+04  0.83310656635E+03 0.  0.
         23    2    4    4    0    0  0.16154275299E+03  0.13458707100E+03 -0.35006194344E+03  0.41842367930E+03  0.91242919899E+02 0.  0.
         23    2    4    4    0    0  0.80313778891E+03 -0.66295450047E+03 -0.18588095893E+03  0.10618067196E+04  0.91338936438E+02 0.  0.
          4    1    3    3  502    0 -0.94110660654E+03  0.51585413324E+03 -0.57644445537E+03  0.12182263098E+04  0.00000000000E+00 0. -1.
         -3    1    3    3    0  502 -0.23573935357E+02  0.12513296227E+02 -0.30634277840E+02  0.40629693445E+02  0.00000000000E+00 0.  1.
         13    1    5    5    0    0  0.13665855758E+03  0.89380660564E+02 -0.19145630547E+03  0.25163461755E+03  0.00000000000E+00 0. -1.
        -13    1    5    5    0    0  0.24884195405E+02  0.45206410436E+02 -0.15860563796E+03  0.16678906175E+03  0.00000000000E+00 0.  1.
          2    1    6    6  503    0  0.24093049522E+03 -0.17421116132E+03 -0.90455720618E+02  0.31077205417E+03  0.00000000000E+00 0.  1.
         -2    1    6    6    0  503  0.56220729369E+03 -0.48874333915E+03 -0.95425238307E+02  0.75103466547E+03  0.00000000000E+00 0. -1.
<mgrwt>
<rscale>  0 0.24891958E+04</rscale>
<asrwt>0</asrwt>
<pdfrwt beam="1">  1        2 0.29862370E+00 0.24891958E+04</pdfrwt>
<pdfrwt beam="2">  1       -1 0.12277421E+00 0.24891958E+04</pdfrwt>
<totfact> 0.42828958E+00</totfact>
</mgrwt>
</event>
<event>
12    7  0.1741211E-007  0.1753445E+04  0.7818608E-02  0.8731456E-01
          2   -1    0    0  501    0  0.00000000000E+00  0.00000000000E+00  0.16555523786E+04  0.16555523786E+04  0.00000000000E+00 0. -1.
         -1   -1    0    0    0  501 -0.00000000000E+00 -0.00000000000E+00 -0.46428162765E+03  0.46428162765E+03  0.00000000000E+00 0.  1.
         24    2    1    2    0    0 -0.17515424883E+03 -0.27420503068E+03 -0.22652576076E+03  0.40423306886E+03  0.78886272170E+02 0.  0.
        254    2    1    2    0    0  0.17515424883E+03  0.27420503068E+03  0.14177965118E+04  0.17156009374E+04  0.90954506103E+03 0.  0.
         23    2    4    4    0    0  0.53273912596E+03  0.22363729832E+03  0.97522252994E+03  0.11369719631E+04  0.88440060693E+02 0.  0.
         23    2    4    4    0    0 -0.35758487714E+03  0.50567732360E+02  0.44257398181E+03  0.57862897437E+03  0.92280662640E+02 0.  0.
          2    1    3    3  502    0  0.69067016877E+01 -0.36294469054E+01 -0.10371903023E+02  0.12978897694E+02  0.00000000000E+00 0. -1.
         -1    1    3    3    0  502 -0.18206095051E+03 -0.27057558377E+03 -0.21615385774E+03  0.39125417116E+03  0.00000000000E+00 0.  1.
         13    1    5    5    0    0  0.14904179331E+03  0.21043563190E+02  0.25980408667E+03  0.30025730825E+03  0.00000000000E+00 0. -1.
        -13    1    5    5    0    0  0.38369733266E+03  0.20259373513E+03  0.71541844327E+03  0.83671465481E+03  0.00000000000E+00 0.  1.
          4    1    6    6  503    0 -0.18859085547E+03  0.38366632230E+02  0.30374554040E+03  0.35958290080E+03  0.00000000000E+00 0. -1.
         -4    1    6    6    0  503 -0.16899402167E+03  0.12201100130E+02  0.13882844141E+03  0.21904607357E+03  0.00000000000E+00 0.  1.
<mgrwt>
<rscale>  0 0.17534452E+04</rscale>
<asrwt>0</asrwt>
<pdfrwt beam="1">  1        2 0.25470036E+00 0.17534452E+04</pdfrwt>
<pdfrwt beam="2">  1       -1 0.71427943E-01 0.17534452E+04</pdfrwt>
<totfact> 0.22179376E+01</totfact>
</mgrwt>
</event>
<event>
12    7  0.1741211E-007  0.1601643E+04  0.7818608E-02  0.8819539E-01
          2   -1    0    0  501    0  0.00000000000E+00  0.00000000000E+00  0.99688753934E+03  0.99688753934E+03  0.00000000000E+00 0. -1.
         -1   -1    0    0    0  501 -0.00000000000E+00 -0.00000000000E+00 -0.64331770245E+03  0.64331770245E+03  0.00000000000E+00 0.  1.
         24    2    1    2    0    0 -0.16633056556E+03  0.33685659983E+03  0.52202580069E+03  0.64774304409E+03  0.76953808839E+02 0.  0.
        254    2    1    2    0    0  0.16633056556E+03 -0.33685659983E+03 -0.16845596380E+03  0.99246219771E+03  0.90303132628E+03 0.  0.
         23    2    4    4    0    0 -0.56717716409E+02  0.12659531204E+03 -0.39231349938E+03  0.42404075746E+03  0.81592951932E+02 0.  0.
         23    2    4    4    0    0  0.22304828197E+03 -0.46345191187E+03  0.22385753558E+03  0.56842144025E+03  0.91937624503E+02 0.  0.
          2    1    3    3  502    0 -0.11434109891E+03  0.29481290531E+03  0.41913983853E+03  0.52503975115E+03  0.00000000000E+00 0. -1.
         -1    1    3    3    0  502 -0.51989466644E+02  0.42043694525E+02  0.10288596216E+03  0.12270329295E+03  0.00000000000E+00 0.  1.
         13    1    5    5    0    0 -0.16972783049E+02 -0.70796276957E+00 -0.11406314261E+02  0.20461685677E+02  0.00000000000E+00 0.  1.
        -13    1    5    5    0    0 -0.39744933360E+02  0.12730327481E+03 -0.38090718512E+03  0.40357907178E+03  0.00000000000E+00 0. -1.
          2    1    6    6  503    0  0.20505658601E+03 -0.39423253787E+03  0.22232365506E+03  0.49688560553E+03  0.00000000000E+00 0. -1.
         -2    1    6    6    0  503  0.17991695959E+02 -0.69219373997E+02  0.15338805167E+01  0.71535834723E+02  0.00000000000E+00 0.  1.
<mgrwt>
<rscale>  0 0.16016434E+04</rscale>
<asrwt>0</asrwt>
<pdfrwt beam="1">  1        2 0.15336731E+00 0.16016434E+04</pdfrwt>
<pdfrwt beam="2">  1       -1 0.98971954E-01 0.16016434E+04</pdfrwt>
<totfact> 0.27021138E+01</totfact>
</mgrwt>
</event>
<event>
12    7  0.1741211E-007  0.2635874E+04  0.7818608E-02  0.8356117E-01
          2   -1    0    0  501    0  0.00000000000E+00  0.00000000000E+00  0.19573289259E+04  0.19573289259E+04  0.00000000000E+00 0. -1.
         -1   -1    0    0    0  501 -0.00000000000E+00 -0.00000000000E+00 -0.88741205667E+03  0.88741205667E+03  0.00000000000E+00 0.  1.
         24    2    1    2    0    0 -0.94325471469E+03  0.59023903769E+03  0.10833294046E+03  0.11207812295E+04  0.79391182907E+02 0.  0.
        254    2    1    2    0    0  0.94325471469E+03 -0.59023903769E+03  0.96158392876E+03  0.17239597531E+04  0.89960102261E+03 0.  0.
         23    2    4    4    0    0  0.86366549829E+03 -0.51503556606E+03  0.30884905114E+03  0.10558864118E+04  0.91261443380E+02 0.  0.
         23    2    4    4    0    0  0.79589216400E+02 -0.75203471629E+02  0.65273487762E+03  0.66807334128E+03  0.90934940191E+02 0.  0.
          2    1    3    3  502    0 -0.71660599660E+03  0.41836618988E+03  0.57068683989E+02  0.83175192088E+03  0.00000000000E+00 0. -1.
         -1    1    3    3    0  502 -0.22664871810E+03  0.17187284781E+03  0.51264256470E+02  0.28902930859E+03  0.00000000000E+00 0.  1.
         13    1    5    5    0    0  0.62878639242E+03 -0.42090371242E+03  0.23337239026E+03  0.79183011749E+03  0.00000000000E+00 0.  1.
        -13    1    5    5    0    0  0.23487910587E+03 -0.94131853642E+02  0.75476660879E+02  0.26405629434E+03  0.00000000000E+00 0. -1.
          4    1    6    6  503    0  0.40714051827E+02  0.12814519959E+02  0.13902159137E+03  0.14542643778E+03  0.00000000000E+00 0. -1.
         -4    1    6    6    0  503  0.38875164573E+02 -0.88017991588E+02  0.51371328625E+03  0.52264690350E+03  0.00000000000E+00 0.  1.
<mgrwt>
<rscale>  0 0.26358735E+04</rscale>
<asrwt>0</asrwt>
<pdfrwt beam="1">  1        2 0.30112753E+00 0.26358735E+04</pdfrwt>
<pdfrwt beam="2">  1       -1 0.13652493E+00 0.26358735E+04</pdfrwt>
<totfact> 0.31689281E+00</totfact>
</mgrwt>
</event>
<event>
12    7  0.1741211E-007  0.2190720E+04  0.7818608E-02  0.8522301E-01
         -1   -1    0    0    0  501 -0.00000000000E+00  0.00000000000E+00  0.14286127566E+04  0.14286127566E+04  0.00000000000E+00 0.  1.
          2   -1    0    0  501    0  0.00000000000E+00 -0.00000000000E+00 -0.83984523455E+03  0.83984523455E+03  0.00000000000E+00 0. -1.
         24    2    1    2    0    0 -0.38724015924E+03 -0.73861838218E+03  0.60582057561E+03  0.10344262281E+04  0.86642923659E+02 0.  0.
        254    2    1    2    0    0  0.38724015924E+03  0.73861838218E+03 -0.17053053596E+02  0.12340317630E+04  0.90941273905E+03 0.  0.
         23    2    4    4    0    0  0.37965902093E+03  0.15130255193E+03 -0.35749681187E+03  0.54998322297E+03  0.87430776367E+02 0.  0.
         23    2    4    4    0    0  0.75811383093E+01  0.58731583024E+03  0.34044375828E+03  0.68404853999E+03  0.83803904463E+02 0.  0.
          4    1    3    3  502    0 -0.33973581577E+03 -0.64571067468E+03  0.49201552430E+03  0.88002384972E+03  0.00000000000E+00 0. -1.
         -3    1    3    3    0  502 -0.47504343470E+02 -0.92907707492E+02  0.11380505131E+03  0.15440237843E+03  0.00000000000E+00 0.  1.
         13    1    5    5    0    0  0.18854402217E+03  0.12169656494E+03 -0.19915600567E+03  0.30003669244E+03  0.00000000000E+00 0. -1.
        -13    1    5    5    0    0  0.19111499876E+03  0.29605986991E+02 -0.15834080620E+03  0.24994653053E+03  0.00000000000E+00 0.  1.
          4    1    6    6  503    0  0.24881549186E+01  0.40169504036E+03  0.18669098975E+03  0.44296571201E+03  0.00000000000E+00 0.  1.
         -4    1    6    6    0  503  0.50929833907E+01  0.18562078988E+03  0.15375276853E+03  0.24108282798E+03  0.00000000000E+00 0. -1.
<mgrwt>
<rscale>  0 0.21907201E+04</rscale>
<asrwt>0</asrwt>
<pdfrwt beam="1">  1        2 0.12920696E+00 0.21907201E+04</pdfrwt>
<pdfrwt beam="2">  1       -1 0.21978658E+00 0.21907201E+04</pdfrwt>
<totfact> 0.37173179E+00</totfact>
</mgrwt>
</event>
<event>
12    7  0.1741211E-007  0.1303584E+04  0.7818608E-02  0.9026728E-01
         -1   -1    0    0    0  501 -0.00000000000E+00  0.00000000000E+00  0.32034332830E+03  0.32034332830E+03  0.00000000000E+00 0.  1.
          2   -1    0    0  501    0  0.00000000000E+00 -0.00000000000E+00 -0.13261789825E+04  0.13261789825E+04  0.00000000000E+00 0. -1.
         24    2    1    2    0    0 -0.14938053407E+03 -0.30794847222E+03 -0.17080965660E+03  0.39075674076E+03  0.79800289204E+02 0.  0.
        254    2    1    2    0    0  0.14938053407E+03  0.30794847222E+03 -0.83502599763E+03  0.12557655701E+04  0.87323075116E+03 0.  0.
         23    2    4    4    0    0  0.52246918530E+02  0.31500839825E+03  0.71882980593E+02  0.33944715894E+03  0.89984328348E+02 0.  0.
         23    2    4    4    0    0  0.97133615541E+02 -0.70599260237E+01 -0.90690897822E+03  0.91631841114E+03  0.87582840720E+02 0.  0.
          4    1    3    3  502    0  0.63027413244E+01 -0.43108626255E+02 -0.29438239069E+02  0.52580301685E+02  0.00000000000E+00 0. -1.
         -3    1    3    3    0  502 -0.15568327540E+03 -0.26483984597E+03 -0.14137141753E+03  0.33817643908E+03  0.00000000000E+00 0.  1.
         13    1    5    5    0    0  0.64466624006E+02  0.15847346457E+03  0.62545753846E+02  0.18215860097E+03  0.00000000000E+00 0.  1.
        -13    1    5    5    0    0 -0.12219705477E+02  0.15653493368E+03  0.93372267472E+01  0.15728855796E+03  0.00000000000E+00 0. -1.
          1    1    6    6  503    0  0.18536872101E+02 -0.40648636115E+02 -0.26416580892E+03  0.26791696819E+03  0.00000000000E+00 0. -1.
         -1    1    6    6    0  503  0.78596743440E+02  0.33588710092E+02 -0.64274316930E+03  0.64840144294E+03  0.00000000000E+00 0.  1.
<mgrwt>
<rscale>  0 0.13035837E+04</rscale>
<asrwt>0</asrwt>
<pdfrwt beam="1">  1        2 0.20402754E+00 0.13035837E+04</pdfrwt>
<pdfrwt beam="2">  1       -1 0.49283587E-01 0.13035837E+04</pdfrwt>
<totfact> 0.73532492E+01</totfact>
</mgrwt>
</event>
<event>
12    7  0.1741211E-007  0.1646627E+04  0.7818608E-02  0.8792404E-01
         -1   -1    0    0    0  501 -0.00000000000E+00  0.00000000000E+00  0.19131630069E+03  0.19131630069E+03  0.00000000000E+00 0.  1.
          2   -1    0    0  501    0  0.00000000000E+00 -0.00000000000E+00 -0.35430605872E+04  0.35430605872E+04  0.00000000000E+00 0. -1.
         24    2    1    2    0    0 -0.56719948081E+02 -0.80893282192E+02  0.10978145552E+03  0.16834317424E+03  0.80787255933E+02 0.  0.
        254    2    1    2    0    0  0.56719948081E+02  0.80893282192E+02 -0.34615257420E+04  0.35660337137E+04  0.85127851407E+03 0.  0.
         23    2    4    4    0    0  0.10982724854E+03  0.88699374075E+02 -0.88829838686E+02  0.19166775642E+03  0.94425553358E+02 0.  0.
         23    2    4    4    0    0 -0.53107300454E+02 -0.78060918831E+01 -0.33726959033E+04  0.33743659572E+04  0.91578580767E+02 0.  0.
          4    1    3    3  502    0 -0.19601744468E+01 -0.54684705536E+02  0.16695203143E+02  0.57210043799E+02  0.00000000000E+00 0. -1.
         -3    1    3    3    0  502 -0.54759773634E+02 -0.26208576656E+02  0.93086252379E+02  0.11113313044E+03  0.00000000000E+00 0.  1.
         13    1    5    5    0    0  0.72658983627E+02  0.10383773292E+03 -0.51307633292E+02  0.13672628099E+03  0.00000000000E+00 0.  1.
        -13    1    5    5    0    0  0.37168264908E+02 -0.15138358841E+02 -0.37522205394E+02  0.54941475429E+02  0.00000000000E+00 0. -1.
          3    1    6    6  503    0 -0.40471504106E+02  0.39843642771E+02 -0.17483925391E+04  0.17493147028E+04  0.00000000000E+00 0. -1.
         -3    1    6    6    0  503 -0.12635796349E+02 -0.47649734654E+02 -0.16243033643E+04  0.16250512545E+04  0.00000000000E+00 0.  1.
<mgrwt>
<rscale>  0 0.16466272E+04</rscale>
<asrwt>0</asrwt>
<pdfrwt beam="1">  1        2 0.54508626E+00 0.16466272E+04</pdfrwt>
<pdfrwt beam="2">  1       -1 0.29433276E-01 0.16466272E+04</pdfrwt>
<totfact> 0.88035108E+00</totfact>
</mgrwt>
</event>
<event>
12    7  0.1741211E-007  0.1367629E+04  0.7818608E-02  0.8977590E-01
          4   -1    0    0  501    0  0.00000000000E+00  0.00000000000E+00  0.15968713824E+04  0.15968713824E+04  0.00000000000E+00 0. -1.
         -3   -1    0    0    0  501 -0.00000000000E+00 -0.00000000000E+00 -0.29282386572E+03  0.29282386572E+03  0.00000000000E+00 0.  1.
         24    2    1    2    0    0  0.19058552400E+03 -0.98550439043E+01 -0.84515808483E+02  0.22140648904E+03  0.73877924021E+02 0.  0.
        254    2    1    2    0    0 -0.19058552400E+03  0.98550439043E+01  0.13885633252E+04  0.16682887591E+04  0.90479793980E+03 0.  0.
         23    2    4    4    0    0 -0.29472332123E+02  0.26971084688E+03  0.48305849054E+02  0.29058259165E+03  0.92153286580E+02 0.  0.
         23    2    4    4    0    0 -0.16111319187E+03 -0.25985580298E+03  0.13402574761E+04  0.13777061675E+04  0.91113569754E+02 0.  0.
          4    1    3    3  502    0  0.64327211567E+02  0.28551085750E+02 -0.13926193763E+02  0.71743247196E+02  0.00000000000E+00 0. -1.
         -1    1    3    3    0  502  0.12625831243E+03 -0.38406129655E+02 -0.70589614720E+02  0.14966324184E+03  0.00000000000E+00 0.  1.
         13    1    5    5    0    0 -0.14982875965E+02  0.13838155307E+03  0.71429142874E+02  0.15644827661E+03  0.00000000000E+00 0. -1.
        -13    1    5    5    0    0 -0.14489456158E+02  0.13132929381E+03 -0.23123293821E+02  0.13413431503E+03  0.00000000000E+00 0.  1.
          3    1    6    6  503    0 -0.16187270963E+03 -0.26304260086E+03  0.13390597492E+04  0.13742180308E+04  0.00000000000E+00 0.  1.
         -3    1    6    6    0  503  0.75951776051E+00  0.31867978856E+01  0.11977268838E+01  0.34881367061E+01  0.00000000000E+00 0. -1.
<mgrwt>
<rscale>  0 0.13676287E+04</rscale>
<asrwt>0</asrwt>
<pdfrwt beam="1">  1        4 0.24567252E+00 0.13676287E+04</pdfrwt>
<pdfrwt beam="2">  1       -3 0.45049826E-01 0.13676287E+04</pdfrwt>
<totfact> 0.73688982E-01</totfact>
</mgrwt>
</event>
<event>
12    7  0.1741211E-007  0.1717605E+04  0.7818608E-02  0.8751387E-01
         -1   -1    0    0    0  501 -0.00000000000E+00  0.00000000000E+00  0.16407625163E+04  0.16407625163E+04  0.00000000000E+00 0.  1.
          2   -1    0    0  501    0  0.00000000000E+00 -0.00000000000E+00 -0.44951138908E+03  0.44951138908E+03  0.00000000000E+00 0. -1.
         24    2    1    2    0    0 -0.30370525665E+02  0.14101910576E+03 -0.30189110236E+03  0.34394780916E+03  0.79706340550E+02 0.  0.
        254    2    1    2    0    0  0.30370525665E+02 -0.14101910576E+03  0.14931422295E+04  0.17463260962E+04  0.89407626048E+03 0.  0.
         23    2    4    4    0    0 -0.90750414036E+02 -0.10904549720E+03  0.15661390697E+04  0.15752477052E+04  0.92125941197E+02 0.  0.
         23    2    4    4    0    0  0.12112093970E+03 -0.31973608561E+02 -0.72996840162E+02  0.17107839097E+03  0.90811252078E+02 0.  0.
          2    1    3    3  502    0 -0.14687659009E+02  0.14566849325E+03 -0.28516421813E+03  0.32055213078E+03  0.00000000000E+00 0. -1.
         -1    1    3    3    0  502 -0.15682866656E+02 -0.46493874838E+01 -0.16726884235E+02  0.23395678377E+02  0.00000000000E+00 0.  1.
         13    1    5    5    0    0 -0.33819924034E+01  0.60778097496E+01  0.41678449298E+03  0.41684252570E+03  0.00000000000E+00 0. -1.
        -13    1    5    5    0    0 -0.87368421632E+02 -0.11512330695E+03  0.11493545767E+04  0.11584051795E+04  0.00000000000E+00 0.  1.
          2    1    6    6  503    0  0.68433863213E+02 -0.27652607240E+02 -0.89208614349E+02  0.11578444280E+03  0.00000000000E+00 0. -1.
         -2    1    6    6    0  503  0.52687076487E+02 -0.43210013209E+01  0.16211774187E+02  0.55293948163E+02  0.00000000000E+00 0.  1.
<mgrwt>
<rscale>  0 0.17176047E+04</rscale>
<asrwt>0</asrwt>
<pdfrwt beam="1">  1        2 0.69155599E-01 0.17176047E+04</pdfrwt>
<pdfrwt beam="2">  1       -1 0.25242500E+00 0.17176047E+04</pdfrwt>
<totfact> 0.50864326E+00</totfact>
</mgrwt>
</event>
<event>
12    7  0.1741211E-007  0.1990470E+04  0.7818608E-02  0.8611089E-01
         -1   -1    0    0    0  501 -0.00000000000E+00  0.00000000000E+00  0.57069853098E+03  0.57069853098E+03  0.00000000000E+00 0.  1.
          2   -1    0    0  501    0  0.00000000000E+00 -0.00000000000E+00 -0.17355789241E+04  0.17355789241E+04  0.00000000000E+00 0. -1.
         24    2    1    2    0    0  0.33313125666E+03  0.52476677191E+03  0.86332556393E+02  0.63266243698E+03  0.80323407591E+02 0.  0.
        254    2    1    2    0    0 -0.33313125666E+03 -0.52476677191E+03 -0.12512129495E+04  0.16736150181E+04  0.92146447827E+03 0.  0.
         23    2    4    4    0    0 -0.26467718274E+03  0.13679740514E+03 -0.76997293174E+02  0.32107609915E+03  0.91617340998E+02 0.  0.
         23    2    4    4    0    0 -0.68454073919E+02 -0.66156417705E+03 -0.11742156564E+04  0.13525389190E+04  0.90697293787E+02 0.  0.
          2    1    3    3  502    0  0.17550042367E+02  0.61215845649E+02  0.25491773466E+02  0.68594564362E+02  0.00000000000E+00 0. -1.
         -1    1    3    3    0  502  0.31558121429E+03  0.46355092626E+03  0.60840782927E+02  0.56406787262E+03  0.00000000000E+00 0.  1.
         13    1    5    5    0    0 -0.24108382133E+03  0.10541307682E+03 -0.38205258372E+02  0.26588149134E+03  0.00000000000E+00 0. -1.
        -13    1    5    5    0    0 -0.23593361412E+02  0.31384328315E+02 -0.38792034802E+02  0.55194607804E+02  0.00000000000E+00 0.  1.
          1    1    6    6  503    0 -0.89907857388E+02 -0.49533131872E+03 -0.86589282758E+03  0.10016021800E+04  0.00000000000E+00 0. -1.
         -1    1    6    6    0  503  0.21453783469E+02 -0.16623285833E+03 -0.30832282877E+03  0.35093673897E+03  0.00000000000E+00 0.  1.
<mgrwt>
<rscale>  0 0.19904696E+04</rscale>
<asrwt>0</asrwt>
<pdfrwt beam="1">  1        2 0.26701214E+00 0.19904696E+04</pdfrwt>
<pdfrwt beam="2">  1       -1 0.87799775E-01 0.19904696E+04</pdfrwt>
<totfact> 0.12656046E+01</totfact>
</mgrwt>
</event>
<event>
12    7  0.1741211E-007  0.1814199E+04  0.7818608E-02  0.8698785E-01
         -1   -1    0    0    0  501 -0.00000000000E+00  0.00000000000E+00  0.60787764632E+03  0.60787764632E+03  0.00000000000E+00 0.  1.
          2   -1    0    0  501    0  0.00000000000E+00 -0.00000000000E+00 -0.13536096539E+04  0.13536096539E+04  0.00000000000E+00 0. -1.
         24    2    1    2    0    0  0.40486303585E+03 -0.15602777427E+03 -0.83315995541E+03  0.94271777649E+03  0.79388605437E+02 0.  0.
        254    2    1    2    0    0 -0.40486303585E+03  0.15602777427E+03  0.87427947801E+02  0.10187695237E+04  0.91759955990E+03 0.  0.
         23    2    4    4    0    0 -0.30978353920E+03  0.36282223629E+03  0.39400293740E+03  0.62554575230E+03  0.91996506665E+02 0.  0.
         23    2    4    4    0    0 -0.95079496648E+02 -0.20679446202E+03 -0.30657498960E+03  0.39322377145E+03  0.93982179051E+02 0.  0.
          2    1    3    3  502    0  0.31806967005E+03 -0.11558110830E+03 -0.71160054156E+03  0.78797375486E+03  0.00000000000E+00 0. -1.
         -1    1    3    3    0  502  0.86793365802E+02 -0.40446665962E+02 -0.12155941385E+03  0.15474402163E+03  0.00000000000E+00 0.  1.
         13    1    5    5    0    0 -0.17711192482E+03  0.25889105438E+03  0.29197376176E+03  0.42853458379E+03  0.00000000000E+00 0. -1.
        -13    1    5    5    0    0 -0.13267161438E+03  0.10393118191E+03  0.10202917564E+03  0.19701116851E+03  0.00000000000E+00 0.  1.
          3    1    6    6  503    0 -0.54855964421E+02 -0.19129504209E+03 -0.27647444305E+03  0.34064804068E+03  0.00000000000E+00 0. -1.
         -3    1    6    6    0  503 -0.40223532227E+02 -0.15499419936E+02 -0.30100546542E+02  0.52575730764E+02  0.00000000000E+00 0.  1.
<mgrwt>
<rscale>  0 0.18141985E+04</rscale>
<asrwt>0</asrwt>
<pdfrwt beam="1">  1        2 0.20824764E+00 0.18141985E+04</pdfrwt>
<pdfrwt beam="2">  1       -1 0.93519639E-01 0.18141985E+04</pdfrwt>
<totfact> 0.18346046E+01</totfact>
</mgrwt>
</event>
<event>
12    7  0.1741211E-007  0.2008869E+04  0.7818608E-02  0.8602485E-01
          2   -1    0    0  501    0  0.00000000000E+00  0.00000000000E+00  0.27068266664E+04  0.27068266664E+04  0.00000000000E+00 0. -1.
         -1   -1    0    0    0  501 -0.00000000000E+00 -0.00000000000E+00 -0.37272009054E+03  0.37272009054E+03  0.00000000000E+00 0.  1.
         24    2    1    2    0    0  0.67911791838E+03  0.44593830145E+03  0.87676589250E+03  0.11979150235E+04  0.78866073926E+02 0.  0.
        254    2    1    2    0    0 -0.67911791838E+03 -0.44593830145E+03  0.14573406834E+04  0.18816317334E+04  0.86984711130E+03 0.  0.
         23    2    4    4    0    0  0.14791417484E+03 -0.18882908323E+03  0.11905640079E+03  0.28491990016E+03  0.97313396505E+02 0.  0.
         23    2    4    4    0    0 -0.82703209322E+03 -0.25710921822E+03  0.13382842826E+04  0.15967118333E+04  0.91633095440E+02 0.  0.
          4    1    3    3  502    0  0.50649327899E+03  0.31888180961E+03  0.59564208053E+03  0.84439951342E+03  0.00000000000E+00 0. -1.
         -3    1    3    3    0  502  0.17262463939E+03  0.12705649184E+03  0.28112381197E+03  0.35351551013E+03  0.00000000000E+00 0.  1.
         13    1    5    5    0    0  0.40910285137E+02 -0.68822613965E+01  0.45053356494E+02  0.61243953851E+02  0.00000000000E+00 0. -1.
        -13    1    5    5    0    0  0.10700388971E+03 -0.18194682184E+03  0.74003044300E+02  0.22367594630E+03  0.00000000000E+00 0.  1.
          1    1    6    6  503    0 -0.47004760027E+03 -0.15433766129E+03  0.68142888181E+03  0.84208680145E+03  0.00000000000E+00 0. -1.
         -1    1    6    6    0  503 -0.35698449296E+03 -0.10277155692E+03  0.65685540079E+03  0.75462503184E+03  0.00000000000E+00 0.  1.
<mgrwt>
<rscale>  0 0.20088690E+04</rscale>
<asrwt>0</asrwt>
<pdfrwt beam="1">  1        2 0.41643486E+00 0.20088690E+04</pdfrwt>
<pdfrwt beam="2">  1       -1 0.57341554E-01 0.20088690E+04</pdfrwt>
<totfact> 0.85718564E+00</totfact>
</mgrwt>
</event>
<event>
12    7  0.1741211E-007  0.1722255E+04  0.7818608E-02  0.8748773E-01
          2   -1    0    0  501    0  0.00000000000E+00  0.00000000000E+00  0.21829444303E+04  0.21829444303E+04  0.00000000000E+00 0. -1.
         -1   -1    0    0    0  501 -0.00000000000E+00 -0.00000000000E+00 -0.33969721399E+03  0.33969721399E+03  0.00000000000E+00 0.  1.
         24    2    1    2    0    0  0.38578952627E+03  0.17591660544E+02  0.14399068301E+04  0.14928877844E+04  0.78988810845E+02 0.  0.
        254    2    1    2    0    0 -0.38578952627E+03 -0.17591660544E+02  0.40334038621E+03  0.10297538599E+04  0.86519738774E+03 0.  0.
         23    2    4    4    0    0 -0.87659274353E+02  0.29183311106E+03 -0.12697849749E+03  0.34196615417E+03  0.89255804774E+02 0.  0.
         23    2    4    4    0    0 -0.29813025192E+03 -0.30942477160E+03  0.53031888369E+03  0.68778770574E+03  0.84784865237E+02 0.  0.
          4    1    3    3  502    0  0.15102539752E+03  0.43587880846E+02  0.52946297626E+03  0.55230391750E+03  0.00000000000E+00 0. -1.
         -3    1    3    3    0  502  0.23476412875E+03 -0.25996220301E+02  0.91044385384E+03  0.94058386687E+03  0.00000000000E+00 0.  1.
         13    1    5    5    0    0 -0.85946818481E+02  0.28335589213E+03 -0.13904108680E+03  0.32712358678E+03  0.00000000000E+00 0. -1.
        -13    1    5    5    0    0 -0.17124558722E+01  0.84772189340E+01  0.12062589312E+02  0.14842567395E+02  0.00000000000E+00 0.  1.
          2    1    6    6  503    0 -0.27553217339E+03 -0.30934790295E+03  0.51260933201E+03  0.65907695370E+03  0.00000000000E+00 0. -1.
         -2    1    6    6    0  503 -0.22598078524E+02 -0.76868650111E-01  0.17709551688E+02  0.28710752041E+02  0.00000000000E+00 0.  1.
<mgrwt>
<rscale>  0 0.17222545E+04</rscale>
<asrwt>0</asrwt>
<pdfrwt beam="1">  1        2 0.33583760E+00 0.17222545E+04</pdfrwt>
<pdfrwt beam="2">  1       -1 0.52261111E-01 0.17222545E+04</pdfrwt>
<totfact> 0.21069693E+01</totfact>
</mgrwt>
</event>
<event>
12    7  0.1741211E-007  0.2324956E+04  0.7818608E-02  0.8468146E-01
         -1   -1    0    0    0  501 -0.00000000000E+00  0.00000000000E+00  0.33103995627E+03  0.33103995627E+03  0.00000000000E+00 0.  1.
          2   -1    0    0  501    0  0.00000000000E+00 -0.00000000000E+00 -0.40821505439E+04  0.40821505439E+04  0.00000000000E+00 0. -1.
         24    2    1    2    0    0 -0.29084890238E+03 -0.85707317360E+03 -0.88666719144E+03  0.12695106908E+04  0.79442915210E+02 0.  0.
        254    2    1    2    0    0  0.29084890238E+03  0.85707317360E+03 -0.28644433962E+04  0.31436798094E+04  0.92656314673E+03 0.  0.
         23    2    4    4    0    0 -0.12485693584E+03  0.17254644294E+03 -0.86532625292E+02  0.25117140143E+03  0.10118126436E+03 0.  0.
         23    2    4    4    0    0  0.41570583822E+03  0.68452673066E+03 -0.27779107709E+04  0.28925084080E+04  0.91806590031E+02 0.  0.
          4    1    3    3  502    0 -0.37296931000E+02 -0.51541456404E+02 -0.72634384502E+02  0.96557426448E+02  0.00000000000E+00 0. -1.
         -3    1    3    3    0  502 -0.25355197138E+03 -0.80553171719E+03 -0.81403280694E+03  0.11729532644E+04  0.00000000000E+00 0.  1.
         13    1    5    5    0    0  0.15549332729E+02  0.14947790638E+02  0.32232538341E+01  0.21808428613E+02  0.00000000000E+00 0.  1.
        -13    1    5    5    0    0 -0.14040626857E+03  0.15759865230E+03 -0.89755879126E+02  0.22936297281E+03  0.00000000000E+00 0. -1.
          1    1    6    6  503    0  0.38455431743E+03  0.65754047187E+03 -0.26829445417E+04  0.27889842074E+04  0.00000000000E+00 0. -1.
         -1    1    6    6    0  503  0.31151520795E+02  0.26986258787E+02 -0.94966229202E+02  0.10352420055E+03  0.00000000000E+00 0.  1.
<mgrwt>
<rscale>  0 0.23249559E+04</rscale>
<asrwt>0</asrwt>
<pdfrwt beam="1">  1        2 0.62802317E+00 0.23249559E+04</pdfrwt>
<pdfrwt beam="2">  1       -1 0.50929224E-01 0.23249559E+04</pdfrwt>
<totfact> 0.11753371E+00</totfact>
</mgrwt>
</event>
<event>
12    7  0.1741211E-007  0.2449524E+04  0.7818608E-02  0.8421192E-01
          2   -1    0    0  501    0  0.00000000000E+00  0.00000000000E+00  0.93581232136E+03  0.93581232136E+03  0.00000000000E+00 0. -1.
         -1   -1    0    0    0  501 -0.00000000000E+00 -0.00000000000E+00 -0.16029301310E+04  0.16029301310E+04  0.00000000000E+00 0.  1.
         24    2    1    2    0    0  0.44669789483E+03 -0.69303730531E+03  0.37542459768E+03  0.90895626451E+03  0.73608059659E+02 0.  0.
        254    2    1    2    0    0 -0.44669789483E+03  0.69303730531E+03 -0.10425424074E+04  0.16297861879E+04  0.94311644632E+03 0.  0.
         23    2    4    4    0    0 -0.43511593891E+02  0.21540821997E+03  0.14915619181E+03  0.28107252544E+03  0.91979535605E+02 0.  0.
         23    2    4    4    0    0 -0.40318630094E+03  0.47762908534E+03 -0.11916985992E+04  0.13487136625E+04  0.90522127632E+02 0.  0.
          4    1    3    3  502    0  0.42771877853E+03 -0.64840102072E+03  0.33546035508E+03  0.84610926422E+03  0.00000000000E+00 0. -1.
         -3    1    3    3    0  502  0.18979116296E+02 -0.44636284591E+02  0.39964242606E+02  0.62847000283E+02  0.00000000000E+00 0.  1.
         13    1    5    5    0    0  0.35748762739E+01  0.16092242793E+03  0.12904512126E+03  0.20630426770E+03  0.00000000000E+00 0.  1.
        -13    1    5    5    0    0 -0.47086470165E+02  0.54485792038E+02  0.20111070549E+02  0.74768257738E+02  0.00000000000E+00 0. -1.
          4    1    6    6  503    0 -0.16285781729E+02 -0.64153358010E+00 -0.27076444254E+02  0.31603355602E+02  0.00000000000E+00 0. -1.
         -4    1    6    6    0  503 -0.38690051921E+03  0.47827061892E+03 -0.11646221549E+04  0.13171103069E+04  0.00000000000E+00 0.  1.
<mgrwt>
<rscale>  0 0.24495238E+04</rscale>
<asrwt>0</asrwt>
<pdfrwt beam="1">  1        2 0.14397113E+00 0.24495238E+04</pdfrwt>
<pdfrwt beam="2">  1       -1 0.24660463E+00 0.24495238E+04</pdfrwt>
<totfact> 0.20789092E+00</totfact>
</mgrwt>
</event>
<event>
12    7  0.1741211E-007  0.2375544E+04  0.7818608E-02  0.8448717E-01
         -1   -1    0    0    0  501 -0.00000000000E+00  0.00000000000E+00  0.72263672418E+03  0.72263672418E+03  0.00000000000E+00 0.  1.
          2   -1    0    0  501    0  0.00000000000E+00 -0.00000000000E+00 -0.19522983572E+04  0.19522983572E+04  0.00000000000E+00 0. -1.
         24    2    1    2    0    0 -0.47273785179E+03  0.26351401996E+03  0.43639749356E+03  0.70111913946E+03  0.90579026884E+02 0.  0.
        254    2    1    2    0    0  0.47273785179E+03 -0.26351401996E+03 -0.16660591266E+04  0.19738159419E+04  0.90954694440E+03 0.  0.
         23    2    4    4    0    0  0.44965217293E+03  0.24917045646E+03 -0.10022968348E+04  0.11301186926E+04  0.91084144782E+02 0.  0.
         23    2    4    4    0    0  0.23085678853E+02 -0.51268447642E+03 -0.66376229179E+03  0.84369724927E+03  0.88692432022E+02 0.  0.
          4    1    3    3  502    0 -0.19469009204E+03  0.15564119352E+03  0.17518270987E+03  0.30465947367E+03  0.00000000000E+00 0. -1.
         -3    1    3    3    0  502 -0.27804775974E+03  0.10787282644E+03  0.26121478370E+03  0.39645966580E+03  0.00000000000E+00 0.  1.
         13    1    5    5    0    0  0.32026782828E+02  0.43723022421E+01 -0.11385936301E+03  0.11835871911E+03  0.00000000000E+00 0. -1.
        -13    1    5    5    0    0  0.41762539011E+03  0.24479815422E+03 -0.88843747177E+03  0.10117599735E+04  0.00000000000E+00 0.  1.
          4    1    6    6  503    0 -0.16332452489E+02 -0.27939875475E+03 -0.30505394836E+03  0.41399073005E+03  0.00000000000E+00 0. -1.
         -4    1    6    6    0  503  0.39418131343E+02 -0.23328572167E+03 -0.35870834343E+03  0.42970651922E+03  0.00000000000E+00 0.  1.
<mgrwt>
<rscale>  0 0.23755441E+04</rscale>
<asrwt>0</asrwt>
<pdfrwt beam="1">  1        2 0.30035359E+00 0.23755441E+04</pdfrwt>
<pdfrwt beam="2">  1       -1 0.11117488E+00 0.23755441E+04</pdfrwt>
<totfact> 0.54195845E+00</totfact>
</mgrwt>
</event>
<event>
12    7  0.1741211E-007  0.1462536E+04  0.7818608E-02  0.8909755E-01
          2   -1    0    0  501    0  0.00000000000E+00  0.00000000000E+00  0.13805521004E+04  0.13805521004E+04  0.00000000000E+00 0. -1.
         -1   -1    0    0    0  501 -0.00000000000E+00 -0.00000000000E+00 -0.38734713872E+03  0.38734713872E+03  0.00000000000E+00 0.  1.
         24    2    1    2    0    0 -0.34171822764E+03 -0.86305390032E+02  0.64897459201E+03  0.74264659869E+03  0.78332509377E+02 0.  0.
        254    2    1    2    0    0  0.34171822764E+03  0.86305390032E+02  0.34423036963E+03  0.10252526404E+04  0.89912649933E+03 0.  0.
         23    2    4    4    0    0  0.80493339192E+02  0.22372263798E+03  0.58204309169E+03  0.63542892715E+03  0.92004154625E+02 0.  0.
         23    2    4    4    0    0  0.26122488845E+03 -0.13741724795E+03 -0.23781272206E+03  0.38982371324E+03  0.91025788932E+02 0.  0.
          4    1    3    3  502    0 -0.19026106428E+03 -0.42654903810E+02  0.43668313635E+03  0.47823725803E+03  0.00000000000E+00 0. -1.
         -3    1    3    3    0  502 -0.15145716337E+03 -0.43650486221E+02  0.21229145566E+03  0.26440934066E+03  0.00000000000E+00 0.  1.
         13    1    5    5    0    0  0.20750805017E+02  0.97386827952E+01  0.12694221512E+03  0.12899520856E+03  0.00000000000E+00 0. -1.
        -13    1    5    5    0    0  0.59742534176E+02  0.21398395518E+03  0.45510087658E+03  0.50643371859E+03  0.00000000000E+00 0.  1.
          2    1    6    6  503    0  0.29958588838E+02 -0.29983853631E+02 -0.78313358714E+02  0.89047912254E+02  0.00000000000E+00 0. -1.
         -2    1    6    6    0  503  0.23126629961E+03 -0.10743339432E+03 -0.15949936335E+03  0.30077580099E+03  0.00000000000E+00 0.  1.
<mgrwt>
<rscale>  0 0.14625360E+04</rscale>
<asrwt>0</asrwt>
<pdfrwt beam="1">  1        2 0.21239263E+00 0.14625360E+04</pdfrwt>
<pdfrwt beam="2">  1       -1 0.59591868E-01 0.14625360E+04</pdfrwt>
<totfact> 0.46805292E+01</totfact>
</mgrwt>
</event>
<event>
12    7  0.1741211E-007  0.1433905E+04  0.7818608E-02  0.8929636E-01
          2   -1    0    0  501    0  0.00000000000E+00  0.00000000000E+00  0.11126014158E+04  0.11126014158E+04  0.00000000000E+00 0. -1.
         -1   -1    0    0    0  501 -0.00000000000E+00 -0.00000000000E+00 -0.46199914774E+03  0.46199914774E+03  0.00000000000E+00 0.  1.
         24    2    1    2    0    0 -0.10835366796E+03 -0.38067021167E+03  0.11297810623E+02  0.40489556699E+03  0.84631272198E+02 0.  0.
        254    2    1    2    0    0  0.10835366796E+03  0.38067021167E+03  0.63930445743E+03  0.11697049965E+04  0.89601856133E+03 0.  0.
         23    2    4    4    0    0  0.35018266474E+03  0.55332163369E+03  0.36600198667E+03  0.75553179593E+03  0.89878314543E+02 0.  0.
         23    2    4    4    0    0 -0.24182899679E+03 -0.17265142202E+03  0.27330247076E+03  0.41417320061E+03  0.92495526198E+02 0.  0.
          2    1    3    3  502    0 -0.27182108506E+02 -0.34454598159E+02  0.22081692923E+02  0.49128276170E+02  0.00000000000E+00 0. -1.
         -1    1    3    3    0  502 -0.81171559449E+02 -0.34621561351E+03 -0.10783882300E+02  0.35576729082E+03  0.00000000000E+00 0.  1.
         13    1    5    5    0    0  0.26079934325E+03  0.43733291747E+03  0.24257945396E+03  0.56402231305E+03  0.00000000000E+00 0. -1.
        -13    1    5    5    0    0  0.89383321497E+02  0.11598871622E+03  0.12342253271E+03  0.19150948288E+03  0.00000000000E+00 0.  1.
          3    1    6    6  503    0 -0.18918343741E+03 -0.10651180841E+03  0.23915718608E+03  0.32300355722E+03  0.00000000000E+00 0. -1.
         -3    1    6    6    0  503 -0.52645559378E+02 -0.66139613606E+02  0.34145284680E+02  0.91169643391E+02  0.00000000000E+00 0.  1.
<mgrwt>
<rscale>  0 0.14339050E+04</rscale>
<asrwt>0</asrwt>
<pdfrwt beam="1">  1        2 0.17116945E+00 0.14339050E+04</pdfrwt>
<pdfrwt beam="2">  1       -1 0.71076793E-01 0.14339050E+04</pdfrwt>
<totfact> 0.47383320E+01</totfact>
</mgrwt>
</event>
<event>
12    7  0.1741211E-007  0.1729504E+04  0.7818608E-02  0.8744714E-01
          2   -1    0    0  501    0  0.00000000000E+00  0.00000000000E+00  0.84548176962E+03  0.84548176962E+03  0.00000000000E+00 0. -1.
         -1   -1    0    0    0  501 -0.00000000000E+00 -0.00000000000E+00 -0.88446186197E+03  0.88446186197E+03  0.00000000000E+00 0.  1.
         24    2    1    2    0    0 -0.61682388986E+03  0.32002310507E+02 -0.12902704801E+03  0.63584987658E+03  0.78493486632E+02 0.  0.
        254    2    1    2    0    0  0.61682388986E+03 -0.32002310507E+02  0.90046955661E+02  0.10940937550E+04  0.89857488923E+03 0.  0.
         23    2    4    4    0    0  0.33760836878E+02  0.24674459060E+03 -0.24470362407E+03  0.36061175837E+03  0.90212468886E+02 0.  0.
         23    2    4    4    0    0  0.58306305299E+03 -0.27874690110E+03  0.33475057973E+03  0.73348199665E+03  0.90969940882E+02 0.  0.
          4    1    3    3  502    0 -0.22833065222E+03  0.22700572669E+02 -0.11011625354E+02  0.22972039229E+03  0.00000000000E+00 0. -1.
         -3    1    3    3    0  502 -0.38849323765E+03  0.93017378378E+01 -0.11801542265E+03  0.40612948429E+03  0.00000000000E+00 0.  1.
         13    1    5    5    0    0  0.44628940302E+02  0.21062771369E+03 -0.24029015788E+03  0.32263777841E+03  0.00000000000E+00 0. -1.
        -13    1    5    5    0    0 -0.10868103425E+02  0.36116876907E+02 -0.44134661933E+01  0.37973979952E+02  0.00000000000E+00 0.  1.
          1    1    6    6  503    0  0.39345827296E+03 -0.18445932375E+03  0.27186471991E+03  0.51258665668E+03  0.00000000000E+00 0. -1.
         -1    1    6    6    0  503  0.18960478003E+03 -0.94287577350E+02  0.62885859819E+02  0.22089533996E+03  0.00000000000E+00 0.  1.
<mgrwt>
<rscale>  0 0.17295044E+04</rscale>
<asrwt>0</asrwt>
<pdfrwt beam="1">  1        2 0.13007412E+00 0.17295044E+04</pdfrwt>
<pdfrwt beam="2">  1       -1 0.13607106E+00 0.17295044E+04</pdfrwt>
<totfact> 0.15639209E+01</totfact>
</mgrwt>
</event>
<event>
12    7  0.1741211E-007  0.1538886E+04  0.7818608E-02  0.8858998E-01
         -1   -1    0    0    0  501 -0.00000000000E+00  0.00000000000E+00  0.38684298606E+03  0.38684298606E+03  0.00000000000E+00 0.  1.
          2   -1    0    0  501    0  0.00000000000E+00 -0.00000000000E+00 -0.15304465608E+04  0.15304465608E+04  0.00000000000E+00 0. -1.
         24    2    1    2    0    0  0.32556783269E+02 -0.25458944251E+03 -0.92525577512E+03  0.96352564640E+03  0.80048070017E+02 0.  0.
        254    2    1    2    0    0 -0.32556783269E+02  0.25458944251E+03 -0.21834779965E+03  0.95376390047E+03  0.89225225573E+03 0.  0.
         23    2    4    4    0    0 -0.27074820017E+03  0.39172511093E+03 -0.38477795277E+03  0.61921924260E+03  0.92872208120E+02 0.  0.
         23    2    4    4    0    0  0.23819141690E+03 -0.13713566842E+03  0.16643015312E+03  0.33454465787E+03  0.93165388435E+02 0.  0.
          2    1    3    3  502    0  0.44119258260E+02 -0.24048013559E+03 -0.89829663699E+03  0.93097478623E+03  0.00000000000E+00 0. -1.
         -3    1    3    3    0  502 -0.11562474991E+02 -0.14109306914E+02 -0.26959138128E+02  0.32550860175E+02  0.00000000000E+00 0.  1.
         13    1    5    5    0    0 -0.11880465842E+03  0.99347270200E+02 -0.10680509805E+03  0.18812696757E+03  0.00000000000E+00 0. -1.
        -13    1    5    5    0    0 -0.15194354176E+03  0.29237784073E+03 -0.27797285472E+03  0.43109227503E+03  0.00000000000E+00 0.  1.
          1    1    6    6  503    0 -0.32993018164E+01  0.36856803091E+01  0.16707360723E+02  0.17424280018E+02  0.00000000000E+00 0. -1.
         -1    1    6    6    0  503  0.24149071872E+03 -0.14082134873E+03  0.14972279240E+03  0.31712037785E+03  0.00000000000E+00 0.  1.
<mgrwt>
<rscale>  0 0.15388860E+04</rscale>
<asrwt>0</asrwt>
<pdfrwt beam="1">  1        2 0.23545331E+00 0.15388860E+04</pdfrwt>
<pdfrwt beam="2">  1       -1 0.59514306E-01 0.15388860E+04</pdfrwt>
<totfact> 0.38334204E+01</totfact>
</mgrwt>
</event>
<event>
12    7  0.1741211E-007  0.2458403E+04  0.7818608E-02  0.8417956E-01
         -1   -1    0    0    0  501 -0.00000000000E+00  0.00000000000E+00  0.44392334301E+04  0.44392334301E+04  0.00000000000E+00 0.  1.
          2   -1    0    0  501    0  0.00000000000E+00 -0.00000000000E+00 -0.34035982700E+03  0.34035982700E+03  0.00000000000E+00 0. -1.
         24    2    1    2    0    0 -0.67777538399E+03  0.57867125442E+03  0.65267907339E+03  0.11074393107E+04  0.78689022456E+02 0.  0.
        254    2    1    2    0    0  0.67777538399E+03 -0.57867125442E+03  0.34461945297E+04  0.36721539464E+04  0.90234027813E+03 0.  0.
         23    2    4    4    0    0  0.10313496529E+03 -0.60698170664E+03  0.12033658186E+04  0.13548951096E+04  0.92670660835E+02 0.  0.
         23    2    4    4    0    0  0.57464041870E+03  0.28310452216E+02  0.22428287112E+04  0.23172588368E+04  0.91623123616E+02 0.  0.
          4    1    3    3  502    0 -0.53874132285E+03  0.44577661087E+03  0.54844075883E+03  0.88867669356E+03  0.00000000000E+00 0. -1.
         -3    1    3    3    0  502 -0.13903406114E+03  0.13289464355E+03  0.10423831456E+03  0.21876261716E+03  0.00000000000E+00 0.  1.
         13    1    5    5    0    0  0.17850120533E+02 -0.33108347058E+03  0.70057932225E+03  0.77507823996E+03  0.00000000000E+00 0. -1.
        -13    1    5    5    0    0  0.85284844758E+02 -0.27589823606E+03  0.50278649634E+03  0.57981686963E+03  0.00000000000E+00 0.  1.
          2    1    6    6  503    0  0.31159668836E+03 -0.71742335216E+01  0.10515434515E+04  0.10967623244E+04  0.00000000000E+00 0. -1.
         -2    1    6    6    0  503  0.26304373034E+03  0.35484685738E+02  0.11912852597E+04  0.12204965124E+04  0.00000000000E+00 0.  1.
<mgrwt>
<rscale>  0 0.24584033E+04</rscale>
<asrwt>0</asrwt>
<pdfrwt beam="1">  1        2 0.52363054E-01 0.24584033E+04</pdfrwt>
<pdfrwt beam="2">  1       -1 0.68295895E+00 0.24584033E+04</pdfrwt>
<totfact> 0.21975161E-02</totfact>
</mgrwt>
</event>
<event>
12    7  0.1741211E-007  0.1266457E+04  0.7818608E-02  0.9056596E-01
         -1   -1    0    0    0  501 -0.00000000000E+00  0.00000000000E+00  0.40819595336E+03  0.40819595336E+03  0.00000000000E+00 0.  1.
          2   -1    0    0  501    0  0.00000000000E+00 -0.00000000000E+00 -0.98231901831E+03  0.98231901831E+03  0.00000000000E+00 0. -1.
         24    2    1    2    0    0 -0.28068251776E+03  0.70739987301E+02 -0.23764797867E+02  0.30095388592E+03  0.78877463528E+02 0.  0.
        254    2    1    2    0    0  0.28068251776E+03 -0.70739987301E+02 -0.55035826708E+03  0.10895610857E+04  0.89468559609E+03 0.  0.
         23    2    4    4    0    0  0.40375667659E+03 -0.39340022648E+03 -0.41739759588E+03  0.70837210518E+03  0.98929744052E+02 0.  0.
         23    2    4    4    0    0 -0.12307415883E+03  0.32266023918E+03 -0.13296067120E+03  0.38118898057E+03  0.91485628948E+02 0.  0.
          4    1    3    3  502    0 -0.56428960063E+02  0.44162472523E+02 -0.22574967300E+02  0.75127762257E+02  0.00000000000E+00 0. -1.
         -3    1    3    3    0  502 -0.22425355769E+03  0.26577514779E+02 -0.11898305664E+01  0.22582612366E+03  0.00000000000E+00 0.  1.
         13    1    5    5    0    0  0.11598539748E+02  0.32598546302E+01 -0.20535899696E+02  0.23809156911E+02  0.00000000000E+00 0.  1.
        -13    1    5    5    0    0  0.39215813684E+03 -0.39666008111E+03 -0.39686169619E+03  0.68456294827E+03  0.00000000000E+00 0. -1.
          1    1    6    6  503    0 -0.10636168618E+03  0.17325528576E+03 -0.10297697282E+03  0.22789133213E+03  0.00000000000E+00 0. -1.
         -1    1    6    6    0  503 -0.16712472656E+02  0.14940495342E+03 -0.29983698379E+02  0.15329764844E+03  0.00000000000E+00 0.  1.
<mgrwt>
<rscale>  0 0.12664575E+04</rscale>
<asrwt>0</asrwt>
<pdfrwt beam="1">  1        2 0.15112600E+00 0.12664575E+04</pdfrwt>
<pdfrwt beam="2">  1       -1 0.62799379E-01 0.12664575E+04</pdfrwt>
<totfact> 0.74546648E+01</totfact>
</mgrwt>
</event>
<event>
12    7  0.1741211E-007  0.1299776E+04  0.7818608E-02  0.9029743E-01
          2   -1    0    0  501    0  0.00000000000E+00  0.00000000000E+00  0.13836554439E+04  0.13836554439E+04  0.00000000000E+00 0. -1.
         -1   -1    0    0    0  501 -0.00000000000E+00 -0.00000000000E+00 -0.30524528515E+03  0.30524528515E+03  0.00000000000E+00 0.  1.
         24    2    1    2    0    0 -0.29600384591E+03 -0.17887555287E+03  0.59812424230E+03  0.69543903787E+03  0.79171370796E+02 0.  0.
        254    2    1    2    0    0  0.29600384591E+03  0.17887555287E+03  0.48028591644E+03  0.99346169118E+03  0.79792031563E+03 0.  0.
         23    2    4    4    0    0 -0.16836179251E+03  0.19819409811E+03 -0.51200073678E+02  0.28155667990E+03  0.95005909010E+02 0.  0.
         23    2    4    4    0    0  0.46436563842E+03 -0.19318545248E+02  0.53148599012E+03  0.71190501128E+03  0.91229025308E+02 0.  0.
          2    1    3    3  502    0 -0.20076477604E+03 -0.16184742369E+03  0.42515775869E+03  0.49725265573E+03  0.00000000000E+00 0. -1.
         -1    1    3    3    0  502 -0.95239069873E+02 -0.17028129180E+02  0.17296648361E+03  0.19818638214E+03  0.00000000000E+00 0.  1.
         13    1    5    5    0    0 -0.91803797459E+02  0.17041172921E+03 -0.21033554374E+02  0.19470620198E+03  0.00000000000E+00 0. -1.
        -13    1    5    5    0    0 -0.76557995048E+02  0.27782368907E+02 -0.30166519304E+02  0.86850477919E+02  0.00000000000E+00 0.  1.
          4    1    6    6  503    0  0.42284199498E+03 -0.15823381713E+02  0.43523867659E+03  0.60702424805E+03  0.00000000000E+00 0. -1.
         -4    1    6    6    0  503  0.41523643433E+02 -0.34951635349E+01  0.96247313534E+02  0.10488076322E+03  0.00000000000E+00 0.  1.
<mgrwt>
<rscale>  0 0.12997758E+04</rscale>
<asrwt>0</asrwt>
<pdfrwt beam="1">  1        2 0.21287006E+00 0.12997758E+04</pdfrwt>
<pdfrwt beam="2">  1       -1 0.46960814E-01 0.12997758E+04</pdfrwt>
<totfact> 0.74648649E+01</totfact>
</mgrwt>
</event>
<event>
12    7  0.1741211E-007  0.3404967E+04  0.7818608E-02  0.8136688E-01
          2   -1    0    0  501    0  0.00000000000E+00  0.00000000000E+00  0.44666470372E+04  0.44666470372E+04  0.00000000000E+00 0. -1.
         -1   -1    0    0    0  501 -0.00000000000E+00 -0.00000000000E+00 -0.64890946936E+03  0.64890946936E+03  0.00000000000E+00 0.  1.
         24    2    1    2    0    0 -0.14509982000E+04 -0.60760041256E+03  0.19874252114E+04  0.25358391126E+04  0.77762434881E+02 0.  0.
        254    2    1    2    0    0  0.14509982000E+04  0.60760041256E+03  0.18303123564E+04  0.25797173940E+04  0.91122141822E+03 0.  0.
         23    2    4    4    0    0  0.85583177600E+03  0.75115425414E+03  0.14758288278E+04  0.18663104737E+04  0.91451149668E+02 0.  0.
         23    2    4    4    0    0  0.59516642398E+03 -0.14355384158E+03  0.35448352859E+03  0.71340692030E+03  0.91978716105E+02 0.  0.
          4    1    3    3  502    0 -0.14396055129E+04 -0.60698567727E+03  0.19802657992E+04  0.25223695766E+04  0.00000000000E+00 0. -1.
         -3    1    3    3    0  502 -0.11392687039E+02 -0.61473528757E+00  0.71594122207E+01  0.13469536028E+02  0.00000000000E+00 0.  1.
         13    1    5    5    0    0  0.82458824831E+03  0.73139925516E+03  0.13988716918E+04  0.17809358944E+04  0.00000000000E+00 0. -1.
        -13    1    5    5    0    0  0.31243527690E+02  0.19754998982E+02  0.76957136049E+02  0.85374579332E+02  0.00000000000E+00 0.  1.
          2    1    6    6  503    0  0.36425360141E+03 -0.69428757665E+02  0.16607560960E+03  0.40630302316E+03  0.00000000000E+00 0.  1.
         -2    1    6    6    0  503  0.23091282258E+03 -0.74125083919E+02  0.18840791899E+03  0.30710389713E+03  0.00000000000E+00 0. -1.
<mgrwt>
<rscale>  0 0.34049667E+04</rscale>
<asrwt>0</asrwt>
<pdfrwt beam="1">  1        2 0.68717645E+00 0.34049667E+04</pdfrwt>
<pdfrwt beam="2">  1       -1 0.99832229E-01 0.34049667E+04</pdfrwt>
<totfact> 0.11879094E-01</totfact>
</mgrwt>
</event>
<event>
12    7  0.1741211E-007  0.2406635E+04  0.7818608E-02  0.8437024E-01
          2   -1    0    0  501    0  0.00000000000E+00  0.00000000000E+00  0.17214072991E+04  0.17214072991E+04  0.00000000000E+00 0. -1.
         -1   -1    0    0    0  501 -0.00000000000E+00 -0.00000000000E+00 -0.84115656725E+03  0.84115656725E+03  0.00000000000E+00 0.  1.
         24    2    1    2    0    0  0.44710114549E+03 -0.53264903901E+02 -0.60785442215E+03  0.76056585932E+03  0.78973688998E+02 0.  0.
        254    2    1    2    0    0 -0.44710114549E+03  0.53264903901E+02  0.14881051540E+04  0.18019980070E+04  0.91104516007E+03 0.  0.
         23    2    4    4    0    0  0.57250970337E+02 -0.19762648147E+03  0.18983670556E+02  0.22593970485E+03  0.91402793718E+02 0.  0.
         23    2    4    4    0    0 -0.50435211583E+03  0.25089138537E+03  0.14691214834E+04  0.15760583022E+04  0.91237573103E+02 0.  0.
          2    1    3    3  502    0  0.20851388635E+03 -0.40240680691E+01 -0.33661562960E+03  0.39598524722E+03  0.00000000000E+00 0. -1.
         -1    1    3    3    0  502  0.23858725914E+03 -0.49240835832E+02 -0.27123879255E+03  0.36458061210E+03  0.00000000000E+00 0.  1.
         13    1    5    5    0    0 -0.20826339428E+02 -0.18351879335E+02 -0.71440936336E+01  0.28662971984E+02  0.00000000000E+00 0. -1.
        -13    1    5    5    0    0  0.78077309765E+02 -0.17927460214E+03  0.26127764189E+02  0.19727673287E+03  0.00000000000E+00 0.  1.
          1    1    6    6  503    0 -0.41234784031E+02 -0.48834564623E+01  0.10051764103E+03  0.10875638703E+03  0.00000000000E+00 0. -1.
         -1    1    6    6    0  503 -0.46311733180E+03  0.25577484183E+03  0.13686038424E+04  0.14673019151E+04  0.00000000000E+00 0.  1.
<mgrwt>
<rscale>  0 0.24066350E+04</rscale>
<asrwt>0</asrwt>
<pdfrwt beam="1">  1        2 0.26483189E+00 0.24066350E+04</pdfrwt>
<pdfrwt beam="2">  1       -1 0.12940870E+00 0.24066350E+04</pdfrwt>
<totfact> 0.50088641E+00</totfact>
</mgrwt>
</event>
<event>
12    7  0.1741211E-007  0.2029828E+04  0.7818608E-02  0.8592801E-01
          2   -1    0    0  501    0  0.00000000000E+00  0.00000000000E+00  0.30354616514E+04  0.30354616514E+04  0.00000000000E+00 0. -1.
         -1   -1    0    0    0  501 -0.00000000000E+00 -0.00000000000E+00 -0.33933899247E+03  0.33933899247E+03  0.00000000000E+00 0.  1.
         24    2    1    2    0    0  0.33446653271E+02 -0.20431776579E+03 -0.22303952501E+03  0.31244261535E+03  0.70776621415E+02 0.  0.
        254    2    1    2    0    0 -0.33446653271E+02  0.20431776579E+03  0.29191621839E+04  0.30623580285E+04  0.90203348639E+03 0.  0.
         23    2    4    4    0    0 -0.93935154909E+02  0.54347362625E+03  0.20086507319E+04  0.20849991289E+04  0.91412300667E+02 0.  0.
         23    2    4    4    0    0  0.60488501638E+02 -0.33915586046E+03  0.91051145202E+03  0.97735889965E+03  0.86681935592E+02 0.  0.
          4    1    3    3  502    0  0.14007294470E+02 -0.76393771938E+02 -0.37515372322E+02  0.86253207765E+02  0.00000000000E+00 0. -1.
         -3    1    3    3    0  502  0.19439358801E+02 -0.12792399385E+03 -0.18552415269E+03  0.22618940759E+03  0.00000000000E+00 0.  1.
         13    1    5    5    0    0 -0.11153029660E+03  0.44225301145E+03  0.16614372940E+04  0.17229047029E+04  0.00000000000E+00 0. -1.
        -13    1    5    5    0    0  0.17595141695E+02  0.10122061479E+03  0.34721343789E+03  0.36209442597E+03  0.00000000000E+00 0.  1.
          4    1    6    6  503    0 -0.31964231363E+01 -0.14034160383E+03  0.28062034524E+03  0.31377342311E+03  0.00000000000E+00 0.  1.
         -4    1    6    6    0  503  0.63684924774E+02 -0.19881425663E+03  0.62989110677E+03  0.66358547654E+03  0.00000000000E+00 0. -1.
<mgrwt>
<rscale>  0 0.20298281E+04</rscale>
<asrwt>0</asrwt>
<pdfrwt beam="1">  1        2 0.46699408E+00 0.20298281E+04</pdfrwt>
<pdfrwt beam="2">  1       -1 0.52206001E-01 0.20298281E+04</pdfrwt>
<totfact> 0.64626319E+00</totfact>
</mgrwt>
</event>
<event>
12    7  0.1741211E-007  0.1595728E+04  0.7818608E-02  0.8823177E-01
          2   -1    0    0  501    0  0.00000000000E+00  0.00000000000E+00  0.15515785976E+04  0.15515785976E+04  0.00000000000E+00 0. -1.
         -1   -1    0    0    0  501 -0.00000000000E+00 -0.00000000000E+00 -0.41028318763E+03  0.41028318763E+03  0.00000000000E+00 0.  1.
         24    2    1    2    0    0 -0.40450398329E+03  0.29946253316E+03  0.62042471099E+03  0.80274562282E+03  0.78564824745E+02 0.  0.
        254    2    1    2    0    0  0.40450398329E+03 -0.29946253316E+03  0.52087069896E+03  0.11591161624E+04  0.90495453565E+03 0.  0.
         23    2    4    4    0    0 -0.54291428900E+02 -0.61917099137E+02  0.61332945443E+03  0.62556497340E+03  0.91527208233E+02 0.  0.
         23    2    4    4    0    0  0.45879541219E+03 -0.23754543402E+03 -0.92458755479E+02  0.53355118898E+03  0.95954084463E+02 0.  0.
          4    1    3    3  502    0 -0.40248379768E+03  0.28550185869E+03  0.61255516184E+03  0.78659287119E+03  0.00000000000E+00 0. -1.
         -3    1    3    3    0  502 -0.20201856157E+01  0.13960674466E+02  0.78695491503E+01  0.16152751633E+02  0.00000000000E+00 0.  1.
         13    1    5    5    0    0 -0.55172192365E+02 -0.10293997536E+02  0.16525109102E+03  0.17452180459E+03  0.00000000000E+00 0. -1.
        -13    1    5    5    0    0  0.88076346576E+00 -0.51623101601E+02  0.44807836342E+03  0.45104316880E+03  0.00000000000E+00 0.  1.
          3    1    6    6  503    0  0.29322920931E+01 -0.63013599411E+01  0.10044380306E+02  0.12214542552E+02  0.00000000000E+00 0. -1.
         -3    1    6    6    0  503  0.45586312010E+03 -0.23124407408E+03 -0.10250313578E+03  0.52133664643E+03  0.00000000000E+00 0.  1.
<mgrwt>
<rscale>  0 0.15957276E+04</rscale>
<asrwt>0</asrwt>
<pdfrwt beam="1">  1        2 0.23870440E+00 0.15957276E+04</pdfrwt>
<pdfrwt beam="2">  1       -1 0.63120491E-01 0.15957276E+04</pdfrwt>
<totfact> 0.33030650E+01</totfact>
</mgrwt>
</event>
<event>
12    7  0.1741211E-007  0.3637907E+04  0.7818608E-02  0.8081863E-01
         -1   -1    0    0    0  501 -0.00000000000E+00  0.00000000000E+00  0.14741038978E+04  0.14741038978E+04  0.00000000000E+00 0.  1.
          2   -1    0    0  501    0  0.00000000000E+00 -0.00000000000E+00 -0.22444767813E+04  0.22444767813E+04  0.00000000000E+00 0. -1.
         24    2    1    2    0    0 -0.83837674844E+03 -0.72763714215E+03  0.96577559619E+03  0.14734397888E+04  0.77271768132E+02 0.  0.
        254    2    1    2    0    0  0.83837674844E+03  0.72763714215E+03 -0.17361484797E+04  0.22451408903E+04  0.89113112981E+03 0.  0.
         23    2    4    4    0    0  0.61458715273E+03  0.69137724048E+03 -0.17691993057E+04  0.19983131957E+04  0.86426776557E+02 0.  0.
         23    2    4    4    0    0  0.22378959571E+03  0.36259901676E+02  0.33050825954E+02  0.24682769462E+03  0.91842202272E+02 0.  0.
          4    1    3    3  502    0 -0.30864883624E+03 -0.22460501300E+03  0.35365885873E+03  0.52037112173E+03  0.00000000000E+00 0. -1.
         -3    1    3    3    0  502 -0.52972791220E+03 -0.50303212915E+03  0.61211673746E+03  0.95306866709E+03  0.00000000000E+00 0.  1.
         13    1    5    5    0    0  0.10152654080E+03  0.10999066633E+03 -0.22296746581E+03  0.26855181246E+03  0.00000000000E+00 0. -1.
        -13    1    5    5    0    0  0.51306061193E+03  0.58138657415E+03 -0.15462318399E+04  0.17297613832E+04  0.00000000000E+00 0.  1.
          4    1    6    6  503    0  0.10678782072E+02  0.65343264189E+01  0.29031901683E+02  0.31616216150E+02  0.00000000000E+00 0. -1.
         -4    1    6    6    0  503  0.21311081363E+03  0.29725575257E+02  0.40189242711E+01  0.21521147847E+03  0.00000000000E+00 0.  1.
<mgrwt>
<rscale>  0 0.36379071E+04</rscale>
<asrwt>0</asrwt>
<pdfrwt beam="1">  1        2 0.34530412E+00 0.36379071E+04</pdfrwt>
<pdfrwt beam="2">  1       -1 0.22678521E+00 0.36379071E+04</pdfrwt>
<totfact> 0.44644373E-01</totfact>
</mgrwt>
</event>
<event>
12    7  0.1741211E-007  0.2288540E+04  0.7818608E-02  0.8482453E-01
         -1   -1    0    0    0  501 -0.00000000000E+00  0.00000000000E+00  0.50954052102E+03  0.50954052102E+03  0.00000000000E+00 0.  1.
          2   -1    0    0  501    0  0.00000000000E+00 -0.00000000000E+00 -0.25696759169E+04  0.25696759169E+04  0.00000000000E+00 0. -1.
         24    2    1    2    0    0  0.64102440111E+03  0.33379049820E+03 -0.98139254749E+01  0.72710806610E+03  0.79129306534E+02 0.  0.
        254    2    1    2    0    0 -0.64102440111E+03 -0.33379049820E+03 -0.20503214704E+04  0.23521083718E+04  0.89792387275E+03 0.  0.
         23    2    4    4    0    0 -0.40107496948E+03 -0.62273457538E+03 -0.11361737084E+04  0.13595069887E+04  0.93322421159E+02 0.  0.
         23    2    4    4    0    0 -0.23994943163E+03  0.28894407718E+03 -0.91414776206E+03  0.99260138311E+03  0.92341569170E+02 0.  0.
          4    1    3    3  502    0  0.23579523517E+02  0.27521365542E+02 -0.11008944367E+02  0.37876329635E+02  0.00000000000E+00 0. -1.
         -3    1    3    3    0  502  0.61744487759E+03  0.30626913266E+03  0.11950188917E+01  0.68923173647E+03  0.00000000000E+00 0.  1.
         13    1    5    5    0    0 -0.18463434836E+03 -0.31834366391E+03 -0.64296282005E+03  0.74083312488E+03  0.00000000000E+00 0. -1.
        -13    1    5    5    0    0 -0.21644062112E+03 -0.30439091147E+03 -0.49321088832E+03  0.61867386385E+03  0.00000000000E+00 0.  1.
          3    1    6    6  503    0 -0.87158155245E+02  0.46347691421E+02 -0.19944315562E+03  0.22253589565E+03  0.00000000000E+00 0. -1.
         -3    1    6    6    0  503 -0.15279127638E+03  0.24259638575E+03 -0.71470460644E+03  0.77006548747E+03  0.00000000000E+00 0.  1.
<mgrwt>
<rscale>  0 0.22885402E+04</rscale>
<asrwt>0</asrwt>
<pdfrwt beam="1">  1        2 0.39533475E+00 0.22885402E+04</pdfrwt>
<pdfrwt beam="2">  1       -1 0.78390851E-01 0.22885402E+04</pdfrwt>
<totfact> 0.53320161E+00</totfact>
</mgrwt>
</event>
<event>
12    7  0.1741211E-007  0.1660076E+04  0.7818608E-02  0.8784468E-01
         -1   -1    0    0    0  501 -0.00000000000E+00  0.00000000000E+00  0.30629025721E+03  0.30629025721E+03  0.00000000000E+00 0.  1.
          2   -1    0    0  501    0  0.00000000000E+00 -0.00000000000E+00 -0.22493809902E+04  0.22493809902E+04  0.00000000000E+00 0. -1.
         24    2    1    2    0    0  0.24353826133E+03 -0.27686881852E+03 -0.13987642831E+04  0.14488885830E+04  0.82276234910E+02 0.  0.
        254    2    1    2    0    0 -0.24353826133E+03  0.27686881852E+03 -0.54432644984E+03  0.11067826644E+04  0.89034226832E+03 0.  0.
         23    2    4    4    0    0 -0.21425584452E+03  0.16364377847E+03 -0.77920831719E+03  0.82964691983E+03  0.91997591673E+02 0.  0.
         23    2    4    4    0    0 -0.29282416810E+02  0.11322504005E+03  0.23488186735E+03  0.27713574454E+03  0.89204033898E+02 0.  0.
          2    1    3    3  502    0  0.21341618645E+03 -0.25046361246E+03 -0.13215716646E+04  0.13619214935E+04  0.00000000000E+00 0. -1.
         -1    1    3    3    0  502  0.30122074884E+02 -0.26405206059E+02 -0.77192618561E+02  0.86967089537E+02  0.00000000000E+00 0.  1.
         13    1    5    5    0    0 -0.14384492066E+03  0.64410550110E+02 -0.51885424542E+03  0.54226359656E+03  0.00000000000E+00 0. -1.
        -13    1    5    5    0    0 -0.70410923862E+02  0.99233228361E+02 -0.26035407177E+03  0.28738332327E+03  0.00000000000E+00 0.  1.
          3    1    6    6  503    0 -0.33661276412E+02  0.59315083656E+02  0.20345329824E+03  0.21458006721E+03  0.00000000000E+00 0. -1.
         -3    1    6    6    0  503  0.43788596022E+01  0.53909956395E+02  0.31428569106E+02  0.62555677328E+02  0.00000000000E+00 0.  1.
<mgrwt>
<rscale>  0 0.16600765E+04</rscale>
<asrwt>0</asrwt>
<pdfrwt beam="1">  1        2 0.34605862E+00 0.16600765E+04</pdfrwt>
<pdfrwt beam="2">  1       -1 0.47121577E-01 0.16600765E+04</pdfrwt>
<totfact> 0.23664167E+01</totfact>
</mgrwt>
</event>
<event>
12    7  0.1741211E-007  0.2981939E+04  0.7818608E-02  0.8248907E-01
         -1   -1    0    0    0  501 -0.00000000000E+00  0.00000000000E+00  0.76274836845E+03  0.76274836845E+03  0.00000000000E+00 0.  1.
          2   -1    0    0  501    0  0.00000000000E+00 -0.00000000000E+00 -0.29144481868E+04  0.29144481868E+04  0.00000000000E+00 0. -1.
         24    2    1    2    0    0  0.62881051545E+03  0.10636352071E+04 -0.16647991322E+04  0.20750770780E+04  0.87556899846E+02 0.  0.
        254    2    1    2    0    0 -0.62881051545E+03 -0.10636352071E+04 -0.48690068613E+03  0.16021194773E+04  0.89609822190E+03 0.  0.
         23    2    4    4    0    0 -0.75672612758E+03 -0.57819799578E+03 -0.52509810020E+03  0.10904876042E+04  0.80547163751E+02 0.  0.
         23    2    4    4    0    0  0.12791561213E+03 -0.48543721131E+03  0.38197414072E+02  0.51163187310E+03  0.91084802139E+02 0.  0.
          4    1    3    3  502    0  0.58508507345E+03  0.95900322637E+03 -0.14767094548E+04  0.18554467239E+04  0.00000000000E+00 0. -1.
         -3    1    3    3    0  502  0.43725441996E+02  0.10463198072E+03 -0.18808967740E+03  0.21963035403E+03  0.00000000000E+00 0.  1.
         13    1    5    5    0    0 -0.40744306482E+02 -0.21463035865E+02 -0.44581853905E+02  0.64096038231E+02  0.00000000000E+00 0.  1.
        -13    1    5    5    0    0 -0.71598182110E+03 -0.55673495991E+03 -0.48051624630E+03  0.10263915660E+04  0.00000000000E+00 0. -1.
          2    1    6    6  503    0  0.62966689842E+02 -0.17128613046E+03 -0.26414913573E+02  0.18439492991E+03  0.00000000000E+00 0. -1.
         -2    1    6    6    0  503  0.64948922291E+02 -0.31415108085E+03  0.64612327645E+02  0.32723694319E+03  0.00000000000E+00 0.  1.
<mgrwt>
<rscale>  0 0.29819394E+04</rscale>
<asrwt>0</asrwt>
<pdfrwt beam="1">  1        2 0.44837665E+00 0.29819394E+04</pdfrwt>
<pdfrwt beam="2">  1       -1 0.11734590E+00 0.29819394E+04</pdfrwt>
<totfact> 0.12528239E+00</totfact>
</mgrwt>
</event>
<event>
12    7  0.1741211E-007  0.2489258E+04  0.7818608E-02  0.8406823E-01
          2   -1    0    0  501    0  0.00000000000E+00  0.00000000000E+00  0.30164891502E+04  0.30164891502E+04  0.00000000000E+00 0. -1.
         -1   -1    0    0    0  501 -0.00000000000E+00 -0.00000000000E+00 -0.51354439091E+03  0.51354439091E+03  0.00000000000E+00 0.  1.
         24    2    1    2    0    0  0.10129054425E+03  0.98325220006E+03  0.47393136046E+03  0.10990635593E+04  0.79278684086E+02 0.  0.
        254    2    1    2    0    0 -0.10129054425E+03 -0.98325220006E+03  0.20290133988E+04  0.24309699818E+04  0.90314728386E+03 0.  0.
         23    2    4    4    0    0  0.11044368806E+02 -0.10281848225E+04  0.11775448183E+04  0.15661824790E+04  0.95025003068E+02 0.  0.
         23    2    4    4    0    0 -0.11233491305E+03  0.44932622396E+02  0.85146858050E+03  0.86478750274E+03  0.90667569054E+02 0.  0.
          4    1    3    3  502    0  0.58103796868E+02  0.27478160642E+03  0.15666473312E+03  0.32159729638E+03  0.00000000000E+00 0. -1.
         -3    1    3    3    0  502  0.43186747381E+02  0.70847059365E+03  0.31726662734E+03  0.77746626295E+03  0.00000000000E+00 0.  1.
         13    1    5    5    0    0  0.13245642337E+02 -0.82335094082E+03  0.88269919419E+03  0.12071619967E+04  0.00000000000E+00 0. -1.
        -13    1    5    5    0    0 -0.22012735313E+01 -0.20483388164E+03  0.29484562414E+03  0.35902048235E+03  0.00000000000E+00 0.  1.
          2    1    6    6  503    0 -0.81680755232E+02  0.56686629235E+01  0.71195838400E+03  0.71665097507E+03  0.00000000000E+00 0. -1.
         -2    1    6    6    0  503 -0.30654157822E+02  0.39263959473E+02  0.13951019650E+03  0.14813652768E+03  0.00000000000E+00 0.  1.
<mgrwt>
<rscale>  0 0.24892578E+04</rscale>
<asrwt>0</asrwt>
<pdfrwt beam="1">  1        2 0.46407524E+00 0.24892578E+04</pdfrwt>
<pdfrwt beam="2">  1       -1 0.79006831E-01 0.24892578E+04</pdfrwt>
<totfact> 0.27654677E+00</totfact>
</mgrwt>
</event>
<event>
12    7  0.1741211E-007  0.1787727E+04  0.7818608E-02  0.8712854E-01
          2   -1    0    0  501    0  0.00000000000E+00  0.00000000000E+00  0.20788342896E+04  0.20788342896E+04  0.00000000000E+00 0. -1.
         -1   -1    0    0    0  501 -0.00000000000E+00 -0.00000000000E+00 -0.38434604796E+03  0.38434604796E+03  0.00000000000E+00 0.  1.
         24    2    1    2    0    0  0.45809087101E+03 -0.22972308176E+03  0.12261195069E+04  0.13309442059E+04  0.73644372347E+02 0.  0.
        254    2    1    2    0    0 -0.45809087101E+03  0.22972308176E+03  0.46836873474E+03  0.11322361317E+04  0.89441011050E+03 0.  0.
         23    2    4    4    0    0  0.72127796561E+02  0.38154797410E+03 -0.41986038666E+01  0.40045688448E+03  0.97810083714E+02 0.  0.
         23    2    4    4    0    0 -0.53021866758E+03 -0.15182489234E+03  0.47256733860E+03  0.73177924719E+03  0.89433459738E+02 0.  0.
          4    1    3    3  502    0  0.26797583335E+03 -0.10964106912E+03  0.61440707422E+03  0.67921150178E+03  0.00000000000E+00 0. -1.
         -3    1    3    3    0  502  0.19011503767E+03 -0.12008201264E+03  0.61171243272E+03  0.65173270414E+03  0.00000000000E+00 0.  1.
         13    1    5    5    0    0  0.37539486362E+02  0.35333933784E+03 -0.98723639898E+01  0.35546499726E+03  0.00000000000E+00 0. -1.
        -13    1    5    5    0    0  0.34588310199E+02  0.28208636255E+02  0.56737601231E+01  0.44991887221E+02  0.00000000000E+00 0.  1.
          2    1    6    6  503    0 -0.52484090717E+03 -0.13658296624E+03  0.45503416785E+03  0.70793289118E+03  0.00000000000E+00 0. -1.
         -2    1    6    6    0  503 -0.53777604080E+01 -0.15241926097E+02  0.17533170755E+02  0.23846356008E+02  0.00000000000E+00 0.  1.
<mgrwt>
<rscale>  0 0.17877268E+04</rscale>
<asrwt>0</asrwt>
<pdfrwt beam="1">  1        2 0.31982065E+00 0.17877268E+04</pdfrwt>
<pdfrwt beam="2">  1       -1 0.59130162E-01 0.17877268E+04</pdfrwt>
<totfact> 0.18840644E+01</totfact>
</mgrwt>
</event>
<event>
12    7  0.1741211E-007  0.1374961E+04  0.7818608E-02  0.8972145E-01
         -1   -1    0    0    0  501 -0.00000000000E+00  0.00000000000E+00  0.34751833072E+03  0.34751833072E+03  0.00000000000E+00 0.  1.
          2   -1    0    0  501    0  0.00000000000E+00 -0.00000000000E+00 -0.13600136621E+04  0.13600136621E+04  0.00000000000E+00 0. -1.
         24    2    1    2    0    0  0.11039396066E+03 -0.33503514912E+03 -0.10130466971E+03  0.37546699778E+03  0.79230376890E+02 0.  0.
        254    2    1    2    0    0 -0.11039396066E+03  0.33503514912E+03 -0.91119066164E+03  0.13320649950E+04  0.90536917958E+03 0.  0.
         23    2    4    4    0    0  0.14955517140E+03  0.18295903080E+03  0.10043119691E+03  0.27254913472E+03  0.91410334657E+02 0.  0.
         23    2    4    4    0    0 -0.25994913207E+03  0.15207611832E+03 -0.10116218585E+04  0.10595158603E+04  0.92164941594E+02 0.  0.
          4    1    3    3  502    0  0.23720024042E+02 -0.18814313548E+02 -0.23894355090E+02  0.38568875275E+02  0.00000000000E+00 0. -1.
         -3    1    3    3    0  502  0.86673936623E+02 -0.31622083557E+03 -0.77410314617E+02  0.33689812251E+03  0.00000000000E+00 0.  1.
         13    1    5    5    0    0  0.87725688390E+02  0.16834087656E+03  0.74247581730E+02  0.20383118142E+03  0.00000000000E+00 0. -1.
        -13    1    5    5    0    0  0.61829483010E+02  0.14618154236E+02  0.26183615179E+02  0.68717953305E+02  0.00000000000E+00 0.  1.
          1    1    6    6  503    0 -0.23476200797E+03  0.16212082386E+03 -0.95553714063E+03  0.99721993012E+03  0.00000000000E+00 0. -1.
         -1    1    6    6    0  503 -0.25187124091E+02 -0.10044705538E+02 -0.56084717917E+02  0.62295930149E+02  0.00000000000E+00 0.  1.
<mgrwt>
<rscale>  0 0.13749613E+04</rscale>
<asrwt>0</asrwt>
<pdfrwt beam="1">  1        2 0.20923287E+00 0.13749613E+04</pdfrwt>
<pdfrwt beam="2">  1       -1 0.53464360E-01 0.13749613E+04</pdfrwt>
<totfact> 0.59838685E+01</totfact>
</mgrwt>
</event>
<event>
12    7  0.1741211E-007  0.2607377E+04  0.7818608E-02  0.8365700E-01
         -1   -1    0    0    0  501 -0.00000000000E+00  0.00000000000E+00  0.39833218758E+03  0.39833218758E+03  0.00000000000E+00 0.  1.
          2   -1    0    0  501    0  0.00000000000E+00 -0.00000000000E+00 -0.42668000295E+04  0.42668000295E+04  0.00000000000E+00 0. -1.
         24    2    1    2    0    0  0.48141309422E+03 -0.82979216622E+03 -0.28395211431E+04  0.29982124811E+04  0.78000981487E+02 0.  0.
        254    2    1    2    0    0 -0.48141309422E+03  0.82979216622E+03 -0.10289466988E+04  0.16669197360E+04  0.89419041086E+03 0.  0.
         23    2    4    4    0    0 -0.28895093227E+03 -0.95911597784E+02 -0.87395800640E+02  0.32934230416E+03  0.90203389543E+02 0.  0.
         23    2    4    4    0    0 -0.19246216194E+03  0.92570376400E+03 -0.94155089817E+03  0.13375774318E+04  0.92877068591E+02 0.  0.
          2    1    3    3  502    0  0.44665754400E+03 -0.74461482843E+03 -0.26220862858E+04  0.27621170675E+04  0.00000000000E+00 0. -1.
         -1    1    3    3    0  502  0.34755550216E+02 -0.85177337788E+02 -0.21743485728E+03  0.23609541356E+03  0.00000000000E+00 0.  1.
         13    1    5    5    0    0 -0.15028496697E+03 -0.14030526199E+02 -0.11668084346E+02  0.15138880789E+03  0.00000000000E+00 0. -1.
        -13    1    5    5    0    0 -0.13866596531E+03 -0.81881071585E+02 -0.75727716293E+02  0.17795349627E+03  0.00000000000E+00 0.  1.
          2    1    6    6  503    0 -0.95439107053E+02  0.40120411931E+03 -0.34839197068E+03  0.53986140234E+03  0.00000000000E+00 0. -1.
         -2    1    6    6    0  503 -0.97023054889E+02  0.52449964469E+03 -0.59315892749E+03  0.79771602950E+03  0.00000000000E+00 0.  1.
<mgrwt>
<rscale>  0 0.26073771E+04</rscale>
<asrwt>0</asrwt>
<pdfrwt beam="1">  1        2 0.65643080E+00 0.26073771E+04</pdfrwt>
<pdfrwt beam="2">  1       -1 0.61281873E-01 0.26073771E+04</pdfrwt>
<totfact> 0.55322857E-01</totfact>
</mgrwt>
</event>
<event>
12    7  0.1741211E-007  0.1778950E+04  0.7818608E-02  0.8717574E-01
          2   -1    0    0  501    0  0.00000000000E+00  0.00000000000E+00  0.17369729349E+04  0.17369729349E+04  0.00000000000E+00 0. -1.
         -1   -1    0    0    0  501 -0.00000000000E+00 -0.00000000000E+00 -0.45548541115E+03  0.45548541115E+03  0.00000000000E+00 0.  1.
         24    2    1    2    0    0 -0.71431940497E+02 -0.29116594276E+02  0.12861867881E+04  0.12909998964E+04  0.80336669680E+02 0.  0.
        254    2    1    2    0    0  0.71431940497E+02  0.29116594276E+02 -0.46992643559E+01  0.90145844962E+03  0.89813971916E+03 0.  0.
         23    2    4    4    0    0 -0.36410685428E+03 -0.17001918063E+03  0.24533464532E+02  0.41311477670E+03  0.92636951200E+02 0.  0.
         23    2    4    4    0    0  0.43553879478E+03  0.19913577490E+03 -0.29232728888E+02  0.48834367293E+03  0.90971928882E+02 0.  0.
          2    1    3    3  502    0 -0.81375107322E+02 -0.10081182384E+01  0.97268723832E+03  0.97608574828E+03  0.00000000000E+00 0. -1.
         -1    1    3    3    0  502  0.99431668253E+01 -0.28108476038E+02  0.31349954974E+03  0.31491414810E+03  0.00000000000E+00 0.  1.
         13    1    5    5    0    0 -0.35518899901E+03 -0.18059396120E+03  0.22159763684E+02  0.39907951459E+03  0.00000000000E+00 0.  1.
        -13    1    5    5    0    0 -0.89178552774E+01  0.10574780570E+02  0.23737008473E+01  0.14035262113E+02  0.00000000000E+00 0. -1.
          2    1    6    6  503    0  0.29206471595E+02  0.36297347404E+02  0.13528394797E+02  0.48513223737E+02  0.00000000000E+00 0. -1.
         -2    1    6    6    0  503  0.40633232319E+03  0.16283842750E+03 -0.42761123685E+02  0.43983044919E+03  0.00000000000E+00 0.  1.
<mgrwt>
<rscale>  0 0.17789501E+04</rscale>
<asrwt>0</asrwt>
<pdfrwt beam="1">  1        2 0.26722660E+00 0.17789501E+04</pdfrwt>
<pdfrwt beam="2">  1       -1 0.70074680E-01 0.17789501E+04</pdfrwt>
<totfact> 0.20740437E+01</totfact>
</mgrwt>
</event>
<event>
12    7  0.1741211E-007  0.1963397E+04  0.7818608E-02  0.8623928E-01
         -1   -1    0    0    0  501 -0.00000000000E+00  0.00000000000E+00  0.52373713442E+03  0.52373713442E+03  0.00000000000E+00 0.  1.
          2   -1    0    0  501    0  0.00000000000E+00 -0.00000000000E+00 -0.18401063455E+04  0.18401063455E+04  0.00000000000E+00 0. -1.
         24    2    1    2    0    0  0.15968661925E+03  0.73307274846E+03 -0.26394357383E+03  0.79933380509E+03  0.79830137710E+02 0.  0.
        254    2    1    2    0    0 -0.15968661925E+03 -0.73307274846E+03 -0.10524256372E+04  0.15645096748E+04  0.88158682488E+03 0.  0.
         23    2    4    4    0    0 -0.30873322395E+03  0.68350448883E+02 -0.22253300588E+03  0.39756699149E+03  0.92469381873E+02 0.  0.
         23    2    4    4    0    0  0.14904660470E+03 -0.80142319734E+03 -0.82989263136E+03  0.11669426833E+04  0.92408955108E+02 0.  0.
          2    1    3    3  502    0  0.95763430303E+02  0.33612245477E+03 -0.15795320197E+03  0.38353377061E+03  0.00000000000E+00 0. -1.
         -1    1    3    3    0  502  0.63923188947E+02  0.39695029369E+03 -0.10599037186E+03  0.41580003448E+03  0.00000000000E+00 0.  1.
         13    1    5    5    0    0 -0.29095089657E+03  0.71238590741E+02 -0.17542789497E+03  0.34713442260E+03  0.00000000000E+00 0. -1.
        -13    1    5    5    0    0 -0.17782327386E+02 -0.28881418586E+01 -0.47105110912E+02  0.50432568888E+02  0.00000000000E+00 0.  1.
          1    1    6    6  503    0  0.15729045287E+03 -0.76338542523E+03 -0.80627096161E+03  0.11214144896E+04  0.00000000000E+00 0. -1.
         -1    1    6    6    0  503 -0.82438481663E+01 -0.38037772118E+02 -0.23621669750E+02  0.45528193706E+02  0.00000000000E+00 0.  1.
<mgrwt>
<rscale>  0 0.19633971E+04</rscale>
<asrwt>0</asrwt>
<pdfrwt beam="1">  1        2 0.28309328E+00 0.19633971E+04</pdfrwt>
<pdfrwt beam="2">  1       -1 0.80574945E-01 0.19633971E+04</pdfrwt>
<totfact> 0.13362299E+01</totfact>
</mgrwt>
</event>
<event>
12    7  0.1741211E-007  0.2626280E+04  0.7818608E-02  0.8359329E-01
         -1   -1    0    0    0  501 -0.00000000000E+00  0.00000000000E+00  0.88083660089E+03  0.88083660089E+03  0.00000000000E+00 0.  1.
          2   -1    0    0  501    0  0.00000000000E+00 -0.00000000000E+00 -0.19576119048E+04  0.19576119048E+04  0.00000000000E+00 0. -1.
         24    2    1    2    0    0 -0.22529207951E+03 -0.29099714289E+03  0.71482535234E+03  0.80812668410E+03  0.81594086478E+02 0.  0.
        254    2    1    2    0    0  0.22529207951E+03  0.29099714289E+03 -0.17916006562E+04  0.20303218216E+04  0.88144082584E+03 0.  0.
         23    2    4    4    0    0  0.39799874027E+03 -0.16605532226E+03 -0.10383568684E+04  0.11279435394E+04  0.89968186335E+02 0.  0.
         23    2    4    4    0    0 -0.17270666076E+03  0.45705246515E+03 -0.75324378784E+03  0.90237828220E+03  0.90475486713E+02 0.  0.
          2    1    3    3  502    0 -0.35468857003E+02 -0.13219712431E+02  0.47058042552E+02  0.60392549066E+02  0.00000000000E+00 0. -1.
         -1    1    3    3    0  502 -0.18982322251E+03 -0.27777743046E+03  0.66776730979E+03  0.74773413504E+03  0.00000000000E+00 0.  1.
         13    1    5    5    0    0  0.22624535709E+03 -0.13989748982E+03 -0.59455658077E+03  0.65134921279E+03  0.00000000000E+00 0.  1.
        -13    1    5    5    0    0  0.17175338318E+03 -0.26157832433E+02 -0.44380028761E+03  0.47659432657E+03  0.00000000000E+00 0. -1.
          1    1    6    6  503    0 -0.86852350346E+02  0.14583014326E+03 -0.20510826685E+03  0.26623140794E+03  0.00000000000E+00 0. -1.
         -1    1    6    6    0  503 -0.85854310410E+02  0.31122232189E+03 -0.54813552098E+03  0.63614687425E+03  0.00000000000E+00 0.  1.
<mgrwt>
<rscale>  0 0.26262797E+04</rscale>
<asrwt>0</asrwt>
<pdfrwt beam="1">  1        2 0.30117106E+00 0.26262797E+04</pdfrwt>
<pdfrwt beam="2">  1       -1 0.13551333E+00 0.26262797E+04</pdfrwt>
<totfact> 0.32316166E+00</totfact>
</mgrwt>
</event>
<event>
12    7  0.1741211E-007  0.1216448E+04  0.7818608E-02  0.9098581E-01
          2   -1    0    0  501    0  0.00000000000E+00  0.00000000000E+00  0.23736026898E+03  0.23736026898E+03  0.00000000000E+00 0. -1.
         -1   -1    0    0    0  501 -0.00000000000E+00 -0.00000000000E+00 -0.15585431103E+04  0.15585431103E+04  0.00000000000E+00 0.  1.
         24    2    1    2    0    0 -0.10918116701E+03  0.15393324965E+03 -0.56559564369E+03  0.60163187124E+03  0.80290122362E+02 0.  0.
        254    2    1    2    0    0  0.10918116701E+03 -0.15393324965E+03 -0.75558719764E+03  0.11942715080E+04  0.90540402535E+03 0.  0.
         23    2    4    4    0    0  0.28753525795E+03 -0.36083376793E+03 -0.10295224305E+03  0.48127775276E+03  0.90286091435E+02 0.  0.
         23    2    4    4    0    0 -0.17835409095E+03  0.20690051828E+03 -0.65263495459E+03  0.71299375529E+03  0.88372534751E+02 0.  0.
          2    1    3    3  502    0 -0.74040531203E+02  0.36983212902E+02 -0.21514979757E+03  0.23051939982E+03  0.00000000000E+00 0. -1.
         -1    1    3    3    0  502 -0.35140635803E+02  0.11695003675E+03 -0.35044584612E+03  0.37111247142E+03  0.00000000000E+00 0.  1.
         13    1    5    5    0    0  0.96732058049E+02 -0.19358384442E+03 -0.48052393360E+02  0.22167730688E+03  0.00000000000E+00 0. -1.
        -13    1    5    5    0    0  0.19080319991E+03 -0.16724992351E+03 -0.54899849688E+02  0.25960044589E+03  0.00000000000E+00 0.  1.
          1    1    6    6  503    0 -0.18736341567E+03  0.19196088561E+03 -0.62716614962E+03  0.68212272383E+03  0.00000000000E+00 0. -1.
         -1    1    6    6    0  503  0.90093247268E+01  0.14939632673E+02 -0.25468804977E+02  0.30871031460E+02  0.00000000000E+00 0.  1.
<mgrwt>
<rscale>  0 0.12164476E+04</rscale>
<asrwt>0</asrwt>
<pdfrwt beam="1">  1        2 0.36516964E-01 0.12164476E+04</pdfrwt>
<pdfrwt beam="2">  1       -1 0.23977587E+00 0.12164476E+04</pdfrwt>
<totfact> 0.13139721E+01</totfact>
</mgrwt>
</event>
<event>
12    7  0.1741211E-007  0.1996218E+04  0.7818608E-02  0.8608391E-01
          2   -1    0    0  501    0  0.00000000000E+00  0.00000000000E+00  0.36934149466E+04  0.36934149466E+04  0.00000000000E+00 0. -1.
         -1   -1    0    0    0  501 -0.00000000000E+00 -0.00000000000E+00 -0.26972910778E+03  0.26972910778E+03  0.00000000000E+00 0.  1.
         24    2    1    2    0    0 -0.33036696967E+01 -0.70463733918E+03  0.65550195644E+03  0.96561521902E+03  0.78773360419E+02 0.  0.
        254    2    1    2    0    0  0.33036696967E+01  0.70463733918E+03  0.27681838824E+04  0.29975288353E+04  0.90874221766E+03 0.  0.
         23    2    4    4    0    0  0.33119883599E+03  0.30802098237E+03  0.54370519292E+03  0.71250178567E+03  0.86451507971E+02 0.  0.
         23    2    4    4    0    0 -0.32789516630E+03  0.39661635681E+03  0.22244786894E+04  0.22850270497E+04  0.90682983001E+02 0.  0.
          4    1    3    3  502    0  0.25383807936E+02 -0.16385880291E+03  0.12629539230E+03  0.20843361320E+03  0.00000000000E+00 0. -1.
         -3    1    3    3    0  502 -0.28687477633E+02 -0.54077853627E+03  0.52920656414E+03  0.75718160582E+03  0.00000000000E+00 0.  1.
         13    1    5    5    0    0  0.11989683742E+01  0.24301966797E+02  0.19448543166E+02  0.31149140384E+02  0.00000000000E+00 0. -1.
        -13    1    5    5    0    0  0.32999986762E+03  0.28371901557E+03  0.52425664975E+03  0.68135264528E+03  0.00000000000E+00 0.  1.
          1    1    6    6  503    0 -0.15826803075E+02  0.65408422794E+02  0.30683296232E+03  0.31412611518E+03  0.00000000000E+00 0. -1.
         -1    1    6    6    0  503 -0.31206836322E+03  0.33120793402E+03  0.19176457271E+04  0.19709009345E+04  0.00000000000E+00 0.  1.
<mgrwt>
<rscale>  0 0.19962179E+04</rscale>
<asrwt>0</asrwt>
<pdfrwt beam="1">  1        2 0.56821765E+00 0.19962179E+04</pdfrwt>
<pdfrwt beam="2">  1       -1 0.41496788E-01 0.19962179E+04</pdfrwt>
<totfact> 0.35809201E+00</totfact>
</mgrwt>
</event>
<event>
12    7  0.1741211E-007  0.1253758E+04  0.7818608E-02  0.9067061E-01
         -1   -1    0    0    0  501 -0.00000000000E+00  0.00000000000E+00  0.74742971685E+03  0.74742971685E+03  0.00000000000E+00 0.  1.
          2   -1    0    0  501    0  0.00000000000E+00 -0.00000000000E+00 -0.52577143371E+03  0.52577143371E+03  0.00000000000E+00 0. -1.
         24    2    1    2    0    0 -0.12650043862E+03  0.22114374687E+03 -0.80920859792E+02  0.27870538112E+03  0.78877031916E+02 0.  0.
        254    2    1    2    0    0  0.12650043862E+03 -0.22114374687E+03  0.30257914293E+03  0.99449576944E+03  0.91244768615E+03 0.  0.
         23    2    4    4    0    0 -0.35371665305E+03 -0.20906135595E+03  0.28138512755E+03  0.50632599159E+03  0.91467472679E+02 0.  0.
         23    2    4    4    0    0  0.48021709167E+03 -0.12082390919E+02  0.21194015386E+02  0.48816977785E+03  0.84297724882E+02 0.  0.
          2    1    3    3  502    0 -0.13770185671E+03  0.20347758550E+03 -0.72617557584E+02  0.25619960736E+03  0.00000000000E+00 0. -1.
         -1    1    3    3    0  502  0.11201418092E+02  0.17666161375E+02 -0.83033022082E+01  0.22505773760E+02  0.00000000000E+00 0.  1.
         13    1    5    5    0    0 -0.11408488390E+03 -0.46879761358E+02  0.13210099233E+03  0.18073113991E+03  0.00000000000E+00 0. -1.
        -13    1    5    5    0    0 -0.23963176915E+03 -0.16218159459E+03  0.14928413521E+03  0.32559485168E+03  0.00000000000E+00 0.  1.
          2    1    6    6  503    0  0.29034567091E+03 -0.47715268081E+02  0.46563116072E+01  0.29427714261E+03  0.00000000000E+00 0. -1.
         -2    1    6    6    0  503  0.18987142076E+03  0.35632877162E+02  0.16537703779E+02  0.19389263524E+03  0.00000000000E+00 0.  1.
<mgrwt>
<rscale>  0 0.12537579E+04</rscale>
<asrwt>0</asrwt>
<pdfrwt beam="1">  1        2 0.80887913E-01 0.12537579E+04</pdfrwt>
<pdfrwt beam="2">  1       -1 0.11498919E+00 0.12537579E+04</pdfrwt>
<totfact> 0.44834253E+01</totfact>
</mgrwt>
</event>
<event>
12    7  0.1741211E-007  0.1973884E+04  0.7818608E-02  0.8618929E-01
         -1   -1    0    0    0  501 -0.00000000000E+00  0.00000000000E+00  0.43755265756E+03  0.43755265756E+03  0.00000000000E+00 0.  1.
          2   -1    0    0  501    0  0.00000000000E+00 -0.00000000000E+00 -0.22261415953E+04  0.22261415953E+04  0.00000000000E+00 0. -1.
         24    2    1    2    0    0 -0.36841990679E+03  0.37342133629E+03 -0.15081705720E+04  0.15987306997E+04  0.78642569023E+02 0.  0.
        254    2    1    2    0    0  0.36841990679E+03 -0.37342133629E+03 -0.28041836572E+03  0.10649635532E+04  0.88336639492E+03 0.  0.
         23    2    4    4    0    0  0.19157741604E+03  0.23920881088E+03 -0.27331148655E+03  0.42075645850E+03  0.91728224430E+02 0.  0.
         23    2    4    4    0    0  0.17684249076E+03 -0.61263014717E+03 -0.71068791759E+01  0.64420709469E+03  0.91451130961E+02 0.  0.
          4    1    3    3  502    0 -0.28253803235E+03  0.32089213669E+03 -0.11594193028E+04  0.12357397067E+04  0.00000000000E+00 0. -1.
         -3    1    3    3    0  502 -0.85881874439E+02  0.52529199597E+02 -0.34875126923E+03  0.36299099294E+03  0.00000000000E+00 0.  1.
         13    1    5    5    0    0 -0.70067865951E+01  0.20120945127E+01  0.92897047820E+00  0.73489161695E+01  0.00000000000E+00 0. -1.
        -13    1    5    5    0    0  0.19858420263E+03  0.23719671637E+03 -0.27424045702E+03  0.41340754234E+03  0.00000000000E+00 0.  1.
          3    1    6    6  503    0  0.32969387542E+02 -0.26755650438E+03 -0.18027880087E+02  0.27018228663E+03  0.00000000000E+00 0. -1.
         -3    1    6    6    0  503  0.14387310321E+03 -0.34507364279E+03  0.10921000911E+02  0.37402480805E+03  0.00000000000E+00 0.  1.
<mgrwt>
<rscale>  0 0.19738837E+04</rscale>
<asrwt>0</asrwt>
<pdfrwt beam="1">  1        2 0.34248332E+00 0.19738837E+04</pdfrwt>
<pdfrwt beam="2">  1       -1 0.67315794E-01 0.19738837E+04</pdfrwt>
<totfact> 0.11827059E+01</totfact>
</mgrwt>
</event>
<event>
12    7  0.1741211E-007  0.1495308E+04  0.7818608E-02  0.8887579E-01
         -1   -1    0    0    0  501 -0.00000000000E+00  0.00000000000E+00  0.12458227425E+04  0.12458227425E+04  0.00000000000E+00 0.  1.
          2   -1    0    0  501    0  0.00000000000E+00 -0.00000000000E+00 -0.44868890236E+03  0.44868890236E+03  0.00000000000E+00 0. -1.
         24    2    1    2    0    0  0.14667612443E+03 -0.44801675003E+03  0.32073659012E+03  0.57507362388E+03  0.74865338154E+02 0.  0.
        254    2    1    2    0    0 -0.14667612443E+03  0.44801675003E+03  0.47639725006E+03  0.11194380210E+04  0.89663495875E+03 0.  0.
         23    2    4    4    0    0 -0.44814034760E+03  0.51597857986E+03  0.31241138868E+03  0.75702573405E+03  0.91779192777E+02 0.  0.
         23    2    4    4    0    0  0.30146422317E+03 -0.67961829832E+02  0.16398586138E+03  0.36241228697E+03  0.94614030930E+02 0.  0.
          4    1    3    3  502    0  0.34934246869E+02 -0.19072624813E+03  0.16265788765E+03  0.25308988867E+03  0.00000000000E+00 0. -1.
         -3    1    3    3    0  502  0.11174187756E+03 -0.25729050190E+03  0.15807870247E+03  0.32198373521E+03  0.00000000000E+00 0.  1.
         13    1    5    5    0    0 -0.39351669484E+03  0.40594670205E+03  0.23819041483E+03  0.61350043826E+03  0.00000000000E+00 0. -1.
        -13    1    5    5    0    0 -0.54623652754E+02  0.11003187781E+03  0.74220973853E+02  0.14352529580E+03  0.00000000000E+00 0.  1.
          1    1    6    6  503    0  0.27462292451E+03 -0.29638309788E+02  0.13586810956E+03  0.30782515048E+03  0.00000000000E+00 0. -1.
         -1    1    6    6    0  503  0.26841298653E+02 -0.38323520044E+02  0.28117751825E+02  0.54587136485E+02  0.00000000000E+00 0.  1.
<mgrwt>
<rscale>  0 0.14953084E+04</rscale>
<asrwt>0</asrwt>
<pdfrwt beam="1">  1        2 0.69029062E-01 0.14953084E+04</pdfrwt>
<pdfrwt beam="2">  1       -1 0.19166504E+00 0.14953084E+04</pdfrwt>
<totfact> 0.13265790E+01</totfact>
</mgrwt>
</event>
<event>
12    7  0.1741211E-007  0.1979751E+04  0.7818608E-02  0.8616147E-01
         -1   -1    0    0    0  501 -0.00000000000E+00  0.00000000000E+00  0.98354390759E+03  0.98354390759E+03  0.00000000000E+00 0.  1.
          2   -1    0    0  501    0  0.00000000000E+00 -0.00000000000E+00 -0.99624736665E+03  0.99624736665E+03  0.00000000000E+00 0. -1.
         24    2    1    2    0    0  0.44361781964E+03  0.10023932312E+03 -0.63881906901E+03  0.78842601381E+03  0.81737901323E+02 0.  0.
        254    2    1    2    0    0 -0.44361781964E+03 -0.10023932312E+03  0.62611560995E+03  0.11913652604E+04  0.90580667636E+03 0.  0.
         23    2    4    4    0    0 -0.35493756077E+03 -0.27356978484E+03 -0.70196421118E+02  0.46271488653E+03  0.91413508064E+02 0.  0.
         23    2    4    4    0    0 -0.88680258875E+02  0.17333046173E+03  0.69631203107E+03  0.72865037390E+03  0.90406224889E+02 0.  0.
          4    1    3    3  502    0  0.25420608122E+03  0.57296863425E+02 -0.43356769446E+03  0.50585038101E+03  0.00000000000E+00 0. -1.
         -3    1    3    3    0  502  0.18941173842E+03  0.42942459690E+02 -0.20525137455E+03  0.28257563280E+03  0.00000000000E+00 0.  1.
         13    1    5    5    0    0 -0.24672667401E+03 -0.17511520139E+03 -0.88609418041E+02  0.31526340478E+03  0.00000000000E+00 0.  1.
        -13    1    5    5    0    0 -0.10821088675E+03 -0.98454583447E+02  0.18412996923E+02  0.14745148175E+03  0.00000000000E+00 0. -1.
          2    1    6    6  503    0 -0.15160826967E+02  0.12111078921E+03  0.45334133265E+03  0.46948486433E+03  0.00000000000E+00 0. -1.
         -2    1    6    6    0  503 -0.73519431908E+02  0.52219672512E+02  0.24297069841E+03  0.25916550957E+03  0.00000000000E+00 0.  1.
<mgrwt>
<rscale>  0 0.19797505E+04</rscale>
<asrwt>0</asrwt>
<pdfrwt beam="1">  1        2 0.15326883E+00 0.19797505E+04</pdfrwt>
<pdfrwt beam="2">  1       -1 0.15131445E+00 0.19797505E+04</pdfrwt>
<totfact> 0.91628695E+00</totfact>
</mgrwt>
</event>
<event>
12    7  0.1741211E-007  0.2239942E+04  0.7818608E-02  0.8501985E-01
          2   -1    0    0  501    0  0.00000000000E+00  0.00000000000E+00  0.28311845355E+04  0.28311845355E+04  0.00000000000E+00 0. -1.
         -1   -1    0    0    0  501 -0.00000000000E+00 -0.00000000000E+00 -0.44304268045E+03  0.44304268045E+03  0.00000000000E+00 0.  1.
         24    2    1    2    0    0  0.83727430801E+03  0.39424914885E+03  0.12211377135E+04  0.15343290017E+04  0.80793020228E+02 0.  0.
        254    2    1    2    0    0 -0.83727430801E+03 -0.39424914885E+03  0.11670041416E+04  0.17398982142E+04  0.89938116010E+03 0.  0.
         23    2    4    4    0    0 -0.34595048210E+02 -0.24392096611E+03 -0.53748882939E+02  0.26830633855E+03  0.91679298757E+02 0.  0.
         23    2    4    4    0    0 -0.80267925980E+03 -0.15032818273E+03  0.12207530245E+04  0.14715918757E+04  0.91935548082E+02 0.  0.
          4    1    3    3  502    0  0.36779229190E+03  0.16928271475E+03  0.60074207152E+03  0.72444381700E+03  0.00000000000E+00 0. -1.
         -3    1    3    3    0  502  0.46948201610E+03  0.22496643410E+03  0.62039564195E+03  0.80988518475E+03  0.00000000000E+00 0.  1.
         13    1    5    5    0    0 -0.24300340971E+01 -0.19937368405E+03 -0.12835498361E+02  0.19980120364E+03  0.00000000000E+00 0. -1.
        -13    1    5    5    0    0 -0.32165014113E+02 -0.44547282063E+02 -0.40913384577E+02  0.68505134915E+02  0.00000000000E+00 0.  1.
          1    1    6    6  503    0 -0.61912423087E+03 -0.15477843163E+03  0.95045699644E+03  0.11448317249E+04  0.00000000000E+00 0. -1.
         -1    1    6    6    0  503 -0.18355502893E+03  0.44502488952E+01  0.27029602811E+03  0.32676015083E+03  0.00000000000E+00 0.  1.
<mgrwt>
<rscale>  0 0.22399425E+04</rscale>
<asrwt>0</asrwt>
<pdfrwt beam="1">  1        2 0.43556684E+00 0.22399425E+04</pdfrwt>
<pdfrwt beam="2">  1       -1 0.68160414E-01 0.22399425E+04</pdfrwt>
<totfact> 0.50034456E+00</totfact>
</mgrwt>
</event>
<event>
12    7  0.1741211E-007  0.2975475E+04  0.7818608E-02  0.8250769E-01
         -1   -1    0    0    0  501 -0.00000000000E+00  0.00000000000E+00  0.10413605544E+04  0.10413605544E+04  0.00000000000E+00 0.  1.
          2   -1    0    0  501    0  0.00000000000E+00 -0.00000000000E+00 -0.21254535102E+04  0.21254535102E+04  0.00000000000E+00 0. -1.
         24    2    1    2    0    0 -0.98024852299E+03  0.89129159606E+03 -0.22673560342E+03  0.13465194481E+04  0.80110638124E+02 0.  0.
        254    2    1    2    0    0  0.98024852299E+03 -0.89129159606E+03 -0.85735735241E+03  0.18202946164E+04  0.90726125501E+03 0.  0.
         23    2    4    4    0    0  0.10780591014E+04 -0.51690083261E+03 -0.72527072009E+03  0.14014108762E+04  0.92395506969E+02 0.  0.
         23    2    4    4    0    0 -0.97810578431E+02 -0.37439076345E+03 -0.13208663231E+03  0.41888374019E+03  0.91001957946E+02 0.  0.
          2    1    3    3  502    0 -0.29751169882E+03  0.25969452177E+03 -0.10402503224E+03  0.40838176123E+03  0.00000000000E+00 0. -1.
         -1    1    3    3    0  502 -0.68273682418E+03  0.63159707429E+03 -0.12271057117E+03  0.93813768692E+03  0.00000000000E+00 0.  1.
         13    1    5    5    0    0  0.91889754041E+03 -0.44643888048E+03 -0.65589193136E+03  0.12140323675E+04  0.00000000000E+00 0.  1.
        -13    1    5    5    0    0  0.15916156102E+03 -0.70461952137E+02 -0.69378788731E+02  0.18737850872E+03  0.00000000000E+00 0. -1.
          1    1    6    6  503    0 -0.71529746011E+01 -0.38691758877E+01 -0.19556870904E+02  0.21180339168E+02  0.00000000000E+00 0. -1.
         -1    1    6    6    0  503 -0.90657603830E+02 -0.37052158756E+03 -0.11252976141E+03  0.39770340102E+03  0.00000000000E+00 0.  1.
<mgrwt>
<rscale>  0 0.29754754E+04</rscale>
<asrwt>0</asrwt>
<pdfrwt beam="1">  1        2 0.32699285E+00 0.29754754E+04</pdfrwt>
<pdfrwt beam="2">  1       -1 0.16020932E+00 0.29754754E+04</pdfrwt>
<totfact> 0.16150407E+00</totfact>
</mgrwt>
</event>
<event>
12    7  0.1741211E-007  0.4156913E+04  0.7818608E-02  0.7973619E-01
          2   -1    0    0  501    0  0.00000000000E+00  0.00000000000E+00  0.31042216305E+04  0.31042216305E+04  0.00000000000E+00 0. -1.
         -1   -1    0    0    0  501 -0.00000000000E+00 -0.00000000000E+00 -0.13916472348E+04  0.13916472348E+04  0.00000000000E+00 0.  1.
         24    2    1    2    0    0  0.35318423307E+03 -0.15373529451E+04 -0.49433753856E+03  0.16549768709E+04  0.79910330115E+02 0.  0.
        254    2    1    2    0    0 -0.35318423307E+03  0.15373529451E+04  0.22069119342E+04  0.28408919944E+04  0.84380913613E+03 0.  0.
         23    2    4    4    0    0 -0.60503211040E+03  0.83879390283E+03  0.13596257116E+04  0.17106754962E+04  0.90495921509E+02 0.  0.
         23    2    4    4    0    0  0.25184787732E+03  0.69855904228E+03  0.84728622262E+03  0.11302164982E+04  0.89907178891E+02 0.  0.
          4    1    3    3  502    0  0.33733285074E+02 -0.20012083065E+03 -0.89080402894E+02  0.22163393143E+03  0.00000000000E+00 0. -1.
         -3    1    3    3    0  502  0.31945094800E+03 -0.13372321145E+04 -0.40525713567E+03  0.14333429395E+04  0.00000000000E+00 0.  1.
         13    1    5    5    0    0 -0.35543991130E+03  0.43977509704E+03  0.68788916511E+03  0.89046682701E+03  0.00000000000E+00 0. -1.
        -13    1    5    5    0    0 -0.24959219910E+03  0.39901880579E+03  0.67173654646E+03  0.82020866922E+03  0.00000000000E+00 0.  1.
          4    1    6    6  503    0  0.22062730075E+02  0.42244930319E+02  0.91713243620E+02  0.10335723125E+03  0.00000000000E+00 0. -1.
         -4    1    6    6    0  503  0.22978514725E+03  0.65631411196E+03  0.75557297900E+03  0.10268592669E+04  0.00000000000E+00 0.  1.
<mgrwt>
<rscale>  0 0.41569130E+04</rscale>
<asrwt>0</asrwt>
<pdfrwt beam="1">  1        2 0.47757255E+00 0.41569130E+04</pdfrwt>
<pdfrwt beam="2">  1       -1 0.21409958E+00 0.41569130E+04</pdfrwt>
<totfact> 0.15940360E-01</totfact>
</mgrwt>
</event>
<event>
12    7  0.1741211E-007  0.2224129E+04  0.7818608E-02  0.8508452E-01
         -1   -1    0    0    0  501 -0.00000000000E+00  0.00000000000E+00  0.74162580316E+03  0.74162580316E+03  0.00000000000E+00 0.  1.
          2   -1    0    0  501    0  0.00000000000E+00 -0.00000000000E+00 -0.16675350918E+04  0.16675350918E+04  0.00000000000E+00 0. -1.
         24    2    1    2    0    0  0.31495567771E+03 -0.44995650083E+03 -0.11677690713E+04  0.12923813703E+04  0.70050487449E+02 0.  0.
        254    2    1    2    0    0 -0.31495567771E+03  0.44995650083E+03  0.24185978274E+03  0.11167795246E+04  0.94182929480E+03 0.  0.
         23    2    4    4    0    0  0.83026206111E+01 -0.20548556800E+03  0.30334372832E+03  0.37768497851E+03  0.91297718007E+02 0.  0.
         23    2    4    4    0    0 -0.32325829832E+03  0.65544206883E+03 -0.61483945588E+02  0.73909454611E+03  0.91543648006E+02 0.  0.
          4    1    3    3  502    0  0.30751878984E+03 -0.43141627577E+03 -0.10878316354E+04  0.12099857339E+04  0.00000000000E+00 0. -1.
         -3    1    3    3    0  502  0.74368878691E+01 -0.18540225064E+02 -0.79937435915E+02  0.82395636458E+02  0.00000000000E+00 0.  1.
         13    1    5    5    0    0  0.41098841940E+02 -0.15480792911E+03  0.25119147178E+03  0.29791234486E+03  0.00000000000E+00 0. -1.
        -13    1    5    5    0    0 -0.32796221329E+02 -0.50677638890E+02  0.52152256542E+02  0.79772633649E+02  0.00000000000E+00 0.  1.
          1    1    6    6  503    0 -0.16186350949E+03  0.31796587865E+03  0.15667417454E+02  0.35713801766E+03  0.00000000000E+00 0. -1.
         -1    1    6    6    0  503 -0.16139478883E+03  0.33747619019E+03 -0.77151363042E+02  0.38195652845E+03  0.00000000000E+00 0.  1.
<mgrwt>
<rscale>  0 0.22241286E+04</rscale>
<asrwt>0</asrwt>
<pdfrwt beam="1">  1        2 0.25654386E+00 0.22241286E+04</pdfrwt>
<pdfrwt beam="2">  1       -1 0.11409628E+00 0.22241286E+04</pdfrwt>
<totfact> 0.74297304E+00</totfact>
</mgrwt>
</event>
<event>
12    7  0.1741211E-007  0.2170175E+04  0.7818608E-02  0.8530945E-01
          2   -1    0    0  501    0  0.00000000000E+00  0.00000000000E+00  0.16521623481E+04  0.16521623481E+04  0.00000000000E+00 0. -1.
         -1   -1    0    0    0  501 -0.00000000000E+00 -0.00000000000E+00 -0.71265100349E+03  0.71265100349E+03  0.00000000000E+00 0.  1.
         24    2    1    2    0    0 -0.28385800360E+03 -0.54072464205E+03  0.10925774839E+04  0.12542316394E+04  0.80080849003E+02 0.  0.
        254    2    1    2    0    0  0.28385800360E+03  0.54072464205E+03 -0.15306613931E+03  0.11105817121E+04  0.91487922237E+03 0.  0.
         23    2    4    4    0    0 -0.94235273538E+02  0.54506120227E+03  0.18936924533E+03  0.59175705673E+03  0.91343867391E+02 0.  0.
         23    2    4    4    0    0  0.37809327714E+03 -0.43365602180E+01 -0.34243538464E+03  0.51882465538E+03  0.94571128825E+02 0.  0.
          2    1    3    3  502    0 -0.23115463182E+03 -0.47938366653E+03  0.98577264950E+03  0.11202628620E+04  0.00000000000E+00 0. -1.
         -1    1    3    3    0  502 -0.52703371775E+02 -0.61340975525E+02  0.10680483438E+03  0.13396877741E+03  0.00000000000E+00 0.  1.
         13    1    5    5    0    0 -0.62536600859E+02  0.20211867537E+03  0.10943119637E+03  0.23819733861E+03  0.00000000000E+00 0. -1.
        -13    1    5    5    0    0 -0.31698672679E+02  0.34294252690E+03  0.79938048961E+02  0.35355971812E+03  0.00000000000E+00 0.  1.
          3    1    6    6  503    0  0.29997665332E+03  0.26581870074E+02 -0.29847869250E+03  0.42400721484E+03  0.00000000000E+00 0. -1.
         -3    1    6    6    0  503  0.78116623812E+02 -0.30918430292E+02 -0.43956692136E+02  0.94817440543E+02  0.00000000000E+00 0.  1.
<mgrwt>
<rscale>  0 0.21701753E+04</rscale>
<asrwt>0</asrwt>
<pdfrwt beam="1">  1        2 0.25417882E+00 0.21701753E+04</pdfrwt>
<pdfrwt beam="2">  1       -1 0.10963862E+00 0.21701753E+04</pdfrwt>
<totfact> 0.83696920E+00</totfact>
</mgrwt>
</event>
<event>
12    7  0.1741211E-007  0.1402073E+04  0.7818608E-02  0.8952320E-01
          2   -1    0    0  501    0  0.00000000000E+00  0.00000000000E+00  0.23106868898E+04  0.23106868898E+04  0.00000000000E+00 0. -1.
         -1   -1    0    0    0  501 -0.00000000000E+00 -0.00000000000E+00 -0.21268652512E+03  0.21268652512E+03  0.00000000000E+00 0.  1.
         24    2    1    2    0    0  0.69924599591E+02  0.40186906243E+03  0.63565824110E+03  0.75938140437E+03  0.78806883292E+02 0.  0.
        254    2    1    2    0    0 -0.69924599591E+02 -0.40186906243E+03  0.14623421236E+04  0.17639920106E+04  0.89824002023E+03 0.  0.
         23    2    4    4    0    0  0.19192093100E+03 -0.49236873941E+03  0.41935692567E+03  0.68091400318E+03  0.92320254103E+02 0.  0.
         23    2    4    4    0    0 -0.26184553059E+03  0.90499676984E+02  0.10429851979E+04  0.10830780074E+04  0.92122600762E+02 0.  0.
          2    1    3    3  502    0  0.73336605409E+02  0.24661491738E+03  0.43851102266E+03  0.50841822564E+03  0.00000000000E+00 0. -1.
         -1    1    3    3    0  502 -0.34120058181E+01  0.15525414505E+03  0.19714721844E+03  0.25096317873E+03  0.00000000000E+00 0.  1.
         13    1    5    5    0    0  0.24547132563E+01 -0.85329241582E+02  0.45911682032E+02  0.96927744393E+02  0.00000000000E+00 0. -1.
        -13    1    5    5    0    0  0.18946621774E+03 -0.40703949783E+03  0.37344524364E+03  0.58398625879E+03  0.00000000000E+00 0.  1.
          3    1    6    6  503    0 -0.19175978803E+02  0.28606136410E+02  0.65275762318E+02  0.73803484671E+02  0.00000000000E+00 0. -1.
         -3    1    6    6    0  503 -0.24266955179E+03  0.61893540574E+02  0.97770943560E+03  0.10092745227E+04  0.00000000000E+00 0.  1.
<mgrwt>
<rscale>  0 0.14020727E+04</rscale>
<asrwt>0</asrwt>
<pdfrwt beam="1">  1        2 0.35549027E+00 0.14020727E+04</pdfrwt>
<pdfrwt beam="2">  1       -1 0.32721005E-01 0.14020727E+04</pdfrwt>
<totfact> 0.43464123E+01</totfact>
</mgrwt>
</event>
<event>
12    7  0.1741211E-007  0.2449029E+04  0.7818608E-02  0.8421372E-01
         -1   -1    0    0    0  501 -0.00000000000E+00  0.00000000000E+00  0.13247107624E+04  0.13247107624E+04  0.00000000000E+00 0.  1.
          2   -1    0    0  501    0  0.00000000000E+00 -0.00000000000E+00 -0.11318970039E+04  0.11318970039E+04  0.00000000000E+00 0. -1.
         24    2    1    2    0    0 -0.93467270050E+03  0.17299065724E+03 -0.36783926469E+03  0.10221787126E+04  0.77490459815E+02 0.  0.
        254    2    1    2    0    0  0.93467270050E+03 -0.17299065724E+03  0.56065302327E+03  0.14344290537E+04  0.91636023097E+03 0.  0.
         23    2    4    4    0    0  0.73715500831E+03 -0.46243406191E+03  0.15255039615E+03  0.88868123975E+03  0.96124682653E+02 0.  0.
         23    2    4    4    0    0  0.19751769219E+03  0.28944340467E+03  0.40810262711E+03  0.54574781391E+03  0.92207368976E+02 0.  0.
          2    1    3    3  502    0 -0.74810913895E+03  0.12821424288E+03 -0.32455551054E+03  0.82549527878E+03  0.00000000000E+00 0. -1.
         -1    1    3    3    0  502 -0.18656356155E+03  0.44776414360E+02 -0.43283754147E+02  0.19668343386E+03  0.00000000000E+00 0.  1.
         13    1    5    5    0    0  0.72231343023E+03 -0.43210109002E+03  0.14801076082E+03  0.85460823118E+03  0.00000000000E+00 0.  1.
        -13    1    5    5    0    0  0.14841578087E+02 -0.30332971891E+02  0.45396353367E+01  0.34073008568E+02  0.00000000000E+00 0. -1.
          3    1    6    6  503    0  0.19069755924E+03  0.22262746235E+03  0.30795848261E+03  0.42516699437E+03  0.00000000000E+00 0. -1.
         -3    1    6    6    0  503  0.68201329504E+01  0.66815942315E+02  0.10014414450E+03  0.12058081953E+03  0.00000000000E+00 0.  1.
<mgrwt>
<rscale>  0 0.24490293E+04</rscale>
<asrwt>0</asrwt>
<pdfrwt beam="1">  1        2 0.17413800E+00 0.24490293E+04</pdfrwt>
<pdfrwt beam="2">  1       -1 0.20380166E+00 0.24490293E+04</pdfrwt>
<totfact> 0.30126661E+00</totfact>
</mgrwt>
</event>
<event>
12    7  0.1741211E-007  0.3547620E+04  0.7818608E-02  0.8102596E-01
          2   -1    0    0  501    0  0.00000000000E+00  0.00000000000E+00  0.16965149513E+04  0.16965149513E+04  0.00000000000E+00 0. -1.
         -1   -1    0    0    0  501 -0.00000000000E+00 -0.00000000000E+00 -0.18546268576E+04  0.18546268576E+04  0.00000000000E+00 0.  1.
         24    2    1    2    0    0  0.85343686300E+03 -0.88607141471E+03 -0.11823691746E+04  0.17081457192E+04  0.79296292268E+02 0.  0.
        254    2    1    2    0    0 -0.85343686300E+03  0.88607141471E+03  0.10242572684E+04  0.18429960897E+04  0.91326589973E+03 0.  0.
         23    2    4    4    0    0 -0.11114509972E+03  0.45555954531E+03  0.83106618031E+03  0.95877708249E+03  0.93245725620E+02 0.  0.
         23    2    4    4    0    0 -0.74229176328E+03  0.43051186940E+03  0.19319108805E+03  0.88421900717E+03  0.90459519160E+02 0.  0.
          2    1    3    3  502    0  0.15090772314E+03 -0.11576115972E+03 -0.18718642766E+03  0.26685678875E+03  0.00000000000E+00 0. -1.
         -1    1    3    3    0  502  0.70252913986E+03 -0.77031025499E+03 -0.99518274697E+03  0.14412889305E+04  0.00000000000E+00 0.  1.
         13    1    5    5    0    0 -0.24919554880E+02  0.41040277630E+02  0.14337012770E+03  0.15119617099E+03  0.00000000000E+00 0. -1.
        -13    1    5    5    0    0 -0.86225544842E+02  0.41451926768E+03  0.68769605260E+03  0.80758091151E+03  0.00000000000E+00 0.  1.
          4    1    6    6  503    0 -0.30148549679E+02  0.30065739025E+02 -0.67249061345E+01  0.43105777726E+02  0.00000000000E+00 0. -1.
         -4    1    6    6    0  503 -0.71214321360E+03  0.40044613038E+03  0.19991599419E+03  0.84111322944E+03  0.00000000000E+00 0.  1.
<mgrwt>
<rscale>  0 0.35476202E+04</rscale>
<asrwt>0</asrwt>
<pdfrwt beam="1">  1        2 0.26100230E+00 0.35476202E+04</pdfrwt>
<pdfrwt beam="2">  1       -1 0.28532721E+00 0.35476202E+04</pdfrwt>
<totfact> 0.37723315E-01</totfact>
</mgrwt>
</event>
<event>
12    7  0.1741211E-007  0.1637046E+04  0.7818608E-02  0.8798107E-01
         -1   -1    0    0    0  501 -0.00000000000E+00  0.00000000000E+00  0.21083311782E+03  0.21083311782E+03  0.00000000000E+00 0.  1.
          2   -1    0    0  501    0  0.00000000000E+00 -0.00000000000E+00 -0.31777729306E+04  0.31777729306E+04  0.00000000000E+00 0. -1.
         24    2    1    2    0    0  0.15611317427E+03  0.54452559843E+03 -0.87868223257E+03  0.10482102106E+04  0.76044258991E+02 0.  0.
        254    2    1    2    0    0 -0.15611317427E+03 -0.54452559843E+03 -0.20882575802E+04  0.23403958378E+04  0.89205016993E+03 0.  0.
         23    2    4    4    0    0 -0.39921353560E+03 -0.57084182469E+03 -0.18789930154E+04  0.20059365817E+04  0.89078514753E+02 0.  0.
         23    2    4    4    0    0  0.24310036133E+03  0.26316226262E+02 -0.20926456481E+03  0.33445925614E+03  0.91000035682E+02 0.  0.
          2    1    3    3  502    0  0.75398383344E+02  0.15948709676E+03 -0.31067812620E+03  0.35727013357E+03  0.00000000000E+00 0. -1.
         -1    1    3    3    0  502  0.80714790926E+02  0.38503850167E+03 -0.56800410638E+03  0.69094007707E+03  0.00000000000E+00 0.  1.
         13    1    5    5    0    0 -0.67829377827E+02 -0.14136980511E+03 -0.34837080800E+03  0.38203202243E+03  0.00000000000E+00 0. -1.
        -13    1    5    5    0    0 -0.33138415777E+03 -0.42947201959E+03 -0.15306222074E+04  0.16239045592E+04  0.00000000000E+00 0.  1.
          1    1    6    6  503    0  0.10409883552E+03 -0.10753438237E+02 -0.14000430223E+03  0.17479533356E+03  0.00000000000E+00 0. -1.
         -1    1    6    6    0  503  0.13900152581E+03  0.37069664499E+02 -0.69260262571E+02  0.15966392258E+03  0.00000000000E+00 0.  1.
<mgrwt>
<rscale>  0 0.16370458E+04</rscale>
<asrwt>0</asrwt>
<pdfrwt beam="1">  1        2 0.48888811E+00 0.16370458E+04</pdfrwt>
<pdfrwt beam="2">  1       -1 0.32435867E-01 0.16370458E+04</pdfrwt>
<totfact> 0.13070639E+01</totfact>
</mgrwt>
</event>
<event>
12    7  0.1741211E-007  0.1872715E+04  0.7818608E-02  0.8668558E-01
         -1   -1    0    0    0  501 -0.00000000000E+00  0.00000000000E+00  0.10448722434E+04  0.10448722434E+04  0.00000000000E+00 0.  1.
          2   -1    0    0  501    0  0.00000000000E+00 -0.00000000000E+00 -0.83911230131E+03  0.83911230131E+03  0.00000000000E+00 0. -1.
         24    2    1    2    0    0  0.28137961777E+03 -0.60122016573E+03  0.32867438553E+03  0.74530752797E+03  0.82560781048E+02 0.  0.
        254    2    1    2    0    0 -0.28137961777E+03  0.60122016573E+03 -0.12291444345E+03  0.11386770167E+04  0.91697176131E+03 0.  0.
         23    2    4    4    0    0 -0.80316239423E+02  0.80857327491E+03 -0.17209421766E+02  0.81766442918E+03  0.89652190877E+02 0.  0.
         23    2    4    4    0    0 -0.20106337835E+03 -0.20735310918E+03 -0.10570502169E+03  0.32101258755E+03  0.91944199151E+02 0.  0.
          4    1    3    3  502    0  0.17334822923E+02 -0.10882951028E+03  0.54393275704E+02  0.12289420993E+03  0.00000000000E+00 0. -1.
         -3    1    3    3    0  502  0.26404479485E+03 -0.49239065545E+03  0.27428110983E+03  0.62241331804E+03  0.00000000000E+00 0.  1.
         13    1    5    5    0    0 -0.21231680891E+02  0.37916080585E+02 -0.10544461931E+02  0.44716877326E+02  0.00000000000E+00 0. -1.
        -13    1    5    5    0    0 -0.59084558533E+02  0.77065719433E+03 -0.66649598348E+01  0.77294755185E+03  0.00000000000E+00 0.  1.
          4    1    6    6  503    0 -0.93331574163E+01 -0.60975397267E+02 -0.26319307662E+02  0.67065735328E+02  0.00000000000E+00 0. -1.
         -4    1    6    6    0  503 -0.19173022093E+03 -0.14637771192E+03 -0.79385714024E+02  0.25394685223E+03  0.00000000000E+00 0.  1.
<mgrwt>
<rscale>  0 0.18727148E+04</rscale>
<asrwt>0</asrwt>
<pdfrwt beam="1">  1        2 0.12909420E+00 0.18727148E+04</pdfrwt>
<pdfrwt beam="2">  1       -1 0.16074957E+00 0.18727148E+04</pdfrwt>
<totfact> 0.99810248E+00</totfact>
</mgrwt>
</event>
<event>
12    7  0.1741211E-007  0.1191625E+04  0.7818608E-02  0.9120219E-01
         -3   -1    0    0    0  501 -0.00000000000E+00  0.00000000000E+00  0.13978025988E+03  0.13978025988E+03  0.00000000000E+00 0.  1.
          4   -1    0    0  501    0  0.00000000000E+00 -0.00000000000E+00 -0.25396466704E+04  0.25396466704E+04  0.00000000000E+00 0. -1.
         24    2    1    2    0    0  0.23299649277E+03  0.79765466493E+02 -0.56299242950E+03  0.61951949155E+03  0.78702156576E+02 0.  0.
        254    2    1    2    0    0 -0.23299649277E+03 -0.79765466493E+02 -0.18368739810E+04  0.20599074387E+04  0.89914556035E+03 0.  0.
         23    2    4    4    0    0 -0.97196648241E+02 -0.34242386782E+03 -0.25320770139E+03  0.44629812648E+03  0.91469032857E+02 0.  0.
         23    2    4    4    0    0 -0.13579984453E+03  0.26265840133E+03 -0.15836662796E+04  0.16136093123E+04  0.91132287363E+02 0.  0.
          2    1    3    3  502    0  0.10080696421E+03  0.31861607584E+02 -0.15207705274E+03  0.18521510749E+03  0.00000000000E+00 0. -1.
         -3    1    3    3    0  502  0.13218952855E+03  0.47903858909E+02 -0.41091537676E+03  0.43430438406E+03  0.00000000000E+00 0.  1.
         13    1    5    5    0    0 -0.47455828743E+02 -0.70850647356E+02 -0.27227913633E+02  0.89516641991E+02  0.00000000000E+00 0. -1.
        -13    1    5    5    0    0 -0.49740819498E+02 -0.27157322046E+03 -0.22597978776E+03  0.35678148449E+03  0.00000000000E+00 0.  1.
          3    1    6    6  503    0 -0.22004678727E+02  0.67895498352E+02 -0.60969839612E+03  0.61386166097E+03  0.00000000000E+00 0. -1.
         -3    1    6    6    0  503 -0.11379516580E+03  0.19476290297E+03 -0.97396788352E+03  0.99974765129E+03  0.00000000000E+00 0.  1.
<mgrwt>
<rscale>  0 0.11916249E+04</rscale>
<asrwt>0</asrwt>
<pdfrwt beam="1">  1        4 0.39071486E+00 0.11916249E+04</pdfrwt>
<pdfrwt beam="2">  1       -3 0.21504656E-01 0.11916249E+04</pdfrwt>
<totfact> 0.36878586E-01</totfact>
</mgrwt>
</event>
<event>
12    7  0.1741211E-007  0.1200179E+04  0.7818608E-02  0.9112700E-01
         -1   -1    0    0    0  501 -0.00000000000E+00  0.00000000000E+00  0.28677213187E+03  0.28677213187E+03  0.00000000000E+00 0.  1.
          2   -1    0    0  501    0  0.00000000000E+00 -0.00000000000E+00 -0.12557271701E+04  0.12557271701E+04  0.00000000000E+00 0. -1.
         24    2    1    2    0    0 -0.21508836074E+03 -0.33283929986E+02 -0.35457790662E+03  0.42366358243E+03  0.79965719521E+02 0.  0.
        254    2    1    2    0    0  0.21508836074E+03  0.33283929986E+02 -0.61437713157E+03  0.11188357195E+04  0.90937521657E+03 0.  0.
         23    2    4    4    0    0 -0.71793251054E+02 -0.38134719853E+03 -0.39940370540E+03  0.56379891580E+03  0.88124575664E+02 0.  0.
         23    2    4    4    0    0  0.28688161179E+03  0.41463112852E+03 -0.21497342616E+03  0.55503680370E+03  0.87362735663E+02 0.  0.
          2    1    3    3  502    0 -0.16359409034E+03  0.15393591837E+01 -0.29623953975E+03  0.33841285575E+03  0.00000000000E+00 0. -1.
         -1    1    3    3    0  502 -0.51494270393E+02 -0.34823289170E+02 -0.58338366866E+02  0.85250726686E+02  0.00000000000E+00 0.  1.
         13    1    5    5    0    0  0.20238887956E+02 -0.47628614946E+02 -0.52209912854E+02  0.73511717077E+02  0.00000000000E+00 0. -1.
        -13    1    5    5    0    0 -0.92032139010E+02 -0.33371858359E+03 -0.34719379255E+03  0.49028719872E+03  0.00000000000E+00 0.  1.
          3    1    6    6  503    0  0.10127793928E+02  0.33133820326E+02 -0.38441897856E+02  0.51751345586E+02  0.00000000000E+00 0. -1.
         -3    1    6    6    0  503  0.27675381786E+03  0.38149730819E+03 -0.17653152831E+03  0.50328545811E+03  0.00000000000E+00 0.  1.
<mgrwt>
<rscale>  0 0.12001792E+04</rscale>
<asrwt>0</asrwt>
<pdfrwt beam="1">  1        2 0.19318879E+00 0.12001792E+04</pdfrwt>
<pdfrwt beam="2">  1       -1 0.44118790E-01 0.12001792E+04</pdfrwt>
<totfact> 0.10026151E+02</totfact>
</mgrwt>
</event>
<event>
12    7  0.1741211E-007  0.2462156E+04  0.7818608E-02  0.8416593E-01
          2   -1    0    0  501    0  0.00000000000E+00  0.00000000000E+00  0.12519953028E+04  0.12519953028E+04  0.00000000000E+00 0. -1.
         -1   -1    0    0    0  501 -0.00000000000E+00 -0.00000000000E+00 -0.12105104642E+04  0.12105104642E+04  0.00000000000E+00 0.  1.
         24    2    1    2    0    0 -0.45813652877E+03  0.49280876472E+03 -0.77040907573E+03  0.10259239353E+04  0.78995059845E+02 0.  0.
        254    2    1    2    0    0  0.45813652877E+03 -0.49280876472E+03  0.81189391435E+03  0.14365818317E+04  0.97562599048E+03 0.  0.
         23    2    4    4    0    0  0.12820243353E+03  0.27312928228E+03  0.37456780019E+03  0.48951400675E+03  0.91035471450E+02 0.  0.
         23    2    4    4    0    0  0.32993409524E+03 -0.76593804701E+03  0.43732611416E+03  0.94706782491E+03  0.10082527355E+03 0.  0.
          4    1    3    3  502    0 -0.15629688022E+03  0.11868466428E+03 -0.24205158900E+03  0.31161472372E+03  0.00000000000E+00 0. -1.
         -3    1    3    3    0  502 -0.30183964855E+03  0.37412410044E+03 -0.52835748673E+03  0.71430921158E+03  0.00000000000E+00 0.  1.
         13    1    5    5    0    0  0.13426379322E+02  0.44301361968E+02  0.11941824435E+03  0.12807652172E+03  0.00000000000E+00 0. -1.
        -13    1    5    5    0    0  0.11477605421E+03  0.22882792032E+03  0.25514955584E+03  0.36143748502E+03  0.00000000000E+00 0.  1.
          3    1    6    6  503    0  0.74332190904E+01  0.11181001462E+01  0.70594486990E+01  0.10312066229E+02  0.00000000000E+00 0. -1.
         -3    1    6    6    0  503  0.32250087615E+03 -0.76705614715E+03  0.43026666546E+03  0.93675575868E+03  0.00000000000E+00 0.  1.
<mgrwt>
<rscale>  0 0.24621563E+04</rscale>
<asrwt>0</asrwt>
<pdfrwt beam="1">  1        2 0.19261466E+00 0.24621563E+04</pdfrwt>
<pdfrwt beam="2">  1       -1 0.18623238E+00 0.24621563E+04</pdfrwt>
<totfact> 0.33785693E+00</totfact>
</mgrwt>
</event>
<event>
12    7  0.1741211E-007  0.2395896E+04  0.7818608E-02  0.8441042E-01
         -1   -1    0    0    0  501 -0.00000000000E+00  0.00000000000E+00  0.39404184416E+03  0.39404184416E+03  0.00000000000E+00 0.  1.
          2   -1    0    0  501    0  0.00000000000E+00 -0.00000000000E+00 -0.36419474255E+04  0.36419474255E+04  0.00000000000E+00 0. -1.
         24    2    1    2    0    0  0.97505664322E+03  0.15828119599E+03 -0.92577824387E+03  0.13561426175E+04  0.79177317891E+02 0.  0.
        254    2    1    2    0    0 -0.97505664322E+03 -0.15828119599E+03 -0.23221273375E+04  0.26798466522E+04  0.90195028312E+03 0.  0.
         23    2    4    4    0    0 -0.67813500750E+03  0.30883763507E+03 -0.15823080943E+04  0.17514111110E+04  0.92163990352E+02 0.  0.
         23    2    4    4    0    0 -0.29692163572E+03 -0.46711883106E+03 -0.73981924322E+03  0.92843554124E+03  0.91091061602E+02 0.  0.
          4    1    3    3  502    0  0.39721042632E+03  0.58807346379E+02 -0.42950818150E+03  0.58797253740E+03  0.00000000000E+00 0. -1.
         -3    1    3    3    0  502  0.57784621689E+03  0.99473849616E+02 -0.49627006237E+03  0.76817008009E+03  0.00000000000E+00 0.  1.
         13    1    5    5    0    0 -0.14228378983E+03  0.10105231079E+03 -0.41842952092E+03  0.45336465493E+03  0.00000000000E+00 0. -1.
        -13    1    5    5    0    0 -0.53585121767E+03  0.20778532428E+03 -0.11638785734E+04  0.12980464560E+04  0.00000000000E+00 0.  1.
          1    1    6    6  503    0 -0.41602823459E+02 -0.13070664349E+03 -0.21107380592E+03  0.25172837170E+03  0.00000000000E+00 0. -1.
         -1    1    6    6    0  503 -0.25531881226E+03 -0.33641218757E+03 -0.52874543730E+03  0.67670716954E+03  0.00000000000E+00 0.  1.
<mgrwt>
<rscale>  0 0.23958962E+04</rscale>
<asrwt>0</asrwt>
<pdfrwt beam="1">  1        2 0.56029960E+00 0.23958962E+04</pdfrwt>
<pdfrwt beam="2">  1       -1 0.60621822E-01 0.23958962E+04</pdfrwt>
<totfact> 0.18225572E+00</totfact>
</mgrwt>
</event>
<event>
12    7  0.1741211E-007  0.1895137E+04  0.7818608E-02  0.8657281E-01
          2   -1    0    0  501    0  0.00000000000E+00  0.00000000000E+00  0.16774266275E+04  0.16774266275E+04  0.00000000000E+00 0. -1.
         -1   -1    0    0    0  501 -0.00000000000E+00 -0.00000000000E+00 -0.53527566659E+03  0.53527566659E+03  0.00000000000E+00 0.  1.
         24    2    1    2    0    0  0.18729147746E+02 -0.14978534935E+03  0.12869698281E+04  0.12983714571E+04  0.81796517009E+02 0.  0.
        254    2    1    2    0    0 -0.18729147746E+02  0.14978534935E+03 -0.14481886727E+03  0.91433083696E+03  0.89007973982E+03 0.  0.
         23    2    4    4    0    0 -0.11635369757E+03  0.20393388174E+03  0.33205216083E+03  0.41639316922E+03  0.89428310933E+02 0.  0.
         23    2    4    4    0    0  0.97624549825E+02 -0.54148532400E+02 -0.47687102810E+03  0.49793766774E+03  0.89851695695E+02 0.  0.
          2    1    3    3  502    0  0.76557011094E+01 -0.13723926250E+03  0.12528649253E+04  0.12603823808E+04  0.00000000000E+00 0. -1.
         -1    1    3    3    0  502  0.11073446637E+02 -0.12546086844E+02  0.34104902862E+02  0.37989076256E+02  0.00000000000E+00 0.  1.
         13    1    5    5    0    0  0.11455937015E+02  0.11159879986E+01  0.14610794787E+02  0.18599979742E+02  0.00000000000E+00 0. -1.
        -13    1    5    5    0    0 -0.12780963459E+03  0.20281789375E+03  0.31744136605E+03  0.39779318948E+03  0.00000000000E+00 0.  1.
          4    1    6    6  503    0  0.66314906575E+02  0.13491940213E+02 -0.25778637033E+03  0.26652112864E+03  0.00000000000E+00 0.  1.
         -4    1    6    6    0  503  0.31309643250E+02 -0.67640472613E+02 -0.21908465777E+03  0.23141653909E+03  0.00000000000E+00 0. -1.
<mgrwt>
<rscale>  0 0.18951366E+04</rscale>
<asrwt>0</asrwt>
<pdfrwt beam="1">  1        2 0.25806563E+00 0.18951366E+04</pdfrwt>
<pdfrwt beam="2">  1       -1 0.82350103E-01 0.18951366E+04</pdfrwt>
<totfact> 0.15794585E+01</totfact>
</mgrwt>
</event>
<event>
12    7  0.1741211E-007  0.1363352E+04  0.7818608E-02  0.8980782E-01
          2   -1    0    0  501    0  0.00000000000E+00  0.00000000000E+00  0.18807191027E+04  0.18807191027E+04  0.00000000000E+00 0. -1.
         -1   -1    0    0    0  501 -0.00000000000E+00 -0.00000000000E+00 -0.24707703805E+03  0.24707703805E+03  0.00000000000E+00 0.  1.
         24    2    1    2    0    0 -0.13133625425E+03  0.34769701181E+03  0.52849547244E+03  0.65110584249E+03  0.80553895176E+02 0.  0.
        254    2    1    2    0    0  0.13133625425E+03 -0.34769701181E+03  0.11051465922E+04  0.14766902983E+04  0.90615827701E+03 0.  0.
         23    2    4    4    0    0 -0.35046749681E+03 -0.30003602931E+03  0.68424221645E+03  0.83032339724E+03  0.91653958045E+02 0.  0.
         23    2    4    4    0    0  0.48180375106E+03 -0.47660982502E+02  0.42090437577E+03  0.64636690102E+03  0.78887599872E+02 0.  0.
          4    1    3    3  502    0 -0.98077941411E+02  0.16200751158E+03  0.22918269747E+03  0.29730527277E+03  0.00000000000E+00 0. -1.
         -3    1    3    3    0  502 -0.33258312841E+02  0.18568950024E+03  0.29931277497E+03  0.35380056971E+03  0.00000000000E+00 0.  1.
         13    1    5    5    0    0 -0.13455683649E+03 -0.64890283429E+02  0.25241141814E+03  0.29330498655E+03  0.00000000000E+00 0. -1.
        -13    1    5    5    0    0 -0.21591066032E+03 -0.23514574588E+03  0.43183079831E+03  0.53701841068E+03  0.00000000000E+00 0.  1.
          3    1    6    6  503    0  0.33973768469E+03 -0.68382613354E+02  0.30962583442E+03  0.46472145803E+03  0.00000000000E+00 0. -1.
         -3    1    6    6    0  503  0.14206606636E+03  0.20721630853E+02  0.11127854134E+03  0.18164544299E+03  0.00000000000E+00 0.  1.
<mgrwt>
<rscale>  0 0.13633525E+04</rscale>
<asrwt>0</asrwt>
<pdfrwt beam="1">  1        2 0.28934139E+00 0.13633525E+04</pdfrwt>
<pdfrwt beam="2">  1       -1 0.38011853E-01 0.13633525E+04</pdfrwt>
<totfact> 0.57855332E+01</totfact>
</mgrwt>
</event>
<event>
12    7  0.1741211E-007  0.1388222E+04  0.7818608E-02  0.8962389E-01
         -1   -1    0    0    0  501 -0.00000000000E+00  0.00000000000E+00  0.22684514117E+03  0.22684514117E+03  0.00000000000E+00 0.  1.
          2   -1    0    0  501    0  0.00000000000E+00 -0.00000000000E+00 -0.21238708603E+04  0.21238708603E+04  0.00000000000E+00 0. -1.
         24    2    1    2    0    0  0.10382792491E+03  0.20101475896E+03 -0.11064307851E+04  0.11326230897E+04  0.86364402061E+02 0.  0.
        254    2    1    2    0    0 -0.10382792491E+03 -0.20101475896E+03 -0.79059493400E+03  0.12180929117E+04  0.89862273535E+03 0.  0.
         23    2    4    4    0    0  0.64909700089E+02 -0.48311170928E+03 -0.71286371534E+03  0.86827014144E+03  0.90045372192E+02 0.  0.
         23    2    4    4    0    0 -0.16873762500E+03  0.28209695031E+03 -0.77731218661E+02  0.34982277024E+03  0.91009630016E+02 0.  0.
          4    1    3    3  502    0  0.74149660026E+02  0.13855360109E+03 -0.92890301425E+03  0.94210194901E+03  0.00000000000E+00 0. -1.
         -3    1    3    3    0  502  0.29678264888E+02  0.62461157876E+02 -0.17752777083E+03  0.19052114073E+03  0.00000000000E+00 0.  1.
         13    1    5    5    0    0  0.24016069215E+02 -0.19075883494E+03 -0.36073883553E+03  0.40877648189E+03  0.00000000000E+00 0. -1.
        -13    1    5    5    0    0  0.40893630874E+02 -0.29235287434E+03 -0.35212487981E+03  0.45949365954E+03  0.00000000000E+00 0.  1.
          1    1    6    6  503    0  0.76235075623E+00  0.68010108079E+02 -0.15430829773E+02  0.69742859757E+02  0.00000000000E+00 0. -1.
         -1    1    6    6    0  503 -0.16949997576E+03  0.21408684223E+03 -0.62300388888E+02  0.28007991048E+03  0.00000000000E+00 0.  1.
<mgrwt>
<rscale>  0 0.13882216E+04</rscale>
<asrwt>0</asrwt>
<pdfrwt beam="1">  1        2 0.32674937E+00 0.13882216E+04</pdfrwt>
<pdfrwt beam="2">  1       -1 0.34899252E-01 0.13882216E+04</pdfrwt>
<totfact> 0.49373045E+01</totfact>
</mgrwt>
</event>
<event>
12    7  0.1741211E-007  0.3634885E+04  0.7818608E-02  0.8082547E-01
         -1   -1    0    0    0  501 -0.00000000000E+00  0.00000000000E+00  0.97617502779E+03  0.97617502779E+03  0.00000000000E+00 0.  1.
          2   -1    0    0  501    0  0.00000000000E+00 -0.00000000000E+00 -0.33837135199E+04  0.33837135199E+04  0.00000000000E+00 0. -1.
         24    2    1    2    0    0  0.11438979275E+04  0.12591849002E+04 -0.11970409020E+04  0.20818382095E+04  0.84227833700E+02 0.  0.
        254    2    1    2    0    0 -0.11438979275E+04 -0.12591849002E+04 -0.12104975901E+04  0.22780503382E+04  0.91113108081E+03 0.  0.
         23    2    4    4    0    0 -0.99392488571E+03 -0.11336964178E+04 -0.13464477239E+04  0.20235242084E+04  0.92598610663E+02 0.  0.
         23    2    4    4    0    0 -0.14997304178E+03 -0.12548848242E+03  0.13595013373E+03  0.25452612985E+03  0.89787746576E+02 0.  0.
          2    1    3    3  502    0  0.11171010951E+04  0.12299526082E+04 -0.11520214300E+04  0.20218436266E+04  0.00000000000E+00 0. -1.
         -1    1    3    3    0  502  0.26796832437E+02  0.29232292007E+02 -0.45019471951E+02  0.59994582917E+02  0.00000000000E+00 0.  1.
         13    1    5    5    0    0 -0.52976945251E+03 -0.59635319775E+03 -0.77372675357E+03  0.11112811968E+04  0.00000000000E+00 0. -1.
        -13    1    5    5    0    0 -0.46415543320E+03 -0.53734322003E+03 -0.57272097030E+03  0.91224301154E+03  0.00000000000E+00 0.  1.
          3    1    6    6  503    0 -0.11731065487E+03 -0.11244160334E+03  0.14546083928E+03  0.21809117284E+03  0.00000000000E+00 0. -1.
         -3    1    6    6    0  503 -0.32662386904E+02 -0.13046879082E+02 -0.95107055496E+01  0.36434957007E+02  0.00000000000E+00 0.  1.
<mgrwt>
<rscale>  0 0.36348847E+04</rscale>
<asrwt>0</asrwt>
<pdfrwt beam="1">  1        2 0.52057130E+00 0.36348847E+04</pdfrwt>
<pdfrwt beam="2">  1       -1 0.15018078E+00 0.36348847E+04</pdfrwt>
<totfact> 0.31335572E-01</totfact>
</mgrwt>
</event>
<event>
12    7  0.1741211E-007  0.1585363E+04  0.7818608E-02  0.8829591E-01
         -1   -1    0    0    0  501 -0.00000000000E+00  0.00000000000E+00  0.59934807108E+03  0.59934807108E+03  0.00000000000E+00 0.  1.
          2   -1    0    0  501    0  0.00000000000E+00 -0.00000000000E+00 -0.10483789218E+04  0.10483789218E+04  0.00000000000E+00 0. -1.
         24    2    1    2    0    0 -0.19909625702E+03 -0.20325377921E+03 -0.62130716130E+03  0.68803494495E+03  0.80112910750E+02 0.  0.
        254    2    1    2    0    0  0.19909625702E+03  0.20325377921E+03  0.17227631056E+03  0.95969204794E+03  0.90021013179E+03 0.  0.
         23    2    4    4    0    0 -0.31343328856E+02  0.13185211855E+03  0.50991959626E+03  0.53509270425E+03  0.89100067652E+02 0.  0.
         23    2    4    4    0    0  0.23043958587E+03  0.71401660653E+02 -0.33764328570E+03  0.42459934369E+03  0.89894462576E+02 0.  0.
          2    1    3    3  502    0 -0.15239236223E+03 -0.18866567081E+03 -0.55457926413E+03  0.60529028375E+03  0.00000000000E+00 0. -1.
         -1    1    3    3    0  502 -0.46703894790E+02 -0.14588108392E+02 -0.66727897175E+02  0.82744661196E+02  0.00000000000E+00 0.  1.
         13    1    5    5    0    0  0.20256375176E+02  0.95220352973E+02  0.27180632204E+03  0.28871424117E+03  0.00000000000E+00 0.  1.
        -13    1    5    5    0    0 -0.51599704032E+02  0.36631765581E+02  0.23811327422E+03  0.24637846308E+03  0.00000000000E+00 0. -1.
          3    1    6    6  503    0  0.17511237375E+03  0.62422773551E+02 -0.18621011597E+03  0.26312573684E+03  0.00000000000E+00 0. -1.
         -3    1    6    6    0  503  0.55327212128E+02  0.89788871014E+01 -0.15143316973E+03  0.16147360685E+03  0.00000000000E+00 0.  1.
<mgrwt>
<rscale>  0 0.15853629E+04</rscale>
<asrwt>0</asrwt>
<pdfrwt beam="1">  1        2 0.16128907E+00 0.15853629E+04</pdfrwt>
<pdfrwt beam="2">  1       -1 0.92207395E-01 0.15853629E+04</pdfrwt>
<totfact> 0.29420103E+01</totfact>
</mgrwt>
</event>
<event>
12    7  0.1741211E-007  0.3583704E+04  0.7818608E-02  0.8094235E-01
          2   -1    0    0  501    0  0.00000000000E+00  0.00000000000E+00  0.23780847943E+04  0.23780847943E+04  0.00000000000E+00 0. -1.
         -1   -1    0    0    0  501 -0.00000000000E+00 -0.00000000000E+00 -0.13501345107E+04  0.13501345107E+04  0.00000000000E+00 0.  1.
         24    2    1    2    0    0 -0.11790355718E+04  0.14901159668E+03  0.17147299619E+04  0.20878347189E+04  0.80160062481E+02 0.  0.
        254    2    1    2    0    0  0.11790355718E+04 -0.14901159668E+03 -0.68677967829E+03  0.16403845860E+04  0.89825716138E+03 0.  0.
         23    2    4    4    0    0  0.35243261392E+02  0.22296864673E+03  0.14601173469E+02  0.24467505467E+03  0.93250111070E+02 0.  0.
         23    2    4    4    0    0  0.11437923105E+04 -0.37198024341E+03 -0.70138085176E+03  0.13957095314E+04  0.97158868742E+02 0.  0.
          2    1    3    3  502    0 -0.64334906425E+03  0.11877754127E+03  0.96738007262E+03  0.11678314637E+04  0.00000000000E+00 0. -1.
         -1    1    3    3    0  502 -0.53568650760E+03  0.30234055414E+02  0.74734988930E+03  0.92000325519E+03  0.00000000000E+00 0.  1.
         13    1    5    5    0    0  0.88706352569E+01  0.15336509302E+03  0.50938561853E+02  0.16184646122E+03  0.00000000000E+00 0.  1.
        -13    1    5    5    0    0  0.26372626135E+02  0.69603553713E+02 -0.36337388384E+02  0.82828593453E+02  0.00000000000E+00 0. -1.
          1    1    6    6  503    0  0.12831010949E+03 -0.36177946025E+02 -0.11436256132E+03  0.17564487868E+03  0.00000000000E+00 0. -1.
         -1    1    6    6    0  503  0.10154822010E+04 -0.33580229739E+03 -0.58701829044E+03  0.12200646527E+04  0.00000000000E+00 0.  1.
<mgrwt>
<rscale>  0 0.35837044E+04</rscale>
<asrwt>0</asrwt>
<pdfrwt beam="1">  1        2 0.36585920E+00 0.35837044E+04</pdfrwt>
<pdfrwt beam="2">  1       -1 0.20771300E+00 0.35837044E+04</pdfrwt>
<totfact> 0.50579377E-01</totfact>
</mgrwt>
</event>
<event>
12    7  0.1741211E-007  0.1546085E+04  0.7818608E-02  0.8854372E-01
          2   -1    0    0  501    0  0.00000000000E+00  0.00000000000E+00  0.78461421111E+03  0.78461421111E+03  0.00000000000E+00 0. -1.
         -1   -1    0    0    0  501 -0.00000000000E+00 -0.00000000000E+00 -0.76164182094E+03  0.76164182094E+03  0.00000000000E+00 0.  1.
         24    2    1    2    0    0  0.19188833225E+03  0.33791830301E+03  0.33237615653E+03  0.51743507962E+03  0.79090079188E+02 0.  0.
        254    2    1    2    0    0 -0.19188833225E+03 -0.33791830301E+03 -0.30940376637E+03  0.10288209524E+04  0.90096168062E+03 0.  0.
         23    2    4    4    0    0 -0.51414763608E+03 -0.38186195645E+02 -0.22933720486E+03  0.57171869030E+03  0.91982226988E+02 0.  0.
         23    2    4    4    0    0  0.32225930382E+03 -0.29973210737E+03 -0.80066561505E+02  0.45710226213E+03  0.94028871544E+02 0.  0.
          2    1    3    3  502    0  0.14664486076E+03  0.29358606862E+03  0.24511911448E+03  0.40961063849E+03  0.00000000000E+00 0. -1.
         -1    1    3    3    0  502  0.45243471493E+02  0.44332234389E+02  0.87257042051E+02  0.10782444113E+03  0.00000000000E+00 0.  1.
         13    1    5    5    0    0 -0.21234884759E+03  0.13788770964E+02 -0.56922971997E+02  0.22027797897E+03  0.00000000000E+00 0. -1.
        -13    1    5    5    0    0 -0.30179878849E+03 -0.51974966608E+02 -0.17241423287E+03  0.35144071133E+03  0.00000000000E+00 0.  1.
          1    1    6    6  503    0  0.25423942681E+03 -0.23517580300E+03 -0.10151635961E+03  0.36090291732E+03  0.00000000000E+00 0. -1.
         -1    1    6    6    0  503  0.68019877017E+02 -0.64556304370E+02  0.21449798108E+02  0.96199344811E+02  0.00000000000E+00 0.  1.
<mgrwt>
<rscale>  0 0.15460854E+04</rscale>
<asrwt>0</asrwt>
<pdfrwt beam="1">  1        2 0.12070988E+00 0.15460854E+04</pdfrwt>
<pdfrwt beam="2">  1       -1 0.11717567E+00 0.15460854E+04</pdfrwt>
<totfact> 0.25501104E+01</totfact>
</mgrwt>
</event>
<event>
12    7  0.1741211E-007  0.1429861E+04  0.7818608E-02  0.8932483E-01
          2   -1    0    0  501    0  0.00000000000E+00  0.00000000000E+00  0.12743466164E+04  0.12743466164E+04  0.00000000000E+00 0. -1.
         -1   -1    0    0    0  501 -0.00000000000E+00 -0.00000000000E+00 -0.40108833186E+03  0.40108833186E+03  0.00000000000E+00 0.  1.
         24    2    1    2    0    0 -0.17218566967E+03 -0.34099340578E+03  0.38455172216E+02  0.39247835365E+03  0.81461955438E+02 0.  0.
        254    2    1    2    0    0  0.17218566967E+03  0.34099340578E+03  0.83480311229E+03  0.12829565946E+04  0.89619025861E+03 0.  0.
         23    2    4    4    0    0  0.41383092492E+03  0.32827124371E+03  0.15910965925E+03  0.55953410555E+03  0.93511965785E+02 0.  0.
         23    2    4    4    0    0 -0.24164525525E+03  0.12722162077E+02  0.67569345304E+03  0.72342248901E+03  0.90687222559E+02 0.  0.
          4    1    3    3  502    0 -0.12883060712E+02 -0.29654175382E+02  0.27716647297E+02  0.42585865123E+02  0.00000000000E+00 0. -1.
         -3    1    3    3    0  502 -0.15930260896E+03 -0.31133923040E+03  0.10738524919E+02  0.34989248853E+03  0.00000000000E+00 0.  1.
         13    1    5    5    0    0  0.37182981902E+03  0.32556397952E+03  0.14991610014E+03  0.51645344046E+03  0.00000000000E+00 0. -1.
        -13    1    5    5    0    0  0.42001105901E+02  0.27072641834E+01  0.91935591052E+01  0.43080665098E+02  0.00000000000E+00 0.  1.
          3    1    6    6  503    0 -0.16417240359E+03 -0.28343722566E+02  0.50070749464E+03  0.52769682574E+03  0.00000000000E+00 0. -1.
         -3    1    6    6    0  503 -0.77472851657E+02  0.41065884643E+02  0.17498595841E+03  0.19572566327E+03  0.00000000000E+00 0.  1.
<mgrwt>
<rscale>  0 0.14298609E+04</rscale>
<asrwt>0</asrwt>
<pdfrwt beam="1">  1        2 0.19605332E+00 0.14298609E+04</pdfrwt>
<pdfrwt beam="2">  1       -1 0.61705898E-01 0.14298609E+04</pdfrwt>
<totfact> 0.50470851E+01</totfact>
</mgrwt>
</event>
<event>
12    7  0.1741211E-007  0.3258412E+04  0.7818608E-02  0.8173559E-01
         -1   -1    0    0    0  501 -0.00000000000E+00  0.00000000000E+00  0.16221469284E+04  0.16221469284E+04  0.00000000000E+00 0.  1.
          2   -1    0    0  501    0  0.00000000000E+00 -0.00000000000E+00 -0.16362959013E+04  0.16362959013E+04  0.00000000000E+00 0. -1.
         24    2    1    2    0    0 -0.73644392180E+02  0.14033846470E+04  0.53732880055E+03  0.15066701253E+04  0.80129038575E+02 0.  0.
        254    2    1    2    0    0  0.73644392180E+02 -0.14033846470E+04 -0.55147777342E+03  0.17517727043E+04  0.88863260642E+03 0.  0.
         23    2    4    4    0    0 -0.76861048686E+02  0.64286473472E+02 -0.18675457508E+03  0.22870191355E+03  0.85947207463E+02 0.  0.
         23    2    4    4    0    0  0.15050544087E+03 -0.14676711205E+04 -0.36472319834E+03  0.15230707908E+04  0.10005606824E+03 0.  0.
          2    1    3    3  502    0 -0.24734379764E+02  0.24658356647E+03  0.65028062361E+02  0.25621064320E+03  0.00000000000E+00 0. -1.
         -1    1    3    3    0  502 -0.48910012416E+02  0.11568010805E+04  0.47230073819E+03  0.12504594821E+04  0.00000000000E+00 0.  1.
         13    1    5    5    0    0 -0.28156443836E+02  0.24126278404E+02 -0.64111281648E+01  0.37629313088E+02  0.00000000000E+00 0. -1.
        -13    1    5    5    0    0 -0.48704604850E+02  0.40160195069E+02 -0.18034344692E+03  0.19107260046E+03  0.00000000000E+00 0.  1.
          4    1    6    6  503    0  0.49210199615E+02 -0.27668299668E+03 -0.10419570189E+03  0.29971965016E+03  0.00000000000E+00 0. -1.
         -4    1    6    6    0  503  0.10129524125E+03 -0.11909881238E+04 -0.26052749645E+03  0.12233511406E+04  0.00000000000E+00 0.  1.
<mgrwt>
<rscale>  0 0.32584121E+04</rscale>
<asrwt>0</asrwt>
<pdfrwt beam="1">  1        2 0.25173783E+00 0.32584121E+04</pdfrwt>
<pdfrwt beam="2">  1       -1 0.24956107E+00 0.32584121E+04</pdfrwt>
<totfact> 0.71247840E-01</totfact>
</mgrwt>
</event>
<event>
12    7  0.1741211E-007  0.1044005E+04  0.7818608E-02  0.9261555E-01
         -1   -1    0    0    0  501 -0.00000000000E+00  0.00000000000E+00  0.40707063733E+03  0.40707063733E+03  0.00000000000E+00 0.  1.
          2   -1    0    0  501    0  0.00000000000E+00 -0.00000000000E+00 -0.66938413261E+03  0.66938413261E+03  0.00000000000E+00 0. -1.
         24    2    1    2    0    0 -0.41753826801E+02 -0.13992377262E+02 -0.16071749849E+03  0.18480572532E+03  0.79899143397E+02 0.  0.
        254    2    1    2    0    0  0.41753826801E+02  0.13992377262E+02 -0.10159599679E+03  0.89164904463E+03  0.88474691497E+03 0.  0.
         23    2    4    4    0    0  0.42413186108E+03 -0.14243779739E+03 -0.29912057422E+01  0.45648723234E+03  0.90527809347E+02 0.  0.
         23    2    4    4    0    0 -0.38237803428E+03  0.15643017466E+03 -0.98604791049E+02  0.43516181229E+03  0.94654832998E+02 0.  0.
          4    1    3    3  502    0 -0.13015943957E+02 -0.45324422539E+02 -0.10136383300E+03  0.11179599598E+03  0.00000000000E+00 0. -1.
         -3    1    3    3    0  502 -0.28737882845E+02  0.31332045277E+02 -0.59353665487E+02  0.73009729340E+02  0.00000000000E+00 0.  1.
         13    1    5    5    0    0  0.38435104544E+03 -0.15337864524E+03  0.75898156152E+01  0.41389411720E+03  0.00000000000E+00 0.  1.
        -13    1    5    5    0    0  0.39780815643E+02  0.10940847847E+02 -0.10581021357E+02  0.42593115146E+02  0.00000000000E+00 0. -1.
          3    1    6    6  503    0 -0.58588462859E+02  0.47566828330E+01 -0.44084049466E+02  0.73475420578E+02  0.00000000000E+00 0. -1.
         -3    1    6    6    0  503 -0.32378957142E+03  0.15167349182E+03 -0.54520741583E+02  0.36168639171E+03  0.00000000000E+00 0.  1.
<mgrwt>
<rscale>  0 0.10440050E+04</rscale>
<asrwt>0</asrwt>
<pdfrwt beam="1">  1        2 0.10298217E+00 0.10440050E+04</pdfrwt>
<pdfrwt beam="2">  1       -1 0.62626252E-01 0.10440050E+04</pdfrwt>
<totfact> 0.12756287E+02</totfact>
</mgrwt>
</event>
<event>
12    7  0.1741211E-007  0.2021000E+04  0.7818608E-02  0.8596865E-01
          2   -1    0    0  501    0  0.00000000000E+00  0.00000000000E+00  0.16318503624E+04  0.16318503624E+04  0.00000000000E+00 0. -1.
         -1   -1    0    0    0  501 -0.00000000000E+00 -0.00000000000E+00 -0.62573751352E+03  0.62573751352E+03  0.00000000000E+00 0.  1.
         24    2    1    2    0    0  0.45546201551E+03 -0.59290293135E+03  0.74361179993E+03  0.10572777249E+04  0.76799381133E+02 0.  0.
        254    2    1    2    0    0 -0.45546201551E+03  0.59290293135E+03  0.26250104894E+03  0.12003101510E+04  0.90158644867E+03 0.  0.
         23    2    4    4    0    0 -0.15184017738E+03 -0.25785705692E+02 -0.27031091228E+03  0.32431187956E+03  0.91596199930E+02 0.  0.
         23    2    4    4    0    0 -0.30362183813E+03  0.61868863704E+03  0.53281196122E+03  0.87599827148E+03  0.92317579206E+02 0.  0.
          2    1    3    3  502    0  0.41642199453E+03 -0.56702872114E+03  0.68138735712E+03  0.97939653796E+03  0.00000000000E+00 0. -1.
         -1    1    3    3    0  502  0.39040020979E+02 -0.25874210210E+02  0.62224442801E+02  0.77881186907E+02  0.00000000000E+00 0.  1.
         13    1    5    5    0    0 -0.71440787784E+02 -0.10024481046E+02 -0.46129167261E+02  0.85628128857E+02  0.00000000000E+00 0. -1.
        -13    1    5    5    0    0 -0.80399389594E+02 -0.15761224646E+02 -0.22418174502E+03  0.23868375070E+03  0.00000000000E+00 0.  1.
          1    1    6    6  503    0 -0.28838987246E+02  0.10669781294E+03  0.53710787693E+02  0.12288596009E+03  0.00000000000E+00 0. -1.
         -1    1    6    6    0  503 -0.27478285088E+03  0.51199082410E+03  0.47910117353E+03  0.75311231139E+03  0.00000000000E+00 0.  1.
<mgrwt>
<rscale>  0 0.20209997E+04</rscale>
<asrwt>0</asrwt>
<pdfrwt beam="1">  1        2 0.25105390E+00 0.20209997E+04</pdfrwt>
<pdfrwt beam="2">  1       -1 0.96267311E-01 0.20209997E+04</pdfrwt>
<totfact> 0.11751721E+01</totfact>
</mgrwt>
</event>
<event>
12    7  0.1741211E-007  0.1182923E+04  0.7818608E-02  0.9127937E-01
         -1   -1    0    0    0  501 -0.00000000000E+00  0.00000000000E+00  0.26751423625E+03  0.26751423625E+03  0.00000000000E+00 0.  1.
          2   -1    0    0  501    0  0.00000000000E+00 -0.00000000000E+00 -0.13076942484E+04  0.13076942484E+04  0.00000000000E+00 0. -1.
         24    2    1    2    0    0  0.88834392642E+02  0.13090076032E+03  0.52418363310E+02  0.18458441100E+03  0.79354657103E+02 0.  0.
        254    2    1    2    0    0 -0.88834392642E+02 -0.13090076032E+03 -0.10925983755E+04  0.13906240737E+04  0.84559892727E+03 0.  0.
         23    2    4    4    0    0  0.36931009612E+02  0.24291616792E+03 -0.46880743521E+02  0.26910874293E+03  0.99244885521E+02 0.  0.
         23    2    4    4    0    0 -0.12576540225E+03 -0.37381692824E+03 -0.10457176319E+04  0.11215153307E+04  0.93355444701E+02 0.  0.
          2    1    3    3  502    0  0.36461469414E+02  0.28050402507E+02 -0.17980037016E+02  0.49391756029E+02  0.00000000000E+00 0. -1.
         -1    1    3    3    0  502  0.52372923229E+02  0.10285035781E+03  0.70398400326E+02  0.13519265497E+03  0.00000000000E+00 0.  1.
         13    1    5    5    0    0  0.35381413710E+02  0.13226944862E+03  0.22128371813E+02  0.13869648991E+03  0.00000000000E+00 0. -1.
        -13    1    5    5    0    0  0.15495959020E+01  0.11064671930E+03 -0.69009115334E+02  0.13041225302E+03  0.00000000000E+00 0.  1.
          4    1    6    6  503    0 -0.12078191186E+03 -0.24168292938E+03 -0.63667092628E+03  0.69162762882E+03  0.00000000000E+00 0. -1.
         -4    1    6    6    0  503 -0.49834903965E+01 -0.13213399886E+03 -0.40904670566E+03  0.42988770190E+03  0.00000000000E+00 0.  1.
<mgrwt>
<rscale>  0 0.11829232E+04</rscale>
<asrwt>0</asrwt>
<pdfrwt beam="1">  1        2 0.20118373E+00 0.11829232E+04</pdfrwt>
<pdfrwt beam="2">  1       -1 0.41156037E-01 0.11829232E+04</pdfrwt>
<totfact> 0.10641188E+02</totfact>
</mgrwt>
</event>
<event>
12    7  0.1741211E-007  0.1218020E+04  0.7818608E-02  0.9097228E-01
          2   -1    0    0  501    0  0.00000000000E+00  0.00000000000E+00  0.11233079295E+04  0.11233079295E+04  0.00000000000E+00 0. -1.
         -1   -1    0    0    0  501 -0.00000000000E+00 -0.00000000000E+00 -0.33017940826E+03  0.33017940826E+03  0.00000000000E+00 0.  1.
         24    2    1    2    0    0 -0.17073107858E+03 -0.18033092028E+03  0.28491051299E+03  0.38664985926E+03  0.81582910291E+02 0.  0.
        254    2    1    2    0    0  0.17073107858E+03  0.18033092028E+03  0.50821800824E+03  0.10668374785E+04  0.90453762751E+03 0.  0.
         23    2    4    4    0    0  0.15249952056E+03 -0.18431306033E+03 -0.15853159845E+03  0.30104329187E+03  0.90925177433E+02 0.  0.
         23    2    4    4    0    0  0.18231558025E+02  0.36464398061E+03  0.66674960670E+03  0.76579418662E+03  0.92671872327E+02 0.  0.
          2    1    3    3  502    0 -0.30896743623E+02  0.11528458867E+01  0.22148667774E+02  0.38032897659E+02  0.00000000000E+00 0. -1.
         -1    1    3    3    0  502 -0.13983433496E+03 -0.18148376617E+03  0.26276184521E+03  0.34861696160E+03  0.00000000000E+00 0.  1.
         13    1    5    5    0    0  0.68356772207E+02 -0.64159649629E+02 -0.11430773399E+03  0.14783560802E+03  0.00000000000E+00 0. -1.
        -13    1    5    5    0    0  0.84142748352E+02 -0.12015341070E+03 -0.44223864462E+02  0.15320768385E+03  0.00000000000E+00 0.  1.
          3    1    6    6  503    0 -0.11281704265E+02  0.33363357825E+03  0.58722640601E+03  0.67548019461E+03  0.00000000000E+00 0. -1.
         -3    1    6    6    0  503  0.29513262290E+02  0.31010402359E+02  0.79523200685E+02  0.90313992009E+02  0.00000000000E+00 0.  1.
<mgrwt>
<rscale>  0 0.12180199E+04</rscale>
<asrwt>0</asrwt>
<pdfrwt beam="1">  1        2 0.17281660E+00 0.12180199E+04</pdfrwt>
<pdfrwt beam="2">  1       -1 0.50796833E-01 0.12180199E+04</pdfrwt>
<totfact> 0.92229262E+01</totfact>
</mgrwt>
</event>
<event>
12    7  0.1741211E-007  0.1627273E+04  0.7818608E-02  0.8803966E-01
          2   -1    0    0  501    0  0.00000000000E+00  0.00000000000E+00  0.12562575566E+04  0.12562575566E+04  0.00000000000E+00 0. -1.
         -1   -1    0    0    0  501 -0.00000000000E+00 -0.00000000000E+00 -0.52696549249E+03  0.52696549249E+03  0.00000000000E+00 0.  1.
         24    2    1    2    0    0  0.19907454286E+03  0.98860653907E+02  0.81715753630E+03  0.85036363138E+03  0.77251303858E+02 0.  0.
        254    2    1    2    0    0 -0.19907454286E+03 -0.98860653907E+02 -0.87865472198E+02  0.93285941769E+03  0.90172182488E+03 0.  0.
         23    2    4    4    0    0  0.29475896342E+03 -0.24050425342E+03 -0.12626938863E+03  0.41090000624E+03  0.90386471279E+02 0.  0.
         23    2    4    4    0    0 -0.49383350628E+03  0.14164359951E+03  0.38403916432E+02  0.52195941145E+03  0.83858960170E+02 0.  0.
          2    1    3    3  502    0  0.15528118154E+03  0.82929193724E+02  0.50626588661E+03  0.53599873550E+03  0.00000000000E+00 0. -1.
         -1    1    3    3    0  502  0.43793361319E+02  0.15931460182E+02  0.31089164968E+03  0.31436489588E+03  0.00000000000E+00 0.  1.
         13    1    5    5    0    0  0.17827869552E+03 -0.18922530175E+03 -0.11112639389E+03  0.28273412160E+03  0.00000000000E+00 0. -1.
        -13    1    5    5    0    0  0.11648026790E+03 -0.51278951670E+02 -0.15142994736E+02  0.12816588463E+03  0.00000000000E+00 0.  1.
          1    1    6    6  503    0 -0.44088620054E+03  0.13105221153E+03  0.59912365726E+02  0.46383705710E+03  0.00000000000E+00 0. -1.
         -1    1    6    6    0  503 -0.52947305734E+02  0.10591387986E+02 -0.21508449294E+02  0.58122354348E+02  0.00000000000E+00 0.  1.
<mgrwt>
<rscale>  0 0.16272730E+04</rscale>
<asrwt>0</asrwt>
<pdfrwt beam="1">  1        2 0.19327039E+00 0.16272730E+04</pdfrwt>
<pdfrwt beam="2">  1       -1 0.81071615E-01 0.16272730E+04</pdfrwt>
<totfact> 0.29012832E+01</totfact>
</mgrwt>
</event>
<event>
12    7  0.1741211E-007  0.1675467E+04  0.7818608E-02  0.8775482E-01
         -1   -1    0    0    0  501 -0.00000000000E+00  0.00000000000E+00  0.23153569451E+03  0.23153569451E+03  0.00000000000E+00 0.  1.
          2   -1    0    0  501    0  0.00000000000E+00 -0.00000000000E+00 -0.30310534811E+04  0.30310534811E+04  0.00000000000E+00 0. -1.
         24    2    1    2    0    0  0.56697264474E+03 -0.56937843037E+02 -0.67940513551E+03  0.89026080139E+03  0.79202641907E+02 0.  0.
        254    2    1    2    0    0 -0.56697264474E+03  0.56937843037E+02 -0.21201126511E+04  0.23723283742E+04  0.89909085415E+03 0.  0.
         23    2    4    4    0    0 -0.76008656453E+03 -0.26309059508E+01 -0.19404592260E+04  0.20862144879E+04  0.95762072805E+02 0.  0.
         23    2    4    4    0    0  0.19311391979E+03  0.59568748987E+02 -0.17965342512E+03  0.28611388634E+03  0.93511394631E+02 0.  0.
          4    1    3    3  502    0  0.37465942419E+03 -0.19503000601E+02 -0.49586193438E+03  0.62179507005E+03  0.00000000000E+00 0. -1.
         -3    1    3    3    0  502  0.19231322054E+03 -0.37434842435E+02 -0.18354320113E+03  0.26846573135E+03  0.00000000000E+00 0.  1.
         13    1    5    5    0    0 -0.66023379782E+02 -0.10215977099E+01 -0.25572496220E+03  0.26411245074E+03  0.00000000000E+00 0. -1.
        -13    1    5    5    0    0 -0.69406318475E+03 -0.16093082408E+01 -0.16847342638E+04  0.18221020372E+04  0.00000000000E+00 0.  1.
          3    1    6    6  503    0  0.44836330365E+02  0.13714793456E+01  0.15076978914E+01  0.44882631709E+02  0.00000000000E+00 0. -1.
         -3    1    6    6    0  503  0.14827758943E+03  0.58197269642E+02 -0.18116112301E+03  0.24123125463E+03  0.00000000000E+00 0.  1.
<mgrwt>
<rscale>  0 0.16754666E+04</rscale>
<asrwt>0</asrwt>
<pdfrwt beam="1">  1        2 0.46631587E+00 0.16754666E+04</pdfrwt>
<pdfrwt beam="2">  1       -1 0.35620880E-01 0.16754666E+04</pdfrwt>
<totfact> 0.13658233E+01</totfact>
</mgrwt>
</event>
<event>
12    7  0.1741211E-007  0.1938101E+04  0.7818608E-02  0.8636120E-01
         -1   -1    0    0    0  501 -0.00000000000E+00  0.00000000000E+00  0.32747419529E+03  0.32747419529E+03  0.00000000000E+00 0.  1.
          2   -1    0    0  501    0  0.00000000000E+00 -0.00000000000E+00 -0.28675824531E+04  0.28675824531E+04  0.00000000000E+00 0. -1.
         24    2    1    2    0    0  0.40074969823E+03 -0.37698141918E+03 -0.15746751600E+03  0.57773802474E+03  0.79182672373E+02 0.  0.
        254    2    1    2    0    0 -0.40074969823E+03  0.37698141918E+03 -0.23826407418E+04  0.26173186237E+04  0.93309407999E+03 0.  0.
         23    2    4    4    0    0 -0.36565797583E+03 -0.19020372537E+02 -0.20671043126E+04  0.21013389779E+04  0.92939394644E+02 0.  0.
         23    2    4    4    0    0 -0.35091722398E+02  0.39600179172E+03 -0.31553642925E+03  0.51597964577E+03  0.92859617914E+02 0.  0.
          4    1    3    3  502    0  0.14769919145E+03 -0.10711623230E+03 -0.82651650038E+02  0.20030035854E+03  0.00000000000E+00 0. -1.
         -3    1    3    3    0  502  0.25305050677E+03 -0.26986518688E+03 -0.74815865960E+02  0.37743766620E+03  0.00000000000E+00 0.  1.
         13    1    5    5    0    0 -0.24435798310E+03  0.26587643083E+02 -0.14613690341E+04  0.14818964810E+04  0.00000000000E+00 0. -1.
        -13    1    5    5    0    0 -0.12129999273E+03 -0.45608015620E+02 -0.60573527849E+03  0.61944249688E+03  0.00000000000E+00 0.  1.
          2    1    6    6  503    0 -0.50738883804E+02  0.35538595590E+03 -0.30532638277E+03  0.47127254534E+03  0.00000000000E+00 0. -1.
         -2    1    6    6    0  503  0.15647161406E+02  0.40615835821E+02 -0.10210046484E+02  0.44707100429E+02  0.00000000000E+00 0.  1.
<mgrwt>
<rscale>  0 0.19381014E+04</rscale>
<asrwt>0</asrwt>
<pdfrwt beam="1">  1        2 0.44116655E+00 0.19381014E+04</pdfrwt>
<pdfrwt beam="2">  1       -1 0.50380643E-01 0.19381014E+04</pdfrwt>
<totfact> 0.88630512E+00</totfact>
</mgrwt>
</event>
<event>
12    7  0.1741211E-007  0.2547104E+04  0.7818608E-02  0.8386394E-01
          2   -1    0    0  501    0  0.00000000000E+00  0.00000000000E+00  0.19890150979E+04  0.19890150979E+04  0.00000000000E+00 0. -1.
         -1   -1    0    0    0  501 -0.00000000000E+00 -0.00000000000E+00 -0.81544595350E+03  0.81544595350E+03  0.00000000000E+00 0.  1.
         24    2    1    2    0    0  0.29539965986E+03  0.83587028577E+03 -0.22836687766E+03  0.91875874659E+03  0.77628022929E+02 0.  0.
        254    2    1    2    0    0 -0.29539965986E+03 -0.83587028577E+03  0.14019360221E+04  0.18857023048E+04  0.89694396632E+03 0.  0.
         23    2    4    4    0    0 -0.78326297545E+02  0.81355226340E+02 -0.46273273935E+02  0.15529079679E+03  0.96022569992E+02 0.  0.
         23    2    4    4    0    0 -0.21707336232E+03 -0.91722551211E+03  0.14482092960E+04  0.17304115080E+04  0.92684072847E+02 0.  0.
          4    1    3    3  502    0  0.25143444715E+02  0.14893231934E+03 -0.52562816198E+02  0.15992460162E+03  0.00000000000E+00 0. -1.
         -3    1    3    3    0  502  0.27025621515E+03  0.68693796643E+03 -0.17580406147E+03  0.75883414497E+03  0.00000000000E+00 0.  1.
         13    1    5    5    0    0  0.19202617161E+02  0.43502018744E+01  0.58461708538E+01  0.20538804148E+02  0.00000000000E+00 0.  1.
        -13    1    5    5    0    0 -0.97528914705E+02  0.77005024466E+02 -0.52119444789E+02  0.13475199264E+03  0.00000000000E+00 0. -1.
          2    1    6    6  503    0 -0.20264149875E+03 -0.90192719176E+03  0.13981584145E+04  0.16761214719E+04  0.00000000000E+00 0. -1.
         -2    1    6    6    0  503 -0.14431863570E+02 -0.15298320341E+02  0.50050881459E+02  0.54290036159E+02  0.00000000000E+00 0.  1.
<mgrwt>
<rscale>  0 0.25471037E+04</rscale>
<asrwt>0</asrwt>
<pdfrwt beam="1">  1        2 0.30600232E+00 0.25471037E+04</pdfrwt>
<pdfrwt beam="2">  1       -1 0.12545322E+00 0.25471037E+04</pdfrwt>
<totfact> 0.37987293E+00</totfact>
</mgrwt>
</event>
<event>
12    7  0.1741211E-007  0.1944720E+04  0.7818608E-02  0.8632911E-01
         -1   -1    0    0    0  501 -0.00000000000E+00  0.00000000000E+00  0.52045438052E+03  0.52045438052E+03  0.00000000000E+00 0.  1.
          2   -1    0    0  501    0  0.00000000000E+00 -0.00000000000E+00 -0.18166507809E+04  0.18166507809E+04  0.00000000000E+00 0. -1.
         24    2    1    2    0    0 -0.17705555192E+03 -0.60205479593E+03 -0.95438153802E+03  0.11449880079E+04  0.79591282404E+02 0.  0.
        254    2    1    2    0    0  0.17705555192E+03  0.60205479593E+03 -0.34181486237E+03  0.11921171536E+04  0.95419456189E+03 0.  0.
         23    2    4    4    0    0 -0.33773085706E+02  0.75965876039E+03 -0.19218708585E+02  0.76584338763E+03  0.89020683284E+02 0.  0.
         23    2    4    4    0    0  0.21082863762E+03 -0.15760396446E+03 -0.32259615379E+03  0.42627376595E+03  0.91396504552E+02 0.  0.
          4    1    3    3  502    0 -0.17035076865E+03 -0.53708702871E+03 -0.88936888428E+03  0.10528337348E+04  0.00000000000E+00 0. -1.
         -3    1    3    3    0  502 -0.67047832624E+01 -0.64967767226E+02 -0.65012653746E+02  0.92154273065E+02  0.00000000000E+00 0.  1.
         13    1    5    5    0    0  0.82239896541E+01  0.35898159138E+03 -0.46369659620E+02  0.36205740192E+03  0.00000000000E+00 0. -1.
        -13    1    5    5    0    0 -0.41997075361E+02  0.40067716902E+03  0.27150951035E+02  0.40378598570E+03  0.00000000000E+00 0.  1.
          2    1    6    6  503    0  0.11608319209E+03 -0.13232852577E+03 -0.16885289023E+03  0.24392098056E+03  0.00000000000E+00 0. -1.
         -2    1    6    6    0  503  0.94745445537E+02 -0.25275438686E+02 -0.15374326355E+03  0.18235278539E+03  0.00000000000E+00 0.  1.
<mgrwt>
<rscale>  0 0.19447199E+04</rscale>
<asrwt>0</asrwt>
<pdfrwt beam="1">  1        2 0.27948473E+00 0.19447199E+04</pdfrwt>
<pdfrwt beam="2">  1       -1 0.80069905E-01 0.19447199E+04</pdfrwt>
<totfact> 0.13976707E+01</totfact>
</mgrwt>
</event>
<event>
12    7  0.1741211E-007  0.1388993E+04  0.7818608E-02  0.8961825E-01
         -1   -1    0    0    0  501 -0.00000000000E+00  0.00000000000E+00  0.14539281387E+03  0.14539281387E+03  0.00000000000E+00 0.  1.
          2   -1    0    0  501    0  0.00000000000E+00 -0.00000000000E+00 -0.33173955576E+04  0.33173955576E+04  0.00000000000E+00 0. -1.
         24    2    1    2    0    0 -0.13988970262E+03  0.69910432666E+02 -0.17558300457E+04  0.17649370567E+04  0.87218502670E+02 0.  0.
        254    2    1    2    0    0  0.13988970262E+03 -0.69910432666E+02 -0.14161726980E+04  0.16978513148E+04  0.92341614616E+03 0.  0.
         23    2    4    4    0    0  0.44523486093E+03  0.61924004942E+02 -0.35047667529E+03  0.57764861514E+03  0.93676885506E+02 0.  0.
         23    2    4    4    0    0 -0.30534515832E+03 -0.13183443761E+03 -0.10656960228E+04  0.11202026996E+04  0.92358490379E+02 0.  0.
          2    1    3    3  502    0 -0.14670945021E+03  0.45955992456E+02 -0.15499451143E+04  0.15575511142E+04  0.00000000000E+00 0. -1.
         -1    1    3    3    0  502  0.68197475942E+01  0.23954440210E+02 -0.20588493146E+03  0.20738594254E+03  0.00000000000E+00 0.  1.
         13    1    5    5    0    0  0.86059830419E+02 -0.23793391355E+02 -0.56572858570E+02  0.10570197827E+03  0.00000000000E+00 0.  1.
        -13    1    5    5    0    0  0.35917503051E+03  0.85717396296E+02 -0.29390381672E+03  0.47194663687E+03  0.00000000000E+00 0. -1.
          4    1    6    6  503    0 -0.23774627371E+02 -0.43130404756E+02 -0.12867679319E+03  0.13777946808E+03  0.00000000000E+00 0. -1.
         -4    1    6    6    0  503 -0.28157053095E+03 -0.88704032852E+02 -0.93701922957E+03  0.98242323156E+03  0.00000000000E+00 0.  1.
<mgrwt>
<rscale>  0 0.13889931E+04</rscale>
<asrwt>0</asrwt>
<pdfrwt beam="1">  1        2 0.51036852E+00 0.13889931E+04</pdfrwt>
<pdfrwt beam="2">  1       -1 0.22368127E-01 0.13889931E+04</pdfrwt>
<totfact> 0.20666558E+01</totfact>
</mgrwt>
</event>
<event>
12    7  0.1741211E-007  0.1544399E+04  0.7818608E-02  0.8855453E-01
          2   -1    0    0  501    0  0.00000000000E+00  0.00000000000E+00  0.24932911634E+04  0.24932911634E+04  0.00000000000E+00 0. -1.
         -1   -1    0    0    0  501 -0.00000000000E+00 -0.00000000000E+00 -0.23915873352E+03  0.23915873352E+03  0.00000000000E+00 0.  1.
         24    2    1    2    0    0  0.44456432607E+03  0.21821518209E+03  0.89121859826E+03  0.10226140583E+04  0.78826497236E+02 0.  0.
        254    2    1    2    0    0 -0.44456432607E+03 -0.21821518209E+03  0.13629138317E+04  0.17098358387E+04  0.90595208311E+03 0.  0.
         23    2    4    4    0    0 -0.17114773479E+03 -0.25923390345E+03  0.83856851014E+01  0.32434566179E+03  0.92930214610E+02 0.  0.
         23    2    4    4    0    0 -0.27341659128E+03  0.41018721354E+02  0.13545281466E+04  0.13854901769E+04  0.91637123845E+02 0.  0.
          4    1    3    3  502    0  0.20856025166E+03  0.14450134789E+03  0.47396655848E+03  0.53760795815E+03  0.00000000000E+00 0. -1.
         -3    1    3    3    0  502  0.23600407441E+03  0.73713834208E+02  0.41725203978E+03  0.48500610016E+03  0.00000000000E+00 0.  1.
         13    1    5    5    0    0 -0.15636372989E+02 -0.65682139380E+02  0.32421767451E+02  0.74898668870E+02  0.00000000000E+00 0. -1.
        -13    1    5    5    0    0 -0.15551136180E+03 -0.19355176407E+03 -0.24036082350E+02  0.24944699292E+03  0.00000000000E+00 0.  1.
          3    1    6    6  503    0 -0.16717262553E+03  0.33022598068E+02  0.60913143389E+03  0.63251741673E+03  0.00000000000E+00 0. -1.
         -3    1    6    6    0  503 -0.10624396576E+03  0.79961232863E+01  0.74539671267E+03  0.75297276014E+03  0.00000000000E+00 0.  1.
<mgrwt>
<rscale>  0 0.15443994E+04</rscale>
<asrwt>0</asrwt>
<pdfrwt beam="1">  1        2 0.38358324E+00 0.15443994E+04</pdfrwt>
<pdfrwt beam="2">  1       -1 0.36793653E-01 0.15443994E+04</pdfrwt>
<totfact> 0.27383239E+01</totfact>
</mgrwt>
</event>
<event>
12    7  0.1741211E-007  0.1631209E+04  0.7818608E-02  0.8801601E-01
          2   -1    0    0  501    0  0.00000000000E+00  0.00000000000E+00  0.13136530669E+04  0.13136530669E+04  0.00000000000E+00 0. -1.
         -1   -1    0    0    0  501 -0.00000000000E+00 -0.00000000000E+00 -0.50638248923E+03  0.50638248923E+03  0.00000000000E+00 0.  1.
         24    2    1    2    0    0 -0.28875748815E+03 -0.42450584739E+03  0.30781517039E+02  0.52098455254E+03  0.83013858848E+02 0.  0.
        254    2    1    2    0    0  0.28875748815E+03  0.42450584739E+03  0.77648906067E+03  0.12990510036E+04  0.90609720629E+03 0.  0.
         23    2    4    4    0    0  0.20828570466E+03  0.67062806042E+03  0.34504105436E+03  0.78767140001E+03  0.90818362820E+02 0.  0.
         23    2    4    4    0    0  0.80471783489E+02 -0.24612221302E+03  0.43144800631E+03  0.51137960361E+03  0.91158461792E+02 0.  0.
          4    1    3    3  502    0 -0.51553524354E+01 -0.54003757216E+01 -0.10917634962E+02  0.13226355123E+02  0.00000000000E+00 0. -1.
         -3    1    3    3    0  502 -0.28360213571E+03 -0.41910547167E+03  0.41699152002E+02  0.50775819741E+03  0.00000000000E+00 0.  1.
         13    1    5    5    0    0  0.48135538982E+02  0.23618897511E+03  0.15851433935E+03  0.28849446763E+03  0.00000000000E+00 0.  1.
        -13    1    5    5    0    0  0.16015016568E+03  0.43443908531E+03  0.18652671501E+03  0.49917693238E+03  0.00000000000E+00 0. -1.
          1    1    6    6  503    0  0.46529684778E+02 -0.98820222326E+02  0.26449768980E+03  0.28616337260E+03  0.00000000000E+00 0. -1.
         -1    1    6    6    0  503  0.33942098711E+02 -0.14730199070E+03  0.16695031651E+03  0.22521623101E+03  0.00000000000E+00 0.  1.
<mgrwt>
<rscale>  0 0.16312093E+04</rscale>
<asrwt>0</asrwt>
<pdfrwt beam="1">  1        2 0.20210047E+00 0.16312093E+04</pdfrwt>
<pdfrwt beam="2">  1       -1 0.77904999E-01 0.16312093E+04</pdfrwt>
<totfact> 0.29214364E+01</totfact>
</mgrwt>
</event>
<event>
12    7  0.1741211E-007  0.1479593E+04  0.7818608E-02  0.8898138E-01
          2   -1    0    0  501    0  0.00000000000E+00  0.00000000000E+00  0.12399520024E+04  0.12399520024E+04  0.00000000000E+00 0. -1.
         -1   -1    0    0    0  501 -0.00000000000E+00 -0.00000000000E+00 -0.44138710810E+03  0.44138710810E+03  0.00000000000E+00 0.  1.
         24    2    1    2    0    0  0.45399222421E+03  0.12658589040E+03  0.36474780083E+03  0.60215630555E+03  0.86129732482E+02 0.  0.
        254    2    1    2    0    0 -0.45399222421E+03 -0.12658589040E+03  0.43381709351E+03  0.10791828050E+04  0.86850752942E+03 0.  0.
         23    2    4    4    0    0 -0.21758765806E+03 -0.46147945982E+03  0.68659355039E+02  0.52278102122E+03  0.90984659893E+02 0.  0.
         23    2    4    4    0    0 -0.23640456614E+03  0.33489356943E+03  0.36515773847E+03  0.55640178376E+03  0.90564613795E+02 0.  0.
          2    1    3    3  502    0  0.35717495667E+03  0.12722856972E+03  0.31693311306E+03  0.49417371114E+03  0.00000000000E+00 0. -1.
         -1    1    3    3    0  502  0.96817267533E+02 -0.64267932338E+00  0.47814687769E+02  0.10798259441E+03  0.00000000000E+00 0.  1.
         13    1    5    5    0    0 -0.82531062278E+02 -0.20542127577E+03 -0.13690543231E+02  0.22180330871E+03  0.00000000000E+00 0.  1.
        -13    1    5    5    0    0 -0.13505659579E+03 -0.25605818405E+03  0.82349898269E+02  0.30097771252E+03  0.00000000000E+00 0. -1.
          1    1    6    6  503    0 -0.15646262386E+03  0.27517971187E+03  0.24545921674E+03  0.40056791380E+03  0.00000000000E+00 0. -1.
         -1    1    6    6    0  503 -0.79941942282E+02  0.59713857559E+02  0.11969852174E+03  0.15583386996E+03  0.00000000000E+00 0.  1.
<mgrwt>
<rscale>  0 0.14795930E+04</rscale>
<asrwt>0</asrwt>
<pdfrwt beam="1">  1        2 0.19076185E+00 0.14795930E+04</pdfrwt>
<pdfrwt beam="2">  1       -1 0.67905709E-01 0.14795930E+04</pdfrwt>
<totfact> 0.43440476E+01</totfact>
</mgrwt>
</event>
<event>
12    7  0.1741211E-007  0.2110550E+04  0.7818608E-02  0.8556610E-01
         -1   -1    0    0    0  501 -0.00000000000E+00  0.00000000000E+00  0.89257557266E+03  0.89257557266E+03  0.00000000000E+00 0.  1.
          2   -1    0    0  501    0  0.00000000000E+00 -0.00000000000E+00 -0.12476309325E+04  0.12476309325E+04  0.00000000000E+00 0. -1.
         24    2    1    2    0    0  0.26481212531E+03  0.22144050459E+03 -0.94801583641E+03  0.10120899049E+04  0.80190963687E+02 0.  0.
        254    2    1    2    0    0 -0.26481212531E+03 -0.22144050459E+03  0.59296047660E+03  0.11281166003E+04  0.89547952417E+03 0.  0.
         23    2    4    4    0    0 -0.27888112656E+03 -0.35111487965E+03 -0.55339164959E+02  0.46016647383E+03  0.87375162319E+02 0.  0.
         23    2    4    4    0    0  0.14069001250E+02  0.12967437506E+03  0.64829964156E+03  0.66795012645E+03  0.94082760521E+02 0.  0.
          4    1    3    3  502    0  0.15508475752E+03  0.81677912985E+02 -0.42552235083E+03  0.46020846857E+03  0.00000000000E+00 0. -1.
         -3    1    3    3    0  502  0.10972736779E+03  0.13976259161E+03 -0.52249348558E+03  0.55188143629E+03  0.00000000000E+00 0.  1.
         13    1    5    5    0    0 -0.69662058711E+02 -0.12411536157E+03 -0.51724824974E+02  0.15143606876E+03  0.00000000000E+00 0. -1.
        -13    1    5    5    0    0 -0.20921906785E+03 -0.22699951808E+03 -0.36143399849E+01  0.30873040507E+03  0.00000000000E+00 0.  1.
          1    1    6    6  503    0 -0.32607817398E+02  0.13043236916E+02  0.13304084590E+03  0.13759819208E+03  0.00000000000E+00 0. -1.
         -1    1    6    6    0  503  0.46676818649E+02  0.11663113815E+03  0.51525879566E+03  0.53035193437E+03  0.00000000000E+00 0.  1.
<mgrwt>
<rscale>  0 0.21105496E+04</rscale>
<asrwt>0</asrwt>
<pdfrwt beam="1">  1        2 0.19194322E+00 0.21105496E+04</pdfrwt>
<pdfrwt beam="2">  1       -1 0.13731932E+00 0.21105496E+04</pdfrwt>
<totfact> 0.82113045E+00</totfact>
</mgrwt>
</event>
<event>
12    7  0.1741211E-007  0.1596797E+04  0.7818608E-02  0.8822518E-01
         -1   -1    0    0    0  501 -0.00000000000E+00  0.00000000000E+00  0.28154197341E+03  0.28154197341E+03  0.00000000000E+00 0.  1.
          2   -1    0    0  501    0  0.00000000000E+00 -0.00000000000E+00 -0.22641048309E+04  0.22641048309E+04  0.00000000000E+00 0. -1.
         24    2    1    2    0    0 -0.36774631072E+03 -0.39988169496E+03 -0.83623198936E+03  0.10004615407E+04  0.80601708649E+02 0.  0.
        254    2    1    2    0    0  0.36774631072E+03  0.39988169496E+03 -0.11463308681E+04  0.15451852636E+04  0.88225864718E+03 0.  0.
         23    2    4    4    0    0  0.37572668406E+03  0.55944930633E+03 -0.42673826077E+03  0.80286574022E+03  0.91289573054E+02 0.  0.
         23    2    4    4    0    0 -0.79803733468E+01 -0.15956761136E+03 -0.71959260736E+03  0.74231952335E+03  0.87745343086E+02 0.  0.
          2    1    3    3  502    0 -0.34910324770E+03 -0.36639043031E+03 -0.80570746740E+03  0.95146179535E+03  0.00000000000E+00 0. -1.
         -1    1    3    3    0  502 -0.18643063013E+02 -0.33491264653E+02 -0.30524521955E+02  0.48999745379E+02  0.00000000000E+00 0.  1.
         13    1    5    5    0    0 -0.47617854459E+01  0.12998094637E+02 -0.52254633807E+01  0.14796301307E+02  0.00000000000E+00 0. -1.
        -13    1    5    5    0    0  0.38048846951E+03  0.54645121169E+03 -0.42151279739E+03  0.78806943892E+03  0.00000000000E+00 0.  1.
          1    1    6    6  503    0  0.24247599636E+02 -0.26515537359E+02 -0.26900958705E+03  0.27139855883E+03  0.00000000000E+00 0. -1.
         -1    1    6    6    0  503 -0.32227972983E+02 -0.13305207400E+03 -0.45058302030E+03  0.47092096452E+03  0.00000000000E+00 0.  1.
<mgrwt>
<rscale>  0 0.15967975E+04</rscale>
<asrwt>0</asrwt>
<pdfrwt beam="1">  1        2 0.34832383E+00 0.15967975E+04</pdfrwt>
<pdfrwt beam="2">  1       -1 0.43314149E-01 0.15967975E+04</pdfrwt>
<totfact> 0.27320415E+01</totfact>
</mgrwt>
</event>
<event>
12    7  0.1741211E-007  0.1320041E+04  0.7818608E-02  0.9013822E-01
          2   -1    0    0  501    0  0.00000000000E+00  0.00000000000E+00  0.95755748171E+03  0.95755748171E+03  0.00000000000E+00 0. -1.
         -1   -1    0    0    0  501 -0.00000000000E+00 -0.00000000000E+00 -0.45493553718E+03  0.45493553718E+03  0.00000000000E+00 0.  1.
         24    2    1    2    0    0 -0.24046330795E+03 -0.21617620910E+03  0.11016826848E+03  0.35085136451E+03  0.80030473859E+02 0.  0.
        254    2    1    2    0    0  0.24046330795E+03  0.21617620910E+03  0.39245367604E+03  0.10616416544E+04  0.93193795857E+03 0.  0.
         23    2    4    4    0    0  0.31067973550E+02  0.53220374660E+03  0.39993345200E+03  0.67254871840E+03  0.90382330740E+02 0.  0.
         23    2    4    4    0    0  0.20939533440E+03 -0.31602753751E+03 -0.74797759545E+01  0.38909293598E+03  0.87278607050E+02 0.  0.
          2    1    3    3  502    0 -0.40893003543E+02 -0.63565892862E+01  0.10383172116E+01  0.41397126334E+02  0.00000000000E+00 0. -1.
         -1    1    3    3    0  502 -0.19957030441E+03 -0.20981961981E+03  0.10912995127E+03  0.30945423817E+03  0.00000000000E+00 0.  1.
         13    1    5    5    0    0 -0.25462633387E+02  0.19778576677E+03  0.11964013020E+03  0.23255389911E+03  0.00000000000E+00 0. -1.
        -13    1    5    5    0    0  0.56530606937E+02  0.33441797983E+03  0.28029332180E+03  0.43999481929E+03  0.00000000000E+00 0.  1.
          3    1    6    6  503    0  0.92728355641E+02 -0.68244884535E+02 -0.82613626115E+00  0.11513728634E+03  0.00000000000E+00 0. -1.
         -3    1    6    6    0  503  0.11666697876E+03 -0.24778265297E+03 -0.66536396933E+01  0.27395564964E+03  0.00000000000E+00 0.  1.
<mgrwt>
<rscale>  0 0.13200408E+04</rscale>
<asrwt>0</asrwt>
<pdfrwt beam="1">  1        2 0.14731654E+00 0.13200408E+04</pdfrwt>
<pdfrwt beam="2">  1       -1 0.69990083E-01 0.13200408E+04</pdfrwt>
<totfact> 0.61879627E+01</totfact>
</mgrwt>
</event>
<event>
12    7  0.1741211E-007  0.1460329E+04  0.7818608E-02  0.8911271E-01
         -1   -1    0    0    0  501 -0.00000000000E+00  0.00000000000E+00  0.10299149006E+04  0.10299149006E+04  0.00000000000E+00 0.  1.
          2   -1    0    0  501    0  0.00000000000E+00 -0.00000000000E+00 -0.51765461205E+03  0.51765461205E+03  0.00000000000E+00 0. -1.
         24    2    1    2    0    0 -0.24395046326E+03 -0.35549010670E+02  0.53855175439E+03  0.59769944156E+03  0.80193949903E+02 0.  0.
        254    2    1    2    0    0  0.24395046326E+03  0.35549010670E+02 -0.26291465862E+02  0.94987007107E+03  0.91694402776E+03 0.  0.
         23    2    4    4    0    0  0.38515095179E+03 -0.30903875905E+03 -0.18499359838E+03  0.53477774927E+03  0.88985388753E+02 0.  0.
         23    2    4    4    0    0 -0.14120048854E+03  0.34458776972E+03  0.15870213252E+03  0.41509232180E+03  0.91852924550E+02 0.  0.
          4    1    3    3  502    0 -0.29873982093E+02 -0.31795098511E+02  0.68998028101E+02  0.81634006255E+02  0.00000000000E+00 0. -1.
         -3    1    3    3    0  502 -0.21407648116E+03 -0.37539121592E+01  0.46955372629E+03  0.51606543530E+03  0.00000000000E+00 0.  1.
         13    1    5    5    0    0  0.30958443207E+03 -0.20741912193E+03 -0.11448807723E+03  0.38983680246E+03  0.00000000000E+00 0. -1.
        -13    1    5    5    0    0  0.75566519726E+02 -0.10161963711E+03 -0.70505521143E+02  0.14494094681E+03  0.00000000000E+00 0.  1.
          1    1    6    6  503    0 -0.10335179147E+03  0.30682917101E+03  0.10771843032E+03  0.34121692985E+03  0.00000000000E+00 0. -1.
         -1    1    6    6    0  503 -0.37848697072E+02  0.37758598704E+02  0.50983702198E+02  0.73875391951E+02  0.00000000000E+00 0.  1.
<mgrwt>
<rscale>  0 0.14603290E+04</rscale>
<asrwt>0</asrwt>
<pdfrwt beam="1">  1        2 0.79639171E-01 0.14603290E+04</pdfrwt>
<pdfrwt beam="2">  1       -1 0.15844845E+00 0.14603290E+04</pdfrwt>
<totfact> 0.19671348E+01</totfact>
</mgrwt>
</event>
<event>
12    7  0.1741211E-007  0.1487402E+04  0.7818608E-02  0.8892874E-01
         -1   -1    0    0    0  501 -0.00000000000E+00  0.00000000000E+00  0.75825554321E+03  0.75825554321E+03  0.00000000000E+00 0.  1.
          2   -1    0    0  501    0  0.00000000000E+00 -0.00000000000E+00 -0.72942535693E+03  0.72942535693E+03  0.00000000000E+00 0. -1.
         24    2    1    2    0    0 -0.13426808561E+03 -0.38474432384E+03 -0.24871220956E+03  0.48410522149E+03  0.80274458857E+02 0.  0.
        254    2    1    2    0    0  0.13426808561E+03  0.38474432384E+03  0.27754239585E+03  0.10035756786E+04  0.87411569471E+03 0.  0.
         23    2    4    4    0    0  0.13687687439E+03 -0.22764680985E+03 -0.76254331407E+02  0.29053730139E+03  0.89659643443E+02 0.  0.
         23    2    4    4    0    0 -0.26087887842E+01  0.61239113369E+03  0.35379672725E+03  0.71303837726E+03  0.90674675764E+02 0.  0.
          4    1    3    3  502    0 -0.87697349850E+02 -0.30809273818E+03 -0.16044344556E+03  0.35826534819E+03  0.00000000000E+00 0. -1.
         -3    1    3    3    0  502 -0.46570735756E+02 -0.76651585665E+02 -0.88268764002E+02  0.12583987330E+03  0.00000000000E+00 0.  1.
         13    1    5    5    0    0  0.42346388704E+02 -0.12054722041E+03  0.17418693724E+01  0.12778060531E+03  0.00000000000E+00 0. -1.
        -13    1    5    5    0    0  0.94530485685E+02 -0.10709958944E+03 -0.77996200779E+02  0.16275669608E+03  0.00000000000E+00 0.  1.
          1    1    6    6  503    0  0.59329695522E+00  0.52231217218E+03  0.26182571333E+03  0.58426283586E+03  0.00000000000E+00 0. -1.
         -1    1    6    6    0  503 -0.32020857394E+01  0.90078961511E+02  0.91971013919E+02  0.12877554139E+03  0.00000000000E+00 0.  1.
<mgrwt>
<rscale>  0 0.14874015E+04</rscale>
<asrwt>0</asrwt>
<pdfrwt beam="1">  1        2 0.11221929E+00 0.14874015E+04</pdfrwt>
<pdfrwt beam="2">  1       -1 0.11665470E+00 0.14874015E+04</pdfrwt>
<totfact> 0.28482532E+01</totfact>
</mgrwt>
</event>
<event>
12    7  0.1741211E-007  0.2765553E+04  0.7818608E-02  0.8314043E-01
         -1   -1    0    0    0  501 -0.00000000000E+00  0.00000000000E+00  0.69459674707E+03  0.69459674707E+03  0.00000000000E+00 0.  1.
          2   -1    0    0  501    0  0.00000000000E+00 -0.00000000000E+00 -0.27527788446E+04  0.27527788446E+04  0.00000000000E+00 0. -1.
         24    2    1    2    0    0 -0.85031856668E+03 -0.84310033565E+03 -0.61852384856E+03  0.13499941400E+04  0.77798367646E+02 0.  0.
        254    2    1    2    0    0  0.85031856668E+03  0.84310033565E+03 -0.14396582490E+04  0.20973814517E+04  0.94473977323E+03 0.  0.
         23    2    4    4    0    0 -0.16700633968E+03  0.24116345903E+03 -0.13784270924E+03  0.33665050244E+03  0.91005586834E+02 0.  0.
         23    2    4    4    0    0  0.10173249064E+04  0.60193687662E+03 -0.13018155397E+04  0.17607309492E+04  0.90398050409E+02 0.  0.
          4    1    3    3  502    0 -0.65073457200E+03 -0.63408683626E+03 -0.50503495606E+03  0.10395104165E+04  0.00000000000E+00 0. -1.
         -3    1    3    3    0  502 -0.19958399468E+03 -0.20901349940E+03 -0.11348889250E+03  0.31048372354E+03  0.00000000000E+00 0.  1.
         13    1    5    5    0    0 -0.13033460184E+03  0.22112882258E+03 -0.14415250436E+03  0.29438921367E+03  0.00000000000E+00 0. -1.
        -13    1    5    5    0    0 -0.36671737843E+02  0.20034636453E+02  0.63097951141E+01  0.42261288771E+02  0.00000000000E+00 0.  1.
          1    1    6    6  503    0  0.65330175837E+03  0.33667120923E+03 -0.82054939098E+03  0.11015679705E+04  0.00000000000E+00 0. -1.
         -1    1    6    6    0  503  0.36402314800E+03  0.26526566739E+03 -0.48126614874E+03  0.65916297871E+03  0.00000000000E+00 0.  1.
<mgrwt>
<rscale>  0 0.27655533E+04</rscale>
<asrwt>0</asrwt>
<pdfrwt beam="1">  1        2 0.42350444E+00 0.27655533E+04</pdfrwt>
<pdfrwt beam="2">  1       -1 0.10686104E+00 0.27655533E+04</pdfrwt>
<totfact> 0.20005101E+00</totfact>
</mgrwt>
</event>
<event>
12    7  0.1741211E-007  0.2516928E+04  0.7818608E-02  0.8396980E-01
          2   -1    0    0  501    0  0.00000000000E+00  0.00000000000E+00  0.26564182495E+04  0.26564182495E+04  0.00000000000E+00 0. -1.
         -1   -1    0    0    0  501 -0.00000000000E+00 -0.00000000000E+00 -0.59619057865E+03  0.59619057865E+03  0.00000000000E+00 0.  1.
         24    2    1    2    0    0 -0.41479878693E+03  0.85610991383E+02  0.21671182915E+04  0.22096240246E+04  0.81543639381E+02 0.  0.
        254    2    1    2    0    0  0.41479878693E+03 -0.85610991383E+02 -0.10689062068E+03  0.10429848036E+04  0.94710317293E+03 0.  0.
         23    2    4    4    0    0 -0.70792864145E+02  0.30931036746E+03 -0.22735893425E+03  0.39919189554E+03  0.83531739186E+02 0.  0.
         23    2    4    4    0    0  0.48559165107E+03 -0.39492135884E+03  0.12046831357E+03  0.64379290801E+03  0.90523823178E+02 0.  0.
          4    1    3    3  502    0 -0.40946924662E+03  0.94106194079E+02  0.20861739939E+04  0.21280608479E+04  0.00000000000E+00 0. -1.
         -3    1    3    3    0  502 -0.53295403110E+01 -0.84952026959E+01  0.80944297690E+02  0.81563176724E+02  0.00000000000E+00 0.  1.
         13    1    5    5    0    0  0.28982098733E+01  0.16206617122E+00 -0.18885794991E+02  0.19107567568E+02  0.00000000000E+00 0.  1.
        -13    1    5    5    0    0 -0.73691074018E+02  0.30914830129E+03 -0.20847313926E+03  0.38008432798E+03  0.00000000000E+00 0. -1.
          3    1    6    6  503    0  0.46643506637E+03 -0.38099190639E+03  0.13332874045E+03  0.61684119261E+03  0.00000000000E+00 0. -1.
         -3    1    6    6    0  503  0.19156584707E+02 -0.13929452457E+02 -0.12860426881E+02  0.26951715399E+02  0.00000000000E+00 0.  1.
<mgrwt>
<rscale>  0 0.25169279E+04</rscale>
<asrwt>0</asrwt>
<pdfrwt beam="1">  1        2 0.40867973E+00 0.25169279E+04</pdfrwt>
<pdfrwt beam="2">  1       -1 0.91721629E-01 0.25169279E+04</pdfrwt>
<totfact> 0.33063324E+00</totfact>
</mgrwt>
</event>
<event>
12    7  0.1741211E-007  0.3133621E+04  0.7818608E-02  0.8206571E-01
         -3   -1    0    0    0  501 -0.00000000000E+00  0.00000000000E+00  0.13001361773E+04  0.13001361773E+04  0.00000000000E+00 0.  1.
          2   -1    0    0  501    0  0.00000000000E+00 -0.00000000000E+00 -0.18881827461E+04  0.18881827461E+04  0.00000000000E+00 0. -1.
         24    2    1    2    0    0 -0.56150946328E+03  0.11780911935E+04 -0.87757445147E+03  0.15759746476E+04  0.10182059883E+03 0.  0.
        254    2    1    2    0    0  0.56150946328E+03 -0.11780911935E+04  0.28952788264E+03  0.16123442759E+04  0.90146321694E+03 0.  0.
         23    2    4    4    0    0  0.20483186854E+03 -0.20140395846E+03 -0.28954369918E+03  0.41873502638E+03  0.94783013927E+02 0.  0.
         23    2    4    4    0    0  0.35667759474E+03 -0.97668723507E+03  0.57907158182E+03  0.11936092495E+04  0.90787013727E+02 0.  0.
          4    1    3    3  502    0 -0.51102128797E+03  0.10306370481E+04 -0.80492883041E+03  0.14040177718E+04  0.00000000000E+00 0. -1.
         -3    1    3    3    0  502 -0.50488175312E+02  0.14745414545E+03 -0.72645621065E+02  0.17195687575E+03  0.00000000000E+00 0.  1.
         13    1    5    5    0    0  0.65415847999E+02 -0.11308703953E+02 -0.72396819060E+02  0.98226367970E+02  0.00000000000E+00 0. -1.
        -13    1    5    5    0    0  0.13941602054E+03 -0.19009525451E+03 -0.21714688012E+03  0.32050865841E+03  0.00000000000E+00 0.  1.
          3    1    6    6  503    0  0.22288991533E+03 -0.64162213690E+03  0.32967210375E+03  0.75501164025E+03  0.00000000000E+00 0. -1.
         -3    1    6    6    0  503  0.13378767941E+03 -0.33506509817E+03  0.24939947807E+03  0.43859760925E+03  0.00000000000E+00 0.  1.
<mgrwt>
<rscale>  0 0.31336207E+04</rscale>
<asrwt>0</asrwt>
<pdfrwt beam="1">  1        2 0.29048965E+00 0.31336207E+04</pdfrwt>
<pdfrwt beam="2">  1       -3 0.20002095E+00 0.31336207E+04</pdfrwt>
<totfact> 0.60416094E-01</totfact>
</mgrwt>
</event>
<event>
12    7  0.1741211E-007  0.1544033E+04  0.7818608E-02  0.8855688E-01
         -1   -1    0    0    0  501 -0.00000000000E+00  0.00000000000E+00  0.31699122889E+03  0.31699122889E+03  0.00000000000E+00 0.  1.
          2   -1    0    0  501    0  0.00000000000E+00 -0.00000000000E+00 -0.18802077122E+04  0.18802077122E+04  0.00000000000E+00 0. -1.
         24    2    1    2    0    0  0.11525793628E+03  0.48593961186E+03 -0.51909038084E+03  0.72518145839E+03  0.83735451695E+02 0.  0.
        254    2    1    2    0    0 -0.11525793628E+03 -0.48593961186E+03 -0.10441261025E+04  0.14720174827E+04  0.90951330570E+03 0.  0.
         23    2    4    4    0    0  0.25672152361E+03 -0.40655131701E+03 -0.17618033953E+03  0.52002219408E+03  0.90518817161E+02 0.  0.
         23    2    4    4    0    0 -0.37197945989E+03 -0.79388294851E+02 -0.86794576293E+03  0.95199528860E+03  0.91071192948E+02 0.  0.
          4    1    3    3  502    0  0.57150320510E+02  0.26410672316E+03 -0.22095646592E+03  0.34905627080E+03  0.00000000000E+00 0. -1.
         -3    1    3    3    0  502  0.58107615773E+02  0.22183288870E+03 -0.29813391492E+03  0.37612518760E+03  0.00000000000E+00 0.  1.
         13    1    5    5    0    0  0.26027295547E+03 -0.40690892952E+03 -0.16853848716E+03  0.51158783207E+03  0.00000000000E+00 0.  1.
        -13    1    5    5    0    0 -0.35514318574E+01  0.35761251352E+00 -0.76418523666E+01  0.84343620115E+01  0.00000000000E+00 0. -1.
          2    1    6    6  503    0 -0.11595448134E+03 -0.54402523406E+02 -0.21579354935E+03  0.25094208940E+03  0.00000000000E+00 0. -1.
         -2    1    6    6    0  503 -0.25602497856E+03 -0.24985771445E+02 -0.65215221358E+03  0.70105319919E+03  0.00000000000E+00 0.  1.
<mgrwt>
<rscale>  0 0.15440328E+04</rscale>
<asrwt>0</asrwt>
<pdfrwt beam="1">  1        2 0.28926273E+00 0.15440328E+04</pdfrwt>
<pdfrwt beam="2">  1       -1 0.48767881E-01 0.15440328E+04</pdfrwt>
<totfact> 0.35962016E+01</totfact>
</mgrwt>
</event>
<event>
12    7  0.1741211E-007  0.1650490E+04  0.7818608E-02  0.8790117E-01
          2   -1    0    0  501    0  0.00000000000E+00  0.00000000000E+00  0.18655133881E+04  0.18655133881E+04  0.00000000000E+00 0. -1.
         -1   -1    0    0    0  501 -0.00000000000E+00 -0.00000000000E+00 -0.36506278076E+03  0.36506278076E+03  0.00000000000E+00 0.  1.
         24    2    1    2    0    0 -0.22323977187E+03  0.44204225353E+03  0.15507277062E+03  0.52490327902E+03  0.78984419310E+02 0.  0.
        254    2    1    2    0    0  0.22323977187E+03 -0.44204225353E+03  0.13453778367E+04  0.17056728898E+04  0.92414345959E+03 0.  0.
         23    2    4    4    0    0  0.52495668613E+03 -0.15727782289E+03  0.45124778196E+03  0.71575045593E+03  0.91423840222E+02 0.  0.
         23    2    4    4    0    0 -0.30171691425E+03 -0.28476443064E+03  0.89413005476E+03  0.98992243390E+03  0.91400180496E+02 0.  0.
          2    1    3    3  502    0  0.51620397087E+01  0.22185352270E+02  0.13027186655E+01  0.22815205132E+02  0.00000000000E+00 0. -1.
         -1    1    3    3    0  502 -0.22840181158E+03  0.41985690126E+03  0.15377005195E+03  0.50208807389E+03  0.00000000000E+00 0.  1.
         13    1    5    5    0    0  0.43695604332E+03 -0.16341690155E+03  0.39355594513E+03  0.61034576222E+03  0.00000000000E+00 0. -1.
        -13    1    5    5    0    0  0.88000642803E+02  0.61390786555E+01  0.57691836826E+02  0.10540469371E+03  0.00000000000E+00 0.  1.
          2    1    6    6  503    0 -0.20116521351E+03 -0.21490754323E+03  0.53703605015E+03  0.61242176189E+03  0.00000000000E+00 0. -1.
         -2    1    6    6    0  503 -0.10055170074E+03 -0.69856887404E+02  0.35709400461E+03  0.37750067201E+03  0.00000000000E+00 0.  1.
<mgrwt>
<rscale>  0 0.16504902E+04</rscale>
<asrwt>0</asrwt>
<pdfrwt beam="1">  1        2 0.28700205E+00 0.16504902E+04</pdfrwt>
<pdfrwt beam="2">  1       -1 0.56163506E-01 0.16504902E+04</pdfrwt>
<totfact> 0.27696275E+01</totfact>
</mgrwt>
</event>
<event>
12    7  0.1741211E-007  0.1215129E+04  0.7818608E-02  0.9099716E-01
          2   -1    0    0  501    0  0.00000000000E+00  0.00000000000E+00  0.10748527697E+04  0.10748527697E+04  0.00000000000E+00 0. -1.
         -1   -1    0    0    0  501 -0.00000000000E+00 -0.00000000000E+00 -0.34342801643E+03  0.34342801643E+03  0.00000000000E+00 0.  1.
         24    2    1    2    0    0 -0.54712624224E+02 -0.11992402901E+03 -0.10071746300E+03  0.18388320134E+03  0.79333349843E+02 0.  0.
        254    2    1    2    0    0  0.54712624224E+02  0.11992402901E+03  0.83214221623E+03  0.12343975847E+04  0.90216488804E+03 0.  0.
         23    2    4    4    0    0  0.20163904516E+03  0.23665421362E+03 -0.49171013066E+02  0.32827625541E+03  0.93187928337E+02 0.  0.
         23    2    4    4    0    0 -0.14692642093E+03 -0.11673018461E+03  0.88131322929E+03  0.90612132933E+03  0.95548658673E+02 0.  0.
          4    1    3    3  502    0 -0.22456706369E+02 -0.54594059809E+02  0.66477594444E+00  0.59036064862E+02  0.00000000000E+00 0. -1.
         -3    1    3    3    0  502 -0.32255917855E+02 -0.65329969198E+02 -0.10138223894E+03  0.12484713647E+03  0.00000000000E+00 0.  1.
         13    1    5    5    0    0  0.16144776524E+03  0.22536711138E+03 -0.63004388824E+02  0.28429785227E+03  0.00000000000E+00 0.  1.
        -13    1    5    5    0    0  0.40191279914E+02  0.11287102232E+02  0.13833375758E+02  0.43978403141E+02  0.00000000000E+00 0. -1.
          2    1    6    6  503    0  0.86214519255E+01  0.75098947166E+01  0.53392764891E+02  0.54603253517E+02  0.00000000000E+00 0. -1.
         -2    1    6    6    0  503 -0.15554787286E+03 -0.12424007933E+03  0.82792046440E+03  0.85151807581E+03  0.00000000000E+00 0.  1.
<mgrwt>
<rscale>  0 0.12151289E+04</rscale>
<asrwt>0</asrwt>
<pdfrwt beam="1">  1        2 0.16536196E+00 0.12151289E+04</pdfrwt>
<pdfrwt beam="2">  1       -1 0.52835080E-01 0.12151289E+04</pdfrwt>
<totfact> 0.91662577E+01</totfact>
</mgrwt>
</event>
<event>
12    7  0.1741211E-007  0.1347455E+04  0.7818608E-02  0.8992757E-01
         -1   -1    0    0    0  501 -0.00000000000E+00  0.00000000000E+00  0.99361711033E+02  0.99361711033E+02  0.00000000000E+00 0.  1.
          2   -1    0    0  501    0  0.00000000000E+00 -0.00000000000E+00 -0.45682465522E+04  0.45682465522E+04  0.00000000000E+00 0. -1.
         24    2    1    2    0    0 -0.63459471862E+02  0.35654022788E+03 -0.14360994429E+04  0.14831121915E+04  0.78052059520E+02 0.  0.
        254    2    1    2    0    0  0.63459471862E+02 -0.35654022788E+03 -0.30327853983E+04  0.31844960717E+04  0.90115477046E+03 0.  0.
         23    2    4    4    0    0 -0.16168483336E+03 -0.44542245030E+03 -0.27848975719E+04  0.28264157848E+04  0.91807178051E+02 0.  0.
         23    2    4    4    0    0  0.22514430522E+03  0.88882222420E+02 -0.24788782633E+03  0.35808028692E+03  0.90460542787E+02 0.  0.
          2    1    3    3  502    0 -0.55477672159E+02  0.35003239371E+03 -0.14228951284E+04  0.14663665965E+04  0.00000000000E+00 0. -1.
         -1    1    3    3    0  502 -0.79817997032E+01  0.65078341656E+01 -0.13204314506E+02  0.16745595051E+02  0.00000000000E+00 0.  1.
         13    1    5    5    0    0 -0.68780169945E+02 -0.26420922773E+03 -0.18102057875E+04  0.18306780768E+04  0.00000000000E+00 0. -1.
        -13    1    5    5    0    0 -0.92904663415E+02 -0.18121322256E+03 -0.97469178440E+03  0.99573770798E+03  0.00000000000E+00 0.  1.
          2    1    6    6  503    0  0.10418314366E+02 -0.18095070462E+00  0.74227937294E+01  0.12793431289E+02  0.00000000000E+00 0. -1.
         -2    1    6    6    0  503  0.21472599086E+03  0.89063173125E+02 -0.25531062006E+03  0.34528685563E+03  0.00000000000E+00 0.  1.
<mgrwt>
<rscale>  0 0.13474551E+04</rscale>
<asrwt>0</asrwt>
<pdfrwt beam="1">  1        2 0.70280730E+00 0.13474551E+04</pdfrwt>
<pdfrwt beam="2">  1       -1 0.15286414E-01 0.13474551E+04</pdfrwt>
<totfact> 0.39196019E+00</totfact>
</mgrwt>
</event>
<event>
12    7  0.1741211E-007  0.3003273E+04  0.7818608E-02  0.8242797E-01
         -1   -1    0    0    0  501 -0.00000000000E+00  0.00000000000E+00  0.97964459170E+03  0.97964459170E+03  0.00000000000E+00 0.  1.
          2   -1    0    0  501    0  0.00000000000E+00 -0.00000000000E+00 -0.23017662969E+04  0.23017662969E+04  0.00000000000E+00 0. -1.
         24    2    1    2    0    0  0.12107583115E+04  0.13310172329E+03 -0.12817476165E+04  0.17699067002E+04  0.77723981300E+02 0.  0.
        254    2    1    2    0    0 -0.12107583115E+04 -0.13310172329E+03 -0.40374088726E+02  0.15115041885E+04  0.89407107492E+03 0.  0.
         23    2    4    4    0    0  0.14787333001E+02 -0.25613112443E+03 -0.46251955441E+02  0.27627874622E+03  0.91481605308E+02 0.  0.
         23    2    4    4    0    0 -0.12255456445E+04  0.12302940114E+03  0.58778667158E+01  0.12352254422E+04  0.92999911134E+02 0.  0.
          4    1    3    3  502    0  0.11661536651E+04  0.11454860142E+03 -0.12211216855E+04  0.16923870490E+04  0.00000000000E+00 0. -1.
         -3    1    3    3    0  502  0.44604646383E+02  0.18553121864E+02 -0.60625931015E+02  0.77519651194E+02  0.00000000000E+00 0.  1.
         13    1    5    5    0    0 -0.14917733605E+02 -0.72923924449E+01  0.10073506007E+02  0.19421464588E+02  0.00000000000E+00 0. -1.
        -13    1    5    5    0    0  0.29705066606E+02 -0.24883873198E+03 -0.56325461448E+02  0.25685728163E+03  0.00000000000E+00 0.  1.
          4    1    6    6  503    0 -0.88637229559E+03  0.58088362613E+02 -0.24026939681E+02  0.88859855846E+03  0.00000000000E+00 0. -1.
         -4    1    6    6    0  503 -0.33917334893E+03  0.64941038531E+02  0.29904806396E+02  0.34662688378E+03  0.00000000000E+00 0.  1.
<mgrwt>
<rscale>  0 0.30032735E+04</rscale>
<asrwt>0</asrwt>
<pdfrwt beam="1">  1        2 0.35411789E+00 0.30032735E+04</pdfrwt>
<pdfrwt beam="2">  1       -1 0.15071455E+00 0.30032735E+04</pdfrwt>
<totfact> 0.15156918E+00</totfact>
</mgrwt>
</event>
<event>
12    7  0.1741211E-007  0.3117024E+04  0.7818608E-02  0.8211081E-01
          2   -1    0    0  501    0  0.00000000000E+00  0.00000000000E+00  0.10877339450E+04  0.10877339450E+04  0.00000000000E+00 0. -1.
         -1   -1    0    0    0  501 -0.00000000000E+00 -0.00000000000E+00 -0.22330450675E+04  0.22330450675E+04  0.00000000000E+00 0.  1.
         24    2    1    2    0    0  0.88068030116E+03  0.48696638660E+03 -0.16057826058E+04  0.18968681458E+04  0.82685736565E+02 0.  0.
        254    2    1    2    0    0 -0.88068030116E+03 -0.48696638660E+03  0.46047148326E+03  0.14239108667E+04  0.89596546523E+03 0.  0.
         23    2    4    4    0    0 -0.90412123887E+03 -0.18099975413E+03  0.56844778706E+03  0.10870176148E+04  0.90985069052E+02 0.  0.
         23    2    4    4    0    0  0.23440937707E+02 -0.30596663247E+03 -0.10797630380E+03  0.33689325186E+03  0.87596365359E+02 0.  0.
          4    1    3    3  502    0  0.17938005646E+03  0.62435593730E+02 -0.29774799282E+03  0.35317032045E+03  0.00000000000E+00 0. -1.
         -3    1    3    3    0  502  0.70130024470E+03  0.42453079287E+03 -0.13080346130E+04  0.15436978254E+04  0.00000000000E+00 0.  1.
         13    1    5    5    0    0 -0.30194449067E+03 -0.44884092151E+02  0.23583725776E+03  0.38575156425E+03  0.00000000000E+00 0. -1.
        -13    1    5    5    0    0 -0.60217674820E+03 -0.13611566198E+03  0.33261052930E+03  0.70126605059E+03  0.00000000000E+00 0.  1.
          2    1    6    6  503    0  0.41424786905E+02 -0.63174300112E+02 -0.29499296536E+02  0.81100022571E+02  0.00000000000E+00 0.  1.
         -2    1    6    6    0  503 -0.17983849198E+02 -0.24279233236E+03 -0.78477007260E+02  0.25579322929E+03  0.00000000000E+00 0. -1.
<mgrwt>
<rscale>  0 0.31170235E+04</rscale>
<asrwt>0</asrwt>
<pdfrwt beam="1">  1        2 0.16734368E+00 0.31170235E+04</pdfrwt>
<pdfrwt beam="2">  1       -1 0.34354539E+00 0.31170235E+04</pdfrwt>
<totfact> 0.36707339E-01</totfact>
</mgrwt>
</event>
<event>
12    7  0.1741211E-007  0.1502552E+04  0.7818608E-02  0.8882758E-01
         -1   -1    0    0    0  501 -0.00000000000E+00  0.00000000000E+00  0.23213792151E+03  0.23213792151E+03  0.00000000000E+00 0.  1.
          2   -1    0    0  501    0  0.00000000000E+00 -0.00000000000E+00 -0.24313790669E+04  0.24313790669E+04  0.00000000000E+00 0. -1.
         24    2    1    2    0    0 -0.34715251582E+03 -0.25753970034E+03 -0.10768344306E+04  0.11626696122E+04  0.73393935471E+02 0.  0.
        254    2    1    2    0    0  0.34715251582E+03  0.25753970034E+03 -0.11224067148E+04  0.15008473762E+04  0.89772180922E+03 0.  0.
         23    2    4    4    0    0  0.47558285924E+03 -0.19095252412E+03 -0.55624824602E+03  0.76186438217E+03  0.91560379835E+02 0.  0.
         23    2    4    4    0    0 -0.12843034342E+03  0.44849222446E+03 -0.56615846878E+03  0.73898299403E+03  0.88999017935E+02 0.  0.
          4    1    3    3  502    0 -0.14581125200E+03 -0.89290606369E+02 -0.51371741775E+03  0.54142341924E+03  0.00000000000E+00 0. -1.
         -3    1    3    3    0  502 -0.20134126382E+03 -0.16824909398E+03 -0.56311701286E+03  0.62124619300E+03  0.00000000000E+00 0.  1.
         13    1    5    5    0    0  0.65669831306E+02 -0.53583401248E+02 -0.12665345691E+03  0.15239686932E+03  0.00000000000E+00 0. -1.
        -13    1    5    5    0    0  0.40991302793E+03 -0.13736912287E+03 -0.42959478912E+03  0.60946751285E+03  0.00000000000E+00 0.  1.
          4    1    6    6  503    0 -0.89319145011E+02  0.22189204151E+03 -0.23102849896E+03  0.33254797410E+03  0.00000000000E+00 0. -1.
         -4    1    6    6    0  503 -0.39111198406E+02  0.22660018295E+03 -0.33512996982E+03  0.40643501993E+03  0.00000000000E+00 0.  1.
<mgrwt>
<rscale>  0 0.15025515E+04</rscale>
<asrwt>0</asrwt>
<pdfrwt beam="1">  1        2 0.37405829E+00 0.15025515E+04</pdfrwt>
<pdfrwt beam="2">  1       -1 0.35713529E-01 0.15025515E+04</pdfrwt>
<totfact> 0.31471855E+01</totfact>
</mgrwt>
</event>
<event>
12    7  0.1741211E-007  0.1803602E+04  0.7818608E-02  0.8704386E-01
         -1   -1    0    0    0  501 -0.00000000000E+00  0.00000000000E+00  0.35197757425E+03  0.35197757425E+03  0.00000000000E+00 0.  1.
          2   -1    0    0  501    0  0.00000000000E+00 -0.00000000000E+00 -0.23105027900E+04  0.23105027900E+04  0.00000000000E+00 0. -1.
         24    2    1    2    0    0  0.57645712466E+03  0.37517809380E+03 -0.77990262348E+03  0.10432487954E+04  0.84015048537E+02 0.  0.
        254    2    1    2    0    0 -0.57645712466E+03 -0.37517809380E+03 -0.11786225923E+04  0.16192315689E+04  0.87160670026E+03 0.  0.
         23    2    4    4    0    0  0.53401833745E+02  0.16743070876E+03 -0.35622277241E+02  0.20254307637E+03  0.94180428258E+02 0.  0.
         23    2    4    4    0    0 -0.62985895840E+03 -0.54260880256E+03 -0.11430003151E+04  0.14166884925E+04  0.97004868409E+02 0.  0.
          4    1    3    3  502    0  0.85121215682E+02  0.85007459386E+02 -0.10725768100E+03  0.16117102607E+03  0.00000000000E+00 0. -1.
         -3    1    3    3    0  502  0.49133590898E+03  0.29017063441E+03 -0.67264494248E+03  0.88207776935E+03  0.00000000000E+00 0.  1.
         13    1    5    5    0    0  0.21077148240E+02  0.14070316013E+03  0.73909584830E+01  0.14246491398E+03  0.00000000000E+00 0.  1.
        -13    1    5    5    0    0  0.32324685506E+02  0.26727548631E+02 -0.43013235724E+02  0.60078162391E+02  0.00000000000E+00 0. -1.
          1    1    6    6  503    0 -0.87858983162E+02 -0.52245264587E+02 -0.99304191398E+02  0.14251347664E+03  0.00000000000E+00 0. -1.
         -1    1    6    6    0  503 -0.54199997524E+03 -0.49036353797E+03 -0.10436961237E+04  0.12741750159E+04  0.00000000000E+00 0.  1.
<mgrwt>
<rscale>  0 0.18036021E+04</rscale>
<asrwt>0</asrwt>
<pdfrwt beam="1">  1        2 0.35546198E+00 0.18036021E+04</pdfrwt>
<pdfrwt beam="2">  1       -1 0.54150395E-01 0.18036021E+04</pdfrwt>
<totfact> 0.16557634E+01</totfact>
</mgrwt>
</event>
<event>
12    7  0.1741211E-007  0.1489861E+04  0.7818608E-02  0.8891223E-01
         -1   -1    0    0    0  501 -0.00000000000E+00  0.00000000000E+00  0.16563207964E+03  0.16563207964E+03  0.00000000000E+00 0.  1.
          2   -1    0    0  501    0  0.00000000000E+00 -0.00000000000E+00 -0.33503276231E+04  0.33503276231E+04  0.00000000000E+00 0. -1.
         24    2    1    2    0    0  0.23273216319E+02  0.45094666717E+03 -0.81357254395E+03  0.93390456864E+03  0.79893177573E+02 0.  0.
        254    2    1    2    0    0 -0.23273216319E+02 -0.45094666717E+03 -0.23711229995E+04  0.25820551341E+04  0.91700048940E+03 0.  0.
         23    2    4    4    0    0 -0.33569166462E+03  0.11228851744E+02 -0.39298359004E+03  0.52475551166E+03  0.90095860998E+02 0.  0.
         23    2    4    4    0    0  0.31241844830E+03 -0.46217551891E+03 -0.19781394094E+04  0.20572996224E+04  0.90745336697E+02 0.  0.
          2    1    3    3  502    0 -0.15878815480E+02  0.20332645124E+03 -0.42626387234E+03  0.47254065584E+03  0.00000000000E+00 0. -1.
         -1    1    3    3    0  502  0.39152031799E+02  0.24762021593E+03 -0.38730867161E+03  0.46136391280E+03  0.00000000000E+00 0.  1.
         13    1    5    5    0    0 -0.13790875836E+03  0.14858329533E+02 -0.22934899869E+03  0.26803089148E+03  0.00000000000E+00 0.  1.
        -13    1    5    5    0    0 -0.19778290626E+03 -0.36294777893E+01 -0.16363459135E+03  0.25672462017E+03  0.00000000000E+00 0. -1.
          4    1    6    6  503    0  0.49287982579E+02 -0.86666177934E+02 -0.24445854564E+03  0.26400816685E+03  0.00000000000E+00 0.  1.
         -4    1    6    6    0  503  0.26313046572E+03 -0.37550934098E+03 -0.17336808638E+04  0.17932914556E+04  0.00000000000E+00 0. -1.
<mgrwt>
<rscale>  0 0.14898614E+04</rscale>
<asrwt>0</asrwt>
<pdfrwt beam="1">  1        2 0.51543497E+00 0.14898614E+04</pdfrwt>
<pdfrwt beam="2">  1       -1 0.25481861E-01 0.14898614E+04</pdfrwt>
<totfact> 0.15567105E+01</totfact>
</mgrwt>
</event>
<event>
12    7  0.1741211E-007  0.1706547E+04  0.7818608E-02  0.8757639E-01
         -1   -1    0    0    0  501 -0.00000000000E+00  0.00000000000E+00  0.80180533781E+03  0.80180533781E+03  0.00000000000E+00 0.  1.
          2   -1    0    0  501    0  0.00000000000E+00 -0.00000000000E+00 -0.90804555909E+03  0.90804555909E+03  0.00000000000E+00 0. -1.
         24    2    1    2    0    0  0.82021671202E+02  0.29153002873E+03  0.50028466981E+03  0.59022562411E+03  0.79776088612E+02 0.  0.
        254    2    1    2    0    0 -0.82021671202E+02 -0.29153002873E+03 -0.60652489109E+03  0.11196252728E+04  0.89105050125E+03 0.  0.
         23    2    4    4    0    0 -0.15433223833E+03 -0.71787435537E+02  0.19744826512E+03  0.27770096415E+03  0.95708580605E+02 0.  0.
         23    2    4    4    0    0  0.72310567123E+02 -0.21974259320E+03 -0.80397315621E+03  0.84192430865E+03  0.94594292703E+02 0.  0.
          2    1    3    3  502    0  0.20978164528E+02  0.29092352311E+02  0.11205972081E+03  0.11765980358E+03  0.00000000000E+00 0. -1.
         -1    1    3    3    0  502  0.61043506674E+02  0.26243767642E+03  0.38822494899E+03  0.47256582053E+03  0.00000000000E+00 0.  1.
         13    1    5    5    0    0 -0.32249775994E+02  0.20584330354E+02  0.64238757347E+02  0.74768848148E+02  0.00000000000E+00 0. -1.
        -13    1    5    5    0    0 -0.12208246233E+03 -0.92371765891E+02  0.13320950777E+03  0.20293211600E+03  0.00000000000E+00 0.  1.
          4    1    6    6  503    0  0.54282522535E+02 -0.22284174961E+03 -0.70801138875E+03  0.74423461639E+03  0.00000000000E+00 0. -1.
         -4    1    6    6    0  503  0.18028044588E+02  0.30991564100E+01 -0.95961767452E+02  0.97689692264E+02  0.00000000000E+00 0.  1.
<mgrwt>
<rscale>  0 0.17065471E+04</rscale>
<asrwt>0</asrwt>
<pdfrwt beam="1">  1        2 0.13969932E+00 0.17065471E+04</pdfrwt>
<pdfrwt beam="2">  1       -1 0.12335467E+00 0.17065471E+04</pdfrwt>
<totfact> 0.18180486E+01</totfact>
</mgrwt>
</event>
<event>
12    7  0.1741211E-007  0.1888277E+04  0.7818608E-02  0.8660714E-01
         -1   -1    0    0    0  501 -0.00000000000E+00  0.00000000000E+00  0.13993712459E+04  0.13993712459E+04  0.00000000000E+00 0.  1.
          2   -1    0    0  501    0  0.00000000000E+00 -0.00000000000E+00 -0.63699864570E+03  0.63699864570E+03  0.00000000000E+00 0. -1.
         24    2    1    2    0    0 -0.15723033515E+03 -0.60074279589E+03  0.69391249406E+03  0.93524537493E+03  0.86925697051E+02 0.  0.
        254    2    1    2    0    0  0.15723033515E+03  0.60074279589E+03  0.68460106153E+02  0.11011245167E+04  0.90673873304E+03 0.  0.
         23    2    4    4    0    0 -0.43248698140E+02 -0.43333986628E+02 -0.30349605287E+03  0.32406431348E+03  0.95705490318E+02 0.  0.
         23    2    4    4    0    0  0.20047903329E+03  0.64407678252E+03  0.37195615902E+03  0.77706020320E+03  0.10219799701E+03 0.  0.
          4    1    3    3  502    0 -0.12474032014E+03 -0.38696488987E+03  0.50321004487E+03  0.64693301254E+03  0.00000000000E+00 0. -1.
         -3    1    3    3    0  502 -0.32490015014E+02 -0.21377790602E+03  0.19070244920E+03  0.28831236239E+03  0.00000000000E+00 0.  1.
         13    1    5    5    0    0 -0.47605636890E+02  0.12074410677E+02 -0.20662228330E+03  0.21237903855E+03  0.00000000000E+00 0.  1.
        -13    1    5    5    0    0  0.43569387503E+01 -0.55408397304E+02 -0.96873769565E+02  0.11168527493E+03  0.00000000000E+00 0. -1.
          4    1    6    6  503    0  0.10076943363E+03  0.17157850024E+03  0.12023517112E+03  0.23248689613E+03  0.00000000000E+00 0. -1.
         -4    1    6    6    0  503  0.99709599664E+02  0.47249828229E+03  0.25172098790E+03  0.54457330707E+03  0.00000000000E+00 0.  1.
<mgrwt>
<rscale>  0 0.18882771E+04</rscale>
<asrwt>0</asrwt>
<pdfrwt beam="1">  1        2 0.97999792E-01 0.18882771E+04</pdfrwt>
<pdfrwt beam="2">  1       -1 0.21528788E+00 0.18882771E+04</pdfrwt>
<totfact> 0.58413510E+00</totfact>
</mgrwt>
</event>
<event>
12    7  0.1741211E-007  0.1668379E+04  0.7818608E-02  0.8779607E-01
          2   -1    0    0  501    0  0.00000000000E+00  0.00000000000E+00  0.83799293320E+03  0.83799293320E+03  0.00000000000E+00 0. -1.
         -1   -1    0    0    0  501 -0.00000000000E+00 -0.00000000000E+00 -0.83040324337E+03  0.83040324337E+03  0.00000000000E+00 0.  1.
         24    2    1    2    0    0  0.16763174842E+01 -0.58577316960E+03  0.84966433418E+02  0.59720884165E+03  0.79410890142E+02 0.  0.
        254    2    1    2    0    0 -0.16763174842E+01  0.58577316960E+03 -0.77376743589E+02  0.10711873349E+04  0.89348874072E+03 0.  0.
         23    2    4    4    0    0 -0.18677815180E+03  0.68284371091E+03  0.17182371440E+03  0.73359515548E+03  0.86468790852E+02 0.  0.
         23    2    4    4    0    0  0.18510183431E+03 -0.97070541311E+02 -0.24920045799E+03  0.33759217945E+03  0.90455692499E+02 0.  0.
          4    1    3    3  502    0  0.22193203743E+02 -0.20184559292E+03 -0.17761265256E+01  0.20306978184E+03  0.00000000000E+00 0. -1.
         -3    1    3    3    0  502 -0.20516886259E+02 -0.38392757668E+03  0.86742559943E+02  0.39413905980E+03  0.00000000000E+00 0.  1.
         13    1    5    5    0    0 -0.10969836882E+03  0.25665491876E+03  0.86064633779E+02  0.29208320841E+03  0.00000000000E+00 0.  1.
        -13    1    5    5    0    0 -0.77079782978E+02  0.42618879214E+03  0.85759080625E+02  0.44151194707E+03  0.00000000000E+00 0. -1.
          1    1    6    6  503    0  0.17260434557E+03 -0.11167903572E+03 -0.24077420103E+03  0.31660177354E+03  0.00000000000E+00 0. -1.
         -1    1    6    6    0  503  0.12497488745E+02  0.14608494409E+02 -0.84262569662E+01  0.20990405910E+02  0.00000000000E+00 0.  1.
<mgrwt>
<rscale>  0 0.16683789E+04</rscale>
<asrwt>0</asrwt>
<pdfrwt beam="1">  1        2 0.12892199E+00 0.16683789E+04</pdfrwt>
<pdfrwt beam="2">  1       -1 0.12775434E+00 0.16683789E+04</pdfrwt>
<totfact> 0.18675714E+01</totfact>
</mgrwt>
</event>
<event>
12    7  0.1741211E-007  0.1983508E+04  0.7818608E-02  0.8614370E-01
         -1   -1    0    0    0  501 -0.00000000000E+00  0.00000000000E+00  0.71302110847E+03  0.71302110847E+03  0.00000000000E+00 0.  1.
          2   -1    0    0  501    0  0.00000000000E+00 -0.00000000000E+00 -0.13794490225E+04  0.13794490225E+04  0.00000000000E+00 0. -1.
         24    2    1    2    0    0 -0.39566933209E+01  0.77849868129E+03 -0.35818274107E+03  0.86069644591E+03  0.80172587645E+02 0.  0.
        254    2    1    2    0    0  0.39566933209E+01 -0.77849868129E+03 -0.30824517295E+03  0.12317736851E+04  0.90342430362E+03 0.  0.
         23    2    4    4    0    0 -0.13194295963E+03 -0.42395756653E+03 -0.59463251551E+03  0.74762662618E+03  0.90602322547E+02 0.  0.
         23    2    4    4    0    0  0.13589965295E+03 -0.35454111476E+03  0.28638734256E+03  0.48414705888E+03  0.90623103697E+02 0.  0.
          2    1    3    3  502    0  0.13991317406E+02  0.69161653579E+02 -0.53174565214E+02  0.88355111194E+02  0.00000000000E+00 0. -1.
         -1    1    3    3    0  502 -0.17948010727E+02  0.70933702771E+03 -0.30500817585E+03  0.77234133471E+03  0.00000000000E+00 0.  1.
         13    1    5    5    0    0 -0.12148597492E+03 -0.31255332442E+03 -0.38952199813E+03  0.51398035929E+03  0.00000000000E+00 0. -1.
        -13    1    5    5    0    0 -0.10456984708E+02 -0.11140424211E+03 -0.20511051739E+03  0.23364626689E+03  0.00000000000E+00 0.  1.
          4    1    6    6  503    0  0.11779028443E+03 -0.18163138303E+03  0.16138774657E+03  0.27001947180E+03  0.00000000000E+00 0. -1.
         -4    1    6    6    0  503  0.18109368521E+02 -0.17290973173E+03  0.12499959598E+03  0.21412758709E+03  0.00000000000E+00 0.  1.
<mgrwt>
<rscale>  0 0.19835083E+04</rscale>
<asrwt>0</asrwt>
<pdfrwt beam="1">  1        2 0.21222292E+00 0.19835083E+04</pdfrwt>
<pdfrwt beam="2">  1       -1 0.10969556E+00 0.19835083E+04</pdfrwt>
<totfact> 0.12111279E+01</totfact>
</mgrwt>
</event>
<event>
12    7  0.1741211E-007  0.3234889E+04  0.7818608E-02  0.8179663E-01
         -1   -1    0    0    0  501 -0.00000000000E+00  0.00000000000E+00  0.12677336326E+04  0.12677336326E+04  0.00000000000E+00 0.  1.
          2   -1    0    0  501    0  0.00000000000E+00 -0.00000000000E+00 -0.20636254223E+04  0.20636254223E+04  0.00000000000E+00 0. -1.
         24    2    1    2    0    0 -0.99574421934E+03  0.89165416230E+03  0.30143017705E+03  0.13725258984E+04  0.80084297823E+02 0.  0.
        254    2    1    2    0    0  0.99574421934E+03 -0.89165416230E+03 -0.10973219668E+04  0.19588331565E+04  0.91997725015E+03 0.  0.
         23    2    4    4    0    0  0.73071858220E+03 -0.15245339423E+03 -0.23404848480E+03  0.78744037382E+03  0.89955351702E+02 0.  0.
         23    2    4    4    0    0  0.26502563714E+03 -0.73920076807E+03 -0.86327348197E+03  0.11713927827E+04  0.10130934218E+03 0.  0.
          4    1    3    3  502    0 -0.18333211221E+03  0.14141769907E+03  0.26663546678E+02  0.23306774487E+03  0.00000000000E+00 0. -1.
         -3    1    3    3    0  502 -0.81241210713E+03  0.75023646324E+03  0.27476663037E+03  0.11394581536E+04  0.00000000000E+00 0.  1.
         13    1    5    5    0    0  0.60221241632E+03 -0.10288550970E+03 -0.16225132404E+03  0.63211606105E+03  0.00000000000E+00 0. -1.
        -13    1    5    5    0    0  0.12850616588E+03 -0.49567884536E+02 -0.71797160761E+02  0.15532431278E+03  0.00000000000E+00 0.  1.
          2    1    6    6  503    0  0.24183268583E+03 -0.61275398241E+03 -0.67283942150E+03  0.94162804653E+03  0.00000000000E+00 0. -1.
         -2    1    6    6    0  503  0.23192951312E+02 -0.12644678566E+03 -0.19043406047E+03  0.22976473616E+03  0.00000000000E+00 0.  1.
<mgrwt>
<rscale>  0 0.32348894E+04</rscale>
<asrwt>0</asrwt>
<pdfrwt beam="1">  1        2 0.31748083E+00 0.32348894E+04</pdfrwt>
<pdfrwt beam="2">  1       -1 0.19503594E+00 0.32348894E+04</pdfrwt>
<totfact> 0.95797930E-01</totfact>
</mgrwt>
</event>
<event>
12    7  0.1741211E-007  0.1872260E+04  0.7818608E-02  0.8668789E-01
          2   -1    0    0  501    0  0.00000000000E+00  0.00000000000E+00  0.13104264732E+04  0.13104264732E+04  0.00000000000E+00 0. -1.
         -1   -1    0    0    0  501 -0.00000000000E+00 -0.00000000000E+00 -0.66874384008E+03  0.66874384008E+03  0.00000000000E+00 0.  1.
         24    2    1    2    0    0  0.55509848562E+02 -0.36873484946E+03  0.84597631948E+03  0.92821762665E+03  0.82857086633E+02 0.  0.
        254    2    1    2    0    0 -0.55509848562E+02  0.36873484946E+03 -0.20429368633E+03  0.10509526867E+04  0.96110296369E+03 0.  0.
         23    2    4    4    0    0 -0.47013349121E+03  0.32257007908E+03  0.50300258025E-01  0.57729474605E+03  0.90511136380E+02 0.  0.
         23    2    4    4    0    0  0.41462364265E+03  0.46164770382E+02 -0.20434398658E+03  0.47365794061E+03  0.92473935676E+02 0.  0.
          4    1    3    3  502    0  0.55207904978E+02 -0.34022486072E+03  0.82060312488E+03  0.89005076101E+03  0.00000000000E+00 0. -1.
         -3    1    3    3    0  502  0.30194358378E+00 -0.28509988742E+02  0.25373194602E+02  0.38166865634E+02  0.00000000000E+00 0.  1.
         13    1    5    5    0    0 -0.45920524946E+03  0.31656714525E+03  0.14844985194E+02  0.55794676464E+03  0.00000000000E+00 0.  1.
        -13    1    5    5    0    0 -0.10928241751E+02  0.60029338293E+01 -0.14794684936E+02  0.19347981411E+02  0.00000000000E+00 0. -1.
          4    1    6    6  503    0  0.15871119862E+03 -0.25803938163E+02 -0.90012973668E+02  0.18427540048E+03  0.00000000000E+00 0.  1.
         -4    1    6    6    0  503  0.25591244403E+03  0.71968708544E+02 -0.11433101292E+03  0.28938254013E+03  0.00000000000E+00 0. -1.
<mgrwt>
<rscale>  0 0.18722603E+04</rscale>
<asrwt>0</asrwt>
<pdfrwt beam="1">  1        2 0.20160407E+00 0.18722603E+04</pdfrwt>
<pdfrwt beam="2">  1       -1 0.10288367E+00 0.18722603E+04</pdfrwt>
<totfact> 0.15570631E+01</totfact>
</mgrwt>
</event>
<event>
12    7  0.1741211E-007  0.2009773E+04  0.7818608E-02  0.8602065E-01
          2   -1    0    0  501    0  0.00000000000E+00  0.00000000000E+00  0.56743245985E+03  0.56743245985E+03  0.00000000000E+00 0. -1.
         -1   -1    0    0    0  501 -0.00000000000E+00 -0.00000000000E+00 -0.17795890705E+04  0.17795890705E+04  0.00000000000E+00 0.  1.
         24    2    1    2    0    0  0.64982283536E+03  0.14933222641E+02 -0.10562288506E+04  0.12427246999E+04  0.79073234543E+02 0.  0.
        254    2    1    2    0    0 -0.64982283536E+03 -0.14933222641E+02 -0.15592775997E+03  0.11042968304E+04  0.87901382511E+03 0.  0.
         23    2    4    4    0    0 -0.47389287739E+03 -0.14874429690E+03 -0.48342877440E+03  0.69850369796E+03  0.86629735336E+02 0.  0.
         23    2    4    4    0    0 -0.17592995797E+03  0.13381107426E+03  0.32750101443E+03  0.40579313240E+03  0.92489989429E+02 0.  0.
          4    1    3    3  502    0  0.35076493249E+03  0.35588285243E+02 -0.51700566777E+03  0.62577745598E+03  0.00000000000E+00 0. -1.
         -3    1    3    3    0  502  0.29905790287E+03 -0.20655062602E+02 -0.53922318286E+03  0.61694724395E+03  0.00000000000E+00 0.  1.
         13    1    5    5    0    0 -0.14276297383E+02  0.76158974492E+01 -0.30595700252E+02  0.34610857182E+02  0.00000000000E+00 0. -1.
        -13    1    5    5    0    0 -0.45961658000E+03 -0.15636019435E+03 -0.45283307415E+03  0.66389284078E+03  0.00000000000E+00 0.  1.
          2    1    6    6  503    0 -0.62427017806E+02  0.93514497696E+02  0.11072487061E+03  0.15780396320E+03  0.00000000000E+00 0.  1.
         -2    1    6    6    0  503 -0.11350294017E+03  0.40296576563E+02  0.21677614382E+03  0.24798916920E+03  0.00000000000E+00 0. -1.
<mgrwt>
<rscale>  0 0.20097727E+04</rscale>
<asrwt>0</asrwt>
<pdfrwt beam="1">  1        2 0.87297302E-01 0.20097727E+04</pdfrwt>
<pdfrwt beam="2">  1       -1 0.27378293E+00 0.20097727E+04</pdfrwt>
<totfact> 0.27468001E+00</totfact>
</mgrwt>
</event>
<event>
12    7  0.1741211E-007  0.1350422E+04  0.7818608E-02  0.8990509E-01
          2   -1    0    0  501    0  0.00000000000E+00  0.00000000000E+00  0.76796567781E+03  0.76796567781E+03  0.00000000000E+00 0. -1.
         -1   -1    0    0    0  501 -0.00000000000E+00 -0.00000000000E+00 -0.59365894713E+03  0.59365894713E+03  0.00000000000E+00 0.  1.
         24    2    1    2    0    0 -0.87013319536E+02 -0.16101933940E+03 -0.28217206754E+03  0.34589590883E+03  0.80773501907E+02 0.  0.
        254    2    1    2    0    0  0.87013319536E+02  0.16101933940E+03  0.45647879821E+03  0.10157287161E+04  0.88872570913E+03 0.  0.
         23    2    4    4    0    0 -0.34569911196E+02 -0.26030827585E+02 -0.25002411404E+03  0.26962402992E+03  0.91172238983E+02 0.  0.
         23    2    4    4    0    0  0.12158323073E+03  0.18705016698E+03  0.70650291226E+03  0.74610468619E+03  0.88065831973E+02 0.  0.
          4    1    3    3  502    0 -0.63262110112E+01  0.43028118156E+01 -0.45490309627E+02  0.46129203388E+02  0.00000000000E+00 0. -1.
         -3    1    3    3    0  502 -0.80687108525E+02 -0.16532215121E+03 -0.23668175791E+03  0.29976670545E+03  0.00000000000E+00 0.  1.
         13    1    5    5    0    0 -0.31427208253E+02 -0.27780801802E+02 -0.35168078191E+02  0.54737885335E+02  0.00000000000E+00 0. -1.
        -13    1    5    5    0    0 -0.31427029429E+01  0.17499742163E+01 -0.21485603585E+03  0.21488614458E+03  0.00000000000E+00 0.  1.
          1    1    6    6  503    0  0.11154265180E+02  0.96194913434E+02  0.28767088894E+03  0.30353322609E+03  0.00000000000E+00 0. -1.
         -1    1    6    6    0  503  0.11042896555E+03  0.90855253550E+02  0.41883202332E+03  0.44257146009E+03  0.00000000000E+00 0.  1.
<mgrwt>
<rscale>  0 0.13504217E+04</rscale>
<asrwt>0</asrwt>
<pdfrwt beam="1">  1        2 0.11814857E+00 0.13504217E+04</pdfrwt>
<pdfrwt beam="2">  1       -1 0.91332146E-01 0.13504217E+04</pdfrwt>
<totfact> 0.47436582E+01</totfact>
</mgrwt>
</event>
<event>
12    7  0.1741211E-007  0.2285635E+04  0.7818608E-02  0.8483607E-01
         -1   -1    0    0    0  501 -0.00000000000E+00  0.00000000000E+00  0.62270834631E+03  0.62270834631E+03  0.00000000000E+00 0.  1.
          2   -1    0    0  501    0  0.00000000000E+00 -0.00000000000E+00 -0.20973415905E+04  0.20973415905E+04  0.00000000000E+00 0. -1.
         24    2    1    2    0    0  0.89337506568E+03 -0.14230291524E+03 -0.10253926601E+04  0.13698358776E+04  0.81554254223E+02 0.  0.
        254    2    1    2    0    0 -0.89337506568E+03  0.14230291524E+03 -0.44924058400E+03  0.13502140592E+04  0.89604228449E+03 0.  0.
         23    2    4    4    0    0 -0.44631992249E+03  0.47447410561E+03 -0.52094200456E+02  0.65997718199E+03  0.92352178757E+02 0.  0.
         23    2    4    4    0    0 -0.44705514319E+03 -0.33217119037E+03 -0.39714638354E+03  0.69023687718E+03  0.92226329719E+02 0.  0.
          2    1    3    3  502    0  0.83306637294E+03 -0.14418508931E+03 -0.98024738311E+03  0.12944782168E+04  0.00000000000E+00 0. -1.
         -1    1    3    3    0  502  0.60308692745E+02  0.18821740699E+01 -0.45145277041E+02  0.75357660784E+02  0.00000000000E+00 0.  1.
         13    1    5    5    0    0 -0.24401281138E+03  0.32076635262E+03 -0.15967259588E+02  0.40334632572E+03  0.00000000000E+00 0. -1.
        -13    1    5    5    0    0 -0.20230711111E+03  0.15370775299E+03 -0.36126940869E+02  0.25663085627E+03  0.00000000000E+00 0.  1.
          3    1    6    6  503    0 -0.34778328765E+03 -0.22188390037E+03 -0.25642631826E+03  0.48573669525E+03  0.00000000000E+00 0. -1.
         -3    1    6    6    0  503 -0.99271855538E+02 -0.11028729000E+03 -0.14072006528E+03  0.20450018193E+03  0.00000000000E+00 0.  1.
<mgrwt>
<rscale>  0 0.22856352E+04</rscale>
<asrwt>0</asrwt>
<pdfrwt beam="1">  1        2 0.32266794E+00 0.22856352E+04</pdfrwt>
<pdfrwt beam="2">  1       -1 0.95801284E-01 0.22856352E+04</pdfrwt>
<totfact> 0.63984267E+00</totfact>
</mgrwt>
</event>
<event>
12    7  0.1741211E-007  0.1423810E+04  0.7818608E-02  0.8936762E-01
         -3   -1    0    0    0  501 -0.00000000000E+00  0.00000000000E+00  0.45912817456E+04  0.45912817456E+04  0.00000000000E+00 0.  1.
          4   -1    0    0  501    0  0.00000000000E+00 -0.00000000000E+00 -0.11038496868E+03  0.11038496868E+03  0.00000000000E+00 0. -1.
         24    2    1    2    0    0  0.16382003754E+03  0.34334125036E+03  0.75963113485E+03  0.85311291520E+03  0.77730085313E+02 0.  0.
        254    2    1    2    0    0 -0.16382003754E+03 -0.34334125036E+03  0.37212656421E+04  0.38485537991E+04  0.90489123473E+03 0.  0.
         23    2    4    4    0    0 -0.52502724188E+03 -0.21655407557E+03  0.18887454903E+04  0.19742231289E+04  0.87453777248E+02 0.  0.
         23    2    4    4    0    0  0.36120720435E+03 -0.12678717479E+03  0.18325201519E+04  0.18743306703E+04  0.91867961843E+02 0.  0.
          2    1    3    3  502    0  0.93231622258E+02  0.24447059866E+03  0.57969614667E+03  0.63600757186E+03  0.00000000000E+00 0. -1.
         -1    1    3    3    0  502  0.70588415278E+02  0.98870651697E+02  0.17993498818E+03  0.21710534335E+03  0.00000000000E+00 0.  1.
         13    1    5    5    0    0 -0.35416406139E+03 -0.13465601926E+03  0.13893917661E+04  0.14401298225E+04  0.00000000000E+00 0. -1.
        -13    1    5    5    0    0 -0.17086318050E+03 -0.81898056305E+02  0.49935372418E+03  0.53409330639E+03  0.00000000000E+00 0.  1.
          3    1    6    6  503    0  0.20011452550E+03 -0.42882299024E+02  0.78841393536E+03  0.81454358284E+03  0.00000000000E+00 0. -1.
         -3    1    6    6    0  503  0.16109267884E+03 -0.83904875767E+02  0.10441062165E+04  0.10597870874E+04  0.00000000000E+00 0.  1.
<mgrwt>
<rscale>  0 0.14238097E+04</rscale>
<asrwt>0</asrwt>
<pdfrwt beam="1">  1        4 0.16982306E-01 0.14238097E+04</pdfrwt>
<pdfrwt beam="2">  1       -3 0.70635089E+00 0.14238097E+04</pdfrwt>
<totfact> 0.15691777E-02</totfact>
</mgrwt>
</event>
<event>
12    7  0.1741211E-007  0.2157743E+04  0.7818608E-02  0.8536225E-01
         -1   -1    0    0    0  501 -0.00000000000E+00  0.00000000000E+00  0.14791110954E+04  0.14791110954E+04  0.00000000000E+00 0.  1.
          2   -1    0    0  501    0  0.00000000000E+00 -0.00000000000E+00 -0.78693495158E+03  0.78693495158E+03  0.00000000000E+00 0. -1.
         24    2    1    2    0    0  0.55610960794E+03  0.66043312663E+03  0.69688235589E+02  0.87023193096E+03  0.83769640608E+02 0.  0.
        254    2    1    2    0    0 -0.55610960794E+03 -0.66043312663E+03  0.62248790826E+03  0.13958141161E+04  0.90298174946E+03 0.  0.
         23    2    4    4    0    0 -0.53218714048E+03 -0.22682053824E+03  0.73342005656E+03  0.93840929773E+03  0.89645533347E+02 0.  0.
         23    2    4    4    0    0 -0.23922467464E+02 -0.43361258839E+03 -0.11093214830E+03  0.45740481833E+03  0.91219871979E+02 0.  0.
          4    1    3    3  502    0  0.68787972830E+02  0.11204524841E+03 -0.12229553795E+02  0.13204349618E+03  0.00000000000E+00 0. -1.
         -3    1    3    3    0  502  0.48732163511E+03  0.54838787823E+03  0.81917789385E+02  0.73818843478E+03  0.00000000000E+00 0.  1.
         13    1    5    5    0    0 -0.36802879362E+01 -0.71055277607E+01  0.32586840719E+02  0.33554958384E+02  0.00000000000E+00 0. -1.
        -13    1    5    5    0    0 -0.52850685254E+03 -0.21971501048E+03  0.70083321584E+03  0.90485433935E+03  0.00000000000E+00 0.  1.
          2    1    6    6  503    0 -0.56743722765E+02 -0.25303689035E+03 -0.79213169840E+02  0.27114985567E+03  0.00000000000E+00 0. -1.
         -2    1    6    6    0  503  0.32821255301E+02 -0.18057569803E+03 -0.31718978459E+02  0.18625496266E+03  0.00000000000E+00 0.  1.
<mgrwt>
<rscale>  0 0.21577435E+04</rscale>
<asrwt>0</asrwt>
<pdfrwt beam="1">  1        2 0.12106692E+00 0.21577435E+04</pdfrwt>
<pdfrwt beam="2">  1       -1 0.22755555E+00 0.21577435E+04</pdfrwt>
<totfact> 0.36103961E+00</totfact>
</mgrwt>
</event>
<event>
12    7  0.1741211E-007  0.1504240E+04  0.7818608E-02  0.8881638E-01
         -1   -1    0    0    0  501 -0.00000000000E+00  0.00000000000E+00  0.26628049691E+03  0.26628049691E+03  0.00000000000E+00 0.  1.
          2   -1    0    0  501    0  0.00000000000E+00 -0.00000000000E+00 -0.21243930005E+04  0.21243930005E+04  0.00000000000E+00 0. -1.
         24    2    1    2    0    0  0.59435696866E+02 -0.14320351739E+03  0.12105067940E+03  0.21240280373E+03  0.80136350011E+02 0.  0.
        254    2    1    2    0    0 -0.59435696866E+02  0.14320351739E+03 -0.19791631830E+04  0.21782706937E+04  0.89651350275E+03 0.  0.
         23    2    4    4    0    0 -0.78649313389E+02 -0.14269443579E+03 -0.11361750392E+02  0.18772255820E+03  0.92537846229E+02 0.  0.
         23    2    4    4    0    0  0.19213616524E+02  0.28589795318E+03 -0.19678014326E+04  0.19905481355E+04  0.89065138360E+02 0.  0.
          2    1    3    3  502    0 -0.10267337213E+02 -0.87900187096E+01 -0.59619923618E+01  0.14772541937E+02  0.00000000000E+00 0. -1.
         -1    1    3    3    0  502  0.69703034079E+02 -0.13441349869E+03  0.12701267176E+03  0.19763026179E+03  0.00000000000E+00 0.  1.
         13    1    5    5    0    0 -0.64358731866E+02 -0.35917167928E+02 -0.27750206352E+02  0.78753814333E+02  0.00000000000E+00 0. -1.
        -13    1    5    5    0    0 -0.14290581523E+02 -0.10677726786E+03  0.16388455960E+02  0.10896874387E+03  0.00000000000E+00 0.  1.
          2    1    6    6  503    0  0.40131787148E+02  0.97938809457E+02 -0.89108969530E+03  0.89735356232E+03  0.00000000000E+00 0. -1.
         -2    1    6    6    0  503 -0.20918170624E+02  0.18795914372E+03 -0.10767117373E+04  0.10931945731E+04  0.00000000000E+00 0.  1.
<mgrwt>
<rscale>  0 0.15042399E+04</rscale>
<asrwt>0</asrwt>
<pdfrwt beam="1">  1        2 0.32682970E+00 0.15042399E+04</pdfrwt>
<pdfrwt beam="2">  1       -1 0.40966229E-01 0.15042399E+04</pdfrwt>
<totfact> 0.36546677E+01</totfact>
</mgrwt>
</event>
<event>
12    7  0.1741211E-007  0.1410424E+04  0.7818608E-02  0.8946308E-01
         -1   -1    0    0    0  501 -0.00000000000E+00  0.00000000000E+00  0.52734852112E+03  0.52734852112E+03  0.00000000000E+00 0.  1.
          2   -1    0    0  501    0  0.00000000000E+00 -0.00000000000E+00 -0.94306478213E+03  0.94306478213E+03  0.00000000000E+00 0. -1.
         24    2    1    2    0    0  0.51776358555E+02  0.40519739138E+03 -0.43022172812E+02  0.41856950210E+03  0.80522068082E+02 0.  0.
        254    2    1    2    0    0 -0.51776358555E+02 -0.40519739138E+03 -0.37269408820E+03  0.10518438011E+04  0.89476744539E+03 0.  0.
         23    2    4    4    0    0  0.23405625398E+03  0.19181402850E+03 -0.14430080473E+03  0.34589530711E+03  0.85122791771E+02 0.  0.
         23    2    4    4    0    0 -0.28583261254E+03 -0.59701141988E+03 -0.22839328347E+03  0.70594849403E+03  0.89871388230E+02 0.  0.
          4    1    3    3  502    0 -0.34673329855E+01  0.57041957134E+02  0.19847986141E+02  0.60495866185E+02  0.00000000000E+00 0. -1.
         -3    1    3    3    0  502  0.55243691540E+02  0.34815543425E+03 -0.62870158953E+02  0.35807363592E+03  0.00000000000E+00 0.  1.
         13    1    5    5    0    0  0.15015863441E+03  0.10418181759E+03 -0.42773818799E+02  0.18769940378E+03  0.00000000000E+00 0. -1.
        -13    1    5    5    0    0  0.83897619569E+02  0.87632210912E+02 -0.10152698593E+03  0.15819590333E+03  0.00000000000E+00 0.  1.
          1    1    6    6  503    0 -0.28518965136E+03 -0.59887016849E+03 -0.23126433401E+03  0.70246836807E+03  0.00000000000E+00 0. -1.
         -1    1    6    6    0  503 -0.64296117919E+00  0.18587486056E+01  0.28710505450E+01  0.34801259588E+01  0.00000000000E+00 0.  1.
<mgrwt>
<rscale>  0 0.14104238E+04</rscale>
<asrwt>0</asrwt>
<pdfrwt beam="1">  1        2 0.14508689E+00 0.14104238E+04</pdfrwt>
<pdfrwt beam="2">  1       -1 0.81130542E-01 0.14104238E+04</pdfrwt>
<totfact> 0.46110360E+01</totfact>
</mgrwt>
</event>
<event>
12    7  0.1741211E-007  0.1933784E+04  0.7818608E-02  0.8638220E-01
         -1   -1    0    0    0  501 -0.00000000000E+00  0.00000000000E+00  0.26985729579E+03  0.26985729579E+03  0.00000000000E+00 0.  1.
          2   -1    0    0  501    0  0.00000000000E+00 -0.00000000000E+00 -0.34643486034E+04  0.34643486034E+04  0.00000000000E+00 0. -1.
         24    2    1    2    0    0  0.11144782860E+03 -0.71221021920E+03 -0.16860945012E+04  0.18355769607E+04  0.82244129731E+02 0.  0.
        254    2    1    2    0    0 -0.11144782860E+03  0.71221021920E+03 -0.15083968064E+04  0.18986289385E+04  0.89992605561E+03 0.  0.
         23    2    4    4    0    0  0.17634985691E+02  0.69199187132E+03 -0.45424446089E+03  0.83245252872E+03  0.86460624723E+02 0.  0.
         23    2    4    4    0    0 -0.12908281429E+03  0.20218347880E+02 -0.10541523455E+04  0.10661764097E+04  0.91781341303E+02 0.  0.
          2    1    3    3  502    0  0.10653285289E+03 -0.61728719066E+03 -0.13907054525E+04  0.15252719036E+04  0.00000000000E+00 0. -1.
         -1    1    3    3    0  502  0.49149757121E+01 -0.94923028547E+02 -0.29538904878E+03  0.31030505712E+03  0.00000000000E+00 0.  1.
         13    1    5    5    0    0 -0.22941541268E+02  0.12231671920E+03 -0.57762148267E+02  0.13720116575E+03  0.00000000000E+00 0.  1.
        -13    1    5    5    0    0  0.40576526959E+02  0.56967515213E+03 -0.39648231262E+03  0.69525136297E+03  0.00000000000E+00 0. -1.
          3    1    6    6  503    0 -0.13404574694E+03  0.30878690076E+02 -0.79908864529E+03  0.81084179641E+03  0.00000000000E+00 0. -1.
         -3    1    6    6    0  503  0.49629326471E+01 -0.10660342196E+02 -0.25506370020E+03  0.25533461332E+03  0.00000000000E+00 0.  1.
<mgrwt>
<rscale>  0 0.19337836E+04</rscale>
<asrwt>0</asrwt>
<pdfrwt beam="1">  1        2 0.53297672E+00 0.19337836E+04</pdfrwt>
<pdfrwt beam="2">  1       -1 0.41516506E-01 0.19337836E+04</pdfrwt>
<totfact> 0.52380869E+00</totfact>
</mgrwt>
</event>
<event>
12    7  0.1741211E-007  0.2097336E+04  0.7818608E-02  0.8562418E-01
         -1   -1    0    0    0  501 -0.00000000000E+00  0.00000000000E+00  0.66752660868E+03  0.66752660868E+03  0.00000000000E+00 0.  1.
          2   -1    0    0  501    0  0.00000000000E+00 -0.00000000000E+00 -0.16474311847E+04  0.16474311847E+04  0.00000000000E+00 0. -1.
         24    2    1    2    0    0  0.74635048224E+03 -0.40444874132E+03 -0.30179340905E+03  0.90458121788E+03  0.81056099757E+02 0.  0.
        254    2    1    2    0    0 -0.74635048224E+03  0.40444874132E+03 -0.67811116700E+03  0.14103765755E+04  0.89928277158E+03 0.  0.
         23    2    4    4    0    0 -0.39613189975E+03  0.60497814736E+03 -0.15705928472E+03  0.74487169000E+03  0.85130340459E+02 0.  0.
         23    2    4    4    0    0 -0.35021858250E+03 -0.20052940604E+03 -0.52105188227E+03  0.66550488552E+03  0.92393670845E+02 0.  0.
          2    1    3    3  502    0  0.43054372314E+03 -0.25138679189E+03 -0.13807731679E+03  0.51732829237E+03  0.00000000000E+00 0. -1.
         -1    1    3    3    0  502  0.31580675910E+03 -0.15306194943E+03 -0.16371609226E+03  0.38725292552E+03  0.00000000000E+00 0.  1.
         13    1    5    5    0    0 -0.28822875395E+03  0.44958170394E+03 -0.15345870193E+03  0.55565195611E+03  0.00000000000E+00 0.  1.
        -13    1    5    5    0    0 -0.10790314579E+03  0.15539644342E+03 -0.36005827916E+01  0.18921973389E+03  0.00000000000E+00 0. -1.
          1    1    6    6  503    0 -0.79636057813E+02 -0.73944173548E+02 -0.19543488096E+03  0.22361671494E+03  0.00000000000E+00 0. -1.
         -1    1    6    6    0  503 -0.27058252468E+03 -0.12658523249E+03 -0.32561700132E+03  0.44188817058E+03  0.00000000000E+00 0.  1.
<mgrwt>
<rscale>  0 0.20973356E+04</rscale>
<asrwt>0</asrwt>
<pdfrwt beam="1">  1        2 0.25345095E+00 0.20973356E+04</pdfrwt>
<pdfrwt beam="2">  1       -1 0.10269640E+00 0.20973356E+04</pdfrwt>
<totfact> 0.98732588E+00</totfact>
</mgrwt>
</event>
<event>
12    7  0.1741211E-007  0.4105848E+04  0.7818608E-02  0.7983528E-01
          2   -1    0    0  501    0  0.00000000000E+00  0.00000000000E+00  0.30734325892E+04  0.30734325892E+04  0.00000000000E+00 0. -1.
         -1   -1    0    0    0  501 -0.00000000000E+00 -0.00000000000E+00 -0.13712668783E+04  0.13712668783E+04  0.00000000000E+00 0.  1.
         24    2    1    2    0    0 -0.18911802716E+04 -0.28558776167E+03  0.38242348032E+03  0.19521125237E+04  0.79827297421E+02 0.  0.
        254    2    1    2    0    0  0.18911802716E+04  0.28558776167E+03  0.13197422306E+04  0.24925869438E+04  0.90174659843E+03 0.  0.
         23    2    4    4    0    0  0.11202240730E+03  0.26027241007E+03  0.43860407551E+02  0.30116688817E+03  0.92124980334E+02 0.  0.
         23    2    4    4    0    0  0.17791578643E+04  0.25315351600E+02  0.12758818230E+04  0.21914200556E+04  0.91672572814E+02 0.  0.
          2    1    3    3  502    0 -0.16906262175E+04 -0.24838772387E+03  0.31723005835E+03  0.17379724907E+04  0.00000000000E+00 0. -1.
         -1    1    3    3    0  502 -0.20055405417E+03 -0.37200037800E+02  0.65193421967E+02  0.21414003298E+03  0.00000000000E+00 0.  1.
         13    1    5    5    0    0  0.12244794251E+02  0.45966659897E+02 -0.26590957313E+02  0.54497227628E+02  0.00000000000E+00 0. -1.
        -13    1    5    5    0    0  0.99777613053E+02  0.21430575017E+03  0.70451364864E+02  0.24666966055E+03  0.00000000000E+00 0.  1.
          3    1    6    6  503    0  0.24429797815E+03  0.25364633650E+02  0.14858023059E+03  0.28705565958E+03  0.00000000000E+00 0. -1.
         -3    1    6    6    0  503  0.15348598862E+04 -0.49282050569E-01  0.11273015924E+04  0.19043643960E+04  0.00000000000E+00 0.  1.
<mgrwt>
<rscale>  0 0.41058477E+04</rscale>
<asrwt>0</asrwt>
<pdfrwt beam="1">  1        2 0.47283578E+00 0.41058477E+04</pdfrwt>
<pdfrwt beam="2">  1       -1 0.21096414E+00 0.41058477E+04</pdfrwt>
<totfact> 0.17587890E-01</totfact>
</mgrwt>
</event>
<event>
12    7  0.1741211E-007  0.1042276E+04  0.7818608E-02  0.9263355E-01
         -1   -1    0    0    0  501 -0.00000000000E+00  0.00000000000E+00  0.33596103182E+03  0.33596103182E+03  0.00000000000E+00 0.  1.
          2   -1    0    0  501    0  0.00000000000E+00 -0.00000000000E+00 -0.80838159445E+03  0.80838159445E+03  0.00000000000E+00 0. -1.
         24    2    1    2    0    0 -0.92059805594E+02 -0.14695935023E+02 -0.47096745046E+02  0.13107571164E+03  0.79194447255E+02 0.  0.
        254    2    1    2    0    0  0.92059805594E+02  0.14695935023E+02 -0.42532381758E+03  0.10132669146E+04  0.91494180808E+03 0.  0.
         23    2    4    4    0    0 -0.22560700915E+03 -0.23571440483E+03  0.91236479194E+02  0.35097249724E+03  0.91639486352E+02 0.  0.
         23    2    4    4    0    0  0.31766681474E+03  0.25041033986E+03 -0.51656029678E+03  0.66229441739E+03  0.90453367021E+02 0.  0.
          4    1    3    3  502    0 -0.66741557122E+02  0.17537398907E+02 -0.56308632940E+02  0.89065470027E+02  0.00000000000E+00 0. -1.
         -3    1    3    3    0  502 -0.25318248472E+02 -0.32233333929E+02  0.92118878946E+01  0.42010241614E+02  0.00000000000E+00 0.  1.
         13    1    5    5    0    0 -0.17091255566E+03 -0.21766930479E+03  0.96608044930E+02  0.29312820109E+03  0.00000000000E+00 0. -1.
        -13    1    5    5    0    0 -0.54694453492E+02 -0.18045100042E+02 -0.53715657366E+01  0.57844296148E+02  0.00000000000E+00 0.  1.
          2    1    6    6  503    0  0.14413246224E+03  0.91264413470E+02 -0.15305775958E+03  0.22919432280E+03  0.00000000000E+00 0.  1.
         -2    1    6    6    0  503  0.17353435251E+03  0.15914592639E+03 -0.36350253720E+03  0.43310009459E+03  0.00000000000E+00 0. -1.
<mgrwt>
<rscale>  0 0.10422758E+04</rscale>
<asrwt>0</asrwt>
<pdfrwt beam="1">  1        2 0.12436640E+00 0.10422758E+04</pdfrwt>
<pdfrwt beam="2">  1       -1 0.51686313E-01 0.10422758E+04</pdfrwt>
<totfact> 0.14544810E+02</totfact>
</mgrwt>
</event>
<event>
12    7  0.1741211E-007  0.1289722E+04  0.7818608E-02  0.9037756E-01
          2   -1    0    0  501    0  0.00000000000E+00  0.00000000000E+00  0.92168457678E+03  0.92168457678E+03  0.00000000000E+00 0. -1.
         -1   -1    0    0    0  501 -0.00000000000E+00 -0.00000000000E+00 -0.45117988822E+03  0.45117988822E+03  0.00000000000E+00 0.  1.
         24    2    1    2    0    0  0.30017646987E+03 -0.56987948467E+02  0.24041891953E+03  0.39673653446E+03  0.79025828545E+02 0.  0.
        254    2    1    2    0    0 -0.30017646987E+03  0.56987948467E+02  0.23008576903E+03  0.97612793054E+03  0.89807167661E+03 0.  0.
         23    2    4    4    0    0  0.81607920531E+02  0.40471680297E+03  0.81126433355E+02  0.43046576432E+03  0.90905075588E+02 0.  0.
         23    2    4    4    0    0 -0.38178439040E+03 -0.34772885450E+03  0.14895933567E+03  0.54566216622E+03  0.94253058042E+02 0.  0.
          2    1    3    3  502    0  0.18859897005E+02 -0.20236995703E+02  0.50796595651E+01  0.28125338246E+02  0.00000000000E+00 0. -1.
         -1    1    3    3    0  502  0.28131657287E+03 -0.36750952764E+02  0.23533925996E+03  0.36861119622E+03  0.00000000000E+00 0.  1.
         13    1    5    5    0    0  0.77843186045E+02  0.40586565070E+03  0.88015131435E+02  0.42253183477E+03  0.00000000000E+00 0. -1.
        -13    1    5    5    0    0  0.37647344863E+01 -0.11488477370E+01 -0.68886980793E+01  0.79339295499E+01  0.00000000000E+00 0.  1.
          3    1    6    6  503    0 -0.32436794075E+03 -0.25421475205E+03  0.14127896549E+03  0.43565978382E+03  0.00000000000E+00 0. -1.
         -3    1    6    6    0  503 -0.57416449650E+02 -0.93514102445E+02  0.76803701849E+01  0.11000238240E+03  0.00000000000E+00 0.  1.
<mgrwt>
<rscale>  0 0.12897217E+04</rscale>
<asrwt>0</asrwt>
<pdfrwt beam="1">  1        2 0.14179763E+00 0.12897217E+04</pdfrwt>
<pdfrwt beam="2">  1       -1 0.69412291E-01 0.12897217E+04</pdfrwt>
<totfact> 0.66633579E+01</totfact>
</mgrwt>
</event>
<event>
12    7  0.1741211E-007  0.2524804E+04  0.7818608E-02  0.8394202E-01
         -1   -1    0    0    0  501 -0.00000000000E+00  0.00000000000E+00  0.72147174252E+03  0.72147174252E+03  0.00000000000E+00 0.  1.
          2   -1    0    0  501    0  0.00000000000E+00 -0.00000000000E+00 -0.22088989845E+04  0.22088989845E+04  0.00000000000E+00 0. -1.
         24    2    1    2    0    0 -0.51167762595E+03 -0.95471311332E+03 -0.87083656111E+03  0.13921102140E+04  0.79519872151E+02 0.  0.
        254    2    1    2    0    0  0.51167762595E+03  0.95471311332E+03 -0.61659068086E+03  0.15382605130E+04  0.90153769558E+03 0.  0.
         23    2    4    4    0    0  0.57606042486E+03  0.15758152736E+03 -0.25586875506E+03  0.65580689561E+03  0.89085990215E+02 0.  0.
         23    2    4    4    0    0 -0.64382798909E+02  0.79713158596E+03 -0.36072192580E+03  0.88245361741E+03  0.95079803333E+02 0.  0.
          2    1    3    3  502    0 -0.19247245267E+03 -0.39252486136E+03 -0.39742682503E+03  0.59082103303E+03  0.00000000000E+00 0. -1.
         -1    1    3    3    0  502 -0.31920517328E+03 -0.56218825196E+03 -0.47340973609E+03  0.80128918096E+03  0.00000000000E+00 0.  1.
         13    1    5    5    0    0  0.41579172521E+02  0.36708915984E+02 -0.16842914556E+02  0.57965988916E+02  0.00000000000E+00 0.  1.
        -13    1    5    5    0    0  0.53448125234E+03  0.12087261138E+03 -0.23902584050E+03  0.59784090669E+03  0.00000000000E+00 0. -1.
          3    1    6    6  503    0 -0.28053548170E+02  0.50612284410E+03 -0.17966590659E+03  0.53779845005E+03  0.00000000000E+00 0. -1.
         -3    1    6    6    0  503 -0.36329250740E+02  0.29100874186E+03 -0.18105601921E+03  0.34465516736E+03  0.00000000000E+00 0.  1.
<mgrwt>
<rscale>  0 0.25248035E+04</rscale>
<asrwt>0</asrwt>
<pdfrwt beam="1">  1        2 0.33983061E+00 0.25248035E+04</pdfrwt>
<pdfrwt beam="2">  1       -1 0.11099565E+00 0.25248035E+04</pdfrwt>
<totfact> 0.38604484E+00</totfact>
</mgrwt>
</event>
<event>
12    7  0.1741211E-007  0.4164537E+04  0.7818608E-02  0.7972152E-01
          2   -1    0    0  501    0  0.00000000000E+00  0.00000000000E+00  0.32273259727E+04  0.32273259727E+04  0.00000000000E+00 0. -1.
         -3   -1    0    0    0  501 -0.00000000000E+00 -0.00000000000E+00 -0.13434784735E+04  0.13434784735E+04  0.00000000000E+00 0.  1.
         24    2    1    2    0    0  0.17569646362E+04 -0.90475518122E+03  0.71194257009E+03  0.21021478751E+04  0.81589185024E+02 0.  0.
        254    2    1    2    0    0 -0.17569646362E+04  0.90475518122E+03  0.11719049291E+04  0.24686565711E+04  0.90299359475E+03 0.  0.
         23    2    4    4    0    0 -0.13559098014E+04  0.10691000805E+04  0.96219263452E+03  0.19787047136E+04  0.89394104095E+02 0.  0.
         23    2    4    4    0    0 -0.40105483476E+03 -0.16434489927E+03  0.20971229462E+03  0.48995185750E+03  0.90660629575E+02 0.  0.
          4    1    3    3  502    0  0.27855788405E+03 -0.15817389528E+03  0.86933101422E+02  0.33191993016E+03  0.00000000000E+00 0. -1.
         -3    1    3    3    0  502  0.14784067521E+04 -0.74658128594E+03  0.62500946867E+03  0.17702279450E+04  0.00000000000E+00 0.  1.
         13    1    5    5    0    0 -0.33262065251E+03  0.31233093388E+03  0.25127055162E+03  0.52088770464E+03  0.00000000000E+00 0. -1.
        -13    1    5    5    0    0 -0.10232891489E+04  0.75676914661E+03  0.71092208290E+03  0.14578170089E+04  0.00000000000E+00 0.  1.
          1    1    6    6  503    0 -0.25681196034E+02  0.10559299352E+02  0.58739016561E+01  0.28381778542E+02  0.00000000000E+00 0. -1.
         -1    1    6    6    0  503 -0.37537363873E+03 -0.17490419862E+03  0.20383839297E+03  0.46157007896E+03  0.00000000000E+00 0.  1.
<mgrwt>
<rscale>  0 0.41645374E+04</rscale>
<asrwt>0</asrwt>
<pdfrwt beam="1">  1        2 0.49651169E+00 0.41645374E+04</pdfrwt>
<pdfrwt beam="2">  1       -3 0.20668900E+00 0.41645374E+04</pdfrwt>
<totfact> 0.81566822E-02</totfact>
</mgrwt>
</event>
<event>
12    7  0.1741211E-007  0.2227048E+04  0.7818608E-02  0.8507254E-01
         -1   -1    0    0    0  501 -0.00000000000E+00  0.00000000000E+00  0.68618007841E+03  0.68618007841E+03  0.00000000000E+00 0.  1.
          2   -1    0    0  501    0  0.00000000000E+00 -0.00000000000E+00 -0.18070119985E+04  0.18070119985E+04  0.00000000000E+00 0. -1.
         24    2    1    2    0    0  0.58372850579E+03  0.37311167043E+03 -0.11682382898E+04  0.13604536836E+04  0.78116812090E+02 0.  0.
        254    2    1    2    0    0 -0.58372850579E+03 -0.37311167043E+03  0.47406369772E+02  0.11327383933E+04  0.89492883326E+03 0.  0.
         23    2    4    4    0    0  0.20854267327E+03 -0.22042002605E+03  0.49713880752E+02  0.32082770759E+03  0.91563713121E+02 0.  0.
         23    2    4    4    0    0 -0.79227117906E+03 -0.15269164438E+03 -0.23075109803E+01  0.81191068568E+03  0.90472523315E+02 0.  0.
          2    1    3    3  502    0  0.54871670643E+03  0.34809479708E+03 -0.11266193809E+04  0.13005888055E+04  0.00000000000E+00 0. -1.
         -1    1    3    3    0  502  0.35011799361E+02  0.25016873349E+02 -0.41618908974E+02  0.59864878108E+02  0.00000000000E+00 0.  1.
         13    1    5    5    0    0  0.12872489853E+03 -0.78443619487E+02  0.72425361130E+00  0.15074490202E+03  0.00000000000E+00 0. -1.
        -13    1    5    5    0    0  0.79817774732E+02 -0.14197640656E+03  0.48989627141E+02  0.17008280557E+03  0.00000000000E+00 0.  1.
          3    1    6    6  503    0 -0.71187048933E+03 -0.16401983676E+03  0.32066773171E+01  0.73052883804E+03  0.00000000000E+00 0. -1.
         -3    1    6    6    0  503 -0.80400689731E+02  0.11328192385E+02 -0.55141882974E+01  0.81381847636E+02  0.00000000000E+00 0.  1.
<mgrwt>
<rscale>  0 0.22270479E+04</rscale>
<asrwt>0</asrwt>
<pdfrwt beam="1">  1        2 0.27800184E+00 0.22270479E+04</pdfrwt>
<pdfrwt beam="2">  1       -1 0.10556617E+00 0.22270479E+04</pdfrwt>
<totfact> 0.74651959E+00</totfact>
</mgrwt>
</event>
<event>
12    7  0.1741211E-007  0.2690529E+04  0.7818608E-02  0.8338084E-01
         -1   -1    0    0    0  501 -0.00000000000E+00  0.00000000000E+00  0.13331602789E+04  0.13331602789E+04  0.00000000000E+00 0.  1.
          2   -1    0    0  501    0  0.00000000000E+00 -0.00000000000E+00 -0.13574789138E+04  0.13574789138E+04  0.00000000000E+00 0. -1.
         24    2    1    2    0    0 -0.80217223660E+03  0.47456876397E+03  0.73236872126E+03  0.11879762484E+04  0.78916500413E+02 0.  0.
        254    2    1    2    0    0  0.80217223660E+03 -0.47456876397E+03 -0.75668735616E+03  0.15026629443E+04  0.90372803445E+03 0.  0.
         23    2    4    4    0    0  0.21287100498E+03 -0.43582547783E+03  0.52962469223E+02  0.49639434948E+03  0.91347770429E+02 0.  0.
         23    2    4    4    0    0  0.58930123162E+03 -0.38743286141E+02 -0.80964982539E+03  0.10062685948E+04  0.90921182041E+02 0.  0.
          4    1    3    3  502    0 -0.33926064863E+00  0.72491169770E+01  0.47347945166E+01  0.86650489813E+01  0.00000000000E+00 0. -1.
         -3    1    3    3    0  502 -0.80183297595E+03  0.46731964699E+03  0.72763392674E+03  0.11793111994E+04  0.00000000000E+00 0.  1.
         13    1    5    5    0    0  0.19900041576E+03 -0.38635669568E+03  0.19401886826E+02  0.43502769450E+03  0.00000000000E+00 0. -1.
        -13    1    5    5    0    0  0.13870589227E+02 -0.49468782147E+02  0.33560582398E+02  0.61366654980E+02  0.00000000000E+00 0.  1.
          2    1    6    6  503    0  0.34764658784E+03 -0.20881090675E+02 -0.40050642717E+03  0.53075377360E+03  0.00000000000E+00 0. -1.
         -2    1    6    6    0  503  0.24165464377E+03 -0.17862195466E+02 -0.40914339822E+03  0.47551482121E+03  0.00000000000E+00 0.  1.
<mgrwt>
<rscale>  0 0.26905293E+04</rscale>
<asrwt>0</asrwt>
<pdfrwt beam="1">  1        2 0.20884291E+00 0.26905293E+04</pdfrwt>
<pdfrwt beam="2">  1       -1 0.20510158E+00 0.26905293E+04</pdfrwt>
<totfact> 0.21257265E+00</totfact>
</mgrwt>
</event>
<event>
12    7  0.1741211E-007  0.1211421E+04  0.7818608E-02  0.9102918E-01
          2   -1    0    0  501    0  0.00000000000E+00  0.00000000000E+00  0.56124733641E+03  0.56124733641E+03  0.00000000000E+00 0. -1.
         -1   -1    0    0    0  501 -0.00000000000E+00 -0.00000000000E+00 -0.65369650621E+03  0.65369650621E+03  0.00000000000E+00 0.  1.
         24    2    1    2    0    0  0.20196410320E+03  0.10672618289E+03  0.90011410468E+02  0.25809058395E+03  0.79553242636E+02 0.  0.
        254    2    1    2    0    0 -0.20196410320E+03 -0.10672618289E+03 -0.18246058027E+03  0.95685325868E+03  0.91109621786E+03 0.  0.
         23    2    4    4    0    0 -0.49591358393E+03  0.15264530917E+02  0.10969601868E+03  0.51481480939E+03  0.82690887171E+02 0.  0.
         23    2    4    4    0    0  0.29394948073E+03 -0.12199071380E+03 -0.29215659895E+03  0.44203844929E+03  0.93565382826E+02 0.  0.
          4    1    3    3  502    0  0.18853691476E+03  0.98966509194E+02  0.10420858306E+03  0.23706532213E+03  0.00000000000E+00 0. -1.
         -3    1    3    3    0  502  0.13427188431E+02  0.77596736924E+01 -0.14197172593E+02  0.21025261820E+02  0.00000000000E+00 0.  1.
         13    1    5    5    0    0 -0.32358947926E+03  0.37126200975E+02  0.42104789106E+02  0.32842247053E+03  0.00000000000E+00 0. -1.
        -13    1    5    5    0    0 -0.17232410467E+03 -0.21861670058E+02  0.67591229574E+02  0.18639233886E+03  0.00000000000E+00 0.  1.
          1    1    6    6  503    0  0.20646895095E+03 -0.11333622847E+03 -0.16549200732E+03  0.28785783449E+03  0.00000000000E+00 0. -1.
         -1    1    6    6    0  503  0.87480529778E+02 -0.86544853358E+01 -0.12666459163E+03  0.15418061480E+03  0.00000000000E+00 0.  1.
<mgrwt>
<rscale>  0 0.12114214E+04</rscale>
<asrwt>0</asrwt>
<pdfrwt beam="1">  1        2 0.86345744E-01 0.12114214E+04</pdfrwt>
<pdfrwt beam="2">  1       -1 0.10056869E+00 0.12114214E+04</pdfrwt>
<totfact> 0.57018048E+01</totfact>
</mgrwt>
</event>
<event>
12    7  0.1741211E-007  0.1239075E+04  0.7818608E-02  0.9079325E-01
          2   -1    0    0  501    0  0.00000000000E+00  0.00000000000E+00  0.11883849667E+04  0.11883849667E+04  0.00000000000E+00 0. -1.
         -1   -1    0    0    0  501 -0.00000000000E+00 -0.00000000000E+00 -0.32298195760E+03  0.32298195760E+03  0.00000000000E+00 0.  1.
         24    2    1    2    0    0  0.13415101484E+03 -0.22455527331E+03  0.28257685833E+02  0.27501652761E+03  0.80087627616E+02 0.  0.
        254    2    1    2    0    0 -0.13415101484E+03  0.22455527331E+03  0.83714532331E+03  0.12363503967E+04  0.87139454071E+03 0.  0.
         23    2    4    4    0    0 -0.37189695450E+03  0.10548003438E+03  0.49806462796E+02  0.40029106683E+03  0.91207850682E+02 0.  0.
         23    2    4    4    0    0  0.23774593967E+03  0.11907523894E+03  0.78733886051E+03  0.83605932989E+03  0.91600641210E+02 0.  0.
          4    1    3    3  502    0  0.62600340078E+02 -0.37124199715E+02  0.34168682559E+01  0.72860714868E+02  0.00000000000E+00 0. -1.
         -3    1    3    3    0  502  0.71550674757E+02 -0.18743107360E+03  0.24840817577E+02  0.20215581274E+03  0.00000000000E+00 0.  1.
         13    1    5    5    0    0 -0.81834734616E+01 -0.11172856016E+02 -0.43317604041E+01  0.14510895825E+02  0.00000000000E+00 0. -1.
        -13    1    5    5    0    0 -0.36371348104E+03  0.11665289039E+03  0.54138223200E+02  0.38578017100E+03  0.00000000000E+00 0.  1.
          4    1    6    6  503    0  0.22647418784E+03  0.12967996986E+03  0.76892483438E+03  0.81200545150E+03  0.00000000000E+00 0.  1.
         -4    1    6    6    0  503  0.11271751832E+02 -0.10604730924E+02  0.18414026135E+02  0.24053878394E+02  0.00000000000E+00 0. -1.
<mgrwt>
<rscale>  0 0.12390753E+04</rscale>
<asrwt>0</asrwt>
<pdfrwt beam="1">  1        2 0.18282845E+00 0.12390753E+04</pdfrwt>
<pdfrwt beam="2">  1       -1 0.49689533E-01 0.12390753E+04</pdfrwt>
<totfact> 0.87697043E+01</totfact>
</mgrwt>
</event>
<event>
12    7  0.1741211E-007  0.2027861E+04  0.7818608E-02  0.8593704E-01
          2   -1    0    0  501    0  0.00000000000E+00  0.00000000000E+00  0.99367234530E+03  0.99367234530E+03  0.00000000000E+00 0. -1.
         -1   -1    0    0    0  501 -0.00000000000E+00 -0.00000000000E+00 -0.10346021006E+04  0.10346021006E+04  0.00000000000E+00 0.  1.
         24    2    1    2    0    0 -0.24242801627E+03 -0.76563310203E+03 -0.12007867691E+03  0.81594556894E+03  0.79893008596E+02 0.  0.
        254    2    1    2    0    0  0.24242801627E+03  0.76563310203E+03  0.79148921625E+02  0.12123288769E+04  0.90471617873E+03 0.  0.
         23    2    4    4    0    0  0.39191167038E+03  0.10137877265E+03  0.27522537817E+03  0.49786988898E+03  0.90846049095E+02 0.  0.
         23    2    4    4    0    0 -0.14948365411E+03  0.66425432938E+03 -0.19607645655E+03  0.71445898796E+03  0.91795924273E+02 0.  0.
          4    1    3    3  502    0 -0.65804329355E+02 -0.20936315963E+03  0.29573490154E+01  0.21948095198E+03  0.00000000000E+00 0. -1.
         -3    1    3    3    0  502 -0.17662368692E+03 -0.55626994241E+03 -0.12303602593E+03  0.59646461696E+03  0.00000000000E+00 0.  1.
         13    1    5    5    0    0  0.29052302387E+03  0.10188170248E+03  0.24059358118E+03  0.39072852468E+03  0.00000000000E+00 0.  1.
        -13    1    5    5    0    0  0.10138864651E+03 -0.50292982637E+00  0.34631796998E+02  0.10714136430E+03  0.00000000000E+00 0. -1.
          4    1    6    6  503    0  0.84673557972E+01  0.11178756828E+03 -0.24054915529E+02  0.11465947627E+03  0.00000000000E+00 0. -1.
         -4    1    6    6    0  503 -0.15795100991E+03  0.55246676110E+03 -0.17202154102E+03  0.59979951169E+03  0.00000000000E+00 0.  1.
<mgrwt>
<rscale>  0 0.20278614E+04</rscale>
<asrwt>0</asrwt>
<pdfrwt beam="1">  1        2 0.15287267E+00 0.20278614E+04</pdfrwt>
<pdfrwt beam="2">  1       -1 0.15916955E+00 0.20278614E+04</pdfrwt>
<totfact> 0.79721211E+00</totfact>
</mgrwt>
</event>
<event>
12    7  0.1741211E-007  0.2778016E+04  0.7818608E-02  0.8310126E-01
          2   -1    0    0  501    0  0.00000000000E+00  0.00000000000E+00  0.24963558615E+04  0.24963558615E+04  0.00000000000E+00 0. -1.
         -1   -1    0    0    0  501 -0.00000000000E+00 -0.00000000000E+00 -0.77286362669E+03  0.77286362669E+03  0.00000000000E+00 0.  1.
         24    2    1    2    0    0  0.47270428864E+03 -0.94978037138E+03 -0.20976256383E+02  0.10641283365E+04  0.79981340057E+02 0.  0.
        254    2    1    2    0    0 -0.47270428864E+03  0.94978037138E+03  0.17444684912E+04  0.22050911517E+04  0.83290129808E+03 0.  0.
         23    2    4    4    0    0 -0.14376709800E+03  0.67212217380E+03  0.15968743762E+04  0.17408982359E+04  0.91113661461E+02 0.  0.
         23    2    4    4    0    0 -0.32893719065E+03  0.27765819758E+03  0.14759411494E+03  0.46419291582E+03  0.91636729867E+02 0.  0.
          2    1    3    3  502    0  0.22382400203E+02 -0.52264995122E+02  0.16733569409E+02  0.59267308856E+02  0.00000000000E+00 0. -1.
         -1    1    3    3    0  502  0.45032188844E+03 -0.89751537626E+03 -0.37709825791E+02  0.10048610276E+04  0.00000000000E+00 0.  1.
         13    1    5    5    0    0 -0.67749722206E+02  0.40061235287E+03  0.10441330314E+04  0.11203990670E+04  0.00000000000E+00 0.  1.
        -13    1    5    5    0    0 -0.76017375790E+02  0.27150982093E+03  0.55274134481E+03  0.62049916885E+03  0.00000000000E+00 0. -1.
          2    1    6    6  503    0 -0.20380182704E+03  0.18034519682E+03  0.46236882226E+02  0.27603880887E+03  0.00000000000E+00 0. -1.
         -2    1    6    6    0  503 -0.12513536360E+03  0.97313000761E+02  0.10135723271E+03  0.18815410696E+03  0.00000000000E+00 0.  1.
<mgrwt>
<rscale>  0 0.27780156E+04</rscale>
<asrwt>0</asrwt>
<pdfrwt beam="1">  1        2 0.38405474E+00 0.27780156E+04</pdfrwt>
<pdfrwt beam="2">  1       -1 0.11890210E+00 0.27780156E+04</pdfrwt>
<totfact> 0.21945959E+00</totfact>
</mgrwt>
</event>
<event>
12    7  0.1741211E-007  0.2040879E+04  0.7818608E-02  0.8587743E-01
         -1   -1    0    0    0  501 -0.00000000000E+00  0.00000000000E+00  0.35624217496E+03  0.35624217496E+03  0.00000000000E+00 0.  1.
          2   -1    0    0  501    0  0.00000000000E+00 -0.00000000000E+00 -0.29230028964E+04  0.29230028964E+04  0.00000000000E+00 0. -1.
         24    2    1    2    0    0 -0.36433871751E+03 -0.27766949055E+03  0.50804424828E+02  0.46796053695E+03  0.81011897266E+02 0.  0.
        254    2    1    2    0    0  0.36433871751E+03  0.27766949055E+03 -0.26175651463E+04  0.28112845345E+04  0.91751315602E+03 0.  0.
         23    2    4    4    0    0  0.56857983370E+03  0.39839594218E+03 -0.22989200231E+04  0.24031610614E+04  0.90263283151E+02 0.  0.
         23    2    4    4    0    0 -0.20424111618E+03 -0.12072645163E+03 -0.31864512318E+03  0.40812347306E+03  0.93491951896E+02 0.  0.
          2    1    3    3  502    0 -0.82406133583E+02 -0.47130339121E+02 -0.19838489623E+02  0.96982500422E+02  0.00000000000E+00 0. -1.
         -1    1    3    3    0  502 -0.28193258393E+03 -0.23053915143E+03  0.70642914451E+02  0.37097803653E+03  0.00000000000E+00 0.  1.
         13    1    5    5    0    0  0.99363504990E+02  0.31046699056E+02 -0.35622321299E+03  0.37112259581E+03  0.00000000000E+00 0.  1.
        -13    1    5    5    0    0  0.46921632871E+03  0.36734924312E+03 -0.19426968101E+04  0.20320384656E+04  0.00000000000E+00 0. -1.
          4    1    6    6  503    0 -0.17019535619E+03 -0.12206349034E+03 -0.30792904265E+03  0.37240602875E+03  0.00000000000E+00 0. -1.
         -4    1    6    6    0  503 -0.34045759991E+02  0.13370387113E+01 -0.10716080538E+02  0.35717444309E+02  0.00000000000E+00 0.  1.
<mgrwt>
<rscale>  0 0.20408791E+04</rscale>
<asrwt>0</asrwt>
<pdfrwt beam="1">  1        2 0.44969277E+00 0.20408791E+04</pdfrwt>
<pdfrwt beam="2">  1       -1 0.54806487E-01 0.20408791E+04</pdfrwt>
<totfact> 0.69063409E+00</totfact>
</mgrwt>
</event>
<event>
12    7  0.1741211E-007  0.1529853E+04  0.7818608E-02  0.8864840E-01
          2   -1    0    0  501    0  0.00000000000E+00  0.00000000000E+00  0.17258193485E+04  0.17258193485E+04  0.00000000000E+00 0. -1.
         -1   -1    0    0    0  501 -0.00000000000E+00 -0.00000000000E+00 -0.33903447816E+03  0.33903447816E+03  0.00000000000E+00 0.  1.
         24    2    1    2    0    0  0.46693163111E+03 -0.15702090621E+03  0.57857891615E+03  0.76389450601E+03  0.78105960015E+02 0.  0.
        254    2    1    2    0    0 -0.46693163111E+03  0.15702090621E+03  0.80820595417E+03  0.13009593206E+04  0.89253435589E+03 0.  0.
         23    2    4    4    0    0 -0.13095605754E+03 -0.15449032835E+03 -0.12641779007E+03  0.25592847675E+03  0.92201827577E+02 0.  0.
         23    2    4    4    0    0 -0.33597557357E+03  0.31151123456E+03  0.93462374424E+03  0.10450308439E+04  0.93000462662E+02 0.  0.
          4    1    3    3  502    0  0.25167839051E+03 -0.77155760341E+02  0.24989385981E+03  0.36296275949E+03  0.00000000000E+00 0. -1.
         -3    1    3    3    0  502  0.21525324059E+03 -0.79865145868E+02  0.32868505633E+03  0.40093174652E+03  0.00000000000E+00 0.  1.
         13    1    5    5    0    0 -0.57210139362E+02 -0.20155446905E+02 -0.58485565642E+01  0.60938064456E+02  0.00000000000E+00 0. -1.
        -13    1    5    5    0    0 -0.73745918177E+02 -0.13433488144E+03 -0.12056923350E+03  0.19499041230E+03  0.00000000000E+00 0.  1.
          2    1    6    6  503    0 -0.47715840750E+01  0.13261141626E+02  0.66733893183E+01  0.15593588965E+02  0.00000000000E+00 0. -1.
         -2    1    6    6    0  503 -0.33120398949E+03  0.29825009293E+03  0.92795035492E+03  0.10294372549E+04  0.00000000000E+00 0.  1.
<mgrwt>
<rscale>  0 0.15298526E+04</rscale>
<asrwt>0</asrwt>
<pdfrwt beam="1">  1        2 0.26551067E+00 0.15298526E+04</pdfrwt>
<pdfrwt beam="2">  1       -1 0.52159151E-01 0.15298526E+04</pdfrwt>
<totfact> 0.38570529E+01</totfact>
</mgrwt>
</event>
<event>
12    7  0.1741211E-007  0.3569582E+04  0.7818608E-02  0.8097495E-01
         -1   -1    0    0    0  501 -0.00000000000E+00  0.00000000000E+00  0.15936313810E+04  0.15936313810E+04  0.00000000000E+00 0.  1.
          2   -1    0    0  501    0  0.00000000000E+00 -0.00000000000E+00 -0.19988804128E+04  0.19988804128E+04  0.00000000000E+00 0. -1.
         24    2    1    2    0    0 -0.45445976645E+03  0.11773098981E+04  0.90475962489E+03  0.15547315331E+04  0.77510552089E+02 0.  0.
        254    2    1    2    0    0  0.45445976645E+03 -0.11773098981E+04 -0.13100086566E+04  0.20377802608E+04  0.91860406891E+03 0.  0.
         23    2    4    4    0    0  0.63741898184E+03 -0.50028339765E+03 -0.92249550377E+03  0.12313204911E+04  0.92551396592E+02 0.  0.
         23    2    4    4    0    0 -0.18295921538E+03 -0.67702650040E+03 -0.38751315288E+03  0.80645976967E+03  0.91498413713E+02 0.  0.
          4    1    3    3  502    0 -0.20765423170E+03  0.53989413433E+03  0.36737120667E+03  0.68524999797E+03  0.00000000000E+00 0. -1.
         -3    1    3    3    0  502 -0.24680553475E+03  0.63741576372E+03  0.53738841823E+03  0.86948153509E+03  0.00000000000E+00 0.  1.
         13    1    5    5    0    0  0.54193507909E+03 -0.44567404649E+03 -0.75277397034E+03  0.10290712493E+04  0.00000000000E+00 0. -1.
        -13    1    5    5    0    0  0.95483902742E+02 -0.54609351160E+02 -0.16972153343E+03  0.20224924184E+03  0.00000000000E+00 0.  1.
          1    1    6    6  503    0 -0.12735850032E+03 -0.35825506489E+03 -0.24886126904E+03  0.45442140173E+03  0.00000000000E+00 0. -1.
         -1    1    6    6    0  503 -0.55600715064E+02 -0.31877143551E+03 -0.13865188384E+03  0.35203836794E+03  0.00000000000E+00 0.  1.
<mgrwt>
<rscale>  0 0.35695818E+04</rscale>
<asrwt>0</asrwt>
<pdfrwt beam="1">  1        2 0.30752006E+00 0.35695818E+04</pdfrwt>
<pdfrwt beam="2">  1       -1 0.24517406E+00 0.35695818E+04</pdfrwt>
<totfact> 0.46625594E-01</totfact>
</mgrwt>
</event>
<event>
12    7  0.1741211E-007  0.1653800E+04  0.7818608E-02  0.8788162E-01
          2   -1    0    0  501    0  0.00000000000E+00  0.00000000000E+00  0.11058970583E+04  0.11058970583E+04  0.00000000000E+00 0. -1.
         -3   -1    0    0    0  501 -0.00000000000E+00 -0.00000000000E+00 -0.61828878805E+03  0.61828878805E+03  0.00000000000E+00 0.  1.
         24    2    1    2    0    0  0.64884783128E+02 -0.55708249278E+03  0.36956776145E+03  0.67641151052E+03  0.80007889727E+02 0.  0.
        254    2    1    2    0    0 -0.64884783128E+02  0.55708249278E+03  0.11804050878E+03  0.10477743358E+04  0.87712402670E+03 0.  0.
         23    2    4    4    0    0  0.36616601442E+03  0.24584179777E+03 -0.10794435177E+03  0.46228437374E+03  0.86828103025E+02 0.  0.
         23    2    4    4    0    0 -0.43105079755E+03  0.31124069501E+03  0.22598486055E+03  0.58548996207E+03  0.95151343561E+02 0.  0.
          2    1    3    3  502    0  0.41864063356E+02 -0.50980288726E+03  0.35214784724E+03  0.62101504811E+03  0.00000000000E+00 0. -1.
         -1    1    3    3    0  502  0.23020719772E+02 -0.47279605516E+02  0.17419914210E+02  0.55396462411E+02  0.00000000000E+00 0.  1.
         13    1    5    5    0    0  0.12256532664E+03  0.12581177843E+03 -0.65299644475E+02  0.18738971812E+03  0.00000000000E+00 0. -1.
        -13    1    5    5    0    0  0.24360068778E+03  0.12003001933E+03 -0.42644707299E+02  0.27489465562E+03  0.00000000000E+00 0.  1.
          1    1    6    6  503    0 -0.23430549042E+02 -0.16080809303E+01  0.23417663165E+02  0.33165697653E+02  0.00000000000E+00 0. -1.
         -1    1    6    6    0  503 -0.40762024851E+03  0.31284877594E+03  0.20256719739E+03  0.55232426441E+03  0.00000000000E+00 0.  1.
<mgrwt>
<rscale>  0 0.16538002E+04</rscale>
<asrwt>0</asrwt>
<pdfrwt beam="1">  1        2 0.17013801E+00 0.16538002E+04</pdfrwt>
<pdfrwt beam="2">  1       -3 0.95121352E-01 0.16538002E+04</pdfrwt>
<totfact> 0.12856090E+01</totfact>
</mgrwt>
</event>
<event>
12    7  0.1741211E-007  0.3142022E+04  0.7818608E-02  0.8204299E-01
          2   -1    0    0  501    0  0.00000000000E+00  0.00000000000E+00  0.14590973632E+04  0.14590973632E+04  0.00000000000E+00 0. -1.
         -1   -1    0    0    0  501 -0.00000000000E+00 -0.00000000000E+00 -0.16915080623E+04  0.16915080623E+04  0.00000000000E+00 0.  1.
         24    2    1    2    0    0  0.12419770816E+04  0.73082002999E+03 -0.64520263578E+02  0.14448191930E+04  0.82064904404E+02 0.  0.
        254    2    1    2    0    0 -0.12419770816E+04 -0.73082002999E+03 -0.16789043552E+03  0.17057862325E+04  0.89717026537E+03 0.  0.
         23    2    4    4    0    0  0.32683051503E+02  0.12390499593E+03  0.13852637482E+02  0.15762903995E+03  0.90743533094E+02 0.  0.
         23    2    4    4    0    0 -0.12746601331E+04 -0.85472502592E+03 -0.18174307300E+03  0.15481571925E+04  0.91906600850E+02 0.  0.
          2    1    3    3  502    0  0.51955071229E+03  0.33749145723E+03  0.23122447252E+01  0.61954723211E+03  0.00000000000E+00 0. -1.
         -1    1    3    3    0  502  0.72242636934E+03  0.39332857276E+03 -0.66832508303E+02  0.82527196089E+03  0.00000000000E+00 0.  1.
         13    1    5    5    0    0 -0.17740443076E+02  0.75233579832E+02  0.34387407788E+02  0.84600878656E+02  0.00000000000E+00 0.  1.
        -13    1    5    5    0    0  0.50423494579E+02  0.48671416099E+02 -0.20534770305E+02  0.73028161295E+02  0.00000000000E+00 0. -1.
          1    1    6    6  503    0 -0.93389725946E+03 -0.57626044122E+03 -0.12824688543E+03  0.11048472523E+04  0.00000000000E+00 0. -1.
         -1    1    6    6    0  503 -0.34076287368E+03 -0.27846458471E+03 -0.53496187571E+02  0.44330994022E+03  0.00000000000E+00 0.  1.
<mgrwt>
<rscale>  0 0.31420216E+04</rscale>
<asrwt>0</asrwt>
<pdfrwt beam="1">  1        2 0.22447652E+00 0.31420216E+04</pdfrwt>
<pdfrwt beam="2">  1       -1 0.26023201E+00 0.31420216E+04</pdfrwt>
<totfact> 0.77129423E-01</totfact>
</mgrwt>
</event>
<event>
12    7  0.1741211E-007  0.1772091E+04  0.7818608E-02  0.8721283E-01
          2   -1    0    0  501    0  0.00000000000E+00  0.00000000000E+00  0.18050467460E+04  0.18050467460E+04  0.00000000000E+00 0. -1.
         -1   -1    0    0    0  501 -0.00000000000E+00 -0.00000000000E+00 -0.43493433314E+03  0.43493433314E+03  0.00000000000E+00 0.  1.
         24    2    1    2    0    0  0.27525678739E+03  0.51140476415E+03  0.13418322303E+03  0.60128830711E+03  0.79002272933E+02 0.  0.
        254    2    1    2    0    0 -0.27525678739E+03 -0.51140476415E+03  0.12359291899E+04  0.16386927721E+04  0.90581008331E+03 0.  0.
         23    2    4    4    0    0 -0.34550219780E+03 -0.73744649989E+03  0.88797531062E+03  0.12083685845E+04  0.91953112063E+02 0.  0.
         23    2    4    4    0    0  0.70245410415E+02  0.22604173574E+03  0.34795387925E+03  0.43032418757E+03  0.89876138926E+02 0.  0.
          4    1    3    3  502    0  0.12260416608E+02  0.39504144263E+02 -0.91421964909E+01  0.42361243915E+02  0.00000000000E+00 0. -1.
         -3    1    3    3    0  502  0.26299637078E+03  0.47190061989E+03  0.14332541952E+03  0.55892706320E+03  0.00000000000E+00 0.  1.
         13    1    5    5    0    0 -0.16906289702E+03 -0.37578992333E+03  0.51633029014E+03  0.66060373761E+03  0.00000000000E+00 0.  1.
        -13    1    5    5    0    0 -0.17643930078E+03 -0.36165657655E+03  0.37164502048E+03  0.54776484687E+03  0.00000000000E+00 0. -1.
          4    1    6    6  503    0  0.10019875833E+02  0.17159816669E+03  0.24237583185E+03  0.29714032474E+03  0.00000000000E+00 0. -1.
         -4    1    6    6    0  503  0.60225534582E+02  0.54443569044E+02  0.10557804740E+03  0.13318386283E+03  0.00000000000E+00 0.  1.
<mgrwt>
<rscale>  0 0.17720912E+04</rscale>
<asrwt>0</asrwt>
<pdfrwt beam="1">  1        2 0.27769950E+00 0.17720912E+04</pdfrwt>
<pdfrwt beam="2">  1       -1 0.66912975E-01 0.17720912E+04</pdfrwt>
<totfact> 0.20904464E+01</totfact>
</mgrwt>
</event>
<event>
12    7  0.1741211E-007  0.1257677E+04  0.7818608E-02  0.9063818E-01
          2   -1    0    0  501    0  0.00000000000E+00  0.00000000000E+00  0.59016589074E+03  0.59016589074E+03  0.00000000000E+00 0. -1.
         -1   -1    0    0    0  501 -0.00000000000E+00 -0.00000000000E+00 -0.67004482908E+03  0.67004482908E+03  0.00000000000E+00 0.  1.
         24    2    1    2    0    0 -0.94105021583E+02 -0.12463070077E+03  0.24183606156E+03  0.29767972051E+03  0.75762580940E+02 0.  0.
        254    2    1    2    0    0  0.94105021583E+02  0.12463070077E+03 -0.32171499991E+03  0.96253099931E+03  0.89363125326E+03 0.  0.
         23    2    4    4    0    0  0.36982176639E+03  0.99816413169E+02  0.13889414043E+03  0.41749378880E+03  0.90983659015E+02 0.  0.
         23    2    4    4    0    0 -0.27571674480E+03  0.24814287601E+02 -0.46060914034E+03  0.54503721051E+03  0.90935737987E+02 0.  0.
          2    1    3    3  502    0 -0.88333164752E+02 -0.13099039434E+03  0.24209566647E+03  0.28908743163E+03  0.00000000000E+00 0. -1.
         -1    1    3    3    0  502 -0.57718568306E+01  0.63596935654E+01 -0.25960490720E+00  0.85922888817E+01  0.00000000000E+00 0.  1.
         13    1    5    5    0    0  0.70433233433E+02  0.38736774007E+02  0.64373590238E+02  0.10298221765E+03  0.00000000000E+00 0.  1.
        -13    1    5    5    0    0  0.29938853295E+03  0.61079639163E+02  0.74520550197E+02  0.31451157115E+03  0.00000000000E+00 0. -1.
          2    1    6    6  503    0 -0.14777895454E+02 -0.60864794393E+01 -0.15003361905E+01  0.16052489985E+02  0.00000000000E+00 0. -1.
         -2    1    6    6    0  503 -0.26093884935E+03  0.30900767040E+02 -0.45910880415E+03  0.52898472053E+03  0.00000000000E+00 0.  1.
<mgrwt>
<rscale>  0 0.12576766E+04</rscale>
<asrwt>0</asrwt>
<pdfrwt beam="1">  1        2 0.90794752E-01 0.12576766E+04</pdfrwt>
<pdfrwt beam="2">  1       -1 0.10308382E+00 0.12576766E+04</pdfrwt>
<totfact> 0.50540047E+01</totfact>
</mgrwt>
</event>
<event>
12    7  0.1741211E-007  0.1677330E+04  0.7818608E-02  0.8774401E-01
         -1   -1    0    0    0  501 -0.00000000000E+00  0.00000000000E+00  0.35738633429E+03  0.35738633429E+03  0.00000000000E+00 0.  1.
          2   -1    0    0  501    0  0.00000000000E+00 -0.00000000000E+00 -0.19680633947E+04  0.19680633947E+04  0.00000000000E+00 0. -1.
         24    2    1    2    0    0 -0.14740081251E+03 -0.46857926621E+03 -0.10758802358E+03  0.50913376012E+03  0.79677315633E+02 0.  0.
        254    2    1    2    0    0  0.14740081251E+03  0.46857926621E+03 -0.15030890368E+04  0.18163159689E+04  0.89355107179E+03 0.  0.
         23    2    4    4    0    0  0.61547960643E+01 -0.15759578911E+03 -0.94105507993E+03  0.95825511240E+03  0.88282969634E+02 0.  0.
         23    2    4    4    0    0  0.14124601644E+03  0.62617505532E+03 -0.56203395692E+03  0.85806085648E+03  0.91327036741E+02 0.  0.
          2    1    3    3  502    0 -0.81612649171E+02 -0.27593131291E+03 -0.10262912929E+03  0.30550196747E+03  0.00000000000E+00 0. -1.
         -1    1    3    3    0  502 -0.65788163335E+02 -0.19264795330E+03 -0.49588942941E+01  0.20363179265E+03  0.00000000000E+00 0.  1.
         13    1    5    5    0    0  0.29851265986E+02 -0.16245771330E+02 -0.11727170902E+03  0.12209699793E+03  0.00000000000E+00 0.  1.
        -13    1    5    5    0    0 -0.23696469922E+02 -0.14135001778E+03 -0.82378337091E+03  0.83615811448E+03  0.00000000000E+00 0. -1.
          2    1    6    6  503    0  0.14384960643E+03  0.62856711851E+03 -0.55846699255E+03  0.85303851819E+03  0.00000000000E+00 0. -1.
         -2    1    6    6    0  503 -0.26035899901E+01 -0.23920631944E+01 -0.35669643660E+01  0.50223382952E+01  0.00000000000E+00 0.  1.
<mgrwt>
<rscale>  0 0.16773300E+04</rscale>
<asrwt>0</asrwt>
<pdfrwt beam="1">  1        2 0.30277899E+00 0.16773300E+04</pdfrwt>
<pdfrwt beam="2">  1       -1 0.54982512E-01 0.16773300E+04</pdfrwt>
<totfact> 0.25266063E+01</totfact>
</mgrwt>
</event>
<event>
12    7  0.1741211E-007  0.1095191E+04  0.7818608E-02  0.9209891E-01
          2   -1    0    0  501    0  0.00000000000E+00  0.00000000000E+00  0.12340551133E+04  0.12340551133E+04  0.00000000000E+00 0. -1.
         -1   -1    0    0    0  501 -0.00000000000E+00 -0.00000000000E+00 -0.24298833495E+03  0.24298833495E+03  0.00000000000E+00 0.  1.
         24    2    1    2    0    0 -0.51507818119E+02  0.13981163519E+03  0.77267390258E+02  0.18410162810E+03  0.75649264435E+02 0.  0.
        254    2    1    2    0    0  0.51507818119E+02 -0.13981163519E+03  0.91379938809E+03  0.12929418202E+04  0.90247929614E+03 0.  0.
         23    2    4    4    0    0  0.82708552889E+01  0.66892701676E+02  0.10293693026E+04  0.10355468847E+04  0.90626423884E+02 0.  0.
         23    2    4    4    0    0  0.43236962830E+02 -0.20670433686E+03 -0.11556991448E+03  0.25739493548E+03  0.91102304263E+02 0.  0.
          4    1    3    3  502    0  0.73854841254E+01  0.26354159825E+01  0.24567471348E+02  0.25788591307E+02  0.00000000000E+00 0. -1.
         -3    1    3    3    0  502 -0.58893302245E+02  0.13717621921E+03  0.52699918910E+02  0.15831303679E+03  0.00000000000E+00 0.  1.
         13    1    5    5    0    0 -0.22408043490E+02  0.39749464681E+02  0.19886144762E+03  0.20402944813E+03  0.00000000000E+00 0. -1.
        -13    1    5    5    0    0  0.30678898779E+02  0.27143236995E+02  0.83050785496E+03  0.83151743655E+03  0.00000000000E+00 0.  1.
          1    1    6    6  503    0  0.14033761852E+02  0.20684989559E+00  0.64167010194E+01  0.15432540639E+02  0.00000000000E+00 0. -1.
         -1    1    6    6    0  503  0.29203200978E+02 -0.20691118676E+03 -0.12198661550E+03  0.24196239484E+03  0.00000000000E+00 0.  1.
<mgrwt>
<rscale>  0 0.10951913E+04</rscale>
<asrwt>0</asrwt>
<pdfrwt beam="1">  1        2 0.18985463E+00 0.10951913E+04</pdfrwt>
<pdfrwt beam="2">  1       -1 0.37382821E-01 0.10951913E+04</pdfrwt>
<totfact> 0.14086277E+02</totfact>
</mgrwt>
</event>
<event>
12    7  0.1741211E-007  0.1526236E+04  0.7818608E-02  0.8867191E-01
         -1   -1    0    0    0  501 -0.00000000000E+00  0.00000000000E+00  0.61737648802E+03  0.61737648802E+03  0.00000000000E+00 0.  1.
          2   -1    0    0  501    0  0.00000000000E+00 -0.00000000000E+00 -0.94326469955E+03  0.94326469955E+03  0.00000000000E+00 0. -1.
         24    2    1    2    0    0  0.23950863913E+03  0.18974356179E+03 -0.49427825013E+03  0.58969470898E+03  0.10030879220E+03 0.  0.
        254    2    1    2    0    0 -0.23950863913E+03 -0.18974356179E+03  0.16839003860E+03  0.97094647858E+03  0.90609869866E+03 0.  0.
         23    2    4    4    0    0 -0.35968564285E+03  0.13961841436E+03  0.38433154430E+03  0.55090855153E+03  0.83201159296E+02 0.  0.
         23    2    4    4    0    0  0.12017700372E+03 -0.32936197615E+03 -0.21594150569E+03  0.42003792705E+03  0.82941562108E+02 0.  0.
          2    1    3    3  502    0  0.21652548518E+03  0.13600532425E+03 -0.44506981061E+03  0.51329121391E+03  0.00000000000E+00 0. -1.
         -1    1    3    3    0  502  0.22983153947E+02  0.53738237546E+02 -0.49208439516E+02  0.76403495074E+02  0.00000000000E+00 0.  1.
         13    1    5    5    0    0 -0.23837551830E+03  0.11225074816E+03  0.30657426584E+03  0.40424113925E+03  0.00000000000E+00 0. -1.
        -13    1    5    5    0    0 -0.12131012456E+03  0.27367666199E+02  0.77757278454E+02  0.14666741228E+03  0.00000000000E+00 0.  1.
          1    1    6    6  503    0  0.85072431263E+02 -0.20214318567E+03 -0.17872736753E+03  0.28291811179E+03  0.00000000000E+00 0. -1.
         -1    1    6    6    0  503  0.35104572458E+02 -0.12721879048E+03 -0.37214138162E+02  0.13711981527E+03  0.00000000000E+00 0.  1.
<mgrwt>
<rscale>  0 0.15262365E+04</rscale>
<asrwt>0</asrwt>
<pdfrwt beam="1">  1        2 0.14511765E+00 0.15262365E+04</pdfrwt>
<pdfrwt beam="2">  1       -1 0.94980998E-01 0.15262365E+04</pdfrwt>
<totfact> 0.32342245E+01</totfact>
</mgrwt>
</event>
<event>
12    7  0.1741211E-007  0.1672461E+04  0.7818608E-02  0.8777228E-01
         -1   -1    0    0    0  501 -0.00000000000E+00  0.00000000000E+00  0.48150379208E+03  0.48150379208E+03  0.00000000000E+00 0.  1.
          2   -1    0    0  501    0  0.00000000000E+00 -0.00000000000E+00 -0.14522869959E+04  0.14522869959E+04  0.00000000000E+00 0. -1.
         24    2    1    2    0    0  0.14662901466E+03 -0.26842503182E+02 -0.99818844648E+03  0.10124964682E+04  0.80921785901E+02 0.  0.
        254    2    1    2    0    0 -0.14662901466E+03  0.26842503182E+02  0.27405242615E+02  0.92129431987E+03  0.90874176122E+03 0.  0.
         23    2    4    4    0    0 -0.24497524167E+03 -0.51518874671E+02 -0.39205569393E+03  0.47395001387E+03  0.90850894498E+02 0.  0.
         23    2    4    4    0    0  0.98346227011E+02  0.78361377853E+02  0.41946093654E+03  0.44734430600E+03  0.91416436813E+02 0.  0.
          4    1    3    3  502    0  0.14037866712E+03 -0.15116607184E+02 -0.97916367862E+03  0.98929075176E+03  0.00000000000E+00 0. -1.
         -3    1    3    3    0  502  0.62503475452E+01 -0.11725895998E+02 -0.19024767857E+02  0.23205716395E+02  0.00000000000E+00 0.  1.
         13    1    5    5    0    0 -0.96450396209E+02 -0.38281313453E+02 -0.91122650668E+02  0.13809951250E+03  0.00000000000E+00 0.  1.
        -13    1    5    5    0    0 -0.14852484546E+03 -0.13237561219E+02 -0.30093304326E+03  0.33585050137E+03  0.00000000000E+00 0. -1.
          2    1    6    6  503    0  0.17756203465E+02  0.63405487836E+02  0.25799850681E+03  0.26626822597E+03  0.00000000000E+00 0. -1.
         -2    1    6    6    0  503  0.80590023546E+02  0.14955890018E+02  0.16146242974E+03  0.18107608003E+03  0.00000000000E+00 0.  1.
<mgrwt>
<rscale>  0 0.16724613E+04</rscale>
<asrwt>0</asrwt>
<pdfrwt beam="1">  1        2 0.22342877E+00 0.16724613E+04</pdfrwt>
<pdfrwt beam="2">  1       -1 0.74077508E-01 0.16724613E+04</pdfrwt>
<totfact> 0.26936985E+01</totfact>
</mgrwt>
</event>
<event>
12    7  0.1741211E-007  0.2945270E+04  0.7818608E-02  0.8259534E-01
         -3   -1    0    0    0  501 -0.00000000000E+00  0.00000000000E+00  0.97615719355E+03  0.97615719355E+03  0.00000000000E+00 0.  1.
          2   -1    0    0  501    0  0.00000000000E+00 -0.00000000000E+00 -0.22216237690E+04  0.22216237690E+04  0.00000000000E+00 0. -1.
         24    2    1    2    0    0  0.13038676642E+04  0.25883005541E+03 -0.44616242956E+03  0.14044819408E+04  0.80279046359E+02 0.  0.
        254    2    1    2    0    0 -0.13038676642E+04 -0.25883005541E+03 -0.79930414592E+03  0.17932990218E+04  0.89998354458E+03 0.  0.
         23    2    4    4    0    0  0.10567179438E+03 -0.51832232903E+02  0.14943701873E+02  0.14980243845E+03  0.91456808636E+02 0.  0.
         23    2    4    4    0    0 -0.14095394586E+04 -0.20699782251E+03 -0.81424784779E+03  0.16434965833E+04  0.91825257834E+02 0.  0.
          2    1    3    3  502    0  0.11998768958E+04  0.24885725378E+03 -0.39060528184E+03  0.12861597817E+04  0.00000000000E+00 0. -1.
         -1    1    3    3    0  502  0.10399076838E+03  0.99728016285E+01 -0.55557147719E+02  0.11832215914E+03  0.00000000000E+00 0.  1.
         13    1    5    5    0    0  0.81846062903E+02  0.10300958174E+02  0.94524919895E+01  0.83031544348E+02  0.00000000000E+00 0.  1.
        -13    1    5    5    0    0  0.23825731478E+02 -0.62133191076E+02  0.54912098833E+01  0.66770894106E+02  0.00000000000E+00 0. -1.
          2    1    6    6  503    0 -0.42858671386E+03 -0.79222206735E+02 -0.20453541860E+03  0.48145349391E+03  0.00000000000E+00 0. -1.
         -2    1    6    6    0  503 -0.98095274469E+03 -0.12777561577E+03 -0.60971242920E+03  0.11620430894E+04  0.00000000000E+00 0.  1.
<mgrwt>
<rscale>  0 0.29452701E+04</rscale>
<asrwt>0</asrwt>
<pdfrwt beam="1">  1        2 0.34178827E+00 0.29452701E+04</pdfrwt>
<pdfrwt beam="2">  1       -3 0.15017803E+00 0.29452701E+04</pdfrwt>
<totfact> 0.88200474E-01</totfact>
</mgrwt>
</event>
<event>
12    7  0.1741211E-007  0.1047810E+04  0.7818608E-02  0.9257608E-01
         -1   -1    0    0    0  501 -0.00000000000E+00  0.00000000000E+00  0.32030734482E+03  0.32030734482E+03  0.00000000000E+00 0.  1.
          2   -1    0    0  501    0  0.00000000000E+00 -0.00000000000E+00 -0.85691629318E+03  0.85691629318E+03  0.00000000000E+00 0. -1.
         24    2    1    2    0    0 -0.11050279054E+03  0.43849123828E+02 -0.49387024241E+02  0.15233986452E+03  0.81453936568E+02 0.  0.
        254    2    1    2    0    0  0.11050279054E+03 -0.43849123828E+02 -0.48722192412E+03  0.10248837735E+04  0.89379412250E+03 0.  0.
         23    2    4    4    0    0  0.46331713270E+03  0.73528170452E+02 -0.11711335132E+03  0.49234984148E+03  0.92863728352E+02 0.  0.
         23    2    4    4    0    0 -0.35281434216E+03 -0.11737729428E+03 -0.37010857280E+03  0.53253393200E+03  0.91414680569E+02 0.  0.
          2    1    3    3  502    0 -0.53928704576E+02  0.31040212320E+02 -0.67274256217E+02  0.91638559066E+02  0.00000000000E+00 0. -1.
         -1    1    3    3    0  502 -0.56574085963E+02  0.12808911508E+02  0.17887231976E+02  0.60701305458E+02  0.00000000000E+00 0.  1.
         13    1    5    5    0    0  0.25591790810E+03  0.59604229212E+02 -0.21790113399E+02  0.26366920349E+03  0.00000000000E+00 0. -1.
        -13    1    5    5    0    0  0.20739922460E+03  0.13923941240E+02 -0.95323237917E+02  0.22868063799E+03  0.00000000000E+00 0.  1.
          3    1    6    6  503    0 -0.56439868438E+02  0.12548047823E+01 -0.97849220083E+02  0.11296682325E+03  0.00000000000E+00 0. -1.
         -3    1    6    6    0  503 -0.29637447372E+03 -0.11863209906E+03 -0.27225935272E+03  0.41956710875E+03  0.00000000000E+00 0.  1.
<mgrwt>
<rscale>  0 0.10478103E+04</rscale>
<asrwt>0</asrwt>
<pdfrwt beam="1">  1        2 0.13183328E+00 0.10478103E+04</pdfrwt>
<pdfrwt beam="2">  1       -1 0.49278053E-01 0.10478103E+04</pdfrwt>
<totfact> 0.14712295E+02</totfact>
</mgrwt>
</event>
<event>
12    7  0.1741211E-007  0.1821265E+04  0.7818608E-02  0.8695072E-01
         -1   -1    0    0    0  501 -0.00000000000E+00  0.00000000000E+00  0.23068839065E+03  0.23068839065E+03  0.00000000000E+00 0.  1.
          2   -1    0    0  501    0  0.00000000000E+00 -0.00000000000E+00 -0.35946814922E+04  0.35946814922E+04  0.00000000000E+00 0. -1.
         24    2    1    2    0    0 -0.20046380334E+03  0.60524094563E+03 -0.17026804976E+04  0.18200030375E+04  0.82388354012E+02 0.  0.
        254    2    1    2    0    0  0.20046380334E+03 -0.60524094563E+03 -0.16613126040E+04  0.20053668454E+04  0.92468063552E+03 0.  0.
         23    2    4    4    0    0 -0.76020073706E+01 -0.19889775947E+03  0.55674851146E+02  0.22637162809E+03  0.92338051288E+02 0.  0.
         23    2    4    4    0    0  0.20806581071E+03 -0.40634318615E+03 -0.17169874551E+04  0.17789952173E+04  0.91498063233E+02 0.  0.
          2    1    3    3  502    0  0.30230598511E+01  0.65096487070E+02 -0.15195030117E+03  0.16533476811E+03  0.00000000000E+00 0. -1.
         -1    1    3    3    0  502 -0.20348686319E+03  0.54014445855E+03 -0.15507301965E+04  0.16546682694E+04  0.00000000000E+00 0.  1.
         13    1    5    5    0    0 -0.40869130530E+02 -0.12263087023E+03  0.58634152342E+01  0.12939472865E+03  0.00000000000E+00 0.  1.
        -13    1    5    5    0    0  0.33267123160E+02 -0.76266889239E+02  0.49811435912E+02  0.96976899440E+02  0.00000000000E+00 0. -1.
          1    1    6    6  503    0  0.17360036488E+03 -0.38936341476E+03 -0.15424555842E+04  0.16002844074E+04  0.00000000000E+00 0. -1.
         -1    1    6    6    0  503  0.34465445827E+02 -0.16979771399E+02 -0.17453187096E+03  0.17871080990E+03  0.00000000000E+00 0.  1.
<mgrwt>
<rscale>  0 0.18212647E+04</rscale>
<asrwt>0</asrwt>
<pdfrwt beam="1">  1        2 0.55302787E+00 0.18212647E+04</pdfrwt>
<pdfrwt beam="2">  1       -1 0.35490525E-01 0.18212647E+04</pdfrwt>
<totfact> 0.57062738E+00</totfact>
</mgrwt>
</event>
<event>
12    7  0.1741211E-007  0.1733689E+04  0.7818608E-02  0.8742380E-01
          2   -1    0    0  501    0  0.00000000000E+00  0.00000000000E+00  0.17650236886E+04  0.17650236886E+04  0.00000000000E+00 0. -1.
         -1   -1    0    0    0  501 -0.00000000000E+00 -0.00000000000E+00 -0.42572782996E+03  0.42572782996E+03  0.00000000000E+00 0.  1.
         24    2    1    2    0    0 -0.48456551927E+03 -0.22041191349E+02  0.99057095200E+03  0.11058432397E+04  0.79805409040E+02 0.  0.
        254    2    1    2    0    0  0.48456551927E+03  0.22041191349E+02  0.34872490663E+03  0.10849082788E+04  0.90560883187E+03 0.  0.
         23    2    4    4    0    0  0.30027136194E+03 -0.93160001300E+01 -0.28118857016E+03  0.42148965541E+03  0.91306292067E+02 0.  0.
         23    2    4    4    0    0  0.18429415734E+03  0.31357191479E+02  0.62991347679E+03  0.66341862341E+03  0.91573313589E+02 0.  0.
          4    1    3    3  502    0 -0.40191567749E+03 -0.22898968591E+02  0.88077446404E+03  0.96841325429E+03  0.00000000000E+00 0. -1.
         -3    1    3    3    0  502 -0.82649841781E+02  0.85777724229E+00  0.10979648795E+03  0.13742998543E+03  0.00000000000E+00 0.  1.
         13    1    5    5    0    0  0.25534791008E+03  0.25082250797E+02 -0.21812398061E+03  0.33676363433E+03  0.00000000000E+00 0.  1.
        -13    1    5    5    0    0  0.44923451854E+02 -0.34398250927E+02 -0.63064589543E+02  0.84726021077E+02  0.00000000000E+00 0. -1.
          4    1    6    6  503    0  0.76714706475E+02  0.55954307304E+02  0.23734381630E+03  0.25563277926E+03  0.00000000000E+00 0. -1.
         -4    1    6    6    0  503  0.10757945086E+03 -0.24597115825E+02  0.39256966049E+03  0.40778584415E+03  0.00000000000E+00 0.  1.
<mgrwt>
<rscale>  0 0.17336894E+04</rscale>
<asrwt>0</asrwt>
<pdfrwt beam="1">  1        2 0.27154210E+00 0.17336894E+04</pdfrwt>
<pdfrwt beam="2">  1       -1 0.65496590E-01 0.17336894E+04</pdfrwt>
<totfact> 0.23049646E+01</totfact>
</mgrwt>
</event>
<event>
12    7  0.1741211E-007  0.2220982E+04  0.7818608E-02  0.8509745E-01
          2   -1    0    0  501    0  0.00000000000E+00  0.00000000000E+00  0.20412046351E+04  0.20412046351E+04  0.00000000000E+00 0. -1.
         -1   -1    0    0    0  501 -0.00000000000E+00 -0.00000000000E+00 -0.60414814120E+03  0.60414814120E+03  0.00000000000E+00 0.  1.
         24    2    1    2    0    0  0.53371249211E+02 -0.77022759775E+03  0.12115884020E+04  0.14388682683E+04  0.79349826238E+02 0.  0.
        254    2    1    2    0    0 -0.53371249211E+02  0.77022759775E+03  0.22546809187E+03  0.12064845080E+04  0.89926078813E+03 0.  0.
         23    2    4    4    0    0 -0.38603617968E+02  0.85258193665E+03  0.43644462781E+03  0.96187809678E+03  0.79620109875E+02 0.  0.
         23    2    4    4    0    0 -0.14767631243E+02 -0.82354338899E+02 -0.21097653595E+03  0.24460641124E+03  0.91218844726E+02 0.  0.
          4    1    3    3  502    0  0.73084202680E+02 -0.53876152872E+03  0.86137812574E+03  0.10186155119E+04  0.00000000000E+00 0. -1.
         -3    1    3    3    0  502 -0.19712953469E+02 -0.23146606903E+03  0.35021027628E+03  0.42025275639E+03  0.00000000000E+00 0.  1.
         13    1    5    5    0    0 -0.58986467642E+02  0.42713443459E+03  0.21504930870E+03  0.48183963489E+03  0.00000000000E+00 0.  1.
        -13    1    5    5    0    0  0.20382849674E+02  0.42544750205E+03  0.22139531912E+03  0.48003846189E+03  0.00000000000E+00 0. -1.
          4    1    6    6  503    0 -0.17308328601E+02  0.16166209170E+02 -0.57800475183E+02  0.62464545858E+02  0.00000000000E+00 0. -1.
         -4    1    6    6    0  503  0.25406973575E+01 -0.98520548069E+02 -0.15317606076E+03  0.18214186539E+03  0.00000000000E+00 0.  1.
<mgrwt>
<rscale>  0 0.22209818E+04</rscale>
<asrwt>0</asrwt>
<pdfrwt beam="1">  1        2 0.31403148E+00 0.22209818E+04</pdfrwt>
<pdfrwt beam="2">  1       -1 0.92945868E-01 0.22209818E+04</pdfrwt>
<totfact> 0.74004591E+00</totfact>
</mgrwt>
</event>
<event>
12    7  0.1741211E-007  0.4302930E+04  0.7818608E-02  0.7946077E-01
         -1   -1    0    0    0  501 -0.00000000000E+00  0.00000000000E+00  0.15068061344E+04  0.15068061344E+04  0.00000000000E+00 0.  1.
          2   -1    0    0  501    0  0.00000000000E+00 -0.00000000000E+00 -0.30719294170E+04  0.30719294170E+04  0.00000000000E+00 0. -1.
         24    2    1    2    0    0 -0.23057606314E+03  0.18932009052E+04  0.69238500963E+02  0.19100944586E+04  0.79321386628E+02 0.  0.
        254    2    1    2    0    0  0.23057606314E+03 -0.18932009052E+04 -0.16343617836E+04  0.26686410928E+04  0.90173824042E+03 0.  0.
         23    2    4    4    0    0  0.77376868254E+02 -0.18938774241E+04 -0.16061872284E+04  0.24860114224E+04  0.87501444091E+02 0.  0.
         23    2    4    4    0    0  0.15319919488E+03  0.67651889038E+00 -0.28174555248E+02  0.18262967039E+03  0.95338029930E+02 0.  0.
          4    1    3    3  502    0 -0.10028279737E+03  0.66730967486E+03  0.57427400053E+02  0.67724201575E+03  0.00000000000E+00 0. -1.
         -3    1    3    3    0  502 -0.13029326576E+03  0.12258912303E+04  0.11811100910E+02  0.12328524428E+04  0.00000000000E+00 0.  1.
         13    1    5    5    0    0  0.41055894712E+02 -0.48258167028E+03 -0.36937800319E+03  0.60910652945E+03  0.00000000000E+00 0. -1.
        -13    1    5    5    0    0  0.36320973541E+02 -0.14112957538E+04 -0.12368092252E+04  0.18769048930E+04  0.00000000000E+00 0.  1.
          1    1    6    6  503    0  0.52635676666E+01  0.55569667242E+01  0.24385549928E+02  0.25558561561E+02  0.00000000000E+00 0. -1.
         -1    1    6    6    0  503  0.14793562722E+03 -0.48804478338E+01 -0.52560105177E+02  0.15707110883E+03  0.00000000000E+00 0.  1.
<mgrwt>
<rscale>  0 0.43029302E+04</rscale>
<asrwt>0</asrwt>
<pdfrwt beam="1">  1        2 0.47260452E+00 0.43029302E+04</pdfrwt>
<pdfrwt beam="2">  1       -1 0.23181633E+00 0.43029302E+04</pdfrwt>
<totfact> 0.12579780E-01</totfact>
</mgrwt>
</event>
<event>
12    7  0.1741211E-007  0.2243298E+04  0.7818608E-02  0.8500620E-01
         -1   -1    0    0    0  501 -0.00000000000E+00  0.00000000000E+00  0.49336330261E+03  0.49336330261E+03  0.00000000000E+00 0.  1.
          2   -1    0    0  501    0  0.00000000000E+00 -0.00000000000E+00 -0.25500411745E+04  0.25500411745E+04  0.00000000000E+00 0. -1.
         24    2    1    2    0    0 -0.37218876106E+03  0.25855294933E+02 -0.20353603978E+04  0.20712455862E+04  0.90406632943E+02 0.  0.
        254    2    1    2    0    0  0.37218876106E+03 -0.25855294933E+02 -0.21317474088E+02  0.97215889091E+03  0.89746615776E+03 0.  0.
         23    2    4    4    0    0  0.65561263806E+03 -0.86940860938E+02 -0.24201474300E+00  0.66731939676E+03  0.89041980227E+02 0.  0.
         23    2    4    4    0    0 -0.28342387699E+03  0.61085566005E+02 -0.21075459345E+02  0.30483949415E+03  0.91773644266E+02 0.  0.
          2    1    3    3  502    0 -0.14537582765E+03 -0.80185296957E+01 -0.10179504630E+04  0.10283100570E+04  0.00000000000E+00 0. -1.
         -1    1    3    3    0  502 -0.22681293341E+03  0.33873824629E+02 -0.10174099347E+04  0.10429355292E+04  0.00000000000E+00 0.  1.
         13    1    5    5    0    0  0.59975719737E+03 -0.62160267697E+02  0.18959472365E+02  0.60326781471E+03  0.00000000000E+00 0.  1.
        -13    1    5    5    0    0  0.55855440689E+02 -0.24780593241E+02 -0.19201487108E+02  0.64051582050E+02  0.00000000000E+00 0. -1.
          4    1    6    6  503    0 -0.12466068673E+03 -0.18788980993E+02 -0.15614328114E+02  0.12703196395E+03  0.00000000000E+00 0. -1.
         -4    1    6    6    0  503 -0.15876319027E+03  0.79874546998E+02 -0.54611312311E+01  0.17780753020E+03  0.00000000000E+00 0.  1.
<mgrwt>
<rscale>  0 0.22432982E+04</rscale>
<asrwt>0</asrwt>
<pdfrwt beam="1">  1        2 0.39231403E+00 0.22432982E+04</pdfrwt>
<pdfrwt beam="2">  1       -1 0.75902046E-01 0.22432982E+04</pdfrwt>
<totfact> 0.58830915E+00</totfact>
</mgrwt>
</event>
<event>
12    7  0.1741211E-007  0.1349917E+04  0.7818608E-02  0.8990891E-01
         -1   -1    0    0    0  501 -0.00000000000E+00  0.00000000000E+00  0.29439847623E+03  0.29439847623E+03  0.00000000000E+00 0.  1.
          2   -1    0    0  501    0  0.00000000000E+00 -0.00000000000E+00 -0.15474577913E+04  0.15474577913E+04  0.00000000000E+00 0. -1.
         24    2    1    2    0    0 -0.94857527194E+02  0.36236962282E+03 -0.31611053038E+03  0.49664963762E+03  0.80157976046E+02 0.  0.
        254    2    1    2    0    0  0.94857527194E+02 -0.36236962282E+03 -0.93694878466E+03  0.13452066299E+04  0.88960561936E+03 0.  0.
         23    2    4    4    0    0  0.19930966865E+03  0.23843633647E+03 -0.18492380206E+03  0.37265972767E+03  0.90012385208E+02 0.  0.
         23    2    4    4    0    0 -0.10445214146E+03 -0.60080595929E+03 -0.75202498260E+03  0.97254690221E+03  0.91803333145E+02 0.  0.
          4    1    3    3  502    0 -0.27621146611E+02  0.82149833989E+02 -0.33185800245E+02  0.92805281651E+02  0.00000000000E+00 0. -1.
         -3    1    3    3    0  502 -0.67236380583E+02  0.28021978883E+03 -0.28292473013E+03  0.40384435597E+03  0.00000000000E+00 0.  1.
         13    1    5    5    0    0  0.54423663227E+02  0.49893119960E+02 -0.41246289430E+01  0.73947759279E+02  0.00000000000E+00 0. -1.
        -13    1    5    5    0    0  0.14488600543E+03  0.18854321651E+03 -0.18079917312E+03  0.29871196840E+03  0.00000000000E+00 0.  1.
          4    1    6    6  503    0 -0.73588464847E+02 -0.52868428985E+03 -0.61226211389E+03  0.81227288309E+03  0.00000000000E+00 0. -1.
         -4    1    6    6    0  503 -0.30863676614E+02 -0.72121669439E+02 -0.13976286871E+03  0.16027401913E+03  0.00000000000E+00 0.  1.
<mgrwt>
<rscale>  0 0.13499174E+04</rscale>
<asrwt>0</asrwt>
<pdfrwt beam="1">  1        2 0.23807042E+00 0.13499174E+04</pdfrwt>
<pdfrwt beam="2">  1       -1 0.45292074E-01 0.13499174E+04</pdfrwt>
<totfact> 0.64260170E+01</totfact>
</mgrwt>
</event>
<event>
12    7  0.1741211E-007  0.1535572E+04  0.7818608E-02  0.8861136E-01
          4   -1    0    0  501    0  0.00000000000E+00  0.00000000000E+00  0.12005574921E+04  0.12005574921E+04  0.00000000000E+00 0. -1.
         -3   -1    0    0    0  501 -0.00000000000E+00 -0.00000000000E+00 -0.49101806664E+03  0.49101806664E+03  0.00000000000E+00 0.  1.
         24    2    1    2    0    0 -0.14356186360E+03  0.25213886255E+03 -0.22076569833E+03  0.37622460181E+03  0.92862493809E+02 0.  0.
        254    2    1    2    0    0  0.14356186360E+03 -0.25213886255E+03  0.93030512385E+03  0.13153509570E+04  0.88345713075E+03 0.  0.
         23    2    4    4    0    0  0.99264727274E+02  0.20255427805E+03  0.79259158375E+03  0.82932179520E+03  0.93228213202E+02 0.  0.
         23    2    4    4    0    0  0.44297136324E+02 -0.45469314060E+03  0.13771354010E+03  0.48602916177E+03  0.92472907242E+02 0.  0.
          4    1    3    3  502    0 -0.16818618502E+02 -0.16148784397E+01 -0.17189309739E+00  0.16896843135E+02  0.00000000000E+00 0. -1.
         -1    1    3    3    0  502 -0.12674324510E+03  0.25375374099E+03 -0.22059380524E+03  0.35932775867E+03  0.00000000000E+00 0.  1.
         13    1    5    5    0    0  0.71868739158E+01  0.73050236334E+02  0.38333464434E+03  0.39029916440E+03  0.00000000000E+00 0.  1.
        -13    1    5    5    0    0  0.92077853358E+02  0.12950404171E+03  0.40925693941E+03  0.43902263080E+03  0.00000000000E+00 0. -1.
          3    1    6    6  503    0 -0.18960715729E+02 -0.57267628652E+02 -0.10925384005E+01  0.60334763383E+02  0.00000000000E+00 0. -1.
         -3    1    6    6    0  503  0.63257852053E+02 -0.39742551195E+03  0.13880607850E+03  0.42569439839E+03  0.00000000000E+00 0.  1.
<mgrwt>
<rscale>  0 0.15355721E+04</rscale>
<asrwt>0</asrwt>
<pdfrwt beam="1">  1        4 0.18470115E+00 0.15355721E+04</pdfrwt>
<pdfrwt beam="2">  1       -3 0.75541242E-01 0.15355721E+04</pdfrwt>
<totfact> 0.60674724E-01</totfact>
</mgrwt>
</event>
<event>
12    7  0.1741211E-007  0.1273511E+04  0.7818608E-02  0.9050839E-01
         -1   -1    0    0    0  501 -0.00000000000E+00  0.00000000000E+00  0.30410102710E+03  0.30410102710E+03  0.00000000000E+00 0.  1.
          2   -1    0    0  501    0  0.00000000000E+00 -0.00000000000E+00 -0.13332983786E+04  0.13332983786E+04  0.00000000000E+00 0. -1.
         24    2    1    2    0    0  0.17608723646E+03  0.13368314771E+03  0.39008153675E+02  0.23711410594E+03  0.76312281834E+02 0.  0.
        254    2    1    2    0    0 -0.17608723646E+03 -0.13368314771E+03 -0.10682055052E+04  0.14002852998E+04  0.87798520523E+03 0.  0.
         23    2    4    4    0    0 -0.27517492879E+03 -0.40047468028E+03 -0.30030820776E+03  0.57662616463E+03  0.78813089743E+02 0.  0.
         23    2    4    4    0    0  0.99087692329E+02  0.26679153256E+03 -0.76789729745E+03  0.82365913516E+03  0.88045550013E+02 0.  0.
          4    1    3    3  502    0  0.38242710882E+02  0.11251404035E+02 -0.18556326760E+02  0.43970857294E+02  0.00000000000E+00 0. -1.
         -3    1    3    3    0  502  0.13784452557E+03  0.12243174368E+03  0.57564480435E+02  0.19314324865E+03  0.00000000000E+00 0.  1.
         13    1    5    5    0    0 -0.22824980916E+03 -0.37289228857E+03 -0.27584936756E+03  0.51695213302E+03  0.00000000000E+00 0.  1.
        -13    1    5    5    0    0 -0.46925119626E+02 -0.27582391705E+02 -0.24458840203E+02  0.59674031607E+02  0.00000000000E+00 0. -1.
          2    1    6    6  503    0  0.59803834072E+02  0.22671516282E+03 -0.68082751471E+03  0.72007108566E+03  0.00000000000E+00 0.  1.
         -2    1    6    6    0  503  0.39283858257E+02  0.40076369744E+02 -0.87069782739E+02  0.10358804949E+03  0.00000000000E+00 0. -1.
<mgrwt>
<rscale>  0 0.12735107E+04</rscale>
<asrwt>0</asrwt>
<pdfrwt beam="1">  1        2 0.20512282E+00 0.12735107E+04</pdfrwt>
<pdfrwt beam="2">  1       -1 0.46784774E-01 0.12735107E+04</pdfrwt>
<totfact> 0.80529155E+01</totfact>
</mgrwt>
</event>
<event>
12    7  0.1741211E-007  0.1355656E+04  0.7818608E-02  0.8986557E-01
          2   -1    0    0  501    0  0.00000000000E+00  0.00000000000E+00  0.10572290098E+04  0.10572290098E+04  0.00000000000E+00 0. -1.
         -1   -1    0    0    0  501 -0.00000000000E+00 -0.00000000000E+00 -0.43458038355E+03  0.43458038355E+03  0.00000000000E+00 0.  1.
         24    2    1    2    0    0 -0.14269233468E+03 -0.11219794875E+02  0.48889304788E+03  0.51570907913E+03  0.80327180033E+02 0.  0.
        254    2    1    2    0    0  0.14269233468E+03  0.11219794875E+02  0.13375557837E+03  0.97610031422E+03  0.95623965746E+03 0.  0.
         23    2    4    4    0    0 -0.33897649166E+03  0.22086781872E+03 -0.37634245081E+02  0.41645927678E+03  0.91292593131E+02 0.  0.
         23    2    4    4    0    0  0.48166882634E+03 -0.20964802385E+03  0.17138982345E+03  0.55964103745E+03  0.88693105924E+02 0.  0.
          4    1    3    3  502    0 -0.12747253224E+03  0.18524802337E+02  0.41677990041E+03  0.43623147544E+03  0.00000000000E+00 0. -1.
         -3    1    3    3    0  502 -0.15219802440E+02 -0.29744597212E+02  0.72113147473E+02  0.79477603688E+02  0.00000000000E+00 0.  1.
         13    1    5    5    0    0 -0.23847989370E+03  0.18255731417E+03  0.60023867017E+01  0.30039284495E+03  0.00000000000E+00 0. -1.
        -13    1    5    5    0    0 -0.10049659797E+03  0.38310504558E+02 -0.43636631783E+02  0.11606643182E+03  0.00000000000E+00 0.  1.
          3    1    6    6  503    0  0.85440747268E+01 -0.38144595958E+01 -0.90717027407E+01  0.13032540257E+02  0.00000000000E+00 0. -1.
         -3    1    6    6    0  503  0.47312475161E+03 -0.20583356425E+03  0.18046152619E+03  0.54660849719E+03  0.00000000000E+00 0.  1.
<mgrwt>
<rscale>  0 0.13556563E+04</rscale>
<asrwt>0</asrwt>
<pdfrwt beam="1">  1        2 0.16265062E+00 0.13556563E+04</pdfrwt>
<pdfrwt beam="2">  1       -1 0.66858521E-01 0.13556563E+04</pdfrwt>
<totfact> 0.58476876E+01</totfact>
</mgrwt>
</event>
<event>
12    7  0.1741211E-007  0.1741560E+04  0.7818608E-02  0.8738010E-01
         -1   -1    0    0    0  501 -0.00000000000E+00  0.00000000000E+00  0.30050137072E+03  0.30050137072E+03  0.00000000000E+00 0.  1.
          2   -1    0    0  501    0  0.00000000000E+00 -0.00000000000E+00 -0.25233083090E+04  0.25233083090E+04  0.00000000000E+00 0. -1.
         24    2    1    2    0    0  0.33114181320E+02  0.34482953305E+03 -0.16612590530E+04  0.16991681483E+04  0.85946489748E+02 0.  0.
        254    2    1    2    0    0 -0.33114181320E+02 -0.34482953305E+03 -0.56154788528E+03  0.11246415314E+04  0.91075715254E+03 0.  0.
         23    2    4    4    0    0 -0.35392786106E+03 -0.33868820205E+03 -0.60995764820E+03  0.78751237051E+03  0.90292702176E+02 0.  0.
         23    2    4    4    0    0  0.32081367974E+03 -0.61413309950E+01  0.48409762921E+02  0.33712916093E+03  0.91397116757E+02 0.  0.
          2    1    3    3  502    0  0.53470275706E+02  0.29971185966E+03 -0.14956329369E+04  0.15263040821E+04  0.00000000000E+00 0. -1.
         -1    1    3    3    0  502 -0.20356094386E+02  0.45117673383E+02 -0.16562611607E+03  0.17286406612E+03  0.00000000000E+00 0.  1.
         13    1    5    5    0    0 -0.14152215118E+03 -0.19577170852E+03 -0.31456177602E+03  0.39661592513E+03  0.00000000000E+00 0. -1.
        -13    1    5    5    0    0 -0.21240570987E+03 -0.14291649353E+03 -0.29539587218E+03  0.39089644538E+03  0.00000000000E+00 0.  1.
          2    1    6    6  503    0  0.56782386147E+02 -0.71010626429E+01 -0.25937235868E+02  0.62828374734E+02  0.00000000000E+00 0. -1.
         -2    1    6    6    0  503  0.26403129359E+03  0.95973164787E+00  0.74346998790E+02  0.27430078620E+03  0.00000000000E+00 0.  1.
<mgrwt>
<rscale>  0 0.17415598E+04</rscale>
<asrwt>0</asrwt>
<pdfrwt beam="1">  1        2 0.38820127E+00 0.17415598E+04</pdfrwt>
<pdfrwt beam="2">  1       -1 0.46230982E-01 0.17415598E+04</pdfrwt>
<totfact> 0.16992205E+01</totfact>
</mgrwt>
</event>
<event>
12    7  0.1741211E-007  0.1350154E+04  0.7818608E-02  0.8990711E-01
          2   -1    0    0  501    0  0.00000000000E+00  0.00000000000E+00  0.83291343632E+03  0.83291343632E+03  0.00000000000E+00 0. -1.
         -1   -1    0    0    0  501 -0.00000000000E+00 -0.00000000000E+00 -0.54715067329E+03  0.54715067329E+03  0.00000000000E+00 0.  1.
         24    2    1    2    0    0  0.36025142026E+03  0.51958368409E+02  0.37769065869E+02  0.37401343601E+03  0.77322636607E+02 0.  0.
        254    2    1    2    0    0 -0.36025142026E+03 -0.51958368409E+02  0.24799369716E+03  0.10060506736E+04  0.90451994239E+03 0.  0.
         23    2    4    4    0    0 -0.59868102934E+03 -0.10930210243E+03  0.36925054828E+03  0.71754014376E+03  0.90288238585E+02 0.  0.
         23    2    4    4    0    0  0.23842960907E+03  0.57343734019E+02 -0.12125685112E+03  0.28851052984E+03  0.91641254750E+02 0.  0.
          2    1    3    3  502    0  0.15474795369E+03  0.36709319779E+02 -0.19246579310E+02  0.16020279069E+03  0.00000000000E+00 0. -1.
         -1    1    3    3    0  502  0.20550346657E+03  0.15249048630E+02  0.57015645179E+02  0.21381064532E+03  0.00000000000E+00 0.  1.
         13    1    5    5    0    0 -0.47472637200E+03 -0.11010448328E+03  0.26020042407E+03  0.55244220168E+03  0.00000000000E+00 0. -1.
        -13    1    5    5    0    0 -0.12395465734E+03  0.80238085139E+00  0.10905012421E+03  0.16509794209E+03  0.00000000000E+00 0.  1.
          1    1    6    6  503    0  0.13034357803E+03  0.81550707297E+01 -0.10713846309E+03  0.16892188663E+03  0.00000000000E+00 0. -1.
         -1    1    6    6    0  503  0.10808603104E+03  0.49188663290E+02 -0.14118388031E+02  0.11958864321E+03  0.00000000000E+00 0.  1.
<mgrwt>
<rscale>  0 0.13501543E+04</rscale>
<asrwt>0</asrwt>
<pdfrwt beam="1">  1        2 0.12814053E+00 0.13501543E+04</pdfrwt>
<pdfrwt beam="2">  1       -1 0.84177027E-01 0.13501543E+04</pdfrwt>
<totfact> 0.50892780E+01</totfact>
</mgrwt>
</event>
<event>
12    7  0.1741211E-007  0.2015807E+04  0.7818608E-02  0.8599266E-01
         -1   -1    0    0    0  501 -0.00000000000E+00  0.00000000000E+00  0.45231899548E+03  0.45231899548E+03  0.00000000000E+00 0.  1.
          2   -1    0    0  501    0  0.00000000000E+00 -0.00000000000E+00 -0.22459142395E+04  0.22459142395E+04  0.00000000000E+00 0. -1.
         24    2    1    2    0    0  0.92256305600E+02 -0.30624005011E+03 -0.17100363830E+04  0.17410128646E+04  0.67876132748E+02 0.  0.
        254    2    1    2    0    0 -0.92256305600E+02  0.30624005011E+03 -0.83558861074E+02  0.95722037041E+03  0.89832875945E+03 0.  0.
         23    2    4    4    0    0  0.80886397182E+02  0.59205498223E+03 -0.80410935057E+02  0.60987974507E+03  0.91736981288E+02 0.  0.
         23    2    4    4    0    0 -0.17314270278E+03 -0.28581493212E+03 -0.31479260173E+01  0.34734062534E+03  0.94694401224E+02 0.  0.
          2    1    3    3  502    0  0.66093865618E+02 -0.28586463116E+03 -0.15605345262E+04  0.15878775123E+04  0.00000000000E+00 0. -1.
         -1    1    3    3    0  502  0.26162439981E+02 -0.20375418947E+02 -0.14950185672E+03  0.15313535231E+03  0.00000000000E+00 0.  1.
         13    1    5    5    0    0 -0.16677412646E+02  0.39953228877E+02  0.12248008184E+01  0.43311623467E+02  0.00000000000E+00 0. -1.
        -13    1    5    5    0    0  0.97563809828E+02  0.55210175335E+03 -0.81635735875E+02  0.56656812160E+03  0.00000000000E+00 0.  1.
          3    1    6    6  503    0 -0.73500023468E+01 -0.53250175996E+00 -0.15486548277E+02  0.17150488919E+02  0.00000000000E+00 0. -1.
         -3    1    6    6    0  503 -0.16579270043E+03 -0.28528243036E+03  0.12338622260E+02  0.33019013642E+03  0.00000000000E+00 0.  1.
<mgrwt>
<rscale>  0 0.20158072E+04</rscale>
<asrwt>0</asrwt>
<pdfrwt beam="1">  1        2 0.34552526E+00 0.20158072E+04</pdfrwt>
<pdfrwt beam="2">  1       -1 0.69587538E-01 0.20158072E+04</pdfrwt>
<totfact> 0.10732851E+01</totfact>
</mgrwt>
</event>
<event>
12    7  0.1741211E-007  0.1489987E+04  0.7818608E-02  0.8891139E-01
         -1   -1    0    0    0  501 -0.00000000000E+00  0.00000000000E+00  0.34105043472E+03  0.34105043472E+03  0.00000000000E+00 0.  1.
          2   -1    0    0  501    0  0.00000000000E+00 -0.00000000000E+00 -0.16273702112E+04  0.16273702112E+04  0.00000000000E+00 0. -1.
         24    2    1    2    0    0 -0.23369025874E+01 -0.21237653270E+03  0.13988287904E+03  0.26661987143E+03  0.80060497357E+02 0.  0.
        254    2    1    2    0    0  0.23369025874E+01  0.21237653270E+03 -0.14262026555E+04  0.17018007745E+04  0.90385983906E+03 0.  0.
         23    2    4    4    0    0 -0.24773443316E+03  0.14753597730E+03 -0.59057588759E+02  0.30745762734E+03  0.88899830416E+02 0.  0.
         23    2    4    4    0    0  0.25007133575E+03  0.64840555405E+02 -0.13671450667E+04  0.13943431471E+04  0.91472443050E+02 0.  0.
          4    1    3    3  502    0  0.10101648351E+02 -0.96911327283E+01  0.35785752557E+02  0.38426311806E+02  0.00000000000E+00 0. -1.
         -3    1    3    3    0  502 -0.12438550939E+02 -0.20268539998E+03  0.10409712648E+03  0.22819355963E+03  0.00000000000E+00 0.  1.
         13    1    5    5    0    0 -0.18078660097E+03  0.58098903022E+02 -0.41382643979E+02  0.19434968702E+03  0.00000000000E+00 0. -1.
        -13    1    5    5    0    0 -0.66947832195E+02  0.89437074277E+02 -0.17674944779E+02  0.11310794032E+03  0.00000000000E+00 0.  1.
          2    1    6    6  503    0  0.10996324562E+03  0.67536200919E+02 -0.52558894248E+03  0.54119939974E+03  0.00000000000E+00 0. -1.
         -2    1    6    6    0  503  0.14010809013E+03 -0.26956455135E+01 -0.84155612427E+03  0.85314374740E+03  0.00000000000E+00 0.  1.
<mgrwt>
<rscale>  0 0.14899870E+04</rscale>
<asrwt>0</asrwt>
<pdfrwt beam="1">  1        2 0.25036464E+00 0.14899870E+04</pdfrwt>
<pdfrwt beam="2">  1       -1 0.52469299E-01 0.14899870E+04</pdfrwt>
<totfact> 0.43400910E+01</totfact>
</mgrwt>
</event>
<event>
12    7  0.1741211E-007  0.1631006E+04  0.7818608E-02  0.8801723E-01
         -1   -1    0    0    0  501 -0.00000000000E+00  0.00000000000E+00  0.41585231747E+03  0.41585231747E+03  0.00000000000E+00 0.  1.
          2   -1    0    0  501    0  0.00000000000E+00 -0.00000000000E+00 -0.15992348516E+04  0.15992348516E+04  0.00000000000E+00 0. -1.
         24    2    1    2    0    0  0.17892445224E+02  0.36061038137E+03 -0.95888663594E+03  0.10278249245E+04  0.81243511284E+02 0.  0.
        254    2    1    2    0    0 -0.17892445224E+02 -0.36061038137E+03 -0.22449589821E+03  0.98726224457E+03  0.89102656778E+03 0.  0.
         23    2    4    4    0    0 -0.33983066767E+02 -0.24043371541E+03  0.32568969364E+03  0.41642524012E+03  0.91504009366E+02 0.  0.
         23    2    4    4    0    0  0.16090621542E+02 -0.12017666595E+03 -0.55018559185E+03  0.57083700444E+03  0.91920405893E+02 0.  0.
          4    1    3    3  502    0  0.16081505695E+02  0.31354867924E+03 -0.73858693511E+03  0.80254722590E+03  0.00000000000E+00 0. -1.
         -3    1    3    3    0  502  0.18109395296E+01  0.47061702121E+02 -0.22029970083E+03  0.22527769862E+03  0.00000000000E+00 0.  1.
         13    1    5    5    0    0  0.10324173670E+02 -0.15518450935E+03  0.24861406037E+03  0.29325376642E+03  0.00000000000E+00 0. -1.
        -13    1    5    5    0    0 -0.44307240436E+02 -0.85249206068E+02  0.77075633270E+02  0.12317147370E+03  0.00000000000E+00 0.  1.
          2    1    6    6  503    0  0.33768106472E+02 -0.32874270822E+01 -0.12504703399E+03  0.12956794704E+03  0.00000000000E+00 0.  1.
         -2    1    6    6    0  503 -0.17677484930E+02 -0.11688923887E+03 -0.42513855787E+03  0.44126905740E+03  0.00000000000E+00 0. -1.
<mgrwt>
<rscale>  0 0.16310065E+04</rscale>
<asrwt>0</asrwt>
<pdfrwt beam="1">  1        2 0.24603613E+00 0.16310065E+04</pdfrwt>
<pdfrwt beam="2">  1       -1 0.63977279E-01 0.16310065E+04</pdfrwt>
<totfact> 0.30144526E+01</totfact>
</mgrwt>
</event>
<event>
12    7  0.1741211E-007  0.1273445E+04  0.7818608E-02  0.9050893E-01
          2   -1    0    0  501    0  0.00000000000E+00  0.00000000000E+00  0.34866594555E+03  0.34866594555E+03  0.00000000000E+00 0. -1.
         -1   -1    0    0    0  501 -0.00000000000E+00 -0.00000000000E+00 -0.11627615911E+04  0.11627615911E+04  0.00000000000E+00 0.  1.
         24    2    1    2    0    0 -0.18773872961E+03  0.60965650141E+02 -0.48095243168E+03  0.52577194371E+03  0.78474544705E+02 0.  0.
        254    2    1    2    0    0  0.18773872961E+03 -0.60965650141E+02 -0.33314321388E+03  0.98565559295E+03  0.90640493482E+03 0.  0.
         23    2    4    4    0    0  0.41866498550E+03 -0.24097985329E+03 -0.44051252686E+03  0.66042387003E+03  0.93577465264E+02 0.  0.
         23    2    4    4    0    0 -0.23092625590E+03  0.18001420315E+03  0.10736931297E+03  0.32523172292E+03  0.92279224235E+02 0.  0.
          4    1    3    3  502    0 -0.52720024249E+02  0.22617135863E+02 -0.24144989998E+03  0.24817129164E+03  0.00000000000E+00 0. -1.
         -3    1    3    3    0  502 -0.13501870536E+03  0.38348514278E+02 -0.23950253169E+03  0.27760065207E+03  0.00000000000E+00 0.  1.
         13    1    5    5    0    0  0.41968314491E+03 -0.24483956918E+03 -0.42874922569E+03  0.64800174019E+03  0.00000000000E+00 0.  1.
        -13    1    5    5    0    0 -0.10181594098E+01  0.38597158881E+01 -0.11763301169E+02  0.12422129838E+02  0.00000000000E+00 0. -1.
          1    1    6    6  503    0 -0.45572152262E+02 -0.10224117359E+01  0.22963067210E+01  0.45641422109E+02  0.00000000000E+00 0. -1.
         -1    1    6    6    0  503 -0.18535410364E+03  0.18103661489E+03  0.10507300625E+03  0.27959030081E+03  0.00000000000E+00 0.  1.
<mgrwt>
<rscale>  0 0.12734447E+04</rscale>
<asrwt>0</asrwt>
<pdfrwt beam="1">  1        2 0.53640915E-01 0.12734447E+04</pdfrwt>
<pdfrwt beam="2">  1       -1 0.17888640E+00 0.12734447E+04</pdfrwt>
<totfact> 0.22118818E+01</totfact>
</mgrwt>
</event>
<event>
12    7  0.1741211E-007  0.1219367E+04  0.7818608E-02  0.9096072E-01
         -3   -1    0    0    0  501 -0.00000000000E+00  0.00000000000E+00  0.89156549734E+03  0.89156549734E+03  0.00000000000E+00 0.  1.
          4   -1    0    0  501    0  0.00000000000E+00 -0.00000000000E+00 -0.41692275652E+03  0.41692275652E+03  0.00000000000E+00 0. -1.
         24    2    1    2    0    0  0.94918577394E+02 -0.12713603645E+02 -0.16118242757E+03  0.20348868312E+03  0.79099286658E+02 0.  0.
        254    2    1    2    0    0 -0.94918577394E+02  0.12713603645E+02  0.63582516839E+03  0.11049995707E+04  0.89865412397E+03 0.  0.
         23    2    4    4    0    0 -0.47673024060E+03  0.33794657883E+01  0.21966237900E+03  0.53268820705E+03  0.90675366508E+02 0.  0.
         23    2    4    4    0    0  0.38181166321E+03  0.93341378570E+01  0.41616278939E+03  0.57231136369E+03  0.92095371477E+02 0.  0.
          4    1    3    3  502    0  0.10041016631E+03 -0.23334181721E+02 -0.16142190599E+03  0.19152993831E+03  0.00000000000E+00 0. -1.
         -3    1    3    3    0  502 -0.54915889198E+01  0.10620578076E+02  0.23947842254E+00  0.11958744811E+02  0.00000000000E+00 0.  1.
         13    1    5    5    0    0 -0.40601818622E+03  0.35608606784E+02  0.18499427104E+03  0.44759537613E+03  0.00000000000E+00 0. -1.
        -13    1    5    5    0    0 -0.70712054377E+02 -0.32229140995E+02  0.34668107962E+02  0.85092830915E+02  0.00000000000E+00 0.  1.
          3    1    6    6  503    0  0.18707724541E+03 -0.30026533869E+02  0.24751767497E+03  0.31171218762E+03  0.00000000000E+00 0. -1.
         -3    1    6    6    0  503  0.19473441779E+03  0.39360671726E+02  0.16864511442E+03  0.26059917607E+03  0.00000000000E+00 0.  1.
<mgrwt>
<rscale>  0 0.12193670E+04</rscale>
<asrwt>0</asrwt>
<pdfrwt beam="1">  1        4 0.64141962E-01 0.12193670E+04</pdfrwt>
<pdfrwt beam="2">  1       -3 0.13716392E+00 0.12193670E+04</pdfrwt>
<totfact> 0.20744177E+00</totfact>
</mgrwt>
</event>
<event>
12    7  0.1741211E-007  0.1467739E+04  0.7818608E-02  0.8906194E-01
         -1   -1    0    0    0  501 -0.00000000000E+00  0.00000000000E+00  0.33228846392E+03  0.33228846392E+03  0.00000000000E+00 0.  1.
          2   -1    0    0  501    0  0.00000000000E+00 -0.00000000000E+00 -0.16207747930E+04  0.16207747930E+04  0.00000000000E+00 0. -1.
         24    2    1    2    0    0 -0.21515333352E+03  0.15324405697E+03 -0.90096374005E+03  0.94230007948E+03  0.80119167406E+02 0.  0.
        254    2    1    2    0    0  0.21515333352E+03 -0.15324405697E+03 -0.38752258903E+03  0.10107631774E+04  0.89537352313E+03 0.  0.
         23    2    4    4    0    0 -0.22753628998E+03 -0.10179207537E+03 -0.47825909606E+03  0.54699381941E+03  0.91302166737E+02 0.  0.
         23    2    4    4    0    0  0.44268962350E+03 -0.51451981604E+02  0.90736507033E+02  0.46376935801E+03  0.90705537630E+02 0.  0.
          2    1    3    3  502    0 -0.17921482147E+03  0.83824712332E+02 -0.64183661837E+03  0.67163887568E+03  0.00000000000E+00 0. -1.
         -1    1    3    3    0  502 -0.35938512050E+02  0.69419344638E+02 -0.25912712168E+03  0.27066120381E+03  0.00000000000E+00 0.  1.
         13    1    5    5    0    0 -0.14259841670E+03 -0.10113769350E+03 -0.26531982019E+03  0.31773849071E+03  0.00000000000E+00 0. -1.
        -13    1    5    5    0    0 -0.84937873282E+02 -0.65438186335E+00 -0.21293927587E+03  0.22925532871E+03  0.00000000000E+00 0.  1.
          2    1    6    6  503    0  0.38632175725E+03 -0.39978898996E+02  0.46409088715E+02  0.39114781861E+03  0.00000000000E+00 0. -1.
         -2    1    6    6    0  503  0.56367866250E+02 -0.11473082607E+02  0.44327418317E+02  0.72621539400E+02  0.00000000000E+00 0.  1.
<mgrwt>
<rscale>  0 0.14677394E+04</rscale>
<asrwt>0</asrwt>
<pdfrwt beam="1">  1        2 0.24934997E+00 0.14677394E+04</pdfrwt>
<pdfrwt beam="2">  1       -1 0.51121302E-01 0.14677394E+04</pdfrwt>
<totfact> 0.46089905E+01</totfact>
</mgrwt>
</event>
<event>
12    7  0.1741211E-007  0.1693869E+04  0.7818608E-02  0.8764869E-01
          2   -1    0    0  501    0  0.00000000000E+00  0.00000000000E+00  0.19050102535E+04  0.19050102535E+04  0.00000000000E+00 0. -1.
         -1   -1    0    0    0  501 -0.00000000000E+00 -0.00000000000E+00 -0.37653258701E+03  0.37653258701E+03  0.00000000000E+00 0.  1.
         24    2    1    2    0    0  0.30950588813E+03 -0.43474430801E+03  0.14934119537E+03  0.56142084190E+03  0.89966999255E+02 0.  0.
        254    2    1    2    0    0 -0.30950588813E+03  0.43474430801E+03  0.13791364711E+04  0.17201219986E+04  0.87863859237E+03 0.  0.
         23    2    4    4    0    0 -0.23429400505E+03  0.58981726957E+03  0.48214041304E+03  0.80214940281E+03  0.90588046957E+02 0.  0.
         23    2    4    4    0    0 -0.75211883077E+02 -0.15507296156E+03  0.89699605810E+03  0.91797259582E+03  0.91472988776E+02 0.  0.
          4    1    3    3  502    0  0.75424486722E+02 -0.51864871240E+02  0.13361880190E+02  0.92505988500E+02  0.00000000000E+00 0. -1.
         -3    1    3    3    0  502  0.23408140141E+03 -0.38287943677E+03  0.13597931518E+03  0.46891485340E+03  0.00000000000E+00 0.  1.
         13    1    5    5    0    0 -0.21165037046E+03  0.57740191556E+03  0.45778922664E+03  0.76665495984E+03  0.00000000000E+00 0.  1.
        -13    1    5    5    0    0 -0.22643634595E+02  0.12415354003E+02  0.24351186402E+02  0.35494442972E+02  0.00000000000E+00 0. -1.
          1    1    6    6  503    0  0.11922976904E+01 -0.21622263240E+02  0.27598026728E+02  0.35079836384E+02  0.00000000000E+00 0. -1.
         -1    1    6    6    0  503 -0.76404180768E+02 -0.13345069832E+03  0.86939803137E+03  0.88289275944E+03  0.00000000000E+00 0.  1.
<mgrwt>
<rscale>  0 0.16938695E+04</rscale>
<asrwt>0</asrwt>
<pdfrwt beam="1">  1        2 0.29307850E+00 0.16938695E+04</pdfrwt>
<pdfrwt beam="2">  1       -1 0.57928091E-01 0.16938695E+04</pdfrwt>
<totfact> 0.24699384E+01</totfact>
</mgrwt>
</event>
<event>
12    7  0.1741211E-007  0.1158620E+04  0.7818608E-02  0.9149868E-01
          2   -1    0    0  501    0  0.00000000000E+00  0.00000000000E+00  0.48349039528E+03  0.48349039528E+03  0.00000000000E+00 0. -1.
         -1   -1    0    0    0  501 -0.00000000000E+00 -0.00000000000E+00 -0.69411926951E+03  0.69411926951E+03  0.00000000000E+00 0.  1.
         24    2    1    2    0    0  0.85628464652E+02 -0.18924661188E+03  0.67945407431E+01  0.22232708230E+03  0.78972474157E+02 0.  0.
        254    2    1    2    0    0 -0.85628464652E+02  0.18924661188E+03 -0.21742341498E+03  0.95528258248E+03  0.90672231524E+03 0.  0.
         23    2    4    4    0    0  0.35566646022E+03 -0.69262119733E+02 -0.22113290381E+03  0.43560107588E+03  0.97737730701E+02 0.  0.
         23    2    4    4    0    0 -0.44129492487E+03  0.25850873161E+03  0.37094888321E+01  0.51968150661E+03  0.92125636840E+02 0.  0.
          2    1    3    3  502    0  0.49709747566E+02 -0.86937000759E+02  0.41606291710E+02  0.10844438489E+03  0.00000000000E+00 0. -1.
         -1    1    3    3    0  502  0.35918717086E+02 -0.10230961112E+03 -0.34811750966E+02  0.11388269742E+03  0.00000000000E+00 0.  1.
         13    1    5    5    0    0  0.10904133419E+03  0.20178303282E+02 -0.45327687507E+02  0.11979889707E+03  0.00000000000E+00 0.  1.
        -13    1    5    5    0    0  0.24662512603E+03 -0.89440423014E+02 -0.17580521630E+03  0.31580217881E+03  0.00000000000E+00 0. -1.
          2    1    6    6  503    0 -0.26437548358E+03  0.16648137788E+03 -0.41577341393E+02  0.31518109210E+03  0.00000000000E+00 0. -1.
         -2    1    6    6    0  503 -0.17691944129E+03  0.92027353738E+02  0.45286830225E+02  0.20450041451E+03  0.00000000000E+00 0.  1.
<mgrwt>
<rscale>  0 0.11586199E+04</rscale>
<asrwt>0</asrwt>
<pdfrwt beam="1">  1        2 0.74383137E-01 0.11586199E+04</pdfrwt>
<pdfrwt beam="2">  1       -1 0.10678758E+00 0.11586199E+04</pdfrwt>
<totfact> 0.59327220E+01</totfact>
</mgrwt>
</event>
<event>
12    7  0.1741211E-007  0.1644081E+04  0.7818608E-02  0.8793916E-01
         -1   -1    0    0    0  501 -0.00000000000E+00  0.00000000000E+00  0.36462271471E+03  0.36462271471E+03  0.00000000000E+00 0.  1.
          2   -1    0    0  501    0  0.00000000000E+00 -0.00000000000E+00 -0.18532875908E+04  0.18532875908E+04  0.00000000000E+00 0. -1.
         24    2    1    2    0    0  0.16613506338E+03 -0.12261767123E+03 -0.12831717174E+04  0.13021867657E+04  0.80776009463E+02 0.  0.
        254    2    1    2    0    0 -0.16613506338E+03  0.12261767123E+03 -0.20549315866E+03  0.91572353983E+03  0.86815102981E+03 0.  0.
         23    2    4    4    0    0  0.87225612800E+02 -0.25493398641E+03 -0.33082457835E+03  0.43578311621E+03  0.88670050097E+02 0.  0.
         23    2    4    4    0    0 -0.25336067618E+03  0.37755165764E+03  0.12533141969E+03  0.47994042362E+03  0.88870462147E+02 0.  0.
          2    1    3    3  502    0  0.16695262803E+03 -0.91243686439E+02 -0.11132160665E+04  0.11293576055E+04  0.00000000000E+00 0. -1.
         -1    1    3    3    0  502 -0.81756465231E+00 -0.31373984793E+02 -0.16995565091E+03  0.17282916019E+03  0.00000000000E+00 0.  1.
         13    1    5    5    0    0  0.91080755414E+02 -0.25756251187E+03 -0.33292514809E+03  0.43066611866E+03  0.00000000000E+00 0. -1.
        -13    1    5    5    0    0 -0.38551426142E+01  0.26285254671E+01  0.21005697446E+01  0.51169975532E+01  0.00000000000E+00 0.  1.
          3    1    6    6  503    0 -0.10977634217E+03  0.22565619294E+03  0.96886202956E+02  0.26899535132E+03  0.00000000000E+00 0. -1.
         -3    1    6    6    0  503 -0.14358433401E+03  0.15189546470E+03  0.28445216732E+02  0.21094507230E+03  0.00000000000E+00 0.  1.
<mgrwt>
<rscale>  0 0.16440812E+04</rscale>
<asrwt>0</asrwt>
<pdfrwt beam="1">  1        2 0.28512118E+00 0.16440812E+04</pdfrwt>
<pdfrwt beam="2">  1       -1 0.56095801E-01 0.16440812E+04</pdfrwt>
<totfact> 0.28212842E+01</totfact>
</mgrwt>
</event>
<event>
12    7  0.1741211E-007  0.1866001E+04  0.7818608E-02  0.8671967E-01
          2   -1    0    0  501    0  0.00000000000E+00  0.00000000000E+00  0.77781220096E+03  0.77781220096E+03  0.00000000000E+00 0. -1.
         -1   -1    0    0    0  501 -0.00000000000E+00 -0.00000000000E+00 -0.11191522055E+04  0.11191522055E+04  0.00000000000E+00 0.  1.
         24    2    1    2    0    0  0.62209530359E+02  0.28178048113E+03 -0.79310000847E+03  0.84778224259E+03  0.80354478428E+02 0.  0.
        254    2    1    2    0    0 -0.62209530359E+02 -0.28178048113E+03  0.45176000388E+03  0.10491821639E+04  0.90190124002E+03 0.  0.
         23    2    4    4    0    0  0.12279422036E+03 -0.47327991786E+03 -0.21542013929E+02  0.49816056173E+03  0.92884797942E+02 0.  0.
         23    2    4    4    0    0 -0.18500375072E+03  0.19149943674E+03  0.47330201781E+03  0.55102160219E+03  0.93335866454E+02 0.  0.
          4    1    3    3  502    0  0.49708700455E+02  0.10032422751E+03 -0.38573249239E+03  0.40165340931E+03  0.00000000000E+00 0. -1.
         -3    1    3    3    0  502  0.12500829905E+02  0.18145625361E+03 -0.40736751608E+03  0.44612883328E+03  0.00000000000E+00 0.  1.
         13    1    5    5    0    0 -0.10542145614E+02 -0.30002249739E+02  0.12141749421E+02  0.34039593161E+02  0.00000000000E+00 0.  1.
        -13    1    5    5    0    0  0.13333636597E+03 -0.44327766812E+03 -0.33683763350E+02  0.46412096856E+03  0.00000000000E+00 0. -1.
          2    1    6    6  503    0 -0.19422268432E+03  0.17846845773E+03  0.42548384930E+03  0.50060957594E+03  0.00000000000E+00 0. -1.
         -2    1    6    6    0  503  0.92189336071E+01  0.13030979009E+02  0.47818168504E+02  0.50412026243E+02  0.00000000000E+00 0.  1.
<mgrwt>
<rscale>  0 0.18660013E+04</rscale>
<asrwt>0</asrwt>
<pdfrwt beam="1">  1        2 0.11966342E+00 0.18660013E+04</pdfrwt>
<pdfrwt beam="2">  1       -1 0.17217726E+00 0.18660013E+04</pdfrwt>
<totfact> 0.90902773E+00</totfact>
</mgrwt>
</event>
<event>
12    7  0.1741211E-007  0.2438262E+04  0.7818608E-02  0.8425316E-01
         -3   -1    0    0    0  501 -0.00000000000E+00  0.00000000000E+00  0.96985698061E+03  0.96985698061E+03  0.00000000000E+00 0.  1.
          4   -1    0    0  501    0  0.00000000000E+00 -0.00000000000E+00 -0.15324740967E+04  0.15324740967E+04  0.00000000000E+00 0. -1.
         24    2    1    2    0    0  0.52013468499E+03  0.82262137496E+03 -0.65181151756E+03  0.11740114093E+04  0.78730665938E+02 0.  0.
        254    2    1    2    0    0 -0.52013468499E+03 -0.82262137496E+03  0.89194401508E+02  0.13283196679E+04  0.89957294416E+03 0.  0.
         23    2    4    4    0    0  0.20493079369E+03 -0.11655525935E+03 -0.13650064558E+03  0.28740211133E+03  0.91573951895E+02 0.  0.
         23    2    4    4    0    0 -0.72506547868E+03 -0.70606611561E+03  0.22569504709E+03  0.10409175566E+04  0.91223886001E+02 0.  0.
          4    1    3    3  502    0  0.46000163677E+03  0.74831299901E+03 -0.56162667374E+03  0.10425921403E+04  0.00000000000E+00 0. -1.
         -3    1    3    3    0  502  0.60133048222E+02  0.74308375952E+02 -0.90184843821E+02  0.13141926906E+03  0.00000000000E+00 0.  1.
         13    1    5    5    0    0  0.10056890020E+03 -0.36916830911E+02 -0.14353489238E+02  0.10808782885E+03  0.00000000000E+00 0. -1.
        -13    1    5    5    0    0  0.10436189349E+03 -0.79638428439E+02 -0.12214715635E+03  0.17931428248E+03  0.00000000000E+00 0.  1.
          3    1    6    6  503    0 -0.46922520503E+03 -0.47014596122E+03  0.10450002781E+03  0.67240595900E+03  0.00000000000E+00 0. -1.
         -3    1    6    6    0  503 -0.25584027364E+03 -0.23592015439E+03  0.12119501928E+03  0.36851159760E+03  0.00000000000E+00 0.  1.
<mgrwt>
<rscale>  0 0.24382623E+04</rscale>
<asrwt>0</asrwt>
<pdfrwt beam="1">  1        4 0.23576524E+00 0.24382623E+04</pdfrwt>
<pdfrwt beam="2">  1       -3 0.14920877E+00 0.24382623E+04</pdfrwt>
<totfact> 0.51716006E-02</totfact>
</mgrwt>
</event>
<event>
12    7  0.1741211E-007  0.1828161E+04  0.7818608E-02  0.8691466E-01
         -1   -1    0    0    0  501 -0.00000000000E+00  0.00000000000E+00  0.11985148526E+04  0.11985148526E+04  0.00000000000E+00 0.  1.
          2   -1    0    0  501    0  0.00000000000E+00 -0.00000000000E+00 -0.69714871343E+03  0.69714871343E+03  0.00000000000E+00 0. -1.
         24    2    1    2    0    0 -0.27960522484E+03 -0.23852476833E+03  0.78211749568E+03  0.86771767034E+03  0.78441261489E+02 0.  0.
        254    2    1    2    0    0  0.27960522484E+03  0.23852476833E+03 -0.28075135655E+03  0.10279458957E+04  0.91802957105E+03 0.  0.
         23    2    4    4    0    0  0.39528118415E+03 -0.23445950655E+03 -0.21381122025E+02  0.46917879029E+03  0.91940796821E+02 0.  0.
         23    2    4    4    0    0 -0.11567595931E+03  0.47298427489E+03 -0.25937023453E+03  0.55876710537E+03  0.88615504439E+02 0.  0.
          4    1    3    3  502    0 -0.77479901635E+02 -0.35015956837E+02  0.23617620200E+03  0.25101484176E+03  0.00000000000E+00 0. -1.
         -3    1    3    3    0  502 -0.20212532320E+03 -0.20350881150E+03  0.54594129367E+03  0.61670282858E+03  0.00000000000E+00 0.  1.
         13    1    5    5    0    0  0.39666387538E+03 -0.23448512950E+03 -0.13299613656E+02  0.46097981053E+03  0.00000000000E+00 0.  1.
        -13    1    5    5    0    0 -0.13826912326E+01  0.25622947970E-01 -0.80815083688E+01  0.81989797594E+01  0.00000000000E+00 0. -1.
          3    1    6    6  503    0 -0.69043736491E+01  0.59615895339E+02 -0.67254280085E+02  0.90138024953E+02  0.00000000000E+00 0. -1.
         -3    1    6    6    0  503 -0.10877158566E+03  0.41336837955E+03 -0.19211595444E+03  0.46862908041E+03  0.00000000000E+00 0.  1.
<mgrwt>
<rscale>  0 0.18281609E+04</rscale>
<asrwt>0</asrwt>
<pdfrwt beam="1">  1        2 0.10725365E+00 0.18281609E+04</pdfrwt>
<pdfrwt beam="2">  1       -1 0.18438690E+00 0.18281609E+04</pdfrwt>
<totfact> 0.85751041E+00</totfact>
</mgrwt>
</event>
<event>
12    7  0.1741211E-007  0.1900043E+04  0.7818608E-02  0.8654835E-01
         -1   -1    0    0    0  501 -0.00000000000E+00  0.00000000000E+00  0.18817761616E+04  0.18817761616E+04  0.00000000000E+00 0.  1.
          2   -1    0    0  501    0  0.00000000000E+00 -0.00000000000E+00 -0.47962189216E+03  0.47962189216E+03  0.00000000000E+00 0. -1.
         24    2    1    2    0    0  0.82634893608E+02 -0.59464360091E+03  0.10612869074E+04  0.12217937456E+04  0.77592003821E+02 0.  0.
        254    2    1    2    0    0 -0.82634893608E+02  0.59464360091E+03  0.34086736200E+03  0.11396043082E+04  0.90668510689E+03 0.  0.
         23    2    4    4    0    0 -0.35426118269E+03  0.39576847276E+03  0.51833601980E+03  0.74786859057E+03  0.92203740456E+02 0.  0.
         23    2    4    4    0    0  0.27162628909E+03  0.19887512815E+03 -0.17746865779E+03  0.39173571763E+03  0.92895588979E+02 0.  0.
          2    1    3    3  502    0  0.79287502727E+01 -0.24328605637E+03  0.37277317687E+03  0.44520872824E+03  0.00000000000E+00 0. -1.
         -1    1    3    3    0  502  0.74706143335E+02 -0.35135754454E+03  0.68851373057E+03  0.77658501733E+03  0.00000000000E+00 0.  1.
         13    1    5    5    0    0 -0.28562218114E+03  0.34904096330E+03  0.39704597068E+03  0.60087862939E+03  0.00000000000E+00 0. -1.
        -13    1    5    5    0    0 -0.68639001549E+02  0.46727509455E+02  0.12129004912E+03  0.14698996118E+03  0.00000000000E+00 0.  1.
          3    1    6    6  503    0  0.18908873029E+03  0.96921706918E+02 -0.75167531277E+02  0.22538527670E+03  0.00000000000E+00 0. -1.
         -3    1    6    6    0  503  0.82537558799E+02  0.10195342123E+03 -0.10230112652E+03  0.16635044094E+03  0.00000000000E+00 0.  1.
<mgrwt>
<rscale>  0 0.19000432E+04</rscale>
<asrwt>0</asrwt>
<pdfrwt beam="1">  1        2 0.73787984E-01 0.19000432E+04</pdfrwt>
<pdfrwt beam="2">  1       -1 0.28950402E+00 0.19000432E+04</pdfrwt>
<totfact> 0.26732397E+00</totfact>
</mgrwt>
</event>
<event>
12    7  0.1741211E-007  0.2058334E+04  0.7818608E-02  0.8579823E-01
         -1   -1    0    0    0  501 -0.00000000000E+00  0.00000000000E+00  0.11847323777E+04  0.11847323777E+04  0.00000000000E+00 0.  1.
          2   -1    0    0  501    0  0.00000000000E+00 -0.00000000000E+00 -0.89402866254E+03  0.89402866254E+03  0.00000000000E+00 0. -1.
         24    2    1    2    0    0  0.42891084603E+03 -0.35438198823E+03  0.74736967603E+03  0.93582210189E+03  0.87466944127E+02 0.  0.
        254    2    1    2    0    0 -0.42891084603E+03  0.35438198823E+03 -0.45666596090E+03  0.11429389383E+04  0.88781445666E+03 0.  0.
         23    2    4    4    0    0  0.18421965771E+03  0.10804223486E+02  0.11270321665E+03  0.23407402492E+03  0.89638276224E+02 0.  0.
         23    2    4    4    0    0 -0.61313050375E+03  0.34357776474E+03 -0.56936917755E+03  0.90886491341E+03  0.88766409303E+02 0.  0.
          2    1    3    3  502    0  0.92196052884E+02 -0.86258910889E+02  0.11444253708E+03  0.17040483024E+03  0.00000000000E+00 0. -1.
         -1    1    3    3    0  502  0.33671479315E+03 -0.26812307734E+03  0.63292713895E+03  0.76541727165E+03  0.00000000000E+00 0.  1.
         13    1    5    5    0    0  0.85424468534E+02  0.49737984182E+02  0.50409212976E+02  0.11096078428E+03  0.00000000000E+00 0.  1.
        -13    1    5    5    0    0  0.98795189181E+02 -0.38933760695E+02  0.62294003675E+02  0.12311324064E+03  0.00000000000E+00 0. -1.
          3    1    6    6  503    0 -0.28298639913E+03  0.19869684920E+03 -0.24377731014E+03  0.42307105421E+03  0.00000000000E+00 0. -1.
         -3    1    6    6    0  503 -0.33014410462E+03  0.14488091554E+03 -0.32559186742E+03  0.48579385920E+03  0.00000000000E+00 0.  1.
<mgrwt>
<rscale>  0 0.20583340E+04</rscale>
<asrwt>0</asrwt>
<pdfrwt beam="1">  1        2 0.13754287E+00 0.20583340E+04</pdfrwt>
<pdfrwt beam="2">  1       -1 0.18226652E+00 0.20583340E+04</pdfrwt>
<totfact> 0.62590986E+00</totfact>
</mgrwt>
</event>
<event>
12    7  0.1741211E-007  0.1589143E+04  0.7818608E-02  0.8827246E-01
          2   -1    0    0  501    0  0.00000000000E+00  0.00000000000E+00  0.95487759828E+03  0.95487759828E+03  0.00000000000E+00 0. -1.
         -1   -1    0    0    0  501 -0.00000000000E+00 -0.00000000000E+00 -0.66117750758E+03  0.66117750758E+03  0.00000000000E+00 0.  1.
         24    2    1    2    0    0  0.42927209439E+03 -0.86023573962E+02  0.40918158353E+03  0.60472770746E+03  0.81187718055E+02 0.  0.
        254    2    1    2    0    0 -0.42927209439E+03  0.86023573962E+02 -0.11548149283E+03  0.10113273984E+04  0.90430777132E+03 0.  0.
         23    2    4    4    0    0 -0.59800346273E+03  0.29212788037E+03 -0.22192895065E+03  0.70759342843E+03  0.92136642525E+02 0.  0.
         23    2    4    4    0    0  0.16873136834E+03 -0.20610430641E+03  0.10644745783E+03  0.30373396996E+03  0.99869932665E+02 0.  0.
          2    1    3    3  502    0  0.19606505176E+03 -0.20490774258E+02  0.23293852082E+03  0.30515853394E+03  0.00000000000E+00 0. -1.
         -1    1    3    3    0  502  0.23320704263E+03 -0.65532799704E+02  0.17624306271E+03  0.29956917352E+03  0.00000000000E+00 0.  1.
         13    1    5    5    0    0 -0.47171415898E+02  0.37052594965E+02 -0.45991399599E+02  0.75586017943E+02  0.00000000000E+00 0. -1.
        -13    1    5    5    0    0 -0.55083204683E+03  0.25507528541E+03 -0.17593755105E+03  0.63200741049E+03  0.00000000000E+00 0.  1.
          1    1    6    6  503    0  0.14172172612E+03 -0.12163018023E+03  0.10661214400E+03  0.21504673363E+03  0.00000000000E+00 0. -1.
         -1    1    6    6    0  503  0.27009642217E+02 -0.84474126181E+02 -0.16468617560E+00  0.88687236332E+02  0.00000000000E+00 0.  1.
<mgrwt>
<rscale>  0 0.15891426E+04</rscale>
<asrwt>0</asrwt>
<pdfrwt beam="1">  1        2 0.14690425E+00 0.15891426E+04</pdfrwt>
<pdfrwt beam="2">  1       -1 0.10171962E+00 0.15891426E+04</pdfrwt>
<totfact> 0.27054191E+01</totfact>
</mgrwt>
</event>
<event>
12    7  0.2499341E-007  0.2087196E+04  0.7818608E-02  0.8566905E-01
         -1   -1    0    0    0  501 -0.00000000000E+00  0.00000000000E+00  0.50105310563E+03  0.50105310563E+03  0.00000000000E+00 0.  1.
          2   -1    0    0  501    0  0.00000000000E+00 -0.00000000000E+00 -0.21736150299E+04  0.21736150299E+04  0.00000000000E+00 0. -1.
         24    2    1    2    0    0 -0.67017784321E+03 -0.72966689626E+02 -0.26796844009E+02  0.67928405392E+03  0.79033383684E+02 0.  0.
        254    2    1    2    0    0  0.67017784321E+03  0.72966689626E+02 -0.16457650803E+04  0.19953840817E+04  0.90473888745E+03 0.  0.
         23    2    4    4    0    0 -0.17490674755E+03  0.17967362777E+03 -0.46921557012E+03  0.53984235365E+03  0.91605309368E+02 0.  0.
         23    2    4    4    0    0  0.84508459076E+03 -0.10670693814E+03 -0.11765495102E+04  0.14555417280E+04  0.93694374771E+02 0.  0.
          2    1    3    3  502    0 -0.97024533280E+02  0.43628076254E+01  0.19596519800E+02  0.99079855354E+02  0.00000000000E+00 0. -1.
         -1    1    3    3    0  502 -0.57315330993E+03 -0.77329497251E+02 -0.46393363809E+02  0.58020419857E+03  0.00000000000E+00 0.  1.
         13    1    5    5    0    0 -0.10993680979E+03  0.11547966452E+03 -0.38031814546E+03  0.41238761721E+03  0.00000000000E+00 0. -1.
        -13    1    5    5    0    0 -0.64969937762E+02  0.64193963250E+02 -0.88897424653E+02  0.12745473644E+03  0.00000000000E+00 0.  1.
          1    1    6    6  503    0  0.82515743036E+03 -0.96377744009E+02 -0.11182782338E+04  0.13930971476E+04  0.00000000000E+00 0. -1.
         -1    1    6    6    0  503  0.19927160401E+02 -0.10329194131E+02 -0.58271276352E+02  0.62444580395E+02  0.00000000000E+00 0.  1.
<mgrwt>
<rscale>  0 0.20871958E+04</rscale>
<asrwt>0</asrwt>
<pdfrwt beam="1">  1        2 0.33440230E+00 0.20871958E+04</pdfrwt>
<pdfrwt beam="2">  1       -1 0.77085095E-01 0.20871958E+04</pdfrwt>
<totfact> 0.94694503E+00</totfact>
</mgrwt>
</event>
<event>
12    7  0.1741211E-007  0.2268580E+04  0.7818608E-02  0.8490414E-01
          2   -1    0    0  501    0  0.00000000000E+00  0.00000000000E+00  0.12534738869E+04  0.12534738869E+04  0.00000000000E+00 0. -1.
         -1   -1    0    0    0  501 -0.00000000000E+00 -0.00000000000E+00 -0.10264385690E+04  0.10264385690E+04  0.00000000000E+00 0.  1.
         24    2    1    2    0    0 -0.71470041673E+03 -0.52927567473E+02 -0.53309356217E+03  0.89674843957E+03  0.79818574121E+02 0.  0.
        254    2    1    2    0    0  0.71470041673E+03  0.52927567473E+02  0.76012888007E+03  0.13831640163E+04  0.90650359545E+03 0.  0.
         23    2    4    4    0    0  0.37794246039E+03  0.21542766192E+03 -0.86629556962E+02  0.45296892020E+03  0.91796414086E+02 0.  0.
         23    2    4    4    0    0  0.33675795634E+03 -0.16250009445E+03  0.84675843703E+03  0.93019509609E+03  0.91928582379E+02 0.  0.
          2    1    3    3  502    0 -0.35333524122E+03 -0.25910302778E+02 -0.21394763519E+03  0.41387283927E+03  0.00000000000E+00 0. -1.
         -1    1    3    3    0  502 -0.36136517551E+03 -0.27017264695E+02 -0.31914592698E+03  0.48287560031E+03  0.00000000000E+00 0.  1.
         13    1    5    5    0    0  0.34848886818E+03  0.19528340326E+03 -0.10470468342E+03  0.41296872710E+03  0.00000000000E+00 0. -1.
        -13    1    5    5    0    0  0.29453592212E+02  0.20144258656E+02  0.18075126461E+02  0.40000193094E+02  0.00000000000E+00 0.  1.
          3    1    6    6  503    0  0.29242577585E+03 -0.10527023275E+03  0.72011064540E+03  0.78431753640E+03  0.00000000000E+00 0. -1.
         -3    1    6    6    0  503  0.44332180489E+02 -0.57229861701E+02  0.12664779163E+03  0.14587755969E+03  0.00000000000E+00 0.  1.
<mgrwt>
<rscale>  0 0.22685801E+04</rscale>
<asrwt>0</asrwt>
<pdfrwt beam="1">  1        2 0.19284214E+00 0.22685801E+04</pdfrwt>
<pdfrwt beam="2">  1       -1 0.15791363E+00 0.22685801E+04</pdfrwt>
<totfact> 0.55286412E+00</totfact>
</mgrwt>
</event>
<event>
12    7  0.1741211E-007  0.1187557E+04  0.7818608E-02  0.9123818E-01
          2   -1    0    0  501    0  0.00000000000E+00  0.00000000000E+00  0.22275986660E+04  0.22275986660E+04  0.00000000000E+00 0. -1.
         -1   -1    0    0    0  501 -0.00000000000E+00 -0.00000000000E+00 -0.15827491581E+03  0.15827491581E+03  0.00000000000E+00 0.  1.
         24    2    1    2    0    0 -0.19339604769E+03  0.12811493507E+03  0.27564228246E+03  0.36909586415E+03  0.80234787992E+02 0.  0.
        254    2    1    2    0    0  0.19339604769E+03 -0.12811493507E+03  0.17936814678E+04  0.20167777177E+04  0.89234729053E+03 0.  0.
         23    2    4    4    0    0  0.13653998146E+02  0.35920411986E+03  0.52453961652E+03  0.64240459688E+03  0.91256919747E+02 0.  0.
         23    2    4    4    0    0  0.17974204954E+03 -0.48731905493E+03  0.12691418512E+04  0.13743731208E+04  0.91615342292E+02 0.  0.
          2    1    3    3  502    0 -0.65899507650E+02  0.51287484329E+02  0.16043410405E+03  0.18086528937E+03  0.00000000000E+00 0. -1.
         -1    1    3    3    0  502 -0.12749654004E+03  0.76827450737E+02  0.11520817841E+03  0.18823057477E+03  0.00000000000E+00 0.  1.
         13    1    5    5    0    0 -0.19811591457E+02  0.11925230496E+03  0.23975733446E+03  0.26850920063E+03  0.00000000000E+00 0. -1.
        -13    1    5    5    0    0  0.33465589603E+02  0.23995181491E+03  0.28478228206E+03  0.37389539625E+03  0.00000000000E+00 0.  1.
          3    1    6    6  503    0  0.93222446390E+02 -0.13121399699E+03  0.39011441175E+03  0.42201515585E+03  0.00000000000E+00 0. -1.
         -3    1    6    6    0  503  0.86519603149E+02 -0.35610505794E+03  0.87902743949E+03  0.95235796494E+03  0.00000000000E+00 0.  1.
<mgrwt>
<rscale>  0 0.11875571E+04</rscale>
<asrwt>0</asrwt>
<pdfrwt beam="1">  1        2 0.34270747E+00 0.11875571E+04</pdfrwt>
<pdfrwt beam="2">  1       -1 0.24349989E-01 0.11875571E+04</pdfrwt>
<totfact> 0.82410122E+01</totfact>
</mgrwt>
</event>
<event>
12    7  0.1741211E-007  0.2690734E+04  0.7818608E-02  0.8338018E-01
         -1   -1    0    0    0  501 -0.00000000000E+00  0.00000000000E+00  0.17387229060E+04  0.17387229060E+04  0.00000000000E+00 0.  1.
          2   -1    0    0  501    0  0.00000000000E+00 -0.00000000000E+00 -0.10410009233E+04  0.10410009233E+04  0.00000000000E+00 0. -1.
         24    2    1    2    0    0 -0.97789569664E+03  0.67844379538E+03  0.43296306093E+03  0.12688090426E+04  0.76507499295E+02 0.  0.
        254    2    1    2    0    0  0.97789569664E+03 -0.67844379538E+03  0.26475892181E+03  0.15109147867E+04  0.89230052616E+03 0.  0.
         23    2    4    4    0    0  0.45698839874E+03 -0.52889551231E+03  0.54829631718E+03  0.89274311744E+03  0.88275493663E+02 0.  0.
         23    2    4    4    0    0  0.52090729790E+03 -0.14954828307E+03 -0.28353739537E+03  0.61817166926E+03  0.89630665103E+02 0.  0.
          2    1    3    3  502    0 -0.63730498560E+03  0.40955448503E+03  0.24829001083E+03  0.79720790911E+03  0.00000000000E+00 0. -1.
         -1    1    3    3    0  502 -0.34059071104E+03  0.26888931035E+03  0.18467305010E+03  0.47160113348E+03  0.00000000000E+00 0.  1.
         13    1    5    5    0    0  0.37010520275E+03 -0.40562453403E+03  0.47020354658E+03  0.72291112796E+03  0.00000000000E+00 0. -1.
        -13    1    5    5    0    0  0.86883195983E+02 -0.12327097828E+03  0.78092770596E+02  0.16983198948E+03  0.00000000000E+00 0.  1.
          1    1    6    6  503    0  0.29225578892E+03 -0.12987729341E+03 -0.16532934577E+03  0.36002131891E+03  0.00000000000E+00 0. -1.
         -1    1    6    6    0  503  0.22865150898E+03 -0.19670989666E+02 -0.11820804960E+03  0.25815035035E+03  0.00000000000E+00 0.  1.
<mgrwt>
<rscale>  0 0.26907338E+04</rscale>
<asrwt>0</asrwt>
<pdfrwt beam="1">  1        2 0.16015399E+00 0.26907338E+04</pdfrwt>
<pdfrwt beam="2">  1       -1 0.26749583E+00 0.26907338E+04</pdfrwt>
<totfact> 0.12729762E+00</totfact>
</mgrwt>
</event>
<event>
12    7  0.1884758E-007  0.1642301E+04  0.7818608E-02  0.8794974E-01
         -1   -1    0    0    0  501 -0.00000000000E+00  0.00000000000E+00  0.88284487266E+03  0.88284487266E+03  0.00000000000E+00 0.  1.
          2   -1    0    0  501    0  0.00000000000E+00 -0.00000000000E+00 -0.76376739957E+03  0.76376739957E+03  0.00000000000E+00 0. -1.
         24    2    1    2    0    0  0.14204151137E+03 -0.34171348548E+03  0.47659551889E+03  0.60776321908E+03  0.72725131313E+02 0.  0.
        254    2    1    2    0    0 -0.14204151137E+03  0.34171348548E+03 -0.35751804580E+03  0.10388490532E+04  0.90246568082E+03 0.  0.
         23    2    4    4    0    0 -0.37604443158E+03 -0.12373312439E+03 -0.88246435142E+01  0.40529125060E+03  0.86393419206E+02 0.  0.
         23    2    4    4    0    0  0.23400292021E+03  0.46544660988E+03 -0.34869340229E+03  0.63355780256E+03  0.91708707720E+02 0.  0.
          4    1    3    3  502    0  0.27799502064E+02 -0.82494532570E+02  0.16563766161E+03  0.18712026924E+03  0.00000000000E+00 0. -1.
         -3    1    3    3    0  502  0.11424200931E+03 -0.25921895291E+03  0.31095785728E+03  0.42064294983E+03  0.00000000000E+00 0.  1.
         13    1    5    5    0    0 -0.12781861988E+02  0.11496941521E+02  0.32040262527E+01  0.17487751269E+02  0.00000000000E+00 0. -1.
        -13    1    5    5    0    0 -0.36326256959E+03 -0.13523006591E+03 -0.12028669767E+02  0.38780349933E+03  0.00000000000E+00 0.  1.
          4    1    6    6  503    0 -0.63199034080E+01  0.29708755013E+02 -0.11599768303E+02  0.32513165459E+02  0.00000000000E+00 0. -1.
         -4    1    6    6    0  503  0.24032282362E+03  0.43573785486E+03 -0.33709363398E+03  0.60104463710E+03  0.00000000000E+00 0.  1.
<mgrwt>
<rscale>  0 0.16423010E+04</rscale>
<asrwt>0</asrwt>
<pdfrwt beam="1">  1        2 0.11750268E+00 0.16423010E+04</pdfrwt>
<pdfrwt beam="2">  1       -1 0.13582229E+00 0.16423010E+04</pdfrwt>
<totfact> 0.18127627E+01</totfact>
</mgrwt>
</event>
<event>
12    7  0.1741211E-007  0.1259674E+04  0.7818608E-02  0.9062170E-01
          2   -1    0    0  501    0  0.00000000000E+00  0.00000000000E+00  0.14177667847E+04  0.14177667847E+04  0.00000000000E+00 0. -1.
         -1   -1    0    0    0  501 -0.00000000000E+00 -0.00000000000E+00 -0.27980244574E+03  0.27980244574E+03  0.00000000000E+00 0.  1.
         24    2    1    2    0    0  0.22230105493E+03 -0.93240704697E+02  0.40636049361E+02  0.25715469435E+03  0.79785088113E+02 0.  0.
        254    2    1    2    0    0 -0.22230105493E+03  0.93240704697E+02  0.10973282896E+04  0.14404145361E+04  0.90141725776E+03 0.  0.
         23    2    4    4    0    0 -0.54052008293E+03  0.75819182062E+02  0.45149887219E+03  0.71420875442E+03  0.91282007461E+02 0.  0.
         23    2    4    4    0    0  0.31821902800E+03  0.17421522635E+02  0.64582941738E+03  0.72620578165E+03  0.93339925612E+02 0.  0.
          2    1    3    3  502    0  0.11762103439E+02 -0.32708560729E+02  0.31369164380E+01  0.34900390643E+02  0.00000000000E+00 0. -1.
         -1    1    3    3    0  502  0.21053895149E+03 -0.60532143967E+02  0.37499132923E+02  0.22225430371E+03  0.00000000000E+00 0.  1.
         13    1    5    5    0    0 -0.19964938183E+03  0.30523587247E+02  0.11181062117E+03  0.23085315690E+03  0.00000000000E+00 0. -1.
        -13    1    5    5    0    0 -0.34087070110E+03  0.45295594815E+02  0.33968825102E+03  0.48335559753E+03  0.00000000000E+00 0.  1.
          1    1    6    6  503    0  0.25631495420E+03  0.25990791342E+01  0.58254986610E+03  0.63644988605E+03  0.00000000000E+00 0. -1.
         -1    1    6    6    0  503  0.61904073804E+02  0.14822443501E+02  0.63279551281E+02  0.89755895601E+02  0.00000000000E+00 0.  1.
<mgrwt>
<rscale>  0 0.12596739E+04</rscale>
<asrwt>0</asrwt>
<pdfrwt beam="1">  1        2 0.21811796E+00 0.12596739E+04</pdfrwt>
<pdfrwt beam="2">  1       -1 0.43046531E-01 0.12596739E+04</pdfrwt>
<totfact> 0.84190825E+01</totfact>
</mgrwt>
</event>
<event>
12    7  0.1741211E-007  0.1206133E+04  0.7818608E-02  0.9107505E-01
         -1   -1    0    0    0  501 -0.00000000000E+00  0.00000000000E+00  0.57815471486E+03  0.57815471486E+03  0.00000000000E+00 0.  1.
          2   -1    0    0  501    0  0.00000000000E+00 -0.00000000000E+00 -0.62905165696E+03  0.62905165696E+03  0.00000000000E+00 0. -1.
         24    2    1    2    0    0 -0.11782192420E+02 -0.19473908718E+03  0.15940896000E+03  0.26291815771E+03  0.75183834618E+02 0.  0.
        254    2    1    2    0    0  0.11782192420E+02  0.19473908718E+03 -0.21030590210E+03  0.94428821411E+03  0.89966078425E+03 0.  0.
         23    2    4    4    0    0  0.40112594978E+03  0.27736253977E+03 -0.29523052722E+02  0.49768971818E+03  0.94823198013E+02 0.  0.
         23    2    4    4    0    0 -0.38934375736E+03 -0.82623452587E+02 -0.18078284938E+03  0.44659849594E+03  0.91392459380E+02 0.  0.
          4    1    3    3  502    0 -0.38091864605E+02 -0.10217182388E+03  0.10941863767E+03  0.15447494947E+03  0.00000000000E+00 0. -1.
         -3    1    3    3    0  502  0.26309672185E+02 -0.92567263303E+02  0.49990322332E+02  0.10844320824E+03  0.00000000000E+00 0.  1.
         13    1    5    5    0    0  0.19627240249E+03  0.18712322305E+03 -0.37148487519E+02  0.27371146617E+03  0.00000000000E+00 0. -1.
        -13    1    5    5    0    0  0.20485354728E+03  0.90239316718E+02  0.76254347963E+01  0.22397825201E+03  0.00000000000E+00 0.  1.
          2    1    6    6  503    0 -0.20359426478E+03 -0.88645808574E+02 -0.87735828657E+02  0.23875987866E+03  0.00000000000E+00 0. -1.
         -2    1    6    6    0  503 -0.18574949258E+03  0.60223559866E+01 -0.93047020722E+02  0.20783861728E+03  0.00000000000E+00 0.  1.
<mgrwt>
<rscale>  0 0.12061330E+04</rscale>
<asrwt>0</asrwt>
<pdfrwt beam="1">  1        2 0.96777178E-01 0.12061330E+04</pdfrwt>
<pdfrwt beam="2">  1       -1 0.88946879E-01 0.12061330E+04</pdfrwt>
<totfact> 0.65449445E+01</totfact>
</mgrwt>
</event>
<event>
12    7  0.1777831E-007  0.1986611E+04  0.7818608E-02  0.8612906E-01
         -1   -1    0    0    0  501 -0.00000000000E+00  0.00000000000E+00  0.68591144502E+03  0.68591144502E+03  0.00000000000E+00 0.  1.
          2   -1    0    0  501    0  0.00000000000E+00 -0.00000000000E+00 -0.14384596686E+04  0.14384596686E+04  0.00000000000E+00 0. -1.
         24    2    1    2    0    0  0.59220687322E+03  0.44609786902E+03 -0.50527119263E+03  0.90099374435E+03  0.82331402388E+02 0.  0.
        254    2    1    2    0    0 -0.59220687322E+03 -0.44609786902E+03 -0.24727703098E+03  0.12233773693E+04  0.94116628086E+03 0.  0.
         23    2    4    4    0    0 -0.45408697069E+03 -0.60194115702E+03 -0.47804483478E+03  0.89750936123E+03  0.92022040643E+02 0.  0.
         23    2    4    4    0    0 -0.13811990253E+03  0.15584328800E+03  0.23076780380E+03  0.32586800807E+03  0.97836299623E+02 0.  0.
          4    1    3    3  502    0  0.50066560817E+03  0.36065261187E+03 -0.38456864736E+03  0.72706904912E+03  0.00000000000E+00 0. -1.
         -1    1    3    3    0  502  0.91541265053E+02  0.85445257150E+02 -0.12070254527E+03  0.17392469523E+03  0.00000000000E+00 0.  1.
         13    1    5    5    0    0 -0.39673890275E+03 -0.47193728877E+03 -0.37044272475E+03  0.71927350418E+03  0.00000000000E+00 0.  1.
        -13    1    5    5    0    0 -0.57348067941E+02 -0.13000386825E+03 -0.10760211003E+03  0.17823585705E+03  0.00000000000E+00 0. -1.
          3    1    6    6  503    0  0.42062654988E+01  0.22120781040E+02  0.68029108680E+02  0.71658783488E+02  0.00000000000E+00 0. -1.
         -3    1    6    6    0  503 -0.14232616803E+03  0.13372250696E+03  0.16273869512E+03  0.25420922458E+03  0.00000000000E+00 0.  1.
<mgrwt>
<rscale>  0 0.19866111E+04</rscale>
<asrwt>0</asrwt>
<pdfrwt beam="1">  1        2 0.22130148E+00 0.19866111E+04</pdfrwt>
<pdfrwt beam="2">  1       -1 0.10552484E+00 0.19866111E+04</pdfrwt>
<totfact> 0.12269460E+01</totfact>
</mgrwt>
</event>
<event>
12    7  0.1741211E-007  0.4229895E+04  0.7818608E-02  0.7959710E-01
         -1   -1    0    0    0  501 -0.00000000000E+00  0.00000000000E+00  0.19207545440E+04  0.19207545440E+04  0.00000000000E+00 0.  1.
          2   -1    0    0  501    0  0.00000000000E+00 -0.00000000000E+00 -0.23287738184E+04  0.23287738184E+04  0.00000000000E+00 0. -1.
         24    2    1    2    0    0  0.17537045239E+04  0.91775642262E+03 -0.58874592124E+03  0.20664815989E+04  0.77253028697E+02 0.  0.
        254    2    1    2    0    0 -0.17537045239E+04 -0.91775642262E+03  0.18072664680E+03  0.21830467634E+04  0.90292560157E+03 0.  0.
         23    2    4    4    0    0 -0.89789288243E+03 -0.28695451042E+03 -0.32661414448E+03  0.10017887321E+04  0.91374750306E+02 0.  0.
         23    2    4    4    0    0 -0.85581164151E+03 -0.63080191221E+03  0.50734079128E+03  0.11812580314E+04  0.87471366540E+02 0.  0.
          2    1    3    3  502    0  0.64712851232E+03  0.35399870410E+03 -0.18318366370E+03  0.76003068925E+03  0.00000000000E+00 0. -1.
         -1    1    3    3    0  502  0.11065760116E+04  0.56375771852E+03 -0.40556225754E+03  0.13064509097E+04  0.00000000000E+00 0.  1.
         13    1    5    5    0    0 -0.53215348533E+03 -0.13023564173E+03 -0.21493223584E+03  0.58851042499E+03  0.00000000000E+00 0.  1.
        -13    1    5    5    0    0 -0.36573939710E+03 -0.15671886869E+03 -0.11168190864E+03  0.41327830709E+03  0.00000000000E+00 0. -1.
          2    1    6    6  503    0 -0.80211737491E+03 -0.56831569828E+03  0.48336880286E+03  0.10954544334E+04  0.00000000000E+00 0. -1.
         -2    1    6    6    0  503 -0.53694266604E+02 -0.62486213922E+02  0.23971988419E+02  0.85803597974E+02  0.00000000000E+00 0.  1.
<mgrwt>
<rscale>  0 0.42298950E+04</rscale>
<asrwt>0</asrwt>
<pdfrwt beam="1">  1        2 0.35827290E+00 0.42298950E+04</pdfrwt>
<pdfrwt beam="2">  1       -1 0.29550070E+00 0.42298950E+04</pdfrwt>
<totfact> 0.13580117E-01</totfact>
</mgrwt>
</event>
<event>
12    7  0.1741211E-007  0.1753583E+04  0.7818608E-02  0.8731381E-01
          2   -1    0    0  501    0  0.00000000000E+00  0.00000000000E+00  0.31049713308E+04  0.31049713308E+04  0.00000000000E+00 0. -1.
         -1   -1    0    0    0  501 -0.00000000000E+00 -0.00000000000E+00 -0.24759103526E+03  0.24759103526E+03  0.00000000000E+00 0.  1.
         24    2    1    2    0    0  0.51945513105E+02  0.13592607495E+03 -0.14158378939E+03  0.21791176969E+03  0.79153874001E+02 0.  0.
        254    2    1    2    0    0 -0.51945513105E+02 -0.13592607495E+03  0.29989640849E+04  0.31346505964E+04  0.90059677126E+03 0.  0.
         23    2    4    4    0    0  0.28540949562E+03  0.16829109928E+03  0.20498909607E+04  0.20785229895E+04  0.91784489385E+02 0.  0.
         23    2    4    4    0    0 -0.33735500873E+03 -0.30421717423E+03  0.94907312418E+03  0.10561276069E+04  0.91155010847E+02 0.  0.
          2    1    3    3  502    0  0.41341675267E+02  0.14976831710E+02 -0.32304580803E+02  0.54562125534E+02  0.00000000000E+00 0. -1.
         -1    1    3    3    0  502  0.10603837838E+02  0.12094924324E+03 -0.10927920859E+03  0.16334964416E+03  0.00000000000E+00 0.  1.
         13    1    5    5    0    0  0.74263307218E+01 -0.95268168399E+01  0.12175358774E+03  0.12235132510E+03  0.00000000000E+00 0.  1.
        -13    1    5    5    0    0  0.27798316490E+03  0.17781791612E+03  0.19281373730E+04  0.19561716644E+04  0.00000000000E+00 0. -1.
          1    1    6    6  503    0 -0.31313652865E+03 -0.29167990478E+03  0.92711871154E+03  0.10211174064E+04  0.00000000000E+00 0. -1.
         -1    1    6    6    0  503 -0.24218480075E+02 -0.12537269448E+02  0.21954412639E+02  0.35010200466E+02  0.00000000000E+00 0.  1.
<mgrwt>
<rscale>  0 0.17535827E+04</rscale>
<asrwt>0</asrwt>
<pdfrwt beam="1">  1        2 0.47768787E+00 0.17535827E+04</pdfrwt>
<pdfrwt beam="2">  1       -1 0.38090931E-01 0.17535827E+04</pdfrwt>
<totfact> 0.10788015E+01</totfact>
</mgrwt>
</event>
<event>
12    7  0.1741211E-007  0.1530146E+04  0.7818608E-02  0.8864650E-01
         -1   -1    0    0    0  501 -0.00000000000E+00  0.00000000000E+00  0.26553709816E+03  0.26553709816E+03  0.00000000000E+00 0.  1.
          2   -1    0    0  501    0  0.00000000000E+00 -0.00000000000E+00 -0.22043508720E+04  0.22043508720E+04  0.00000000000E+00 0. -1.
         24    2    1    2    0    0 -0.45690598178E+03  0.18553607874E+03 -0.61777868745E+03  0.79532124734E+03  0.87742048641E+02 0.  0.
        254    2    1    2    0    0  0.45690598178E+03 -0.18553607874E+03 -0.13210350864E+04  0.16745667229E+04  0.90324597813E+03 0.  0.
         23    2    4    4    0    0  0.66929099413E+03 -0.31900605102E+03 -0.83574996916E+03  0.11208762895E+04  0.90389988582E+02 0.  0.
         23    2    4    4    0    0 -0.21238501235E+03  0.13346997227E+03 -0.48528511728E+03  0.55369043334E+03  0.90276375410E+02 0.  0.
          2    1    3    3  502    0 -0.28463476163E+03  0.14662724573E+03 -0.44530376390E+03  0.54846325206E+03  0.00000000000E+00 0. -1.
         -1    1    3    3    0  502 -0.17227122016E+03  0.38908833018E+02 -0.17247492355E+03  0.24685799528E+03  0.00000000000E+00 0.  1.
         13    1    5    5    0    0  0.58927875219E+03 -0.30760464837E+03 -0.72284805696E+03  0.98202819763E+03  0.00000000000E+00 0. -1.
        -13    1    5    5    0    0  0.80012241939E+02 -0.11401402645E+02 -0.11290191220E+03  0.13884809189E+03  0.00000000000E+00 0.  1.
          1    1    6    6  503    0 -0.21422079311E+03  0.10624351147E+03 -0.42906130804E+03  0.49119429760E+03  0.00000000000E+00 0. -1.
         -1    1    6    6    0  503  0.18357807600E+01  0.27226460803E+02 -0.56223809233E+02  0.62496135749E+02  0.00000000000E+00 0.  1.
<mgrwt>
<rscale>  0 0.15301463E+04</rscale>
<asrwt>0</asrwt>
<pdfrwt beam="1">  1        2 0.33913090E+00 0.15301463E+04</pdfrwt>
<pdfrwt beam="2">  1       -1 0.40851861E-01 0.15301463E+04</pdfrwt>
<totfact> 0.33068307E+01</totfact>
</mgrwt>
</event>
<event>
12    7  0.1741211E-007  0.4110175E+04  0.7818608E-02  0.7982682E-01
          2   -1    0    0  501    0  0.00000000000E+00  0.00000000000E+00  0.34902489910E+04  0.34902489910E+04  0.00000000000E+00 0. -1.
         -1   -1    0    0    0  501 -0.00000000000E+00 -0.00000000000E+00 -0.12100524214E+04  0.12100524214E+04  0.00000000000E+00 0.  1.
         24    2    1    2    0    0 -0.61312013124E+03 -0.13609810859E+04 -0.35962590686E+03  0.15376547969E+04  0.82859339105E+02 0.  0.
        254    2    1    2    0    0  0.61312013124E+03  0.13609810859E+04  0.26398224764E+04  0.31626466155E+04  0.89748821491E+03 0.  0.
         23    2    4    4    0    0  0.69640190777E+03  0.10816543653E+04  0.14793992504E+04  0.19626838381E+04  0.92487423064E+02 0.  0.
         23    2    4    4    0    0 -0.83281776531E+02  0.27932672066E+03  0.11604232260E+04  0.11999627773E+04  0.91484055025E+02 0.  0.
          2    1    3    3  502    0 -0.57174740783E+02 -0.13342937327E+03 -0.60582677672E+02  0.15729783683E+03  0.00000000000E+00 0. -1.
         -1    1    3    3    0  502 -0.55594539045E+03 -0.12275517127E+04 -0.29904322919E+03  0.13803569601E+04  0.00000000000E+00 0.  1.
         13    1    5    5    0    0  0.32627804835E+02  0.73176399545E+02  0.12304413790E+03  0.14683057914E+03  0.00000000000E+00 0. -1.
        -13    1    5    5    0    0  0.66377410293E+03  0.10084779657E+04  0.13563551125E+04  0.18158532590E+04  0.00000000000E+00 0.  1.
          3    1    6    6  503    0  0.13999806668E+02  0.75628884971E+02  0.22881778003E+03  0.24139863149E+03  0.00000000000E+00 0. -1.
         -3    1    6    6    0  503 -0.97281583199E+02  0.20369783569E+03  0.93160544601E+03  0.95856414586E+03  0.00000000000E+00 0.  1.
<mgrwt>
<rscale>  0 0.41101748E+04</rscale>
<asrwt>0</asrwt>
<pdfrwt beam="1">  1        2 0.53696138E+00 0.41101748E+04</pdfrwt>
<pdfrwt beam="2">  1       -1 0.18616191E+00 0.41101748E+04</pdfrwt>
<totfact> 0.13757923E-01</totfact>
</mgrwt>
</event>
<event>
12    7  0.1741211E-007  0.2600327E+04  0.7818608E-02  0.8368090E-01
          2   -1    0    0  501    0  0.00000000000E+00  0.00000000000E+00  0.22124413233E+04  0.22124413233E+04  0.00000000000E+00 0. -1.
         -1   -1    0    0    0  501 -0.00000000000E+00 -0.00000000000E+00 -0.76405400495E+03  0.76405400495E+03  0.00000000000E+00 0.  1.
         24    2    1    2    0    0  0.30626211498E+03 -0.54092096555E+03  0.17458356547E+04  0.18549796582E+04  0.81335264010E+02 0.  0.
        254    2    1    2    0    0 -0.30626211498E+03  0.54092096555E+03 -0.29744833633E+03  0.11215156700E+04  0.88483326753E+03 0.  0.
         23    2    4    4    0    0  0.23231303262E+03  0.42725140049E+03 -0.26792999546E+03  0.56265215446E+03  0.90982746177E+02 0.  0.
         23    2    4    4    0    0 -0.53857514760E+03  0.11366956506E+03 -0.29518340864E+02  0.55886351559E+03  0.92049644077E+02 0.  0.
          2    1    3    3  502    0  0.26705656895E+03 -0.46065548359E+03  0.15684931310E+04  0.16564097886E+04  0.00000000000E+00 0. -1.
         -1    1    3    3    0  502  0.39205546031E+02 -0.80265481961E+02  0.17734252365E+03  0.19856986964E+03  0.00000000000E+00 0.  1.
         13    1    5    5    0    0  0.62116430795E+01  0.33214001106E+02 -0.45909007964E+02  0.57003433155E+02  0.00000000000E+00 0. -1.
        -13    1    5    5    0    0  0.22610138954E+03  0.39403739939E+03 -0.22202098750E+03  0.50564872130E+03  0.00000000000E+00 0.  1.
          2    1    6    6  503    0 -0.11336691880E+03 -0.51314285467E+01 -0.29958155444E+02  0.11737069870E+03  0.00000000000E+00 0. -1.
         -2    1    6    6    0  503 -0.42520822880E+03  0.11880099361E+03  0.43981458018E+00  0.44149281688E+03  0.00000000000E+00 0.  1.
<mgrwt>
<rscale>  0 0.26003266E+04</rscale>
<asrwt>0</asrwt>
<pdfrwt beam="1">  1        2 0.34037559E+00 0.26003266E+04</pdfrwt>
<pdfrwt beam="2">  1       -1 0.11754677E+00 0.26003266E+04</pdfrwt>
<totfact> 0.33280550E+00</totfact>
</mgrwt>
</event>
<event>
12    7  0.1741211E-007  0.1426508E+04  0.7818608E-02  0.8934851E-01
         -1   -1    0    0    0  501 -0.00000000000E+00  0.00000000000E+00  0.14006387853E+04  0.14006387853E+04  0.00000000000E+00 0.  1.
          2   -1    0    0  501    0  0.00000000000E+00 -0.00000000000E+00 -0.36321398133E+03  0.36321398133E+03  0.00000000000E+00 0. -1.
         24    2    1    2    0    0 -0.99172044964E+02  0.40622143693E+03  0.36310343932E+03  0.55941461590E+03  0.79054756423E+02 0.  0.
        254    2    1    2    0    0  0.99172044964E+02 -0.40622143693E+03  0.67432136468E+03  0.12044381508E+04  0.90615175650E+03 0.  0.
         23    2    4    4    0    0 -0.24074951862E+03 -0.11922825614E+03 -0.10487703676E+03  0.30181747979E+03  0.88988148029E+02 0.  0.
         23    2    4    4    0    0  0.33992156358E+03 -0.28699318079E+03  0.77919840145E+03  0.90262067097E+03  0.98296345986E+02 0.  0.
          2    1    3    3  502    0 -0.10827298246E+03  0.39815808217E+03  0.34634234772E+03  0.53870763774E+03  0.00000000000E+00 0. -1.
         -1    1    3    3    0  502  0.91009374929E+01  0.80633547589E+01  0.16761091594E+02  0.20706978163E+02  0.00000000000E+00 0.  1.
         13    1    5    5    0    0 -0.16275517238E+03 -0.98453809671E+02 -0.31641204929E+02  0.19283040379E+03  0.00000000000E+00 0. -1.
        -13    1    5    5    0    0 -0.77994346235E+02 -0.20774446468E+02 -0.73235831834E+02  0.10898707600E+03  0.00000000000E+00 0.  1.
          4    1    6    6  503    0  0.15659831666E+03 -0.82679533289E+02  0.24862056201E+03  0.30523945004E+03  0.00000000000E+00 0. -1.
         -4    1    6    6    0  503  0.18332324692E+03 -0.20431364750E+03  0.53057783944E+03  0.59738122093E+03  0.00000000000E+00 0.  1.
<mgrwt>
<rscale>  0 0.14265085E+04</rscale>
<asrwt>0</asrwt>
<pdfrwt beam="1">  1        2 0.55879075E-01 0.14265085E+04</pdfrwt>
<pdfrwt beam="2">  1       -1 0.21548289E+00 0.14265085E+04</pdfrwt>
<totfact> 0.11633451E+01</totfact>
</mgrwt>
</event>
<event>
12    7  0.1741211E-007  0.1913554E+04  0.7818608E-02  0.8648139E-01
          2   -1    0    0  501    0  0.00000000000E+00  0.00000000000E+00  0.10046563235E+04  0.10046563235E+04  0.00000000000E+00 0. -1.
         -1   -1    0    0    0  501 -0.00000000000E+00 -0.00000000000E+00 -0.91117943745E+03  0.91117943745E+03  0.00000000000E+00 0.  1.
         24    2    1    2    0    0  0.20240609263E+03  0.55335711370E+03 -0.42851276513E+03  0.73293805339E+03  0.80016739532E+02 0.  0.
        254    2    1    2    0    0 -0.20240609263E+03 -0.55335711370E+03  0.52198965120E+03  0.11828977076E+04  0.88295043407E+03 0.  0.
         23    2    4    4    0    0  0.77623563506E+02 -0.63493570848E+03  0.88095092670E+02  0.65219074819E+03  0.91778293541E+02 0.  0.
         23    2    4    4    0    0 -0.28002965614E+03  0.81578594776E+02  0.43389455853E+03  0.53070695939E+03  0.91179566678E+02 0.  0.
          2    1    3    3  502    0  0.10491426991E+03  0.36773472865E+03 -0.24381325460E+03  0.45352038301E+03  0.00000000000E+00 0. -1.
         -1    1    3    3    0  502  0.97491822724E+02  0.18562238505E+03 -0.18469951053E+03  0.27941767038E+03  0.00000000000E+00 0.  1.
         13    1    5    5    0    0  0.81476260398E+02 -0.45173477519E+03  0.30179427780E+02  0.46001465845E+03  0.00000000000E+00 0. -1.
        -13    1    5    5    0    0 -0.38526968920E+01 -0.18320093328E+03  0.57915664890E+02  0.19217608974E+03  0.00000000000E+00 0.  1.
          1    1    6    6  503    0 -0.21038985959E+03  0.75672686312E+02  0.38567304351E+03  0.44579585570E+03  0.00000000000E+00 0. -1.
         -1    1    6    6    0  503 -0.69639796549E+02  0.59059084643E+01  0.48221515016E+02  0.84911103683E+02  0.00000000000E+00 0.  1.
<mgrwt>
<rscale>  0 0.19135540E+04</rscale>
<asrwt>0</asrwt>
<pdfrwt beam="1">  1        2 0.15456251E+00 0.19135540E+04</pdfrwt>
<pdfrwt beam="2">  1       -1 0.14018145E+00 0.19135540E+04</pdfrwt>
<totfact> 0.11153548E+01</totfact>
</mgrwt>
</event>
<event>
12    7  0.1741211E-007  0.2424032E+04  0.7818608E-02  0.8430561E-01
         -1   -1    0    0    0  501 -0.00000000000E+00  0.00000000000E+00  0.98492151079E+03  0.98492151079E+03  0.00000000000E+00 0.  1.
          2   -1    0    0  501    0  0.00000000000E+00 -0.00000000000E+00 -0.14914719837E+04  0.14914719837E+04  0.00000000000E+00 0. -1.
         24    2    1    2    0    0  0.85048118038E+03  0.51182956441E+01 -0.84309036683E+03  0.12002273584E+04  0.79999438217E+02 0.  0.
        254    2    1    2    0    0 -0.85048118038E+03 -0.51182956441E+01  0.33653989393E+03  0.12761661361E+04  0.88994183602E+03 0.  0.
         23    2    4    4    0    0 -0.64530764861E+03 -0.36808608754E+03  0.25108028601E+02  0.74902511924E+03  0.92189408063E+02 0.  0.
         23    2    4    4    0    0 -0.20517353177E+03  0.36296779190E+03  0.31143186532E+03  0.52714101682E+03  0.83940745630E+02 0.  0.
          2    1    3    3  502    0  0.29577042554E+03  0.29901158053E+02 -0.33065764019E+03  0.44464446347E+03  0.00000000000E+00 0. -1.
         -1    1    3    3    0  502  0.55471075484E+03 -0.24782862409E+02 -0.51243272664E+03  0.75558289495E+03  0.00000000000E+00 0.  1.
         13    1    5    5    0    0 -0.32074850820E+03 -0.13987149726E+03  0.38538489215E+02  0.35203530563E+03  0.00000000000E+00 0.  1.
        -13    1    5    5    0    0 -0.32455914041E+03 -0.22821459028E+03 -0.13430460614E+02  0.39698981362E+03  0.00000000000E+00 0. -1.
          2    1    6    6  503    0 -0.10168256258E+03  0.16373457826E+03  0.19523475948E+03  0.27434461351E+03  0.00000000000E+00 0.  1.
         -2    1    6    6    0  503 -0.10349096919E+03  0.19923321363E+03  0.11619710584E+03  0.25279640331E+03  0.00000000000E+00 0. -1.
<mgrwt>
<rscale>  0 0.24240320E+04</rscale>
<asrwt>0</asrwt>
<pdfrwt beam="1">  1        2 0.22945723E+00 0.24240320E+04</pdfrwt>
<pdfrwt beam="2">  1       -1 0.15152639E+00 0.24240320E+04</pdfrwt>
<totfact> 0.44545606E+00</totfact>
</mgrwt>
</event>
<event>
12    7  0.1741211E-007  0.1909329E+04  0.7818608E-02  0.8650227E-01
          2   -1    0    0  501    0  0.00000000000E+00  0.00000000000E+00  0.17539336467E+04  0.17539336467E+04  0.00000000000E+00 0. -1.
         -1   -1    0    0    0  501 -0.00000000000E+00 -0.00000000000E+00 -0.51962297851E+03  0.51962297851E+03  0.00000000000E+00 0.  1.
         24    2    1    2    0    0  0.65924018725E+03 -0.32153806517E+03  0.55258187387E+03  0.92135708789E+03  0.74617720760E+02 0.  0.
        254    2    1    2    0    0 -0.65924018725E+03  0.32153806517E+03  0.68172879428E+03  0.13521995373E+04  0.90868316141E+03 0.  0.
         23    2    4    4    0    0 -0.62790880312E+03 -0.11904583197E+03  0.16546160615E+03  0.66622881895E+03  0.89676758091E+02 0.  0.
         23    2    4    4    0    0 -0.31331384129E+02  0.44058389714E+03  0.51626718813E+03  0.68597071834E+03  0.94489104252E+02 0.  0.
          4    1    3    3  502    0  0.41632490554E+03 -0.23382991292E+03  0.33024875957E+03  0.58057479996E+03  0.00000000000E+00 0. -1.
         -3    1    3    3    0  502  0.24291528171E+03 -0.87708152253E+02  0.22233311430E+03  0.34078228794E+03  0.00000000000E+00 0.  1.
         13    1    5    5    0    0 -0.33922539792E+03 -0.90661851001E+02  0.12804639764E+03  0.37375034685E+03  0.00000000000E+00 0.  1.
        -13    1    5    5    0    0 -0.28868340519E+03 -0.28383980968E+02  0.37415208508E+02  0.29247847209E+03  0.00000000000E+00 0. -1.
          1    1    6    6  503    0 -0.26689033932E+02  0.37247787449E+03  0.48157059240E+03  0.60939503361E+03  0.00000000000E+00 0. -1.
         -1    1    6    6    0  503 -0.46423501969E+01  0.68106022651E+02  0.34696595729E+02  0.76575684730E+02  0.00000000000E+00 0.  1.
<mgrwt>
<rscale>  0 0.19093289E+04</rscale>
<asrwt>0</asrwt>
<pdfrwt beam="1">  1        2 0.26983594E+00 0.19093289E+04</pdfrwt>
<pdfrwt beam="2">  1       -1 0.79941997E-01 0.19093289E+04</pdfrwt>
<totfact> 0.15240409E+01</totfact>
</mgrwt>
</event>
<event>
12    7  0.1741211E-007  0.4100628E+04  0.7818608E-02  0.7984549E-01
          2   -1    0    0  501    0  0.00000000000E+00  0.00000000000E+00  0.29174191341E+04  0.29174191341E+04  0.00000000000E+00 0. -1.
         -1   -1    0    0    0  501 -0.00000000000E+00 -0.00000000000E+00 -0.14409270675E+04  0.14409270675E+04  0.00000000000E+00 0.  1.
         24    2    1    2    0    0 -0.74539245806E+03 -0.15185695145E+04 -0.33235049961E+03  0.17257822277E+04  0.78766464930E+02 0.  0.
        254    2    1    2    0    0  0.74539245806E+03  0.15185695145E+04  0.18088425661E+04  0.26325639739E+04  0.89264682858E+03 0.  0.
         23    2    4    4    0    0  0.29692413513E+02 -0.17568860013E+02 -0.54573634064E+02  0.11225330407E+03  0.91827111889E+02 0.  0.
         23    2    4    4    0    0  0.71570004454E+03  0.15361383745E+04  0.18634162002E+04  0.25203106698E+04  0.87739829759E+02 0.  0.
          4    1    3    3  502    0 -0.69282614581E+03 -0.13754776716E+04 -0.28593617970E+03  0.15664311004E+04  0.00000000000E+00 0. -1.
         -3    1    3    3    0  502 -0.52566312247E+02 -0.14309184294E+03 -0.46414319909E+02  0.15935112736E+03  0.00000000000E+00 0.  1.
         13    1    5    5    0    0 -0.12061366175E+02  0.31460846285E+02 -0.19026195609E+02  0.38694412030E+02  0.00000000000E+00 0. -1.
        -13    1    5    5    0    0  0.41753779688E+02 -0.49029706298E+02 -0.35547438455E+02  0.73558892043E+02  0.00000000000E+00 0.  1.
          1    1    6    6  503    0  0.49721725291E+02  0.71998343192E+02  0.11593411570E+03  0.14524713619E+03  0.00000000000E+00 0. -1.
         -1    1    6    6    0  503  0.66597831925E+03  0.14641400313E+04  0.17474820845E+04  0.23750635336E+04  0.00000000000E+00 0.  1.
<mgrwt>
<rscale>  0 0.41006283E+04</rscale>
<asrwt>0</asrwt>
<pdfrwt beam="1">  1        2 0.44883371E+00 0.41006283E+04</pdfrwt>
<pdfrwt beam="2">  1       -1 0.22168109E+00 0.41006283E+04</pdfrwt>
<totfact> 0.18672620E-01</totfact>
</mgrwt>
</event>
<event>
12    7  0.1741211E-007  0.1697405E+04  0.7818608E-02  0.8762846E-01
         -1   -1    0    0    0  501 -0.00000000000E+00  0.00000000000E+00  0.68875006328E+03  0.68875006328E+03  0.00000000000E+00 0.  1.
          2   -1    0    0  501    0  0.00000000000E+00 -0.00000000000E+00 -0.10458016380E+04  0.10458016380E+04  0.00000000000E+00 0. -1.
         24    2    1    2    0    0 -0.23778543029E+03  0.57443760389E+02  0.43735700072E+03  0.50751604238E+03  0.80309966529E+02 0.  0.
        254    2    1    2    0    0  0.23778543029E+03 -0.57443760389E+02 -0.79440857540E+03  0.12270356589E+04  0.90260169896E+03 0.  0.
         23    2    4    4    0    0 -0.87459555381E+02  0.36853275031E+03 -0.29338663287E+03  0.48757234375E+03  0.90473820356E+02 0.  0.
         23    2    4    4    0    0  0.32524498567E+03 -0.42597651070E+03 -0.50102194254E+03  0.73946331511E+03  0.92426831131E+02 0.  0.
          2    1    3    3  502    0 -0.11244502337E+03  0.68444419087E+02  0.22126506876E+03  0.25746213787E+03  0.00000000000E+00 0. -1.
         -1    1    3    3    0  502 -0.12534040692E+03 -0.11000658698E+02  0.21609193196E+03  0.25005390451E+03  0.00000000000E+00 0.  1.
         13    1    5    5    0    0 -0.88380468716E+02  0.24207746155E+03 -0.23305892761E+03  0.34746088755E+03  0.00000000000E+00 0.  1.
        -13    1    5    5    0    0  0.92091333486E+00  0.12645528876E+03 -0.60327705255E+02  0.14011145620E+03  0.00000000000E+00 0. -1.
          3    1    6    6  503    0  0.11891841596E+03 -0.22924442951E+03 -0.25430982598E+03  0.36244735577E+03  0.00000000000E+00 0. -1.
         -3    1    6    6    0  503  0.20632656971E+03 -0.19673208119E+03 -0.24671211656E+03  0.37701595934E+03  0.00000000000E+00 0.  1.
<mgrwt>
<rscale>  0 0.16974050E+04</rscale>
<asrwt>0</asrwt>
<pdfrwt beam="1">  1        2 0.16089256E+00 0.16974050E+04</pdfrwt>
<pdfrwt beam="2">  1       -1 0.10596155E+00 0.16974050E+04</pdfrwt>
<totfact> 0.21314335E+01</totfact>
</mgrwt>
</event>
<event>
12    7  0.1741211E-007  0.1471007E+04  0.7818608E-02  0.8903965E-01
         -3   -1    0    0    0  501 -0.00000000000E+00  0.00000000000E+00  0.64681015489E+03  0.64681015489E+03  0.00000000000E+00 0.  1.
          4   -1    0    0  501    0  0.00000000000E+00 -0.00000000000E+00 -0.83635846976E+03  0.83635846976E+03  0.00000000000E+00 0. -1.
         24    2    1    2    0    0  0.28982339517E+03  0.30927744185E+03 -0.23466312575E+02  0.43225963641E+03  0.81532748149E+02 0.  0.
        254    2    1    2    0    0 -0.28982339517E+03 -0.30927744185E+03 -0.16608200230E+03  0.10509089882E+04  0.94719392610E+03 0.  0.
         23    2    4    4    0    0 -0.24375230502E+03 -0.61629845462E+03  0.34779106680E+02  0.67008023273E+03  0.92514651067E+02 0.  0.
         23    2    4    4    0    0 -0.46071090152E+02  0.30702101277E+03 -0.20086110898E+03  0.38082875551E+03  0.91109320555E+02 0.  0.
          2    1    3    3  502    0  0.13164338584E+03  0.15246701170E+03 -0.51106137921E+02  0.20781724670E+03  0.00000000000E+00 0. -1.
         -1    1    3    3    0  502  0.15818000933E+03  0.15681043015E+03  0.27639825346E+02  0.22444238972E+03  0.00000000000E+00 0.  1.
         13    1    5    5    0    0 -0.24359782593E+03 -0.54721944162E+03  0.19368973209E+02  0.59930307459E+03  0.00000000000E+00 0. -1.
        -13    1    5    5    0    0 -0.15447908452E+00 -0.69079013001E+02  0.15410133470E+02  0.70777158142E+02  0.00000000000E+00 0.  1.
          3    1    6    6  503    0  0.23822335121E+02  0.88258047554E+02 -0.36584502830E+02  0.98465285537E+02  0.00000000000E+00 0. -1.
         -3    1    6    6    0  503 -0.69893425273E+02  0.21876296522E+03 -0.16427660615E+03  0.28236346997E+03  0.00000000000E+00 0.  1.
<mgrwt>
<rscale>  0 0.14710067E+04</rscale>
<asrwt>0</asrwt>
<pdfrwt beam="1">  1        4 0.12867053E+00 0.14710067E+04</pdfrwt>
<pdfrwt beam="2">  1       -3 0.99509254E-01 0.14710067E+04</pdfrwt>
<totfact> 0.86915125E-01</totfact>
</mgrwt>
</event>
<event>
12    7  0.1741211E-007  0.2606821E+04  0.7818608E-02  0.8365888E-01
         -1   -1    0    0    0  501 -0.00000000000E+00  0.00000000000E+00  0.92847216051E+03  0.92847216051E+03  0.00000000000E+00 0.  1.
          2   -1    0    0  501    0  0.00000000000E+00 -0.00000000000E+00 -0.18297568415E+04  0.18297568415E+04  0.00000000000E+00 0. -1.
         24    2    1    2    0    0  0.34806161951E+03  0.64313972763E+03 -0.13265851755E+04  0.15168562356E+04  0.79050688278E+02 0.  0.
        254    2    1    2    0    0 -0.34806161951E+03 -0.64313972763E+03  0.42530049454E+03  0.12413727664E+04  0.90848788339E+03 0.  0.
         23    2    4    4    0    0 -0.10273757469E+03  0.42426669268E+02  0.48373766737E+03  0.50540950482E+03  0.95297456480E+02 0.  0.
         23    2    4    4    0    0 -0.24532404482E+03 -0.68556639690E+03 -0.58437172828E+02  0.73596326158E+03  0.89676349769E+02 0.  0.
          2    1    3    3  502    0  0.21886901044E+03  0.46918720354E+03 -0.97282114627E+03  0.11020078304E+04  0.00000000000E+00 0. -1.
         -1    1    3    3    0  502  0.12919260907E+03  0.17395252409E+03 -0.35376402921E+03  0.41484840513E+03  0.00000000000E+00 0.  1.
         13    1    5    5    0    0 -0.48060588320E+02  0.31002596954E+02  0.40414828549E+03  0.40817498433E+03  0.00000000000E+00 0. -1.
        -13    1    5    5    0    0 -0.54676986375E+02  0.11424072314E+02  0.79589381880E+02  0.97234520492E+02  0.00000000000E+00 0.  1.
          3    1    6    6  503    0 -0.21203914621E+03 -0.65363816249E+03 -0.49239526425E+02  0.68893249157E+03  0.00000000000E+00 0. -1.
         -3    1    6    6    0  503 -0.33284898614E+02 -0.31928234415E+02 -0.91976464022E+01  0.47030770013E+02  0.00000000000E+00 0.  1.
<mgrwt>
<rscale>  0 0.26068205E+04</rscale>
<asrwt>0</asrwt>
<pdfrwt beam="1">  1        2 0.28150105E+00 0.26068205E+04</pdfrwt>
<pdfrwt beam="2">  1       -1 0.14284187E+00 0.26068205E+04</pdfrwt>
<totfact> 0.33229984E+00</totfact>
</mgrwt>
</event>
<event>
12    7  0.1741211E-007  0.1452795E+04  0.7818608E-02  0.8916465E-01
         -1   -1    0    0    0  501 -0.00000000000E+00  0.00000000000E+00  0.72442405274E+03  0.72442405274E+03  0.00000000000E+00 0.  1.
          2   -1    0    0  501    0  0.00000000000E+00 -0.00000000000E+00 -0.72837605296E+03  0.72837605296E+03  0.00000000000E+00 0. -1.
         24    2    1    2    0    0 -0.28469070293E+02 -0.16439090631E+03 -0.45971655308E+03  0.49569192310E+03  0.80847482420E+02 0.  0.
        254    2    1    2    0    0  0.28469070293E+02  0.16439090631E+03  0.45576455286E+03  0.95710818260E+03  0.82492417077E+03 0.  0.
         23    2    4    4    0    0 -0.14058373484E+03 -0.28881130664E+03  0.27538517450E+03  0.43274409627E+03  0.90855386049E+02 0.  0.
         23    2    4    4    0    0  0.16905280514E+03  0.45320221295E+03  0.18037937836E+03  0.52436408634E+03  0.91923218802E+02 0.  0.
          4    1    3    3  502    0 -0.50126580136E+02 -0.12952586936E+03 -0.39832272999E+03  0.42184193971E+03  0.00000000000E+00 0. -1.
         -3    1    3    3    0  502  0.21657509843E+02 -0.34865036943E+02 -0.61393823088E+02  0.73849983392E+02  0.00000000000E+00 0.  1.
         13    1    5    5    0    0 -0.52947548102E+00 -0.16611253626E+02 -0.52774692033E+01  0.17437481828E+02  0.00000000000E+00 0.  1.
        -13    1    5    5    0    0 -0.14005425936E+03 -0.27220005302E+03  0.28066264370E+03  0.41530661444E+03  0.00000000000E+00 0. -1.
          3    1    6    6  503    0  0.93620601764E+02  0.12973221516E+03  0.66151974349E+02  0.17312235106E+03  0.00000000000E+00 0. -1.
         -3    1    6    6    0  503  0.75432203371E+02  0.32346999779E+03  0.11422740401E+03  0.35124173528E+03  0.00000000000E+00 0.  1.
<mgrwt>
<rscale>  0 0.14527947E+04</rscale>
<asrwt>0</asrwt>
<pdfrwt beam="1">  1        2 0.11205785E+00 0.14527947E+04</pdfrwt>
<pdfrwt beam="2">  1       -1 0.11144985E+00 0.14527947E+04</pdfrwt>
<totfact> 0.31916897E+01</totfact>
</mgrwt>
</event>
<event>
12    7  0.1741211E-007  0.2722106E+04  0.7818608E-02  0.8327868E-01
          2   -1    0    0  501    0  0.00000000000E+00  0.00000000000E+00  0.25297579161E+04  0.25297579161E+04  0.00000000000E+00 0. -1.
         -1   -1    0    0    0  501 -0.00000000000E+00 -0.00000000000E+00 -0.73227000809E+03  0.73227000809E+03  0.00000000000E+00 0.  1.
         24    2    1    2    0    0  0.60956410910E+03 -0.19300129328E+03  0.20220616305E+04  0.21222347463E+04  0.79556134818E+02 0.  0.
        254    2    1    2    0    0 -0.60956410910E+03  0.19300129328E+03 -0.22457372255E+03  0.11397931778E+04  0.91644815949E+03 0.  0.
         23    2    4    4    0    0 -0.19338841175E+03  0.50073772147E+03 -0.27622567992E+03  0.61078022202E+03  0.92814383884E+02 0.  0.
         23    2    4    4    0    0 -0.41617569735E+03 -0.30773642819E+03  0.51651957364E+02  0.52901295580E+03  0.96347612367E+02 0.  0.
          2    1    3    3  502    0  0.52982108455E+03 -0.13885902388E+03  0.17386574086E+04  0.18228883111E+04  0.00000000000E+00 0. -1.
         -1    1    3    3    0  502  0.79743024552E+02 -0.54142269408E+02  0.28340422189E+03  0.29934643523E+03  0.00000000000E+00 0.  1.
         13    1    5    5    0    0 -0.84652366920E+02  0.31034909374E+03 -0.19931661019E+03  0.37843056736E+03  0.00000000000E+00 0.  1.
        -13    1    5    5    0    0 -0.10873604483E+03  0.19038862773E+03 -0.76909069730E+02  0.23234965466E+03  0.00000000000E+00 0. -1.
          1    1    6    6  503    0 -0.23804962648E+00 -0.15097274290E+01 -0.88446105719E+01  0.89756938842E+01  0.00000000000E+00 0. -1.
         -1    1    6    6    0  503 -0.41593764772E+03 -0.30622670076E+03  0.60496567936E+02  0.52003726192E+03  0.00000000000E+00 0.  1.
<mgrwt>
<rscale>  0 0.27221064E+04</rscale>
<asrwt>0</asrwt>
<pdfrwt beam="1">  1        2 0.38919352E+00 0.27221064E+04</pdfrwt>
<pdfrwt beam="2">  1       -1 0.11265693E+00 0.27221064E+04</pdfrwt>
<totfact> 0.24010318E+00</totfact>
</mgrwt>
</event>
<event>
12    7  0.1741211E-007  0.3258123E+04  0.7818608E-02  0.8173633E-01
         -1   -1    0    0    0  501 -0.00000000000E+00  0.00000000000E+00  0.10172427814E+04  0.10172427814E+04  0.00000000000E+00 0.  1.
          2   -1    0    0  501    0  0.00000000000E+00 -0.00000000000E+00 -0.26088573202E+04  0.26088573202E+04  0.00000000000E+00 0. -1.
         24    2    1    2    0    0  0.72958181067E+03 -0.10155779070E+04  0.19229071061E+03  0.12694880413E+04  0.10457564716E+03 0.  0.
        254    2    1    2    0    0 -0.72958181067E+03  0.10155779070E+04 -0.17839052494E+04  0.23566120603E+04  0.89867366740E+03 0.  0.
         23    2    4    4    0    0 -0.15942205270E+03  0.33925917416E+03 -0.26638872693E+02  0.38713324401E+03  0.93007209057E+02 0.  0.
         23    2    4    4    0    0 -0.57015975797E+03  0.67631873283E+03 -0.17572663767E+04  0.19694788163E+04  0.91501427856E+02 0.  0.
          2    1    3    3  502    0  0.33702490151E+01 -0.18115722103E+01  0.80495793368E+01  0.89126931842E+01  0.00000000000E+00 0. -1.
         -1    1    3    3    0  502  0.72621156165E+03 -0.10137663348E+04  0.18424113127E+03  0.12605753481E+04  0.00000000000E+00 0.  1.
         13    1    5    5    0    0 -0.39974574714E+00  0.54642427432E+02  0.19155179041E+02  0.57904020210E+02  0.00000000000E+00 0. -1.
        -13    1    5    5    0    0 -0.15902230695E+03  0.28461674673E+03 -0.45794051734E+02  0.32922922380E+03  0.00000000000E+00 0.  1.
          3    1    6    6  503    0 -0.25308319199E+03  0.27470028576E+03 -0.64950165890E+03  0.74924211973E+03  0.00000000000E+00 0. -1.
         -3    1    6    6    0  503 -0.31707656598E+03  0.40161844707E+03 -0.11077647178E+04  0.12202366966E+04  0.00000000000E+00 0.  1.
<mgrwt>
<rscale>  0 0.32581229E+04</rscale>
<asrwt>0</asrwt>
<pdfrwt beam="1">  1        2 0.40136267E+00 0.32581229E+04</pdfrwt>
<pdfrwt beam="2">  1       -1 0.15649889E+00 0.32581229E+04</pdfrwt>
<totfact> 0.88961000E-01</totfact>
</mgrwt>
</event>
<event>
12    7  0.1741211E-007  0.1568547E+04  0.7818608E-02  0.8840107E-01
          2   -1    0    0  501    0  0.00000000000E+00  0.00000000000E+00  0.16838510647E+04  0.16838510647E+04  0.00000000000E+00 0. -1.
         -1   -1    0    0    0  501 -0.00000000000E+00 -0.00000000000E+00 -0.36528463542E+03  0.36528463542E+03  0.00000000000E+00 0.  1.
         24    2    1    2    0    0  0.76607248457E+02  0.51051343543E+02  0.11033689552E+04  0.11102395554E+04  0.82060397692E+02 0.  0.
        254    2    1    2    0    0 -0.76607248457E+02 -0.51051343543E+02  0.21519747400E+03  0.93889614465E+03  0.90925304917E+03 0.  0.
         23    2    4    4    0    0 -0.26392380408E+02 -0.34237495803E+02  0.56511132790E+03  0.57449615037E+03  0.93948123987E+02 0.  0.
         23    2    4    4    0    0 -0.50214868049E+02 -0.16813847741E+02 -0.34991385391E+03  0.36439999428E+03  0.86852819346E+02 0.  0.
          4    1    3    3  502    0  0.56167413440E+02  0.69214773020E+02  0.65497759382E+03  0.66101521279E+03  0.00000000000E+00 0. -1.
         -3    1    3    3    0  502  0.20439835017E+02 -0.18163429477E+02  0.44839136141E+03  0.44922434263E+03  0.00000000000E+00 0.  1.
         13    1    5    5    0    0  0.19538818036E+02 -0.49347477553E+02  0.23920047556E+03  0.24501797171E+03  0.00000000000E+00 0.  1.
        -13    1    5    5    0    0 -0.45931198444E+02  0.15109981751E+02  0.32591085234E+03  0.32947817866E+03  0.00000000000E+00 0. -1.
          3    1    6    6  503    0  0.21816701212E+02 -0.19967733863E+02 -0.10692648208E+03  0.11094120703E+03  0.00000000000E+00 0. -1.
         -3    1    6    6    0  503 -0.72031569262E+02  0.31538861226E+01 -0.24298737182E+03  0.25345878725E+03  0.00000000000E+00 0.  1.
<mgrwt>
<rscale>  0 0.15685470E+04</rscale>
<asrwt>0</asrwt>
<pdfrwt beam="1">  1        2 0.25905401E+00 0.15685470E+04</pdfrwt>
<pdfrwt beam="2">  1       -1 0.56197637E-01 0.15685470E+04</pdfrwt>
<totfact> 0.35124659E+01</totfact>
</mgrwt>
</event>
<event>
12    7  0.1741211E-007  0.1927315E+04  0.7818608E-02  0.8641378E-01
         -1   -1    0    0    0  501 -0.00000000000E+00  0.00000000000E+00  0.12638261892E+04  0.12638261892E+04  0.00000000000E+00 0.  1.
          2   -1    0    0  501    0  0.00000000000E+00 -0.00000000000E+00 -0.73478103094E+03  0.73478103094E+03  0.00000000000E+00 0. -1.
         24    2    1    2    0    0  0.29076140286E+03 -0.41653952589E+03  0.78065857725E+03  0.93513713433E+03  0.83703499011E+02 0.  0.
        254    2    1    2    0    0 -0.29076140286E+03  0.41653952589E+03 -0.25161341901E+03  0.10634700858E+04  0.89978438568E+03 0.  0.
         23    2    4    4    0    0 -0.17693302677E+03 -0.97386935735E+02 -0.44391027209E+03  0.49641554263E+03  0.92642053571E+02 0.  0.
         23    2    4    4    0    0 -0.11382837609E+03  0.51392646162E+03  0.19229685308E+03  0.56705454315E+03  0.86576371188E+02 0.  0.
          2    1    3    3  502    0  0.12569439313E+02 -0.72285637249E+01  0.55884347317E+01  0.15539418938E+02  0.00000000000E+00 0. -1.
         -1    1    3    3    0  502  0.27819196354E+03 -0.40931096216E+03  0.77507014252E+03  0.91959771539E+03  0.00000000000E+00 0.  1.
         13    1    5    5    0    0 -0.75098005358E+02 -0.25895887334E+02 -0.27741645664E+03  0.28856575993E+03  0.00000000000E+00 0. -1.
        -13    1    5    5    0    0 -0.10183502141E+03 -0.71491048401E+02 -0.16649381545E+03  0.20784978270E+03  0.00000000000E+00 0.  1.
          2    1    6    6  503    0 -0.61057766203E+02  0.30146430096E+03  0.66936093852E+02  0.31478439642E+03  0.00000000000E+00 0. -1.
         -2    1    6    6    0  503 -0.52770609885E+02  0.21246216066E+03  0.12536075922E+03  0.25227014674E+03  0.00000000000E+00 0.  1.
<mgrwt>
<rscale>  0 0.19273147E+04</rscale>
<asrwt>0</asrwt>
<pdfrwt beam="1">  1        2 0.11304324E+00 0.19273147E+04</pdfrwt>
<pdfrwt beam="2">  1       -1 0.19443480E+00 0.19273147E+04</pdfrwt>
<totfact> 0.67572450E+00</totfact>
</mgrwt>
</event>
<event>
12    7  0.1741211E-007  0.1165818E+04  0.7818608E-02  0.9143313E-01
          2   -1    0    0  501    0  0.00000000000E+00  0.00000000000E+00  0.19924466118E+04  0.19924466118E+04  0.00000000000E+00 0. -1.
         -1   -1    0    0    0  501 -0.00000000000E+00 -0.00000000000E+00 -0.17053555776E+03  0.17053555776E+03  0.00000000000E+00 0.  1.
         24    2    1    2    0    0  0.54856858054E+02 -0.94603242545E+02  0.54323435833E+01  0.13548302945E+03  0.79794063284E+02 0.  0.
        254    2    1    2    0    0 -0.54856858054E+02  0.94603242545E+02  0.18164787104E+04  0.20274991401E+04  0.89397919957E+03 0.  0.
         23    2    4    4    0    0 -0.16703877049E+03 -0.30534375917E+03  0.13435112132E+04  0.13909171362E+04  0.92148454577E+02 0.  0.
         23    2    4    4    0    0  0.11218191243E+03  0.39994700172E+03  0.47296749724E+03  0.63658200390E+03  0.94847290867E+02 0.  0.
          4    1    3    3  502    0 -0.14982990736E+02 -0.44534233562E+01 -0.12538055233E+02  0.20038109192E+02  0.00000000000E+00 0. -1.
         -3    1    3    3    0  502  0.69839848790E+02 -0.90149819189E+02  0.17970398816E+02  0.11544492025E+03  0.00000000000E+00 0.  1.
         13    1    5    5    0    0 -0.91800388108E+02 -0.89100597058E+02  0.39680064604E+03  0.41691363656E+03  0.00000000000E+00 0. -1.
        -13    1    5    5    0    0 -0.75238382378E+02 -0.21624316211E+03  0.94671056716E+03  0.97400349965E+03  0.00000000000E+00 0.  1.
          2    1    6    6  503    0  0.85891455840E+02  0.14014712634E+03  0.19892930497E+03  0.25805314876E+03  0.00000000000E+00 0. -1.
         -2    1    6    6    0  503  0.26290456592E+02  0.25979987537E+03  0.27403819227E+03  0.37852885514E+03  0.00000000000E+00 0.  1.
<mgrwt>
<rscale>  0 0.11658182E+04</rscale>
<asrwt>0</asrwt>
<pdfrwt beam="1">  1        2 0.30653023E+00 0.11658182E+04</pdfrwt>
<pdfrwt beam="2">  1       -1 0.26236241E-01 0.11658182E+04</pdfrwt>
<totfact> 0.98105775E+01</totfact>
</mgrwt>
</event>
<event>
12    7  0.1741211E-007  0.1564523E+04  0.7818608E-02  0.8842644E-01
         -1   -1    0    0    0  501 -0.00000000000E+00  0.00000000000E+00  0.35265003433E+03  0.35265003433E+03  0.00000000000E+00 0.  1.
          2   -1    0    0  501    0  0.00000000000E+00 -0.00000000000E+00 -0.17352421713E+04  0.17352421713E+04  0.00000000000E+00 0. -1.
         24    2    1    2    0    0 -0.42292155144E+03  0.16962522714E+03 -0.17287896087E+03  0.49504755760E+03  0.86888392869E+02 0.  0.
        254    2    1    2    0    0  0.42292155144E+03 -0.16962522714E+03 -0.12097131761E+04  0.15928446481E+04  0.93065178666E+03 0.  0.
         23    2    4    4    0    0  0.69502456353E+03 -0.39715729625E+02 -0.97070911886E+03  0.11979836845E+04  0.90841795324E+02 0.  0.
         23    2    4    4    0    0 -0.27210301209E+03 -0.12990949752E+03 -0.23900405726E+03  0.39486096357E+03  0.88745222025E+02 0.  0.
          4    1    3    3  502    0 -0.13893177894E+03  0.33358548462E+02 -0.17904676121E+02  0.14399794922E+03  0.00000000000E+00 0. -1.
         -3    1    3    3    0  502 -0.28398977251E+03  0.13626667868E+03 -0.15497428475E+03  0.35104960837E+03  0.00000000000E+00 0.  1.
         13    1    5    5    0    0  0.38074372666E+03 -0.20251220345E+02 -0.45375719698E+03  0.59268161026E+03  0.00000000000E+00 0. -1.
        -13    1    5    5    0    0  0.31428083686E+03 -0.19464509279E+02 -0.51695192187E+03  0.60530207423E+03  0.00000000000E+00 0.  1.
          3    1    6    6  503    0 -0.20193896324E+03 -0.58145875660E+02 -0.18943133487E+03  0.28292139962E+03  0.00000000000E+00 0. -1.
         -3    1    6    6    0  503 -0.70164048848E+02 -0.71763621856E+02 -0.49572722388E+02  0.11193956395E+03  0.00000000000E+00 0.  1.
<mgrwt>
<rscale>  0 0.15645232E+04</rscale>
<asrwt>0</asrwt>
<pdfrwt beam="1">  1        2 0.26696034E+00 0.15645232E+04</pdfrwt>
<pdfrwt beam="2">  1       -1 0.54253850E-01 0.15645232E+04</pdfrwt>
<totfact> 0.35226568E+01</totfact>
</mgrwt>
</event>
<event>
12    7  0.1741211E-007  0.1443282E+04  0.7818608E-02  0.8923071E-01
          2   -1    0    0  501    0  0.00000000000E+00  0.00000000000E+00  0.55280014914E+03  0.55280014914E+03  0.00000000000E+00 0. -1.
         -1   -1    0    0    0  501 -0.00000000000E+00 -0.00000000000E+00 -0.94205095597E+03  0.94205095597E+03  0.00000000000E+00 0.  1.
         24    2    1    2    0    0 -0.15588594844E+03  0.29089930270E+03  0.17571311543E+03  0.38179619586E+03  0.77268382947E+02 0.  0.
        254    2    1    2    0    0  0.15588594844E+03 -0.29089930270E+03 -0.56496392226E+03  0.11130549092E+04  0.90043554145E+03 0.  0.
         23    2    4    4    0    0  0.19373432066E+03 -0.57084997656E+03 -0.54156128226E+03  0.81533557018E+03  0.89893196716E+02 0.  0.
         23    2    4    4    0    0 -0.37848372219E+02  0.27995067385E+03 -0.23402639998E+02  0.29771933907E+03  0.91017812688E+02 0.  0.
          2    1    3    3  502    0 -0.78752701407E+02  0.21926125035E+03  0.13236576590E+03  0.26795182378E+03  0.00000000000E+00 0. -1.
         -3    1    3    3    0  502 -0.77133247034E+02  0.71638052351E+02  0.43347349535E+02  0.11384437208E+03  0.00000000000E+00 0.  1.
         13    1    5    5    0    0  0.47285667450E+02 -0.51651473110E+02 -0.63706452022E+02  0.94669536018E+02  0.00000000000E+00 0. -1.
        -13    1    5    5    0    0  0.14644865321E+03 -0.51919850345E+03 -0.47785483024E+03  0.72066603416E+03  0.00000000000E+00 0.  1.
          4    1    6    6  503    0 -0.33679031051E+02  0.26489940192E+03 -0.45275505379E+02  0.27084283572E+03  0.00000000000E+00 0.  1.
         -4    1    6    6    0  503 -0.41693411682E+01  0.15051271930E+02  0.21872865381E+02  0.26876503352E+02  0.00000000000E+00 0. -1.
<mgrwt>
<rscale>  0 0.14432822E+04</rscale>
<asrwt>0</asrwt>
<pdfrwt beam="1">  1        2 0.85046178E-01 0.14432822E+04</pdfrwt>
<pdfrwt beam="2">  1       -1 0.14493091E+00 0.14432822E+04</pdfrwt>
<totfact> 0.23219280E+01</totfact>
</mgrwt>
</event>
<event>
12    7  0.1741211E-007  0.1309351E+04  0.7818608E-02  0.9022183E-01
         -1   -1    0    0    0  501 -0.00000000000E+00  0.00000000000E+00  0.24096411017E+03  0.24096411017E+03  0.00000000000E+00 0.  1.
          2   -1    0    0  501    0  0.00000000000E+00 -0.00000000000E+00 -0.17786872693E+04  0.17786872693E+04  0.00000000000E+00 0. -1.
         24    2    1    2    0    0 -0.16955218131E+03  0.20095673831E+03 -0.74637200534E+03  0.79530850372E+03  0.79453715328E+02 0.  0.
        254    2    1    2    0    0  0.16955218131E+03 -0.20095673831E+03 -0.79135115376E+03  0.12243428757E+04  0.89646376161E+03 0.  0.
         23    2    4    4    0    0 -0.10183142644E+03 -0.47913616596E+03 -0.60451441332E+03  0.78340834494E+03  0.91377535874E+02 0.  0.
         23    2    4    4    0    0  0.27138360776E+03  0.27817942765E+03 -0.18683674044E+03  0.44093453077E+03  0.92100142885E+02 0.  0.
          2    1    3    3  502    0 -0.10929608641E+03  0.13757546218E+03 -0.59594685188E+03  0.62130933726E+03  0.00000000000E+00 0. -1.
         -3    1    3    3    0  502 -0.60256094904E+02  0.63381276136E+02 -0.15042515346E+03  0.17399916647E+03  0.00000000000E+00 0.  1.
         13    1    5    5    0    0 -0.63120085888E+02 -0.43445420317E+03 -0.53892184222E+03  0.69510528118E+03  0.00000000000E+00 0. -1.
        -13    1    5    5    0    0 -0.38711340557E+02 -0.44681962797E+02 -0.65592571099E+02  0.88303063766E+02  0.00000000000E+00 0.  1.
          4    1    6    6  503    0  0.23531143762E+03  0.27284895369E+03 -0.18344191620E+03  0.40431294912E+03  0.00000000000E+00 0. -1.
         -4    1    6    6    0  503  0.36072170139E+02  0.53304739596E+01 -0.33948242410E+01  0.36621581654E+02  0.00000000000E+00 0.  1.
<mgrwt>
<rscale>  0 0.13093507E+04</rscale>
<asrwt>0</asrwt>
<pdfrwt beam="1">  1        2 0.27364419E+00 0.13093507E+04</pdfrwt>
<pdfrwt beam="2">  1       -1 0.37071402E-01 0.13093507E+04</pdfrwt>
<totfact> 0.69228019E+01</totfact>
</mgrwt>
</event>
<event>
12    7  0.1741211E-007  0.3056867E+04  0.7818608E-02  0.8227676E-01
         -1   -1    0    0    0  501 -0.00000000000E+00  0.00000000000E+00  0.23493553784E+04  0.23493553784E+04  0.00000000000E+00 0.  1.
          2   -1    0    0  501    0  0.00000000000E+00 -0.00000000000E+00 -0.99436175659E+03  0.99436175659E+03  0.00000000000E+00 0. -1.
         24    2    1    2    0    0 -0.83088504499E+03 -0.93235958890E+03  0.12980870949E+04  0.18031468997E+04  0.81512422515E+02 0.  0.
        254    2    1    2    0    0  0.83088504499E+03  0.93235958890E+03  0.56906526904E+02  0.15405702353E+04  0.90025215131E+03 0.  0.
         23    2    4    4    0    0  0.26586915057E+03  0.61815905298E+03 -0.35693863186E+03  0.76716039983E+03  0.91229776713E+02 0.  0.
         23    2    4    4    0    0  0.56501589443E+03  0.31420053592E+03  0.41384515876E+03  0.77340983542E+03  0.94498785023E+02 0.  0.
          2    1    3    3  502    0 -0.48863257643E+03 -0.58880109533E+03  0.83624264590E+03  0.11334682560E+04  0.00000000000E+00 0. -1.
         -1    1    3    3    0  502 -0.34225246856E+03 -0.34355849357E+03  0.46184444897E+03  0.66967864367E+03  0.00000000000E+00 0.  1.
         13    1    5    5    0    0  0.45199137527E+02  0.42878253312E+02 -0.23621111083E+02  0.66629299329E+02  0.00000000000E+00 0. -1.
        -13    1    5    5    0    0  0.22067001304E+03  0.57528079967E+03 -0.33331752077E+03  0.70053110050E+03  0.00000000000E+00 0.  1.
          2    1    6    6  503    0  0.10363053672E+03  0.74057568590E+02  0.42353461048E+02  0.13422975553E+03  0.00000000000E+00 0. -1.
         -2    1    6    6    0  503  0.46138535771E+03  0.24014296733E+03  0.37149169771E+03  0.63918007990E+03  0.00000000000E+00 0.  1.
<mgrwt>
<rscale>  0 0.30568671E+04</rscale>
<asrwt>0</asrwt>
<pdfrwt beam="1">  1        2 0.15297873E+00 0.30568671E+04</pdfrwt>
<pdfrwt beam="2">  1       -1 0.36143929E+00 0.30568671E+04</pdfrwt>
<totfact> 0.32145790E-01</totfact>
</mgrwt>
</event>
<event>
12    7  0.1741211E-007  0.1574323E+04  0.7818608E-02  0.8836480E-01
          2   -1    0    0  501    0  0.00000000000E+00  0.00000000000E+00  0.85430568335E+03  0.85430568335E+03  0.00000000000E+00 0. -1.
         -1   -1    0    0    0  501 -0.00000000000E+00 -0.00000000000E+00 -0.72529421720E+03  0.72529421720E+03  0.00000000000E+00 0.  1.
         24    2    1    2    0    0 -0.18514912935E+03  0.33556136348E+03 -0.30120022382E+03  0.49298430307E+03  0.73690701468E+02 0.  0.
        254    2    1    2    0    0  0.18514912935E+03 -0.33556136348E+03  0.43021168997E+03  0.10866155975E+04  0.92128699639E+03 0.  0.
         23    2    4    4    0    0  0.23982306116E+03 -0.55358002803E+03  0.20800420475E+02  0.61056497719E+03  0.91602324082E+02 0.  0.
         23    2    4    4    0    0 -0.54673931811E+02  0.21801866455E+03  0.40941126949E+03  0.47605062029E+03  0.92115300452E+02 0.  0.
          2    1    3    3  502    0 -0.14589961502E+02  0.88910750153E+02 -0.61650707729E+02  0.10917324871E+03  0.00000000000E+00 0. -1.
         -1    1    3    3    0  502 -0.17055916785E+03  0.24665061333E+03 -0.23954951609E+03  0.38381105437E+03  0.00000000000E+00 0.  1.
         13    1    5    5    0    0  0.51150363628E+02 -0.90604240638E+02  0.36808915859E+02  0.11036477884E+03  0.00000000000E+00 0. -1.
        -13    1    5    5    0    0  0.18867269754E+03 -0.46297578739E+03 -0.16008495385E+02  0.50020019835E+03  0.00000000000E+00 0.  1.
          3    1    6    6  503    0 -0.13677046808E+02 -0.24692586168E+01  0.74754081740E+01  0.15781019449E+02  0.00000000000E+00 0. -1.
         -3    1    6    6    0  503 -0.40996885003E+02  0.22048792316E+03  0.40193586132E+03  0.46026960084E+03  0.00000000000E+00 0.  1.
<mgrwt>
<rscale>  0 0.15743227E+04</rscale>
<asrwt>0</asrwt>
<pdfrwt beam="1">  1        2 0.13143164E+00 0.15743227E+04</pdfrwt>
<pdfrwt beam="2">  1       -1 0.11158373E+00 0.15743227E+04</pdfrwt>
<totfact> 0.25509158E+01</totfact>
</mgrwt>
</event>
<event>
12    7  0.1741211E-007  0.3012983E+04  0.7818608E-02  0.8240033E-01
          2   -1    0    0  501    0  0.00000000000E+00  0.00000000000E+00  0.15466315674E+04  0.15466315674E+04  0.00000000000E+00 0. -1.
         -1   -1    0    0    0  501 -0.00000000000E+00 -0.00000000000E+00 -0.14673928148E+04  0.14673928148E+04  0.00000000000E+00 0.  1.
         24    2    1    2    0    0 -0.44360495687E+03  0.15561544906E+03  0.13242433755E+04  0.14074769295E+04  0.79807667727E+02 0.  0.
        254    2    1    2    0    0  0.44360495687E+03 -0.15561544906E+03 -0.12450046229E+04  0.16065474527E+04  0.89997593352E+03 0.  0.
         23    2    4    4    0    0 -0.13891635930E+03 -0.22478823605E+03 -0.62103265319E+02  0.28315789747E+03  0.80585813807E+02 0.  0.
         23    2    4    4    0    0  0.58252131617E+03  0.69172786990E+02 -0.11829013576E+04  0.13233895552E+04  0.89377484935E+02 0.  0.
          4    1    3    3  502    0 -0.33032615410E+03  0.14974582985E+03  0.10406634781E+04  0.11020524744E+04  0.00000000000E+00 0. -1.
         -3    1    3    3    0  502 -0.11327880277E+03  0.58696192094E+01  0.28357989741E+03  0.30542445514E+03  0.00000000000E+00 0.  1.
         13    1    5    5    0    0 -0.16733315269E+02 -0.16773489062E+01  0.89423377974E+01  0.19046856552E+02  0.00000000000E+00 0. -1.
        -13    1    5    5    0    0 -0.12218304403E+03 -0.22311088715E+03 -0.71045603116E+02  0.26411104092E+03  0.00000000000E+00 0.  1.
          1    1    6    6  503    0  0.10876295753E+03  0.19957284718E+01 -0.30078196857E+03  0.31984864620E+03  0.00000000000E+00 0. -1.
         -1    1    6    6    0  503  0.47375835864E+03  0.67177058518E+02 -0.88211938903E+03  0.10035409090E+04  0.00000000000E+00 0.  1.
<mgrwt>
<rscale>  0 0.30129826E+04</rscale>
<asrwt>0</asrwt>
<pdfrwt beam="1">  1        2 0.23794332E+00 0.30129826E+04</pdfrwt>
<pdfrwt beam="2">  1       -1 0.22575274E+00 0.30129826E+04</pdfrwt>
<totfact> 0.11717487E+00</totfact>
</mgrwt>
</event>
<event>
12    7  0.1741211E-007  0.1171949E+04  0.7818608E-02  0.9137770E-01
         -1   -1    0    0    0  501 -0.00000000000E+00  0.00000000000E+00  0.27234180079E+03  0.27234180079E+03  0.00000000000E+00 0.  1.
          2   -1    0    0  501    0  0.00000000000E+00 -0.00000000000E+00 -0.12607909417E+04  0.12607909417E+04  0.00000000000E+00 0. -1.
         24    2    1    2    0    0  0.82906297582E+02 -0.25415870884E+02  0.80817870180E+02  0.14362903317E+03  0.81107030267E+02 0.  0.
        254    2    1    2    0    0 -0.82906297582E+02  0.25415870884E+02 -0.10692670111E+04  0.13895037094E+04  0.88310203065E+03 0.  0.
         23    2    4    4    0    0  0.28053466671E+03 -0.25016839422E+03 -0.29361144665E+03  0.48515993318E+03  0.88817534663E+02 0.  0.
         23    2    4    4    0    0 -0.36344096429E+03  0.27558426510E+03 -0.77565556449E+03  0.90434377618E+03  0.90333211520E+02 0.  0.
          4    1    3    3  502    0  0.33759681258E+02  0.55649494582E+01  0.78332934857E+02  0.85479432757E+02  0.00000000000E+00 0. -1.
         -3    1    3    3    0  502  0.49146616324E+02 -0.30980820342E+02  0.24849353224E+01  0.58149600417E+02  0.00000000000E+00 0.  1.
         13    1    5    5    0    0 -0.45196314995E+01 -0.32754762334E+01 -0.15830741687E+02  0.16785952336E+02  0.00000000000E+00 0. -1.
        -13    1    5    5    0    0  0.28505429821E+03 -0.24689291799E+03 -0.27778070497E+03  0.46837398084E+03  0.00000000000E+00 0.  1.
          1    1    6    6  503    0 -0.32057105309E+02  0.64115276917E+02 -0.11080399855E+03  0.13196951478E+03  0.00000000000E+00 0. -1.
         -1    1    6    6    0  503 -0.33138385898E+03  0.21146898819E+03 -0.66485156593E+03  0.77237426140E+03  0.00000000000E+00 0.  1.
<mgrwt>
<rscale>  0 0.11719489E+04</rscale>
<asrwt>0</asrwt>
<pdfrwt beam="1">  1        2 0.19396783E+00 0.11719489E+04</pdfrwt>
<pdfrwt beam="2">  1       -1 0.41898739E-01 0.11719489E+04</pdfrwt>
<totfact> 0.10976851E+02</totfact>
</mgrwt>
</event>
<event>
12    7  0.1741211E-007  0.1660235E+04  0.7818608E-02  0.8784375E-01
          2   -1    0    0  501    0  0.00000000000E+00  0.00000000000E+00  0.80267546728E+03  0.80267546728E+03  0.00000000000E+00 0. -1.
         -1   -1    0    0    0  501 -0.00000000000E+00 -0.00000000000E+00 -0.85849743573E+03  0.85849743573E+03  0.00000000000E+00 0.  1.
         24    2    1    2    0    0  0.30014620712E+03  0.37895648269E+03 -0.35283306515E+03  0.60411212278E+03  0.82246724004E+02 0.  0.
        254    2    1    2    0    0 -0.30014620712E+03 -0.37895648269E+03  0.29701109670E+03  0.10570607802E+04  0.89188908511E+03 0.  0.
         23    2    4    4    0    0  0.30825388233E+03 -0.90321618390E+02  0.72647683948E+02  0.34122167934E+03  0.89309001517E+02 0.  0.
         23    2    4    4    0    0 -0.60840008945E+03 -0.28863486430E+03  0.22436341275E+03  0.71583910089E+03  0.92875850765E+02 0.  0.
          2    1    3    3  502    0  0.23771661950E+03  0.30980564353E+03 -0.24233439370E+03  0.45958098994E+03  0.00000000000E+00 0. -1.
         -1    1    3    3    0  502  0.62429587620E+02  0.69150839157E+02 -0.11049867145E+03  0.14453113284E+03  0.00000000000E+00 0.  1.
         13    1    5    5    0    0  0.31175246928E+03 -0.80716406956E+02  0.65180620291E+02  0.32856240460E+03  0.00000000000E+00 0. -1.
        -13    1    5    5    0    0 -0.34985869535E+01 -0.96052114338E+01  0.74670636574E+01  0.12659274743E+02  0.00000000000E+00 0.  1.
          3    1    6    6  503    0 -0.58317312000E+03 -0.26882184289E+03  0.23215941318E+03  0.68282799023E+03  0.00000000000E+00 0. -1.
         -3    1    6    6    0  503 -0.25226969442E+02 -0.19813021404E+02 -0.77960004287E+01  0.33011110661E+02  0.00000000000E+00 0.  1.
<mgrwt>
<rscale>  0 0.16602347E+04</rscale>
<asrwt>0</asrwt>
<pdfrwt beam="1">  1        2 0.12348853E+00 0.16602347E+04</pdfrwt>
<pdfrwt beam="2">  1       -1 0.13207653E+00 0.16602347E+04</pdfrwt>
<totfact> 0.18207296E+01</totfact>
</mgrwt>
</event>
<event>
12    7  0.1741211E-007  0.1539685E+04  0.7818608E-02  0.8858483E-01
          2   -1    0    0  501    0  0.00000000000E+00  0.00000000000E+00  0.31426814329E+04  0.31426814329E+04  0.00000000000E+00 0. -1.
         -1   -1    0    0    0  501 -0.00000000000E+00 -0.00000000000E+00 -0.18858347410E+03  0.18858347410E+03  0.00000000000E+00 0.  1.
         24    2    1    2    0    0 -0.14245403720E+03 -0.30087601635E+03  0.17889024000E+04  0.18214068501E+04  0.80818235703E+02 0.  0.
        254    2    1    2    0    0  0.14245403720E+03  0.30087601635E+03  0.11651955588E+04  0.15098580568E+04  0.90065039366E+03 0.  0.
         23    2    4    4    0    0  0.27900205731E+02 -0.17818101198E+03 -0.39333495044E+02  0.20519080370E+03  0.89606068883E+02 0.  0.
         23    2    4    4    0    0  0.11455383147E+03  0.47905702833E+03  0.12045290539E+04  0.13046672531E+04  0.92995608075E+02 0.  0.
          2    1    3    3  502    0 -0.57011482160E+02 -0.20397161835E+03  0.10242490820E+04  0.10459163026E+04  0.00000000000E+00 0. -1.
         -1    1    3    3    0  502 -0.85442555039E+02 -0.96904398003E+02  0.76465331801E+03  0.77549054753E+03  0.00000000000E+00 0.  1.
         13    1    5    5    0    0 -0.29134096302E+02 -0.43551760204E+02  0.43889497621E+01  0.52581501159E+02  0.00000000000E+00 0.  1.
        -13    1    5    5    0    0  0.57034302032E+02 -0.13462925178E+03 -0.43722444806E+02  0.15260930254E+03  0.00000000000E+00 0. -1.
          1    1    6    6  503    0  0.99798837580E+02  0.35698326388E+03  0.79676859620E+03  0.87877019440E+03  0.00000000000E+00 0. -1.
         -1    1    6    6    0  503  0.14754993889E+02  0.12207376445E+03  0.40776045765E+03  0.42589705873E+03  0.00000000000E+00 0.  1.
<mgrwt>
<rscale>  0 0.15396854E+04</rscale>
<asrwt>0</asrwt>
<pdfrwt beam="1">  1        2 0.48348941E+00 0.15396854E+04</pdfrwt>
<pdfrwt beam="2">  1       -1 0.29012845E-01 0.15396854E+04</pdfrwt>
<totfact> 0.16909628E+01</totfact>
</mgrwt>
</event>
<event>
12    7  0.1741211E-007  0.1516290E+04  0.7818608E-02  0.8873692E-01
         -1   -1    0    0    0  501 -0.00000000000E+00  0.00000000000E+00  0.14523352014E+04  0.14523352014E+04  0.00000000000E+00 0.  1.
          2   -1    0    0  501    0  0.00000000000E+00 -0.00000000000E+00 -0.39576547849E+03  0.39576547849E+03  0.00000000000E+00 0. -1.
         24    2    1    2    0    0  0.18209109139E+03  0.44354941179E+03  0.46278820423E+03  0.67109981663E+03  0.79427927384E+02 0.  0.
        254    2    1    2    0    0 -0.18209109139E+03 -0.44354941179E+03  0.59378151871E+03  0.11770008633E+04  0.89602527530E+03 0.  0.
         23    2    4    4    0    0  0.30665147730E+03 -0.27007530010E+03  0.52715665273E+02  0.42213894945E+03  0.91905141435E+02 0.  0.
         23    2    4    4    0    0 -0.48874256869E+03 -0.17347411169E+03  0.54106585344E+03  0.75486191385E+03  0.90009362521E+02 0.  0.
          2    1    3    3  502    0  0.13484883972E+03  0.38192591999E+03  0.41515893196E+03  0.58000737644E+03  0.00000000000E+00 0. -1.
         -1    1    3    3    0  502  0.47242251663E+02  0.61623491794E+02  0.47629272268E+02  0.91092440191E+02  0.00000000000E+00 0.  1.
         13    1    5    5    0    0  0.16420744851E+03 -0.15468188527E+03  0.74400576462E+02  0.23754161226E+03  0.00000000000E+00 0. -1.
        -13    1    5    5    0    0  0.14244402879E+03 -0.11539341482E+03 -0.21684911189E+02  0.18459733719E+03  0.00000000000E+00 0.  1.
          1    1    6    6  503    0 -0.26438292158E+02 -0.27913063693E+02  0.20409744895E+02  0.43527923264E+02  0.00000000000E+00 0. -1.
         -1    1    6    6    0  503 -0.46230427653E+03 -0.14556104800E+03  0.52065610855E+03  0.71133399059E+03  0.00000000000E+00 0.  1.
<mgrwt>
<rscale>  0 0.15162904E+04</rscale>
<asrwt>0</asrwt>
<pdfrwt beam="1">  1        2 0.60886997E-01 0.15162904E+04</pdfrwt>
<pdfrwt beam="2">  1       -1 0.22343618E+00 0.15162904E+04</pdfrwt>
<totfact> 0.92745090E+00</totfact>
</mgrwt>
</event>
<event>
12    7  0.1741211E-007  0.1763757E+04  0.7818608E-02  0.8725814E-01
          2   -1    0    0  501    0  0.00000000000E+00  0.00000000000E+00  0.36149918336E+04  0.36149918336E+04  0.00000000000E+00 0. -1.
         -1   -1    0    0    0  501 -0.00000000000E+00 -0.00000000000E+00 -0.21513457237E+03  0.21513457237E+03  0.00000000000E+00 0.  1.
         24    2    1    2    0    0 -0.18499591416E+03 -0.42554679378E+03  0.36991612678E+03  0.59955422888E+03  0.85520585617E+02 0.  0.
        254    2    1    2    0    0  0.18499591416E+03  0.42554679378E+03  0.30299411344E+04  0.32305721771E+04  0.10201665311E+04 0.  0.
         23    2    4    4    0    0 -0.16082941236E+03 -0.22286726371E+03  0.37177010559E+03  0.47112238985E+03  0.90594578697E+02 0.  0.
         23    2    4    4    0    0  0.34582532652E+03  0.64841405749E+03  0.26581710288E+04  0.27594497872E+04  0.93026680076E+02 0.  0.
          2    1    3    3  502    0 -0.98908305298E+01 -0.42578613231E+02  0.70146536806E+02  0.82651699675E+02  0.00000000000E+00 0. -1.
         -1    1    3    3    0  502 -0.17510508363E+03 -0.38296818054E+03  0.29976958997E+03  0.51690252920E+03  0.00000000000E+00 0.  1.
         13    1    5    5    0    0  0.88691395387E+01 -0.23387743513E+02  0.52683842045E+02  0.58320111415E+02  0.00000000000E+00 0.  1.
        -13    1    5    5    0    0 -0.16969855189E+03 -0.19947952020E+03  0.31908626355E+03  0.41280227843E+03  0.00000000000E+00 0. -1.
          1    1    6    6  503    0  0.35073897587E+03  0.64630471827E+03  0.26414507959E+04  0.27418953162E+04  0.00000000000E+00 0. -1.
         -1    1    6    6    0  503 -0.49136493456E+01  0.21093392168E+01  0.16720232950E+02  0.17554470990E+02  0.00000000000E+00 0.  1.
<mgrwt>
<rscale>  0 0.17637570E+04</rscale>
<asrwt>0</asrwt>
<pdfrwt beam="1">  1        2 0.55615255E+00 0.17637570E+04</pdfrwt>
<pdfrwt beam="2">  1       -1 0.33097629E-01 0.17637570E+04</pdfrwt>
<totfact> 0.62885541E+00</totfact>
</mgrwt>
</event>
<event>
12    7  0.1741211E-007  0.2338863E+04  0.7818608E-02  0.8462754E-01
         -1   -1    0    0    0  501 -0.00000000000E+00  0.00000000000E+00  0.40844105059E+03  0.40844105059E+03  0.00000000000E+00 0.  1.
          2   -1    0    0  501    0  0.00000000000E+00 -0.00000000000E+00 -0.33482664981E+04  0.33482664981E+04  0.00000000000E+00 0. -1.
         24    2    1    2    0    0 -0.54886721111E+03 -0.28039272160E+03 -0.25096004976E+04  0.25854843940E+04  0.82216787544E+02 0.  0.
        254    2    1    2    0    0  0.54886721111E+03  0.28039272160E+03 -0.43022494994E+03  0.11712231547E+04  0.89821761110E+03 0.  0.
         23    2    4    4    0    0  0.49164890188E+03 -0.24180461955E+03 -0.19059098978E+03  0.58711944727E+03  0.90532884778E+02 0.  0.
         23    2    4    4    0    0  0.57218309228E+02  0.52219734115E+03 -0.23963396016E+03  0.58410370747E+03  0.88253658290E+02 0.  0.
          4    1    3    3  502    0 -0.50618122292E+03 -0.23313217515E+03 -0.22090262125E+04  0.22782376629E+04  0.00000000000E+00 0. -1.
         -3    1    3    3    0  502 -0.42685988192E+02 -0.47260546452E+02 -0.30057428513E+03  0.30724673102E+03  0.00000000000E+00 0.  1.
         13    1    5    5    0    0  0.38758540975E+03 -0.19752383764E+03 -0.11138561685E+03  0.44904885250E+03  0.00000000000E+00 0. -1.
        -13    1    5    5    0    0  0.10406349213E+03 -0.44280781905E+02 -0.79205372934E+02  0.13807059478E+03  0.00000000000E+00 0.  1.
          2    1    6    6  503    0  0.51644920489E+02  0.33805067706E+03 -0.11148602569E+03  0.35968679709E+03  0.00000000000E+00 0. -1.
         -2    1    6    6    0  503  0.55733887393E+01  0.18414666409E+03 -0.12814793447E+03  0.22441691038E+03  0.00000000000E+00 0.  1.
<mgrwt>
<rscale>  0 0.23388625E+04</rscale>
<asrwt>0</asrwt>
<pdfrwt beam="1">  1        2 0.51511793E+00 0.23388625E+04</pdfrwt>
<pdfrwt beam="2">  1       -1 0.62837084E-01 0.23388625E+04</pdfrwt>
<totfact> 0.27348364E+00</totfact>
</mgrwt>
</event>
<event>
12    7  0.1741211E-007  0.1894726E+04  0.7818608E-02  0.8657486E-01
         -1   -1    0    0    0  501 -0.00000000000E+00  0.00000000000E+00  0.46430757011E+03  0.46430757011E+03  0.00000000000E+00 0.  1.
          2   -1    0    0  501    0  0.00000000000E+00 -0.00000000000E+00 -0.19329786879E+04  0.19329786879E+04  0.00000000000E+00 0. -1.
         24    2    1    2    0    0  0.55177768444E+03  0.35900185044E+02 -0.11856555357E+04  0.13105787225E+04  0.78039106415E+02 0.  0.
        254    2    1    2    0    0 -0.55177768444E+03 -0.35900185044E+02 -0.28301558207E+03  0.10867075355E+04  0.89167707814E+03 0.  0.
         23    2    4    4    0    0  0.12856537998E+03 -0.24441034700E+03 -0.22369660579E+03  0.36662397543E+03  0.90041619654E+02 0.  0.
         23    2    4    4    0    0 -0.68034306442E+03  0.20851016195E+03 -0.59318976271E+02  0.72008356007E+03  0.93050629231E+02 0.  0.
          4    1    3    3  502    0  0.14327850955E+03 -0.59036342526E+01 -0.23934459330E+03  0.27901508658E+03  0.00000000000E+00 0. -1.
         -3    1    3    3    0  502  0.40849917489E+03  0.41803819297E+02 -0.94631094240E+03  0.10315636359E+04  0.00000000000E+00 0.  1.
         13    1    5    5    0    0  0.12685373082E+03 -0.23323480395E+03 -0.23201131927E+03  0.35258983971E+03  0.00000000000E+00 0. -1.
        -13    1    5    5    0    0  0.17116491587E+01 -0.11175543050E+02  0.83147134780E+01  0.14034135725E+02  0.00000000000E+00 0.  1.
          1    1    6    6  503    0 -0.62057906570E+03  0.16455697591E+03 -0.66942434463E+02  0.64550651789E+03  0.00000000000E+00 0. -1.
         -1    1    6    6    0  503 -0.59763998722E+02  0.43953186040E+02  0.76234581924E+01  0.74577042185E+02  0.00000000000E+00 0.  1.
<mgrwt>
<rscale>  0 0.18947260E+04</rscale>
<asrwt>0</asrwt>
<pdfrwt beam="1">  1        2 0.29738133E+00 0.18947260E+04</pdfrwt>
<pdfrwt beam="2">  1       -1 0.71431936E-01 0.18947260E+04</pdfrwt>
<totfact> 0.15369536E+01</totfact>
</mgrwt>
</event>
<event>
12    7  0.1741211E-007  0.1526517E+04  0.7818608E-02  0.8867008E-01
         -1   -1    0    0    0  501 -0.00000000000E+00  0.00000000000E+00  0.61383721508E+03  0.61383721508E+03  0.00000000000E+00 0.  1.
          2   -1    0    0  501    0  0.00000000000E+00 -0.00000000000E+00 -0.94905226718E+03  0.94905226718E+03  0.00000000000E+00 0. -1.
         24    2    1    2    0    0  0.23664758253E+03 -0.25028017656E+03  0.25954896930E+03  0.43842307472E+03  0.78783753978E+02 0.  0.
        254    2    1    2    0    0 -0.23664758253E+03  0.25028017656E+03 -0.59476402140E+03  0.11244664075E+04  0.88996528889E+03 0.  0.
         23    2    4    4    0    0 -0.19847696376E+03  0.42342547531E+03  0.23105543498E+02  0.47514251545E+03  0.80896882313E+02 0.  0.
         23    2    4    4    0    0 -0.38170618769E+02 -0.17314529875E+03 -0.61786956490E+03  0.64932389209E+03  0.91773781617E+02 0.  0.
          4    1    3    3  502    0  0.69494906968E+02 -0.85956586499E+02  0.40847409383E+02  0.11784136672E+03  0.00000000000E+00 0. -1.
         -3    1    3    3    0  502  0.16715267556E+03 -0.16432359006E+03  0.21870155991E+03  0.32058170800E+03  0.00000000000E+00 0.  1.
         13    1    5    5    0    0 -0.14556238612E+03  0.35893080642E+03 -0.42533568926E+01  0.38734716095E+03  0.00000000000E+00 0. -1.
        -13    1    5    5    0    0 -0.52914577643E+02  0.64494668885E+02  0.27358900391E+02  0.87795354503E+02  0.00000000000E+00 0.  1.
          1    1    6    6  503    0 -0.58953398090E+02 -0.15862564322E+03 -0.57630851716E+03  0.60064057871E+03  0.00000000000E+00 0. -1.
         -1    1    6    6    0  503  0.20782779321E+02 -0.14519655526E+02 -0.41561047734E+02  0.48683313380E+02  0.00000000000E+00 0.  1.
<mgrwt>
<rscale>  0 0.15265171E+04</rscale>
<asrwt>0</asrwt>
<pdfrwt beam="1">  1        2 0.14600804E+00 0.15265171E+04</pdfrwt>
<pdfrwt beam="2">  1       -1 0.94436495E-01 0.15265171E+04</pdfrwt>
<totfact> 0.32474139E+01</totfact>
</mgrwt>
</event>
<event>
12    7  0.1741211E-007  0.1151206E+04  0.7818608E-02  0.9156671E-01
         -1   -1    0    0    0  501 -0.00000000000E+00  0.00000000000E+00  0.40008583092E+03  0.40008583092E+03  0.00000000000E+00 0.  1.
          2   -1    0    0  501    0  0.00000000000E+00 -0.00000000000E+00 -0.82811969053E+03  0.82811969053E+03  0.00000000000E+00 0. -1.
         24    2    1    2    0    0 -0.11388345113E+03 -0.90112986478E+02  0.86169773284E+02  0.18872523368E+03  0.84274511119E+02 0.  0.
        254    2    1    2    0    0  0.11388345113E+03  0.90112986478E+02 -0.51420363290E+03  0.10394802878E+04  0.89164124052E+03 0.  0.
         23    2    4    4    0    0 -0.19591989284E+03  0.21015264037E+03 -0.61106741988E+03  0.68145658653E+03  0.91820210277E+02 0.  0.
         23    2    4    4    0    0  0.30980334398E+03 -0.12003965390E+03  0.96863786980E+02  0.35802370124E+03  0.91710124736E+02 0.  0.
          4    1    3    3  502    0 -0.76205706555E+01  0.72376579600E+01 -0.10764188808E+02  0.15044086897E+02  0.00000000000E+00 0. -1.
         -3    1    3    3    0  502 -0.10626288048E+03 -0.97350644438E+02  0.96933962092E+02  0.17368114678E+03  0.00000000000E+00 0.  1.
         13    1    5    5    0    0 -0.17127177704E+03  0.17589999265E+03 -0.42639344146E+03  0.49202255633E+03  0.00000000000E+00 0. -1.
        -13    1    5    5    0    0 -0.24648115806E+02  0.34252647723E+02 -0.18467397842E+03  0.18943403019E+03  0.00000000000E+00 0.  1.
          1    1    6    6  503    0  0.27772237840E+03 -0.13399106301E+03  0.77119930288E+02  0.31785343804E+03  0.00000000000E+00 0. -1.
         -1    1    6    6    0  503  0.32080965579E+02  0.13951409111E+02  0.19743856692E+02  0.40170263203E+02  0.00000000000E+00 0.  1.
<mgrwt>
<rscale>  0 0.11512062E+04</rscale>
<asrwt>0</asrwt>
<pdfrwt beam="1">  1        2 0.12740303E+00 0.11512062E+04</pdfrwt>
<pdfrwt beam="2">  1       -1 0.61551666E-01 0.11512062E+04</pdfrwt>
<totfact> 0.99471988E+01</totfact>
</mgrwt>
</event>
<event>
12    7  0.1741211E-007  0.1690678E+04  0.7818608E-02  0.8766699E-01
         -1   -1    0    0    0  501 -0.00000000000E+00  0.00000000000E+00  0.37091202650E+03  0.37091202650E+03  0.00000000000E+00 0.  1.
          2   -1    0    0  501    0  0.00000000000E+00 -0.00000000000E+00 -0.19265967191E+04  0.19265967191E+04  0.00000000000E+00 0. -1.
         24    2    1    2    0    0 -0.23345200920E+03 -0.53187183556E+03 -0.76517537132E+03  0.96380419758E+03  0.77702588967E+02 0.  0.
        254    2    1    2    0    0  0.23345200920E+03  0.53187183556E+03 -0.79050932126E+03  0.13337045480E+04  0.90359025245E+03 0.  0.
         23    2    4    4    0    0  0.51019435982E+03  0.25542260086E+03 -0.72194965206E+03  0.92575715768E+03  0.10137073075E+03 0.  0.
         23    2    4    4    0    0 -0.27674235062E+03  0.27644923469E+03 -0.68559669198E+02  0.40794739033E+03  0.93328114998E+02 0.  0.
          2    1    3    3  502    0 -0.14032923220E+03 -0.34388738199E+03 -0.42794147204E+03  0.56664338732E+03  0.00000000000E+00 0. -1.
         -1    1    3    3    0  502 -0.93122776997E+02 -0.18798445357E+03 -0.33723389929E+03  0.39716081026E+03  0.00000000000E+00 0.  1.
         13    1    5    5    0    0  0.28221295041E+03  0.91029923781E+02 -0.40795692923E+03  0.50434061160E+03  0.00000000000E+00 0.  1.
        -13    1    5    5    0    0  0.22798140941E+03  0.16439267708E+03 -0.31399272284E+03  0.42141654608E+03  0.00000000000E+00 0. -1.
          3    1    6    6  503    0 -0.10529336531E+03  0.46267287691E+02 -0.24093654250E+02  0.11750684603E+03  0.00000000000E+00 0. -1.
         -3    1    6    6    0  503 -0.17144898531E+03  0.23018194700E+03 -0.44466014947E+02  0.29044054430E+03  0.00000000000E+00 0.  1.
<mgrwt>
<rscale>  0 0.16906778E+04</rscale>
<asrwt>0</asrwt>
<pdfrwt beam="1">  1        2 0.29639950E+00 0.16906778E+04</pdfrwt>
<pdfrwt beam="2">  1       -1 0.57063388E-01 0.16906778E+04</pdfrwt>
<totfact> 0.24753441E+01</totfact>
</mgrwt>
</event>
<event>
12    7  0.1741211E-007  0.1865045E+04  0.7818608E-02  0.8672454E-01
         -1   -1    0    0    0  501 -0.00000000000E+00  0.00000000000E+00  0.10730843828E+04  0.10730843828E+04  0.00000000000E+00 0.  1.
          2   -1    0    0  501    0  0.00000000000E+00 -0.00000000000E+00 -0.81037304471E+03  0.81037304471E+03  0.00000000000E+00 0. -1.
         24    2    1    2    0    0 -0.69888464587E+03 -0.14013058683E+03  0.84345961044E+02  0.72224561569E+03  0.80300427477E+02 0.  0.
        254    2    1    2    0    0  0.69888464587E+03  0.14013058683E+03  0.17836537705E+03  0.11612118118E+04  0.89917870002E+03 0.  0.
         23    2    4    4    0    0  0.84243353556E+03 -0.34268286771E+02 -0.17895666312E+02  0.84818944920E+03  0.90755217756E+02 0.  0.
         23    2    4    4    0    0 -0.14354888970E+03  0.17439887360E+03  0.19626104336E+03  0.31302236261E+03  0.91887711385E+02 0.  0.
          4    1    3    3  502    0 -0.43719619309E+03 -0.11325322873E+03  0.23513518407E+02  0.45223853288E+03  0.00000000000E+00 0. -1.
         -3    1    3    3    0  502 -0.26168845277E+03 -0.26877358099E+02  0.60832442638E+02  0.27000708281E+03  0.00000000000E+00 0.  1.
         13    1    5    5    0    0  0.43365858537E+03  0.14592966455E+02  0.22769848281E+02  0.43450108092E+03  0.00000000000E+00 0. -1.
        -13    1    5    5    0    0  0.40877495019E+03 -0.48861253226E+02 -0.40665514593E+02  0.41368836828E+03  0.00000000000E+00 0.  1.
          2    1    6    6  503    0 -0.41388900565E+02  0.42930070137E+01  0.14889355295E+02  0.44194613929E+02  0.00000000000E+00 0. -1.
         -2    1    6    6    0  503 -0.10215998913E+03  0.17010586659E+03  0.18137168806E+03  0.26882774868E+03  0.00000000000E+00 0.  1.
<mgrwt>
<rscale>  0 0.18650455E+04</rscale>
<asrwt>0</asrwt>
<pdfrwt beam="1">  1        2 0.12467278E+00 0.18650455E+04</pdfrwt>
<pdfrwt beam="2">  1       -1 0.16508990E+00 0.18650455E+04</pdfrwt>
<totfact> 0.97114260E+00</totfact>
</mgrwt>
</event>
<event>
12    7  0.1741211E-007  0.2128259E+04  0.7818608E-02  0.8548896E-01
          2   -1    0    0  501    0  0.00000000000E+00  0.00000000000E+00  0.55779165076E+03  0.55779165076E+03  0.00000000000E+00 0. -1.
         -1   -1    0    0    0  501 -0.00000000000E+00 -0.00000000000E+00 -0.20300972599E+04  0.20300972599E+04  0.00000000000E+00 0.  1.
         24    2    1    2    0    0 -0.35804287481E+03  0.75881318358E+03 -0.97414291498E+03  0.12881143036E+04  0.79321450986E+02 0.  0.
        254    2    1    2    0    0  0.35804287481E+03 -0.75881318358E+03 -0.49816269419E+03  0.12997746071E+04  0.85863601809E+03 0.  0.
         23    2    4    4    0    0 -0.14850745777E+03  0.95815208557E+02 -0.12522674642E+03  0.23458394356E+03  0.90071468042E+02 0.  0.
         23    2    4    4    0    0  0.50655033258E+03 -0.85462839213E+03 -0.37293594778E+03  0.10651906635E+04  0.92558092211E+02 0.  0.
          4    1    3    3  502    0 -0.33788639157E+03  0.69272458572E+03 -0.86130971170E+03  0.11558066381E+04  0.00000000000E+00 0. -1.
         -3    1    3    3    0  502 -0.20156483245E+02  0.66088597861E+02 -0.11283320329E+03  0.13230766549E+03  0.00000000000E+00 0.  1.
         13    1    5    5    0    0 -0.12806024596E+03  0.10400991725E+03 -0.13227325082E+03  0.21145614761E+03  0.00000000000E+00 0.  1.
        -13    1    5    5    0    0 -0.20447211808E+02 -0.81947086922E+01  0.70465043983E+01  0.23127795950E+02  0.00000000000E+00 0. -1.
          1    1    6    6  503    0  0.41063472482E+03 -0.72077426178E+03 -0.34379939800E+03  0.89796126851E+03  0.00000000000E+00 0. -1.
         -1    1    6    6    0  503  0.95915607754E+02 -0.13385413036E+03 -0.29136549775E+02  0.16722939501E+03  0.00000000000E+00 0.  1.
<mgrwt>
<rscale>  0 0.21282587E+04</rscale>
<asrwt>0</asrwt>
<pdfrwt beam="1">  1        2 0.85814101E-01 0.21282587E+04</pdfrwt>
<pdfrwt beam="2">  1       -1 0.31232265E+00 0.21282587E+04</pdfrwt>
<totfact> 0.15620051E+00</totfact>
</mgrwt>
</event>
<event>
12    7  0.1741211E-007  0.1222694E+04  0.7818608E-02  0.9093221E-01
         -1   -1    0    0    0  501 -0.00000000000E+00  0.00000000000E+00  0.55740666340E+03  0.55740666340E+03  0.00000000000E+00 0.  1.
          2   -1    0    0  501    0  0.00000000000E+00 -0.00000000000E+00 -0.67050716042E+03  0.67050716042E+03  0.00000000000E+00 0. -1.
         24    2    1    2    0    0 -0.15897564801E+02 -0.57551605201E+02 -0.29546255405E+03  0.31190263411E+03  0.80126228494E+02 0.  0.
        254    2    1    2    0    0  0.15897564801E+02  0.57551605201E+02  0.18236205703E+03  0.91601118972E+03  0.89568725570E+03 0.  0.
         23    2    4    4    0    0 -0.17884042181E+03  0.42432746125E+03  0.13020836319E+03  0.48747178330E+03  0.92934551339E+02 0.  0.
         23    2    4    4    0    0  0.19473798661E+03 -0.36677585605E+03  0.52153693841E+02  0.42853940641E+03  0.92079330270E+02 0.  0.
          2    1    3    3  502    0 -0.11135930152E+02 -0.44675030164E+02 -0.29456820661E+03  0.29814475613E+03  0.00000000000E+00 0. -1.
         -1    1    3    3    0  502 -0.47616346498E+01 -0.12876575037E+02 -0.89434743631E+00  0.13757877982E+02  0.00000000000E+00 0.  1.
         13    1    5    5    0    0 -0.14016010193E+02  0.23857236383E+02  0.34026125552E+02  0.43856510231E+02  0.00000000000E+00 0.  1.
        -13    1    5    5    0    0 -0.16482441161E+03  0.40047022486E+03  0.96182237636E+02  0.44361527307E+03  0.00000000000E+00 0. -1.
          2    1    6    6  503    0  0.88677766477E+02 -0.17813039551E+03 -0.21014046585E+02  0.20008941558E+03  0.00000000000E+00 0. -1.
         -2    1    6    6    0  503  0.10606022013E+03 -0.18864546053E+03  0.73167740425E+02  0.22844999083E+03  0.00000000000E+00 0.  1.
<mgrwt>
<rscale>  0 0.12226940E+04</rscale>
<asrwt>0</asrwt>
<pdfrwt beam="1">  1        2 0.10315495E+00 0.12226940E+04</pdfrwt>
<pdfrwt beam="2">  1       -1 0.85754872E-01 0.12226940E+04</pdfrwt>
<totfact> 0.65423298E+01</totfact>
</mgrwt>
</event>
<event>
12    7  0.1741211E-007  0.1063789E+04  0.7818608E-02  0.9241222E-01
          2   -1    0    0  501    0  0.00000000000E+00  0.00000000000E+00  0.57880554147E+03  0.57880554147E+03  0.00000000000E+00 0. -1.
         -1   -1    0    0    0  501 -0.00000000000E+00 -0.00000000000E+00 -0.48878552461E+03  0.48878552461E+03  0.00000000000E+00 0.  1.
         24    2    1    2    0    0  0.32611647051E+02 -0.10313924830E+03 -0.36198819050E+02  0.13900552955E+03  0.79441542554E+02 0.  0.
        254    2    1    2    0    0 -0.32611647051E+02  0.10313924830E+03  0.12621883591E+03  0.92858553652E+03  0.91358561725E+03 0.  0.
         23    2    4    4    0    0 -0.42824148729E+03  0.10453944377E+03  0.23682349715E+03  0.50861551186E+03  0.91022543160E+02 0.  0.
         23    2    4    4    0    0  0.39562984024E+03 -0.14001954714E+01 -0.11060466124E+03  0.41997002466E+03  0.87272558653E+02 0.  0.
          2    1    3    3  502    0  0.57367091967E+01 -0.54610133782E+02  0.21495635449E+02  0.58968117550E+02  0.00000000000E+00 0. -1.
         -1    1    3    3    0  502  0.26874937855E+02 -0.48529114513E+02 -0.57694454499E+02  0.80037412002E+02  0.00000000000E+00 0.  1.
         13    1    5    5    0    0 -0.40659262843E+03  0.11846057302E+03  0.23028359894E+03  0.48205913413E+03  0.00000000000E+00 0. -1.
        -13    1    5    5    0    0 -0.21648858860E+02 -0.13921129257E+02  0.65398982122E+01  0.26556377734E+02  0.00000000000E+00 0.  1.
          4    1    6    6  503    0  0.29850066483E+03 -0.37097419240E+02 -0.94159329945E+02  0.31519017249E+03  0.00000000000E+00 0. -1.
         -4    1    6    6    0  503  0.97129175403E+02  0.35697223769E+02 -0.16445331296E+02  0.10477985217E+03  0.00000000000E+00 0.  1.
<mgrwt>
<rscale>  0 0.10637890E+04</rscale>
<asrwt>0</asrwt>
<pdfrwt beam="1">  1        2 0.89047007E-01 0.10637890E+04</pdfrwt>
<pdfrwt beam="2">  1       -1 0.75197773E-01 0.10637890E+04</pdfrwt>
<totfact> 0.10478036E+02</totfact>
</mgrwt>
</event>
<event>
12    7  0.1741211E-007  0.1205370E+04  0.7818608E-02  0.9108169E-01
         -3   -1    0    0    0  501 -0.00000000000E+00  0.00000000000E+00  0.18112169964E+03  0.18112169964E+03  0.00000000000E+00 0.  1.
          2   -1    0    0  501    0  0.00000000000E+00 -0.00000000000E+00 -0.20054436290E+04  0.20054436290E+04  0.00000000000E+00 0. -1.
         24    2    1    2    0    0 -0.50796070393E+02  0.36083603837E+02  0.28886371597E+02  0.10402774813E+03  0.78135028530E+02 0.  0.
        254    2    1    2    0    0  0.50796070393E+02 -0.36083603837E+02 -0.18532083010E+04  0.20825375805E+04  0.94799762674E+03 0.  0.
         23    2    4    4    0    0 -0.12983486890E+03  0.41971929301E+03 -0.95108845603E+03  0.10517688451E+04  0.92882044527E+02 0.  0.
         23    2    4    4    0    0  0.18063093929E+03 -0.45580289685E+03 -0.90211984493E+03  0.10307687354E+04  0.90995353331E+02 0.  0.
          2    1    3    3  502    0 -0.57145839161E+02  0.20841778781E+02 -0.10126121191E+02  0.61664941470E+02  0.00000000000E+00 0. -1.
         -1    1    3    3    0  502  0.63497687671E+01  0.15241825056E+02  0.39012492788E+02  0.42362806658E+02  0.00000000000E+00 0.  1.
         13    1    5    5    0    0 -0.11399963885E+03  0.29412096516E+03 -0.58837803879E+03  0.66760151014E+03  0.00000000000E+00 0.  1.
        -13    1    5    5    0    0 -0.15835230047E+02  0.12559832785E+03 -0.36271041724E+03  0.38416733495E+03  0.00000000000E+00 0. -1.
          3    1    6    6  503    0  0.34015401874E+01  0.24612508598E+01 -0.25484377633E+02  0.25827925484E+02  0.00000000000E+00 0. -1.
         -3    1    6    6    0  503  0.17722939910E+03 -0.45826414771E+03 -0.87663546729E+03  0.10049408099E+04  0.00000000000E+00 0.  1.
<mgrwt>
<rscale>  0 0.12053702E+04</rscale>
<asrwt>0</asrwt>
<pdfrwt beam="1">  1        2 0.30852975E+00 0.12053702E+04</pdfrwt>
<pdfrwt beam="2">  1       -3 0.27864880E-01 0.12053702E+04</pdfrwt>
<totfact> 0.52897643E+01</totfact>
</mgrwt>
</event>
<event>
12    7  0.1741211E-007  0.1804676E+04  0.7818608E-02  0.8703817E-01
          2   -1    0    0  501    0  0.00000000000E+00  0.00000000000E+00  0.70131034124E+03  0.70131034124E+03  0.00000000000E+00 0. -1.
         -1   -1    0    0    0  501 -0.00000000000E+00 -0.00000000000E+00 -0.11609891704E+04  0.11609891704E+04  0.00000000000E+00 0.  1.
         24    2    1    2    0    0  0.28644764585E+03 -0.22570355574E+03 -0.76401642146E+03  0.85061602053E+03  0.82656961164E+02 0.  0.
        254    2    1    2    0    0 -0.28644764585E+03  0.22570355574E+03  0.30433759227E+03  0.10116834911E+04  0.89324563659E+03 0.  0.
         23    2    4    4    0    0  0.31145118824E+03  0.70730693736E+02  0.15947893417E+03  0.37105517474E+03  0.10121135589E+03 0.  0.
         23    2    4    4    0    0 -0.59789883409E+03  0.15497286200E+03  0.14485865810E+03  0.64062831640E+03  0.89000029127E+02 0.  0.
          2    1    3    3  502    0  0.22890542156E+02 -0.45992290744E+02 -0.70299671115E+02  0.87070726923E+02  0.00000000000E+00 0. -1.
         -1    1    3    3    0  502  0.26355710370E+03 -0.17971126499E+03 -0.69371675035E+03  0.76354529361E+03  0.00000000000E+00 0.  1.
         13    1    5    5    0    0  0.11391811724E+03  0.18495852560E+02  0.11298633413E+03  0.16150958392E+03  0.00000000000E+00 0. -1.
        -13    1    5    5    0    0  0.19753307100E+03  0.52234841176E+02  0.46492600039E+02  0.20954559082E+03  0.00000000000E+00 0.  1.
          2    1    6    6  503    0 -0.45161003658E+03  0.96205738822E+02  0.73413105873E+02  0.46754321023E+03  0.00000000000E+00 0. -1.
         -2    1    6    6    0  503 -0.14628879751E+03  0.58767123178E+02  0.71445552228E+02  0.17308510617E+03  0.00000000000E+00 0.  1.
<mgrwt>
<rscale>  0 0.18046758E+04</rscale>
<asrwt>0</asrwt>
<pdfrwt beam="1">  1        2 0.10789390E+00 0.18046758E+04</pdfrwt>
<pdfrwt beam="2">  1       -1 0.17861372E+00 0.18046758E+04</pdfrwt>
<totfact> 0.93789278E+00</totfact>
</mgrwt>
</event>
<event>
12    7  0.1741211E-007  0.1895671E+04  0.7818608E-02  0.8657014E-01
         -1   -1    0    0    0  501 -0.00000000000E+00  0.00000000000E+00  0.15513729660E+04  0.15513729660E+04  0.00000000000E+00 0.  1.
          2   -1    0    0  501    0  0.00000000000E+00 -0.00000000000E+00 -0.57909483852E+03  0.57909483852E+03  0.00000000000E+00 0. -1.
         24    2    1    2    0    0 -0.27602890354E+03  0.55051298434E+03  0.82200179454E+03  0.10303517128E+04  0.81738610230E+02 0.  0.
        254    2    1    2    0    0  0.27602890354E+03 -0.55051298434E+03  0.15027633295E+03  0.11001160917E+04  0.89911953458E+03 0.  0.
         23    2    4    4    0    0  0.48686204351E+03 -0.40420143927E+03  0.37973346806E+03  0.74405289118E+03  0.94888066679E+02 0.  0.
         23    2    4    4    0    0 -0.21083313997E+03 -0.14631154507E+03 -0.22945713510E+03  0.35606320052E+03  0.90954630370E+02 0.  0.
          4    1    3    3  502    0 -0.10592298965E+03  0.13844411546E+03  0.25956362800E+03  0.31266552388E+03  0.00000000000E+00 0. -1.
         -3    1    3    3    0  502 -0.17010591389E+03  0.41206886888E+03  0.56243816654E+03  0.71768618896E+03  0.00000000000E+00 0.  1.
         13    1    5    5    0    0  0.20556399594E+01 -0.97942893782E+01  0.21434044546E+02  0.23655274796E+02  0.00000000000E+00 0. -1.
        -13    1    5    5    0    0  0.48480640355E+03 -0.39440714989E+03  0.35829942351E+03  0.72039761639E+03  0.00000000000E+00 0.  1.
          2    1    6    6  503    0  0.71052921261E+01 -0.75025925101E+01 -0.23371669358E+02  0.25554040760E+02  0.00000000000E+00 0. -1.
         -2    1    6    6    0  503 -0.21793843209E+03 -0.13880895256E+03 -0.20608546575E+03  0.33050915976E+03  0.00000000000E+00 0.  1.
<mgrwt>
<rscale>  0 0.18956709E+04</rscale>
<asrwt>0</asrwt>
<pdfrwt beam="1">  1        2 0.89091514E-01 0.18956709E+04</pdfrwt>
<pdfrwt beam="2">  1       -1 0.23867276E+00 0.18956709E+04</pdfrwt>
<totfact> 0.45820193E+00</totfact>
</mgrwt>
</event>
<event>
12    7  0.1741211E-007  0.3702687E+04  0.7818608E-02  0.8067367E-01
         -1   -1    0    0    0  501 -0.00000000000E+00  0.00000000000E+00  0.11918566324E+04  0.11918566324E+04  0.00000000000E+00 0.  1.
          2   -1    0    0  501    0  0.00000000000E+00 -0.00000000000E+00 -0.28757425742E+04  0.28757425742E+04  0.00000000000E+00 0. -1.
         24    2    1    2    0    0  0.51248131840E+03 -0.77968783660E+03 -0.24178583342E+04  0.25928550580E+04  0.79424198570E+02 0.  0.
        254    2    1    2    0    0 -0.51248131840E+03  0.77968783660E+03  0.73397239240E+03  0.14747441486E+04  0.87498834658E+03 0.  0.
         23    2    4    4    0    0  0.39139418734E+02  0.25181936098E+03 -0.14470001952E+03  0.30712241517E+03  0.91875990271E+02 0.  0.
         23    2    4    4    0    0 -0.55162073713E+03  0.52786847562E+03  0.87867241192E+03  0.11676217334E+04  0.91349546327E+02 0.  0.
          2    1    3    3  502    0  0.35097481248E+03 -0.59699915389E+03 -0.17985094254E+04  0.19272331104E+04  0.00000000000E+00 0. -1.
         -1    1    3    3    0  502  0.16150650592E+03 -0.18268868271E+03 -0.61934890886E+03  0.66562194762E+03  0.00000000000E+00 0.  1.
         13    1    5    5    0    0  0.32239866775E+02  0.25824265250E+03 -0.13352456898E+03  0.29250211469E+03  0.00000000000E+00 0. -1.
        -13    1    5    5    0    0  0.68995519583E+01 -0.64232915217E+01 -0.11175450540E+02  0.14620300475E+02  0.00000000000E+00 0.  1.
          3    1    6    6  503    0 -0.45729262718E+03  0.44168431551E+03  0.77941078446E+03  0.10058244143E+04  0.00000000000E+00 0. -1.
         -3    1    6    6    0  503 -0.94328109954E+02  0.86184160113E+02  0.99261627455E+02  0.16179731910E+03  0.00000000000E+00 0.  1.
<mgrwt>
<rscale>  0 0.37026871E+04</rscale>
<asrwt>0</asrwt>
<pdfrwt beam="1">  1        2 0.44242193E+00 0.37026871E+04</pdfrwt>
<pdfrwt beam="2">  1       -1 0.18336256E+00 0.37026871E+04</pdfrwt>
<totfact> 0.37560832E-01</totfact>
</mgrwt>
</event>
<event>
12    7  0.1741211E-007  0.1715604E+04  0.7818608E-02  0.8752515E-01
          2   -1    0    0  501    0  0.00000000000E+00  0.00000000000E+00  0.11278378740E+04  0.11278378740E+04  0.00000000000E+00 0. -1.
         -1   -1    0    0    0  501 -0.00000000000E+00 -0.00000000000E+00 -0.65242027469E+03  0.65242027469E+03  0.00000000000E+00 0.  1.
         24    2    1    2    0    0 -0.19105670936E+03 -0.54215136098E+03  0.41076295842E+03  0.71087338638E+03  0.78638406955E+02 0.  0.
        254    2    1    2    0    0  0.19105670936E+03  0.54215136098E+03  0.64654640846E+02  0.10693847623E+04  0.89942914273E+03 0.  0.
         23    2    4    4    0    0  0.42303506130E+03  0.54635664549E+03 -0.17719633349E+03  0.71903832287E+03  0.90295747336E+02 0.  0.
         23    2    4    4    0    0 -0.23197835195E+03 -0.42052845095E+01  0.24185097433E+03  0.35034643940E+03  0.10207396155E+03 0.  0.
          2    1    3    3  502    0 -0.10103095351E+03 -0.18881362288E+03  0.12828558127E+03  0.24962978210E+03  0.00000000000E+00 0. -1.
         -1    1    3    3    0  502 -0.90025755851E+02 -0.35333773810E+03  0.28247737716E+03  0.46124360428E+03  0.00000000000E+00 0.  1.
         13    1    5    5    0    0  0.27403733093E+03  0.42003221082E+03 -0.12780098245E+03  0.51754865277E+03  0.00000000000E+00 0. -1.
        -13    1    5    5    0    0  0.14899773038E+03  0.12632443467E+03 -0.49395351040E+02  0.20148967010E+03  0.00000000000E+00 0.  1.
          3    1    6    6  503    0 -0.17930688283E+03  0.13217686700E+02  0.23278299501E+03  0.29413192319E+03  0.00000000000E+00 0. -1.
         -3    1    6    6    0  503 -0.52671469111E+02 -0.17422971210E+02  0.90679793253E+01  0.56214516214E+02  0.00000000000E+00 0.  1.
<mgrwt>
<rscale>  0 0.17156040E+04</rscale>
<asrwt>0</asrwt>
<pdfrwt beam="1">  1        2 0.17351352E+00 0.17156040E+04</pdfrwt>
<pdfrwt beam="2">  1       -1 0.10037235E+00 0.17156040E+04</pdfrwt>
<totfact> 0.21456698E+01</totfact>
</mgrwt>
</event>
<event>
12    7  0.1741211E-007  0.1680238E+04  0.7818608E-02  0.8772716E-01
          2   -1    0    0  501    0  0.00000000000E+00  0.00000000000E+00  0.57161837364E+03  0.57161837364E+03  0.00000000000E+00 0. -1.
         -1   -1    0    0    0  501 -0.00000000000E+00 -0.00000000000E+00 -0.12347404868E+04  0.12347404868E+04  0.00000000000E+00 0.  1.
         24    2    1    2    0    0 -0.42373203165E+03  0.40801544080E+03 -0.23343709363E+03  0.63759903119E+03  0.77551359182E+02 0.  0.
        254    2    1    2    0    0  0.42373203165E+03 -0.40801544080E+03 -0.42968501954E+03  0.11687598293E+04  0.91397203890E+03 0.  0.
         23    2    4    4    0    0  0.11296650990E+03 -0.11327519346E+03 -0.65203576757E+03  0.67792598830E+03  0.94022878114E+02 0.  0.
         23    2    4    4    0    0  0.31076552175E+03 -0.29474024734E+03  0.22235074803E+03  0.49083384096E+03  0.89615742872E+02 0.  0.
          4    1    3    3  502    0 -0.10773746641E+03  0.10374907973E+03 -0.96723319345E+02  0.17811971737E+03  0.00000000000E+00 0. -1.
         -3    1    3    3    0  502 -0.31599456524E+03  0.30426636107E+03 -0.13671377429E+03  0.45947931382E+03  0.00000000000E+00 0.  1.
         13    1    5    5    0    0  0.25765375189E+02 -0.54130367403E+02 -0.40420407454E+03  0.40862560506E+03  0.00000000000E+00 0.  1.
        -13    1    5    5    0    0  0.87201134711E+02 -0.59144826056E+02 -0.24783169303E+03  0.26930038324E+03  0.00000000000E+00 0. -1.
          4    1    6    6  503    0  0.20893973326E+03 -0.23860356788E+03  0.19169182514E+03  0.37058498427E+03  0.00000000000E+00 0. -1.
         -4    1    6    6    0  503  0.10182578849E+03 -0.56136679460E+02  0.30658922891E+02  0.12024885669E+03  0.00000000000E+00 0.  1.
<mgrwt>
<rscale>  0 0.16802385E+04</rscale>
<asrwt>0</asrwt>
<pdfrwt beam="1">  1        2 0.87941289E-01 0.16802385E+04</pdfrwt>
<pdfrwt beam="2">  1       -1 0.18996007E+00 0.16802385E+04</pdfrwt>
<totfact> 0.10121373E+01</totfact>
</mgrwt>
</event>
<event>
12    7  0.1741211E-007  0.2491339E+04  0.7818608E-02  0.8406078E-01
         -1   -1    0    0    0  501 -0.00000000000E+00  0.00000000000E+00  0.53719907134E+03  0.53719907134E+03  0.00000000000E+00 0.  1.
          2   -1    0    0  501    0  0.00000000000E+00 -0.00000000000E+00 -0.28884867146E+04  0.28884867146E+04  0.00000000000E+00 0. -1.
         24    2    1    2    0    0 -0.54043694110E+03 -0.79151826136E+02  0.25965142414E+03  0.61004523673E+03  0.79995186812E+02 0.  0.
        254    2    1    2    0    0  0.54043694110E+03  0.79151826136E+02 -0.26109390674E+04  0.28156405492E+04  0.90138326468E+03 0.  0.
         23    2    4    4    0    0  0.65553198602E+03 -0.22241183323E+03 -0.14877519960E+04  0.16435231692E+04  0.92591565677E+02 0.  0.
         23    2    4    4    0    0 -0.11509504492E+03  0.30156365937E+03 -0.11231870715E+04  0.11721173800E+04  0.90124608326E+02 0.  0.
          4    1    3    3  502    0 -0.21148534624E+03 -0.49290618043E+02  0.65092751797E+02  0.22669954353E+03  0.00000000000E+00 0. -1.
         -3    1    3    3    0  502 -0.32895159486E+03 -0.29861208092E+02  0.19455867234E+03  0.38334569320E+03  0.00000000000E+00 0.  1.
         13    1    5    5    0    0  0.17027253333E+03 -0.22136117871E+02 -0.31867417706E+03  0.36198891481E+03  0.00000000000E+00 0.  1.
        -13    1    5    5    0    0  0.48525945268E+03 -0.20027571536E+03 -0.11690778189E+04  0.12815342544E+04  0.00000000000E+00 0. -1.
          3    1    6    6  503    0 -0.12569158067E+03  0.29501501292E+03 -0.10499477132E+04  0.10978262302E+04  0.00000000000E+00 0. -1.
         -3    1    6    6    0  503  0.10596535755E+02  0.65486464532E+01 -0.73239358243E+02  0.74291149784E+02  0.00000000000E+00 0.  1.
<mgrwt>
<rscale>  0 0.24913389E+04</rscale>
<asrwt>0</asrwt>
<pdfrwt beam="1">  1        2 0.44438258E+00 0.24913389E+04</pdfrwt>
<pdfrwt beam="2">  1       -1 0.82646010E-01 0.24913389E+04</pdfrwt>
<totfact> 0.30157039E+00</totfact>
</mgrwt>
</event>
<event>
12    7  0.1741211E-007  0.1808146E+04  0.7818608E-02  0.8701979E-01
          2   -1    0    0  501    0  0.00000000000E+00  0.00000000000E+00  0.24935762763E+04  0.24935762763E+04  0.00000000000E+00 0. -1.
         -1   -1    0    0    0  501 -0.00000000000E+00 -0.00000000000E+00 -0.32778154263E+03  0.32778154263E+03  0.00000000000E+00 0.  1.
         24    2    1    2    0    0 -0.62922264477E+03 -0.97112992267E+02  0.11666147432E+04  0.13314747040E+04  0.80516200169E+02 0.  0.
        254    2    1    2    0    0  0.62922264477E+03  0.97112992267E+02  0.99917999050E+03  0.14898831149E+04  0.90334875478E+03 0.  0.
         23    2    4    4    0    0  0.25911708525E+03  0.35391155363E+03  0.70002414516E+02  0.45334939991E+03  0.90720938607E+02 0.  0.
         23    2    4    4    0    0  0.37010555953E+03 -0.25679856136E+03  0.92917757598E+03  0.10365337150E+04  0.90041925485E+02 0.  0.
          2    1    3    3  502    0 -0.49968200499E+03 -0.93951973382E+02  0.86784369948E+03  0.10058139819E+04  0.00000000000E+00 0. -1.
         -1    1    3    3    0  502 -0.12954063979E+03 -0.31610188855E+01  0.29877104371E+03  0.32566072216E+03  0.00000000000E+00 0.  1.
         13    1    5    5    0    0  0.24682463733E+03  0.33156581925E+03  0.42007407655E+02  0.41547914074E+03  0.00000000000E+00 0. -1.
        -13    1    5    5    0    0  0.12292447913E+02  0.22345734376E+02  0.27995006861E+02  0.37870259171E+02  0.00000000000E+00 0.  1.
          2    1    6    6  503    0  0.50827469806E+02 -0.75711216186E+02  0.21538178957E+03  0.23389086178E+03  0.00000000000E+00 0.  1.
         -2    1    6    6    0  503  0.31927808972E+03 -0.18108734517E+03  0.71379578641E+03  0.80264285324E+03  0.00000000000E+00 0. -1.
<mgrwt>
<rscale>  0 0.18081463E+04</rscale>
<asrwt>0</asrwt>
<pdfrwt beam="1">  1        2 0.38362711E+00 0.18081463E+04</pdfrwt>
<pdfrwt beam="2">  1       -1 0.50427931E-01 0.18081463E+04</pdfrwt>
<totfact> 0.14911522E+01</totfact>
</mgrwt>
</event>
<event>
12    7  0.1741211E-007  0.3363112E+04  0.7818608E-02  0.8147020E-01
         -1   -1    0    0    0  501 -0.00000000000E+00  0.00000000000E+00  0.91523269313E+03  0.91523269313E+03  0.00000000000E+00 0.  1.
          2   -1    0    0  501    0  0.00000000000E+00 -0.00000000000E+00 -0.30895204819E+04  0.30895204819E+04  0.00000000000E+00 0. -1.
         24    2    1    2    0    0  0.14839910337E+04 -0.19205915304E+03 -0.48587552143E+03  0.15753011829E+04  0.79891726792E+02 0.  0.
        254    2    1    2    0    0 -0.14839910337E+04  0.19205915304E+03 -0.16884122674E+04  0.24294519922E+04  0.90132396574E+03 0.  0.
         23    2    4    4    0    0  0.42308398168E+02 -0.45929982159E+01 -0.42016177434E+03  0.43320524351E+03  0.96538956891E+02 0.  0.
         23    2    4    4    0    0 -0.15262994319E+04  0.19665215126E+03 -0.12682504930E+04  0.19962467487E+04  0.90993099116E+02 0.  0.
          2    1    3    3  502    0  0.21694789159E+03 -0.12655052985E+01 -0.79897456214E+02  0.23119600489E+03  0.00000000000E+00 0. -1.
         -1    1    3    3    0  502  0.12670431421E+04 -0.19079364774E+03 -0.40597806521E+03  0.13441051780E+04  0.00000000000E+00 0.  1.
         13    1    5    5    0    0  0.68852842628E+02  0.26836193908E+01 -0.20455361441E+03  0.21584739267E+03  0.00000000000E+00 0. -1.
        -13    1    5    5    0    0 -0.26544444461E+02 -0.72766176067E+01 -0.21560815993E+03  0.21735785084E+03  0.00000000000E+00 0.  1.
          1    1    6    6  503    0 -0.10561521073E+04  0.94235821960E+02 -0.88192498672E+03  0.13791770539E+04  0.00000000000E+00 0. -1.
         -1    1    6    6    0  503 -0.47014732464E+03  0.10241632930E+03 -0.38632550631E+03  0.61706969477E+03  0.00000000000E+00 0.  1.
<mgrwt>
<rscale>  0 0.33631117E+04</rscale>
<asrwt>0</asrwt>
<pdfrwt beam="1">  1        2 0.47531085E+00 0.33631117E+04</pdfrwt>
<pdfrwt beam="2">  1       -1 0.14080503E+00 0.33631117E+04</pdfrwt>
<totfact> 0.59493370E-01</totfact>
</mgrwt>
</event>
<event>
12    7  0.1741211E-007  0.1334449E+04  0.7818608E-02  0.9002684E-01
         -1   -1    0    0    0  501 -0.00000000000E+00  0.00000000000E+00  0.62667405862E+03  0.62667405862E+03  0.00000000000E+00 0.  1.
          2   -1    0    0  501    0  0.00000000000E+00 -0.00000000000E+00 -0.71039868733E+03  0.71039868733E+03  0.00000000000E+00 0. -1.
         24    2    1    2    0    0  0.13024206345E+03  0.34228035042E+02  0.30773970530E+03  0.34603320699E+03  0.83070455942E+02 0.  0.
        254    2    1    2    0    0 -0.13024206345E+03 -0.34228035042E+02 -0.39146433400E+03  0.99103953896E+03  0.90043350088E+03 0.  0.
         23    2    4    4    0    0 -0.21696096217E+03 -0.32337999566E+03  0.95532899886E+02  0.41087724244E+03  0.89704474215E+02 0.  0.
         23    2    4    4    0    0  0.86718898725E+02  0.28915196062E+03 -0.48699723389E+03  0.58016229652E+03  0.91065694728E+02 0.  0.
          2    1    3    3  502    0  0.98374377161E+01  0.28891306194E+02  0.11270394813E+03  0.11676327624E+03  0.00000000000E+00 0. -1.
         -1    1    3    3    0  502  0.12040462573E+03  0.53367288474E+01  0.19503575717E+03  0.22926993075E+03  0.00000000000E+00 0.  1.
         13    1    5    5    0    0 -0.50097768317E+02 -0.10149137970E+03 -0.10545499968E+02  0.11367275009E+03  0.00000000000E+00 0. -1.
        -13    1    5    5    0    0 -0.16686319386E+03 -0.22188861596E+03  0.10607839985E+03  0.29720449235E+03  0.00000000000E+00 0.  1.
          1    1    6    6  503    0  0.46196857077E+01  0.82463293601E+02 -0.73084431761E+02  0.11028540453E+03  0.00000000000E+00 0. -1.
         -1    1    6    6    0  503  0.82099213017E+02  0.20668866702E+03 -0.41391280213E+03  0.46987689198E+03  0.00000000000E+00 0.  1.
<mgrwt>
<rscale>  0 0.13344488E+04</rscale>
<asrwt>0</asrwt>
<pdfrwt beam="1">  1        2 0.10929211E+00 0.13344488E+04</pdfrwt>
<pdfrwt beam="2">  1       -1 0.96411394E-01 0.13344488E+04</pdfrwt>
<totfact> 0.46538361E+01</totfact>
</mgrwt>
</event>
<event>
12    7  0.1741211E-007  0.2460144E+04  0.7818608E-02  0.8417324E-01
          2   -1    0    0  501    0  0.00000000000E+00  0.00000000000E+00  0.22608028103E+04  0.22608028103E+04  0.00000000000E+00 0. -1.
         -1   -1    0    0    0  501 -0.00000000000E+00 -0.00000000000E+00 -0.66926519526E+03  0.66926519526E+03  0.00000000000E+00 0.  1.
         24    2    1    2    0    0  0.18270254264E+03 -0.10008900642E+04  0.37098579949E+03  0.10858984238E+04  0.79898584344E+02 0.  0.
        254    2    1    2    0    0 -0.18270254264E+03  0.10008900642E+04  0.12205518155E+04  0.18441695817E+04  0.93597733516E+03 0.  0.
         23    2    4    4    0    0  0.35444790869E+03  0.60999154858E+03  0.60761982611E+03  0.93560547076E+03  0.91829921650E+02 0.  0.
         23    2    4    4    0    0 -0.53715045133E+03  0.39089851562E+03  0.61293198939E+03  0.90856411092E+03  0.92037292131E+02 0.  0.
          2    1    3    3  502    0  0.75766114847E+02 -0.35853985481E+03  0.17325226256E+03  0.40534883512E+03  0.00000000000E+00 0. -1.
         -1    1    3    3    0  502  0.10693642780E+03 -0.64235020939E+03  0.19773353693E+03  0.68054958873E+03  0.00000000000E+00 0.  1.
         13    1    5    5    0    0  0.29386225941E+03  0.51231965043E+03  0.46057086558E+03  0.74896727161E+03  0.00000000000E+00 0. -1.
        -13    1    5    5    0    0  0.60585649283E+02  0.97671898149E+02  0.14704896053E+03  0.18663819914E+03  0.00000000000E+00 0.  1.
          4    1    6    6  503    0 -0.10470679974E+03  0.69605771160E+02  0.16806779217E+03  0.20989344929E+03  0.00000000000E+00 0. -1.
         -4    1    6    6    0  503 -0.43244365159E+03  0.32129274446E+03  0.44486419723E+03  0.69867066163E+03  0.00000000000E+00 0.  1.
<mgrwt>
<rscale>  0 0.24601436E+04</rscale>
<asrwt>0</asrwt>
<pdfrwt beam="1">  1        2 0.34781581E+00 0.24601436E+04</pdfrwt>
<pdfrwt beam="2">  1       -1 0.10296388E+00 0.24601436E+04</pdfrwt>
<totfact> 0.43271543E+00</totfact>
</mgrwt>
</event>
<event>
12    7  0.1741211E-007  0.2069864E+04  0.7818608E-02  0.8574636E-01
         -1   -1    0    0    0  501 -0.00000000000E+00  0.00000000000E+00  0.58279756763E+03  0.58279756763E+03  0.00000000000E+00 0.  1.
          2   -1    0    0  501    0  0.00000000000E+00 -0.00000000000E+00 -0.18378323029E+04  0.18378323029E+04  0.00000000000E+00 0. -1.
         24    2    1    2    0    0  0.46081279091E+03  0.91085636168E+02 -0.11701739394E+04  0.12633940021E+04  0.78818365421E+02 0.  0.
        254    2    1    2    0    0 -0.46081279091E+03 -0.91085636168E+02 -0.84860795856E+02  0.11572358684E+04  0.10542051409E+04 0.  0.
         23    2    4    4    0    0 -0.26306345836E+03 -0.55627247833E+03 -0.14872064476E+03  0.63950983168E+03  0.90628590176E+02 0.  0.
         23    2    4    4    0    0 -0.19774933256E+03  0.46518684217E+03  0.63859848905E+02  0.51772603673E+03  0.91970496128E+02 0.  0.
          2    1    3    3  502    0  0.39718102068E+03  0.53796660735E+02 -0.10245426234E+04  0.11001520036E+04  0.00000000000E+00 0. -1.
         -1    1    3    3    0  502  0.63631770233E+02  0.37288975433E+02 -0.14563131596E+03  0.16324199846E+03  0.00000000000E+00 0.  1.
         13    1    5    5    0    0 -0.19574986526E+03 -0.32654524801E+03 -0.67092898251E+02  0.38658927266E+03  0.00000000000E+00 0.  1.
        -13    1    5    5    0    0 -0.67313593099E+02 -0.22972723033E+03 -0.81627746511E+02  0.25292055901E+03  0.00000000000E+00 0. -1.
          4    1    6    6  503    0 -0.16218175564E+03  0.27206218347E+03  0.52204427464E+02  0.32100787496E+03  0.00000000000E+00 0. -1.
         -4    1    6    6    0  503 -0.35567576918E+02  0.19312465869E+03  0.11655421441E+02  0.19671816177E+03  0.00000000000E+00 0.  1.
<mgrwt>
<rscale>  0 0.20698640E+04</rscale>
<asrwt>0</asrwt>
<pdfrwt beam="1">  1        2 0.28274343E+00 0.20698640E+04</pdfrwt>
<pdfrwt beam="2">  1       -1 0.89661164E-01 0.20698640E+04</pdfrwt>
<totfact> 0.10533331E+01</totfact>
</mgrwt>
</event>
<event>
12    7  0.1741211E-007  0.3124768E+04  0.7818608E-02  0.8208973E-01
         -1   -1    0    0    0  501 -0.00000000000E+00  0.00000000000E+00  0.68929396575E+03  0.68929396575E+03  0.00000000000E+00 0.  1.
          2   -1    0    0  501    0  0.00000000000E+00 -0.00000000000E+00 -0.35413687905E+04  0.35413687905E+04  0.00000000000E+00 0. -1.
         24    2    1    2    0    0 -0.16524310325E+02  0.96755765244E+03 -0.27378574837E+04  0.29049599466E+04  0.80547048069E+02 0.  0.
        254    2    1    2    0    0  0.16524310325E+02 -0.96755765244E+03 -0.11421734108E+03  0.13257028096E+04  0.89888902254E+03 0.  0.
         23    2    4    4    0    0  0.17128699030E+02  0.16151970706E+03  0.63395437841E+01  0.18623414129E+03  0.90889809476E+02 0.  0.
         23    2    4    4    0    0 -0.60438870432E+00 -0.11290773595E+04 -0.12055688486E+03  0.11394686683E+04  0.95072785915E+02 0.  0.
          4    1    3    3  502    0 -0.40803763835E+02  0.64584254522E+03 -0.18961896873E+04  0.20035750224E+04  0.00000000000E+00 0. -1.
         -1    1    3    3    0  502  0.24279453509E+02  0.32171510722E+03 -0.84166779635E+03  0.90138492415E+03  0.00000000000E+00 0.  1.
         13    1    5    5    0    0  0.75851397413E+01  0.15799722349E+03 -0.18629356183E+02  0.15927243919E+03  0.00000000000E+00 0.  1.
        -13    1    5    5    0    0  0.95435592884E+01  0.35224835766E+01  0.24968899968E+02  0.26961702098E+02  0.00000000000E+00 0. -1.
          3    1    6    6  503    0 -0.44122172399E+01 -0.60484560260E+02  0.14537867130E+02  0.62363444994E+02  0.00000000000E+00 0. -1.
         -3    1    6    6    0  503  0.38078285356E+01 -0.10685927992E+04 -0.13509475199E+03  0.10771052233E+04  0.00000000000E+00 0.  1.
<mgrwt>
<rscale>  0 0.31247682E+04</rscale>
<asrwt>0</asrwt>
<pdfrwt beam="1">  1        2 0.54482597E+00 0.31247682E+04</pdfrwt>
<pdfrwt beam="2">  1       -1 0.10604522E+00 0.31247682E+04</pdfrwt>
<totfact> 0.60788436E-01</totfact>
</mgrwt>
</event>
<event>
12    7  0.1741211E-007  0.1962616E+04  0.7818608E-02  0.8624301E-01
         -1   -1    0    0    0  501 -0.00000000000E+00  0.00000000000E+00  0.54186606105E+03  0.54186606105E+03  0.00000000000E+00 0.  1.
          2   -1    0    0  501    0  0.00000000000E+00 -0.00000000000E+00 -0.17771281399E+04  0.17771281399E+04  0.00000000000E+00 0. -1.
         24    2    1    2    0    0  0.28157762958E+03 -0.47744696625E+03 -0.11358059218E+04  0.12663171525E+04  0.79135779899E+02 0.  0.
        254    2    1    2    0    0 -0.28157762958E+03  0.47744696625E+03 -0.99456157047E+02  0.10526770485E+04  0.88937948825E+03 0.  0.
         23    2    4    4    0    0 -0.22008330994E+03  0.73024468521E+03 -0.11421150478E+03  0.77702314115E+03  0.95009107267E+02 0.  0.
         23    2    4    4    0    0 -0.61494319637E+02 -0.25279771897E+03  0.14755347735E+02  0.27565390731E+03  0.89883915501E+02 0.  0.
          4    1    3    3  502    0  0.21210356365E+03 -0.35424441484E+03 -0.91849769462E+03  0.10070327910E+04  0.00000000000E+00 0. -1.
         -3    1    3    3    0  502  0.69474065928E+02 -0.12320255140E+03 -0.21730822717E+03  0.25928436147E+03  0.00000000000E+00 0.  1.
         13    1    5    5    0    0 -0.12745783304E+03  0.55141691845E+03 -0.10353350115E+03  0.57534798428E+03  0.00000000000E+00 0. -1.
        -13    1    5    5    0    0 -0.92625476902E+02  0.17882776676E+03 -0.10678003628E+02  0.20167515687E+03  0.00000000000E+00 0.  1.
          2    1    6    6  503    0 -0.60362761750E+01 -0.19260620093E+03  0.19414788880E+02  0.19367632610E+03  0.00000000000E+00 0. -1.
         -2    1    6    6    0  503 -0.55458043462E+02 -0.60191518037E+02 -0.46594411453E+01  0.81977581204E+02  0.00000000000E+00 0.  1.
<mgrwt>
<rscale>  0 0.19626160E+04</rscale>
<asrwt>0</asrwt>
<pdfrwt beam="1">  1        2 0.27340433E+00 0.19626160E+04</pdfrwt>
<pdfrwt beam="2">  1       -1 0.83364009E-01 0.19626160E+04</pdfrwt>
<totfact> 0.13463668E+01</totfact>
</mgrwt>
</event>
<event>
12    7  0.1741211E-007  0.1631273E+04  0.7818608E-02  0.8801563E-01
         -1   -1    0    0    0  501 -0.00000000000E+00  0.00000000000E+00  0.20920752080E+03  0.20920752080E+03  0.00000000000E+00 0.  1.
          2   -1    0    0  501    0  0.00000000000E+00 -0.00000000000E+00 -0.31799173064E+04  0.31799173064E+04  0.00000000000E+00 0. -1.
         24    2    1    2    0    0  0.22629551290E+03 -0.19459661494E+03 -0.20087383174E+04  0.20323504241E+04  0.79631129165E+02 0.  0.
        254    2    1    2    0    0 -0.22629551290E+03  0.19459661494E+03 -0.96197146821E+03  0.13567744031E+04  0.90904904909E+03 0.  0.
         23    2    4    4    0    0 -0.17374673604E+03  0.39077832551E+03 -0.10337805695E+04  0.11229024799E+04  0.96499147298E+02 0.  0.
         23    2    4    4    0    0 -0.52548776854E+02 -0.19618171057E+03  0.71809101313E+02  0.23387192325E+03  0.91054335116E+02 0.  0.
          4    1    3    3  502    0  0.93919881041E+01 -0.27832390998E+02 -0.34677371420E+03  0.34801560352E+03  0.00000000000E+00 0. -1.
         -3    1    3    3    0  502  0.21690352479E+03 -0.16676422395E+03 -0.16619646032E+04  0.16843348206E+04  0.00000000000E+00 0.  1.
         13    1    5    5    0    0 -0.15861537128E+03  0.37554403307E+03 -0.90820108199E+03  0.99550055856E+03  0.00000000000E+00 0.  1.
        -13    1    5    5    0    0 -0.15131364765E+02  0.15234292441E+02 -0.12557948753E+03  0.12740192132E+03  0.00000000000E+00 0. -1.
          3    1    6    6  503    0  0.15653879890E+02 -0.36479177138E+02 -0.11412767351E+02  0.41304062498E+02  0.00000000000E+00 0. -1.
         -3    1    6    6    0  503 -0.68202656743E+02 -0.15970253343E+03  0.83221868664E+02  0.19256786075E+03  0.00000000000E+00 0.  1.
<mgrwt>
<rscale>  0 0.16312727E+04</rscale>
<asrwt>0</asrwt>
<pdfrwt beam="1">  1        2 0.48921804E+00 0.16312727E+04</pdfrwt>
<pdfrwt beam="2">  1       -1 0.32185773E-01 0.16312727E+04</pdfrwt>
<totfact> 0.13216328E+01</totfact>
</mgrwt>
</event>
<event>
12    7  0.1741211E-007  0.3047848E+04  0.7818608E-02  0.8230198E-01
          2   -1    0    0  501    0  0.00000000000E+00  0.00000000000E+00  0.16589650844E+04  0.16589650844E+04  0.00000000000E+00 0. -1.
         -1   -1    0    0    0  501 -0.00000000000E+00 -0.00000000000E+00 -0.13998755206E+04  0.13998755206E+04  0.00000000000E+00 0.  1.
         24    2    1    2    0    0 -0.53271162529E+03 -0.41098659491E+03 -0.11004832201E+04  0.12923221769E+04  0.79634379145E+02 0.  0.
        254    2    1    2    0    0  0.53271162529E+03  0.41098659491E+03  0.13595727839E+04  0.17665184281E+04  0.90523894368E+03 0.  0.
         23    2    4    4    0    0  0.36298961408E+03  0.67038841962E+03  0.11439475908E+04  0.13781067900E+04  0.96851128939E+02 0.  0.
         23    2    4    4    0    0  0.16972201121E+03 -0.25940182471E+03  0.21562519314E+03  0.38841163808E+03  0.90964327781E+02 0.  0.
          4    1    3    3  502    0 -0.17071204182E+03 -0.14392582898E+03 -0.29827973583E+03  0.37259635838E+03  0.00000000000E+00 0. -1.
         -3    1    3    3    0  502 -0.36199958348E+03 -0.26706076593E+03 -0.80220348429E+03  0.91972581857E+03  0.00000000000E+00 0.  1.
         13    1    5    5    0    0  0.26908091745E+02  0.11849942397E+03  0.20480999368E+03  0.23814552776E+03  0.00000000000E+00 0.  1.
        -13    1    5    5    0    0  0.33608152234E+03  0.55188899565E+03  0.93913759712E+03  0.11399612623E+04  0.00000000000E+00 0. -1.
          2    1    6    6  503    0  0.85982452447E+02 -0.20176258091E+03  0.12631633854E+03  0.25309472252E+03  0.00000000000E+00 0. -1.
         -2    1    6    6    0  503  0.83739558763E+02 -0.57639243797E+02  0.89308854597E+02  0.13531691556E+03  0.00000000000E+00 0.  1.
<mgrwt>
<rscale>  0 0.30478482E+04</rscale>
<asrwt>0</asrwt>
<pdfrwt beam="1">  1        2 0.25522540E+00 0.30478482E+04</pdfrwt>
<pdfrwt beam="2">  1       -1 0.21536546E+00 0.30478482E+04</pdfrwt>
<totfact> 0.11863138E+00</totfact>
</mgrwt>
</event>
<event>
12    7  0.1741211E-007  0.1787511E+04  0.7818608E-02  0.8712970E-01
         -1   -1    0    0    0  501 -0.00000000000E+00  0.00000000000E+00  0.46198843665E+03  0.46198843665E+03  0.00000000000E+00 0.  1.
          2   -1    0    0  501    0  0.00000000000E+00 -0.00000000000E+00 -0.17290442772E+04  0.17290442772E+04  0.00000000000E+00 0. -1.
         24    2    1    2    0    0 -0.10789166397E+03 -0.39929476551E+03  0.15978353316E+03  0.45065781726E+03  0.80528068829E+02 0.  0.
        254    2    1    2    0    0  0.10789166397E+03  0.39929476551E+03 -0.14268393738E+04  0.17403748966E+04  0.90661858653E+03 0.  0.
         23    2    4    4    0    0 -0.51330348088E+02 -0.10644418005E+03  0.59254637608E+02  0.15992767993E+03  0.90003236768E+02 0.  0.
         23    2    4    4    0    0  0.15922201206E+03  0.50573894556E+03 -0.14860940114E+04  0.15804472167E+04  0.90633680387E+02 0.  0.
          2    1    3    3  502    0 -0.10007490448E+02 -0.13778432281E+03  0.24196654436E+02  0.14025030326E+03  0.00000000000E+00 0. -1.
         -1    1    3    3    0  502 -0.97884173524E+02 -0.26151044270E+03  0.13558687873E+03  0.31040751400E+03  0.00000000000E+00 0.  1.
         13    1    5    5    0    0  0.17991574427E+02 -0.65512256136E+02  0.24152647447E+02  0.72103417625E+02  0.00000000000E+00 0.  1.
        -13    1    5    5    0    0 -0.69321922515E+02 -0.40931923915E+02  0.35101990162E+02  0.87824262307E+02  0.00000000000E+00 0. -1.
          2    1    6    6  503    0  0.16925810219E+03  0.48192778867E+03 -0.14348849598E+04  0.15230881611E+04  0.00000000000E+00 0.  1.
         -2    1    6    6    0  503 -0.10036090132E+02  0.23811156887E+02 -0.51209051553E+02  0.57359055592E+02  0.00000000000E+00 0. -1.
<mgrwt>
<rscale>  0 0.17875105E+04</rscale>
<asrwt>0</asrwt>
<pdfrwt beam="1">  1        2 0.26600681E+00 0.17875105E+04</pdfrwt>
<pdfrwt beam="2">  1       -1 0.71075144E-01 0.17875105E+04</pdfrwt>
<totfact> 0.20334743E+01</totfact>
</mgrwt>
</event>
<event>
12    7  0.1741211E-007  0.1540166E+04  0.7818608E-02  0.8858173E-01
         -1   -1    0    0    0  501 -0.00000000000E+00  0.00000000000E+00  0.14022681255E+04  0.14022681255E+04  0.00000000000E+00 0.  1.
          2   -1    0    0  501    0  0.00000000000E+00 -0.00000000000E+00 -0.42290634505E+03  0.42290634505E+03  0.00000000000E+00 0. -1.
         24    2    1    2    0    0  0.31954989561E+03 -0.27711488620E+03  0.64898919957E+03  0.77873484583E+03  0.79600144530E+02 0.  0.
        254    2    1    2    0    0 -0.31954989561E+03  0.27711488620E+03  0.33037258087E+03  0.10464396247E+04  0.89832346627E+03 0.  0.
         23    2    4    4    0    0 -0.39229515263E+02 -0.28560157327E+03  0.27637153760E+03  0.40887697064E+03  0.87703687534E+02 0.  0.
         23    2    4    4    0    0 -0.28032038035E+03  0.56271645946E+03  0.54001043272E+02  0.63756265407E+03  0.91327409935E+02 0.  0.
          4    1    3    3  502    0  0.26595188866E+03 -0.22338137388E+03  0.47073744874E+03  0.58499862472E+03  0.00000000000E+00 0. -1.
         -3    1    3    3    0  502  0.53598006952E+02 -0.53733512321E+02  0.17825175082E+03  0.19373622110E+03  0.00000000000E+00 0.  1.
         13    1    5    5    0    0 -0.67472217258E+02 -0.20461637878E+03  0.19273038826E+03  0.28907674608E+03  0.00000000000E+00 0. -1.
        -13    1    5    5    0    0  0.28242701994E+02 -0.80985194486E+02  0.83641149341E+02  0.11980022456E+03  0.00000000000E+00 0.  1.
          2    1    6    6  503    0 -0.12437314295E+03  0.30433593141E+03 -0.10564621070E+02  0.32893867065E+03  0.00000000000E+00 0. -1.
         -2    1    6    6    0  503 -0.15594723740E+03  0.25838052806E+03  0.64565664342E+02  0.30862398342E+03  0.00000000000E+00 0.  1.
<mgrwt>
<rscale>  0 0.15401663E+04</rscale>
<asrwt>0</asrwt>
<pdfrwt beam="1">  1        2 0.65062516E-01 0.15401663E+04</pdfrwt>
<pdfrwt beam="2">  1       -1 0.21573355E+00 0.15401663E+04</pdfrwt>
<totfact> 0.96694794E+00</totfact>
</mgrwt>
</event>
<event>
12    7  0.1741211E-007  0.1564399E+04  0.7818608E-02  0.8842722E-01
          2   -1    0    0  501    0  0.00000000000E+00  0.00000000000E+00  0.33201749104E+04  0.33201749104E+04  0.00000000000E+00 0. -1.
         -1   -1    0    0    0  501 -0.00000000000E+00 -0.00000000000E+00 -0.18427835524E+03  0.18427835524E+03  0.00000000000E+00 0.  1.
         24    2    1    2    0    0 -0.63475359939E+02  0.22927381127E+03  0.21569917370E+04  0.21715300701E+04  0.79585739962E+02 0.  0.
        254    2    1    2    0    0  0.63475359939E+02 -0.22927381127E+03  0.97890481825E+03  0.13329231956E+04  0.87283102625E+03 0.  0.
         23    2    4    4    0    0 -0.27049673837E+03 -0.36542156015E+03  0.27845889427E+03  0.53996723683E+03  0.85579547507E+02 0.  0.
         23    2    4    4    0    0  0.33397209831E+03  0.13614774888E+03  0.70044592397E+03  0.79295595879E+03  0.89894873031E+02 0.  0.
          4    1    3    3  502    0 -0.42460464108E+02  0.95636261544E+02  0.12672677160E+04  0.12715803748E+04  0.00000000000E+00 0. -1.
         -3    1    3    3    0  502 -0.21014895830E+02  0.13363754972E+03  0.88972402097E+03  0.89994969528E+03  0.00000000000E+00 0.  1.
         13    1    5    5    0    0 -0.17850906563E+03 -0.17531997698E+03  0.17058939518E+03  0.30282556462E+03  0.00000000000E+00 0. -1.
        -13    1    5    5    0    0 -0.91987672741E+02 -0.19010158317E+03  0.10786949909E+03  0.23714167220E+03  0.00000000000E+00 0.  1.
          1    1    6    6  503    0  0.24867172330E+03  0.57167897616E+02  0.49537267892E+03  0.55722516590E+03  0.00000000000E+00 0. -1.
         -1    1    6    6    0  503  0.85300375016E+02  0.78979851268E+02  0.20507324505E+03  0.23573079289E+03  0.00000000000E+00 0.  1.
<mgrwt>
<rscale>  0 0.15643994E+04</rscale>
<asrwt>0</asrwt>
<pdfrwt beam="1">  1        2 0.51079610E+00 0.15643994E+04</pdfrwt>
<pdfrwt beam="2">  1       -1 0.28350519E-01 0.15643994E+04</pdfrwt>
<totfact> 0.13454746E+01</totfact>
</mgrwt>
</event>
<event>
12    7  0.1741211E-007  0.1700143E+04  0.7818608E-02  0.8761283E-01
          2   -1    0    0  501    0  0.00000000000E+00  0.00000000000E+00  0.94937876177E+03  0.94937876177E+03  0.00000000000E+00 0. -1.
         -1   -1    0    0    0  501 -0.00000000000E+00 -0.00000000000E+00 -0.76115160862E+03  0.76115160862E+03  0.00000000000E+00 0.  1.
         24    2    1    2    0    0 -0.12071179702E+03  0.55506376907E+03 -0.16397812574E+03  0.59521837366E+03  0.68767441054E+02 0.  0.
        254    2    1    2    0    0  0.12071179702E+03 -0.55506376907E+03  0.35220527890E+03  0.11153119967E+04  0.89286346431E+03 0.  0.
         23    2    4    4    0    0  0.44425195048E+03 -0.14244002476E+03  0.33775007206E+03  0.58283812913E+03  0.89309671532E+02 0.  0.
         23    2    4    4    0    0 -0.32354015346E+03 -0.41262374431E+03  0.14455206837E+02  0.53247386761E+03  0.91558076752E+02 0.  0.
          2    1    3    3  502    0 -0.99142607335E+01  0.29723264409E+02 -0.26405211423E+02  0.40975604978E+02  0.00000000000E+00 0. -1.
         -1    1    3    3    0  502 -0.11079753629E+03  0.52534050466E+03 -0.13757291432E+03  0.55424276868E+03  0.00000000000E+00 0.  1.
         13    1    5    5    0    0  0.51259244594E+02 -0.30622029366E+02  0.13489469433E+02  0.61214251808E+02  0.00000000000E+00 0.  1.
        -13    1    5    5    0    0  0.39299270588E+03 -0.11181799539E+03  0.32426060263E+03  0.52162387732E+03  0.00000000000E+00 0. -1.
          4    1    6    6  503    0 -0.13611850800E+03 -0.20393235432E+03 -0.34927744445E+02  0.24766227143E+03  0.00000000000E+00 0. -1.
         -4    1    6    6    0  503 -0.18742164546E+03 -0.20869138999E+03  0.49382951282E+02  0.28481159618E+03  0.00000000000E+00 0.  1.
<mgrwt>
<rscale>  0 0.17001425E+04</rscale>
<asrwt>0</asrwt>
<pdfrwt beam="1">  1        2 0.14605827E+00 0.17001425E+04</pdfrwt>
<pdfrwt beam="2">  1       -1 0.11710025E+00 0.17001425E+04</pdfrwt>
<totfact> 0.19392509E+01</totfact>
</mgrwt>
</event>
<event>
12    7  0.1741211E-007  0.1366264E+04  0.7818608E-02  0.8978607E-01
          2   -1    0    0  501    0  0.00000000000E+00  0.00000000000E+00  0.57026329552E+03  0.57026329552E+03  0.00000000000E+00 0. -1.
         -1   -1    0    0    0  501 -0.00000000000E+00 -0.00000000000E+00 -0.81833990744E+03  0.81833990744E+03  0.00000000000E+00 0.  1.
         24    2    1    2    0    0  0.20622312747E+03  0.28810801568E+03 -0.21525396886E+03  0.42175207927E+03  0.77500569396E+02 0.  0.
        254    2    1    2    0    0 -0.20622312747E+03 -0.28810801568E+03 -0.32822643057E+02  0.96685112369E+03  0.89899363873E+03 0.  0.
         23    2    4    4    0    0  0.16686213424E+03 -0.34703628508E+03  0.26442699865E+03  0.47564560130E+03  0.89665742681E+02 0.  0.
         23    2    4    4    0    0 -0.37308526171E+03  0.58928269399E+02 -0.29724964171E+03  0.49120552240E+03  0.10129344647E+03 0.  0.
          2    1    3    3  502    0 -0.33661112577E+01  0.60794744323E+01  0.35629806006E+01  0.78093242430E+01  0.00000000000E+00 0. -1.
         -1    1    3    3    0  502  0.20958923873E+03  0.28202854125E+03 -0.21881694946E+03  0.41394275503E+03  0.00000000000E+00 0.  1.
         13    1    5    5    0    0  0.15173791755E+03 -0.34846461449E+03  0.25203924567E+03  0.45604359938E+03  0.00000000000E+00 0.  1.
        -13    1    5    5    0    0  0.15124216686E+02  0.14283294095E+01  0.12387752984E+02  0.19602001919E+02  0.00000000000E+00 0. -1.
          2    1    6    6  503    0 -0.94272384908E+02 -0.24291225652E+02 -0.50348867270E+02  0.10960088793E+03  0.00000000000E+00 0. -1.
         -2    1    6    6    0  503 -0.27881287680E+03  0.83219495050E+02 -0.24690077444E+03  0.38160463447E+03  0.00000000000E+00 0.  1.
<mgrwt>
<rscale>  0 0.13662638E+04</rscale>
<asrwt>0</asrwt>
<pdfrwt beam="1">  1        2 0.87732815E-01 0.13662638E+04</pdfrwt>
<pdfrwt beam="2">  1       -1 0.12589845E+00 0.13662638E+04</pdfrwt>
<totfact> 0.32333403E+01</totfact>
</mgrwt>
</event>
<event>
12    7  0.1741211E-007  0.1688378E+04  0.7818608E-02  0.8768021E-01
          2   -1    0    0  501    0  0.00000000000E+00  0.00000000000E+00  0.41280934633E+03  0.41280934633E+03  0.00000000000E+00 0. -1.
         -1   -1    0    0    0  501 -0.00000000000E+00 -0.00000000000E+00 -0.17263531069E+04  0.17263531069E+04  0.00000000000E+00 0.  1.
         24    2    1    2    0    0  0.85013903387E+02  0.23151973394E+03 -0.11277228399E+04  0.11571734052E+04  0.80391138485E+02 0.  0.
        254    2    1    2    0    0 -0.85013903387E+02 -0.23151973394E+03 -0.18582092065E+03  0.98198904799E+03  0.93217183226E+03 0.  0.
         23    2    4    4    0    0  0.40592918532E+03 -0.51385115686E+02 -0.16634268232E+03  0.45043154720E+03  0.88316233772E+02 0.  0.
         23    2    4    4    0    0 -0.49094308870E+03 -0.18013461825E+03 -0.19478238332E+02  0.53155750079E+03  0.93275815934E+02 0.  0.
          4    1    3    3  502    0  0.10902407729E+02  0.11008169862E+03 -0.36886531222E+03  0.38509539263E+03  0.00000000000E+00 0. -1.
         -3    1    3    3    0  502  0.74111495659E+02  0.12143803532E+03 -0.75885752768E+03  0.77207801259E+03  0.00000000000E+00 0.  1.
         13    1    5    5    0    0  0.11023775376E+03  0.22798669399E+02 -0.59990383657E+02  0.12755778225E+03  0.00000000000E+00 0.  1.
        -13    1    5    5    0    0  0.29569143156E+03 -0.74183785085E+02 -0.10635229866E+03  0.32287376495E+03  0.00000000000E+00 0. -1.
          3    1    6    6  503    0 -0.47965495605E+03 -0.16362526915E+03 -0.49189217427E+01  0.50681979180E+03  0.00000000000E+00 0. -1.
         -3    1    6    6    0  503 -0.11288132655E+02 -0.16509349103E+02 -0.14559316589E+02  0.24737708992E+02  0.00000000000E+00 0.  1.
<mgrwt>
<rscale>  0 0.16883776E+04</rscale>
<asrwt>0</asrwt>
<pdfrwt beam="1">  1        2 0.63509129E-01 0.16883776E+04</pdfrwt>
<pdfrwt beam="2">  1       -1 0.26559279E+00 0.16883776E+04</pdfrwt>
<totfact> 0.46147179E+00</totfact>
</mgrwt>
</event>
<event>
12    7  0.1741211E-007  0.1324645E+04  0.7818608E-02  0.9010246E-01
          4   -1    0    0  501    0  0.00000000000E+00  0.00000000000E+00  0.63328960626E+03  0.63328960626E+03  0.00000000000E+00 0. -1.
         -3   -1    0    0    0  501 -0.00000000000E+00 -0.00000000000E+00 -0.69268656840E+03  0.69268656840E+03  0.00000000000E+00 0.  1.
         24    2    1    2    0    0  0.51465199614E+02  0.91048272165E+02 -0.33320876460E+03  0.35824700856E+03  0.79839737611E+02 0.  0.
        254    2    1    2    0    0 -0.51465199614E+02 -0.91048272165E+02  0.27381180245E+03  0.96772916610E+03  0.92227348500E+03 0.  0.
         23    2    4    4    0    0  0.24857447766E+02 -0.38561777567E+03  0.45376271049E+03  0.60196297508E+03  0.84497717859E+02 0.  0.
         23    2    4    4    0    0 -0.76322647380E+02  0.29456950351E+03 -0.17995090803E+03  0.36576619102E+03  0.93841559518E+02 0.  0.
          4    1    3    3  502    0 -0.15864190082E+02  0.49503253705E+02 -0.14732960906E+03  0.15623142565E+03  0.00000000000E+00 0. -1.
         -3    1    3    3    0  502  0.67329389696E+02  0.41545018460E+02 -0.18587915553E+03  0.20201558291E+03  0.00000000000E+00 0.  1.
         13    1    5    5    0    0  0.49696080719E+02 -0.27424206753E+03  0.28855002010E+03  0.40117268868E+03  0.00000000000E+00 0.  1.
        -13    1    5    5    0    0 -0.24838632953E+02 -0.11137570814E+03  0.16521269038E+03  0.20079028640E+03  0.00000000000E+00 0. -1.
          4    1    6    6  503    0  0.10476882746E+02  0.12681662478E+03 -0.94262030912E+02  0.15835893364E+03  0.00000000000E+00 0. -1.
         -4    1    6    6    0  503 -0.86799530126E+02  0.16775287872E+03 -0.85688877122E+02  0.20740725738E+03  0.00000000000E+00 0.  1.
<mgrwt>
<rscale>  0 0.13246452E+04</rscale>
<asrwt>0</asrwt>
<pdfrwt beam="1">  1        4 0.97429171E-01 0.13246452E+04</pdfrwt>
<pdfrwt beam="2">  1       -3 0.10656716E+00 0.13246452E+04</pdfrwt>
<totfact> 0.14782099E+00</totfact>
</mgrwt>
</event>
<event>
12    7  0.1741211E-007  0.2020257E+04  0.7818608E-02  0.8597208E-01
         -1   -1    0    0    0  501 -0.00000000000E+00  0.00000000000E+00  0.30413927278E+03  0.30413927278E+03  0.00000000000E+00 0.  1.
          2   -1    0    0  501    0  0.00000000000E+00 -0.00000000000E+00 -0.33549099517E+04  0.33549099517E+04  0.00000000000E+00 0. -1.
         24    2    1    2    0    0 -0.72654797890E+03  0.33526836790E+03 -0.11923167313E+04  0.14381429283E+04  0.79743654815E+02 0.  0.
        254    2    1    2    0    0  0.72654797890E+03 -0.33526836790E+03 -0.18584539477E+04  0.22209062962E+04  0.91558552665E+03 0.  0.
         23    2    4    4    0    0  0.40108576028E+03 -0.10134934155E+03 -0.17425029631E+04  0.17933409673E+04  0.92810411395E+02 0.  0.
         23    2    4    4    0    0  0.32546221863E+03 -0.23391902635E+03 -0.11595098457E+03  0.42756532887E+03  0.93400819003E+02 0.  0.
          4    1    3    3  502    0 -0.52843708362E+03  0.27061570061E+03 -0.92605710826E+03  0.11000274435E+04  0.00000000000E+00 0. -1.
         -3    1    3    3    0  502 -0.19811089529E+03  0.64652667295E+02 -0.26625962303E+03  0.33811548482E+03  0.00000000000E+00 0.  1.
         13    1    5    5    0    0  0.14674658396E+02 -0.69399172330E+01 -0.21348522005E+02  0.26819161844E+02  0.00000000000E+00 0. -1.
        -13    1    5    5    0    0  0.38641110188E+03 -0.94409424320E+02 -0.17211544411E+04  0.17665218055E+04  0.00000000000E+00 0.  1.
          2    1    6    6  503    0  0.74691981397E+02 -0.70632800375E+02 -0.71063356061E+02  0.12497153735E+03  0.00000000000E+00 0. -1.
         -2    1    6    6    0  503  0.25077023723E+03 -0.16328622597E+03 -0.44887628508E+02  0.30259379152E+03  0.00000000000E+00 0.  1.
<mgrwt>
<rscale>  0 0.20202573E+04</rscale>
<asrwt>0</asrwt>
<pdfrwt beam="1">  1        2 0.51614000E+00 0.20202573E+04</pdfrwt>
<pdfrwt beam="2">  1       -1 0.46790657E-01 0.20202573E+04</pdfrwt>
<totfact> 0.49375928E+00</totfact>
</mgrwt>
</event>
<event>
12    7  0.1741211E-007  0.1590928E+04  0.7818608E-02  0.8826141E-01
         -1   -1    0    0    0  501 -0.00000000000E+00  0.00000000000E+00  0.18072599539E+03  0.18072599539E+03  0.00000000000E+00 0.  1.
          2   -1    0    0  501    0  0.00000000000E+00 -0.00000000000E+00 -0.35012270953E+04  0.35012270953E+04  0.00000000000E+00 0. -1.
         24    2    1    2    0    0 -0.10867016715E+03 -0.52397127332E+02  0.79470478985E+02  0.16340288038E+03  0.76356270900E+02 0.  0.
        254    2    1    2    0    0  0.10867016715E+03  0.52397127332E+02 -0.33999715788E+04  0.35185502103E+04  0.89768267279E+03 0.  0.
         23    2    4    4    0    0 -0.75952469834E+02 -0.32696935842E+03 -0.24563277041E+04  0.24807339378E+04  0.88415727541E+02 0.  0.
         23    2    4    4    0    0  0.18462263698E+03  0.37936648575E+03 -0.94364387472E+03  0.10378162725E+04  0.92706011594E+02 0.  0.
          2    1    3    3  502    0 -0.33172220907E+02 -0.28366246235E+02 -0.90798794372E+01  0.44581211019E+02  0.00000000000E+00 0. -1.
         -1    1    3    3    0  502 -0.75497946241E+02 -0.24030881097E+02  0.88550358422E+02  0.11882166936E+03  0.00000000000E+00 0.  1.
         13    1    5    5    0    0 -0.36741875294E+02 -0.45219413473E+02 -0.28874274994E+03  0.29456261880E+03  0.00000000000E+00 0. -1.
        -13    1    5    5    0    0 -0.39210594539E+02 -0.28174994495E+03 -0.21675849542E+04  0.21861713190E+04  0.00000000000E+00 0.  1.
          2    1    6    6  503    0  0.45450008490E+02  0.18953356207E+03 -0.38226070995E+03  0.42908265497E+03  0.00000000000E+00 0. -1.
         -2    1    6    6    0  503  0.13917262849E+03  0.18983292368E+03 -0.56138316477E+03  0.60873361753E+03  0.00000000000E+00 0.  1.
<mgrwt>
<rscale>  0 0.15909277E+04</rscale>
<asrwt>0</asrwt>
<pdfrwt beam="1">  1        2 0.53865034E+00 0.15909277E+04</pdfrwt>
<pdfrwt beam="2">  1       -1 0.27803998E-01 0.15909277E+04</pdfrwt>
<totfact> 0.10458445E+01</totfact>
</mgrwt>
</event>
<event>
12    7  0.1741211E-007  0.3538709E+04  0.7818608E-02  0.8104677E-01
         -1   -1    0    0    0  501 -0.00000000000E+00  0.00000000000E+00  0.23372047629E+04  0.23372047629E+04  0.00000000000E+00 0.  1.
          2   -1    0    0  501    0  0.00000000000E+00 -0.00000000000E+00 -0.13394699384E+04  0.13394699384E+04  0.00000000000E+00 0. -1.
         24    2    1    2    0    0 -0.92379001697E+03 -0.87223538427E+03  0.15680483449E+04  0.20197149197E+04  0.79310679397E+02 0.  0.
        254    2    1    2    0    0  0.92379001697E+03  0.87223538427E+03 -0.57031352039E+03  0.16569597816E+04  0.89781715587E+03 0.  0.
         23    2    4    4    0    0  0.70237853801E+03  0.84251697792E+03 -0.71846158565E+02  0.11031573711E+04  0.92864665551E+02 0.  0.
         23    2    4    4    0    0  0.22141147896E+03  0.29718406350E+02 -0.49846736182E+03  0.55380241056E+03  0.91220460674E+02 0.  0.
          2    1    3    3  502    0 -0.12423717621E+03 -0.15055166873E+03  0.26529722638E+03  0.32936803008E+03  0.00000000000E+00 0. -1.
         -1    1    3    3    0  502 -0.79955284076E+03 -0.72168371554E+03  0.13027511185E+04  0.16903468896E+04  0.00000000000E+00 0.  1.
         13    1    5    5    0    0  0.67007358340E+03  0.82498699438E+03 -0.59916115831E+02  0.10645149548E+04  0.00000000000E+00 0. -1.
        -13    1    5    5    0    0  0.32304954612E+02  0.17529983540E+02 -0.11930042734E+02  0.38642416268E+02  0.00000000000E+00 0.  1.
          4    1    6    6  503    0  0.19077339413E+03 -0.85579638017E+01 -0.41834153002E+03  0.45986667893E+03  0.00000000000E+00 0. -1.
         -4    1    6    6    0  503  0.30638084829E+02  0.38276370151E+02 -0.80125831807E+02  0.93935731629E+02  0.00000000000E+00 0.  1.
<mgrwt>
<rscale>  0 0.35387091E+04</rscale>
<asrwt>0</asrwt>
<pdfrwt beam="1">  1        2 0.20607230E+00 0.35387091E+04</pdfrwt>
<pdfrwt beam="2">  1       -1 0.35956996E+00 0.35387091E+04</pdfrwt>
<totfact> 0.19620145E-01</totfact>
</mgrwt>
</event>
<event>
12    7  0.1741211E-007  0.1369686E+04  0.7818608E-02  0.8976058E-01
         -1   -1    0    0    0  501 -0.00000000000E+00  0.00000000000E+00  0.84554103542E+03  0.84554103542E+03  0.00000000000E+00 0.  1.
          2   -1    0    0  501    0  0.00000000000E+00 -0.00000000000E+00 -0.55468615150E+03  0.55468615150E+03  0.00000000000E+00 0. -1.
         24    2    1    2    0    0 -0.21213185030E+03  0.31490043646E+03  0.32756759887E+02  0.38817398224E+03  0.73782303974E+02 0.  0.
        254    2    1    2    0    0  0.21213185030E+03 -0.31490043646E+03  0.25809812403E+03  0.10120532047E+04  0.90192840109E+03 0.  0.
         23    2    4    4    0    0  0.35367290541E+03 -0.15278991625E+03 -0.23839675850E+03  0.46313898106E+03  0.96101086268E+02 0.  0.
         23    2    4    4    0    0 -0.14154105511E+03 -0.16211052021E+03  0.49649488253E+03  0.54891422363E+03  0.92119300247E+02 0.  0.
          4    1    3    3  502    0 -0.10975396284E+03  0.14220316458E+03 -0.19595982459E+02  0.18069774460E+03  0.00000000000E+00 0. -1.
         -3    1    3    3    0  502 -0.10237788746E+03  0.17269727187E+03  0.52352742347E+02  0.20747623764E+03  0.00000000000E+00 0.  1.
         13    1    5    5    0    0  0.34699615120E+03 -0.14880133482E+03 -0.24728443054E+03  0.45132887763E+03  0.00000000000E+00 0. -1.
        -13    1    5    5    0    0  0.66767542105E+01 -0.39885814283E+01  0.88876720446E+01  0.11810103428E+02  0.00000000000E+00 0.  1.
          3    1    6    6  503    0 -0.97251920204E+02 -0.79664330217E+02  0.37526051600E+03  0.39575850763E+03  0.00000000000E+00 0. -1.
         -3    1    6    6    0  503 -0.44289134909E+02 -0.82446189990E+02  0.12123436653E+03  0.15315571599E+03  0.00000000000E+00 0.  1.
<mgrwt>
<rscale>  0 0.13696860E+04</rscale>
<asrwt>0</asrwt>
<pdfrwt beam="1">  1        2 0.85336331E-01 0.13696860E+04</pdfrwt>
<pdfrwt beam="2">  1       -1 0.13008324E+00 0.13696860E+04</pdfrwt>
<totfact> 0.30775754E+01</totfact>
</mgrwt>
</event>
<event>
12    7  0.1741211E-007  0.2569515E+04  0.7818608E-02  0.8378630E-01
         -3   -1    0    0    0  501 -0.00000000000E+00  0.00000000000E+00  0.23337576404E+04  0.23337576404E+04  0.00000000000E+00 0.  1.
          4   -1    0    0  501    0  0.00000000000E+00 -0.00000000000E+00 -0.70727241922E+03  0.70727241922E+03  0.00000000000E+00 0. -1.
         24    2    1    2    0    0 -0.96837733276E+03  0.40020018301E+03  0.22134003986E+03  0.10740030713E+04  0.81094628441E+02 0.  0.
        254    2    1    2    0    0  0.96837733276E+03 -0.40020018301E+03  0.14051451813E+04  0.19670269884E+04  0.89266306481E+03 0.  0.
         23    2    4    4    0    0  0.76272748127E+03 -0.59286372819E+03  0.13550985203E+04  0.16665843545E+04  0.89279337220E+02 0.  0.
         23    2    4    4    0    0  0.20564985149E+03  0.19266354518E+03  0.50046661052E+02  0.30044263389E+03  0.91378361310E+02 0.  0.
          4    1    3    3  502    0 -0.64955031029E+03  0.24262973341E+03  0.17691369863E+03  0.71559992307E+03  0.00000000000E+00 0. -1.
         -3    1    3    3    0  502 -0.31882702247E+03  0.15757044960E+03  0.44426341232E+02  0.35840314820E+03  0.00000000000E+00 0.  1.
         13    1    5    5    0    0  0.18734824639E+02 -0.14629748894E+02  0.14109863007E+02  0.27642565746E+02  0.00000000000E+00 0.  1.
        -13    1    5    5    0    0  0.74399265663E+03 -0.57823397930E+03  0.13409886573E+04  0.16389417887E+04  0.00000000000E+00 0. -1.
          3    1    6    6  503    0  0.15100710378E+03  0.16987180979E+03  0.70231616564E+02  0.23789085127E+03  0.00000000000E+00 0. -1.
         -3    1    6    6    0  503  0.54642747711E+02  0.22791735390E+02 -0.20184955512E+02  0.62551782617E+02  0.00000000000E+00 0.  1.
<mgrwt>
<rscale>  0 0.25695155E+04</rscale>
<asrwt>0</asrwt>
<pdfrwt beam="1">  1        4 0.10881114E+00 0.25695155E+04</pdfrwt>
<pdfrwt beam="2">  1       -3 0.35903963E+00 0.25695155E+04</pdfrwt>
<totfact> 0.24321804E-02</totfact>
</mgrwt>
</event>
<event>
12    7  0.1741211E-007  0.1249447E+04  0.7818608E-02  0.9070644E-01
         -1   -1    0    0    0  501 -0.00000000000E+00  0.00000000000E+00  0.15096819839E+03  0.15096819839E+03  0.00000000000E+00 0.  1.
          2   -1    0    0  501    0  0.00000000000E+00 -0.00000000000E+00 -0.25851767012E+04  0.25851767012E+04  0.00000000000E+00 0. -1.
         24    2    1    2    0    0 -0.17306567658E+03 -0.12242678489E+03 -0.13565514054E+03  0.26553217021E+03  0.84646146935E+02 0.  0.
        254    2    1    2    0    0  0.17306567658E+03  0.12242678489E+03 -0.22985533623E+04  0.24706127294E+04  0.88070406683E+03 0.  0.
         23    2    4    4    0    0  0.20036333001E+03  0.42736941341E+03 -0.18995032580E+04  0.19595423039E+04  0.94357479527E+02 0.  0.
         23    2    4    4    0    0 -0.27297653434E+02 -0.30494262851E+03 -0.39905010425E+03  0.51107042550E+03  0.90646707367E+02 0.  0.
          2    1    3    3  502    0 -0.13554596623E+03 -0.47722626996E+02 -0.97386876856E+02  0.17359251675E+03  0.00000000000E+00 0. -1.
         -3    1    3    3    0  502 -0.37519710346E+02 -0.74704157898E+02 -0.38268263686E+02  0.91939653454E+02  0.00000000000E+00 0.  1.
         13    1    5    5    0    0  0.15573726519E+03  0.37261586277E+03 -0.14789401567E+04  0.15330886028E+04  0.00000000000E+00 0.  1.
        -13    1    5    5    0    0  0.44626064815E+02  0.54753550635E+02 -0.42056310127E+03  0.42645370103E+03  0.00000000000E+00 0. -1.
          1    1    6    6  503    0 -0.58133533609E+02 -0.15437894980E+03 -0.22282436674E+03  0.27724189129E+03  0.00000000000E+00 0. -1.
         -1    1    6    6    0  503  0.30835880175E+02 -0.15056367871E+03 -0.17622573751E+03  0.23382853421E+03  0.00000000000E+00 0.  1.
<mgrwt>
<rscale>  0 0.12494470E+04</rscale>
<asrwt>0</asrwt>
<pdfrwt beam="1">  1        2 0.39771949E+00 0.12494470E+04</pdfrwt>
<pdfrwt beam="2">  1       -1 0.23225877E-01 0.12494470E+04</pdfrwt>
<totfact> 0.55620366E+01</totfact>
</mgrwt>
</event>
<event>
12    7  0.1741211E-007  0.3262737E+04  0.7818608E-02  0.8172442E-01
          2   -1    0    0  501    0  0.00000000000E+00  0.00000000000E+00  0.24408865743E+04  0.24408865743E+04  0.00000000000E+00 0. -1.
         -1   -1    0    0    0  501 -0.00000000000E+00 -0.00000000000E+00 -0.10903263111E+04  0.10903263111E+04  0.00000000000E+00 0.  1.
         24    2    1    2    0    0  0.68405563119E+03  0.10228194506E+04  0.15677041256E+04  0.19951453371E+04  0.93898646050E+02 0.  0.
        254    2    1    2    0    0 -0.68405563119E+03 -0.10228194506E+04 -0.21714386245E+03  0.15360675483E+04  0.89345415151E+03 0.  0.
         23    2    4    4    0    0 -0.51731610885E+03 -0.11642339681E+04 -0.23978861078E+03  0.12994534862E+04  0.89577318373E+02 0.  0.
         23    2    4    4    0    0 -0.16673952234E+03  0.14141451759E+03  0.22644748328E+02  0.23661406203E+03  0.87597349437E+02 0.  0.
          2    1    3    3  502    0  0.27703874734E+03  0.36366642021E+03  0.64009075866E+03  0.78658751073E+03  0.00000000000E+00 0. -1.
         -1    1    3    3    0  502  0.40701688385E+03  0.65915303035E+03  0.92761336699E+03  0.12085578264E+04  0.00000000000E+00 0.  1.
         13    1    5    5    0    0 -0.38728308631E+03 -0.83300693281E+03 -0.13494787511E+03  0.92849322455E+03  0.00000000000E+00 0. -1.
        -13    1    5    5    0    0 -0.13003302254E+03 -0.33122703534E+03 -0.10484073567E+03  0.37096026168E+03  0.00000000000E+00 0.  1.
          2    1    6    6  503    0 -0.26857821040E+02  0.76417622135E+02  0.22940547323E+01  0.81032451591E+02  0.00000000000E+00 0. -1.
         -2    1    6    6    0  503 -0.13988170130E+03  0.64996895458E+02  0.20350693596E+02  0.15558161044E+03  0.00000000000E+00 0.  1.
<mgrwt>
<rscale>  0 0.32627368E+04</rscale>
<asrwt>0</asrwt>
<pdfrwt beam="1">  1        2 0.37552101E+00 0.32627368E+04</pdfrwt>
<pdfrwt beam="2">  1       -1 0.16774251E+00 0.32627368E+04</pdfrwt>
<totfact> 0.91671713E-01</totfact>
</mgrwt>
</event>
<event>
12    7  0.1741211E-007  0.1841218E+04  0.7818608E-02  0.8684682E-01
          2   -1    0    0  501    0  0.00000000000E+00  0.00000000000E+00  0.12701473366E+04  0.12701473366E+04  0.00000000000E+00 0. -1.
         -1   -1    0    0    0  501 -0.00000000000E+00 -0.00000000000E+00 -0.66726205995E+03  0.66726205995E+03  0.00000000000E+00 0.  1.
         24    2    1    2    0    0 -0.62132986918E+03  0.54453937452E+02 -0.10399298253E+03  0.63710312805E+03  0.77909034896E+02 0.  0.
        254    2    1    2    0    0  0.62132986918E+03 -0.54453937452E+02  0.70687825920E+03  0.13003062685E+04  0.89560230068E+03 0.  0.
         23    2    4    4    0    0  0.14180114520E+03  0.34428583760E+03  0.51337887200E+03  0.64105397219E+03  0.93552264998E+02 0.  0.
         23    2    4    4    0    0  0.47952872397E+03 -0.39873977505E+03  0.19349938720E+03  0.65925229633E+03  0.90721397933E+02 0.  0.
          4    1    3    3  502    0 -0.12559880610E+03  0.72533806106E+01  0.10146732125E+02  0.12621659081E+03  0.00000000000E+00 0. -1.
         -3    1    3    3    0  502 -0.49573106308E+03  0.47200556842E+02 -0.11413971466E+03  0.51088653724E+03  0.00000000000E+00 0.  1.
         13    1    5    5    0    0  0.53320175213E+02  0.47077106514E+02  0.12766719760E+03  0.14614447778E+03  0.00000000000E+00 0.  1.
        -13    1    5    5    0    0  0.88480969989E+02  0.29720873109E+03  0.38571167440E+03  0.49490949441E+03  0.00000000000E+00 0. -1.
          3    1    6    6  503    0  0.44570086192E+03 -0.39281313299E+03  0.19379997156E+03  0.62490786901E+03  0.00000000000E+00 0. -1.
         -3    1    6    6    0  503  0.33827862052E+02 -0.59266420585E+01 -0.30058435907E+00  0.34344427322E+02  0.00000000000E+00 0.  1.
<mgrwt>
<rscale>  0 0.18412182E+04</rscale>
<asrwt>0</asrwt>
<pdfrwt beam="1">  1        2 0.19540728E+00 0.18412182E+04</pdfrwt>
<pdfrwt beam="2">  1       -1 0.10265570E+00 0.18412182E+04</pdfrwt>
<totfact> 0.16566609E+01</totfact>
</mgrwt>
</event>
<event>
12    7  0.1741211E-007  0.1646569E+04  0.7818608E-02  0.8792439E-01
         -1   -1    0    0    0  501 -0.00000000000E+00  0.00000000000E+00  0.80572067982E+03  0.80572067982E+03  0.00000000000E+00 0.  1.
          4   -1    0    0  501    0  0.00000000000E+00 -0.00000000000E+00 -0.84123169602E+03  0.84123169602E+03  0.00000000000E+00 0. -1.
         24    2    1    2    0    0  0.43107920990E+03  0.24572646805E+03  0.24329953590E+03  0.55848140598E+03  0.80597979853E+02 0.  0.
        254    2    1    2    0    0 -0.43107920990E+03 -0.24572646805E+03 -0.27881055210E+03  0.10884709699E+04  0.92780544617E+03 0.  0.
         23    2    4    4    0    0  0.12240764581E+03 -0.43152935822E+03 -0.91041680954E+02  0.46889743159E+03  0.10185771903E+03 0.  0.
         23    2    4    4    0    0 -0.55348685570E+03  0.18580289017E+03 -0.18776887114E+03  0.61957353826E+03  0.87998902907E+02 0.  0.
          2    1    3    3  502    0  0.14650694304E+01  0.70517831010E+01  0.14880708341E+02  0.16532076520E+02  0.00000000000E+00 0. -1.
         -1    1    3    3    0  502  0.42961414047E+03  0.23867468495E+03  0.22841882756E+03  0.54194932946E+03  0.00000000000E+00 0.  1.
         13    1    5    5    0    0  0.23869340852E+02 -0.10057331673E+03  0.21747894721E+02  0.10563005442E+03  0.00000000000E+00 0. -1.
        -13    1    5    5    0    0  0.98538304954E+02 -0.33095604149E+03 -0.11278957567E+03  0.36326737718E+03  0.00000000000E+00 0.  1.
          1    1    6    6  503    0 -0.42072367681E+03  0.13208884993E+03 -0.17953861678E+03  0.47611972383E+03  0.00000000000E+00 0. -1.
         -1    1    6    6    0  503 -0.13276317889E+03  0.53714040238E+02 -0.82302543663E+01  0.14345381443E+03  0.00000000000E+00 0.  1.
<mgrwt>
<rscale>  0 0.16465695E+04</rscale>
<asrwt>0</asrwt>
<pdfrwt beam="1">  1        4 0.12942026E+00 0.16465695E+04</pdfrwt>
<pdfrwt beam="2">  1       -1 0.12395703E+00 0.16465695E+04</pdfrwt>
<totfact> 0.98760234E-01</totfact>
</mgrwt>
</event>
<event>
12    7  0.1741211E-007  0.2808302E+04  0.7818608E-02  0.8300696E-01
         -1   -1    0    0    0  501 -0.00000000000E+00  0.00000000000E+00  0.59687675555E+03  0.59687675555E+03  0.00000000000E+00 0.  1.
          2   -1    0    0  501    0  0.00000000000E+00 -0.00000000000E+00 -0.33032608955E+04  0.33032608955E+04  0.00000000000E+00 0. -1.
         24    2    1    2    0    0  0.99299560788E+03  0.30975670998E+03 -0.21956192323E+04  0.24308672812E+04  0.79890106256E+02 0.  0.
        254    2    1    2    0    0 -0.99299560788E+03 -0.30975670998E+03 -0.51076490762E+03  0.14692703698E+04  0.90326360054E+03 0.  0.
         23    2    4    4    0    0 -0.96843277063E+03 -0.34096356118E+03 -0.87578388473E+02  0.10344849351E+04  0.91492761781E+02 0.  0.
         23    2    4    4    0    0 -0.24562837249E+02  0.31206851197E+02 -0.42318651914E+03  0.43478543473E+03  0.91511440465E+02 0.  0.
          2    1    3    3  502    0  0.67993597329E+03  0.17729001143E+03 -0.15194702225E+04  0.16740771885E+04  0.00000000000E+00 0. -1.
         -1    1    3    3    0  502  0.31305963459E+03  0.13246669855E+03 -0.67614900975E+03  0.75679009271E+03  0.00000000000E+00 0.  1.
         13    1    5    5    0    0 -0.53193876988E+03 -0.16840036058E+03 -0.89643638082E+02  0.56511372147E+03  0.00000000000E+00 0. -1.
        -13    1    5    5    0    0 -0.43649400075E+03 -0.17256320060E+03  0.20652496090E+01  0.46937121359E+03  0.00000000000E+00 0.  1.
          2    1    6    6  503    0  0.32101900449E+02 -0.50263211920E+01 -0.13567948192E+03  0.13951601246E+03  0.00000000000E+00 0. -1.
         -2    1    6    6    0  503 -0.56664737698E+02  0.36233172389E+02 -0.28750703722E+03  0.29526942227E+03  0.00000000000E+00 0.  1.
<mgrwt>
<rscale>  0 0.28083017E+04</rscale>
<asrwt>0</asrwt>
<pdfrwt beam="1">  1        2 0.50819399E+00 0.28083017E+04</pdfrwt>
<pdfrwt beam="2">  1       -1 0.91827192E-01 0.28083017E+04</pdfrwt>
<totfact> 0.12649023E+00</totfact>
</mgrwt>
</event>
<event>
12    7  0.1741211E-007  0.1265164E+04  0.7818608E-02  0.9057656E-01
         -1   -1    0    0    0  501 -0.00000000000E+00  0.00000000000E+00  0.52746946741E+03  0.52746946741E+03  0.00000000000E+00 0.  1.
          2   -1    0    0  501    0  0.00000000000E+00 -0.00000000000E+00 -0.75864070977E+03  0.75864070977E+03  0.00000000000E+00 0. -1.
         24    2    1    2    0    0 -0.31249056466E+02  0.23245719392E+03 -0.53271353050E+01  0.24761031605E+03  0.79181056504E+02 0.  0.
        254    2    1    2    0    0  0.31249056466E+02 -0.23245719392E+03 -0.22584410705E+03  0.10384998611E+04  0.98613566528E+03 0.  0.
         23    2    4    4    0    0  0.71984708182E+00 -0.28454446134E+03 -0.58781680676E+03  0.65967227331E+03  0.93128090267E+02 0.  0.
         23    2    4    4    0    0  0.30529209384E+02  0.52087267423E+02  0.36197269971E+03  0.37882758782E+03  0.94026538300E+02 0.  0.
          2    1    3    3  502    0 -0.44458631898E+02  0.14775506914E+03  0.25735074001E+02  0.15643025423E+03  0.00000000000E+00 0. -1.
         -1    1    3    3    0  502  0.13209575433E+02  0.84702124784E+02 -0.31062209306E+02  0.91180061817E+02  0.00000000000E+00 0.  1.
         13    1    5    5    0    0 -0.63843510071E+00 -0.85288562083E+02 -0.28242907339E+03  0.29502665628E+03  0.00000000000E+00 0. -1.
        -13    1    5    5    0    0  0.13582821825E+01 -0.19925589926E+03 -0.30538773337E+03  0.36464561702E+03  0.00000000000E+00 0.  1.
          3    1    6    6  503    0  0.39626934917E+02  0.51745244323E+02  0.36375740842E+03  0.36955015419E+03  0.00000000000E+00 0. -1.
         -3    1    6    6    0  503 -0.90977255329E+01  0.34202309925E+00 -0.17847087058E+01  0.92774336342E+01  0.00000000000E+00 0.  1.
<mgrwt>
<rscale>  0 0.12651637E+04</rscale>
<asrwt>0</asrwt>
<pdfrwt beam="1">  1        2 0.11671395E+00 0.12651637E+04</pdfrwt>
<pdfrwt beam="2">  1       -1 0.81149149E-01 0.12651637E+04</pdfrwt>
<totfact> 0.62742070E+01</totfact>
</mgrwt>
</event>
<event>
12    7  0.1741211E-007  0.3245465E+04  0.7818608E-02  0.8176912E-01
         -1   -1    0    0    0  501 -0.00000000000E+00  0.00000000000E+00  0.13737312873E+04  0.13737312873E+04  0.00000000000E+00 0.  1.
          2   -1    0    0  501    0  0.00000000000E+00 -0.00000000000E+00 -0.19168673327E+04  0.19168673327E+04  0.00000000000E+00 0. -1.
         24    2    1    2    0    0  0.13521238558E+04  0.59972462084E+03 -0.23638960857E+02  0.14813799445E+04  0.77583485092E+02 0.  0.
        254    2    1    2    0    0 -0.13521238558E+04 -0.59972462084E+03 -0.51949708463E+03  0.18092186755E+04  0.90304288532E+03 0.  0.
         23    2    4    4    0    0 -0.46008931638E+03 -0.20740685897E+03  0.24392015263E+03  0.56793800799E+03  0.91415293440E+02 0.  0.
         23    2    4    4    0    0 -0.89203453941E+03 -0.39231776186E+03 -0.76341723726E+03  0.12412806675E+04  0.91285112097E+02 0.  0.
          2    1    3    3  502    0  0.14814515124E+03  0.47517405774E+02  0.14525196472E+02  0.15625578716E+03  0.00000000000E+00 0. -1.
         -1    1    3    3    0  502  0.12039787045E+04  0.55220721506E+03 -0.38164157329E+02  0.13251241573E+04  0.00000000000E+00 0.  1.
         13    1    5    5    0    0 -0.10383102608E+03 -0.71032105316E+02  0.98170919166E+02  0.15957434422E+03  0.00000000000E+00 0.  1.
        -13    1    5    5    0    0 -0.35625829029E+03 -0.13637475366E+03  0.14574923346E+03  0.40836366378E+03  0.00000000000E+00 0. -1.
          3    1    6    6  503    0 -0.19090135786E+03 -0.85286394514E+02 -0.21329043921E+03  0.29868027886E+03  0.00000000000E+00 0. -1.
         -3    1    6    6    0  503 -0.70113318155E+03 -0.30703136735E+03 -0.55012679805E+03  0.94260038868E+03  0.00000000000E+00 0.  1.
<mgrwt>
<rscale>  0 0.32454649E+04</rscale>
<asrwt>0</asrwt>
<pdfrwt beam="1">  1        2 0.29490267E+00 0.32454649E+04</pdfrwt>
<pdfrwt beam="2">  1       -1 0.21134328E+00 0.32454649E+04</pdfrwt>
<totfact> 0.89287927E-01</totfact>
</mgrwt>
</event>
<event>
12    7  0.1741211E-007  0.1930509E+04  0.7818608E-02  0.8639818E-01
          2   -1    0    0  501    0  0.00000000000E+00  0.00000000000E+00  0.79946332744E+03  0.79946332744E+03  0.00000000000E+00 0. -1.
         -1   -1    0    0    0  501 -0.00000000000E+00 -0.00000000000E+00 -0.11654268160E+04  0.11654268160E+04  0.00000000000E+00 0.  1.
         24    2    1    2    0    0  0.50156903981E+03 -0.51010226342E+03  0.75298341664E+02  0.72383407885E+03  0.80561235109E+02 0.  0.
        254    2    1    2    0    0 -0.50156903981E+03  0.51010226342E+03 -0.44126183026E+03  0.12410560646E+04  0.91308944352E+03 0.  0.
         23    2    4    4    0    0 -0.20836461433E+03  0.38572171608E+03  0.22232270660E+03  0.49947155658E+03  0.88585524772E+02 0.  0.
         23    2    4    4    0    0 -0.29320442548E+03  0.12438054734E+03 -0.66358453685E+03  0.74158450805E+03  0.90353690333E+02 0.  0.
          2    1    3    3  502    0  0.48557035333E+03 -0.46776860615E+03  0.64502801682E+02  0.67730838498E+03  0.00000000000E+00 0. -1.
         -1    1    3    3    0  502  0.15998686481E+02 -0.42333657269E+02  0.10795539981E+02  0.46525693873E+02  0.00000000000E+00 0.  1.
         13    1    5    5    0    0 -0.43173078134E+02  0.11058253466E+03  0.20788515346E+02  0.12051794064E+03  0.00000000000E+00 0. -1.
        -13    1    5    5    0    0 -0.16519153620E+03  0.27513918142E+03  0.20153419125E+03  0.37895361593E+03  0.00000000000E+00 0.  1.
          1    1    6    6  503    0 -0.36233786442E+02  0.24284157577E+02 -0.17688142729E+03  0.18218025938E+03  0.00000000000E+00 0. -1.
         -1    1    6    6    0  503 -0.25697063904E+03  0.10009638976E+03 -0.48670310957E+03  0.55940424867E+03  0.00000000000E+00 0.  1.
<mgrwt>
<rscale>  0 0.19305087E+04</rscale>
<asrwt>0</asrwt>
<pdfrwt beam="1">  1        2 0.12299436E+00 0.19305087E+04</pdfrwt>
<pdfrwt beam="2">  1       -1 0.17929643E+00 0.19305087E+04</pdfrwt>
<totfact> 0.77402438E+00</totfact>
</mgrwt>
</event>
<event>
12    7  0.2549225E-007  0.2259333E+04  0.7818608E-02  0.8494130E-01
         -1   -1    0    0    0  501 -0.00000000000E+00  0.00000000000E+00  0.14443093017E+04  0.14443093017E+04  0.00000000000E+00 0.  1.
          2   -1    0    0  501    0  0.00000000000E+00 -0.00000000000E+00 -0.88356878556E+03  0.88356878556E+03  0.00000000000E+00 0. -1.
         24    2    1    2    0    0 -0.10284774037E+03  0.82847112771E+03  0.69155116458E+03  0.10869848278E+04  0.79692757228E+02 0.  0.
        254    2    1    2    0    0  0.10284774037E+03 -0.82847112771E+03 -0.13081064846E+03  0.12408932594E+04  0.90871480034E+03 0.  0.
         23    2    4    4    0    0  0.29536517684E+03  0.44479129019E+02  0.69754720148E+02  0.32025963751E+03  0.92095243236E+02 0.  0.
         23    2    4    4    0    0 -0.19251743647E+03 -0.87295025673E+03 -0.20056536861E+03  0.92063362190E+03  0.90745163016E+02 0.  0.
          2    1    3    3  502    0 -0.35880792877E+02  0.13138493222E+03  0.14245360446E+03  0.19708490844E+03  0.00000000000E+00 0. -1.
         -1    1    3    3    0  502 -0.66966947493E+02  0.69708619549E+03  0.54909756013E+03  0.88989991940E+03  0.00000000000E+00 0.  1.
         13    1    5    5    0    0  0.16753940916E+02 -0.17174315792E+02  0.18602975393E+02  0.30359880642E+02  0.00000000000E+00 0. -1.
        -13    1    5    5    0    0  0.27861123593E+03  0.61653444811E+02  0.51151744755E+02  0.28989975687E+03  0.00000000000E+00 0.  1.
          1    1    6    6  503    0 -0.20226728654E+02 -0.44072443735E+02 -0.30017765782E+02  0.57031281867E+02  0.00000000000E+00 0. -1.
         -1    1    6    6    0  503 -0.17229070782E+03 -0.82887781300E+03 -0.17054760283E+03  0.86360234003E+03  0.00000000000E+00 0.  1.
<mgrwt>
<rscale>  0 0.22593332E+04</rscale>
<asrwt>0</asrwt>
<pdfrwt beam="1">  1        2 0.13593366E+00 0.22593332E+04</pdfrwt>
<pdfrwt beam="2">  1       -1 0.22220143E+00 0.22593332E+04</pdfrwt>
<totfact> 0.33206040E+00</totfact>
</mgrwt>
</event>
<event>
12    7  0.1741211E-007  0.1144068E+04  0.7818608E-02  0.9163273E-01
          2   -1    0    0  501    0  0.00000000000E+00  0.00000000000E+00  0.24547188267E+04  0.24547188267E+04  0.00000000000E+00 0. -1.
         -1   -1    0    0    0  501 -0.00000000000E+00 -0.00000000000E+00 -0.13330369930E+03  0.13330369930E+03  0.00000000000E+00 0.  1.
         24    2    1    2    0    0 -0.83153712781E+02 -0.17128107774E+03  0.64548408345E+03  0.67778562332E+03  0.80572338036E+02 0.  0.
        254    2    1    2    0    0  0.83153712781E+02  0.17128107774E+03  0.16759310440E+04  0.19102369027E+04  0.89666516201E+03 0.  0.
         23    2    4    4    0    0 -0.39067825085E+03  0.73257219020E+02  0.58016910914E+03  0.70896004641E+03  0.89621629006E+02 0.  0.
         23    2    4    4    0    0  0.47383196363E+03  0.98023858716E+02  0.10957619348E+04  0.12012768563E+04  0.90810027014E+02 0.  0.
          4    1    3    3  502    0 -0.97695721130E+02 -0.12799833772E+03  0.50972746563E+03  0.53455600044E+03  0.00000000000E+00 0. -1.
         -3    1    3    3    0  502  0.14542008349E+02 -0.43282740011E+02  0.13575661782E+03  0.14322962288E+03  0.00000000000E+00 0.  1.
         13    1    5    5    0    0 -0.26382229388E+02  0.89770824056E+01  0.94073239235E+02  0.98114139532E+02  0.00000000000E+00 0. -1.
        -13    1    5    5    0    0 -0.36429602146E+03  0.64280136614E+02  0.48609586990E+03  0.61084590688E+03  0.00000000000E+00 0.  1.
          4    1    6    6  503    0  0.23294510488E+03  0.52927493854E+02  0.65131264199E+03  0.69373835061E+03  0.00000000000E+00 0.  1.
         -4    1    6    6    0  503  0.24088685875E+03  0.45096364862E+02  0.44444929283E+03  0.50753850567E+03  0.00000000000E+00 0. -1.
<mgrwt>
<rscale>  0 0.11440684E+04</rscale>
<asrwt>0</asrwt>
<pdfrwt beam="1">  1        2 0.37764902E+00 0.11440684E+04</pdfrwt>
<pdfrwt beam="2">  1       -1 0.20508263E-01 0.11440684E+04</pdfrwt>
<totfact> 0.82360569E+01</totfact>
</mgrwt>
</event>
<event>
12    7  0.1741211E-007  0.2713521E+04  0.7818608E-02  0.8330631E-01
          2   -1    0    0  501    0  0.00000000000E+00  0.00000000000E+00  0.29221786041E+04  0.29221786041E+04  0.00000000000E+00 0. -1.
         -1   -1    0    0    0  501 -0.00000000000E+00 -0.00000000000E+00 -0.62994053796E+03  0.62994053796E+03  0.00000000000E+00 0.  1.
         24    2    1    2    0    0 -0.66959814999E+02 -0.77974552612E+03  0.22226061111E+04  0.23576854586E+04  0.78842211550E+02 0.  0.
        254    2    1    2    0    0  0.66959814999E+02  0.77974552612E+03  0.69631955031E+02  0.11944336834E+04  0.89963132039E+03 0.  0.
         23    2    4    4    0    0  0.13997123597E+00  0.28738047362E+03  0.46413885218E+03  0.55346594143E+03  0.91170817760E+02 0.  0.
         23    2    4    4    0    0  0.66819843763E+02  0.49236505250E+03 -0.39450689714E+03  0.64096774201E+03  0.91190558473E+02 0.  0.
          2    1    3    3  502    0 -0.32454318880E+02 -0.54115964003E+03  0.16356332080E+04  0.17231375540E+04  0.00000000000E+00 0. -1.
         -1    1    3    3    0  502 -0.34505496118E+02 -0.23858588609E+03  0.58697290310E+03  0.63454790464E+03  0.00000000000E+00 0.  1.
         13    1    5    5    0    0 -0.41528341332E+02  0.10708292806E+03  0.15070040143E+03  0.18947814546E+03  0.00000000000E+00 0.  1.
        -13    1    5    5    0    0  0.41668312568E+02  0.18029754556E+03  0.31343845075E+03  0.36398779597E+03  0.00000000000E+00 0. -1.
          3    1    6    6  503    0  0.82267406492E+02  0.41580124999E+03 -0.35769558392E+03  0.55462125493E+03  0.00000000000E+00 0. -1.
         -3    1    6    6    0  503 -0.15447562729E+02  0.76563802513E+02 -0.36811313223E+02  0.86346487078E+02  0.00000000000E+00 0.  1.
<mgrwt>
<rscale>  0 0.27135208E+04</rscale>
<asrwt>0</asrwt>
<pdfrwt beam="1">  1        2 0.44956593E+00 0.27135208E+04</pdfrwt>
<pdfrwt beam="2">  1       -1 0.96913931E-01 0.27135208E+04</pdfrwt>
<totfact> 0.19844707E+00</totfact>
</mgrwt>
</event>
<event>
12    7  0.1741211E-007  0.1858617E+04  0.7818608E-02  0.8675734E-01
          2   -1    0    0  501    0  0.00000000000E+00  0.00000000000E+00  0.46871533274E+03  0.46871533274E+03  0.00000000000E+00 0. -1.
         -1   -1    0    0    0  501 -0.00000000000E+00 -0.00000000000E+00 -0.18425127064E+04  0.18425127064E+04  0.00000000000E+00 0.  1.
         24    2    1    2    0    0  0.49518538420E+03  0.34672468272E+03 -0.72627511154E+02  0.61413177416E+03  0.80352413316E+02 0.  0.
        254    2    1    2    0    0 -0.49518538420E+03 -0.34672468272E+03 -0.13011698625E+04  0.16970962650E+04  0.90645802505E+03 0.  0.
         23    2    4    4    0    0  0.12580487677E+03 -0.42590633079E+03 -0.61794802823E+03  0.76584039965E+03  0.86189805197E+02 0.  0.
         23    2    4    4    0    0 -0.62099026098E+03  0.79181648067E+02 -0.68322183424E+03  0.93125586530E+03  0.92448765576E+02 0.  0.
          2    1    3    3  502    0  0.23980953589E+03  0.20983139545E+03 -0.17114749152E+02  0.31910929579E+03  0.00000000000E+00 0. -1.
         -1    1    3    3    0  502  0.25537584831E+03  0.13689328726E+03 -0.55512762002E+02  0.29502247837E+03  0.00000000000E+00 0.  1.
         13    1    5    5    0    0  0.89338213430E+02 -0.32950157849E+03 -0.52951825831E+03  0.63003348522E+03  0.00000000000E+00 0.  1.
        -13    1    5    5    0    0  0.36466663342E+02 -0.96404752298E+02 -0.88429769918E+02  0.13580691444E+03  0.00000000000E+00 0. -1.
          2    1    6    6  503    0 -0.36624228729E+03  0.62880804788E+01 -0.42821812268E+03  0.56351017165E+03  0.00000000000E+00 0. -1.
         -2    1    6    6    0  503 -0.25474797369E+03  0.72893567588E+02 -0.25500371156E+03  0.36774569365E+03  0.00000000000E+00 0.  1.
<mgrwt>
<rscale>  0 0.18586166E+04</rscale>
<asrwt>0</asrwt>
<pdfrwt beam="1">  1        2 0.72110052E-01 0.18586166E+04</pdfrwt>
<pdfrwt beam="2">  1       -1 0.28346349E+00 0.18586166E+04</pdfrwt>
<totfact> 0.30142218E+00</totfact>
</mgrwt>
</event>
<event>
12    7  0.1741211E-007  0.1685249E+04  0.7818608E-02  0.8769822E-01
          2   -1    0    0  501    0  0.00000000000E+00  0.00000000000E+00  0.12364153915E+04  0.12364153915E+04  0.00000000000E+00 0. -1.
         -1   -1    0    0    0  501 -0.00000000000E+00 -0.00000000000E+00 -0.57425364568E+03  0.57425364568E+03  0.00000000000E+00 0.  1.
         24    2    1    2    0    0 -0.36527755959E+03  0.38605396903E+03  0.42466242775E+03  0.68500748691E+03  0.80197986418E+02 0.  0.
        254    2    1    2    0    0  0.36527755959E+03 -0.38605396903E+03  0.23749931804E+03  0.11256615502E+04  0.96345349503E+03 0.  0.
         23    2    4    4    0    0  0.53932054151E+03  0.11222215835E+03  0.62221802358E+02  0.56190120254E+03  0.91656693221E+02 0.  0.
         23    2    4    4    0    0 -0.17404298192E+03 -0.49827612738E+03  0.17527751568E+03  0.56376034770E+03  0.92376747443E+02 0.  0.
          4    1    3    3  502    0 -0.29453214814E+03  0.28380724215E+03  0.28794693293E+03  0.50020912944E+03  0.00000000000E+00 0. -1.
         -3    1    3    3    0  502 -0.70745411447E+02  0.10224672688E+03  0.13671549482E+03  0.18479835747E+03  0.00000000000E+00 0.  1.
         13    1    5    5    0    0  0.17603611719E+03  0.13396026895E+02  0.56518879515E+02  0.18537138893E+03  0.00000000000E+00 0. -1.
        -13    1    5    5    0    0  0.36328442432E+03  0.98826131451E+02  0.57029228424E+01  0.37652981361E+03  0.00000000000E+00 0.  1.
          1    1    6    6  503    0 -0.53825005250E+02 -0.12335763371E+03  0.46852687579E+01  0.13467066766E+03  0.00000000000E+00 0. -1.
         -1    1    6    6    0  503 -0.12021797667E+03 -0.37491849367E+03  0.17059224692E+03  0.42908968004E+03  0.00000000000E+00 0.  1.
<mgrwt>
<rscale>  0 0.16852490E+04</rscale>
<asrwt>0</asrwt>
<pdfrwt beam="1">  1        2 0.19021775E+00 0.16852490E+04</pdfrwt>
<pdfrwt beam="2">  1       -1 0.88346715E-01 0.16852490E+04</pdfrwt>
<totfact> 0.24629100E+01</totfact>
</mgrwt>
</event>
<event>
12    7  0.1741211E-007  0.1627426E+04  0.7818608E-02  0.8803874E-01
         -1   -1    0    0    0  501 -0.00000000000E+00  0.00000000000E+00  0.82662678308E+03  0.82662678308E+03  0.00000000000E+00 0.  1.
          2   -1    0    0  501    0  0.00000000000E+00 -0.00000000000E+00 -0.80100121324E+03  0.80100121324E+03  0.00000000000E+00 0. -1.
         24    2    1    2    0    0 -0.23517882303E+03 -0.43623979729E+02 -0.49682488171E+03  0.55723654389E+03  0.80408160974E+02 0.  0.
        254    2    1    2    0    0  0.23517882303E+03  0.43623979729E+02  0.52245045155E+03  0.10703914524E+04  0.90308983867E+03 0.  0.
         23    2    4    4    0    0 -0.20939385639E+03  0.10566411769E+03 -0.12223415639E+03  0.28007747306E+03  0.92149384496E+02 0.  0.
         23    2    4    4    0    0  0.44457267942E+03 -0.62040137965E+02  0.64468460793E+03  0.79031397937E+03  0.86510671452E+02 0.  0.
          4    1    3    3  502    0 -0.23848678128E+03 -0.47499106150E+02 -0.46245333428E+03  0.52248942221E+03  0.00000000000E+00 0. -1.
         -3    1    3    3    0  502  0.33079582514E+01  0.38751264211E+01 -0.34371547428E+02  0.34747121682E+02  0.00000000000E+00 0.  1.
         13    1    5    5    0    0 -0.16292687231E+03  0.35911418648E+02 -0.67499053970E+02  0.17997477044E+03  0.00000000000E+00 0. -1.
        -13    1    5    5    0    0 -0.46466984088E+02  0.69752699045E+02 -0.54735102417E+02  0.10010270262E+03  0.00000000000E+00 0.  1.
          4    1    6    6  503    0  0.22498900667E+03 -0.29972040970E+02  0.25111216132E+03  0.33849031585E+03  0.00000000000E+00 0. -1.
         -4    1    6    6    0  503  0.21958367276E+03 -0.32068096995E+02  0.39357244661E+03  0.45182366352E+03  0.00000000000E+00 0.  1.
<mgrwt>
<rscale>  0 0.16274263E+04</rscale>
<asrwt>0</asrwt>
<pdfrwt beam="1">  1        2 0.12323096E+00 0.16274263E+04</pdfrwt>
<pdfrwt beam="2">  1       -1 0.12717335E+00 0.16274263E+04</pdfrwt>
<totfact> 0.20141631E+01</totfact>
</mgrwt>
</event>
<event>
12    7  0.1741211E-007  0.1179358E+04  0.7818608E-02  0.9131119E-01
         -3   -1    0    0    0  501 -0.00000000000E+00  0.00000000000E+00  0.11094669700E+04  0.11094669700E+04  0.00000000000E+00 0.  1.
          2   -1    0    0  501    0  0.00000000000E+00 -0.00000000000E+00 -0.31341302410E+03  0.31341302410E+03  0.00000000000E+00 0. -1.
         24    2    1    2    0    0  0.63449891635E+02 -0.20349610074E+03  0.28113368608E+03  0.36208423740E+03  0.81438895854E+02 0.  0.
        254    2    1    2    0    0 -0.63449891635E+02  0.20349610074E+03  0.51492025977E+03  0.10607957567E+04  0.90261188318E+03 0.  0.
         23    2    4    4    0    0 -0.94959325013E+02  0.32499382514E+03  0.72221459178E+03  0.80219038682E+03  0.85306742583E+02 0.  0.
         23    2    4    4    0    0  0.31509433378E+02 -0.12149772441E+03 -0.20729433201E+03  0.25860536984E+03  0.90284305383E+02 0.  0.
          4    1    3    3  502    0 -0.77718386836E+01 -0.29139946041E+02  0.96470722112E+01  0.31663921646E+02  0.00000000000E+00 0. -1.
         -3    1    3    3    0  502  0.71221730319E+02 -0.17435615470E+03  0.27148661387E+03  0.33042031575E+03  0.00000000000E+00 0.  1.
         13    1    5    5    0    0 -0.56835482882E+02  0.23760231106E+03  0.42686205609E+03  0.49182958965E+03  0.00000000000E+00 0.  1.
        -13    1    5    5    0    0 -0.38123842132E+02  0.87391514088E+02  0.29535253570E+03  0.31036079716E+03  0.00000000000E+00 0. -1.
          2    1    6    6  503    0 -0.70408501699E+01  0.12487399232E+02 -0.28260280486E+02  0.31688360069E+02  0.00000000000E+00 0. -1.
         -2    1    6    6    0  503  0.38550283548E+02 -0.13398512364E+03 -0.17903405153E+03  0.22691700977E+03  0.00000000000E+00 0.  1.
<mgrwt>
<rscale>  0 0.11793581E+04</rscale>
<asrwt>0</asrwt>
<pdfrwt beam="1">  1        2 0.48217389E-01 0.11793581E+04</pdfrwt>
<pdfrwt beam="2">  1       -3 0.17068722E+00 0.11793581E+04</pdfrwt>
<totfact> 0.14750845E+01</totfact>
</mgrwt>
</event>
<event>
12    7  0.1741211E-007  0.1933114E+04  0.7818608E-02  0.8638547E-01
         -1   -1    0    0    0  501 -0.00000000000E+00  0.00000000000E+00  0.68024651003E+03  0.68024651003E+03  0.00000000000E+00 0.  1.
          2   -1    0    0  501    0  0.00000000000E+00 -0.00000000000E+00 -0.13733731682E+04  0.13733731682E+04  0.00000000000E+00 0. -1.
         24    2    1    2    0    0 -0.32413763704E+03  0.36711492580E+03 -0.88721974745E+03  0.10166763303E+04  0.81445096688E+02 0.  0.
        254    2    1    2    0    0  0.32413763704E+03 -0.36711492580E+03  0.19409308924E+03  0.10369433480E+04  0.89316336871E+03 0.  0.
         23    2    4    4    0    0  0.62135060121E+03 -0.30912372465E+03  0.10323129697E+03  0.70752782416E+03  0.91131084269E+02 0.  0.
         23    2    4    4    0    0 -0.29721296417E+03 -0.57991201154E+02  0.90861792272E+02  0.32941552385E+03  0.92521330380E+02 0.  0.
          2    1    3    3  502    0 -0.25180128343E+03  0.32401827401E+03 -0.70040883299E+03  0.81176613724E+03  0.00000000000E+00 0. -1.
         -1    1    3    3    0  502 -0.72336353606E+02  0.43096651795E+02 -0.18681091445E+03  0.20491019303E+03  0.00000000000E+00 0.  1.
         13    1    5    5    0    0  0.46212852651E+03 -0.25836316833E+03  0.48444667116E+02  0.53165890149E+03  0.00000000000E+00 0. -1.
        -13    1    5    5    0    0  0.15922207470E+03 -0.50760556320E+02  0.54786629850E+02  0.17586892267E+03  0.00000000000E+00 0.  1.
          3    1    6    6  503    0 -0.16599969314E+03 -0.40604329723E+02  0.97752614599E+02  0.19687606095E+03  0.00000000000E+00 0. -1.
         -3    1    6    6    0  503 -0.13121327103E+03 -0.17386871430E+02 -0.68908223271E+01  0.13253946290E+03  0.00000000000E+00 0.  1.
<mgrwt>
<rscale>  0 0.19331139E+04</rscale>
<asrwt>0</asrwt>
<pdfrwt beam="1">  1        2 0.21128818E+00 0.19331139E+04</pdfrwt>
<pdfrwt beam="2">  1       -1 0.10465331E+00 0.19331139E+04</pdfrwt>
<totfact> 0.13691455E+01</totfact>
</mgrwt>
</event>
<event>
12    7  0.1741211E-007  0.2081856E+04  0.7818608E-02  0.8569278E-01
          2   -1    0    0  501    0  0.00000000000E+00  0.00000000000E+00  0.26703553916E+04  0.26703553916E+04  0.00000000000E+00 0. -1.
         -1   -1    0    0    0  501 -0.00000000000E+00 -0.00000000000E+00 -0.40576289636E+03  0.40576289636E+03  0.00000000000E+00 0.  1.
         24    2    1    2    0    0 -0.32992410801E+03  0.55893782661E+03  0.12557338478E+03  0.66626021669E+03  0.82901087565E+02 0.  0.
        254    2    1    2    0    0  0.32992410801E+03 -0.55893782661E+03  0.21390191104E+04  0.24098580712E+04  0.90041754631E+03 0.  0.
         23    2    4    4    0    0 -0.19873570269E+03 -0.50660483702E+03  0.12990412709E+04  0.14118917726E+04  0.98923270553E+02 0.  0.
         23    2    4    4    0    0  0.52865981070E+03 -0.52332989585E+02  0.83997783952E+03  0.99796629870E+03  0.90299641144E+02 0.  0.
          2    1    3    3  502    0 -0.57796459401E+02  0.14738839099E+03  0.56351134338E+02  0.16804528812E+03  0.00000000000E+00 0. -1.
         -1    1    3    3    0  502 -0.27212764861E+03  0.41154943562E+03  0.69222250443E+02  0.49821492857E+03  0.00000000000E+00 0.  1.
         13    1    5    5    0    0 -0.44137290717E+02 -0.16850591535E+03  0.52618738737E+03  0.55427025048E+03  0.00000000000E+00 0. -1.
        -13    1    5    5    0    0 -0.15459841198E+03 -0.33809892167E+03  0.77285388354E+03  0.85762152207E+03  0.00000000000E+00 0.  1.
          2    1    6    6  503    0  0.14831801145E+03  0.23506648535E+02  0.20968880519E+03  0.25791508306E+03  0.00000000000E+00 0. -1.
         -2    1    6    6    0  503  0.38034179926E+03 -0.75839638119E+02  0.63028903433E+03  0.74005121564E+03  0.00000000000E+00 0.  1.
<mgrwt>
<rscale>  0 0.20818560E+04</rscale>
<asrwt>0</asrwt>
<pdfrwt beam="1">  1        2 0.41082390E+00 0.20818560E+04</pdfrwt>
<pdfrwt beam="2">  1       -1 0.62425063E-01 0.20818560E+04</pdfrwt>
<totfact> 0.75666845E+00</totfact>
</mgrwt>
</event>
<event>
12    7  0.1741211E-007  0.1501585E+04  0.7818608E-02  0.8883399E-01
         -1   -1    0    0    0  501 -0.00000000000E+00  0.00000000000E+00  0.39607788904E+03  0.39607788904E+03  0.00000000000E+00 0.  1.
          2   -1    0    0  501    0  0.00000000000E+00 -0.00000000000E+00 -0.14231786532E+04  0.14231786532E+04  0.00000000000E+00 0. -1.
         24    2    1    2    0    0 -0.95801135735E+02 -0.10920264970E+03 -0.87979137620E+03  0.89487369784E+03  0.75252861314E+02 0.  0.
        254    2    1    2    0    0  0.95801135735E+02  0.10920264970E+03 -0.14730938796E+03  0.92438284440E+03  0.90093313344E+03 0.  0.
         23    2    4    4    0    0 -0.15487781725E+03  0.23911519566E+03 -0.42354806743E+03  0.51884084611E+03  0.92949680455E+02 0.  0.
         23    2    4    4    0    0  0.25067895299E+03 -0.12991254596E+03  0.27623867947E+03  0.40554199829E+03  0.91865647957E+02 0.  0.
          4    1    3    3  502    0 -0.41229252359E+02 -0.95425060996E+02 -0.65182889689E+03  0.66006568183E+03  0.00000000000E+00 0. -1.
         -3    1    3    3    0  502 -0.54571883376E+02 -0.13777588705E+02 -0.22796247931E+03  0.23480801600E+03  0.00000000000E+00 0.  1.
         13    1    5    5    0    0 -0.27593410548E+02  0.44115840332E+02 -0.26135376386E+02  0.58229387535E+02  0.00000000000E+00 0. -1.
        -13    1    5    5    0    0 -0.12728440670E+03  0.19499935533E+03 -0.39741269104E+03  0.46061145857E+03  0.00000000000E+00 0.  1.
          3    1    6    6  503    0  0.18332141817E+03 -0.13203530431E+03  0.18435292419E+03  0.29159229174E+03  0.00000000000E+00 0. -1.
         -3    1    6    6    0  503  0.67357534820E+02  0.21227583560E+01  0.91885755276E+02  0.11394970655E+03  0.00000000000E+00 0.  1.
<mgrwt>
<rscale>  0 0.15015853E+04</rscale>
<asrwt>0</asrwt>
<pdfrwt beam="1">  1        2 0.21895056E+00 0.15015853E+04</pdfrwt>
<pdfrwt beam="2">  1       -1 0.60935060E-01 0.15015853E+04</pdfrwt>
<totfact> 0.42205861E+01</totfact>
</mgrwt>
</event>
<event>
12    7  0.1741211E-007  0.1750118E+04  0.7818608E-02  0.8733286E-01
         -1   -1    0    0    0  501 -0.00000000000E+00  0.00000000000E+00  0.29260271333E+03  0.29260271333E+03  0.00000000000E+00 0.  1.
          2   -1    0    0  501    0  0.00000000000E+00 -0.00000000000E+00 -0.26169539932E+04  0.26169539932E+04  0.00000000000E+00 0. -1.
         24    2    1    2    0    0 -0.28593346568E+03  0.40240172104E+03 -0.17633223934E+03  0.53040158679E+03  0.80917814786E+02 0.  0.
        254    2    1    2    0    0  0.28593346568E+03 -0.40240172104E+03 -0.21480190406E+04  0.23791551198E+04  0.89593983808E+03 0.  0.
         23    2    4    4    0    0  0.21972107276E+03 -0.66820002670E+03 -0.12703310572E+04  0.14549719436E+04  0.91835376106E+02 0.  0.
         23    2    4    4    0    0  0.66212392914E+02  0.26579830566E+03 -0.87768798333E+03  0.92418317614E+03  0.93517520875E+02 0.  0.
          4    1    3    3  502    0 -0.68924832607E+01  0.47261564289E+02 -0.81393466288E+01  0.48450085119E+02  0.00000000000E+00 0. -1.
         -3    1    3    3    0  502 -0.27904098241E+03  0.35514015675E+03 -0.16819289271E+03  0.48195150167E+03  0.00000000000E+00 0.  1.
         13    1    5    5    0    0  0.15285626445E+03 -0.34945583110E+03 -0.74278065999E+03  0.83498953546E+03  0.00000000000E+00 0. -1.
        -13    1    5    5    0    0  0.66864808310E+02 -0.31874419560E+03 -0.52755039725E+03  0.61998240818E+03  0.00000000000E+00 0.  1.
          3    1    6    6  503    0 -0.11083869007E+02  0.14758632658E+03 -0.46637823619E+03  0.48929871769E+03  0.00000000000E+00 0. -1.
         -3    1    6    6    0  503  0.77296261921E+02  0.11821197908E+03 -0.41130974714E+03  0.43488445845E+03  0.00000000000E+00 0.  1.
<mgrwt>
<rscale>  0 0.17501175E+04</rscale>
<asrwt>0</asrwt>
<pdfrwt beam="1">  1        2 0.40260831E+00 0.17501175E+04</pdfrwt>
<pdfrwt beam="2">  1       -1 0.45015802E-01 0.17501175E+04</pdfrwt>
<totfact> 0.15739352E+01</totfact>
</mgrwt>
</event>
<event>
12    7  0.1741211E-007  0.1842631E+04  0.7818608E-02  0.8683951E-01
          2   -1    0    0  501    0  0.00000000000E+00  0.00000000000E+00  0.29379688879E+04  0.29379688879E+04  0.00000000000E+00 0. -1.
         -1   -1    0    0    0  501 -0.00000000000E+00 -0.00000000000E+00 -0.28891479188E+03  0.28891479188E+03  0.00000000000E+00 0.  1.
         24    2    1    2    0    0  0.51233999509E+03 -0.17568812953E+02  0.17907226088E+04  0.18643676429E+04  0.79864337217E+02 0.  0.
        254    2    1    2    0    0 -0.51233999509E+03  0.17568812953E+02  0.85833148723E+03  0.13625160369E+04  0.92569761540E+03 0.  0.
         23    2    4    4    0    0 -0.73778190840E+03  0.10043390242E+03  0.80146695374E+03  0.10973242728E+04  0.85803080443E+02 0.  0.
         23    2    4    4    0    0  0.22544191331E+03 -0.82865089466E+02  0.56864533487E+02  0.26519176413E+03  0.96966062427E+02 0.  0.
          4    1    3    3  502    0  0.37160003413E+03 -0.30412726012E+02  0.11797859639E+04  0.12372980400E+04  0.00000000000E+00 0. -1.
         -3    1    3    3    0  502  0.14073996097E+03  0.12843913060E+02  0.61093664493E+03  0.62706960286E+03  0.00000000000E+00 0.  1.
         13    1    5    5    0    0 -0.30054674442E+03  0.45556385031E+02  0.26674005774E+03  0.40441808590E+03  0.00000000000E+00 0.  1.
        -13    1    5    5    0    0 -0.43723516398E+03  0.54877517388E+02  0.53472689600E+03  0.69290618690E+03  0.00000000000E+00 0. -1.
          2    1    6    6  503    0  0.21891509426E+03 -0.50935583217E+02  0.39308411989E+02  0.22817406379E+03  0.00000000000E+00 0. -1.
         -2    1    6    6    0  503  0.65268190496E+01 -0.31929506249E+02  0.17556121498E+02  0.37017700338E+02  0.00000000000E+00 0.  1.
<mgrwt>
<rscale>  0 0.18426315E+04</rscale>
<asrwt>0</asrwt>
<pdfrwt beam="1">  1        2 0.45199519E+00 0.18426315E+04</pdfrwt>
<pdfrwt beam="2">  1       -1 0.44448431E-01 0.18426315E+04</pdfrwt>
<totfact> 0.10248905E+01</totfact>
</mgrwt>
</event>
<event>
12    7  0.1741211E-007  0.1682752E+04  0.7818608E-02  0.8771263E-01
         -1   -1    0    0    0  501 -0.00000000000E+00  0.00000000000E+00  0.32449565742E+03  0.32449565742E+03  0.00000000000E+00 0.  1.
          2   -1    0    0  501    0  0.00000000000E+00 -0.00000000000E+00 -0.21815814998E+04  0.21815814998E+04  0.00000000000E+00 0. -1.
         24    2    1    2    0    0 -0.39768495485E+03  0.14734732253E+03 -0.37253287422E+02  0.43342057708E+03  0.81246738044E+02 0.  0.
        254    2    1    2    0    0  0.39768495485E+03 -0.14734732253E+03 -0.18198325549E+04  0.20726565801E+04  0.89679998567E+03 0.  0.
         23    2    4    4    0    0 -0.13648054526E+03  0.24152305041E+03 -0.33176105916E+03  0.44196010213E+03  0.91120844965E+02 0.  0.
         23    2    4    4    0    0  0.53416550011E+03 -0.38887037294E+03 -0.14880714958E+04  0.16306964780E+04  0.90891574356E+02 0.  0.
          2    1    3    3  502    0 -0.33575236260E+02  0.89613675242E+01 -0.26585207818E+02  0.43753581254E+02  0.00000000000E+00 0. -1.
         -1    1    3    3    0  502 -0.36410971859E+03  0.13838595500E+03 -0.10668079605E+02  0.38966699583E+03  0.00000000000E+00 0.  1.
         13    1    5    5    0    0 -0.99937671817E+02  0.23393983410E+03 -0.28254322417E+03  0.38019213268E+03  0.00000000000E+00 0.  1.
        -13    1    5    5    0    0 -0.36542873444E+02  0.75832163094E+01 -0.49217834988E+02  0.61767969450E+02  0.00000000000E+00 0. -1.
          1    1    6    6  503    0  0.12754278572E+03 -0.70256747232E+02 -0.41385088097E+03  0.43872055388E+03  0.00000000000E+00 0. -1.
         -1    1    6    6    0  503  0.40662271439E+03 -0.31861362570E+03 -0.10742206148E+04  0.11919759241E+04  0.00000000000E+00 0.  1.
<mgrwt>
<rscale>  0 0.16827522E+04</rscale>
<asrwt>0</asrwt>
<pdfrwt beam="1">  1        2 0.33562792E+00 0.16827522E+04</pdfrwt>
<pdfrwt beam="2">  1       -1 0.49922410E-01 0.16827522E+04</pdfrwt>
<totfact> 0.23114795E+01</totfact>
</mgrwt>
</event>
<event>
12    7  0.1741211E-007  0.1826796E+04  0.7818608E-02  0.8692178E-01
         -1   -1    0    0    0  501 -0.00000000000E+00  0.00000000000E+00  0.19029433544E+04  0.19029433544E+04  0.00000000000E+00 0.  1.
          2   -1    0    0  501    0  0.00000000000E+00 -0.00000000000E+00 -0.43842379855E+03  0.43842379855E+03  0.00000000000E+00 0. -1.
         24    2    1    2    0    0 -0.39228295306E+02 -0.30183642176E+03  0.13533189820E+04  0.13895440740E+04  0.81953534507E+02 0.  0.
        254    2    1    2    0    0  0.39228295306E+02  0.30183642176E+03  0.11120057385E+03  0.95182307896E+03  0.89496230165E+03 0.  0.
         23    2    4    4    0    0  0.20011965345E+03 -0.10441108875E+03  0.36546511622E+03  0.43804072515E+03  0.85821760446E+02 0.  0.
         23    2    4    4    0    0 -0.16089135814E+03  0.40624751051E+03 -0.25426454237E+03  0.51378235382E+03  0.91644861623E+02 0.  0.
          2    1    3    3  502    0 -0.11911332191E+02 -0.14128746161E+03  0.45493996984E+03  0.47652324476E+03  0.00000000000E+00 0. -1.
         -3    1    3    3    0  502 -0.27316963115E+02 -0.16054896015E+03  0.89837901217E+03  0.91302082922E+03  0.00000000000E+00 0.  1.
         13    1    5    5    0    0  0.47361454598E+01  0.35998329620E+00 -0.46229077986E+01  0.66281172518E+01  0.00000000000E+00 0. -1.
        -13    1    5    5    0    0  0.19538350799E+03 -0.10477107205E+03  0.37008802402E+03  0.43141260790E+03  0.00000000000E+00 0.  1.
          4    1    6    6  503    0 -0.61475361839E+02  0.66892948960E+02 -0.72211240488E+02  0.11605322049E+03  0.00000000000E+00 0. -1.
         -4    1    6    6    0  503 -0.99415996306E+02  0.33935456155E+03 -0.18205330188E+03  0.39772913332E+03  0.00000000000E+00 0.  1.
<mgrwt>
<rscale>  0 0.18267957E+04</rscale>
<asrwt>0</asrwt>
<pdfrwt beam="1">  1        2 0.67449816E-01 0.18267957E+04</pdfrwt>
<pdfrwt beam="2">  1       -1 0.29276051E+00 0.18267957E+04</pdfrwt>
<totfact> 0.28414129E+00</totfact>
</mgrwt>
</event>
<event>
12    7  0.1741211E-007  0.1876624E+04  0.7818608E-02  0.8666580E-01
         -1   -1    0    0    0  501 -0.00000000000E+00  0.00000000000E+00  0.62497277416E+03  0.62497277416E+03  0.00000000000E+00 0.  1.
          2   -1    0    0  501    0  0.00000000000E+00 -0.00000000000E+00 -0.14087489515E+04  0.14087489515E+04  0.00000000000E+00 0. -1.
         24    2    1    2    0    0  0.35759129441E+03  0.78764207345E+02 -0.99036911888E+03  0.10586922569E+04  0.76960827982E+02 0.  0.
        254    2    1    2    0    0 -0.35759129441E+03 -0.78764207345E+02  0.20659294155E+03  0.97502946872E+03  0.87973091749E+03 0.  0.
         23    2    4    4    0    0  0.30163897834E+02  0.34512581434E+03  0.88982984039E+00  0.35812637324E+03  0.90730474243E+02 0.  0.
         23    2    4    4    0    0 -0.38775519225E+03 -0.42389002168E+03  0.20570311171E+03  0.61690309549E+03  0.90657704880E+02 0.  0.
          2    1    3    3  502    0  0.35116721375E+03  0.63347160797E+02 -0.95733681173E+03  0.10216775645E+04  0.00000000000E+00 0. -1.
         -1    1    3    3    0  502  0.64240806655E+01  0.15417046548E+02 -0.33032307141E+02  0.37014692376E+02  0.00000000000E+00 0.  1.
         13    1    5    5    0    0  0.35217755060E+02  0.27593002836E+03  0.35792549120E+02  0.28046172180E+03  0.00000000000E+00 0. -1.
        -13    1    5    5    0    0 -0.50538572262E+01  0.69195785982E+02 -0.34902719279E+02  0.77664651442E+02  0.00000000000E+00 0.  1.
          2    1    6    6  503    0 -0.18640181085E+03 -0.17063385482E+03  0.49034770648E+02  0.25742174778E+03  0.00000000000E+00 0. -1.
         -2    1    6    6    0  503 -0.20135338140E+03 -0.25325616686E+03  0.15666834107E+03  0.35948134770E+03  0.00000000000E+00 0.  1.
<mgrwt>
<rscale>  0 0.18766244E+04</rscale>
<asrwt>0</asrwt>
<pdfrwt beam="1">  1        2 0.21673061E+00 0.18766244E+04</pdfrwt>
<pdfrwt beam="2">  1       -1 0.96149657E-01 0.18766244E+04</pdfrwt>
<totfact> 0.15941650E+01</totfact>
</mgrwt>
</event>
<event>
12    7  0.1741211E-007  0.1502644E+04  0.7818608E-02  0.8882696E-01
         -1   -1    0    0    0  501 -0.00000000000E+00  0.00000000000E+00  0.15297332131E+03  0.15297332131E+03  0.00000000000E+00 0.  1.
          2   -1    0    0  501    0  0.00000000000E+00 -0.00000000000E+00 -0.36900882119E+04  0.36900882119E+04  0.00000000000E+00 0. -1.
         24    2    1    2    0    0 -0.34442072423E+02  0.53740248399E+02  0.86648293038E+02  0.13466803604E+03  0.80952347672E+02 0.  0.
        254    2    1    2    0    0  0.34442072423E+02 -0.53740248399E+02 -0.36237631836E+04  0.37083934972E+04  0.78514231079E+03 0.  0.
         23    2    4    4    0    0  0.35241370963E+03  0.14983028814E+03 -0.16014673368E+04  0.16490954161E+04  0.90407537413E+02 0.  0.
         23    2    4    4    0    0 -0.31797163721E+03 -0.20357053654E+03 -0.20222958469E+04  0.20592980811E+04  0.92093261940E+02 0.  0.
          2    1    3    3  502    0 -0.92266999203E+01 -0.11834310473E+02 -0.78339785555E+01  0.16927909374E+02  0.00000000000E+00 0. -1.
         -1    1    3    3    0  502 -0.25215372503E+02  0.65574558871E+02  0.94482271594E+02  0.11774012667E+03  0.00000000000E+00 0.  1.
         13    1    5    5    0    0 -0.13894254389E+01  0.44036428158E+01 -0.30279793622E+01  0.55218866447E+01  0.00000000000E+00 0.  1.
        -13    1    5    5    0    0  0.35380313507E+03  0.14542664533E+03 -0.15984393574E+04  0.16435735295E+04  0.00000000000E+00 0. -1.
          3    1    6    6  503    0 -0.17930919001E+03 -0.72890408475E+02 -0.86220920005E+03  0.88366820805E+03  0.00000000000E+00 0. -1.
         -3    1    6    6    0  503 -0.13866244719E+03 -0.13068012806E+03 -0.11600866468E+04  0.11756298730E+04  0.00000000000E+00 0.  1.
<mgrwt>
<rscale>  0 0.15026444E+04</rscale>
<asrwt>0</asrwt>
<pdfrwt beam="1">  1        2 0.56770590E+00 0.15026444E+04</pdfrwt>
<pdfrwt beam="2">  1       -1 0.23534356E-01 0.15026444E+04</pdfrwt>
<totfact> 0.10321484E+01</totfact>
</mgrwt>
</event>
<event>
12    7  0.1741211E-007  0.4280052E+04  0.7818608E-02  0.7950317E-01
          2   -1    0    0  501    0  0.00000000000E+00  0.00000000000E+00  0.30438796995E+04  0.30438796995E+04  0.00000000000E+00 0. -1.
         -1   -1    0    0    0  501 -0.00000000000E+00 -0.00000000000E+00 -0.15045640322E+04  0.15045640322E+04  0.00000000000E+00 0.  1.
         24    2    1    2    0    0  0.36413221658E+03  0.59838354874E+03 -0.13043443796E+04  0.14825418296E+04  0.77206691548E+02 0.  0.
        254    2    1    2    0    0 -0.36413221658E+03 -0.59838354874E+03  0.28436600469E+04  0.30659019022E+04  0.90702638816E+03 0.  0.
         23    2    4    4    0    0 -0.10711029803E+03  0.83750583379E+02  0.16919975273E+04  0.16998301314E+04  0.89889193185E+02 0.  0.
         23    2    4    4    0    0 -0.25702191856E+03 -0.68213413211E+03  0.11516625196E+04  0.13660717708E+04  0.91968924214E+02 0.  0.
          4    1    3    3  502    0  0.74209844427E+02  0.15044971152E+03 -0.37723949053E+03  0.41285814745E+03  0.00000000000E+00 0. -1.
         -3    1    3    3    0  502  0.28992237216E+03  0.44793383721E+03 -0.92710488910E+03  0.10696836821E+04  0.00000000000E+00 0.  1.
         13    1    5    5    0    0 -0.90280507733E+02  0.10282319198E+03  0.14800495187E+04  0.14863612471E+04  0.00000000000E+00 0.  1.
        -13    1    5    5    0    0 -0.16829790294E+02 -0.19072608603E+02  0.21194800859E+03  0.21346888435E+03  0.00000000000E+00 0. -1.
          3    1    6    6  503    0  0.15960533876E+01  0.12207388503E+01  0.12939512802E+02  0.13094601227E+02  0.00000000000E+00 0. -1.
         -3    1    6    6    0  503 -0.25861797194E+03 -0.68335487096E+03  0.11387230068E+04  0.13529771695E+04  0.00000000000E+00 0.  1.
<mgrwt>
<rscale>  0 0.42800523E+04</rscale>
<asrwt>0</asrwt>
<pdfrwt beam="1">  1        2 0.46828918E+00 0.42800523E+04</pdfrwt>
<pdfrwt beam="2">  1       -1 0.23147139E+00 0.42800523E+04</pdfrwt>
<totfact> 0.13200488E-01</totfact>
</mgrwt>
</event>
<event>
12    7  0.1741211E-007  0.1635349E+04  0.7818608E-02  0.8799121E-01
          2   -1    0    0  501    0  0.00000000000E+00  0.00000000000E+00  0.13021112519E+04  0.13021112519E+04  0.00000000000E+00 0. -1.
         -1   -1    0    0    0  501 -0.00000000000E+00 -0.00000000000E+00 -0.51346739084E+03  0.51346739084E+03  0.00000000000E+00 0.  1.
         24    2    1    2    0    0 -0.56799403662E+02 -0.39765198914E+03 -0.17313682448E+03  0.44410779770E+03  0.76825121296E+02 0.  0.
        254    2    1    2    0    0  0.56799403662E+02  0.39765198914E+03  0.96178068554E+03  0.13714708450E+04  0.89137922062E+03 0.  0.
         23    2    4    4    0    0 -0.15569671065E+03 -0.16393537577E+03  0.63660826069E+03  0.68252277508E+03  0.97216191001E+02 0.  0.
         23    2    4    4    0    0  0.21249611432E+03  0.56158736492E+03  0.32517242486E+03  0.68894806995E+03  0.91527974765E+02 0.  0.
          2    1    3    3  502    0  0.16661585936E+02 -0.41422824868E+02 -0.26620615078E+02  0.51981881585E+02  0.00000000000E+00 0. -1.
         -1    1    3    3    0  502 -0.73460989598E+02 -0.35622916428E+03 -0.14651620941E+03  0.39212591612E+03  0.00000000000E+00 0.  1.
         13    1    5    5    0    0 -0.56744250713E+02 -0.16804884065E+02  0.25434371469E+03  0.26113796989E+03  0.00000000000E+00 0. -1.
        -13    1    5    5    0    0 -0.98952459941E+02 -0.14713049171E+03  0.38226454600E+03  0.42138480519E+03  0.00000000000E+00 0.  1.
          3    1    6    6  503    0  0.15337683378E+02  0.12255498756E+02  0.27473838507E+02  0.33767641070E+02  0.00000000000E+00 0. -1.
         -3    1    6    6    0  503  0.19715843094E+03  0.54933186616E+03  0.29769858635E+03  0.65518042888E+03  0.00000000000E+00 0.  1.
<mgrwt>
<rscale>  0 0.16353491E+04</rscale>
<asrwt>0</asrwt>
<pdfrwt beam="1">  1        2 0.20032481E+00 0.16353491E+04</pdfrwt>
<pdfrwt beam="2">  1       -1 0.78994984E-01 0.16353491E+04</pdfrwt>
<totfact> 0.28800596E+01</totfact>
</mgrwt>
</event>
<event>
12    7  0.1741211E-007  0.1288388E+04  0.7818608E-02  0.9038825E-01
          2   -1    0    0  501    0  0.00000000000E+00  0.00000000000E+00  0.10606533810E+04  0.10606533810E+04  0.00000000000E+00 0. -1.
         -1   -1    0    0    0  501 -0.00000000000E+00 -0.00000000000E+00 -0.39125489146E+03  0.39125489146E+03  0.00000000000E+00 0.  1.
         24    2    1    2    0    0 -0.19763123390E+03 -0.77984459230E+02  0.45376802021E+03  0.50736170412E+03  0.79817304834E+02 0.  0.
        254    2    1    2    0    0  0.19763123390E+03  0.77984459230E+02  0.21563046933E+03  0.94454656834E+03  0.89472456095E+03 0.  0.
         23    2    4    4    0    0 -0.29940269633E+03  0.11771371614E+03 -0.97825449373E+02  0.34862835829E+03  0.92051182088E+02 0.  0.
         23    2    4    4    0    0  0.49703393023E+03 -0.39729256907E+02  0.31345591870E+03  0.59591821005E+03  0.90789638441E+02 0.  0.
          2    1    3    3  502    0 -0.20535979323E+03 -0.74711984642E+02  0.43867464124E+03  0.49009179364E+03  0.00000000000E+00 0. -1.
         -1    1    3    3    0  502  0.77285593354E+01 -0.32724745880E+01  0.15093378963E+02  0.17269910476E+02  0.00000000000E+00 0.  1.
         13    1    5    5    0    0 -0.21917102225E+03  0.12464341383E+03 -0.57689302383E+02  0.25865029134E+03  0.00000000000E+00 0. -1.
        -13    1    5    5    0    0 -0.80231674084E+02 -0.69296976907E+01 -0.40136146991E+02  0.89978066947E+02  0.00000000000E+00 0.  1.
          4    1    6    6  503    0  0.17835260221E+03  0.28725472599E+02  0.10348748730E+03  0.20819333207E+03  0.00000000000E+00 0.  1.
         -4    1    6    6    0  503  0.31868132802E+03 -0.68454729506E+02  0.20996843140E+03  0.38772487798E+03  0.00000000000E+00 0. -1.
<mgrwt>
<rscale>  0 0.12883879E+04</rscale>
<asrwt>0</asrwt>
<pdfrwt beam="1">  1        2 0.16317744E+00 0.12883879E+04</pdfrwt>
<pdfrwt beam="2">  1       -1 0.60193061E-01 0.12883879E+04</pdfrwt>
<totfact> 0.72175833E+01</totfact>
</mgrwt>
</event>
<event>
12    7  0.1741211E-007  0.2339055E+04  0.7818608E-02  0.8462680E-01
         -1   -1    0    0    0  501 -0.00000000000E+00  0.00000000000E+00  0.77157848893E+03  0.77157848893E+03  0.00000000000E+00 0.  1.
          2   -1    0    0  501    0  0.00000000000E+00 -0.00000000000E+00 -0.17727226168E+04  0.17727226168E+04  0.00000000000E+00 0. -1.
         24    2    1    2    0    0 -0.40045480064E+03  0.34379695995E+03  0.49080969093E+03  0.72519971406E+03  0.80374595092E+02 0.  0.
        254    2    1    2    0    0  0.40045480064E+03 -0.34379695995E+03 -0.14919538188E+04  0.18191013917E+04  0.89701910720E+03 0.  0.
         23    2    4    4    0    0  0.65207118703E+03 -0.38942394757E+03 -0.10540115694E+04  0.13024483321E+04  0.92646778148E+02 0.  0.
         23    2    4    4    0    0 -0.25161638639E+03  0.45626987621E+02 -0.43794224942E+03  0.51665305956E+03  0.98713434888E+02 0.  0.
          2    1    3    3  502    0 -0.40621806952E+02  0.42614249269E+02  0.92765343091E+02  0.10987044334E+03  0.00000000000E+00 0. -1.
         -3    1    3    3    0  502 -0.35983299369E+03  0.30118271068E+03  0.39804434784E+03  0.61532927072E+03  0.00000000000E+00 0.  1.
         13    1    5    5    0    0  0.61371988419E+03 -0.35145459459E+03 -0.10089963467E+04  0.12321712770E+04  0.00000000000E+00 0.  1.
        -13    1    5    5    0    0  0.38351302840E+02 -0.37969352975E+02 -0.45015222697E+02  0.70277055070E+02  0.00000000000E+00 0. -1.
          3    1    6    6  503    0 -0.14441462731E+03 -0.10733220415E+02 -0.29975477664E+03  0.33290195662E+03  0.00000000000E+00 0. -1.
         -3    1    6    6    0  503 -0.10720175908E+03  0.56360208036E+02 -0.13818747278E+03  0.18375110294E+03  0.00000000000E+00 0.  1.
<mgrwt>
<rscale>  0 0.23390551E+04</rscale>
<asrwt>0</asrwt>
<pdfrwt beam="1">  1        2 0.27272655E+00 0.23390551E+04</pdfrwt>
<pdfrwt beam="2">  1       -1 0.11870439E+00 0.23390551E+04</pdfrwt>
<totfact> 0.58445585E+00</totfact>
</mgrwt>
</event>
<event>
12    7  0.1741211E-007  0.1099036E+04  0.7818608E-02  0.9206132E-01
         -1   -1    0    0    0  501 -0.00000000000E+00  0.00000000000E+00  0.55783251752E+03  0.55783251752E+03  0.00000000000E+00 0.  1.
          2   -1    0    0  501    0  0.00000000000E+00 -0.00000000000E+00 -0.54132718502E+03  0.54132718502E+03  0.00000000000E+00 0. -1.
         24    2    1    2    0    0  0.22046629154E+02 -0.79852770528E+02 -0.14141873192E+03  0.18156409711E+03  0.78126466737E+02 0.  0.
        254    2    1    2    0    0 -0.22046629154E+02  0.79852770528E+02  0.15792406442E+03  0.91759560543E+03  0.90009953125E+03 0.  0.
         23    2    4    4    0    0 -0.39611504999E+03  0.25692439351E+03  0.78809280317E+02  0.48714707034E+03  0.90465953109E+02 0.  0.
         23    2    4    4    0    0  0.37406842083E+03 -0.17707162298E+03  0.79114784108E+02  0.43044853509E+03  0.88007097256E+02 0.  0.
          4    1    3    3  502    0  0.16761946294E+02 -0.61353600935E+02 -0.14811464908E+03  0.16119297895E+03  0.00000000000E+00 0. -1.
         -3    1    3    3    0  502  0.52846828600E+01 -0.18499169593E+02  0.66959171597E+01  0.20371118162E+02  0.00000000000E+00 0.  1.
         13    1    5    5    0    0 -0.10678462109E+03  0.11997587836E+03  0.27844009808E+02  0.16301059957E+03  0.00000000000E+00 0. -1.
        -13    1    5    5    0    0 -0.28933042889E+03  0.13694851515E+03  0.50965270509E+02  0.32413647077E+03  0.00000000000E+00 0.  1.
          3    1    6    6  503    0  0.36442789678E+02 -0.30301873182E+02 -0.16331293929E+02  0.50129747648E+02  0.00000000000E+00 0. -1.
         -3    1    6    6    0  503  0.33762563115E+03 -0.14676974980E+03  0.95446078038E+02  0.38031878744E+03  0.00000000000E+00 0.  1.
<mgrwt>
<rscale>  0 0.10990358E+04</rscale>
<asrwt>0</asrwt>
<pdfrwt beam="1">  1        2 0.83281105E-01 0.10990358E+04</pdfrwt>
<pdfrwt beam="2">  1       -1 0.85820388E-01 0.10990358E+04</pdfrwt>
<totfact> 0.85433343E+01</totfact>
</mgrwt>
</event>
<event>
12    7  0.1741211E-007  0.1303178E+04  0.7818608E-02  0.9027048E-01
          2   -1    0    0  501    0  0.00000000000E+00  0.00000000000E+00  0.68830762349E+03  0.68830762349E+03  0.00000000000E+00 0. -1.
         -1   -1    0    0    0  501 -0.00000000000E+00 -0.00000000000E+00 -0.61682962877E+03  0.61682962877E+03  0.00000000000E+00 0.  1.
         24    2    1    2    0    0 -0.11480659132E+03  0.28052210970E+03 -0.14032208733E+03  0.34350219715E+03  0.80188925721E+02 0.  0.
        254    2    1    2    0    0  0.11480659132E+03 -0.28052210970E+03  0.21180008205E+03  0.96163505512E+03  0.88769899011E+03 0.  0.
         23    2    4    4    0    0 -0.33095981332E+03 -0.46945705984E+02  0.28075366014E+03  0.44541578387E+03  0.88511612230E+02 0.  0.
         23    2    4    4    0    0  0.44576640464E+03 -0.23357640372E+03 -0.68953578092E+02  0.51621927125E+03  0.91989761378E+02 0.  0.
          4    1    3    3  502    0 -0.14340288652E+02  0.10642776938E+03 -0.19994143283E+02  0.10923497489E+03  0.00000000000E+00 0. -1.
         -3    1    3    3    0  502 -0.10046630267E+03  0.17409434032E+03 -0.12032794404E+03  0.23426722225E+03  0.00000000000E+00 0.  1.
         13    1    5    5    0    0 -0.18589586634E+03  0.95249943234E+01  0.18618717229E+03  0.26327487872E+03  0.00000000000E+00 0.  1.
        -13    1    5    5    0    0 -0.14506394698E+03 -0.56470700307E+02  0.94566487849E+02  0.18214090516E+03  0.00000000000E+00 0. -1.
          3    1    6    6  503    0  0.41883252649E+03 -0.19038316182E+03 -0.54402221602E+02  0.46327749272E+03  0.00000000000E+00 0. -1.
         -3    1    6    6    0  503  0.26933878153E+02 -0.43193241896E+02 -0.14551356490E+02  0.52941778527E+02  0.00000000000E+00 0.  1.
<mgrwt>
<rscale>  0 0.13031785E+04</rscale>
<asrwt>0</asrwt>
<pdfrwt beam="1">  1        2 0.10589348E+00 0.13031785E+04</pdfrwt>
<pdfrwt beam="2">  1       -1 0.94896866E-01 0.13031785E+04</pdfrwt>
<totfact> 0.50316419E+01</totfact>
</mgrwt>
</event>
<event>
12    7  0.1741211E-007  0.1637335E+04  0.7818608E-02  0.8797934E-01
         -1   -1    0    0    0  501 -0.00000000000E+00  0.00000000000E+00  0.72061548243E+03  0.72061548243E+03  0.00000000000E+00 0.  1.
          2   -1    0    0  501    0  0.00000000000E+00 -0.00000000000E+00 -0.93006092812E+03  0.93006092812E+03  0.00000000000E+00 0. -1.
         24    2    1    2    0    0  0.12458851969E+03 -0.30457914479E+03 -0.57335814843E+03  0.66578718093E+03  0.79007906136E+02 0.  0.
        254    2    1    2    0    0 -0.12458851969E+03  0.30457914479E+03  0.36391270274E+03  0.98488922962E+03  0.85398102129E+03 0.  0.
         23    2    4    4    0    0  0.77257606952E+02  0.28330302564E+03 -0.20800147871E+03  0.37121212595E+03  0.91128947843E+02 0.  0.
         23    2    4    4    0    0 -0.20184612664E+03  0.21276119151E+02  0.57191418145E+03  0.61367710367E+03  0.91209783156E+02 0.  0.
          4    1    3    3  502    0  0.74027757757E+02 -0.25873247765E+03 -0.43509667680E+03  0.51159722641E+03  0.00000000000E+00 0. -1.
         -3    1    3    3    0  502  0.50560761935E+02 -0.45846667140E+02 -0.13826147163E+03  0.15418995452E+03  0.00000000000E+00 0.  1.
         13    1    5    5    0    0  0.79050605579E+02  0.26130902170E+03 -0.15531856375E+03  0.31409434778E+03  0.00000000000E+00 0. -1.
        -13    1    5    5    0    0 -0.17929986271E+01  0.21994003943E+02 -0.52682914965E+02  0.57117778167E+02  0.00000000000E+00 0.  1.
          3    1    6    6  503    0 -0.48781305955E+02  0.63654209499E+01  0.27429993539E+03  0.27867649515E+03  0.00000000000E+00 0. -1.
         -3    1    6    6    0  503 -0.15306482069E+03  0.14910698201E+02  0.29761424606E+03  0.33500060852E+03  0.00000000000E+00 0.  1.
<mgrwt>
<rscale>  0 0.16373348E+04</rscale>
<asrwt>0</asrwt>
<pdfrwt beam="1">  1        2 0.14308630E+00 0.16373348E+04</pdfrwt>
<pdfrwt beam="2">  1       -1 0.11086392E+00 0.16373348E+04</pdfrwt>
<totfact> 0.22884918E+01</totfact>
</mgrwt>
</event>
<event>
12    7  0.1741211E-007  0.1947088E+04  0.7818608E-02  0.8631766E-01
         -1   -1    0    0    0  501 -0.00000000000E+00  0.00000000000E+00  0.10787684449E+04  0.10787684449E+04  0.00000000000E+00 0.  1.
          2   -1    0    0  501    0  0.00000000000E+00 -0.00000000000E+00 -0.87858285422E+03  0.87858285422E+03  0.00000000000E+00 0. -1.
         24    2    1    2    0    0  0.49668574893E+03 -0.55432857075E+03 -0.92592851445E+02  0.75421689471E+03  0.79327111330E+02 0.  0.
        254    2    1    2    0    0 -0.49668574893E+03  0.55432857075E+03  0.29277844214E+03  0.12031344044E+04  0.89879713028E+03 0.  0.
         23    2    4    4    0    0 -0.49748836642E+03  0.30640588608E+03 -0.21577303483E+03  0.62868985088E+03  0.85520081238E+02 0.  0.
         23    2    4    4    0    0  0.80261749101E+00  0.24792268467E+03  0.50855147697E+03  0.57444455354E+03  0.99476824428E+02 0.  0.
          4    1    3    3  502    0  0.19546789012E+03 -0.24486916642E+03 -0.74131724586E+02  0.32196912480E+03  0.00000000000E+00 0. -1.
         -3    1    3    3    0  502  0.30121785881E+03 -0.30945940433E+03 -0.18461126858E+02  0.43224776992E+03  0.00000000000E+00 0.  1.
         13    1    5    5    0    0 -0.36826116164E+03  0.25387426624E+03 -0.19381506040E+03  0.48747584953E+03  0.00000000000E+00 0.  1.
        -13    1    5    5    0    0 -0.12922720478E+03  0.52531619836E+02 -0.21957974430E+02  0.14121400136E+03  0.00000000000E+00 0. -1.
          4    1    6    6  503    0  0.27450279893E+02  0.48240087292E+02  0.18642579855E+03  0.19451273031E+03  0.00000000000E+00 0. -1.
         -4    1    6    6    0  503 -0.26647662402E+02  0.19968259738E+03  0.32212567843E+03  0.37993182324E+03  0.00000000000E+00 0.  1.
<mgrwt>
<rscale>  0 0.19470875E+04</rscale>
<asrwt>0</asrwt>
<pdfrwt beam="1">  1        2 0.13516659E+00 0.19470875E+04</pdfrwt>
<pdfrwt beam="2">  1       -1 0.16596438E+00 0.19470875E+04</pdfrwt>
<totfact> 0.85100888E+00</totfact>
</mgrwt>
</event>
<event>
12    7  0.1741211E-007  0.2238998E+04  0.7818608E-02  0.8502369E-01
         -1   -1    0    0    0  501 -0.00000000000E+00  0.00000000000E+00  0.16679562669E+04  0.16679562669E+04  0.00000000000E+00 0.  1.
          2   -1    0    0  501    0  0.00000000000E+00 -0.00000000000E+00 -0.75138558852E+03  0.75138558852E+03  0.00000000000E+00 0. -1.
         24    2    1    2    0    0  0.90100647506E+03 -0.49240000410E+02  0.65620665647E+03  0.11185013616E+04  0.78745629621E+02 0.  0.
        254    2    1    2    0    0 -0.90100647506E+03  0.49240000410E+02  0.26036402196E+03  0.13008404938E+04  0.90008850719E+03 0.  0.
         23    2    4    4    0    0 -0.43907468564E+02  0.27574473969E+03  0.28488139822E+03  0.40919612470E+03  0.91219680765E+02 0.  0.
         23    2    4    4    0    0 -0.85709900649E+03 -0.22650473928E+03 -0.24517376260E+02  0.89164436915E+03  0.92225134551E+02 0.  0.
          4    1    3    3  502    0  0.16254907825E+02  0.29054728710E+00  0.27648973952E+02  0.32074479056E+02  0.00000000000E+00 0. -1.
         -3    1    3    3    0  502  0.88475156723E+03 -0.49530547697E+02  0.62855768251E+03  0.10864268825E+04  0.00000000000E+00 0.  1.
         13    1    5    5    0    0 -0.65976320318E+02  0.20000332741E+03  0.23636962937E+03  0.31658301835E+03  0.00000000000E+00 0.  1.
        -13    1    5    5    0    0  0.22068851754E+02  0.75741412279E+02  0.48511768844E+02  0.92613106352E+02  0.00000000000E+00 0. -1.
          3    1    6    6  503    0 -0.24837368589E+03 -0.92909179076E+02  0.25625838269E+02  0.26641750503E+03  0.00000000000E+00 0. -1.
         -3    1    6    6    0  503 -0.60872532060E+03 -0.13359556020E+03 -0.50143214529E+02  0.62522686412E+03  0.00000000000E+00 0.  1.
<mgrwt>
<rscale>  0 0.22389983E+04</rscale>
<asrwt>0</asrwt>
<pdfrwt beam="1">  1        2 0.11559778E+00 0.22389983E+04</pdfrwt>
<pdfrwt beam="2">  1       -1 0.25660866E+00 0.22389983E+04</pdfrwt>
<totfact> 0.24552402E+00</totfact>
</mgrwt>
</event>
<event>
12    7  0.1741211E-007  0.2211185E+04  0.7818608E-02  0.8513787E-01
          2   -1    0    0  501    0  0.00000000000E+00  0.00000000000E+00  0.74260568854E+03  0.74260568854E+03  0.00000000000E+00 0. -1.
         -1   -1    0    0    0  501 -0.00000000000E+00 -0.00000000000E+00 -0.16460078238E+04  0.16460078238E+04  0.00000000000E+00 0.  1.
         24    2    1    2    0    0 -0.13789233545E+03 -0.90446924338E+03 -0.30863175198E+03  0.96853468813E+03  0.75676782239E+02 0.  0.
        254    2    1    2    0    0  0.13789233545E+03  0.90446924338E+03 -0.59477038330E+03  0.14200788242E+04  0.90873161594E+03 0.  0.
         23    2    4    4    0    0 -0.30030681024E+02 -0.14987239778E+03  0.28313703293E+02  0.18057603078E+03  0.91882858451E+02 0.  0.
         23    2    4    4    0    0  0.16792301648E+03  0.10543416412E+04 -0.62308408659E+03  0.12395027935E+04  0.91098629436E+02 0.  0.
          4    1    3    3  502    0 -0.28440922945E+02 -0.38221446789E+03 -0.10493911514E+03  0.39737765847E+03  0.00000000000E+00 0. -1.
         -3    1    3    3    0  502 -0.10945141251E+03 -0.52225477549E+03 -0.20369263684E+03  0.57115702966E+03  0.00000000000E+00 0.  1.
         13    1    5    5    0    0 -0.32889887350E+00 -0.48955294589E+02 -0.32787491346E+02  0.58921546412E+02  0.00000000000E+00 0.  1.
        -13    1    5    5    0    0 -0.29701782150E+02 -0.10091710319E+03  0.61101194639E+02  0.12165448437E+03  0.00000000000E+00 0. -1.
          1    1    6    6  503    0  0.34975025462E+02  0.20434878798E+03 -0.16404698108E+03  0.26437301594E+03  0.00000000000E+00 0. -1.
         -1    1    6    6    0  503  0.13294799102E+03  0.84999285318E+03 -0.45903710551E+03  0.97512977752E+03  0.00000000000E+00 0.  1.
<mgrwt>
<rscale>  0 0.22111850E+04</rscale>
<asrwt>0</asrwt>
<pdfrwt beam="1">  1        2 0.11424703E+00 0.22111850E+04</pdfrwt>
<pdfrwt beam="2">  1       -1 0.25323197E+00 0.22111850E+04</pdfrwt>
<totfact> 0.26286781E+00</totfact>
</mgrwt>
</event>
<event>
12    7  0.1741211E-007  0.2392480E+04  0.7818608E-02  0.8442324E-01
          2   -1    0    0  501    0  0.00000000000E+00  0.00000000000E+00  0.23815187593E+04  0.23815187593E+04  0.00000000000E+00 0. -1.
         -1   -1    0    0    0  501 -0.00000000000E+00 -0.00000000000E+00 -0.60087314325E+03  0.60087314325E+03  0.00000000000E+00 0.  1.
         24    2    1    2    0    0 -0.65320184859E+02 -0.30477709899E+03  0.19776499887E+04  0.20036611910E+04  0.80018020698E+02 0.  0.
        254    2    1    2    0    0  0.65320184859E+02  0.30477709899E+03 -0.19700437269E+03  0.97873071156E+03  0.90661307970E+03 0.  0.
         23    2    4    4    0    0 -0.28532498046E+03  0.45579359125E+03 -0.21551006380E+03  0.58668458785E+03  0.92715024278E+02 0.  0.
         23    2    4    4    0    0  0.35064516532E+03 -0.15101649226E+03  0.18505691110E+02  0.39204612371E+03  0.87176198689E+02 0.  0.
          2    1    3    3  502    0 -0.35685921491E+02 -0.23564300291E+03  0.12827816175E+04  0.13047336081E+04  0.00000000000E+00 0. -1.
         -1    1    3    3    0  502 -0.29634263368E+02 -0.69134096084E+02  0.69486837121E+03  0.69892758288E+03  0.00000000000E+00 0.  1.
         13    1    5    5    0    0 -0.22562189106E+03  0.37490480616E+03 -0.13508321050E+03  0.45793703188E+03  0.00000000000E+00 0.  1.
        -13    1    5    5    0    0 -0.59703089400E+02  0.80888785092E+02 -0.80426853306E+02  0.12874755598E+03  0.00000000000E+00 0. -1.
          2    1    6    6  503    0  0.29977970488E+03 -0.14545061797E+03 -0.10232164128E+02  0.33335934202E+03  0.00000000000E+00 0.  1.
         -2    1    6    6    0  503  0.50865460434E+02 -0.55658742908E+01  0.28737855238E+02  0.58686781693E+02  0.00000000000E+00 0. -1.
<mgrwt>
<rscale>  0 0.23924804E+04</rscale>
<asrwt>0</asrwt>
<pdfrwt beam="1">  1        2 0.36638750E+00 0.23924804E+04</pdfrwt>
<pdfrwt beam="2">  1       -1 0.92442023E-01 0.23924804E+04</pdfrwt>
<totfact> 0.47456853E+00</totfact>
</mgrwt>
</event>
<event>
12    7  0.1741211E-007  0.1548565E+04  0.7818608E-02  0.8852785E-01
          2   -1    0    0  501    0  0.00000000000E+00  0.00000000000E+00  0.18170281084E+04  0.18170281084E+04  0.00000000000E+00 0. -1.
         -1   -1    0    0    0  501 -0.00000000000E+00 -0.00000000000E+00 -0.32994155773E+03  0.32994155773E+03  0.00000000000E+00 0.  1.
         24    2    1    2    0    0 -0.32576897068E+03 -0.14865561626E+03  0.95748372122E+03  0.10253763450E+04  0.79985361433E+02 0.  0.
        254    2    1    2    0    0  0.32576897068E+03  0.14865561626E+03  0.52960282942E+03  0.11215933211E+04  0.92155765225E+03 0.  0.
         23    2    4    4    0    0  0.52921379976E+03  0.38161845586E+03  0.41992166638E+03  0.78125592251E+03  0.91250856678E+02 0.  0.
         23    2    4    4    0    0 -0.20344482908E+03 -0.23296283959E+03  0.10968116304E+03  0.34033739856E+03  0.90211441734E+02 0.  0.
          4    1    3    3  502    0 -0.31843460210E+03 -0.15501761048E+03  0.94713857659E+03  0.10111886761E+04  0.00000000000E+00 0. -1.
         -3    1    3    3    0  502 -0.73343685820E+01  0.63619942103E+01  0.10345144633E+02  0.14187668952E+02  0.00000000000E+00 0.  1.
         13    1    5    5    0    0  0.36822178542E+02  0.32363397118E+02  0.62015748380E+01  0.49413781843E+02  0.00000000000E+00 0. -1.
        -13    1    5    5    0    0  0.49239162122E+03  0.34925505874E+03  0.41372009154E+03  0.73184214066E+03  0.00000000000E+00 0.  1.
          3    1    6    6  503    0 -0.10682844333E+03 -0.15342550242E+03  0.10648531823E+03  0.21515302484E+03  0.00000000000E+00 0. -1.
         -3    1    6    6    0  503 -0.96616385751E+02 -0.79537337170E+02  0.31958448093E+01  0.12518437372E+03  0.00000000000E+00 0.  1.
<mgrwt>
<rscale>  0 0.15485646E+04</rscale>
<asrwt>0</asrwt>
<pdfrwt beam="1">  1        2 0.27954278E+00 0.15485646E+04</pdfrwt>
<pdfrwt beam="2">  1       -1 0.50760241E-01 0.15485646E+04</pdfrwt>
<totfact> 0.36109143E+01</totfact>
</mgrwt>
</event>
<event>
12    7  0.1741211E-007  0.2038144E+04  0.7818608E-02  0.8588992E-01
          2   -1    0    0  501    0  0.00000000000E+00  0.00000000000E+00  0.21600585038E+04  0.21600585038E+04  0.00000000000E+00 0. -1.
         -1   -1    0    0    0  501 -0.00000000000E+00 -0.00000000000E+00 -0.48077740493E+03  0.48077740493E+03  0.00000000000E+00 0.  1.
         24    2    1    2    0    0 -0.14216907993E+03 -0.80342607786E+03  0.76543073336E+03  0.11215877683E+04  0.79808549618E+02 0.  0.
        254    2    1    2    0    0  0.14216907993E+03  0.80342607786E+03  0.91385036555E+03  0.15192481404E+04  0.89849146449E+03 0.  0.
         23    2    4    4    0    0  0.14918671750E+02 -0.18227978095E+03  0.23499427235E+03  0.31204099570E+03  0.93267302156E+02 0.  0.
         23    2    4    4    0    0  0.12725040818E+03  0.98570585881E+03  0.67885609320E+03  0.12072071447E+04  0.93245850151E+02 0.  0.
          4    1    3    3  502    0 -0.35103883999E+02 -0.34327546284E+03  0.28200355864E+03  0.44564148499E+03  0.00000000000E+00 0. -1.
         -3    1    3    3    0  502 -0.10706519593E+03 -0.46015061502E+03  0.48342717473E+03  0.67594628333E+03  0.00000000000E+00 0.  1.
         13    1    5    5    0    0  0.54219038667E+02 -0.92169147673E+02  0.12608047779E+03  0.16532133200E+03  0.00000000000E+00 0. -1.
        -13    1    5    5    0    0 -0.39300366917E+02 -0.90110633277E+02  0.10891379457E+03  0.14671966370E+03  0.00000000000E+00 0.  1.
          2    1    6    6  503    0  0.63194213951E+02  0.73860754889E+03  0.47385737533E+03  0.87981556710E+03  0.00000000000E+00 0. -1.
         -2    1    6    6    0  503  0.64056194233E+02  0.24709830992E+03  0.20499871787E+03  0.32739157764E+03  0.00000000000E+00 0.  1.
<mgrwt>
<rscale>  0 0.20381436E+04</rscale>
<asrwt>0</asrwt>
<pdfrwt beam="1">  1        2 0.33231669E+00 0.20381436E+04</pdfrwt>
<pdfrwt beam="2">  1       -1 0.73965756E-01 0.20381436E+04</pdfrwt>
<totfact> 0.10552864E+01</totfact>
</mgrwt>
</event>
<event>
12    7  0.1741211E-007  0.1173658E+04  0.7818608E-02  0.9136232E-01
         -1   -1    0    0    0  501 -0.00000000000E+00  0.00000000000E+00  0.54475014130E+03  0.54475014130E+03  0.00000000000E+00 0.  1.
          2   -1    0    0  501    0  0.00000000000E+00 -0.00000000000E+00 -0.63215775070E+03  0.63215775070E+03  0.00000000000E+00 0. -1.
         24    2    1    2    0    0 -0.17231092762E+03  0.93856478404E+02 -0.14048447200E+03  0.25518174573E+03  0.82956266568E+02 0.  0.
        254    2    1    2    0    0  0.17231092762E+03 -0.93856478404E+02  0.53076862606E+02  0.92172614627E+03  0.89903383755E+03 0.  0.
         23    2    4    4    0    0 -0.35826425694E+03  0.52089509502E+01  0.58190927539E+02  0.37421526706E+03  0.90942130402E+02 0.  0.
         23    2    4    4    0    0  0.53057518457E+03 -0.99065429354E+02 -0.51140649333E+01  0.54751087921E+03  0.91749787044E+02 0.  0.
          4    1    3    3  502    0 -0.23949847647E+02  0.88384089337E+01  0.99827576063E+01  0.27411094911E+02  0.00000000000E+00 0. -1.
         -3    1    3    3    0  502 -0.14836107998E+03  0.85018069470E+02 -0.15046722961E+03  0.22777065082E+03  0.00000000000E+00 0.  1.
         13    1    5    5    0    0 -0.12079997653E+03 -0.41109952726E+02  0.15562876648E+02  0.12854907885E+03  0.00000000000E+00 0. -1.
        -13    1    5    5    0    0 -0.23746428041E+03  0.46318903676E+02  0.42628050891E+02  0.24566618821E+03  0.00000000000E+00 0.  1.
          4    1    6    6  503    0  0.39619057866E+03 -0.10315685223E+03  0.23420559387E+02  0.41006930315E+03  0.00000000000E+00 0. -1.
         -4    1    6    6    0  503  0.13438460591E+03  0.40914228768E+01 -0.28534624320E+02  0.13744157606E+03  0.00000000000E+00 0.  1.
<mgrwt>
<rscale>  0 0.11736576E+04</rscale>
<asrwt>0</asrwt>
<pdfrwt beam="1">  1        2 0.97255038E-01 0.11736576E+04</pdfrwt>
<pdfrwt beam="2">  1       -1 0.83807715E-01 0.11736576E+04</pdfrwt>
<totfact> 0.74228233E+01</totfact>
</mgrwt>
</event>
<event>
12    7  0.1741211E-007  0.1746709E+04  0.7818608E-02  0.8735164E-01
         -1   -1    0    0    0  501 -0.00000000000E+00  0.00000000000E+00  0.59376836030E+03  0.59376836030E+03  0.00000000000E+00 0.  1.
          2   -1    0    0  501    0  0.00000000000E+00 -0.00000000000E+00 -0.12845892159E+04  0.12845892159E+04  0.00000000000E+00 0. -1.
         24    2    1    2    0    0  0.79420801206E+02 -0.51137526978E+03 -0.66681974651E+03  0.84794128424E+03  0.80892008128E+02 0.  0.
        254    2    1    2    0    0 -0.79420801206E+02  0.51137526978E+03 -0.24001109127E+02  0.10304162920E+04  0.89071283328E+03 0.  0.
         23    2    4    4    0    0 -0.20192239888E+03  0.13537964322E+02  0.33232191012E+03  0.39922640874E+03  0.89375286531E+02 0.  0.
         23    2    4    4    0    0  0.12250159767E+03  0.49783730546E+03 -0.35632301924E+03  0.63118988326E+03  0.92660404429E+02 0.  0.
          4    1    3    3  502    0  0.62510288316E+02 -0.33448198491E+03 -0.37584483004E+03  0.50699612488E+03  0.00000000000E+00 0. -1.
         -3    1    3    3    0  502  0.16910512890E+02 -0.17689328487E+03 -0.29097491646E+03  0.34094515936E+03  0.00000000000E+00 0.  1.
         13    1    5    5    0    0 -0.15617975792E+03  0.47860000626E+02  0.25953372523E+03  0.30666015550E+03  0.00000000000E+00 0.  1.
        -13    1    5    5    0    0 -0.45742640959E+02 -0.34322036304E+02  0.72788184891E+02  0.92566253233E+02  0.00000000000E+00 0. -1.
          3    1    6    6  503    0  0.12350099685E+03  0.33715092307E+03 -0.22566799426E+03  0.42408641193E+03  0.00000000000E+00 0. -1.
         -3    1    6    6    0  503 -0.99939917637E+00  0.16068638239E+03 -0.13065502499E+03  0.20710347133E+03  0.00000000000E+00 0.  1.
<mgrwt>
<rscale>  0 0.17467094E+04</rscale>
<asrwt>0</asrwt>
<pdfrwt beam="1">  1        2 0.19762911E+00 0.17467094E+04</pdfrwt>
<pdfrwt beam="2">  1       -1 0.91348978E-01 0.17467094E+04</pdfrwt>
<totfact> 0.21322744E+01</totfact>
</mgrwt>
</event>
<event>
12    7  0.1741211E-007  0.1774262E+04  0.7818608E-02  0.8720108E-01
          2   -1    0    0  501    0  0.00000000000E+00  0.00000000000E+00  0.30847332514E+04  0.30847332514E+04  0.00000000000E+00 0. -1.
         -1   -1    0    0    0  501 -0.00000000000E+00 -0.00000000000E+00 -0.25512776975E+03  0.25512776975E+03  0.00000000000E+00 0.  1.
         24    2    1    2    0    0  0.45553283285E+03  0.23543727731E+03  0.18256174782E+04  0.18979601236E+04  0.80203372388E+02 0.  0.
        254    2    1    2    0    0 -0.45553283285E+03 -0.23543727731E+03  0.10039880035E+04  0.14419008975E+04  0.89896908389E+03 0.  0.
         23    2    4    4    0    0 -0.22754247005E+03  0.32085050814E+03  0.55283989837E+03  0.68477741820E+03  0.92560979849E+02 0.  0.
         23    2    4    4    0    0 -0.22799036280E+03 -0.55628778545E+03  0.45114810511E+03  0.75712347932E+03  0.90915589594E+02 0.  0.
          4    1    3    3  502    0  0.35945975383E+03  0.18652579845E+03  0.13089663781E+04  0.13701810709E+04  0.00000000000E+00 0. -1.
         -3    1    3    3    0  502  0.96073079023E+02  0.48911478851E+02  0.51665110008E+03  0.52777905272E+03  0.00000000000E+00 0.  1.
         13    1    5    5    0    0 -0.23609743716E+03  0.30715407737E+03  0.53698157013E+03  0.66214411856E+03  0.00000000000E+00 0.  1.
        -13    1    5    5    0    0  0.85549671075E+01  0.13696430767E+02  0.15858328235E+02  0.22633299635E+02  0.00000000000E+00 0. -1.
          1    1    6    6  503    0 -0.53681592803E+02 -0.11306759210E+03  0.51309498773E+02  0.13527253399E+03  0.00000000000E+00 0. -1.
         -1    1    6    6    0  503 -0.17430877000E+03 -0.44322019335E+03  0.39983860633E+03  0.62185094533E+03  0.00000000000E+00 0.  1.
<mgrwt>
<rscale>  0 0.17742617E+04</rscale>
<asrwt>0</asrwt>
<pdfrwt beam="1">  1        2 0.47457432E+00 0.17742617E+04</pdfrwt>
<pdfrwt beam="2">  1       -1 0.39250428E-01 0.17742617E+04</pdfrwt>
<totfact> 0.10501599E+01</totfact>
</mgrwt>
</event>
<event>
12    7  0.1741211E-007  0.1505182E+04  0.7818608E-02  0.8881014E-01
          2   -1    0    0  501    0  0.00000000000E+00  0.00000000000E+00  0.13533111828E+04  0.13533111828E+04  0.00000000000E+00 0. -1.
         -3   -1    0    0    0  501 -0.00000000000E+00 -0.00000000000E+00 -0.41852407809E+03  0.41852407809E+03  0.00000000000E+00 0.  1.
         24    2    1    2    0    0  0.21235150231E+03  0.12743210103E+03 -0.18434358750E+03  0.31909883553E+03  0.80680900330E+02 0.  0.
        254    2    1    2    0    0 -0.21235150231E+03 -0.12743210103E+03  0.11191306922E+04  0.14527364253E+04  0.89255672894E+03 0.  0.
         23    2    4    4    0    0  0.30538508641E+03 -0.15148800665E+03  0.68556665407E+03  0.77102332404E+03  0.90921185036E+02 0.  0.
         23    2    4    4    0    0 -0.51773658872E+03  0.24055905619E+02  0.43356403813E+03  0.68171310129E+03  0.90139422111E+02 0.  0.
          2    1    3    3  502    0  0.13722243807E+03  0.52318383728E+02 -0.68918669346E+02  0.16222513298E+03  0.00000000000E+00 0. -1.
         -1    1    3    3    0  502  0.75129064237E+02  0.75113717307E+02 -0.11542491816E+03  0.15687370255E+03  0.00000000000E+00 0.  1.
         13    1    5    5    0    0  0.33395951112E+02  0.84219934187E+00  0.12733894964E+03  0.13164804194E+03  0.00000000000E+00 0. -1.
        -13    1    5    5    0    0  0.27198913530E+03 -0.15233020600E+03  0.55822770443E+03  0.63937528211E+03  0.00000000000E+00 0.  1.
          4    1    6    6  503    0 -0.98836942210E+02 -0.13725299148E+01  0.40852390615E+02  0.10695579836E+03  0.00000000000E+00 0. -1.
         -4    1    6    6    0  503 -0.41889964651E+03  0.25428435534E+02  0.39271164751E+03  0.57475730293E+03  0.00000000000E+00 0.  1.
<mgrwt>
<rscale>  0 0.15051821E+04</rscale>
<asrwt>0</asrwt>
<pdfrwt beam="1">  1        2 0.20820172E+00 0.15051821E+04</pdfrwt>
<pdfrwt beam="2">  1       -3 0.64388320E-01 0.15051821E+04</pdfrwt>
<totfact> 0.22170795E+01</totfact>
</mgrwt>
</event>
<event>
12    7  0.1741211E-007  0.2588957E+04  0.7818608E-02  0.8371962E-01
         -1   -1    0    0    0  501 -0.00000000000E+00  0.00000000000E+00  0.10961723568E+04  0.10961723568E+04  0.00000000000E+00 0.  1.
          2   -1    0    0  501    0  0.00000000000E+00 -0.00000000000E+00 -0.15286599192E+04  0.15286599192E+04  0.00000000000E+00 0. -1.
         24    2    1    2    0    0 -0.48657090116E+03 -0.60227933972E+03  0.65414689181E+03  0.10167771561E+04  0.80224585681E+02 0.  0.
        254    2    1    2    0    0  0.48657090116E+03  0.60227933972E+03 -0.10866344542E+04  0.16080551200E+04  0.89753840416E+03 0.  0.
         23    2    4    4    0    0  0.63016231943E+02  0.44222578903E+03 -0.10487169769E+04  0.11441474822E+04  0.98648210658E+02 0.  0.
         23    2    4    4    0    0  0.42355466922E+03  0.16005355068E+03 -0.37917477248E+02  0.46390763772E+03  0.93578118949E+02 0.  0.
          2    1    3    3  502    0 -0.16777990304E+03 -0.26306087084E+03  0.28654558700E+03  0.42362659390E+03  0.00000000000E+00 0. -1.
         -1    1    3    3    0  502 -0.31879099812E+03 -0.33921846888E+03  0.36760130480E+03  0.59315056217E+03  0.00000000000E+00 0.  1.
         13    1    5    5    0    0 -0.21216535299E+02  0.81464332817E+02 -0.24760185572E+03  0.26152104666E+03  0.00000000000E+00 0. -1.
        -13    1    5    5    0    0  0.84232767242E+02  0.36076145622E+03 -0.80111512121E+03  0.88262643559E+03  0.00000000000E+00 0.  1.
          3    1    6    6  503    0  0.30842562762E+03  0.14230097560E+03 -0.61131258035E+02  0.34512746361E+03  0.00000000000E+00 0. -1.
         -3    1    6    6    0  503  0.11512904160E+03  0.17752575080E+02  0.23213780787E+02  0.11878017410E+03  0.00000000000E+00 0.  1.
<mgrwt>
<rscale>  0 0.25889571E+04</rscale>
<asrwt>0</asrwt>
<pdfrwt beam="1">  1        2 0.23517845E+00 0.25889571E+04</pdfrwt>
<pdfrwt beam="2">  1       -1 0.16864190E+00 0.25889571E+04</pdfrwt>
<totfact> 0.31052078E+00</totfact>
</mgrwt>
</event>
<event>
12    7  0.1741211E-007  0.1563127E+04  0.7818608E-02  0.8843526E-01
         -1   -1    0    0    0  501 -0.00000000000E+00  0.00000000000E+00  0.46265710358E+03  0.46265710358E+03  0.00000000000E+00 0.  1.
          2   -1    0    0  501    0  0.00000000000E+00 -0.00000000000E+00 -0.13202900992E+04  0.13202900992E+04  0.00000000000E+00 0. -1.
         24    2    1    2    0    0 -0.49056445297E+03  0.46252311788E+02 -0.85027199611E+02  0.50631215551E+03  0.79558879313E+02 0.  0.
        254    2    1    2    0    0  0.49056445297E+03 -0.46252311788E+02 -0.77260579604E+03  0.12766350473E+04  0.88886701428E+03 0.  0.
         23    2    4    4    0    0 -0.20081249437E+03 -0.17402852755E+03 -0.35767670761E+03  0.45512336802E+03  0.92698795319E+02 0.  0.
         23    2    4    4    0    0  0.69137694734E+03  0.12777621577E+03 -0.41492908843E+03  0.82151167929E+03  0.91577541754E+02 0.  0.
          4    1    3    3  502    0 -0.40193619807E+03  0.26227566300E+02 -0.97965590280E+02  0.41453329110E+03  0.00000000000E+00 0. -1.
         -3    1    3    3    0  502 -0.88628254898E+02  0.20024745488E+02  0.12938390669E+02  0.91778864403E+02  0.00000000000E+00 0.  1.
         13    1    5    5    0    0 -0.11467875056E+03 -0.55860309062E+02 -0.21986051200E+03  0.25418543368E+03  0.00000000000E+00 0. -1.
        -13    1    5    5    0    0 -0.86133743807E+02 -0.11816821849E+03 -0.13781619561E+03  0.20093793434E+03  0.00000000000E+00 0.  1.
          3    1    6    6  503    0  0.35499107084E+03  0.33913658439E+02 -0.17074829405E+03  0.39537801725E+03  0.00000000000E+00 0. -1.
         -3    1    6    6    0  503  0.33638587650E+03  0.93862557328E+02 -0.24418079438E+03  0.42613366204E+03  0.00000000000E+00 0.  1.
<mgrwt>
<rscale>  0 0.15631271E+04</rscale>
<asrwt>0</asrwt>
<pdfrwt beam="1">  1        2 0.20312155E+00 0.15631271E+04</pdfrwt>
<pdfrwt beam="2">  1       -1 0.71178017E-01 0.15631271E+04</pdfrwt>
<totfact> 0.35154965E+01</totfact>
</mgrwt>
</event>
<event>
12    7  0.1741211E-007  0.1729789E+04  0.7818608E-02  0.8744555E-01
         -1   -1    0    0    0  501 -0.00000000000E+00  0.00000000000E+00  0.31298062757E+03  0.31298062757E+03  0.00000000000E+00 0.  1.
          2   -1    0    0  501    0  0.00000000000E+00 -0.00000000000E+00 -0.23900587595E+04  0.23900587595E+04  0.00000000000E+00 0. -1.
         24    2    1    2    0    0 -0.30941196072E+03 -0.44229198288E+03 -0.12823899280E+04  0.13936215905E+04  0.79367817678E+02 0.  0.
        254    2    1    2    0    0  0.30941196072E+03  0.44229198288E+03 -0.79468820399E+03  0.13094177966E+04  0.88976832100E+03 0.  0.
         23    2    4    4    0    0  0.55146526456E+03  0.37246893351E+02 -0.43626052935E+03  0.71005723649E+03  0.91415319000E+02 0.  0.
         23    2    4    4    0    0 -0.24205330384E+03  0.40504508953E+03 -0.35842767464E+03  0.59936056015E+03  0.90063070493E+02 0.  0.
          4    1    3    3  502    0 -0.24623785770E+03 -0.29853822680E+03 -0.95860143251E+03  0.10337673151E+04  0.00000000000E+00 0. -1.
         -3    1    3    3    0  502 -0.63174103018E+02 -0.14375375609E+03 -0.32378849546E+03  0.35985427533E+03  0.00000000000E+00 0.  1.
         13    1    5    5    0    0  0.37340418403E+03 -0.77761195204E+01 -0.32661104435E+03  0.49615111305E+03  0.00000000000E+00 0. -1.
        -13    1    5    5    0    0  0.17806108053E+03  0.45023012871E+02 -0.10964948500E+03  0.21390612344E+03  0.00000000000E+00 0.  1.
          4    1    6    6  503    0 -0.24484540390E+03  0.38047149879E+03 -0.35343721038E+03  0.57413038143E+03  0.00000000000E+00 0. -1.
         -4    1    6    6    0  503  0.27921000608E+01  0.24573590743E+02 -0.49904642571E+01  0.25230178720E+02  0.00000000000E+00 0.  1.
<mgrwt>
<rscale>  0 0.17297885E+04</rscale>
<asrwt>0</asrwt>
<pdfrwt beam="1">  1        2 0.36770137E+00 0.17297885E+04</pdfrwt>
<pdfrwt beam="2">  1       -1 0.48150863E-01 0.17297885E+04</pdfrwt>
<totfact> 0.18794757E+01</totfact>
</mgrwt>
</event>
<event>
12    7  0.1741211E-007  0.1538297E+04  0.7818608E-02  0.8859377E-01
          2   -1    0    0  501    0  0.00000000000E+00  0.00000000000E+00  0.41471857793E+03  0.41471857793E+03  0.00000000000E+00 0. -1.
         -1   -1    0    0    0  501 -0.00000000000E+00 -0.00000000000E+00 -0.14264849181E+04  0.14264849181E+04  0.00000000000E+00 0.  1.
         24    2    1    2    0    0 -0.23011111138E+03 -0.22358469031E+03 -0.78533852206E+03  0.85230215216E+03  0.81982479961E+02 0.  0.
        254    2    1    2    0    0  0.23011111138E+03  0.22358469031E+03 -0.22642781807E+03  0.98890134383E+03  0.90758750196E+03 0.  0.
         23    2    4    4    0    0 -0.34095341389E+03  0.13420991576E+03 -0.97766282894E+02  0.38980124653E+03  0.90140078753E+02 0.  0.
         23    2    4    4    0    0  0.57106452527E+03  0.89374774544E+02 -0.12866153517E+03  0.59910009729E+03  0.90909810237E+02 0.  0.
          4    1    3    3  502    0 -0.14726245909E+03 -0.94411142421E+02 -0.36306184512E+03  0.40300570598E+03  0.00000000000E+00 0. -1.
         -3    1    3    3    0  502 -0.82848652291E+02 -0.12917354789E+03 -0.42227667695E+03  0.44929644618E+03  0.00000000000E+00 0.  1.
         13    1    5    5    0    0 -0.16035564592E+03  0.11019456639E+03 -0.39632430832E+02  0.19856360496E+03  0.00000000000E+00 0. -1.
        -13    1    5    5    0    0 -0.18059776797E+03  0.24015349376E+02 -0.58133852063E+02  0.19123764158E+03  0.00000000000E+00 0.  1.
          3    1    6    6  503    0  0.16281936160E+03 -0.74778120971E+01 -0.61369106829E+02  0.17416150395E+03  0.00000000000E+00 0. -1.
         -3    1    6    6    0  503  0.40824516367E+03  0.96852586641E+02 -0.67292428344E+02  0.42493859335E+03  0.00000000000E+00 0.  1.
<mgrwt>
<rscale>  0 0.15382975E+04</rscale>
<asrwt>0</asrwt>
<pdfrwt beam="1">  1        2 0.63802857E-01 0.15382975E+04</pdfrwt>
<pdfrwt beam="2">  1       -1 0.21945922E+00 0.15382975E+04</pdfrwt>
<totfact> 0.93344336E+00</totfact>
</mgrwt>
</event>
<event>
12    7  0.1741211E-007  0.1112866E+04  0.7818608E-02  0.9192741E-01
          2   -1    0    0  501    0  0.00000000000E+00  0.00000000000E+00  0.10507594009E+04  0.10507594009E+04  0.00000000000E+00 0. -1.
         -1   -1    0    0    0  501 -0.00000000000E+00 -0.00000000000E+00 -0.29466107973E+03  0.29466107973E+03  0.00000000000E+00 0.  1.
         24    2    1    2    0    0 -0.50955328155E+02  0.11822881104E+03  0.27930529814E+03  0.31780231188E+03  0.80077229209E+02 0.  0.
        254    2    1    2    0    0  0.50955328155E+02 -0.11822881104E+03  0.47679302300E+03  0.10276181687E+04  0.90116203686E+03 0.  0.
         23    2    4    4    0    0 -0.38068991316E+03  0.83764538815E+02  0.98139399157E+02  0.41209224497E+03  0.90815024937E+02 0.  0.
         23    2    4    4    0    0  0.43164524132E+03 -0.20199334986E+03  0.37865362384E+03  0.61552592375E+03  0.91513213375E+02 0.  0.
          2    1    3    3  502    0 -0.16826150932E+02  0.77945875586E+02  0.23728273566E+03  0.25032334194E+03  0.00000000000E+00 0. -1.
         -1    1    3    3    0  502 -0.34129177223E+02  0.40282935458E+02  0.42022562482E+02  0.67478969943E+02  0.00000000000E+00 0.  1.
         13    1    5    5    0    0 -0.23404001073E+03  0.11249376596E+02  0.35853382222E+02  0.23703742345E+03  0.00000000000E+00 0. -1.
        -13    1    5    5    0    0 -0.14664990243E+03  0.72515162219E+02  0.62286016935E+02  0.17505482153E+03  0.00000000000E+00 0.  1.
          1    1    6    6  503    0  0.40178065946E+03 -0.20978685109E+03  0.34325787013E+03  0.56856326527E+03  0.00000000000E+00 0. -1.
         -1    1    6    6    0  503  0.29864581853E+02  0.77935012304E+01  0.35395753714E+02  0.46962658482E+02  0.00000000000E+00 0.  1.
<mgrwt>
<rscale>  0 0.11128664E+04</rscale>
<asrwt>0</asrwt>
<pdfrwt beam="1">  1        2 0.16165529E+00 0.11128664E+04</pdfrwt>
<pdfrwt beam="2">  1       -1 0.45332474E-01 0.11128664E+04</pdfrwt>
<totfact> 0.12771085E+02</totfact>
</mgrwt>
</event>
<event>
12    7  0.1741211E-007  0.1063595E+04  0.7818608E-02  0.9241420E-01
          2   -1    0    0  501    0  0.00000000000E+00  0.00000000000E+00  0.88429424431E+03  0.88429424431E+03  0.00000000000E+00 0. -1.
         -1   -1    0    0    0  501 -0.00000000000E+00 -0.00000000000E+00 -0.31981252473E+03  0.31981252473E+03  0.00000000000E+00 0.  1.
         24    2    1    2    0    0  0.79108890816E+02  0.69846121289E+02  0.21658946275E+03  0.25300494909E+03  0.77225718670E+02 0.  0.
        254    2    1    2    0    0 -0.79108890816E+02 -0.69846121289E+02  0.34789225683E+03  0.95110181995E+03  0.87887937300E+03 0.  0.
         23    2    4    4    0    0  0.11383888140E+02 -0.28209415511E+03  0.55429780677E+03  0.62793182249E+03  0.85706533235E+02 0.  0.
         23    2    4    4    0    0 -0.90492778956E+02  0.21224803382E+03 -0.20640554994E+03  0.32316999746E+03  0.92722302116E+02 0.  0.
          4    1    3    3  502    0  0.53623055065E+01  0.58898812854E+01  0.10268862671E+03  0.10299708286E+03  0.00000000000E+00 0. -1.
         -3    1    3    3    0  502  0.73746585310E+02  0.63956240003E+02  0.11390083604E+03  0.15000786623E+03  0.00000000000E+00 0.  1.
         13    1    5    5    0    0  0.40262414856E+02 -0.19289752339E+03  0.32312947323E+03  0.37847479844E+03  0.00000000000E+00 0.  1.
        -13    1    5    5    0    0 -0.28878526716E+02 -0.89196631726E+02  0.23116833354E+03  0.24945702405E+03  0.00000000000E+00 0. -1.
          3    1    6    6  503    0 -0.36934146427E+01  0.14717679506E+02  0.95272906095E+01  0.17917049649E+02  0.00000000000E+00 0. -1.
         -3    1    6    6    0  503 -0.86799364313E+02  0.19753035432E+03 -0.21593284055E+03  0.30525294782E+03  0.00000000000E+00 0.  1.
<mgrwt>
<rscale>  0 0.10635946E+04</rscale>
<asrwt>0</asrwt>
<pdfrwt beam="1">  1        2 0.13604527E+00 0.10635946E+04</pdfrwt>
<pdfrwt beam="2">  1       -1 0.49201927E-01 0.10635946E+04</pdfrwt>
<totfact> 0.14113946E+02</totfact>
</mgrwt>
</event>
<event>
12    7  0.1741211E-007  0.1989543E+04  0.7818608E-02  0.8611525E-01
          2   -1    0    0  501    0  0.00000000000E+00  0.00000000000E+00  0.52383129947E+03  0.52383129947E+03  0.00000000000E+00 0. -1.
         -1   -1    0    0    0  501 -0.00000000000E+00 -0.00000000000E+00 -0.18891010728E+04  0.18891010728E+04  0.00000000000E+00 0.  1.
         24    2    1    2    0    0 -0.54851177249E+03 -0.44969897390E+03 -0.95930229875E+03  0.11957489084E+04  0.80375492982E+02 0.  0.
        254    2    1    2    0    0  0.54851177249E+03  0.44969897390E+03 -0.40596747460E+03  0.12171834639E+04  0.90201533394E+03 0.  0.
         23    2    4    4    0    0  0.51444757264E+03 -0.14031879499E+03 -0.11868136031E+03  0.55398343095E+03  0.92014712193E+02 0.  0.
         23    2    4    4    0    0  0.34064199845E+02  0.59001776888E+03 -0.28728611430E+03  0.66320003295E+03  0.89552414409E+02 0.  0.
          2    1    3    3  502    0 -0.50715327682E+03 -0.41652876675E+03 -0.91840600260E+03  0.11287914977E+04  0.00000000000E+00 0. -1.
         -1    1    3    3    0  502 -0.41358495664E+02 -0.33170207146E+02 -0.40896296154E+02  0.66957410679E+02  0.00000000000E+00 0.  1.
         13    1    5    5    0    0  0.25768614416E+03 -0.87907355536E+02 -0.10420458869E+03  0.29152778316E+03  0.00000000000E+00 0.  1.
        -13    1    5    5    0    0  0.25676142848E+03 -0.52411439449E+02 -0.14476771617E+02  0.26245564779E+03  0.00000000000E+00 0. -1.
          2    1    6    6  503    0  0.55466736831E+02  0.52255618176E+03 -0.26777934554E+03  0.58978580848E+03  0.00000000000E+00 0. -1.
         -2    1    6    6    0  503 -0.21402536986E+02  0.67461587125E+02 -0.19506768760E+02  0.73414224468E+02  0.00000000000E+00 0.  1.
<mgrwt>
<rscale>  0 0.19895429E+04</rscale>
<asrwt>0</asrwt>
<pdfrwt beam="1">  1        2 0.80589432E-01 0.19895429E+04</pdfrwt>
<pdfrwt beam="2">  1       -1 0.29063093E+00 0.19895429E+04</pdfrwt>
<totfact> 0.23538049E+00</totfact>
</mgrwt>
</event>
<event>
12    7  0.1741211E-007  0.1439870E+04  0.7818608E-02  0.8925453E-01
         -1   -1    0    0    0  501 -0.00000000000E+00  0.00000000000E+00  0.61580688419E+03  0.61580688419E+03  0.00000000000E+00 0.  1.
          2   -1    0    0  501    0  0.00000000000E+00 -0.00000000000E+00 -0.84167068719E+03  0.84167068719E+03  0.00000000000E+00 0. -1.
         24    2    1    2    0    0  0.25192745844E+03 -0.12620205603E+03  0.26403203729E+03  0.39452847977E+03  0.80903654838E+02 0.  0.
        254    2    1    2    0    0 -0.25192745844E+03  0.12620205603E+03 -0.48989584030E+03  0.10629490916E+04  0.90026020336E+03 0.  0.
         23    2    4    4    0    0 -0.39011268610E+03 -0.80747130142E+02 -0.63914927298E+03  0.75852368916E+03  0.90213008922E+02 0.  0.
         23    2    4    4    0    0  0.13818522765E+03  0.20694918617E+03  0.14925343268E+03  0.30442540246E+03  0.92060391557E+02 0.  0.
          2    1    3    3  502    0  0.99761706482E+02 -0.79100333476E+02  0.76719245436E+02  0.14864421770E+03  0.00000000000E+00 0. -1.
         -1    1    3    3    0  502  0.15216575196E+03 -0.47101722555E+02  0.18731279186E+03  0.24588426206E+03  0.00000000000E+00 0.  1.
         13    1    5    5    0    0 -0.42554437690E+02 -0.22754914688E+02 -0.36823367280E+02  0.60701125915E+02  0.00000000000E+00 0.  1.
        -13    1    5    5    0    0 -0.34755824840E+03 -0.57992215454E+02 -0.60232590570E+03  0.69782256324E+03  0.00000000000E+00 0. -1.
          4    1    6    6  503    0  0.48208733740E+02  0.68649226368E+02  0.29948442195E+01  0.83939069459E+02  0.00000000000E+00 0.  1.
         -4    1    6    6    0  503  0.89976493913E+02  0.13829995981E+03  0.14625858847E+03  0.22048633300E+03  0.00000000000E+00 0. -1.
<mgrwt>
<rscale>  0 0.14398703E+04</rscale>
<asrwt>0</asrwt>
<pdfrwt beam="1">  1        2 0.12948780E+00 0.14398703E+04</pdfrwt>
<pdfrwt beam="2">  1       -1 0.94739521E-01 0.14398703E+04</pdfrwt>
<totfact> 0.38410220E+01</totfact>
</mgrwt>
</event>
<event>
12    7  0.1741211E-007  0.1570846E+04  0.7818608E-02  0.8838661E-01
          2   -1    0    0  501    0  0.00000000000E+00  0.00000000000E+00  0.17585981895E+04  0.17585981895E+04  0.00000000000E+00 0. -1.
         -1   -1    0    0    0  501 -0.00000000000E+00 -0.00000000000E+00 -0.35078454764E+03  0.35078454764E+03  0.00000000000E+00 0.  1.
         24    2    1    2    0    0 -0.18736344307E+03 -0.35307978598E+02  0.11294576720E+04  0.11482540822E+04  0.80380913281E+02 0.  0.
        254    2    1    2    0    0  0.18736344307E+03  0.35307978598E+02  0.27835596978E+03  0.96112865490E+03  0.89996362827E+03 0.  0.
         23    2    4    4    0    0  0.18854189262E+03  0.35881580404E+03 -0.12801249892E+03  0.43477520810E+03  0.91353462978E+02 0.  0.
         23    2    4    4    0    0 -0.11784495485E+01 -0.32350782544E+03  0.40636846870E+03  0.52635344680E+03  0.85169928605E+02 0.  0.
          2    1    3    3  502    0 -0.13509680225E+03 -0.50950666689E+02  0.94261701716E+03  0.95361100951E+03  0.00000000000E+00 0. -1.
         -1    1    3    3    0  502 -0.52266640822E+02  0.15642688091E+02  0.18684065489E+03  0.19464307271E+03  0.00000000000E+00 0.  1.
         13    1    5    5    0    0 -0.78922503131E+00  0.66202990881E+02 -0.10882903485E+02  0.67096173259E+02  0.00000000000E+00 0. -1.
        -13    1    5    5    0    0  0.18933111765E+03  0.29261281316E+03 -0.11712959544E+03  0.36767903484E+03  0.00000000000E+00 0.  1.
          3    1    6    6  503    0 -0.19312226755E+02 -0.18441151245E+02  0.18179880810E+02  0.32303966130E+02  0.00000000000E+00 0. -1.
         -3    1    6    6    0  503  0.18133777207E+02 -0.30506667420E+03  0.38818858789E+03  0.49404948067E+03  0.00000000000E+00 0.  1.
<mgrwt>
<rscale>  0 0.15708457E+04</rscale>
<asrwt>0</asrwt>
<pdfrwt beam="1">  1        2 0.27055356E+00 0.15708457E+04</pdfrwt>
<pdfrwt beam="2">  1       -1 0.53966855E-01 0.15708457E+04</pdfrwt>
<totfact> 0.34525505E+01</totfact>
</mgrwt>
</event>
<event>
12    7  0.1741211E-007  0.1642226E+04  0.7818608E-02  0.8795019E-01
         -1   -1    0    0    0  501 -0.00000000000E+00  0.00000000000E+00  0.27821015311E+03  0.27821015311E+03  0.00000000000E+00 0.  1.
          2   -1    0    0  501    0  0.00000000000E+00 -0.00000000000E+00 -0.24234421587E+04  0.24234421587E+04  0.00000000000E+00 0. -1.
         24    2    1    2    0    0 -0.56561252542E+03 -0.45136566566E+02 -0.81390902953E+03  0.99784290794E+03  0.10624369165E+03 0.  0.
        254    2    1    2    0    0  0.56561252542E+03  0.45136566566E+02 -0.13313229761E+04  0.17038094039E+04  0.89921675897E+03 0.  0.
         23    2    4    4    0    0 -0.77961373089E+02 -0.72678095295E+01  0.79059699626E+02  0.14998789504E+03  0.10057403146E+03 0.  0.
         23    2    4    4    0    0  0.64357389851E+03  0.52404376096E+02 -0.14103826757E+04  0.15538215088E+04  0.90820746454E+02 0.  0.
          4    1    3    3  502    0 -0.48426160868E+03 -0.59817385695E+02 -0.74319318111E+03  0.88905766389E+03  0.00000000000E+00 0. -1.
         -3    1    3    3    0  502 -0.81350916739E+02  0.14680819129E+02 -0.70715848421E+02  0.10878524405E+03  0.00000000000E+00 0.  1.
         13    1    5    5    0    0  0.32548330602E+01 -0.38863471122E+02  0.14805597797E+02  0.41715333536E+02  0.00000000000E+00 0.  1.
        -13    1    5    5    0    0 -0.81216206149E+02  0.31595661592E+02  0.64254101829E+02  0.10827256150E+03  0.00000000000E+00 0. -1.
          2    1    6    6  503    0 -0.27492528729E+00 -0.94982984960E+00  0.11185984803E+01  0.14929913653E+01  0.00000000000E+00 0.  1.
         -2    1    6    6    0  503  0.64384882380E+03  0.53354205945E+02 -0.14115012742E+04  0.15523285175E+04  0.00000000000E+00 0. -1.
<mgrwt>
<rscale>  0 0.16422256E+04</rscale>
<asrwt>0</asrwt>
<pdfrwt beam="1">  1        2 0.37283724E+00 0.16422256E+04</pdfrwt>
<pdfrwt beam="2">  1       -1 0.42801564E-01 0.16422256E+04</pdfrwt>
<totfact> 0.22589097E+01</totfact>
</mgrwt>
</event>
<event>
12    7  0.1741211E-007  0.1266124E+04  0.7818608E-02  0.9056869E-01
          2   -1    0    0  501    0  0.00000000000E+00  0.00000000000E+00  0.16839383801E+04  0.16839383801E+04  0.00000000000E+00 0. -1.
         -1   -1    0    0    0  501 -0.00000000000E+00 -0.00000000000E+00 -0.23799415858E+03  0.23799415858E+03  0.00000000000E+00 0.  1.
         24    2    1    2    0    0  0.26110316447E+03 -0.12055514330E+03  0.15660231292E+03  0.33699045441E+03  0.79560523393E+02 0.  0.
        254    2    1    2    0    0 -0.26110316447E+03  0.12055514330E+03  0.12893419086E+04  0.15849420843E+04  0.87574565266E+03 0.  0.
         23    2    4    4    0    0  0.30215854270E+03  0.14984408735E+03  0.48666874350E+03  0.59959688001E+03  0.94429429599E+02 0.  0.
         23    2    4    4    0    0 -0.56326170716E+03 -0.29288944057E+02  0.80267316511E+03  0.98534520427E+03  0.92192020259E+02 0.  0.
          2    1    3    3  502    0  0.22864102053E+03 -0.13123919786E+03  0.13163258979E+03  0.29466520327E+03  0.00000000000E+00 0. -1.
         -1    1    3    3    0  502  0.32462143937E+02  0.10684054562E+02  0.24969723135E+02  0.42325251143E+02  0.00000000000E+00 0.  1.
         13    1    5    5    0    0  0.22250172528E+03  0.67620982641E+02  0.36274787464E+03  0.43088935424E+03  0.00000000000E+00 0.  1.
        -13    1    5    5    0    0  0.79656817416E+02  0.82223104714E+02  0.12392086886E+03  0.16870752576E+03  0.00000000000E+00 0. -1.
          1    1    6    6  503    0 -0.62993271900E+02 -0.31159084477E+01  0.14893547969E+03  0.16173941481E+03  0.00000000000E+00 0. -1.
         -1    1    6    6    0  503 -0.50026843526E+03 -0.26173035610E+02  0.65373768542E+03  0.82360578947E+03  0.00000000000E+00 0.  1.
<mgrwt>
<rscale>  0 0.12661240E+04</rscale>
<asrwt>0</asrwt>
<pdfrwt beam="1">  1        2 0.25906743E+00 0.12661240E+04</pdfrwt>
<pdfrwt beam="2">  1       -1 0.36614487E-01 0.12661240E+04</pdfrwt>
<totfact> 0.80153075E+01</totfact>
</mgrwt>
</event>
<event>
12    7  0.1741211E-007  0.2281911E+04  0.7818608E-02  0.8485088E-01
          2   -1    0    0  501    0  0.00000000000E+00  0.00000000000E+00  0.26565342230E+04  0.26565342230E+04  0.00000000000E+00 0. -1.
         -3   -1    0    0    0  501 -0.00000000000E+00 -0.00000000000E+00 -0.49002938167E+03  0.49002938167E+03  0.00000000000E+00 0.  1.
         24    2    1    2    0    0  0.16442395523E+03 -0.32216895375E+03 -0.30967820805E+03  0.48858566226E+03  0.10948646040E+03 0.  0.
        254    2    1    2    0    0 -0.16442395523E+03  0.32216895375E+03  0.24761830494E+04  0.26579779424E+04  0.89584383486E+03 0.  0.
         23    2    4    4    0    0 -0.22297639978E+03  0.58259857265E+03  0.20650654304E+04  0.21592023309E+04  0.92303317214E+02 0.  0.
         23    2    4    4    0    0  0.58552444549E+02 -0.26042961890E+03  0.41111761900E+03  0.49877561149E+03  0.92235778326E+02 0.  0.
          2    1    3    3  502    0 -0.23124730807E+01 -0.51211403850E+02 -0.84416296622E+02  0.98762677927E+02  0.00000000000E+00 0. -1.
         -1    1    3    3    0  502  0.16673642831E+03 -0.27095754990E+03 -0.22526191143E+03  0.38982298433E+03  0.00000000000E+00 0.  1.
         13    1    5    5    0    0 -0.20775574624E+03  0.43939445552E+03  0.15539519771E+04  0.16281881601E+04  0.00000000000E+00 0.  1.
        -13    1    5    5    0    0 -0.15220653540E+02  0.14320411712E+03  0.51111345326E+03  0.53101417077E+03  0.00000000000E+00 0. -1.
          3    1    6    6  503    0 -0.17189223899E+02 -0.14473434481E+02  0.17450382247E+02  0.28451108318E+02  0.00000000000E+00 0. -1.
         -3    1    6    6    0  503  0.75741668448E+02 -0.24595618441E+03  0.39366723675E+03  0.47032450317E+03  0.00000000000E+00 0.  1.
<mgrwt>
<rscale>  0 0.22819113E+04</rscale>
<asrwt>0</asrwt>
<pdfrwt beam="1">  1        2 0.40869756E+00 0.22819113E+04</pdfrwt>
<pdfrwt beam="2">  1       -3 0.75389137E-01 0.22819113E+04</pdfrwt>
<totfact> 0.27234094E+00</totfact>
</mgrwt>
</event>
<event>
12    7  0.1741211E-007  0.1327208E+04  0.7818608E-02  0.9008263E-01
         -1   -1    0    0    0  501 -0.00000000000E+00  0.00000000000E+00  0.12678248171E+04  0.12678248171E+04  0.00000000000E+00 0.  1.
          2   -1    0    0  501    0  0.00000000000E+00 -0.00000000000E+00 -0.34734308080E+03  0.34734308080E+03  0.00000000000E+00 0. -1.
         24    2    1    2    0    0  0.56413836988E+02  0.21642431245E+03 -0.73883713872E+02  0.24972834828E+03  0.82966503710E+02 0.  0.
        254    2    1    2    0    0 -0.56413836988E+02 -0.21642431245E+03  0.99436545019E+03  0.13654395496E+04  0.90864762762E+03 0.  0.
         23    2    4    4    0    0 -0.46163216658E+03 -0.10594061107E+03  0.67080636566E+03  0.82619906971E+03  0.91082667234E+02 0.  0.
         23    2    4    4    0    0  0.40521832959E+03 -0.11048370137E+03  0.32355908453E+03  0.53924047994E+03  0.98393450591E+02 0.  0.
          2    1    3    3  502    0  0.55509766440E+02  0.18788485993E+03 -0.31211408919E+02  0.19838398828E+03  0.00000000000E+00 0. -1.
         -1    1    3    3    0  502  0.90407054844E+00  0.28539452519E+02 -0.42672304953E+02  0.51344359998E+02  0.00000000000E+00 0.  1.
         13    1    5    5    0    0 -0.34344313592E+03 -0.47891325292E+02  0.53052113089E+03  0.63379763092E+03  0.00000000000E+00 0. -1.
        -13    1    5    5    0    0 -0.11818903067E+03 -0.58049285781E+02  0.14028523478E+03  0.19240143878E+03  0.00000000000E+00 0.  1.
          4    1    6    6  503    0  0.39919853743E+03 -0.12008238347E+03  0.32389032173E+03  0.52790547602E+03  0.00000000000E+00 0. -1.
         -4    1    6    6    0  503  0.60197921646E+01  0.95986820986E+01 -0.33123720153E+00  0.11335003918E+02  0.00000000000E+00 0.  1.
<mgrwt>
<rscale>  0 0.13272079E+04</rscale>
<asrwt>0</asrwt>
<pdfrwt beam="1">  1        2 0.53437397E-01 0.13272079E+04</pdfrwt>
<pdfrwt beam="2">  1       -1 0.19504997E+00 0.13272079E+04</pdfrwt>
<totfact> 0.17004595E+01</totfact>
</mgrwt>
</event>
<event>
12    7  0.1741211E-007  0.1834803E+04  0.7818608E-02  0.8688008E-01
         -1   -1    0    0    0  501 -0.00000000000E+00  0.00000000000E+00  0.53323825744E+03  0.53323825744E+03  0.00000000000E+00 0.  1.
          2   -1    0    0  501    0  0.00000000000E+00 -0.00000000000E+00 -0.15783289133E+04  0.15783289133E+04  0.00000000000E+00 0. -1.
         24    2    1    2    0    0  0.11979409410E+03  0.66478150654E+03 -0.59262529082E+03  0.90139307227E+03  0.70849551960E+02 0.  0.
        254    2    1    2    0    0 -0.11979409410E+03 -0.66478150654E+03 -0.45246536507E+03  0.12101740985E+04  0.89638795489E+03 0.  0.
         23    2    4    4    0    0 -0.38917650780E+03 -0.48659789286E+03 -0.57462954078E+03  0.85245177333E+03  0.90769230256E+02 0.  0.
         23    2    4    4    0    0  0.26938241370E+03 -0.17818361368E+03  0.12216417571E+03  0.35772232517E+03  0.93407125545E+02 0.  0.
          4    1    3    3  502    0  0.11223137199E+03  0.64743742946E+03 -0.55851469257E+03  0.86238608972E+03  0.00000000000E+00 0. -1.
         -3    1    3    3    0  502  0.75627221077E+01  0.17344077078E+02 -0.34110598243E+02  0.39006982553E+02  0.00000000000E+00 0.  1.
         13    1    5    5    0    0 -0.47352427317E+02 -0.72071480454E+02 -0.12494425028E+03  0.15181441416E+03  0.00000000000E+00 0.  1.
        -13    1    5    5    0    0 -0.34182408048E+03 -0.41452641240E+03 -0.44968529050E+03  0.70063735917E+03  0.00000000000E+00 0. -1.
          2    1    6    6  503    0  0.12351428771E+03 -0.10750717119E+03  0.10547213476E+03  0.19477664731E+03  0.00000000000E+00 0.  1.
         -2    1    6    6    0  503  0.14586812599E+03 -0.70676442486E+02  0.16692040957E+02  0.16294567786E+03  0.00000000000E+00 0. -1.
<mgrwt>
<rscale>  0 0.18348028E+04</rscale>
<asrwt>0</asrwt>
<pdfrwt beam="1">  1        2 0.24281984E+00 0.18348028E+04</pdfrwt>
<pdfrwt beam="2">  1       -1 0.82036654E-01 0.18348028E+04</pdfrwt>
<totfact> 0.18181795E+01</totfact>
</mgrwt>
</event>
<event>
12    7  0.1741211E-007  0.2494783E+04  0.7818608E-02  0.8404846E-01
         -1   -1    0    0    0  501 -0.00000000000E+00  0.00000000000E+00  0.50816756797E+03  0.50816756797E+03  0.00000000000E+00 0.  1.
          2   -1    0    0  501    0  0.00000000000E+00 -0.00000000000E+00 -0.30619539757E+04  0.30619539757E+04  0.00000000000E+00 0. -1.
         24    2    1    2    0    0 -0.81918498861E+03 -0.32573215414E+03 -0.20111150453E+04  0.21973648542E+04  0.81627785648E+02 0.  0.
        254    2    1    2    0    0  0.81918498861E+03  0.32573215414E+03 -0.54267136247E+03  0.13727566895E+04  0.90155600994E+03 0.  0.
         23    2    4    4    0    0  0.92640078180E+03  0.42790180612E+03 -0.60271262488E+03  0.11887356742E+04  0.92258499444E+02 0.  0.
         23    2    4    4    0    0 -0.10721579319E+03 -0.10216965198E+03  0.60041262412E+02  0.18402101528E+03  0.91240981900E+02 0.  0.
          4    1    3    3  502    0 -0.46516665749E+03 -0.16637963495E+03 -0.12162816091E+04  0.13127845043E+04  0.00000000000E+00 0. -1.
         -3    1    3    3    0  502 -0.35401833111E+03 -0.15935251919E+03 -0.79483343617E+03  0.88458034988E+03  0.00000000000E+00 0.  1.
         13    1    5    5    0    0 -0.21640843129E+01  0.11143081294E+00 -0.19936758971E+01  0.29445579162E+01  0.00000000000E+00 0.  1.
        -13    1    5    5    0    0  0.92856486611E+03  0.42779037530E+03 -0.60071894898E+03  0.11857911163E+04  0.00000000000E+00 0. -1.
          1    1    6    6  503    0 -0.11656916961E+03 -0.66328649758E+02  0.32885388459E+02  0.13809167193E+03  0.00000000000E+00 0. -1.
         -1    1    6    6    0  503  0.93533764173E+01 -0.35841002224E+02  0.27155873954E+02  0.45929343355E+02  0.00000000000E+00 0.  1.
<mgrwt>
<rscale>  0 0.24947831E+04</rscale>
<asrwt>0</asrwt>
<pdfrwt beam="1">  1        2 0.47106984E+00 0.24947831E+04</pdfrwt>
<pdfrwt beam="2">  1       -1 0.78179626E-01 0.24947831E+04</pdfrwt>
<totfact> 0.26457773E+00</totfact>
</mgrwt>
</event>
<event>
12    7  0.1741211E-007  0.2074931E+04  0.7818608E-02  0.8572367E-01
          2   -1    0    0  501    0  0.00000000000E+00  0.00000000000E+00  0.14016385011E+04  0.14016385011E+04  0.00000000000E+00 0. -1.
         -1   -1    0    0    0  501 -0.00000000000E+00 -0.00000000000E+00 -0.76791186936E+03  0.76791186936E+03  0.00000000000E+00 0.  1.
         24    2    1    2    0    0  0.16687940689E+03 -0.76272158838E+03  0.57194631284E+03  0.97112307698E+03  0.79777741547E+02 0.  0.
        254    2    1    2    0    0 -0.16687940689E+03  0.76272158838E+03  0.61780318869E+02  0.11984272934E+04  0.90709327638E+03 0.  0.
         23    2    4    4    0    0 -0.81869688783E+02  0.82040403276E+03 -0.24241025821E+03  0.86448506855E+03  0.93841768683E+02 0.  0.
         23    2    4    4    0    0 -0.85009718107E+02 -0.57682444378E+02  0.30419057708E+03  0.33394222490E+03  0.91823666998E+02 0.  0.
          4    1    3    3  502    0  0.11235962499E+03 -0.57364296274E+03  0.46648209460E+03  0.74786126963E+03  0.00000000000E+00 0. -1.
         -3    1    3    3    0  502  0.54519781901E+02 -0.18907862564E+03  0.10546421824E+03  0.22326180735E+03  0.00000000000E+00 0.  1.
         13    1    5    5    0    0 -0.64160421129E+02  0.74399144073E+03 -0.24525365209E+03  0.78599565990E+03  0.00000000000E+00 0.  1.
        -13    1    5    5    0    0 -0.17709267654E+02  0.76412592029E+02  0.28433938750E+01  0.78489408650E+02  0.00000000000E+00 0. -1.
          2    1    6    6  503    0  0.18200413211E+02 -0.16766798277E+02  0.80447148788E+02  0.84167240145E+02  0.00000000000E+00 0. -1.
         -2    1    6    6    0  503 -0.10321013132E+03 -0.40915646101E+02  0.22374342829E+03  0.24977498475E+03  0.00000000000E+00 0.  1.
<mgrwt>
<rscale>  0 0.20749312E+04</rscale>
<asrwt>0</asrwt>
<pdfrwt beam="1">  1        2 0.21563669E+00 0.20749312E+04</pdfrwt>
<pdfrwt beam="2">  1       -1 0.11814029E+00 0.20749312E+04</pdfrwt>
<totfact> 0.97735314E+00</totfact>
</mgrwt>
</event>
<event>
12    7  0.1741211E-007  0.2216237E+04  0.7818608E-02  0.8511700E-01
          2   -1    0    0  501    0  0.00000000000E+00  0.00000000000E+00  0.28101417550E+04  0.28101417550E+04  0.00000000000E+00 0. -1.
         -1   -1    0    0    0  501 -0.00000000000E+00 -0.00000000000E+00 -0.43696239287E+03  0.43696239287E+03  0.00000000000E+00 0.  1.
         24    2    1    2    0    0 -0.14780738316E+03 -0.48864134270E+03  0.21699819516E+04  0.22306385249E+04  0.79430309385E+02 0.  0.
        254    2    1    2    0    0  0.14780738316E+03  0.48864134270E+03  0.20319741055E+03  0.10164656230E+04  0.85515834254E+03 0.  0.
         23    2    4    4    0    0  0.28623534714E+03  0.19163958358E+03 -0.26167431625E+03  0.44036386403E+03  0.82404374974E+02 0.  0.
         23    2    4    4    0    0 -0.13842796398E+03  0.29700175912E+03  0.46487172680E+03  0.57610175899E+03  0.91734225909E+02 0.  0.
          4    1    3    3  502    0 -0.91713508213E+02 -0.18833852230E+03  0.79595425116E+03  0.82305889006E+03  0.00000000000E+00 0. -1.
         -3    1    3    3    0  502 -0.56093874944E+02 -0.30030282040E+03  0.13740277004E+04  0.14075796348E+04  0.00000000000E+00 0.  1.
         13    1    5    5    0    0  0.14956593699E+03  0.14424170562E+03 -0.17550694683E+03  0.27198957247E+03  0.00000000000E+00 0. -1.
        -13    1    5    5    0    0  0.13666941015E+03  0.47397877960E+02 -0.86167369416E+02  0.16837429156E+03  0.00000000000E+00 0.  1.
          4    1    6    6  503    0 -0.26693275400E+02  0.42502607508E+02  0.25756473257E+02  0.56412751318E+02  0.00000000000E+00 0.  1.
         -4    1    6    6    0  503 -0.11173468858E+03  0.25449915161E+03  0.43911525354E+03  0.51968900767E+03  0.00000000000E+00 0. -1.
<mgrwt>
<rscale>  0 0.22162367E+04</rscale>
<asrwt>0</asrwt>
<pdfrwt beam="1">  1        2 0.43232949E+00 0.22162367E+04</pdfrwt>
<pdfrwt beam="2">  1       -1 0.67224985E-01 0.22162367E+04</pdfrwt>
<totfact> 0.53109169E+00</totfact>
</mgrwt>
</event>
<event>
12    7  0.1741211E-007  0.2145171E+04  0.7818608E-02  0.8541602E-01
          2   -1    0    0  501    0  0.00000000000E+00  0.00000000000E+00  0.10084812213E+04  0.10084812213E+04  0.00000000000E+00 0. -1.
         -1   -1    0    0    0  501 -0.00000000000E+00 -0.00000000000E+00 -0.11407650963E+04  0.11407650963E+04  0.00000000000E+00 0.  1.
         24    2    1    2    0    0  0.23674621849E+03  0.21567754502E+03 -0.88018682337E+03  0.93998650213E+03  0.79247742944E+02 0.  0.
        254    2    1    2    0    0 -0.23674621849E+03 -0.21567754502E+03  0.74790294834E+03  0.12092598154E+04  0.89464233396E+03 0.  0.
         23    2    4    4    0    0  0.26483840643E+03 -0.32071219920E+03  0.28137407237E+03  0.51017459264E+03  0.90061368752E+02 0.  0.
         23    2    4    4    0    0 -0.50158462492E+03  0.10503465419E+03  0.46652887597E+03  0.69908522280E+03  0.91932268992E+02 0.  0.
          2    1    3    3  502    0  0.66263210971E+02  0.21722256380E+02 -0.23205817768E+03  0.24230903281E+03  0.00000000000E+00 0. -1.
         -1    1    3    3    0  502  0.17048300752E+03  0.19395528864E+03 -0.64812864569E+03  0.69767746933E+03  0.00000000000E+00 0.  1.
         13    1    5    5    0    0  0.59666283811E+02 -0.31064863871E+02  0.69852606048E+02  0.96976686698E+02  0.00000000000E+00 0. -1.
        -13    1    5    5    0    0  0.20517212262E+03 -0.28964733533E+03  0.21152146632E+03  0.41319790595E+03  0.00000000000E+00 0.  1.
          4    1    6    6  503    0 -0.18930614571E+03  0.36111447637E+01  0.13542768924E+03  0.23278856540E+03  0.00000000000E+00 0. -1.
         -4    1    6    6    0  503 -0.31227847921E+03  0.10142350942E+03  0.33110118673E+03  0.46629665739E+03  0.00000000000E+00 0.  1.
<mgrwt>
<rscale>  0 0.21451715E+04</rscale>
<asrwt>0</asrwt>
<pdfrwt beam="1">  1        2 0.15515096E+00 0.21451715E+04</pdfrwt>
<pdfrwt beam="2">  1       -1 0.17550232E+00 0.21451715E+04</pdfrwt>
<totfact> 0.58423421E+00</totfact>
</mgrwt>
</event>
<event>
12    7  0.1741211E-007  0.2106926E+04  0.7818608E-02  0.8558199E-01
         -1   -1    0    0    0  501 -0.00000000000E+00  0.00000000000E+00  0.12995880561E+04  0.12995880561E+04  0.00000000000E+00 0.  1.
          2   -1    0    0  501    0  0.00000000000E+00 -0.00000000000E+00 -0.85395056754E+03  0.85395056754E+03  0.00000000000E+00 0. -1.
         24    2    1    2    0    0  0.75155825907E+03 -0.22898625372E+03  0.54326569279E+03  0.95856439246E+03  0.80209477942E+02 0.  0.
        254    2    1    2    0    0 -0.75155825907E+03  0.22898625372E+03 -0.97628204194E+02  0.11949742312E+04  0.89507408957E+03 0.  0.
         23    2    4    4    0    0 -0.16748309963E+03 -0.28390628773E+03  0.15133276990E+03  0.37422164725E+03  0.92124183297E+02 0.  0.
         23    2    4    4    0    0 -0.58407515944E+03  0.51289254145E+03 -0.24896097409E+03  0.82075258396E+03  0.86317359200E+02 0.  0.
          4    1    3    3  502    0  0.72191941421E+03 -0.20650307311E+03  0.50320951697E+03  0.90389765891E+03  0.00000000000E+00 0. -1.
         -1    1    3    3    0  502  0.29638844860E+02 -0.22483180611E+02  0.40056175820E+02  0.54666733544E+02  0.00000000000E+00 0.  1.
         13    1    5    5    0    0 -0.13702151628E+03 -0.21075397818E+03  0.70618597521E+02  0.26111132024E+03  0.00000000000E+00 0. -1.
        -13    1    5    5    0    0 -0.30461583351E+02 -0.73152309555E+02  0.80714172378E+02  0.11311032701E+03  0.00000000000E+00 0.  1.
          3    1    6    6  503    0 -0.26332668954E+02  0.46940301746E+02 -0.30499277997E+02  0.61862810643E+02  0.00000000000E+00 0. -1.
         -3    1    6    6    0  503 -0.55774249049E+03  0.46595223971E+03 -0.21846169610E+03  0.75888977332E+03  0.00000000000E+00 0.  1.
<mgrwt>
<rscale>  0 0.21069257E+04</rscale>
<asrwt>0</asrwt>
<pdfrwt beam="1">  1        2 0.13137701E+00 0.21069257E+04</pdfrwt>
<pdfrwt beam="2">  1       -1 0.19993663E+00 0.21069257E+04</pdfrwt>
<totfact> 0.49925960E+00</totfact>
</mgrwt>
</event>
<event>
12    7  0.1741211E-007  0.2348675E+04  0.7818608E-02  0.8458973E-01
         -1   -1    0    0    0  501 -0.00000000000E+00  0.00000000000E+00  0.67288545625E+03  0.67288545625E+03  0.00000000000E+00 0.  1.
          2   -1    0    0  501    0  0.00000000000E+00 -0.00000000000E+00 -0.20494846769E+04  0.20494846769E+04  0.00000000000E+00 0. -1.
         24    2    1    2    0    0 -0.35282935324E+03 -0.57934087713E+03 -0.14382935521E+04  0.15920401916E+04  0.76021215842E+02 0.  0.
        254    2    1    2    0    0  0.35282935324E+03  0.57934087713E+03  0.61694331471E+02  0.11303299415E+04  0.90206162859E+03 0.  0.
         23    2    4    4    0    0  0.62822950245E+03  0.26890623427E+03  0.12422445810E+03  0.70091236962E+03  0.94146499177E+02 0.  0.
         23    2    4    4    0    0 -0.27540014922E+03  0.31043464286E+03 -0.62530126630E+02  0.42941757192E+03  0.90964414263E+02 0.  0.
          4    1    3    3  502    0 -0.20504746380E+03 -0.40485417558E+03 -0.96876603787E+03  0.10697939063E+04  0.00000000000E+00 0. -1.
         -3    1    3    3    0  502 -0.14778188944E+03 -0.17448670155E+03 -0.46952751427E+03  0.52224628531E+03  0.00000000000E+00 0.  1.
         13    1    5    5    0    0  0.75154726067E+02  0.12265548524E+02  0.38077367450E+02  0.85138489784E+02  0.00000000000E+00 0. -1.
        -13    1    5    5    0    0  0.55307477639E+03  0.25664068575E+03  0.86147090651E+02  0.61577387983E+03  0.00000000000E+00 0.  1.
          1    1    6    6  503    0 -0.93598838364E+02  0.15268009837E+03  0.58748307567E+01  0.17918277992E+03  0.00000000000E+00 0. -1.
         -1    1    6    6    0  503 -0.18180131085E+03  0.15775454448E+03 -0.68404957387E+02  0.25023479200E+03  0.00000000000E+00 0.  1.
<mgrwt>
<rscale>  0 0.23486749E+04</rscale>
<asrwt>0</asrwt>
<pdfrwt beam="1">  1        2 0.31530533E+00 0.23486749E+04</pdfrwt>
<pdfrwt beam="2">  1       -1 0.10352084E+00 0.23486749E+04</pdfrwt>
<totfact> 0.56693647E+00</totfact>
</mgrwt>
</event>
<event>
12    7  0.1741211E-007  0.2111678E+04  0.7818608E-02  0.8556117E-01
         -1   -1    0    0    0  501 -0.00000000000E+00  0.00000000000E+00  0.15832305087E+04  0.15832305087E+04  0.00000000000E+00 0.  1.
          2   -1    0    0  501    0  0.00000000000E+00 -0.00000000000E+00 -0.70412714224E+03  0.70412714224E+03  0.00000000000E+00 0. -1.
         24    2    1    2    0    0 -0.53781043543E+02 -0.44888141565E+03 -0.46377006574E+03  0.65260445323E+03  0.80143449798E+02 0.  0.
        254    2    1    2    0    0  0.53781043543E+02  0.44888141565E+03  0.13428734322E+04  0.16347531977E+04  0.81530487337E+03 0.  0.
         23    2    4    4    0    0 -0.35664724054E+03  0.32798791341E+03  0.74766394216E+03  0.89576265364E+03  0.92822603427E+02 0.  0.
         23    2    4    4    0    0  0.41042828409E+03  0.12089350224E+03  0.59520949008E+03  0.73899054411E+03  0.93627303370E+02 0.  0.
          2    1    3    3  502    0 -0.51226857634E+02 -0.39767263840E+03 -0.44237962620E+03  0.59704895272E+03  0.00000000000E+00 0. -1.
         -1    1    3    3    0  502 -0.25541859087E+01 -0.51208777250E+02 -0.21390439541E+02  0.55555500510E+02  0.00000000000E+00 0.  1.
         13    1    5    5    0    0 -0.35093017027E+03  0.29120373136E+03  0.68628748077E+03  0.82397943167E+03  0.00000000000E+00 0.  1.
        -13    1    5    5    0    0 -0.57170702749E+01  0.36784182059E+02  0.61376461392E+02  0.71783221962E+02  0.00000000000E+00 0. -1.
          2    1    6    6  503    0  0.11714425216E+03 -0.47101741651E+01  0.13214659733E+03  0.17665696912E+03  0.00000000000E+00 0. -1.
         -2    1    6    6    0  503  0.29328403193E+03  0.12560367640E+03  0.46306289275E+03  0.56233357498E+03  0.00000000000E+00 0.  1.
<mgrwt>
<rscale>  0 0.21116776E+04</rscale>
<asrwt>0</asrwt>
<pdfrwt beam="1">  1        2 0.10832725E+00 0.21116776E+04</pdfrwt>
<pdfrwt beam="2">  1       -1 0.24357392E+00 0.21116776E+04</pdfrwt>
<totfact> 0.32823532E+00</totfact>
</mgrwt>
</event>
<event>
12    7  0.1741211E-007  0.3390040E+04  0.7818608E-02  0.8140355E-01
          2   -1    0    0  501    0  0.00000000000E+00  0.00000000000E+00  0.29970497938E+04  0.29970497938E+04  0.00000000000E+00 0. -1.
         -1   -1    0    0    0  501 -0.00000000000E+00 -0.00000000000E+00 -0.95864056010E+03  0.95864056010E+03  0.00000000000E+00 0.  1.
         24    2    1    2    0    0 -0.11761979925E+04  0.80223590722E+03  0.17026631288E+03  0.14362193513E+04  0.81922154312E+02 0.  0.
        254    2    1    2    0    0  0.11761979925E+04 -0.80223590722E+03  0.18681429209E+04  0.25194710026E+04  0.91145597367E+03 0.  0.
         23    2    4    4    0    0 -0.91092974280E+02  0.60236871375E+02  0.25216053448E+03  0.29024439092E+03  0.93436934212E+02 0.  0.
         23    2    4    4    0    0  0.12672909668E+04 -0.86247277859E+03  0.16159823864E+04  0.22292266117E+04  0.90368827375E+02 0.  0.
          4    1    3    3  502    0 -0.14346750511E+01  0.49213787214E+01 -0.29437362757E+01  0.59113318535E+01  0.00000000000E+00 0. -1.
         -3    1    3    3    0  502 -0.11747633175E+04  0.79731452850E+03  0.17321004916E+03  0.14303080195E+04  0.00000000000E+00 0.  1.
         13    1    5    5    0    0 -0.11785236994E+02  0.48885403502E+02  0.42645825765E+02  0.65934368441E+02  0.00000000000E+00 0. -1.
        -13    1    5    5    0    0 -0.79307737287E+02  0.11351467873E+02  0.20951470872E+03  0.22431002248E+03  0.00000000000E+00 0.  1.
          3    1    6    6  503    0  0.92481127327E+01 -0.32379258661E+01  0.23074279174E+02  0.25068588162E+02  0.00000000000E+00 0. -1.
         -3    1    6    6    0  503  0.12580428541E+04 -0.85923485273E+03  0.15929081072E+04  0.22041580235E+04  0.00000000000E+00 0.  1.
<mgrwt>
<rscale>  0 0.33900404E+04</rscale>
<asrwt>0</asrwt>
<pdfrwt beam="1">  1        2 0.46108458E+00 0.33900404E+04</pdfrwt>
<pdfrwt beam="2">  1       -1 0.14748316E+00 0.33900404E+04</pdfrwt>
<totfact> 0.60078040E-01</totfact>
</mgrwt>
</event>
<event>
12    7  0.1741211E-007  0.3086738E+04  0.7818608E-02  0.8219387E-01
          2   -1    0    0  501    0  0.00000000000E+00  0.00000000000E+00  0.10302520401E+04  0.10302520401E+04  0.00000000000E+00 0. -1.
         -1   -1    0    0    0  501 -0.00000000000E+00 -0.00000000000E+00 -0.23120432252E+04  0.23120432252E+04  0.00000000000E+00 0.  1.
         24    2    1    2    0    0 -0.94576593999E+03  0.78378047148E+03  0.16503885481E+03  0.12419333608E+04  0.79847406948E+02 0.  0.
        254    2    1    2    0    0  0.94576593999E+03 -0.78378047148E+03 -0.14468300399E+04  0.21003619044E+04  0.89967656665E+03 0.  0.
         23    2    4    4    0    0  0.23963054137E+03 -0.27332283170E+03  0.37367798220E+02  0.37681126557E+03  0.91990275728E+02 0.  0.
         23    2    4    4    0    0  0.70613539862E+03 -0.51045763978E+03 -0.14841978381E+04  0.17235506389E+04  0.92678902180E+02 0.  0.
          2    1    3    3  502    0 -0.92777509637E+03  0.78030587763E+03  0.15917118257E+03  0.12226934847E+04  0.00000000000E+00 0. -1.
         -1    1    3    3    0  502 -0.17990843621E+02  0.34745938565E+01  0.58676722342E+01  0.19239876146E+02  0.00000000000E+00 0.  1.
         13    1    5    5    0    0  0.28594234805E+02  0.12471140260E+01  0.41328744210E+01  0.28918267729E+02  0.00000000000E+00 0. -1.
        -13    1    5    5    0    0  0.21103630657E+03 -0.27456994573E+03  0.33234923799E+02  0.34789299784E+03  0.00000000000E+00 0.  1.
          3    1    6    6  503    0  0.10313219412E+03 -0.10154332676E+03 -0.30173500470E+03  0.33465102680E+03  0.00000000000E+00 0. -1.
         -3    1    6    6    0  503  0.60300320450E+03 -0.40891431302E+03 -0.11824628334E+04  0.13888996121E+04  0.00000000000E+00 0.  1.
<mgrwt>
<rscale>  0 0.30867376E+04</rscale>
<asrwt>0</asrwt>
<pdfrwt beam="1">  1        2 0.15850031E+00 0.30867376E+04</pdfrwt>
<pdfrwt beam="2">  1       -1 0.35569896E+00 0.30867376E+04</pdfrwt>
<totfact> 0.33215902E-01</totfact>
</mgrwt>
</event>
<event>
12    7  0.1741211E-007  0.3005800E+04  0.7818608E-02  0.8242077E-01
          2   -1    0    0  501    0  0.00000000000E+00  0.00000000000E+00  0.14168963585E+04  0.14168963585E+04  0.00000000000E+00 0. -1.
         -1   -1    0    0    0  501 -0.00000000000E+00 -0.00000000000E+00 -0.15941240744E+04  0.15941240744E+04  0.00000000000E+00 0.  1.
         24    2    1    2    0    0  0.61138333640E+03  0.53816144318E+03  0.10181255209E+04  0.13061463314E+04  0.77661700593E+02 0.  0.
        254    2    1    2    0    0 -0.61138333640E+03 -0.53816144318E+03 -0.11953532368E+04  0.17048741015E+04  0.90239626453E+03 0.  0.
         23    2    4    4    0    0  0.12670260858E+03 -0.12901778591E+03 -0.68564506235E+03  0.71478565002E+03  0.90056836788E+02 0.  0.
         23    2    4    4    0    0 -0.73808594498E+03 -0.40914365727E+03 -0.50970817444E+03  0.99008845145E+03  0.91122577595E+02 0.  0.
          2    1    3    3  502    0  0.32456096049E+03  0.26628909778E+03  0.46688918966E+03  0.62788153030E+03  0.00000000000E+00 0. -1.
         -1    1    3    3    0  502  0.28682237591E+03  0.27187234540E+03  0.55123633126E+03  0.67826480111E+03  0.00000000000E+00 0.  1.
         13    1    5    5    0    0  0.71747440675E+02 -0.14019667954E+02 -0.29248429678E+03  0.30148185716E+03  0.00000000000E+00 0. -1.
        -13    1    5    5    0    0  0.54955167902E+02 -0.11499811795E+03 -0.39316076557E+03  0.41330379286E+03  0.00000000000E+00 0.  1.
          1    1    6    6  503    0 -0.17791424319E+03 -0.14404255006E+03 -0.12905816425E+03  0.26278840141E+03  0.00000000000E+00 0. -1.
         -1    1    6    6    0  503 -0.56017170179E+03 -0.26510110721E+03 -0.38065001018E+03  0.72730005004E+03  0.00000000000E+00 0.  1.
<mgrwt>
<rscale>  0 0.30058001E+04</rscale>
<asrwt>0</asrwt>
<pdfrwt beam="1">  1        2 0.21798406E+00 0.30058001E+04</pdfrwt>
<pdfrwt beam="2">  1       -1 0.24524986E+00 0.30058001E+04</pdfrwt>
<totfact> 0.10327073E+00</totfact>
</mgrwt>
</event>
<event>
12    7  0.1741211E-007  0.2314333E+04  0.7818608E-02  0.8472291E-01
          2   -1    0    0  501    0  0.00000000000E+00  0.00000000000E+00  0.20280628557E+04  0.20280628557E+04  0.00000000000E+00 0. -1.
         -1   -1    0    0    0  501 -0.00000000000E+00 -0.00000000000E+00 -0.66025273354E+03  0.66025273354E+03  0.00000000000E+00 0.  1.
         24    2    1    2    0    0 -0.27086565653E+03 -0.70950165846E+03 -0.14004291296E+03  0.77660278012E+03  0.82091737494E+02 0.  0.
        254    2    1    2    0    0  0.27086565653E+03  0.70950165846E+03  0.15078530352E+04  0.19117128092E+04  0.89680782881E+03 0.  0.
         23    2    4    4    0    0 -0.29767723011E+03  0.42647045680E+03  0.77518907051E+03  0.93846540050E+03  0.96490564554E+02 0.  0.
         23    2    4    4    0    0  0.56854288664E+03  0.28303120167E+03  0.73266396464E+03  0.97324740866E+03  0.84061633974E+02 0.  0.
          2    1    3    3  502    0 -0.78861925810E+02 -0.11819060948E+03 -0.30535340853E+02  0.14532938641E+03  0.00000000000E+00 0. -1.
         -1    1    3    3    0  502 -0.19200373072E+03 -0.59131104898E+03 -0.10950757210E+03  0.63127339371E+03  0.00000000000E+00 0.  1.
         13    1    5    5    0    0 -0.45488492607E+02  0.11665677599E+03  0.13737314818E+03  0.18587465719E+03  0.00000000000E+00 0.  1.
        -13    1    5    5    0    0 -0.25218873750E+03  0.30981368081E+03  0.63781592232E+03  0.75259074331E+03  0.00000000000E+00 0. -1.
          4    1    6    6  503    0  0.21043533047E+03  0.15078384948E+03  0.29350604024E+03  0.39136248317E+03  0.00000000000E+00 0. -1.
         -4    1    6    6    0  503  0.35810755617E+03  0.13224735219E+03  0.43915792440E+03  0.58188492549E+03  0.00000000000E+00 0.  1.
<mgrwt>
<rscale>  0 0.23143328E+04</rscale>
<asrwt>0</asrwt>
<pdfrwt beam="1">  1        2 0.31200967E+00 0.23143328E+04</pdfrwt>
<pdfrwt beam="2">  1       -1 0.10157734E+00 0.23143328E+04</pdfrwt>
<totfact> 0.61063264E+00</totfact>
</mgrwt>
</event>
<event>
12    7  0.1741211E-007  0.1513951E+04  0.7818608E-02  0.8875228E-01
         -1   -1    0    0    0  501 -0.00000000000E+00  0.00000000000E+00  0.22553497222E+03  0.22553497222E+03  0.00000000000E+00 0.  1.
          2   -1    0    0  501    0  0.00000000000E+00 -0.00000000000E+00 -0.25406788276E+04  0.25406788276E+04  0.00000000000E+00 0. -1.
         24    2    1    2    0    0  0.28483503345E+03  0.94769043847E+02 -0.14364100695E+04  0.14698302567E+04  0.83755165764E+02 0.  0.
        254    2    1    2    0    0 -0.28483503345E+03 -0.94769043847E+02 -0.87873378596E+03  0.12963835432E+04  0.90461320825E+03 0.  0.
         23    2    4    4    0    0  0.31750370362E+03  0.32037655712E+02 -0.31019238057E+03  0.45354593331E+03  0.87461920097E+02 0.  0.
         23    2    4    4    0    0 -0.60233873707E+03 -0.12680669956E+03 -0.56854140539E+03  0.84283760989E+03  0.90796551573E+02 0.  0.
          2    1    3    3  502    0  0.22767048052E+03  0.87683803194E+02 -0.12823904375E+04  0.13053917157E+04  0.00000000000E+00 0. -1.
         -1    1    3    3    0  502  0.57164552923E+02  0.70852406524E+01 -0.15401963193E+03  0.16443854100E+03  0.00000000000E+00 0.  1.
         13    1    5    5    0    0  0.30913477456E+02  0.58873673377E+01 -0.14828320718E+01  0.31504015197E+02  0.00000000000E+00 0. -1.
        -13    1    5    5    0    0  0.28659022616E+03  0.26150288374E+02 -0.30870954850E+03  0.42204191812E+03  0.00000000000E+00 0.  1.
          1    1    6    6  503    0 -0.34431552294E+03 -0.69961619793E+02 -0.38445691453E+03  0.52082139618E+03  0.00000000000E+00 0. -1.
         -1    1    6    6    0  503 -0.25802321412E+03 -0.56845079766E+02 -0.18408449086E+03  0.32201621372E+03  0.00000000000E+00 0.  1.
<mgrwt>
<rscale>  0 0.15139510E+04</rscale>
<asrwt>0</asrwt>
<pdfrwt beam="1">  1        2 0.39087362E+00 0.15139510E+04</pdfrwt>
<pdfrwt beam="2">  1       -1 0.34697692E-01 0.15139510E+04</pdfrwt>
<totfact> 0.28643766E+01</totfact>
</mgrwt>
</event>
<event>
12    7  0.1741211E-007  0.2118308E+04  0.7818608E-02  0.8553221E-01
          2   -1    0    0  501    0  0.00000000000E+00  0.00000000000E+00  0.96696284774E+03  0.96696284774E+03  0.00000000000E+00 0. -1.
         -1   -1    0    0    0  501 -0.00000000000E+00 -0.00000000000E+00 -0.11601345577E+04  0.11601345577E+04  0.00000000000E+00 0.  1.
         24    2    1    2    0    0  0.57747905491E+03  0.43568404773E+03  0.41193031170E+03  0.83619514222E+03  0.78949894709E+02 0.  0.
        254    2    1    2    0    0 -0.57747905491E+03 -0.43568404773E+03 -0.60510202168E+03  0.12909022632E+04  0.88146329946E+03 0.  0.
         23    2    4    4    0    0 -0.50164868837E+03 -0.14218782511E+03  0.80363521074E+02  0.53582975231E+03  0.93736032483E+02 0.  0.
         23    2    4    4    0    0 -0.75830366533E+02 -0.29349622262E+03 -0.68546554275E+03  0.75507251093E+03  0.91548944698E+02 0.  0.
          4    1    3    3  502    0  0.53128112036E+03  0.37057175964E+03  0.36228020187E+03  0.74217922536E+03  0.00000000000E+00 0. -1.
         -3    1    3    3    0  502  0.46197934549E+02  0.65112288086E+02  0.49650109838E+02  0.94015916861E+02  0.00000000000E+00 0.  1.
         13    1    5    5    0    0 -0.13827326419E+03 -0.68011366152E+02  0.56741685634E+02  0.16420919708E+03  0.00000000000E+00 0. -1.
        -13    1    5    5    0    0 -0.36337542418E+03 -0.74176458955E+02  0.23621835441E+02  0.37162055523E+03  0.00000000000E+00 0.  1.
          3    1    6    6  503    0 -0.95441419384E+02 -0.23009791914E+03 -0.51310228340E+03  0.57037537653E+03  0.00000000000E+00 0. -1.
         -3    1    6    6    0  503  0.19611052851E+02 -0.63398303485E+02 -0.17236325936E+03  0.18469713440E+03  0.00000000000E+00 0.  1.
<mgrwt>
<rscale>  0 0.21183078E+04</rscale>
<asrwt>0</asrwt>
<pdfrwt beam="1">  1        2 0.14876352E+00 0.21183078E+04</pdfrwt>
<pdfrwt beam="2">  1       -1 0.17848224E+00 0.21183078E+04</pdfrwt>
<totfact> 0.59275602E+00</totfact>
</mgrwt>
</event>
<event>
12    7  0.1741211E-007  0.1595855E+04  0.7818608E-02  0.8823098E-01
          2   -1    0    0  501    0  0.00000000000E+00  0.00000000000E+00  0.13963367762E+04  0.13963367762E+04  0.00000000000E+00 0. -1.
         -1   -1    0    0    0  501 -0.00000000000E+00 -0.00000000000E+00 -0.45597043255E+03  0.45597043255E+03  0.00000000000E+00 0.  1.
         24    2    1    2    0    0 -0.26127158831E+03  0.96231471599E+02  0.85451719244E+03  0.90234751532E+03  0.80672592938E+02 0.  0.
        254    2    1    2    0    0  0.26127158831E+03 -0.96231471599E+02  0.85849151210E+02  0.94995969342E+03  0.90417365776E+03 0.  0.
         23    2    4    4    0    0  0.47087964951E+03  0.17789814853E+03  0.23572961579E+03  0.56321840900E+03  0.90945747018E+02 0.  0.
         23    2    4    4    0    0 -0.20960806120E+03 -0.27412962012E+03 -0.14988046458E+03  0.38674128442E+03  0.89566062010E+02 0.  0.
          4    1    3    3  502    0 -0.16227038052E+03  0.65946803989E+02  0.40844491072E+03  0.44441861172E+03  0.00000000000E+00 0. -1.
         -3    1    3    3    0  502 -0.99001207787E+02  0.30284667610E+02  0.44607228172E+03  0.45792890360E+03  0.00000000000E+00 0.  1.
         13    1    5    5    0    0  0.41765950239E+03  0.12451305887E+03  0.19393498473E+03  0.47702593228E+03  0.00000000000E+00 0. -1.
        -13    1    5    5    0    0  0.53220147122E+02  0.53385089657E+02  0.41794631062E+02  0.86192476719E+02  0.00000000000E+00 0.  1.
          1    1    6    6  503    0  0.11606829376E+00 -0.64862691177E+01  0.92691658223E+01  0.11313823136E+02  0.00000000000E+00 0.  1.
         -1    1    6    6    0  503 -0.20972412950E+03 -0.26764335101E+03 -0.15914963041E+03  0.37542746129E+03  0.00000000000E+00 0. -1.
<mgrwt>
<rscale>  0 0.15958550E+04</rscale>
<asrwt>0</asrwt>
<pdfrwt beam="1">  1        2 0.21482104E+00 0.15958550E+04</pdfrwt>
<pdfrwt beam="2">  1       -1 0.70149298E-01 0.15958550E+04</pdfrwt>
<totfact> 0.32656134E+01</totfact>
</mgrwt>
</event>
<event>
12    7  0.1741211E-007  0.1634837E+04  0.7818608E-02  0.8799427E-01
         -1   -1    0    0    0  501 -0.00000000000E+00  0.00000000000E+00  0.32268743350E+03  0.32268743350E+03  0.00000000000E+00 0.  1.
          2   -1    0    0  501    0  0.00000000000E+00 -0.00000000000E+00 -0.20706512891E+04  0.20706512891E+04  0.00000000000E+00 0. -1.
         24    2    1    2    0    0  0.29631528589E+03  0.36699563022E+03 -0.10752318568E+04  0.11766995011E+04  0.77521794927E+02 0.  0.
        254    2    1    2    0    0 -0.29631528589E+03 -0.36699563022E+03 -0.67273199880E+03  0.12166392215E+04  0.89730380134E+03 0.  0.
         23    2    4    4    0    0 -0.80121500615E+02 -0.32264920614E+03 -0.85131854003E+03  0.91843231898E+03  0.90844388199E+02 0.  0.
         23    2    4    4    0    0 -0.21619378528E+03 -0.44346424082E+02  0.17858654123E+03  0.29820690255E+03  0.91257032074E+02 0.  0.
          2    1    3    3  502    0  0.28006441073E+03  0.35026032848E+03 -0.10528006192E+04  0.11443371512E+04  0.00000000000E+00 0. -1.
         -1    1    3    3    0  502  0.16250875167E+02  0.16735301743E+02 -0.22431237607E+02  0.32362349864E+02  0.00000000000E+00 0.  1.
         13    1    5    5    0    0 -0.48436326170E+02 -0.22726762745E+03 -0.47308835165E+03  0.52707612415E+03  0.00000000000E+00 0. -1.
        -13    1    5    5    0    0 -0.31685174445E+02 -0.95381578689E+02 -0.37823018837E+03  0.39135619483E+03  0.00000000000E+00 0.  1.
          2    1    6    6  503    0 -0.13596671835E+03 -0.72128035177E+02  0.11588133690E+03  0.19266002751E+03  0.00000000000E+00 0. -1.
         -2    1    6    6    0  503 -0.80227066922E+02  0.27781611095E+02  0.62705204329E+02  0.10554687505E+03  0.00000000000E+00 0.  1.
<mgrwt>
<rscale>  0 0.16348372E+04</rscale>
<asrwt>0</asrwt>
<pdfrwt beam="1">  1        2 0.31856173E+00 0.16348372E+04</pdfrwt>
<pdfrwt beam="2">  1       -1 0.49644222E-01 0.16348372E+04</pdfrwt>
<totfact> 0.27053619E+01</totfact>
</mgrwt>
</event>
<event>
12    7  0.1741211E-007  0.1953137E+04  0.7818608E-02  0.8628849E-01
         -1   -1    0    0    0  501 -0.00000000000E+00  0.00000000000E+00  0.67477254771E+03  0.67477254771E+03  0.00000000000E+00 0.  1.
          2   -1    0    0  501    0  0.00000000000E+00 -0.00000000000E+00 -0.14133446428E+04  0.14133446428E+04  0.00000000000E+00 0. -1.
         24    2    1    2    0    0 -0.48728665171E+03 -0.27128186433E+02 -0.92492724615E+03  0.10488184802E+04  0.79659112762E+02 0.  0.
        254    2    1    2    0    0  0.48728665171E+03  0.27128186433E+02  0.18635515100E+03  0.10392987104E+04  0.89845943017E+03 0.  0.
         23    2    4    4    0    0  0.39089540568E+03 -0.38305432039E+03 -0.32366835498E+02  0.55622498199E+03  0.93855143671E+02 0.  0.
         23    2    4    4    0    0  0.96391246033E+02  0.41018250683E+03  0.21872198650E+03  0.48307372840E+03  0.89330613305E+02 0.  0.
          4    1    3    3  502    0 -0.34944256075E+03 -0.35515901847E+02 -0.72788541133E+03  0.80820087513E+03  0.00000000000E+00 0. -1.
         -3    1    3    3    0  502 -0.13784409097E+03  0.83877154135E+01 -0.19704183482E+03  0.24061760504E+03  0.00000000000E+00 0.  1.
         13    1    5    5    0    0  0.15685455948E+03 -0.94559035057E+02 -0.23262261951E+02  0.18462366255E+03  0.00000000000E+00 0. -1.
        -13    1    5    5    0    0  0.23404084619E+03 -0.28849528533E+03 -0.91045735470E+01  0.37160131944E+03  0.00000000000E+00 0.  1.
          1    1    6    6  503    0  0.43658628532E+02  0.33780175647E+03  0.16304266606E+03  0.37762284555E+03  0.00000000000E+00 0. -1.
         -1    1    6    6    0  503  0.52732617501E+02  0.72380750352E+02  0.55679320435E+02  0.10545088285E+03  0.00000000000E+00 0.  1.
<mgrwt>
<rscale>  0 0.19531371E+04</rscale>
<asrwt>0</asrwt>
<pdfrwt beam="1">  1        2 0.21743763E+00 0.19531371E+04</pdfrwt>
<pdfrwt beam="2">  1       -1 0.10381116E+00 0.19531371E+04</pdfrwt>
<totfact> 0.13211047E+01</totfact>
</mgrwt>
</event>
<event>
12    7  0.1741211E-007  0.2164524E+04  0.7818608E-02  0.8533341E-01
          2   -1    0    0  501    0  0.00000000000E+00  0.00000000000E+00  0.54327261042E+03  0.54327261042E+03  0.00000000000E+00 0. -1.
         -1   -1    0    0    0  501 -0.00000000000E+00 -0.00000000000E+00 -0.21559908363E+04  0.21559908363E+04  0.00000000000E+00 0.  1.
         24    2    1    2    0    0 -0.17936712897E+03 -0.39645614928E+03  0.30241026278E+03  0.53584279304E+03  0.79532927514E+02 0.  0.
        254    2    1    2    0    0  0.17936712897E+03  0.39645614928E+03 -0.19151284886E+04  0.21634206537E+04  0.90737079046E+03 0.  0.
         23    2    4    4    0    0 -0.28815625176E+02  0.27268019461E+03 -0.64013809800E+02  0.29425190361E+03  0.85449319181E+02 0.  0.
         23    2    4    4    0    0  0.20818275415E+03  0.12377595467E+03 -0.18511146788E+04  0.18691687500E+04  0.92226437753E+02 0.  0.
          2    1    3    3  502    0 -0.13732614858E+03 -0.36457584259E+03  0.26742508150E+03  0.47253591429E+03  0.00000000000E+00 0. -1.
         -1    1    3    3    0  502 -0.42040980394E+02 -0.31880306692E+02  0.34985181289E+02  0.63306878750E+02  0.00000000000E+00 0.  1.
         13    1    5    5    0    0 -0.26454116742E+02  0.25979947878E+03 -0.36370227576E+02  0.26366338942E+03  0.00000000000E+00 0. -1.
        -13    1    5    5    0    0 -0.23615084334E+01  0.12880715829E+02 -0.27643582223E+02  0.30588514192E+02  0.00000000000E+00 0.  1.
          4    1    6    6  503    0  0.17580564372E+03  0.95154520787E+02 -0.17083698829E+04  0.17200260649E+04  0.00000000000E+00 0. -1.
         -4    1    6    6    0  503  0.32377110430E+02  0.28621433885E+02 -0.14274479594E+03  0.14914268512E+03  0.00000000000E+00 0.  1.
<mgrwt>
<rscale>  0 0.21645238E+04</rscale>
<asrwt>0</asrwt>
<pdfrwt beam="1">  1        2 0.83580403E-01 0.21645238E+04</pdfrwt>
<pdfrwt beam="2">  1       -1 0.33169089E+00 0.21645238E+04</pdfrwt>
<totfact> 0.12008439E+00</totfact>
</mgrwt>
</event>
<event>
12    7  0.1741211E-007  0.1384888E+04  0.7818608E-02  0.8964831E-01
         -1   -1    0    0    0  501 -0.00000000000E+00  0.00000000000E+00  0.63241487844E+03  0.63241487844E+03  0.00000000000E+00 0.  1.
          2   -1    0    0  501    0  0.00000000000E+00 -0.00000000000E+00 -0.75817117956E+03  0.75817117956E+03  0.00000000000E+00 0. -1.
         24    2    1    2    0    0  0.81292149009E+02 -0.11245906857E+03 -0.40871109290E+03  0.43881264449E+03  0.79096927321E+02 0.  0.
        254    2    1    2    0    0 -0.81292149009E+02  0.11245906857E+03  0.28295479178E+03  0.95177341350E+03  0.89808338191E+03 0.  0.
         23    2    4    4    0    0 -0.10898436008E+03  0.54950983617E+02 -0.31156303357E+03  0.34683634432E+03  0.91250887732E+02 0.  0.
         23    2    4    4    0    0  0.27692211073E+02  0.57508084952E+02  0.59451782535E+03  0.60493706918E+03  0.91778944338E+02 0.  0.
          4    1    3    3  502    0  0.80683476977E+02 -0.12245641919E+03 -0.39795633348E+03  0.42411630647E+03  0.00000000000E+00 0. -1.
         -3    1    3    3    0  502  0.60867203157E+00  0.99973506193E+01 -0.10754759425E+02  0.14696338025E+02  0.00000000000E+00 0.  1.
         13    1    5    5    0    0 -0.66330475897E+02  0.51987102120E+02 -0.28333257712E+03  0.29560064289E+03  0.00000000000E+00 0. -1.
        -13    1    5    5    0    0 -0.42653884184E+02  0.29638814965E+01 -0.28230456444E+02  0.51235701425E+02  0.00000000000E+00 0.  1.
          1    1    6    6  503    0  0.50045282051E+02  0.69900852174E+02  0.44002201302E+03  0.44834142273E+03  0.00000000000E+00 0. -1.
         -1    1    6    6    0  503 -0.22353070979E+02 -0.12392767222E+02  0.15449581232E+03  0.15659564645E+03  0.00000000000E+00 0.  1.
<mgrwt>
<rscale>  0 0.13848881E+04</rscale>
<asrwt>0</asrwt>
<pdfrwt beam="1">  1        2 0.11664172E+00 0.13848881E+04</pdfrwt>
<pdfrwt beam="2">  1       -1 0.97294598E-01 0.13848881E+04</pdfrwt>
<totfact> 0.41757479E+01</totfact>
</mgrwt>
</event>
<event>
12    7  0.1741211E-007  0.1870571E+04  0.7818608E-02  0.8669645E-01
          2   -1    0    0  501    0  0.00000000000E+00  0.00000000000E+00  0.17059692686E+04  0.17059692686E+04  0.00000000000E+00 0. -1.
         -3   -1    0    0    0  501 -0.00000000000E+00 -0.00000000000E+00 -0.51276384372E+03  0.51276384372E+03  0.00000000000E+00 0.  1.
         24    2    1    2    0    0  0.51500961248E+03  0.48482809460E+03  0.63235779234E+03  0.95248641933E+03  0.84028680869E+02 0.  0.
        254    2    1    2    0    0 -0.51500961248E+03 -0.48482809460E+03  0.56084763257E+03  0.12662466930E+04  0.88799630539E+03 0.  0.
         23    2    4    4    0    0 -0.52693357886E+03 -0.65125008301E+03  0.64162631658E+03  0.10592640600E+04  0.92576193329E+02 0.  0.
         23    2    4    4    0    0  0.11923966376E+02  0.16642198841E+03 -0.80778684017E+02  0.20698263301E+03  0.92076899242E+02 0.  0.
          4    1    3    3  502    0  0.31677260167E+03  0.28199907709E+03  0.43091117516E+03  0.60460962738E+03  0.00000000000E+00 0. -1.
         -3    1    3    3    0  502  0.19823701081E+03  0.20282901751E+03  0.20144661718E+03  0.34787679194E+03  0.00000000000E+00 0.  1.
         13    1    5    5    0    0 -0.17631712058E+03 -0.28034898628E+03  0.28087639994E+03  0.43425203875E+03  0.00000000000E+00 0.  1.
        -13    1    5    5    0    0 -0.35061645828E+03 -0.37090109673E+03  0.36074991664E+03  0.62501202127E+03  0.00000000000E+00 0. -1.
          4    1    6    6  503    0  0.41077956053E+02  0.15168900431E+03 -0.59718001117E+02  0.16811660287E+03  0.00000000000E+00 0. -1.
         -4    1    6    6    0  503 -0.29153989677E+02  0.14732984101E+02 -0.21060682899E+02  0.38866030139E+02  0.00000000000E+00 0.  1.
<mgrwt>
<rscale>  0 0.18705714E+04</rscale>
<asrwt>0</asrwt>
<pdfrwt beam="1">  1        2 0.26245681E+00 0.18705714E+04</pdfrwt>
<pdfrwt beam="2">  1       -3 0.78886746E-01 0.18705714E+04</pdfrwt>
<totfact> 0.87509286E+00</totfact>
</mgrwt>
</event>
<event>
12    7  0.1741211E-007  0.2828955E+04  0.7818608E-02  0.8294335E-01
          2   -1    0    0  501    0  0.00000000000E+00  0.00000000000E+00  0.35261056926E+04  0.35261056926E+04  0.00000000000E+00 0. -1.
         -1   -1    0    0    0  501 -0.00000000000E+00 -0.00000000000E+00 -0.56740971028E+03  0.56740971028E+03  0.00000000000E+00 0.  1.
         24    2    1    2    0    0 -0.10002355361E+03 -0.60635747648E+03  0.29446023566E+04  0.30090888403E+04  0.79110741669E+02 0.  0.
        254    2    1    2    0    0  0.10002355361E+03  0.60635747648E+03  0.14093625669E+02  0.10844265626E+04  0.89336903842E+03 0.  0.
         23    2    4    4    0    0  0.11360746944E+03  0.59297122971E+01 -0.34782579742E+03  0.37718530366E+03  0.91346315466E+02 0.  0.
         23    2    4    4    0    0 -0.13583915836E+02  0.60042776418E+03  0.36191942309E+03  0.70724125892E+03  0.92230725607E+02 0.  0.
          4    1    3    3  502    0 -0.77433171129E+02 -0.57809716712E+03  0.27546682259E+04  0.28157395593E+04  0.00000000000E+00 0. -1.
         -3    1    3    3    0  502 -0.22590382480E+02 -0.28260309363E+02  0.18993413068E+03  0.19334928100E+03  0.00000000000E+00 0.  1.
         13    1    5    5    0    0  0.93063404770E+02  0.82036775917E+01 -0.34361792006E+03  0.35609180364E+03  0.00000000000E+00 0. -1.
        -13    1    5    5    0    0  0.20544064674E+02 -0.22739652946E+01 -0.42078773612E+01  0.21093500027E+02  0.00000000000E+00 0.  1.
          2    1    6    6  503    0  0.48247806129E+01  0.36755834349E+03  0.17037359248E+03  0.40515376759E+03  0.00000000000E+00 0. -1.
         -2    1    6    6    0  503 -0.18408696448E+02  0.23286942069E+03  0.19154583060E+03  0.30208749133E+03  0.00000000000E+00 0.  1.
<mgrwt>
<rscale>  0 0.28289550E+04</rscale>
<asrwt>0</asrwt>
<pdfrwt beam="1">  1        2 0.54247779E+00 0.28289550E+04</pdfrwt>
<pdfrwt beam="2">  1       -1 0.87293804E-01 0.28289550E+04</pdfrwt>
<totfact> 0.99300061E-01</totfact>
</mgrwt>
</event>
<event>
12    7  0.1741211E-007  0.2517443E+04  0.7818608E-02  0.8396798E-01
         -1   -1    0    0    0  501 -0.00000000000E+00  0.00000000000E+00  0.85371720713E+03  0.85371720713E+03  0.00000000000E+00 0.  1.
          2   -1    0    0  501    0  0.00000000000E+00 -0.00000000000E+00 -0.18558606765E+04  0.18558606765E+04  0.00000000000E+00 0. -1.
         24    2    1    2    0    0 -0.10571652718E+04  0.20802778210E+03 -0.21214592009E+03  0.11009133121E+04  0.78295971700E+02 0.  0.
        254    2    1    2    0    0  0.10571652718E+04 -0.20802778210E+03 -0.78999754931E+03  0.16086645716E+04  0.89600870863E+03 0.  0.
         23    2    4    4    0    0  0.96589137691E+03  0.97358406765E+02 -0.30592692674E+03  0.10217989451E+04  0.89760728560E+02 0.  0.
         23    2    4    4    0    0  0.91273894913E+02 -0.30538618887E+03 -0.48407062256E+03  0.58686562648E+03  0.92169667824E+02 0.  0.
          2    1    3    3  502    0 -0.24804138480E+03  0.69183987726E+02 -0.78096007278E+02  0.26909094947E+03  0.00000000000E+00 0. -1.
         -1    1    3    3    0  502 -0.80912388702E+03  0.13884379438E+03 -0.13404991281E+03  0.83182236259E+03  0.00000000000E+00 0.  1.
         13    1    5    5    0    0  0.68920469070E+02  0.14849343639E+02 -0.46393183022E+02  0.84397046715E+02  0.00000000000E+00 0.  1.
        -13    1    5    5    0    0  0.89697090784E+03  0.82509063125E+02 -0.25953374372E+03  0.93740189841E+03  0.00000000000E+00 0. -1.
          2    1    6    6  503    0 -0.67346337080E+01 -0.30704167465E+02 -0.15750046005E+02  0.35159140207E+02  0.00000000000E+00 0. -1.
         -2    1    6    6    0  503  0.98008528621E+02 -0.27468202140E+03 -0.46832057656E+03  0.55170648627E+03  0.00000000000E+00 0.  1.
<mgrwt>
<rscale>  0 0.25174433E+04</rscale>
<asrwt>0</asrwt>
<pdfrwt beam="1">  1        2 0.28551703E+00 0.25174433E+04</pdfrwt>
<pdfrwt beam="2">  1       -1 0.13134111E+00 0.25174433E+04</pdfrwt>
<totfact> 0.40239484E+00</totfact>
</mgrwt>
</event>
<event>
12    7  0.1741211E-007  0.1501214E+04  0.7818608E-02  0.8883646E-01
         -1   -1    0    0    0  501 -0.00000000000E+00  0.00000000000E+00  0.27342835037E+03  0.27342835037E+03  0.00000000000E+00 0.  1.
          2   -1    0    0  501    0  0.00000000000E+00 -0.00000000000E+00 -0.20605424913E+04  0.20605424913E+04  0.00000000000E+00 0. -1.
         24    2    1    2    0    0  0.34331566354E+03  0.90985144738E+02 -0.74640766596E+02  0.37033783569E+03  0.73721958160E+02 0.  0.
        254    2    1    2    0    0 -0.34331566354E+03 -0.90985144738E+02 -0.17124733743E+04  0.19636330060E+04  0.89283009750E+03 0.  0.
         23    2    4    4    0    0 -0.48916887630E+03  0.19219583347E+03 -0.60028957223E+03  0.80317336737E+03  0.92273829367E+02 0.  0.
         23    2    4    4    0    0  0.14585321276E+03 -0.28318097821E+03 -0.11121838021E+04  0.11604596386E+04  0.90824760387E+02 0.  0.
          4    1    3    3  502    0  0.76085023998E+02 -0.10446923163E+02 -0.19475249183E+02  0.79229757106E+02  0.00000000000E+00 0. -1.
         -1    1    3    3    0  502  0.26723063954E+03  0.10143206790E+03 -0.55165517413E+02  0.29110807859E+03  0.00000000000E+00 0.  1.
         13    1    5    5    0    0 -0.14620554287E+03  0.58080442880E+02 -0.24706723968E+03  0.29290206474E+03  0.00000000000E+00 0.  1.
        -13    1    5    5    0    0 -0.34296333343E+03  0.13411539059E+03 -0.35322233255E+03  0.51027130262E+03  0.00000000000E+00 0. -1.
          1    1    6    6  503    0  0.14456605685E+03 -0.28480882718E+03 -0.11132243689E+04  0.11581381215E+04  0.00000000000E+00 0. -1.
         -1    1    6    6    0  503  0.12871559067E+01  0.16278489694E+01  0.10405668133E+01  0.23215171523E+01  0.00000000000E+00 0.  1.
<mgrwt>
<rscale>  0 0.15012138E+04</rscale>
<asrwt>0</asrwt>
<pdfrwt beam="1">  1        2 0.31700653E+00 0.15012138E+04</pdfrwt>
<pdfrwt beam="2">  1       -1 0.42065901E-01 0.15012138E+04</pdfrwt>
<totfact> 0.37786788E+01</totfact>
</mgrwt>
</event>
<event>
12    7  0.1741211E-007  0.2024695E+04  0.7818608E-02  0.8595161E-01
         -1   -1    0    0    0  501 -0.00000000000E+00  0.00000000000E+00  0.64563958943E+03  0.64563958943E+03  0.00000000000E+00 0.  1.
          2   -1    0    0  501    0  0.00000000000E+00 -0.00000000000E+00 -0.15873365417E+04  0.15873365417E+04  0.00000000000E+00 0. -1.
         24    2    1    2    0    0  0.66385888967E+03  0.29241912939E+03 -0.79188028490E+03  0.10770175876E+04  0.81700218880E+02 0.  0.
        254    2    1    2    0    0 -0.66385888967E+03 -0.29241912939E+03 -0.14981666739E+03  0.11559585436E+04  0.88745565973E+03 0.  0.
         23    2    4    4    0    0 -0.92430372817E+02  0.29349927082E+03 -0.10396366878E+02  0.32106337349E+03  0.91040702772E+02 0.  0.
         23    2    4    4    0    0 -0.57142851685E+03 -0.58591840021E+03 -0.13942030052E+03  0.83489517007E+03  0.88209995118E+02 0.  0.
          2    1    3    3  502    0  0.35487584569E+03  0.13087649781E+03 -0.46137602423E+03  0.59660150793E+03  0.00000000000E+00 0. -1.
         -1    1    3    3    0  502  0.30898304398E+03  0.16154263157E+03 -0.33050426067E+03  0.48041607967E+03  0.00000000000E+00 0.  1.
         13    1    5    5    0    0 -0.34197207036E+02  0.23705644787E+03 -0.13661123181E+02  0.23989963471E+03  0.00000000000E+00 0. -1.
        -13    1    5    5    0    0 -0.58233165781E+02  0.56442822950E+02  0.32647563031E+01  0.81163738783E+02  0.00000000000E+00 0.  1.
          1    1    6    6  503    0 -0.29857667322E+03 -0.35864222169E+03 -0.55013388518E+02  0.46989227051E+03  0.00000000000E+00 0. -1.
         -1    1    6    6    0  503 -0.27285184363E+03 -0.22727617852E+03 -0.84406911999E+02  0.36500289956E+03  0.00000000000E+00 0.  1.
<mgrwt>
<rscale>  0 0.20246949E+04</rscale>
<asrwt>0</asrwt>
<pdfrwt beam="1">  1        2 0.24420562E+00 0.20246949E+04</pdfrwt>
<pdfrwt beam="2">  1       -1 0.99329169E-01 0.20246949E+04</pdfrwt>
<totfact> 0.11588753E+01</totfact>
</mgrwt>
</event>
<event>
12    7  0.1741211E-007  0.1194478E+04  0.7818608E-02  0.9117704E-01
          2   -1    0    0  501    0  0.00000000000E+00  0.00000000000E+00  0.18788553381E+04  0.18788553381E+04  0.00000000000E+00 0. -1.
         -1   -1    0    0    0  501 -0.00000000000E+00 -0.00000000000E+00 -0.18984663242E+03  0.18984663242E+03  0.00000000000E+00 0.  1.
         24    2    1    2    0    0 -0.14856987286E+03 -0.17032115190E+03  0.16669460652E+03  0.29282351900E+03  0.82922973474E+02 0.  0.
        254    2    1    2    0    0  0.14856987286E+03  0.17032115190E+03  0.15223140992E+04  0.17758784515E+04  0.88612739273E+03 0.  0.
         23    2    4    4    0    0 -0.29128850890E+03  0.20759758854E+03  0.30787806525E+03  0.48067976788E+03  0.91205164324E+02 0.  0.
         23    2    4    4    0    0  0.43985838177E+03 -0.37276436641E+02  0.12144360339E+04  0.12951986836E+04  0.88429751140E+02 0.  0.
          2    1    3    3  502    0  0.88611655757E+01 -0.12612265277E+00  0.51408536919E+01  0.10245220299E+02  0.00000000000E+00 0. -1.
         -1    1    3    3    0  502 -0.15743103844E+03 -0.17019502925E+03  0.16155375283E+03  0.28257829870E+03  0.00000000000E+00 0.  1.
         13    1    5    5    0    0 -0.80211243903E+02  0.87352832569E+02  0.14890881717E+03  0.19036332850E+03  0.00000000000E+00 0.  1.
        -13    1    5    5    0    0 -0.21107726500E+03  0.12024475597E+03  0.15896924808E+03  0.29031643938E+03  0.00000000000E+00 0. -1.
          3    1    6    6  503    0  0.37136598479E+03 -0.59043240133E+01  0.10638291405E+04  0.11268007791E+04  0.00000000000E+00 0. -1.
         -3    1    6    6    0  503  0.68492396973E+02 -0.31372112628E+02  0.15060689343E+03  0.16839790451E+03  0.00000000000E+00 0.  1.
<mgrwt>
<rscale>  0 0.11944779E+04</rscale>
<asrwt>0</asrwt>
<pdfrwt beam="1">  1        2 0.28905465E+00 0.11944779E+04</pdfrwt>
<pdfrwt beam="2">  1       -1 0.29207176E-01 0.11944779E+04</pdfrwt>
<totfact> 0.93884267E+01</totfact>
</mgrwt>
</event>
<event>
12    7  0.1741211E-007  0.1351843E+04  0.7818608E-02  0.8989434E-01
         -1   -1    0    0    0  501 -0.00000000000E+00  0.00000000000E+00  0.31377154418E+03  0.31377154418E+03  0.00000000000E+00 0.  1.
          2   -1    0    0  501    0  0.00000000000E+00 -0.00000000000E+00 -0.14560583498E+04  0.14560583498E+04  0.00000000000E+00 0. -1.
         24    2    1    2    0    0  0.11178032113E+03 -0.29034387816E+03 -0.57072939474E+03  0.65495317806E+03  0.80232260720E+02 0.  0.
        254    2    1    2    0    0 -0.11178032113E+03  0.29034387816E+03 -0.57155741093E+03  0.11148767160E+04  0.90525013672E+03 0.  0.
         23    2    4    4    0    0  0.42978564905E+02 -0.28349982168E+03 -0.25870854258E+02  0.30289999841E+03  0.94126521241E+02 0.  0.
         23    2    4    4    0    0 -0.15475888604E+03  0.57384369985E+03 -0.54568655667E+03  0.81197671755E+03  0.91024540918E+02 0.  0.
          4    1    3    3  502    0  0.63302708773E+02 -0.12245426611E+03 -0.17829093186E+03  0.22536622775E+03  0.00000000000E+00 0. -1.
         -3    1    3    3    0  502  0.48477612360E+02 -0.16788961205E+03 -0.39243846287E+03  0.42958695031E+03  0.00000000000E+00 0.  1.
         13    1    5    5    0    0  0.18527864421E+01 -0.21927494459E+01 -0.18277153076E+02  0.18501224076E+02  0.00000000000E+00 0.  1.
        -13    1    5    5    0    0  0.41125778463E+02 -0.28130707224E+03 -0.75937011819E+01  0.28439877433E+03  0.00000000000E+00 0. -1.
          3    1    6    6  503    0 -0.13845526698E+03  0.37054115333E+03 -0.38893127040E+03  0.55474150770E+03  0.00000000000E+00 0. -1.
         -3    1    6    6    0  503 -0.16303619059E+02  0.20330254652E+03 -0.15675528627E+03  0.25723520985E+03  0.00000000000E+00 0.  1.
<mgrwt>
<rscale>  0 0.13518427E+04</rscale>
<asrwt>0</asrwt>
<pdfrwt beam="1">  1        2 0.22400897E+00 0.13518427E+04</pdfrwt>
<pdfrwt beam="2">  1       -1 0.48272546E-01 0.13518427E+04</pdfrwt>
<totfact> 0.64190477E+01</totfact>
</mgrwt>
</event>
<event>
12    7  0.1741211E-007  0.2615745E+04  0.7818608E-02  0.8362873E-01
         -1   -1    0    0    0  501 -0.00000000000E+00  0.00000000000E+00  0.20999286558E+04  0.20999286558E+04  0.00000000000E+00 0.  1.
          2   -1    0    0  501    0  0.00000000000E+00 -0.00000000000E+00 -0.81456584346E+03  0.81456584346E+03  0.00000000000E+00 0. -1.
         24    2    1    2    0    0 -0.71654508192E+02 -0.41989591198E+03  0.17626594748E+04  0.18151411287E+04  0.79510675648E+02 0.  0.
        254    2    1    2    0    0  0.71654508192E+02  0.41989591198E+03 -0.47729666247E+03  0.10993533706E+04  0.89404629854E+03 0.  0.
         23    2    4    4    0    0  0.28898806212E+03  0.58661336872E+03 -0.47001344079E+03  0.81018132976E+03  0.88610429161E+02 0.  0.
         23    2    4    4    0    0 -0.21733355393E+03 -0.16671745674E+03 -0.72832216791E+01  0.28917204081E+03  0.92405843008E+02 0.  0.
          2    1    3    3  502    0 -0.68460338756E+02 -0.35520517316E+03  0.15925664923E+04  0.16331336642E+04  0.00000000000E+00 0. -1.
         -1    1    3    3    0  502 -0.31941694360E+01 -0.64690738813E+02  0.17009298258E+03  0.18200746449E+03  0.00000000000E+00 0.  1.
         13    1    5    5    0    0  0.28503988542E+02  0.41798120853E+02 -0.67865551136E+02  0.84648055504E+02  0.00000000000E+00 0. -1.
        -13    1    5    5    0    0  0.26048407358E+03  0.54481524786E+03 -0.40214788965E+03  0.72553327425E+03  0.00000000000E+00 0.  1.
          4    1    6    6  503    0 -0.21990312949E+02  0.94741687800E+01  0.90602681040E+01  0.25601214732E+02  0.00000000000E+00 0. -1.
         -4    1    6    6    0  503 -0.19534324098E+03 -0.17619162552E+03 -0.16343489783E+02  0.26357082608E+03  0.00000000000E+00 0.  1.
<mgrwt>
<rscale>  0 0.26157448E+04</rscale>
<asrwt>0</asrwt>
<pdfrwt beam="1">  1        2 0.12531782E+00 0.26157448E+04</pdfrwt>
<pdfrwt beam="2">  1       -1 0.32306594E+00 0.26157448E+04</pdfrwt>
<totfact> 0.79175379E-01</totfact>
</mgrwt>
</event>
<event>
12    7  0.1741211E-007  0.1242240E+04  0.7818608E-02  0.9076667E-01
          2   -1    0    0  501    0  0.00000000000E+00  0.00000000000E+00  0.94360028663E+03  0.94360028663E+03  0.00000000000E+00 0. -1.
         -1   -1    0    0    0  501 -0.00000000000E+00 -0.00000000000E+00 -0.40884874486E+03  0.40884874486E+03  0.00000000000E+00 0.  1.
         24    2    1    2    0    0 -0.17677869294E+03 -0.17396063557E+02 -0.11634958036E+03  0.22725856927E+03  0.80968531844E+02 0.  0.
        254    2    1    2    0    0  0.17677869294E+03  0.17396063557E+02  0.65110112213E+03  0.11251904622E+04  0.90031526463E+03 0.  0.
         23    2    4    4    0    0  0.20199879426E+03  0.14898821093E+03 -0.14989875981E+03  0.30772826762E+03  0.96052322298E+02 0.  0.
         23    2    4    4    0    0 -0.25220101322E+02 -0.13159214738E+03  0.80099988194E+03  0.81746219460E+03  0.93225972587E+02 0.  0.
          2    1    3    3  502    0 -0.33771041280E+02  0.18632570356E+02 -0.55807482475E+02  0.67839008008E+02  0.00000000000E+00 0. -1.
         -1    1    3    3    0  502 -0.14300765166E+03 -0.36028633914E+02 -0.60542097889E+02  0.15941956126E+03  0.00000000000E+00 0.  1.
         13    1    5    5    0    0  0.83706507262E+02  0.55079024735E+02 -0.11534341343E+03  0.15278933649E+03  0.00000000000E+00 0.  1.
        -13    1    5    5    0    0  0.11829228700E+03  0.93909186199E+02 -0.34555346385E+02  0.15493893113E+03  0.00000000000E+00 0. -1.
          4    1    6    6  503    0  0.11551089856E+02 -0.94455261866E+02  0.66486805121E+03  0.67164332029E+03  0.00000000000E+00 0. -1.
         -4    1    6    6    0  503 -0.36771191178E+02 -0.37136885510E+02  0.13613183074E+03  0.14581887431E+03  0.00000000000E+00 0.  1.
<mgrwt>
<rscale>  0 0.12422396E+04</rscale>
<asrwt>0</asrwt>
<pdfrwt beam="1">  1        2 0.14516927E+00 0.12422396E+04</pdfrwt>
<pdfrwt beam="2">  1       -1 0.62899807E-01 0.12422396E+04</pdfrwt>
<totfact> 0.78917162E+01</totfact>
</mgrwt>
</event>
<event>
12    7  0.1741211E-007  0.2024024E+04  0.7818608E-02  0.8595470E-01
          2   -1    0    0  501    0  0.00000000000E+00  0.00000000000E+00  0.11653938945E+04  0.11653938945E+04  0.00000000000E+00 0. -1.
         -1   -1    0    0    0  501 -0.00000000000E+00 -0.00000000000E+00 -0.87881761136E+03  0.87881761136E+03  0.00000000000E+00 0.  1.
         24    2    1    2    0    0  0.59379353179E+03  0.83391581713E+02  0.65232188751E+03  0.88925144977E+03  0.75494249478E+02 0.  0.
        254    2    1    2    0    0 -0.59379353179E+03 -0.83391581713E+02 -0.36574560432E+03  0.11549600561E+04  0.91685220723E+03 0.  0.
         23    2    4    4    0    0 -0.24632673503E+03  0.40669657576E+03 -0.11598398123E+03  0.49828191655E+03  0.93560778836E+02 0.  0.
         23    2    4    4    0    0 -0.34746679676E+03 -0.49008815747E+03 -0.24976162309E+03  0.65667813959E+03  0.89026589842E+02 0.  0.
          4    1    3    3  502    0  0.39058129767E+03  0.40455982966E+02  0.47385872469E+03  0.61541248575E+03  0.00000000000E+00 0. -1.
         -3    1    3    3    0  502  0.20321223412E+03  0.42935598748E+02  0.17846316281E+03  0.27383896402E+03  0.00000000000E+00 0.  1.
         13    1    5    5    0    0 -0.21520978149E+02  0.25373113907E+01 -0.82504831477E+00  0.21685736194E+02  0.00000000000E+00 0.  1.
        -13    1    5    5    0    0 -0.22480575688E+03  0.40415926437E+03 -0.11515893291E+03  0.47659618035E+03  0.00000000000E+00 0. -1.
          1    1    6    6  503    0 -0.31930731814E+03 -0.42366094240E+03 -0.24504755847E+03  0.58437493396E+03  0.00000000000E+00 0. -1.
         -1    1    6    6    0  503 -0.28159478626E+02 -0.66427215075E+02 -0.47140646220E+01  0.72303205630E+02  0.00000000000E+00 0.  1.
<mgrwt>
<rscale>  0 0.20240244E+04</rscale>
<asrwt>0</asrwt>
<pdfrwt beam="1">  1        2 0.17929137E+00 0.20240244E+04</pdfrwt>
<pdfrwt beam="2">  1       -1 0.13520271E+00 0.20240244E+04</pdfrwt>
<totfact> 0.96413165E+00</totfact>
</mgrwt>
</event>
<event>
12    7  0.1741211E-007  0.1542938E+04  0.7818608E-02  0.8856391E-01
         -1   -1    0    0    0  501 -0.00000000000E+00  0.00000000000E+00  0.88995534485E+03  0.88995534485E+03  0.00000000000E+00 0.  1.
          2   -1    0    0  501    0  0.00000000000E+00 -0.00000000000E+00 -0.66875748202E+03  0.66875748202E+03  0.00000000000E+00 0. -1.
         24    2    1    2    0    0 -0.50286010553E+03 -0.16810833742E+02  0.12293823593E+03  0.52332183328E+03  0.74840106034E+02 0.  0.
        254    2    1    2    0    0  0.50286010553E+03  0.16810833742E+02  0.98259626908E+02  0.10353909936E+04  0.89957137875E+03 0.  0.
         23    2    4    4    0    0  0.43130939635E+03  0.25829620059E+03 -0.27155732434E+03  0.57852577454E+03  0.90575762648E+02 0.  0.
         23    2    4    4    0    0  0.71550709179E+02 -0.24148536685E+03  0.36981695125E+03  0.45686521905E+03  0.92339398739E+02 0.  0.
          4    1    3    3  502    0 -0.27372868052E+03 -0.69376946455E+01  0.28502553857E+02  0.27529605468E+03  0.00000000000E+00 0. -1.
         -3    1    3    3    0  502 -0.22913142501E+03 -0.98731390961E+01  0.94435682068E+02  0.24802577860E+03  0.00000000000E+00 0.  1.
         13    1    5    5    0    0  0.75184210447E+02  0.63419996087E+02 -0.18301235543E+02  0.10004847139E+03  0.00000000000E+00 0. -1.
        -13    1    5    5    0    0  0.35612518590E+03  0.19487620451E+03 -0.25325608880E+03  0.47847730315E+03  0.00000000000E+00 0.  1.
          1    1    6    6  503    0  0.13507145394E+02  0.53381260462E+01  0.24003712401E+02  0.28055601498E+02  0.00000000000E+00 0. -1.
         -1    1    6    6    0  503  0.58043563785E+02 -0.24682349290E+03  0.34581323885E+03  0.42880961755E+03  0.00000000000E+00 0.  1.
<mgrwt>
<rscale>  0 0.15429378E+04</rscale>
<asrwt>0</asrwt>
<pdfrwt beam="1">  1        2 0.10288577E+00 0.15429378E+04</pdfrwt>
<pdfrwt beam="2">  1       -1 0.13691621E+00 0.15429378E+04</pdfrwt>
<totfact> 0.21211709E+01</totfact>
</mgrwt>
</event>
<event>
12    7  0.1741211E-007  0.2161025E+04  0.7818608E-02  0.8534828E-01
          2   -1    0    0  501    0  0.00000000000E+00  0.00000000000E+00  0.22668215175E+04  0.22668215175E+04  0.00000000000E+00 0. -1.
         -1   -1    0    0    0  501 -0.00000000000E+00 -0.00000000000E+00 -0.51504134252E+03  0.51504134252E+03  0.00000000000E+00 0.  1.
         24    2    1    2    0    0 -0.50819836613E+03  0.58428168093E+03  0.12907795169E+04  0.15074684403E+04  0.81845435058E+02 0.  0.
        254    2    1    2    0    0  0.50819836613E+03 -0.58428168093E+03  0.46100065808E+03  0.12743944197E+04  0.90105985831E+03 0.  0.
         23    2    4    4    0    0  0.30169617967E+03  0.13221685696E+03 -0.77710621053E+02  0.35006501818E+03  0.89468956839E+02 0.  0.
         23    2    4    4    0    0  0.20650218646E+03 -0.71649853789E+03  0.53871127914E+03  0.92432940154E+03  0.90342085798E+02 0.  0.
          2    1    3    3  502    0 -0.47223993714E+03  0.56876676765E+03  0.12169073959E+04  0.14238573680E+04  0.00000000000E+00 0. -1.
         -1    1    3    3    0  502 -0.35958428983E+02  0.15514913278E+02  0.73872121067E+02  0.83611072353E+02  0.00000000000E+00 0.  1.
         13    1    5    5    0    0  0.29517982831E+02 -0.65743680653E+01  0.10584170084E+02  0.32039948225E+02  0.00000000000E+00 0.  1.
        -13    1    5    5    0    0  0.27217819684E+03  0.13879122503E+03 -0.88294791138E+02  0.31802506996E+03  0.00000000000E+00 0. -1.
          3    1    6    6  503    0  0.12025723809E+03 -0.44701624006E+03  0.38644599342E+03  0.60301395342E+03  0.00000000000E+00 0. -1.
         -3    1    6    6    0  503  0.86244948371E+02 -0.26948229784E+03  0.15226528571E+03  0.32131544812E+03  0.00000000000E+00 0.  1.
<mgrwt>
<rscale>  0 0.21610246E+04</rscale>
<asrwt>0</asrwt>
<pdfrwt beam="1">  1        2 0.34874177E+00 0.21610246E+04</pdfrwt>
<pdfrwt beam="2">  1       -1 0.79237131E-01 0.21610246E+04</pdfrwt>
<totfact> 0.78656625E+00</totfact>
</mgrwt>
</event>
<event>
12    7  0.1741211E-007  0.2687521E+04  0.7818608E-02  0.8339065E-01
          2   -1    0    0  501    0  0.00000000000E+00  0.00000000000E+00  0.18907230189E+04  0.18907230189E+04  0.00000000000E+00 0. -1.
         -1   -1    0    0    0  501 -0.00000000000E+00 -0.00000000000E+00 -0.95502737332E+03  0.95502737332E+03  0.00000000000E+00 0.  1.
         24    2    1    2    0    0 -0.91443070609E+03 -0.44063661872E+03 -0.24636107508E+03  0.10474738929E+04  0.78508795096E+02 0.  0.
        254    2    1    2    0    0  0.91443070609E+03  0.44063661872E+03  0.11820567207E+04  0.17982764994E+04  0.89788425275E+03 0.  0.
         23    2    4    4    0    0  0.97748063951E+03  0.16715152893E+03  0.64729156490E+03  0.11877141910E+04  0.90942812483E+02 0.  0.
         23    2    4    4    0    0 -0.63049933426E+02  0.27348508979E+03  0.53476515580E+03  0.61056230845E+03  0.89683734300E+02 0.  0.
          2    1    3    3  502    0 -0.16691579704E+03 -0.65211877849E+02 -0.71252326709E+02  0.19284803959E+03  0.00000000000E+00 0. -1.
         -1    1    3    3    0  502 -0.74751490905E+03 -0.37542474087E+03 -0.17510874838E+03  0.85462585327E+03  0.00000000000E+00 0.  1.
         13    1    5    5    0    0  0.48343086193E+03  0.93812058034E+02  0.37400052794E+03  0.61837083971E+03  0.00000000000E+00 0. -1.
        -13    1    5    5    0    0  0.49404977758E+03  0.73339470896E+02  0.27329103696E+03  0.56934335124E+03  0.00000000000E+00 0.  1.
          3    1    6    6  503    0 -0.39072456004E+02  0.13548225103E+03  0.17662619945E+03  0.22600644127E+03  0.00000000000E+00 0. -1.
         -3    1    6    6    0  503 -0.23977477422E+02  0.13800283877E+03  0.35813895635E+03  0.38455586718E+03  0.00000000000E+00 0.  1.
<mgrwt>
<rscale>  0 0.26875210E+04</rscale>
<asrwt>0</asrwt>
<pdfrwt beam="1">  1        2 0.29088046E+00 0.26875210E+04</pdfrwt>
<pdfrwt beam="2">  1       -1 0.14692729E+00 0.26875210E+04</pdfrwt>
<totfact> 0.28324162E+00</totfact>
</mgrwt>
</event>
<event>
12    7  0.1741211E-007  0.1083030E+04  0.7818608E-02  0.9221891E-01
          2   -1    0    0  501    0  0.00000000000E+00  0.00000000000E+00  0.52288171554E+03  0.52288171554E+03  0.00000000000E+00 0. -1.
         -1   -1    0    0    0  501 -0.00000000000E+00 -0.00000000000E+00 -0.56081242929E+03  0.56081242929E+03  0.00000000000E+00 0.  1.
         24    2    1    2    0    0  0.84049596890E+02  0.89728360809E+02  0.88121236547E+02  0.17061457454E+03  0.78920638892E+02 0.  0.
        254    2    1    2    0    0 -0.84049596890E+02 -0.89728360809E+02 -0.12605195030E+03  0.91307957029E+03  0.89594067551E+03 0.  0.
         23    2    4    4    0    0 -0.29578985502E+03  0.19761014540E+02  0.29009418835E+03  0.42464222929E+03  0.91017848538E+02 0.  0.
         23    2    4    4    0    0  0.21174025813E+03 -0.10948937535E+03 -0.41614613866E+03  0.48843734100E+03  0.92582758328E+02 0.  0.
          2    1    3    3  502    0  0.90437846775E+02  0.99100541017E+02  0.76806041442E+02  0.15459330309E+03  0.00000000000E+00 0. -1.
         -1    1    3    3    0  502 -0.63882498848E+01 -0.93721802081E+01  0.11315195105E+02  0.16021271444E+02  0.00000000000E+00 0.  1.
         13    1    5    5    0    0 -0.62192072345E+02 -0.33018097208E+02  0.59507444155E+02  0.92191021882E+02  0.00000000000E+00 0.  1.
        -13    1    5    5    0    0 -0.23359778267E+03  0.52779111748E+02  0.23058674420E+03  0.33245120741E+03  0.00000000000E+00 0. -1.
          3    1    6    6  503    0  0.12672903305E+03 -0.68451050828E+02 -0.15913541547E+03  0.21463894016E+03  0.00000000000E+00 0. -1.
         -3    1    6    6    0  503  0.85011225076E+02 -0.41038324521E+02 -0.25701072319E+03  0.27379840084E+03  0.00000000000E+00 0.  1.
<mgrwt>
<rscale>  0 0.10830301E+04</rscale>
<asrwt>0</asrwt>
<pdfrwt beam="1">  1        2 0.80443341E-01 0.10830301E+04</pdfrwt>
<pdfrwt beam="2">  1       -1 0.86278835E-01 0.10830301E+04</pdfrwt>
<totfact> 0.88064598E+01</totfact>
</mgrwt>
</event>
<event>
12    7  0.1741211E-007  0.2649925E+04  0.7818608E-02  0.8351438E-01
         -1   -1    0    0    0  501 -0.00000000000E+00  0.00000000000E+00  0.64465649615E+03  0.64465649615E+03  0.00000000000E+00 0.  1.
          2   -1    0    0  501    0  0.00000000000E+00 -0.00000000000E+00 -0.27231964374E+04  0.27231964374E+04  0.00000000000E+00 0. -1.
         24    2    1    2    0    0  0.36908890044E+03  0.46239279237E+03 -0.22150836233E+04  0.22940166233E+04  0.76701363252E+02 0.  0.
        254    2    1    2    0    0 -0.36908890044E+03 -0.46239279237E+03  0.13654368200E+03  0.10738363102E+04  0.88568986289E+03 0.  0.
         23    2    4    4    0    0 -0.87264495283E+02 -0.18683359301E+03  0.48867736646E+03  0.53761571004E+03  0.87767873279E+02 0.  0.
         23    2    4    4    0    0 -0.28182440516E+03 -0.27555919936E+03 -0.35213368446E+03  0.53622060020E+03  0.90424181780E+02 0.  0.
          4    1    3    3  502    0  0.23809774706E+03  0.28563169952E+03 -0.15265456812E+04  0.15711835417E+04  0.00000000000E+00 0. -1.
         -3    1    3    3    0  502  0.13099115338E+03  0.17676109286E+03 -0.68853794204E+03  0.72283308159E+03  0.00000000000E+00 0.  1.
         13    1    5    5    0    0 -0.11012219984E+01 -0.89864377531E+02  0.14891655981E+03  0.17393378287E+03  0.00000000000E+00 0.  1.
        -13    1    5    5    0    0 -0.86163273285E+02 -0.96969215478E+02  0.33976080665E+03  0.36368192717E+03  0.00000000000E+00 0. -1.
          3    1    6    6  503    0 -0.95449023167E+02 -0.15456775583E+03 -0.14483851389E+03  0.23233575332E+03  0.00000000000E+00 0. -1.
         -3    1    6    6    0  503 -0.18637538199E+03 -0.12099144354E+03 -0.20729517057E+03  0.30388484688E+03  0.00000000000E+00 0.  1.
<mgrwt>
<rscale>  0 0.26499255E+04</rscale>
<asrwt>0</asrwt>
<pdfrwt beam="1">  1        2 0.41895329E+00 0.26499255E+04</pdfrwt>
<pdfrwt beam="2">  1       -1 0.99177924E-01 0.26499255E+04</pdfrwt>
<totfact> 0.25015278E+00</totfact>
</mgrwt>
</event>
<event>
12    7  0.1741211E-007  0.2237340E+04  0.7818608E-02  0.8503045E-01
         -3   -1    0    0    0  501 -0.00000000000E+00  0.00000000000E+00  0.58410523324E+03  0.58410523324E+03  0.00000000000E+00 0.  1.
          2   -1    0    0  501    0  0.00000000000E+00 -0.00000000000E+00 -0.21424605688E+04  0.21424605688E+04  0.00000000000E+00 0. -1.
         24    2    1    2    0    0 -0.41323518949E+03 -0.23232877593E+03  0.33070489946E+03  0.58323484235E+03  0.77827815379E+02 0.  0.
        254    2    1    2    0    0  0.41323518949E+03  0.23232877593E+03 -0.18890602351E+04  0.21433309597E+04  0.89475083081E+03 0.  0.
         23    2    4    4    0    0  0.65010949302E+03  0.33151436799E+02 -0.99156971080E+03  0.11896493727E+04  0.91179866232E+02 0.  0.
         23    2    4    4    0    0 -0.23687430353E+03  0.19917733913E+03 -0.89749052428E+03  0.95368158699E+03  0.90764971795E+02 0.  0.
          2    1    3    3  502    0 -0.21760699862E+03 -0.16379984497E+03  0.20400256514E+03  0.34029434560E+03  0.00000000000E+00 0. -1.
         -1    1    3    3    0  502 -0.19562819087E+03 -0.68528930960E+02  0.12670233432E+03  0.24294049676E+03  0.00000000000E+00 0.  1.
         13    1    5    5    0    0  0.39561801865E+03  0.37554282888E+02 -0.52850824845E+03  0.66124496938E+03  0.00000000000E+00 0.  1.
        -13    1    5    5    0    0  0.25449147437E+03 -0.44028460893E+01 -0.46306146235E+03  0.52840440336E+03  0.00000000000E+00 0. -1.
          4    1    6    6  503    0 -0.80943370406E+02  0.86833999197E+02 -0.47372824208E+03  0.48837528600E+03  0.00000000000E+00 0.  1.
         -4    1    6    6    0  503 -0.15593093312E+03  0.11234333993E+03 -0.42376228220E+03  0.46530630099E+03  0.00000000000E+00 0. -1.
<mgrwt>
<rscale>  0 0.22373399E+04</rscale>
<asrwt>0</asrwt>
<pdfrwt beam="1">  1        2 0.32960931E+00 0.22373399E+04</pdfrwt>
<pdfrwt beam="2">  1       -3 0.89862345E-01 0.22373399E+04</pdfrwt>
<totfact> 0.36229375E+00</totfact>
</mgrwt>
</event>
<event>
12    7  0.1741211E-007  0.1142743E+04  0.7818608E-02  0.9164504E-01
         -1   -1    0    0    0  501 -0.00000000000E+00  0.00000000000E+00  0.26660017550E+03  0.26660017550E+03  0.00000000000E+00 0.  1.
          2   -1    0    0  501    0  0.00000000000E+00 -0.00000000000E+00 -0.12245511163E+04  0.12245511163E+04  0.00000000000E+00 0. -1.
         24    2    1    2    0    0 -0.96062747628E+02 -0.37242566238E+02 -0.42196710518E+03  0.43957123906E+03  0.67465369921E+02 0.  0.
        254    2    1    2    0    0  0.96062747628E+02  0.37242566238E+02 -0.53598383559E+03  0.10515800527E+04  0.89884752602E+03 0.  0.
         23    2    4    4    0    0  0.70118975252E+02 -0.22885518056E+03 -0.68531207361E+03  0.73145331826E+03  0.89888565468E+02 0.  0.
         23    2    4    4    0    0  0.25943772376E+02  0.26609774679E+03  0.14932823802E+03  0.32012673445E+03  0.93279758060E+02 0.  0.
          4    1    3    3  502    0 -0.56919660245E+01 -0.31700795908E+02 -0.12705490225E+03  0.13107359430E+03  0.00000000000E+00 0. -1.
         -3    1    3    3    0  502 -0.90370781603E+02 -0.55417703301E+01 -0.29491220293E+03  0.30849764476E+03  0.00000000000E+00 0.  1.
         13    1    5    5    0    0  0.23512241132E+02 -0.29364256783E+02 -0.42357949110E+02  0.56650515551E+02  0.00000000000E+00 0.  1.
        -13    1    5    5    0    0  0.46606734121E+02 -0.19949092377E+03 -0.64295412450E+03  0.67480280271E+03  0.00000000000E+00 0. -1.
          4    1    6    6  503    0  0.37452446010E+02  0.58157041709E+02  0.66645165237E+02  0.96054699322E+02  0.00000000000E+00 0. -1.
         -4    1    6    6    0  503 -0.11508673635E+02  0.20794070509E+03  0.82683072786E+02  0.22407203513E+03  0.00000000000E+00 0.  1.
<mgrwt>
<rscale>  0 0.11427433E+04</rscale>
<asrwt>0</asrwt>
<pdfrwt beam="1">  1        2 0.18839248E+00 0.11427433E+04</pdfrwt>
<pdfrwt beam="2">  1       -1 0.41015412E-01 0.11427433E+04</pdfrwt>
<totfact> 0.12016108E+02</totfact>
</mgrwt>
</event>
<event>
12    7  0.1741211E-007  0.1411846E+04  0.7818608E-02  0.8945288E-01
          2   -1    0    0  501    0  0.00000000000E+00  0.00000000000E+00  0.17531330628E+04  0.17531330628E+04  0.00000000000E+00 0. -1.
         -1   -1    0    0    0  501 -0.00000000000E+00 -0.00000000000E+00 -0.28424950149E+03  0.28424950149E+03  0.00000000000E+00 0.  1.
         24    2    1    2    0    0  0.17122898126E+03 -0.40316525812E+03  0.70070208659E+03  0.83067328692E+03  0.84694191493E+02 0.  0.
        254    2    1    2    0    0 -0.17122898126E+03  0.40316525812E+03  0.76818147471E+03  0.12067092774E+04  0.82108642214E+03 0.  0.
         23    2    4    4    0    0  0.25536485106E+03 -0.68098492852E+02  0.15987068665E+03  0.32218790592E+03  0.91639502312E+02 0.  0.
         23    2    4    4    0    0 -0.42659383232E+03  0.47126375097E+03  0.60831078806E+03  0.88452137145E+03  0.90907760574E+02 0.  0.
          2    1    3    3  502    0  0.43833205997E+02 -0.54775937914E+02  0.16271091953E+03  0.17719084812E+03  0.00000000000E+00 0. -1.
         -1    1    3    3    0  502  0.12739577526E+03 -0.34838932020E+03  0.53799116706E+03  0.65348243880E+03  0.00000000000E+00 0.  1.
         13    1    5    5    0    0  0.64572270994E+01  0.86015010353E+01  0.28527793285E+02  0.30487974540E+02  0.00000000000E+00 0. -1.
        -13    1    5    5    0    0  0.24890762396E+03 -0.76699993887E+02  0.13134289337E+03  0.29169993138E+03  0.00000000000E+00 0.  1.
          4    1    6    6  503    0 -0.84683345433E+02  0.69714065307E+02  0.65806753640E+02  0.12791344230E+03  0.00000000000E+00 0. -1.
         -4    1    6    6    0  503 -0.34191048688E+03  0.40154968566E+03  0.54250403442E+03  0.75660792915E+03  0.00000000000E+00 0.  1.
<mgrwt>
<rscale>  0 0.14118459E+04</rscale>
<asrwt>0</asrwt>
<pdfrwt beam="1">  1        2 0.26971277E+00 0.14118459E+04</pdfrwt>
<pdfrwt beam="2">  1       -1 0.43730693E-01 0.14118459E+04</pdfrwt>
<totfact> 0.52435856E+01</totfact>
</mgrwt>
</event>
<event>
12    7  0.1741211E-007  0.2059414E+04  0.7818608E-02  0.8579336E-01
          2   -1    0    0  501    0  0.00000000000E+00  0.00000000000E+00  0.23236940237E+04  0.23236940237E+04  0.00000000000E+00 0. -1.
         -1   -1    0    0    0  501 -0.00000000000E+00 -0.00000000000E+00 -0.45629778372E+03  0.45629778372E+03  0.00000000000E+00 0.  1.
         24    2    1    2    0    0  0.24965060883E+03 -0.62153039726E+03  0.95617102782E+02  0.68071325739E+03  0.74849497199E+02 0.  0.
        254    2    1    2    0    0 -0.24965060883E+03  0.62153039726E+03  0.17717791372E+04  0.20992785500E+04  0.90506555471E+03 0.  0.
         23    2    4    4    0    0 -0.18603332068E+03  0.55329698111E+03  0.38158576855E+03  0.70303140247E+03  0.88879178637E+02 0.  0.
         23    2    4    4    0    0 -0.63617288152E+02  0.68233416152E+02  0.13901933686E+04  0.13962471475E+04  0.90363357399E+02 0.  0.
          2    1    3    3  502    0  0.45548633447E+02 -0.98511196246E+02 -0.11547852709E+02  0.10914433882E+03  0.00000000000E+00 0. -1.
         -1    1    3    3    0  502  0.20410197539E+03 -0.52301920102E+03  0.10716495549E+03  0.57156891857E+03  0.00000000000E+00 0.  1.
         13    1    5    5    0    0 -0.17335944752E+02  0.71673806902E+01  0.97898635370E+01  0.21160050909E+02  0.00000000000E+00 0. -1.
        -13    1    5    5    0    0 -0.16869737593E+03  0.54612960042E+03  0.37179590501E+03  0.68187135157E+03  0.00000000000E+00 0.  1.
          4    1    6    6  503    0 -0.83055155140E+01  0.55242002152E+02  0.34349725875E+03  0.34801009635E+03  0.00000000000E+00 0. -1.
         -4    1    6    6    0  503 -0.55311772638E+02  0.12991414001E+02  0.10466961099E+04  0.10482370512E+04  0.00000000000E+00 0.  1.
<mgrwt>
<rscale>  0 0.20594139E+04</rscale>
<asrwt>0</asrwt>
<pdfrwt beam="1">  1        2 0.35749138E+00 0.20594139E+04</pdfrwt>
<pdfrwt beam="2">  1       -1 0.70199660E-01 0.20594139E+04</pdfrwt>
<totfact> 0.94892533E+00</totfact>
</mgrwt>
</event>
<event>
12    7  0.1741211E-007  0.2393845E+04  0.7818608E-02  0.8441811E-01
         -1   -1    0    0    0  501 -0.00000000000E+00  0.00000000000E+00  0.14327923955E+04  0.14327923955E+04  0.00000000000E+00 0.  1.
          2   -1    0    0  501    0  0.00000000000E+00 -0.00000000000E+00 -0.99988222860E+03  0.99988222860E+03  0.00000000000E+00 0. -1.
         24    2    1    2    0    0 -0.24849101314E+03 -0.86761670829E+03  0.67961056317E+03  0.11325815059E+04  0.79773516324E+02 0.  0.
        254    2    1    2    0    0  0.24849101314E+03  0.86761670829E+03 -0.24670039626E+03  0.13000931182E+04  0.90270399040E+03 0.  0.
         23    2    4    4    0    0  0.57091019213E+03  0.40898676477E+03 -0.14435516452E+03  0.72288348734E+03  0.92268637696E+02 0.  0.
         23    2    4    4    0    0 -0.32241917899E+03  0.45862994352E+03 -0.10234523173E+03  0.57720963084E+03  0.91656202165E+02 0.  0.
          4    1    3    3  502    0 -0.21922905168E+01  0.58649571730E+00  0.60792372332E+01  0.64890091905E+01  0.00000000000E+00 0. -1.
         -3    1    3    3    0  502 -0.24629872263E+03 -0.86820320401E+03  0.67353132594E+03  0.11260924967E+04  0.00000000000E+00 0.  1.
         13    1    5    5    0    0  0.28898103178E+03  0.23254155199E+03 -0.34082175836E+02  0.37248785865E+03  0.00000000000E+00 0. -1.
        -13    1    5    5    0    0  0.28192916035E+03  0.17644521278E+03 -0.11027298869E+03  0.35039562869E+03  0.00000000000E+00 0.  1.
          2    1    6    6  503    0 -0.10596522680E+03  0.11306727769E+03 -0.63988163345E+02  0.16765238926E+03  0.00000000000E+00 0. -1.
         -2    1    6    6    0  503 -0.21645395219E+03  0.34556266583E+03 -0.38357068388E+02  0.40955724158E+03  0.00000000000E+00 0.  1.
<mgrwt>
<rscale>  0 0.23938452E+04</rscale>
<asrwt>0</asrwt>
<pdfrwt beam="1">  1        2 0.15382804E+00 0.23938452E+04</pdfrwt>
<pdfrwt beam="2">  1       -1 0.22042960E+00 0.23938452E+04</pdfrwt>
<totfact> 0.28252208E+00</totfact>
</mgrwt>
</event>
<event>
12    7  0.1741211E-007  0.3544462E+04  0.7818608E-02  0.8103333E-01
         -1   -1    0    0    0  501 -0.00000000000E+00  0.00000000000E+00  0.10799912373E+04  0.10799912373E+04  0.00000000000E+00 0.  1.
          2   -1    0    0  501    0  0.00000000000E+00 -0.00000000000E+00 -0.29081741319E+04  0.29081741319E+04  0.00000000000E+00 0. -1.
         24    2    1    2    0    0 -0.13250807808E+04  0.70802106477E+03 -0.16676822189E+04  0.22460860495E+04  0.81275179101E+02 0.  0.
        254    2    1    2    0    0  0.13250807808E+04 -0.70802106477E+03 -0.16050067570E+03  0.17420793197E+04  0.86714876769E+03 0.  0.
         23    2    4    4    0    0  0.93895659876E+03 -0.58949665522E+03  0.27055545375E+03  0.11449566753E+04  0.92626853579E+02 0.  0.
         23    2    4    4    0    0  0.38612418203E+03 -0.11852440955E+03 -0.43105612945E+03  0.59712264431E+03  0.87213221515E+02 0.  0.
          4    1    3    3  502    0 -0.73216198047E+03  0.36481850601E+03 -0.95687807256E+03  0.12588762265E+04  0.00000000000E+00 0. -1.
         -1    1    3    3    0  502 -0.59291880032E+03  0.34320255876E+03 -0.71080414632E+03  0.98720982296E+03  0.00000000000E+00 0.  1.
         13    1    5    5    0    0  0.65420399320E+03 -0.36798145192E+03  0.20719830372E+03  0.77866831882E+03  0.00000000000E+00 0.  1.
        -13    1    5    5    0    0  0.28475260556E+03 -0.22151520330E+03  0.63357150029E+02  0.36628835653E+03  0.00000000000E+00 0. -1.
          1    1    6    6  503    0  0.21250713906E+03 -0.56776759348E+02 -0.17205648270E+03  0.27926030472E+03  0.00000000000E+00 0. -1.
         -1    1    6    6    0  503  0.17361704297E+03 -0.61747650206E+02 -0.25899964674E+03  0.31786233959E+03  0.00000000000E+00 0.  1.
<mgrwt>
<rscale>  0 0.35444619E+04</rscale>
<asrwt>0</asrwt>
<pdfrwt beam="1">  1        2 0.44741140E+00 0.35444619E+04</pdfrwt>
<pdfrwt beam="2">  1       -1 0.16615250E+00 0.35444619E+04</pdfrwt>
<totfact> 0.48489895E-01</totfact>
</mgrwt>
</event>
<event>
12    7  0.1741211E-007  0.1556046E+04  0.7818608E-02  0.8848015E-01
          2   -1    0    0  501    0  0.00000000000E+00  0.00000000000E+00  0.12944648415E+04  0.12944648415E+04  0.00000000000E+00 0. -1.
         -1   -1    0    0    0  501 -0.00000000000E+00 -0.00000000000E+00 -0.46762195277E+03  0.46762195277E+03  0.00000000000E+00 0.  1.
         24    2    1    2    0    0  0.40545390413E+03 -0.70031253378E+02  0.61822455596E+03  0.74685610553E+03  0.79342270895E+02 0.  0.
        254    2    1    2    0    0 -0.40545390413E+03  0.70031253378E+02  0.20861833280E+03  0.10152306888E+04  0.90436414006E+03 0.  0.
         23    2    4    4    0    0 -0.44903447751E+03  0.31525876666E+03 -0.14381765661E+03  0.57452813652E+03  0.91536928900E+02 0.  0.
         23    2    4    4    0    0  0.43580573382E+02 -0.24522751328E+03  0.35243598941E+03  0.44070255226E+03  0.89285011561E+02 0.  0.
          4    1    3    3  502    0  0.33091446672E+03 -0.38728068441E+02  0.53902244091E+03  0.63367928747E+03  0.00000000000E+00 0. -1.
         -3    1    3    3    0  502  0.74539437412E+02 -0.31303184937E+02  0.79202115050E+02  0.11317681806E+03  0.00000000000E+00 0.  1.
         13    1    5    5    0    0 -0.26838422357E+03  0.22855706559E+03 -0.61222682922E+02  0.35779413158E+03  0.00000000000E+00 0.  1.
        -13    1    5    5    0    0 -0.18065025394E+03  0.86701701070E+02 -0.82594973687E+02  0.21673400494E+03  0.00000000000E+00 0. -1.
          4    1    6    6  503    0  0.41383740316E+02 -0.87093680988E+02  0.19505920130E+03  0.21759139515E+03  0.00000000000E+00 0. -1.
         -4    1    6    6    0  503  0.21968330654E+01 -0.15813383229E+03  0.15737678811E+03  0.22311115711E+03  0.00000000000E+00 0.  1.
<mgrwt>
<rscale>  0 0.15560465E+04</rscale>
<asrwt>0</asrwt>
<pdfrwt beam="1">  1        2 0.19914844E+00 0.15560465E+04</pdfrwt>
<pdfrwt beam="2">  1       -1 0.71941839E-01 0.15560465E+04</pdfrwt>
<totfact> 0.35621718E+01</totfact>
</mgrwt>
</event>
<event>
12    7  0.1741211E-007  0.1111600E+04  0.7818608E-02  0.9193958E-01
          2   -1    0    0  501    0  0.00000000000E+00  0.00000000000E+00  0.73256226469E+03  0.73256226469E+03  0.00000000000E+00 0. -1.
         -1   -1    0    0    0  501 -0.00000000000E+00 -0.00000000000E+00 -0.42168959056E+03  0.42168959056E+03  0.00000000000E+00 0.  1.
         24    2    1    2    0    0 -0.96607816197E+02 -0.98539090830E+02 -0.69553734000E+02  0.17455089171E+03  0.81161994249E+02 0.  0.
        254    2    1    2    0    0  0.96607816197E+02  0.98539090830E+02  0.38042640813E+03  0.97970096354E+03  0.89221449405E+03 0.  0.
         23    2    4    4    0    0  0.10958401091E+03 -0.37893302750E+03  0.25308091938E+03  0.47741654779E+03  0.90981940904E+02 0.  0.
         23    2    4    4    0    0 -0.12976194713E+02  0.47747211833E+03  0.12734548875E+03  0.50228441576E+03  0.89021095235E+02 0.  0.
          4    1    3    3  502    0 -0.18799606184E+02 -0.13492506673E+02  0.18395191778E+02  0.29561055623E+02  0.00000000000E+00 0. -1.
         -3    1    3    3    0  502 -0.77808210013E+02 -0.85046584157E+02 -0.87948925778E+02  0.14498983608E+03  0.00000000000E+00 0.  1.
         13    1    5    5    0    0  0.16044937638E+02 -0.24028688191E+01  0.15732490491E+02  0.22599226965E+02  0.00000000000E+00 0. -1.
        -13    1    5    5    0    0  0.93539073272E+02 -0.37653015868E+03  0.23734842889E+03  0.45481732082E+03  0.00000000000E+00 0.  1.
          2    1    6    6  503    0 -0.73708068097E+01  0.12420703780E+03  0.74556233923E+02  0.14505291810E+03  0.00000000000E+00 0. -1.
         -2    1    6    6    0  503 -0.56053879038E+01  0.35326508053E+03  0.52789254829E+02  0.35723149766E+03  0.00000000000E+00 0.  1.
<mgrwt>
<rscale>  0 0.11116004E+04</rscale>
<asrwt>0</asrwt>
<pdfrwt beam="1">  1        2 0.11270189E+00 0.11116004E+04</pdfrwt>
<pdfrwt beam="2">  1       -1 0.64875322E-01 0.11116004E+04</pdfrwt>
<totfact> 0.10554061E+02</totfact>
</mgrwt>
</event>
<event>
12    7  0.1741211E-007  0.1885696E+04  0.7818608E-02  0.8662009E-01
         -1   -1    0    0    0  501 -0.00000000000E+00  0.00000000000E+00  0.70882174348E+03  0.70882174348E+03  0.00000000000E+00 0.  1.
          2   -1    0    0  501    0  0.00000000000E+00 -0.00000000000E+00 -0.12541409615E+04  0.12541409615E+04  0.00000000000E+00 0. -1.
         24    2    1    2    0    0 -0.38632031860E+03 -0.61091272647E+03 -0.25132056619E+03  0.76954737640E+03  0.81138089819E+02 0.  0.
        254    2    1    2    0    0  0.38632031860E+03  0.61091272647E+03 -0.29399865184E+03  0.11934153286E+04  0.90296577526E+03 0.  0.
         23    2    4    4    0    0  0.24164057530E+03 -0.18632431252E+03 -0.19197487392E+03  0.37184329615E+03  0.91138178669E+02 0.  0.
         23    2    4    4    0    0  0.14467974330E+03  0.79723703899E+03 -0.10202377792E+03  0.82157203243E+03  0.89736440472E+02 0.  0.
          4    1    3    3  502    0 -0.32869215965E+02 -0.28183400327E+02 -0.45405038861E+00  0.43300064364E+02  0.00000000000E+00 0. -1.
         -3    1    3    3    0  502 -0.35345110263E+03 -0.58272932614E+03 -0.25086651580E+03  0.72624731204E+03  0.00000000000E+00 0.  1.
         13    1    5    5    0    0  0.20233292321E+03 -0.12701920348E+03 -0.10914287035E+03  0.26264930233E+03  0.00000000000E+00 0.  1.
        -13    1    5    5    0    0  0.39307652087E+02 -0.59305109044E+02 -0.82832003571E+02  0.10919399382E+03  0.00000000000E+00 0. -1.
          3    1    6    6  503    0  0.11451145463E+03  0.38049672547E+03 -0.53092528876E+02  0.40088582908E+03  0.00000000000E+00 0. -1.
         -3    1    6    6    0  503  0.30168288669E+02  0.41674031352E+03 -0.48931249046E+02  0.42068620335E+03  0.00000000000E+00 0.  1.
<mgrwt>
<rscale>  0 0.18856960E+04</rscale>
<asrwt>0</asrwt>
<pdfrwt beam="1">  1        2 0.19294476E+00 0.18856960E+04</pdfrwt>
<pdfrwt beam="2">  1       -1 0.10904950E+00 0.18856960E+04</pdfrwt>
<totfact> 0.14647677E+01</totfact>
</mgrwt>
</event>
<event>
12    7  0.1741211E-007  0.3608294E+04  0.7818608E-02  0.8088594E-01
          2   -1    0    0  501    0  0.00000000000E+00  0.00000000000E+00  0.34277114365E+04  0.34277114365E+04  0.00000000000E+00 0. -1.
         -1   -1    0    0    0  501 -0.00000000000E+00 -0.00000000000E+00 -0.94959765260E+03  0.94959765260E+03  0.00000000000E+00 0.  1.
         24    2    1    2    0    0  0.41721411470E+03  0.46498925562E+02 -0.82497470471E+03  0.92908980245E+03  0.79967681040E+02 0.  0.
        254    2    1    2    0    0 -0.41721411470E+03 -0.46498925562E+02  0.33030884886E+04  0.34482192866E+04  0.89643344299E+03 0.  0.
         23    2    4    4    0    0 -0.29123248999E+03  0.40298931607E+02  0.27250014117E+03  0.41246470723E+03  0.97110455976E+02 0.  0.
         23    2    4    4    0    0 -0.12598162471E+03 -0.86797857169E+02  0.30305883474E+04  0.30357545794E+04  0.89078039415E+02 0.  0.
          4    1    3    3  502    0  0.22398748702E+03  0.64797634269E+02 -0.45931685706E+03  0.51511270896E+03  0.00000000000E+00 0. -1.
         -3    1    3    3    0  502  0.19322662768E+03 -0.18298708707E+02 -0.36565784765E+03  0.41397709349E+03  0.00000000000E+00 0.  1.
         13    1    5    5    0    0 -0.19416822980E+03  0.63823956126E+02  0.21743116123E+03  0.29841432391E+03  0.00000000000E+00 0. -1.
        -13    1    5    5    0    0 -0.97064260185E+02 -0.23525024519E+02  0.55068979935E+02  0.11405038332E+03  0.00000000000E+00 0.  1.
          3    1    6    6  503    0 -0.97601665262E+02 -0.93564292050E+02  0.28092404947E+04  0.28124922255E+04  0.00000000000E+00 0. -1.
         -3    1    6    6    0  503 -0.28379959448E+02  0.67664348803E+01  0.22134785272E+03  0.22326235384E+03  0.00000000000E+00 0.  1.
<mgrwt>
<rscale>  0 0.36082942E+04</rscale>
<asrwt>0</asrwt>
<pdfrwt beam="1">  1        2 0.52734022E+00 0.36082942E+04</pdfrwt>
<pdfrwt beam="2">  1       -1 0.14609195E+00 0.36082942E+04</pdfrwt>
<totfact> 0.31550357E-01</totfact>
</mgrwt>
</event>
<event>
12    7  0.1741211E-007  0.2509400E+04  0.7818608E-02  0.8399644E-01
          2   -1    0    0  501    0  0.00000000000E+00  0.00000000000E+00  0.22140038812E+04  0.22140038812E+04  0.00000000000E+00 0. -1.
         -1   -1    0    0    0  501 -0.00000000000E+00 -0.00000000000E+00 -0.71105213716E+03  0.71105213716E+03  0.00000000000E+00 0.  1.
         24    2    1    2    0    0  0.21201164602E+02 -0.65427096357E+03 -0.36054705529E+03  0.75144604388E+03  0.78466519188E+02 0.  0.
        254    2    1    2    0    0 -0.21201164602E+02  0.65427096357E+03  0.18634987994E+04  0.21736099745E+04  0.90743185030E+03 0.  0.
         23    2    4    4    0    0 -0.35706767645E+03  0.45124217270E+02  0.37596661202E+03  0.52892499376E+03  0.94219080458E+02 0.  0.
         23    2    4    4    0    0  0.33586651185E+03  0.60914674630E+03  0.14875321873E+04  0.16446849808E+04  0.91491011676E+02 0.  0.
          4    1    3    3  502    0 -0.26651940707E+02 -0.12224162750E+03 -0.70046615931E+02  0.14338713276E+03  0.00000000000E+00 0. -1.
         -3    1    3    3    0  502  0.47853105309E+02 -0.53202933606E+03 -0.29050043936E+03  0.60805891112E+03  0.00000000000E+00 0.  1.
         13    1    5    5    0    0 -0.13528724828E+03  0.41936828456E+02  0.20360190746E+03  0.24802232531E+03  0.00000000000E+00 0.  1.
        -13    1    5    5    0    0 -0.22178042818E+03  0.31873888135E+01  0.17236470455E+03  0.28090266846E+03  0.00000000000E+00 0. -1.
          4    1    6    6  503    0  0.14091380333E+03  0.28980870317E+03  0.78883577224E+03  0.85211951038E+03  0.00000000000E+00 0. -1.
         -4    1    6    6    0  503  0.19495270852E+03  0.31933804313E+03  0.69869641511E+03  0.79256547038E+03  0.00000000000E+00 0.  1.
<mgrwt>
<rscale>  0 0.25094001E+04</rscale>
<asrwt>0</asrwt>
<pdfrwt beam="1">  1        2 0.34061598E+00 0.25094001E+04</pdfrwt>
<pdfrwt beam="2">  1       -1 0.10939264E+00 0.25094001E+04</pdfrwt>
<totfact> 0.39745366E+00</totfact>
</mgrwt>
</event>
<event>
12    7  0.1741211E-007  0.2412559E+04  0.7818608E-02  0.8434817E-01
         -1   -1    0    0    0  501 -0.00000000000E+00  0.00000000000E+00  0.76578951652E+03  0.76578951652E+03  0.00000000000E+00 0.  1.
          2   -1    0    0  501    0  0.00000000000E+00 -0.00000000000E+00 -0.19001431431E+04  0.19001431431E+04  0.00000000000E+00 0. -1.
         24    2    1    2    0    0 -0.25725949943E+03 -0.98556218985E+03 -0.26672396299E+03  0.10559007955E+04  0.79180409864E+02 0.  0.
        254    2    1    2    0    0  0.25725949943E+03  0.98556218985E+03 -0.86762966356E+03  0.16100318641E+04  0.89549209395E+03 0.  0.
         23    2    4    4    0    0 -0.19722172677E+03  0.66036250784E+03 -0.17775742106E+03  0.71741296083E+03  0.90047789260E+02 0.  0.
         23    2    4    4    0    0  0.45448122620E+03  0.32519968201E+03 -0.68987224250E+03  0.89261890330E+03  0.92394682806E+02 0.  0.
          2    1    3    3  502    0 -0.65658535487E+02 -0.18937433367E+03 -0.24589522793E+02  0.20193644090E+03  0.00000000000E+00 0. -1.
         -1    1    3    3    0  502 -0.19160096394E+03 -0.79618785619E+03 -0.24213444020E+03  0.85396435455E+03  0.00000000000E+00 0.  1.
         13    1    5    5    0    0 -0.13106358596E+03  0.49550376075E+03 -0.94300994001E+02  0.52114711738E+03  0.00000000000E+00 0. -1.
        -13    1    5    5    0    0 -0.66158140814E+02  0.16485874709E+03 -0.83456427058E+02  0.19626584345E+03  0.00000000000E+00 0.  1.
          1    1    6    6  503    0  0.36772952319E+03  0.22641003815E+03 -0.48719791130E+03  0.65103633721E+03  0.00000000000E+00 0. -1.
         -1    1    6    6    0  503  0.86751703013E+02  0.98789643862E+02 -0.20267433120E+03  0.24158256609E+03  0.00000000000E+00 0.  1.
<mgrwt>
<rscale>  0 0.24125586E+04</rscale>
<asrwt>0</asrwt>
<pdfrwt beam="1">  1        2 0.29232971E+00 0.24125586E+04</pdfrwt>
<pdfrwt beam="2">  1       -1 0.11781377E+00 0.24125586E+04</pdfrwt>
<totfact> 0.50259795E+00</totfact>
</mgrwt>
</event>
<event>
12    7  0.1741211E-007  0.1803897E+04  0.7818608E-02  0.8704230E-01
         -1   -1    0    0    0  501 -0.00000000000E+00  0.00000000000E+00  0.23841608353E+04  0.23841608353E+04  0.00000000000E+00 0.  1.
          2   -1    0    0  501    0  0.00000000000E+00 -0.00000000000E+00 -0.34121490513E+03  0.34121490513E+03  0.00000000000E+00 0. -1.
         24    2    1    2    0    0  0.10926562097E+03 -0.52599813484E+03  0.13741107286E+04  0.14776600296E+04  0.81767077992E+02 0.  0.
        254    2    1    2    0    0 -0.10926562097E+03  0.52599813484E+03  0.66883520157E+03  0.12477157108E+04  0.90600273413E+03 0.  0.
         23    2    4    4    0    0  0.18397944360E+03 -0.12443002663E+03  0.42504583008E+03  0.48813654102E+03  0.91005812039E+02 0.  0.
         23    2    4    4    0    0 -0.29324506457E+03  0.65042816147E+03  0.24378937149E+03  0.75957916974E+03  0.92074949493E+02 0.  0.
          2    1    3    3  502    0 -0.52889121902E+01 -0.11565680601E+03  0.34253640471E+03  0.36157386233E+03  0.00000000000E+00 0. -1.
         -1    1    3    3    0  502  0.11455453316E+03 -0.41034132883E+03  0.10315743238E+04  0.11160861673E+04  0.00000000000E+00 0.  1.
         13    1    5    5    0    0  0.18465078242E+03 -0.11049090049E+03  0.42222831869E+03  0.47389967677E+03  0.00000000000E+00 0. -1.
        -13    1    5    5    0    0 -0.67133882439E+00 -0.13939126140E+02  0.28175113867E+01  0.14236864254E+02  0.00000000000E+00 0.  1.
          1    1    6    6  503    0 -0.40720560814E+02  0.90121115435E+02  0.13423948391E+01  0.98902889463E+02  0.00000000000E+00 0. -1.
         -1    1    6    6    0  503 -0.25252450375E+03  0.56030704603E+03  0.24244697665E+03  0.66067628027E+03  0.00000000000E+00 0.  1.
<mgrwt>
<rscale>  0 0.18038971E+04</rscale>
<asrwt>0</asrwt>
<pdfrwt beam="1">  1        2 0.52494602E-01 0.18038971E+04</pdfrwt>
<pdfrwt beam="2">  1       -1 0.36679396E+00 0.18038971E+04</pdfrwt>
<totfact> 0.12357948E+00</totfact>
</mgrwt>
</event>
<event>
12    7  0.1741211E-007  0.1955801E+04  0.7818608E-02  0.8627569E-01
          2   -1    0    0  501    0  0.00000000000E+00  0.00000000000E+00  0.10349016080E+04  0.10349016080E+04  0.00000000000E+00 0. -1.
         -1   -1    0    0    0  501 -0.00000000000E+00 -0.00000000000E+00 -0.92403878116E+03  0.92403878116E+03  0.00000000000E+00 0.  1.
         24    2    1    2    0    0  0.19904765564E+03  0.50343866357E+02 -0.70009365937E+03  0.73484970885E+03  0.87854929327E+02 0.  0.
        254    2    1    2    0    0 -0.19904765564E+03 -0.50343866357E+02  0.81095648624E+03  0.12240906803E+04  0.89364036224E+03 0.  0.
         23    2    4    4    0    0  0.19136480380E+03  0.65178512607E+02  0.77418506078E+03  0.80508800551E+03  0.89081208111E+02 0.  0.
         23    2    4    4    0    0 -0.39041245943E+03 -0.11552237896E+03  0.36771425459E+02  0.41900267483E+03  0.91890126057E+02 0.  0.
          4    1    3    3  502    0  0.19767635404E+02 -0.18816977391E+02 -0.50151084012E+02  0.57096140633E+02  0.00000000000E+00 0. -1.
         -3    1    3    3    0  502  0.17928002023E+03  0.69160843748E+02 -0.64994257536E+03  0.67775356822E+03  0.00000000000E+00 0.  1.
         13    1    5    5    0    0  0.19112409091E+03  0.61731219540E+02  0.63817386068E+03  0.66903291253E+03  0.00000000000E+00 0.  1.
        -13    1    5    5    0    0  0.24071288085E+00  0.34472930672E+01  0.13601120010E+03  0.13605509297E+03  0.00000000000E+00 0. -1.
          2    1    6    6  503    0 -0.60225792616E+02 -0.14473707385E+02 -0.27497411376E+02  0.67769771536E+02  0.00000000000E+00 0. -1.
         -2    1    6    6    0  503 -0.33018666682E+03 -0.10104867158E+03  0.64268836835E+02  0.35123290330E+03  0.00000000000E+00 0.  1.
<mgrwt>
<rscale>  0 0.19558008E+04</rscale>
<asrwt>0</asrwt>
<pdfrwt beam="1">  1        2 0.15921563E+00 0.19558008E+04</pdfrwt>
<pdfrwt beam="2">  1       -1 0.14215981E+00 0.19558008E+04</pdfrwt>
<totfact> 0.10246959E+01</totfact>
</mgrwt>
</event>
<event>
12    7  0.1741211E-007  0.3025226E+04  0.7818608E-02  0.8236564E-01
         -1   -1    0    0    0  501 -0.00000000000E+00  0.00000000000E+00  0.64261210767E+03  0.64261210767E+03  0.00000000000E+00 0.  1.
          2   -1    0    0  501    0  0.00000000000E+00 -0.00000000000E+00 -0.35604643249E+04  0.35604643249E+04  0.00000000000E+00 0. -1.
         24    2    1    2    0    0 -0.22498305374E+03 -0.13199828859E+04 -0.88494853879E+03  0.16069380914E+04  0.78383160687E+02 0.  0.
        254    2    1    2    0    0  0.22498305374E+03  0.13199828859E+04 -0.20329036784E+04  0.25961383411E+04  0.90236618225E+03 0.  0.
         23    2    4    4    0    0 -0.29742647872E+03  0.26274255014E+03 -0.33084742890E+03  0.52353363145E+03  0.84446930967E+02 0.  0.
         23    2    4    4    0    0  0.52240953246E+03  0.10572403358E+04 -0.17020562495E+04  0.20726047097E+04  0.89587715520E+02 0.  0.
          2    1    3    3  502    0 -0.86433976064E+01 -0.64306034774E+02 -0.24094803672E+02  0.69213683578E+02  0.00000000000E+00 0. -1.
         -3    1    3    3    0  502 -0.21633965614E+03 -0.12556768511E+04 -0.86085373512E+03  0.15377244079E+04  0.00000000000E+00 0.  1.
         13    1    5    5    0    0 -0.21916274633E+03  0.15875565608E+03 -0.18365712388E+03  0.32705596901E+03  0.00000000000E+00 0. -1.
        -13    1    5    5    0    0 -0.78263732393E+02  0.10398689407E+03 -0.14719030502E+03  0.19647766244E+03  0.00000000000E+00 0.  1.
          2    1    6    6  503    0  0.38454908245E+03  0.77456694196E+03 -0.13152883940E+04  0.15741078438E+04  0.00000000000E+00 0. -1.
         -2    1    6    6    0  503  0.13786045001E+03  0.28267339380E+03 -0.38676785550E+03  0.49849686588E+03  0.00000000000E+00 0.  1.
<mgrwt>
<rscale>  0 0.30252256E+04</rscale>
<asrwt>0</asrwt>
<pdfrwt beam="1">  1        2 0.54776376E+00 0.30252256E+04</pdfrwt>
<pdfrwt beam="2">  1       -1 0.98863399E-01 0.30252256E+04</pdfrwt>
<totfact> 0.69895505E-01</totfact>
</mgrwt>
</event>
<event>
12    7  0.1741211E-007  0.1634806E+04  0.7818608E-02  0.8799446E-01
          2   -1    0    0  501    0  0.00000000000E+00  0.00000000000E+00  0.90737454270E+03  0.90737454270E+03  0.00000000000E+00 0. -1.
         -1   -1    0    0    0  501 -0.00000000000E+00 -0.00000000000E+00 -0.73635273376E+03  0.73635273376E+03  0.00000000000E+00 0.  1.
         24    2    1    2    0    0  0.14812706041E+03 -0.52753252678E+03 -0.91972790926E+02  0.56083174410E+03  0.76426815227E+02 0.  0.
        254    2    1    2    0    0 -0.14812706041E+03  0.52753252678E+03  0.26299459986E+03  0.10828955324E+04  0.89625017803E+03 0.  0.
         23    2    4    4    0    0 -0.22981747590E+03  0.64605921628E+03 -0.83585209207E+02  0.69665794080E+03  0.90206519230E+02 0.  0.
         23    2    4    4    0    0  0.81690415497E+02 -0.11852668949E+03  0.34657980907E+03  0.38623759156E+03  0.91323671500E+02 0.  0.
          4    1    3    3  502    0  0.40380671383E+02 -0.19592759191E+03  0.73423330425E+00  0.20004689198E+03  0.00000000000E+00 0. -1.
         -3    1    3    3    0  502  0.10774638902E+03 -0.33160493488E+03 -0.92707024231E+02  0.36078485213E+03  0.00000000000E+00 0.  1.
         13    1    5    5    0    0 -0.44287615242E+02  0.13205810051E+03 -0.54032004505E+02  0.14939943871E+03  0.00000000000E+00 0.  1.
        -13    1    5    5    0    0 -0.18552986066E+03  0.51400111576E+03 -0.29553204702E+02  0.54725850209E+03  0.00000000000E+00 0. -1.
          1    1    6    6  503    0  0.99628392091E+02 -0.10886114891E+03  0.27859083934E+03  0.31526087930E+03  0.00000000000E+00 0. -1.
         -1    1    6    6    0  503 -0.17937976593E+02 -0.96655405846E+01  0.67988969730E+02  0.70976712265E+02  0.00000000000E+00 0.  1.
<mgrwt>
<rscale>  0 0.16348061E+04</rscale>
<asrwt>0</asrwt>
<pdfrwt beam="1">  1        2 0.13959608E+00 0.16348061E+04</pdfrwt>
<pdfrwt beam="2">  1       -1 0.11328504E+00 0.16348061E+04</pdfrwt>
<totfact> 0.22517870E+01</totfact>
</mgrwt>
</event>
<event>
12    7  0.1741211E-007  0.1300111E+04  0.7818608E-02  0.9029477E-01
          2   -1    0    0  501    0  0.00000000000E+00  0.00000000000E+00  0.68293441572E+03  0.68293441572E+03  0.00000000000E+00 0. -1.
         -1   -1    0    0    0  501 -0.00000000000E+00 -0.00000000000E+00 -0.61875993565E+03  0.61875993565E+03  0.00000000000E+00 0.  1.
         24    2    1    2    0    0  0.10298184805E+03  0.14706044487E+03  0.29547960060E+03  0.35475302543E+03  0.79432230271E+02 0.  0.
        254    2    1    2    0    0 -0.10298184805E+03 -0.14706044487E+03 -0.23130512053E+03  0.94694132595E+03  0.90053527445E+03 0.  0.
         23    2    4    4    0    0  0.36825803273E+03  0.33974568766E+02 -0.20114618672E+03  0.43330438737E+03  0.10258973482E+03 0.  0.
         23    2    4    4    0    0 -0.47123988078E+03 -0.18103501364E+03 -0.30158933815E+02  0.51363693858E+03  0.89847882495E+02 0.  0.
          4    1    3    3  502    0  0.19265875306E+02  0.37719684481E+02  0.14370007127E+03  0.14981207906E+03  0.00000000000E+00 0. -1.
         -3    1    3    3    0  502  0.83715972746E+02  0.10934076039E+03  0.15177952933E+03  0.20494094637E+03  0.00000000000E+00 0.  1.
         13    1    5    5    0    0  0.24434736525E+03 -0.50927338265E+01 -0.17547133501E+03  0.30086834372E+03  0.00000000000E+00 0.  1.
        -13    1    5    5    0    0  0.12391066747E+03  0.39067302593E+02 -0.25674851703E+02  0.13243604364E+03  0.00000000000E+00 0. -1.
          1    1    6    6  503    0 -0.20501247403E+03 -0.60087565050E+02 -0.53686358751E+02  0.22027903917E+03  0.00000000000E+00 0. -1.
         -1    1    6    6    0  503 -0.26622740674E+03 -0.12094744859E+03  0.23527424937E+02  0.29335789941E+03  0.00000000000E+00 0.  1.
<mgrwt>
<rscale>  0 0.13001115E+04</rscale>
<asrwt>0</asrwt>
<pdfrwt beam="1">  1        2 0.10506683E+00 0.13001115E+04</pdfrwt>
<pdfrwt beam="2">  1       -1 0.95193836E-01 0.13001115E+04</pdfrwt>
<totfact> 0.50471949E+01</totfact>
</mgrwt>
</event>
<event>
12    7  0.1741211E-007  0.1162247E+04  0.7818608E-02  0.9146559E-01
          2   -1    0    0  501    0  0.00000000000E+00  0.00000000000E+00  0.30515557221E+04  0.30515557221E+04  0.00000000000E+00 0. -1.
         -1   -1    0    0    0  501 -0.00000000000E+00 -0.00000000000E+00 -0.11066638857E+03  0.11066638857E+03  0.00000000000E+00 0.  1.
         24    2    1    2    0    0  0.15543668435E+03  0.10651134227E+03  0.88404205536E+03  0.90729793247E+03  0.78447139812E+02 0.  0.
        254    2    1    2    0    0 -0.15543668435E+03 -0.10651134227E+03  0.20568472782E+04  0.22549241782E+04  0.90474145194E+03 0.  0.
         23    2    4    4    0    0  0.77953827222E+01 -0.13536414350E+03 -0.26680501302E+02  0.16245004591E+03  0.85404618899E+02 0.  0.
         23    2    4    4    0    0 -0.16323206707E+03  0.28852801235E+02  0.20835277795E+04  0.20924741323E+04  0.99412245881E+02 0.  0.
          4    1    3    3  502    0  0.49006944349E+02  0.80363659197E+02  0.43630696027E+03  0.44634489119E+03  0.00000000000E+00 0. -1.
         -3    1    3    3    0  502  0.10642974000E+03  0.26147683068E+02  0.44773509509E+03  0.46095304128E+03  0.00000000000E+00 0.  1.
         13    1    5    5    0    0 -0.12619707281E+01 -0.37223798727E+02 -0.48850952052E+02  0.61429791455E+02  0.00000000000E+00 0.  1.
        -13    1    5    5    0    0  0.90573534503E+01 -0.98140344774E+02  0.22170450751E+02  0.10102025446E+03  0.00000000000E+00 0. -1.
          2    1    6    6  503    0 -0.16051558201E+03  0.48901990562E+02  0.19719825732E+04  0.19791088717E+04  0.00000000000E+00 0. -1.
         -2    1    6    6    0  503 -0.27164850591E+01 -0.20049189326E+02  0.11154520621E+03  0.11336526060E+03  0.00000000000E+00 0.  1.
<mgrwt>
<rscale>  0 0.11622472E+04</rscale>
<asrwt>0</asrwt>
<pdfrwt beam="1">  1        2 0.46947005E+00 0.11622472E+04</pdfrwt>
<pdfrwt beam="2">  1       -1 0.17025601E-01 0.11622472E+04</pdfrwt>
<totfact> 0.49496377E+01</totfact>
</mgrwt>
</event>
<event>
12    7  0.1741211E-007  0.1824618E+04  0.7818608E-02  0.8693316E-01
          2   -1    0    0  501    0  0.00000000000E+00  0.00000000000E+00  0.14870972607E+04  0.14870972607E+04  0.00000000000E+00 0. -1.
         -1   -1    0    0    0  501 -0.00000000000E+00 -0.00000000000E+00 -0.55968626336E+03  0.55968626336E+03  0.00000000000E+00 0.  1.
         24    2    1    2    0    0  0.48413188915E+03 -0.48190835638E+03  0.29696357975E+03  0.74897186215E+03  0.78435531233E+02 0.  0.
        254    2    1    2    0    0 -0.48413188915E+03  0.48190835638E+03  0.63044741764E+03  0.12978116620E+04  0.90566650234E+03 0.  0.
         23    2    4    4    0    0  0.46880224669E+02 -0.38848853598E+02 -0.17096333214E+03  0.20063296869E+03  0.85546117947E+02 0.  0.
         23    2    4    4    0    0 -0.53101211382E+03  0.52075720998E+03  0.80141074978E+03  0.10971786933E+04  0.91542112330E+02 0.  0.
          2    1    3    3  502    0  0.40417095853E+03 -0.40308657922E+03  0.27868279831E+03  0.63521418132E+03  0.00000000000E+00 0. -1.
         -1    1    3    3    0  502  0.79960930623E+02 -0.78821777153E+02  0.18280781437E+02  0.11375768084E+03  0.00000000000E+00 0.  1.
         13    1    5    5    0    0  0.58170341600E+02  0.52781197076E+01 -0.81850356552E+02  0.10055410512E+03  0.00000000000E+00 0. -1.
        -13    1    5    5    0    0 -0.11290116931E+02 -0.44126973306E+02 -0.89112975593E+02  0.10007886356E+03  0.00000000000E+00 0.  1.
          1    1    6    6  503    0 -0.52567677597E+03  0.51780185840E+03  0.80333763854E+03  0.10907823792E+04  0.00000000000E+00 0. -1.
         -1    1    6    6    0  503 -0.53353378561E+01  0.29553515771E+01 -0.19268887560E+01  0.63963140371E+01  0.00000000000E+00 0.  1.
<mgrwt>
<rscale>  0 0.18246182E+04</rscale>
<asrwt>0</asrwt>
<pdfrwt beam="1">  1        2 0.22878419E+00 0.18246182E+04</pdfrwt>
<pdfrwt beam="2">  1       -1 0.86105580E-01 0.18246182E+04</pdfrwt>
<totfact> 0.18448935E+01</totfact>
</mgrwt>
</event>
<event>
12    7  0.1741211E-007  0.2252086E+04  0.7818608E-02  0.8497056E-01
         -1   -1    0    0    0  501 -0.00000000000E+00  0.00000000000E+00  0.11785871878E+04  0.11785871878E+04  0.00000000000E+00 0.  1.
          2   -1    0    0  501    0  0.00000000000E+00 -0.00000000000E+00 -0.10758413620E+04  0.10758413620E+04  0.00000000000E+00 0. -1.
         24    2    1    2    0    0  0.63998498930E+03  0.55589889513E+03  0.45331432640E+03  0.96456772981E+03  0.79326280310E+02 0.  0.
        254    2    1    2    0    0 -0.63998498930E+03 -0.55589889513E+03 -0.35056850059E+03  0.12898608199E+04  0.90677356215E+03 0.  0.
         23    2    4    4    0    0  0.20564643598E+03 -0.21300233321E+03 -0.62265966054E+01  0.31028873966E+03  0.92627646367E+02 0.  0.
         23    2    4    4    0    0 -0.84563142528E+03 -0.34289656192E+03 -0.34434190398E+03  0.97957208026E+03  0.91211589121E+02 0.  0.
          4    1    3    3  502    0  0.15820265938E+02  0.60438712132E+01  0.21427282377E+02  0.27311858663E+02  0.00000000000E+00 0. -1.
         -3    1    3    3    0  502  0.62416472336E+03  0.54985502391E+03  0.43188704402E+03  0.93725587115E+03  0.00000000000E+00 0.  1.
         13    1    5    5    0    0 -0.73446835778E+01 -0.12518975863E+02  0.95247609477E+01  0.17360593441E+02  0.00000000000E+00 0.  1.
        -13    1    5    5    0    0  0.21299111955E+03 -0.20048335734E+03 -0.15751357553E+02  0.29292814622E+03  0.00000000000E+00 0. -1.
          4    1    6    6  503    0 -0.63748124428E+03 -0.21893305988E+03 -0.27074792491E+03  0.72637349921E+03  0.00000000000E+00 0. -1.
         -4    1    6    6    0  503 -0.20815018100E+03 -0.12396350204E+03 -0.73593979070E+02  0.25319858104E+03  0.00000000000E+00 0.  1.
<mgrwt>
<rscale>  0 0.22520860E+04</rscale>
<asrwt>0</asrwt>
<pdfrwt beam="1">  1        2 0.16551406E+00 0.22520860E+04</pdfrwt>
<pdfrwt beam="2">  1       -1 0.18132111E+00 0.22520860E+04</pdfrwt>
<totfact> 0.47653968E+00</totfact>
</mgrwt>
</event>
<event>
12    7  0.1741211E-007  0.1383839E+04  0.7818608E-02  0.8965601E-01
         -1   -1    0    0    0  501 -0.00000000000E+00  0.00000000000E+00  0.23702953616E+03  0.23702953616E+03  0.00000000000E+00 0.  1.
          2   -1    0    0  501    0  0.00000000000E+00 -0.00000000000E+00 -0.20198011678E+04  0.20198011678E+04  0.00000000000E+00 0. -1.
         24    2    1    2    0    0 -0.87341671139E+02  0.15314739268E+03  0.55925581478E+02  0.19996292403E+03  0.75992163554E+02 0.  0.
        254    2    1    2    0    0  0.87341671139E+02 -0.15314739268E+03 -0.18386972131E+04  0.20568677799E+04  0.90488393244E+03 0.  0.
         23    2    4    4    0    0  0.14697921615E+02 -0.51561996093E+03 -0.85926920117E+03  0.10061435421E+04  0.88889224135E+02 0.  0.
         23    2    4    4    0    0  0.72643749524E+02  0.36247256825E+03 -0.97942801196E+03  0.10507242379E+04  0.89881679721E+02 0.  0.
          4    1    3    3  502    0 -0.32561382945E+02  0.28764078347E+02 -0.15868414860E+02  0.46253891215E+02  0.00000000000E+00 0. -1.
         -3    1    3    3    0  502 -0.54780288194E+02  0.12438331433E+03  0.71793996338E+02  0.15370903282E+03  0.00000000000E+00 0.  1.
         13    1    5    5    0    0 -0.70545244275E+01 -0.33285015429E+02 -0.10681920707E+03  0.11210709865E+03  0.00000000000E+00 0.  1.
        -13    1    5    5    0    0  0.21752446042E+02 -0.48233494550E+03 -0.75244999410E+03  0.89403644343E+03  0.00000000000E+00 0. -1.
          3    1    6    6  503    0  0.35584555175E+02  0.31691872747E+03 -0.86869124051E+03  0.92538003638E+03  0.00000000000E+00 0. -1.
         -3    1    6    6    0  503  0.37059194349E+02  0.45553840780E+02 -0.11073677145E+03  0.12534420149E+03  0.00000000000E+00 0.  1.
<mgrwt>
<rscale>  0 0.13838389E+04</rscale>
<asrwt>0</asrwt>
<pdfrwt beam="1">  1        2 0.31073865E+00 0.13838389E+04</pdfrwt>
<pdfrwt beam="2">  1       -1 0.36466081E-01 0.13838389E+04</pdfrwt>
<totfact> 0.52146673E+01</totfact>
</mgrwt>
</event>
<event>
12    7  0.1741211E-007  0.3565105E+04  0.7818608E-02  0.8098532E-01
         -1   -1    0    0    0  501 -0.00000000000E+00  0.00000000000E+00  0.22516999625E+04  0.22516999625E+04  0.00000000000E+00 0.  1.
          2   -1    0    0  501    0  0.00000000000E+00 -0.00000000000E+00 -0.14111529316E+04  0.14111529316E+04  0.00000000000E+00 0. -1.
         24    2    1    2    0    0  0.73839828824E+02 -0.15585557064E+04 -0.20968212247E+03  0.15764380976E+04  0.81500140416E+02 0.  0.
        254    2    1    2    0    0 -0.73839828824E+02  0.15585557064E+04  0.10502291534E+04  0.20864147965E+04  0.90310421215E+03 0.  0.
         23    2    4    4    0    0 -0.43725752787E+03  0.70155915802E+03  0.28856853150E+03  0.88032968022E+03  0.91264180354E+02 0.  0.
         23    2    4    4    0    0  0.36341769905E+03  0.85699654840E+03  0.76166062187E+03  0.12060851163E+04  0.89436551791E+02 0.  0.
          4    1    3    3  502    0  0.10486648848E+02 -0.84635811694E+03 -0.14172254322E+03  0.85820586760E+03  0.00000000000E+00 0. -1.
         -3    1    3    3    0  502  0.63353179977E+02 -0.71219758947E+03 -0.67959579258E+02  0.71823223005E+03  0.00000000000E+00 0.  1.
         13    1    5    5    0    0 -0.22442429389E+03  0.30116559954E+03  0.16581315439E+03  0.41056179097E+03  0.00000000000E+00 0. -1.
        -13    1    5    5    0    0 -0.21283323397E+03  0.40039355847E+03  0.12275537711E+03  0.46976788924E+03  0.00000000000E+00 0.  1.
          4    1    6    6  503    0  0.36206349466E+03  0.84385439028E+03  0.73445791883E+03  0.11758437994E+04  0.00000000000E+00 0. -1.
         -4    1    6    6    0  503  0.13542043834E+01  0.13142158118E+02  0.27202703048E+02  0.30241316813E+02  0.00000000000E+00 0.  1.
<mgrwt>
<rscale>  0 0.35651048E+04</rscale>
<asrwt>0</asrwt>
<pdfrwt beam="1">  1        2 0.21710045E+00 0.35651048E+04</pdfrwt>
<pdfrwt beam="2">  1       -1 0.34641538E+00 0.35651048E+04</pdfrwt>
<totfact> 0.21772722E-01</totfact>
</mgrwt>
</event>
<event>
12    7  0.1741211E-007  0.1613595E+04  0.7818608E-02  0.8812239E-01
          2   -1    0    0  501    0  0.00000000000E+00  0.00000000000E+00  0.22856835353E+04  0.22856835353E+04  0.00000000000E+00 0. -1.
         -3   -1    0    0    0  501 -0.00000000000E+00 -0.00000000000E+00 -0.28478235725E+03  0.28478235725E+03  0.00000000000E+00 0.  1.
         24    2    1    2    0    0 -0.45992020553E+03 -0.30569635378E+03  0.86231851936E+03  0.10271347234E+04  0.80222534068E+02 0.  0.
        254    2    1    2    0    0  0.45992020553E+03  0.30569635378E+03  0.11385826586E+04  0.15433311691E+04  0.88347256373E+03 0.  0.
         23    2    4    4    0    0  0.60766197549E+03  0.45837082095E+03  0.10409114198E+04  0.12924935444E+04  0.87670361900E+02 0.  0.
         23    2    4    4    0    0 -0.14774176997E+03 -0.15267446717E+03  0.97671238798E+02  0.25083762474E+03  0.90789424368E+02 0.  0.
          2    1    3    3  502    0 -0.45486054631E+03 -0.29630554285E+03  0.85863603819E+03  0.10158498597E+04  0.00000000000E+00 0. -1.
         -1    1    3    3    0  502 -0.50596592161E+01 -0.93908109327E+01  0.36824811698E+01  0.11284863709E+02  0.00000000000E+00 0.  1.
         13    1    5    5    0    0  0.14804954657E+03  0.91550753140E+02  0.29671579136E+03  0.34400649628E+03  0.00000000000E+00 0.  1.
        -13    1    5    5    0    0  0.45961242892E+03  0.36682006781E+03  0.74419562849E+03  0.94848704811E+03  0.00000000000E+00 0. -1.
          4    1    6    6  503    0 -0.15888825196E+03 -0.14520714219E+03  0.82320477003E+02  0.23045010672E+03  0.00000000000E+00 0. -1.
         -4    1    6    6    0  503  0.11146481993E+02 -0.74673249805E+01  0.15350761795E+02  0.20387518016E+02  0.00000000000E+00 0.  1.
<mgrwt>
<rscale>  0 0.16135952E+04</rscale>
<asrwt>0</asrwt>
<pdfrwt beam="1">  1        2 0.35164361E+00 0.16135952E+04</pdfrwt>
<pdfrwt beam="2">  1       -3 0.43812672E-01 0.16135952E+04</pdfrwt>
<totfact> 0.14802910E+01</totfact>
</mgrwt>
</event>
<event>
12    7  0.1741211E-007  0.1214851E+04  0.7818608E-02  0.9099956E-01
          4   -1    0    0  501    0  0.00000000000E+00  0.00000000000E+00  0.16127152895E+04  0.16127152895E+04  0.00000000000E+00 0. -1.
         -3   -1    0    0    0  501 -0.00000000000E+00 -0.00000000000E+00 -0.22878544979E+03  0.22878544979E+03  0.00000000000E+00 0.  1.
         24    2    1    2    0    0 -0.16991566324E+03  0.17829955114E+03  0.44734307874E+03  0.51690264322E+03  0.80065285332E+02 0.  0.
        254    2    1    2    0    0  0.16991566324E+03 -0.17829955114E+03  0.93658676100E+03  0.13245980961E+04  0.90371637851E+03 0.  0.
         23    2    4    4    0    0  0.22908051819E+03 -0.45867140604E+03  0.25716192783E+03  0.58106416773E+03  0.92983694079E+02 0.  0.
         23    2    4    4    0    0 -0.59164854953E+02  0.28037185490E+03  0.67942483317E+03  0.74353392838E+03  0.95476393125E+02 0.  0.
          4    1    3    3  502    0 -0.79213035288E+02  0.97725049895E+02  0.15004198400E+03  0.19579961006E+03  0.00000000000E+00 0. -1.
         -3    1    3    3    0  502 -0.90702627947E+02  0.80574501246E+02  0.29730109474E+03  0.32110303316E+03  0.00000000000E+00 0.  1.
         13    1    5    5    0    0  0.23134287538E+03 -0.45269855616E+03  0.26302302311E+03  0.57239550961E+03  0.00000000000E+00 0. -1.
        -13    1    5    5    0    0 -0.22623571872E+01 -0.59728498741E+01 -0.58610952801E+01  0.86686581167E+01  0.00000000000E+00 0.  1.
          3    1    6    6  503    0 -0.47885891535E+02  0.28462218551E+03  0.63522882570E+03  0.69772380502E+03  0.00000000000E+00 0. -1.
         -3    1    6    6    0  503 -0.11278963418E+02 -0.42503306091E+01  0.44196007462E+02  0.45810123354E+02  0.00000000000E+00 0.  1.
<mgrwt>
<rscale>  0 0.12148511E+04</rscale>
<asrwt>0</asrwt>
<pdfrwt beam="1">  1        4 0.24811004E+00 0.12148511E+04</pdfrwt>
<pdfrwt beam="2">  1       -3 0.35197763E-01 0.12148511E+04</pdfrwt>
<totfact> 0.11730055E+00</totfact>
</mgrwt>
</event>
<event>
12    7  0.1741211E-007  0.3215447E+04  0.7818608E-02  0.8184750E-01
          2   -1    0    0  501    0  0.00000000000E+00  0.00000000000E+00  0.11941660528E+04  0.11941660528E+04  0.00000000000E+00 0. -1.
         -1   -1    0    0    0  501 -0.00000000000E+00 -0.00000000000E+00 -0.21645015037E+04  0.21645015037E+04  0.00000000000E+00 0.  1.
         24    2    1    2    0    0  0.52081457914E+03 -0.12491962554E+04  0.19040024207E+03  0.13697353157E+04  0.90462547653E+02 0.  0.
        254    2    1    2    0    0 -0.52081457914E+03  0.12491962554E+04 -0.11607356930E+04  0.19889322408E+04  0.88136541755E+03 0.  0.
         23    2    4    4    0    0  0.15326482656E+03  0.51057129407E+03 -0.69921605367E+03  0.88397670561E+03  0.91315787051E+02 0.  0.
         23    2    4    4    0    0 -0.67407940570E+03  0.73862496129E+03 -0.46151963934E+03  0.11049555352E+04  0.89311133918E+02 0.  0.
          2    1    3    3  502    0  0.30426595058E+03 -0.66165895899E+03  0.13941312795E+03  0.74148928983E+03  0.00000000000E+00 0. -1.
         -1    1    3    3    0  502  0.21654862856E+03 -0.58753729637E+03  0.50987114128E+02  0.62824602583E+03  0.00000000000E+00 0.  1.
         13    1    5    5    0    0  0.15071701646E+03  0.38794588637E+03 -0.57053169585E+03  0.70620396895E+03  0.00000000000E+00 0.  1.
        -13    1    5    5    0    0  0.25478100995E+01  0.12262540770E+03 -0.12868435782E+03  0.17777273666E+03  0.00000000000E+00 0. -1.
          3    1    6    6  503    0 -0.89597645571E+02  0.13645066108E+03 -0.53071997754E+02  0.17164835550E+03  0.00000000000E+00 0. -1.
         -3    1    6    6    0  503 -0.58448176013E+03  0.60217430021E+03 -0.40844764159E+03  0.93330717970E+03  0.00000000000E+00 0.  1.
<mgrwt>
<rscale>  0 0.32154466E+04</rscale>
<asrwt>0</asrwt>
<pdfrwt beam="1">  1        2 0.18371786E+00 0.32154466E+04</pdfrwt>
<pdfrwt beam="2">  1       -1 0.33300023E+00 0.32154466E+04</pdfrwt>
<totfact> 0.36790582E-01</totfact>
</mgrwt>
</event>
<event>
12    7  0.1741211E-007  0.2691840E+04  0.7818608E-02  0.8337657E-01
         -1   -1    0    0    0  501 -0.00000000000E+00  0.00000000000E+00  0.11804608268E+04  0.11804608268E+04  0.00000000000E+00 0.  1.
          2   -1    0    0  501    0  0.00000000000E+00 -0.00000000000E+00 -0.15345710784E+04  0.15345710784E+04  0.00000000000E+00 0. -1.
         24    2    1    2    0    0  0.48755165935E+03  0.97404743227E+03 -0.64663524715E+03  0.12691594258E+04  0.78444148407E+02 0.  0.
        254    2    1    2    0    0 -0.48755165935E+03 -0.97404743227E+03  0.29252499554E+03  0.14458724795E+04  0.90471063498E+03 0.  0.
         23    2    4    4    0    0  0.14667471264E+03 -0.18224314938E+03  0.34317411590E+03  0.42547954676E+03  0.92403106383E+02 0.  0.
         23    2    4    4    0    0 -0.63422637200E+03 -0.79180428289E+03 -0.50649120353E+02  0.10203929327E+04  0.97156010616E+02 0.  0.
          4    1    3    3  502    0  0.33416533379E+03  0.61376724270E+03 -0.38055420989E+03  0.79573752279E+03  0.00000000000E+00 0. -1.
         -3    1    3    3    0  502  0.15338632557E+03  0.36028018957E+03 -0.26608103727E+03  0.47342190302E+03  0.00000000000E+00 0.  1.
         13    1    5    5    0    0  0.31266360971E+02 -0.10785694595E+03  0.18078210287E+03  0.21282122741E+03  0.00000000000E+00 0. -1.
        -13    1    5    5    0    0  0.11540835167E+03 -0.74386203428E+02  0.16239201303E+03  0.21265831936E+03  0.00000000000E+00 0.  1.
          2    1    6    6  503    0 -0.56251465585E+03 -0.70763018289E+03 -0.75291365390E+02  0.90710087834E+03  0.00000000000E+00 0.  1.
         -2    1    6    6    0  503 -0.71711716150E+02 -0.84174099997E+02  0.24642245037E+02  0.11329205437E+03  0.00000000000E+00 0. -1.
<mgrwt>
<rscale>  0 0.26918403E+04</rscale>
<asrwt>0</asrwt>
<pdfrwt beam="1">  1        2 0.23608786E+00 0.26918403E+04</pdfrwt>
<pdfrwt beam="2">  1       -1 0.18160936E+00 0.26918403E+04</pdfrwt>
<totfact> 0.24587899E+00</totfact>
</mgrwt>
</event>
<event>
12    7  0.1741211E-007  0.1401972E+04  0.7818608E-02  0.8952392E-01
         -1   -1    0    0    0  501 -0.00000000000E+00  0.00000000000E+00  0.19431776008E+03  0.19431776008E+03  0.00000000000E+00 0.  1.
          2   -1    0    0  501    0  0.00000000000E+00 -0.00000000000E+00 -0.25287519805E+04  0.25287519805E+04  0.00000000000E+00 0. -1.
         24    2    1    2    0    0 -0.22096240497E+02  0.91228516136E+02  0.77847447587E+02  0.14612371750E+03  0.80504842835E+02 0.  0.
        254    2    1    2    0    0  0.22096240497E+02 -0.91228516136E+02 -0.24122816680E+04  0.25769460231E+04  0.90151931427E+03 0.  0.
         23    2    4    4    0    0 -0.39053357449E+02  0.14709746049E+03 -0.22708923927E+04  0.22778509629E+04  0.92140773015E+02 0.  0.
         23    2    4    4    0    0  0.61149597945E+02 -0.23832597663E+03 -0.14138927525E+03  0.29909506018E+03  0.94490123303E+02 0.  0.
          4    1    3    3  502    0 -0.20267915562E+02  0.99599578977E+00 -0.77639490492E+01  0.21726926006E+02  0.00000000000E+00 0. -1.
         -3    1    3    3    0  502 -0.18283249344E+01  0.90232520346E+02  0.85611396636E+02  0.12439679149E+03  0.00000000000E+00 0.  1.
         13    1    5    5    0    0  0.18833978864E+02  0.54179400092E+01 -0.12707175496E+03  0.12857411770E+03  0.00000000000E+00 0. -1.
        -13    1    5    5    0    0 -0.57887336313E+02  0.14167952048E+03 -0.21438206378E+04  0.21492768452E+04  0.00000000000E+00 0.  1.
          4    1    6    6  503    0 -0.23562464030E+02 -0.87042992172E+02 -0.49167155175E+02  0.10270872088E+03  0.00000000000E+00 0. -1.
         -4    1    6    6    0  503  0.84712061976E+02 -0.15128298446E+03 -0.92222120072E+02  0.19638633929E+03  0.00000000000E+00 0.  1.
<mgrwt>
<rscale>  0 0.14019721E+04</rscale>
<asrwt>0</asrwt>
<pdfrwt beam="1">  1        2 0.38903879E+00 0.14019721E+04</pdfrwt>
<pdfrwt beam="2">  1       -1 0.29895038E-01 0.14019721E+04</pdfrwt>
<totfact> 0.38266643E+01</totfact>
</mgrwt>
</event>
<event>
12    7  0.1741211E-007  0.2316845E+04  0.7818608E-02  0.8471309E-01
         -1   -1    0    0    0  501 -0.00000000000E+00  0.00000000000E+00  0.16563170637E+04  0.16563170637E+04  0.00000000000E+00 0.  1.
          2   -1    0    0  501    0  0.00000000000E+00 -0.00000000000E+00 -0.81019707658E+03  0.81019707658E+03  0.00000000000E+00 0. -1.
         24    2    1    2    0    0 -0.30234323931E+03 -0.60519805228E+02  0.13485697389E+04  0.13856818883E+04  0.79999210691E+02 0.  0.
        254    2    1    2    0    0  0.30234323931E+03  0.60519805228E+02 -0.50244975180E+03  0.10808322520E+04  0.90590756846E+03 0.  0.
         23    2    4    4    0    0 -0.20628513751E+03  0.25020129559E+03 -0.82602512843E+00  0.33639969932E+03  0.89497648645E+02 0.  0.
         23    2    4    4    0    0  0.50862837681E+03 -0.18968149036E+03 -0.50162372667E+03  0.74443255263E+03  0.88721861853E+02 0.  0.
          4    1    3    3  502    0 -0.66137081758E+02 -0.28587538614E+02  0.19849924485E+03  0.21117128393E+03  0.00000000000E+00 0. -1.
         -3    1    3    3    0  502 -0.23620615755E+03 -0.31932266615E+02  0.11500704940E+04  0.11745106044E+04  0.00000000000E+00 0.  1.
         13    1    5    5    0    0 -0.73900463073E+02  0.13395266933E+03  0.34223820712E+02  0.15676691605E+03  0.00000000000E+00 0.  1.
        -13    1    5    5    0    0 -0.13238467444E+03  0.11624862626E+03 -0.35049845840E+02  0.17963278328E+03  0.00000000000E+00 0. -1.
          4    1    6    6  503    0  0.46551245933E+03 -0.19755829606E+03 -0.45242518241E+03  0.67854231689E+03  0.00000000000E+00 0. -1.
         -4    1    6    6    0  503  0.43115917485E+02  0.78768056959E+01 -0.49198544260E+02  0.65890235740E+02  0.00000000000E+00 0.  1.
<mgrwt>
<rscale>  0 0.23168455E+04</rscale>
<asrwt>0</asrwt>
<pdfrwt beam="1">  1        2 0.12464570E+00 0.23168455E+04</pdfrwt>
<pdfrwt beam="2">  1       -1 0.25481801E+00 0.23168455E+04</pdfrwt>
<totfact> 0.22682961E+00</totfact>
</mgrwt>
</event>
<event>
12    7  0.1741211E-007  0.1520440E+04  0.7818608E-02  0.8870973E-01
          2   -1    0    0  501    0  0.00000000000E+00  0.00000000000E+00  0.56966614255E+03  0.56966614255E+03  0.00000000000E+00 0. -1.
         -1   -1    0    0    0  501 -0.00000000000E+00 -0.00000000000E+00 -0.10145138127E+04  0.10145138127E+04  0.00000000000E+00 0.  1.
         24    2    1    2    0    0  0.47433077175E+03  0.72182329861E+02 -0.57433640348E+02  0.49115412898E+03  0.87941944477E+02 0.  0.
        254    2    1    2    0    0 -0.47433077175E+03 -0.72182329861E+02 -0.38741402976E+03  0.10930258262E+04  0.90244991915E+03 0.  0.
         23    2    4    4    0    0 -0.10519215892E+02 -0.41616185571E+03 -0.82741753399E+02  0.43386180230E+03  0.89936208964E+02 0.  0.
         23    2    4    4    0    0 -0.46381155586E+03  0.34397952585E+03 -0.30467227637E+03  0.65916402393E+03  0.90713510051E+02 0.  0.
          4    1    3    3  502    0  0.17884694619E+03  0.25184962463E+02  0.21049112879E+02  0.18183392876E+03  0.00000000000E+00 0. -1.
         -3    1    3    3    0  502  0.29548382556E+03  0.46997367398E+02 -0.78482753227E+02  0.30932020022E+03  0.00000000000E+00 0.  1.
         13    1    5    5    0    0 -0.42907602304E+02 -0.13844736936E+03 -0.11909616158E+02  0.14543237389E+03  0.00000000000E+00 0.  1.
        -13    1    5    5    0    0  0.32388386412E+02 -0.27771448635E+03 -0.70832137241E+02  0.28842942841E+03  0.00000000000E+00 0. -1.
          3    1    6    6  503    0 -0.23001795991E+03  0.12673097459E+03 -0.10584315797E+03  0.28314620939E+03  0.00000000000E+00 0. -1.
         -3    1    6    6    0  503 -0.23379359595E+03  0.21724855126E+03 -0.19882911839E+03  0.37601781454E+03  0.00000000000E+00 0.  1.
<mgrwt>
<rscale>  0 0.15204396E+04</rscale>
<asrwt>0</asrwt>
<pdfrwt beam="1">  1        2 0.87640946E-01 0.15204396E+04</pdfrwt>
<pdfrwt beam="2">  1       -1 0.15607905E+00 0.15204396E+04</pdfrwt>
<totfact> 0.18223438E+01</totfact>
</mgrwt>
</event>
<event>
12    7  0.1741211E-007  0.1329284E+04  0.7818608E-02  0.9006659E-01
         -1   -1    0    0    0  501 -0.00000000000E+00  0.00000000000E+00  0.14429114840E+03  0.14429114840E+03  0.00000000000E+00 0.  1.
          2   -1    0    0  501    0  0.00000000000E+00 -0.00000000000E+00 -0.30615125131E+04  0.30615125131E+04  0.00000000000E+00 0. -1.
         24    2    1    2    0    0 -0.29386543123E+03  0.18695691092E+03 -0.71168879676E+03  0.79645495988E+03  0.80807063219E+02 0.  0.
        254    2    1    2    0    0  0.29386543123E+03 -0.18695691092E+03 -0.22055325679E+04  0.24093487016E+04  0.90513948073E+03 0.  0.
         23    2    4    4    0    0  0.83808988373E+02  0.35661758563E+03 -0.95248763792E+03  0.10244603776E+04  0.89923945623E+02 0.  0.
         23    2    4    4    0    0  0.21005644286E+03 -0.54357449655E+03 -0.12530449300E+04  0.13848883240E+04  0.90538007747E+02 0.  0.
          4    1    3    3  502    0 -0.11599370792E+02  0.33464455096E+02 -0.88251547898E+02  0.95093379706E+02  0.00000000000E+00 0. -1.
         -3    1    3    3    0  502 -0.28226606044E+03  0.15349245583E+03 -0.62343724886E+03  0.70136158017E+03  0.00000000000E+00 0.  1.
         13    1    5    5    0    0  0.16482525581E+02  0.97874950431E+02 -0.16203811787E+03  0.19001981795E+03  0.00000000000E+00 0.  1.
        -13    1    5    5    0    0  0.67326462792E+02  0.25874263520E+03 -0.79044952005E+03  0.83444055966E+03  0.00000000000E+00 0. -1.
          4    1    6    6  503    0  0.16463089996E+03 -0.30470985652E+03 -0.71605887091E+03  0.79541922060E+03  0.00000000000E+00 0. -1.
         -4    1    6    6    0  503  0.45425542898E+02 -0.23886464003E+03 -0.53698605907E+03  0.58946910338E+03  0.00000000000E+00 0.  1.
<mgrwt>
<rscale>  0 0.13292843E+04</rscale>
<asrwt>0</asrwt>
<pdfrwt beam="1">  1        2 0.47100195E+00 0.13292843E+04</pdfrwt>
<pdfrwt beam="2">  1       -1 0.22198637E-01 0.13292843E+04</pdfrwt>
<totfact> 0.30790552E+01</totfact>
</mgrwt>
</event>
<event>
12    7  0.1741211E-007  0.1697011E+04  0.7818608E-02  0.8763071E-01
         -1   -1    0    0    0  501 -0.00000000000E+00  0.00000000000E+00  0.70703375596E+03  0.70703375596E+03  0.00000000000E+00 0.  1.
          2   -1    0    0  501    0  0.00000000000E+00 -0.00000000000E+00 -0.10182840843E+04  0.10182840843E+04  0.00000000000E+00 0. -1.
         24    2    1    2    0    0  0.11930239067E+03  0.44034037649E+03 -0.52260605817E+03  0.69862367459E+03  0.82615005172E+02 0.  0.
        254    2    1    2    0    0 -0.11930239067E+03 -0.44034037649E+03  0.21135572984E+03  0.10266941657E+04  0.89515191877E+03 0.  0.
         23    2    4    4    0    0  0.22594047002E+03 -0.56767803666E+03  0.19448542633E+03  0.64709987388E+03  0.87213625251E+02 0.  0.
         23    2    4    4    0    0 -0.34524286069E+03  0.12733766017E+03  0.16870303511E+02  0.37959429178E+03  0.91649913548E+02 0.  0.
          4    1    3    3  502    0  0.14949791722E+02  0.17985181625E+03 -0.16945000979E+03  0.24755499974E+03  0.00000000000E+00 0. -1.
         -3    1    3    3    0  502  0.10435259895E+03  0.26048856024E+03 -0.35315604838E+03  0.45106867485E+03  0.00000000000E+00 0.  1.
         13    1    5    5    0    0  0.47524356343E+01  0.26445399512E+01  0.23306648613E+01  0.59170292130E+01  0.00000000000E+00 0.  1.
        -13    1    5    5    0    0  0.22118803439E+03 -0.57032257661E+03  0.19215476147E+03  0.64118284467E+03  0.00000000000E+00 0. -1.
          2    1    6    6  503    0 -0.33347877778E+03  0.11580722286E+03  0.35418906781E+02  0.35478712922E+03  0.00000000000E+00 0. -1.
         -2    1    6    6    0  503 -0.11764082907E+02  0.11530437303E+02 -0.18548603269E+02  0.24807162560E+02  0.00000000000E+00 0.  1.
<mgrwt>
<rscale>  0 0.16970106E+04</rscale>
<asrwt>0</asrwt>
<pdfrwt beam="1">  1        2 0.15665909E+00 0.16970106E+04</pdfrwt>
<pdfrwt beam="2">  1       -1 0.10877442E+00 0.16970106E+04</pdfrwt>
<totfact> 0.20866546E+01</totfact>
</mgrwt>
</event>
<event>
12    7  0.1741211E-007  0.1368541E+04  0.7818608E-02  0.8976910E-01
          2   -1    0    0  501    0  0.00000000000E+00  0.00000000000E+00  0.99812556073E+03  0.99812556073E+03  0.00000000000E+00 0. -1.
         -1   -1    0    0    0  501 -0.00000000000E+00 -0.00000000000E+00 -0.46910569595E+03  0.46910569595E+03  0.00000000000E+00 0.  1.
         24    2    1    2    0    0  0.25564639379E+03  0.40860273113E+01 -0.15697044389E+03  0.30951008564E+03  0.76059178155E+02 0.  0.
        254    2    1    2    0    0 -0.25564639379E+03 -0.40860273113E+01  0.68599030867E+03  0.11577211710E+04  0.89686332962E+03 0.  0.
         23    2    4    4    0    0 -0.16722405245E+03 -0.38801240046E+03  0.60846327929E+03  0.74643158301E+03  0.91733522955E+02 0.  0.
         23    2    4    4    0    0 -0.88422341347E+02  0.38392637315E+03  0.77527029376E+02  0.41128958804E+03  0.89054559085E+02 0.  0.
          4    1    3    3  502    0  0.18704126032E+02  0.14820760619E+02 -0.36172478113E+02  0.43335291031E+02  0.00000000000E+00 0. -1.
         -3    1    3    3    0  502  0.23694226776E+03 -0.10734733307E+02 -0.12079796578E+03  0.26617479461E+03  0.00000000000E+00 0.  1.
         13    1    5    5    0    0 -0.65587990751E+02 -0.22377476818E+03  0.39384603519E+03  0.45770255717E+03  0.00000000000E+00 0. -1.
        -13    1    5    5    0    0 -0.10163606170E+03 -0.16423763229E+03  0.21461724410E+03  0.28872902584E+03  0.00000000000E+00 0.  1.
          1    1    6    6  503    0  0.10554032223E+02  0.40517107785E+01  0.32960492579E+01  0.11775733400E+02  0.00000000000E+00 0. -1.
         -1    1    6    6    0  503 -0.98976373570E+02  0.37987466237E+03  0.74230980118E+02  0.39951385464E+03  0.00000000000E+00 0.  1.
<mgrwt>
<rscale>  0 0.13685414E+04</rscale>
<asrwt>0</asrwt>
<pdfrwt beam="1">  1        2 0.15355778E+00 0.13685414E+04</pdfrwt>
<pdfrwt beam="2">  1       -1 0.72170107E-01 0.13685414E+04</pdfrwt>
<totfact> 0.54465337E+01</totfact>
</mgrwt>
</event>
<event>
12    7  0.1741211E-007  0.3785578E+04  0.7818608E-02  0.8049257E-01
         -3   -1    0    0    0  501 -0.00000000000E+00  0.00000000000E+00  0.14739958838E+04  0.14739958838E+04  0.00000000000E+00 0.  1.
          2   -1    0    0  501    0  0.00000000000E+00 -0.00000000000E+00 -0.24305697702E+04  0.24305697702E+04  0.00000000000E+00 0. -1.
         24    2    1    2    0    0 -0.16532739606E+04  0.62173331606E+03 -0.26243566533E+03  0.17875155630E+04  0.80450633451E+02 0.  0.
        254    2    1    2    0    0  0.16532739606E+04 -0.62173331606E+03 -0.69413822105E+03  0.21170500909E+04  0.93819300374E+03 0.  0.
         23    2    4    4    0    0  0.10556384251E+04 -0.61771112008E+03 -0.41527399714E+02  0.12274487731E+04  0.94691357828E+02 0.  0.
         23    2    4    4    0    0  0.59763553551E+03 -0.40221959796E+01 -0.65261082134E+03  0.88960131778E+03  0.91132920012E+02 0.  0.
          4    1    3    3  502    0 -0.30517841718E+02  0.18612427992E+02  0.38200007558E+01  0.35949319112E+02  0.00000000000E+00 0. -1.
         -3    1    3    3    0  502 -0.16227561189E+04  0.60312088806E+03 -0.26625566609E+03  0.17515662439E+04  0.00000000000E+00 0.  1.
         13    1    5    5    0    0  0.66767308000E+02 -0.45172148990E+02 -0.25944105726E+02  0.84684668529E+02  0.00000000000E+00 0.  1.
        -13    1    5    5    0    0  0.98887111712E+03 -0.57253897109E+03 -0.15583293988E+02  0.11427641046E+04  0.00000000000E+00 0. -1.
          1    1    6    6  503    0  0.45320895391E+03  0.11117116448E+02 -0.43720932061E+03  0.62982055874E+03  0.00000000000E+00 0. -1.
         -1    1    6    6    0  503  0.14442658160E+03 -0.15139312428E+02 -0.21540150073E+03  0.25978075904E+03  0.00000000000E+00 0.  1.
<mgrwt>
<rscale>  0 0.37855778E+04</rscale>
<asrwt>0</asrwt>
<pdfrwt beam="1">  1        2 0.37393381E+00 0.37855778E+04</pdfrwt>
<pdfrwt beam="2">  1       -3 0.22676860E+00 0.37855778E+04</pdfrwt>
<totfact> 0.19415665E-01</totfact>
</mgrwt>
</event>
<event>
12    7  0.1741211E-007  0.1497051E+04  0.7818608E-02  0.8886416E-01
          2   -1    0    0  501    0  0.00000000000E+00  0.00000000000E+00  0.29493746298E+04  0.29493746298E+04  0.00000000000E+00 0. -1.
         -1   -1    0    0    0  501 -0.00000000000E+00 -0.00000000000E+00 -0.18996930171E+03  0.18996930171E+03  0.00000000000E+00 0.  1.
         24    2    1    2    0    0 -0.33849330470E+03  0.20551663657E+03  0.33471520927E+03  0.52469574665E+03  0.80352660239E+02 0.  0.
        254    2    1    2    0    0  0.33849330470E+03 -0.20551663657E+03  0.24246901189E+04  0.26146481849E+04  0.89467768109E+03 0.  0.
         23    2    4    4    0    0 -0.15363534495E+03  0.13997346036E+03  0.14379118284E+04  0.14554612322E+04  0.87066545073E+02 0.  0.
         23    2    4    4    0    0  0.49212864965E+03 -0.34549009693E+03  0.98677829043E+03  0.11591869527E+04  0.91809487282E+02 0.  0.
          4    1    3    3  502    0 -0.12940069616E+02 -0.33692445544E+00 -0.19933366481E+01  0.13097034426E+02  0.00000000000E+00 0. -1.
         -3    1    3    3    0  502 -0.32555323509E+03  0.20585356102E+03  0.33670854592E+03  0.51159871223E+03  0.00000000000E+00 0.  1.
         13    1    5    5    0    0 -0.11318950172E+03  0.68336062705E+02  0.65308377739E+03  0.66633332579E+03  0.00000000000E+00 0.  1.
        -13    1    5    5    0    0 -0.40445843232E+02  0.71637397657E+02  0.78482805103E+03  0.78912790640E+03  0.00000000000E+00 0. -1.
          1    1    6    6  503    0  0.41047100530E+03 -0.30278586387E+03  0.76976933332E+03  0.92342327893E+03  0.00000000000E+00 0. -1.
         -1    1    6    6    0  503  0.81657644356E+02 -0.42704233059E+02  0.21700895710E+03  0.23576367376E+03  0.00000000000E+00 0.  1.
<mgrwt>
<rscale>  0 0.14970513E+04</rscale>
<asrwt>0</asrwt>
<pdfrwt beam="1">  1        2 0.45374991E+00 0.14970513E+04</pdfrwt>
<pdfrwt beam="2">  1       -1 0.29226049E-01 0.14970513E+04</pdfrwt>
<totfact> 0.22166184E+01</totfact>
</mgrwt>
</event>
<event>
12    7  0.1741211E-007  0.1840312E+04  0.7818608E-02  0.8685151E-01
          2   -1    0    0  501    0  0.00000000000E+00  0.00000000000E+00  0.37903785868E+04  0.37903785868E+04  0.00000000000E+00 0. -1.
         -1   -1    0    0    0  501 -0.00000000000E+00 -0.00000000000E+00 -0.22337786676E+03  0.22337786676E+03  0.00000000000E+00 0.  1.
         24    2    1    2    0    0  0.62964842360E+02 -0.49289424571E+03  0.23991612588E+04  0.24514027124E+04  0.80568006868E+02 0.  0.
        254    2    1    2    0    0 -0.62964842360E+02  0.49289424571E+03  0.11678394612E+04  0.15623537412E+04  0.91114811998E+03 0.  0.
         23    2    4    4    0    0 -0.36830380020E+02  0.73233042903E+03  0.10376130258E+04  0.12738976784E+04  0.92250579643E+02 0.  0.
         23    2    4    4    0    0 -0.26134462341E+02 -0.23943618332E+03  0.13022643541E+03  0.28845606280E+03  0.90748441754E+02 0.  0.
          2    1    3    3  502    0  0.26867805128E+02 -0.42812803578E+03  0.20732788786E+04  0.21171917255E+04  0.00000000000E+00 0. -1.
         -1    1    3    3    0  502  0.36097037233E+02 -0.64766209929E+02  0.32588238020E+03  0.33421098691E+03  0.00000000000E+00 0.  1.
         13    1    5    5    0    0 -0.52071447174E+02  0.21510269247E+03  0.29526817972E+03  0.36900393205E+03  0.00000000000E+00 0.  1.
        -13    1    5    5    0    0  0.15241067154E+02  0.51722773656E+03  0.74234484611E+03  0.90489374633E+03  0.00000000000E+00 0. -1.
          3    1    6    6  503    0 -0.54965269257E+02 -0.13718930501E+03  0.98420087395E+02  0.17756294613E+03  0.00000000000E+00 0. -1.
         -3    1    6    6    0  503  0.28830806917E+02 -0.10224687831E+03  0.31806348017E+02  0.11089311668E+03  0.00000000000E+00 0.  1.
<mgrwt>
<rscale>  0 0.18403116E+04</rscale>
<asrwt>0</asrwt>
<pdfrwt beam="1">  1        2 0.58313512E+00 0.18403116E+04</pdfrwt>
<pdfrwt beam="2">  1       -1 0.34365828E-01 0.18403116E+04</pdfrwt>
<totfact> 0.43372070E+00</totfact>
</mgrwt>
</event>
<event>
12    7  0.1741211E-007  0.1228651E+04  0.7818608E-02  0.9088141E-01
         -1   -1    0    0    0  501 -0.00000000000E+00  0.00000000000E+00  0.22969512515E+03  0.22969512515E+03  0.00000000000E+00 0.  1.
          2   -1    0    0  501    0  0.00000000000E+00 -0.00000000000E+00 -0.16430298037E+04  0.16430298037E+04  0.00000000000E+00 0. -1.
         24    2    1    2    0    0  0.17889818857E+03 -0.14218980789E+03 -0.98448563231E+02  0.26131570603E+03  0.79820268572E+02 0.  0.
        254    2    1    2    0    0 -0.17889818857E+03  0.14218980789E+03 -0.13148861153E+04  0.16114092228E+04  0.90304578164E+03 0.  0.
         23    2    4    4    0    0  0.13625607654E+03 -0.15109763645E+03 -0.10982410384E+04  0.11206849068E+04  0.91679156875E+02 0.  0.
         23    2    4    4    0    0 -0.31515426511E+03  0.29328744434E+03 -0.21664507695E+03  0.49072431602E+03  0.92387927464E+02 0.  0.
          2    1    3    3  502    0  0.11513368562E+03 -0.48191159529E+02 -0.74094393711E+02  0.14514865691E+03  0.00000000000E+00 0. -1.
         -1    1    3    3    0  502  0.63764502948E+02 -0.93998648359E+02 -0.24354169519E+02  0.11616704913E+03  0.00000000000E+00 0.  1.
         13    1    5    5    0    0  0.14187615398E+03 -0.13525599088E+03 -0.10701083925E+04  0.10879131390E+04  0.00000000000E+00 0. -1.
        -13    1    5    5    0    0 -0.56200774452E+01 -0.15841645571E+02 -0.28132645806E+02  0.32771767803E+02  0.00000000000E+00 0.  1.
          2    1    6    6  503    0 -0.34951149208E+02  0.14570043753E+02 -0.47720464221E+02  0.60918894535E+02  0.00000000000E+00 0.  1.
         -2    1    6    6    0  503 -0.28020311590E+03  0.27871740059E+03 -0.16892461273E+03  0.42980542149E+03  0.00000000000E+00 0. -1.
<mgrwt>
<rscale>  0 0.12286512E+04</rscale>
<asrwt>0</asrwt>
<pdfrwt beam="1">  1        2 0.25277381E+00 0.12286512E+04</pdfrwt>
<pdfrwt beam="2">  1       -1 0.35337713E-01 0.12286512E+04</pdfrwt>
<totfact> 0.90276533E+01</totfact>
</mgrwt>
</event>
<event>
12    7  0.1741211E-007  0.2449146E+04  0.7818608E-02  0.8421330E-01
         -1   -1    0    0    0  501 -0.00000000000E+00  0.00000000000E+00  0.17165641114E+04  0.17165641114E+04  0.00000000000E+00 0.  1.
          2   -1    0    0  501    0  0.00000000000E+00 -0.00000000000E+00 -0.87359353038E+03  0.87359353038E+03  0.00000000000E+00 0. -1.
         24    2    1    2    0    0 -0.84741025736E+03  0.35908762528E+03 -0.18637672782E+03  0.94241414323E+03  0.79750020598E+02 0.  0.
        254    2    1    2    0    0  0.84741025736E+03 -0.35908762528E+03  0.10293473089E+04  0.16477434986E+04  0.89914108344E+03 0.  0.
         23    2    4    4    0    0 -0.16464671883E+03 -0.54879513130E+02  0.55420406196E+02  0.20772722895E+03  0.99794174376E+02 0.  0.
         23    2    4    4    0    0  0.10120569762E+04 -0.30420811215E+03  0.97392690267E+03  0.14400162696E+04  0.91166586602E+02 0.  0.
          4    1    3    3  502    0 -0.54062640840E+03  0.22018420206E+03 -0.15630808645E+03  0.60430970056E+03  0.00000000000E+00 0. -1.
         -3    1    3    3    0  502 -0.30678384895E+03  0.13890342321E+03 -0.30068641373E+02  0.33810444267E+03  0.00000000000E+00 0.  1.
         13    1    5    5    0    0 -0.70052780112E+02  0.26477777915E+02  0.13439897058E+02  0.76086106206E+02  0.00000000000E+00 0. -1.
        -13    1    5    5    0    0 -0.94593938719E+02 -0.81357291045E+02  0.41980509138E+02  0.13164112274E+03  0.00000000000E+00 0.  1.
          2    1    6    6  503    0  0.72838951667E+03 -0.20763942140E+03  0.64253765525E+03  0.99323715986E+03  0.00000000000E+00 0. -1.
         -2    1    6    6    0  503  0.28366745952E+03 -0.96568690745E+02  0.33138924742E+03  0.44677910977E+03  0.00000000000E+00 0.  1.
<mgrwt>
<rscale>  0 0.24491462E+04</rscale>
<asrwt>0</asrwt>
<pdfrwt beam="1">  1        2 0.13439900E+00 0.24491462E+04</pdfrwt>
<pdfrwt beam="2">  1       -1 0.26408679E+00 0.24491462E+04</pdfrwt>
<totfact> 0.17620821E+00</totfact>
</mgrwt>
</event>
<event>
12    7  0.1741211E-007  0.1653141E+04  0.7818608E-02  0.8788550E-01
         -1   -1    0    0    0  501 -0.00000000000E+00  0.00000000000E+00  0.44610883639E+03  0.44610883639E+03  0.00000000000E+00 0.  1.
          2   -1    0    0  501    0  0.00000000000E+00 -0.00000000000E+00 -0.15315073402E+04  0.15315073402E+04  0.00000000000E+00 0. -1.
         24    2    1    2    0    0  0.10689547939E+03  0.28289385902E+03  0.20686767581E+03  0.37519014550E+03  0.80733084910E+02 0.  0.
        254    2    1    2    0    0 -0.10689547939E+03 -0.28289385902E+03 -0.12922661796E+04  0.16024260311E+04  0.89797646245E+03 0.  0.
         23    2    4    4    0    0 -0.29562149400E+03 -0.24283181838E+03 -0.12036157691E+03  0.41102968574E+03  0.89995186703E+02 0.  0.
         23    2    4    4    0    0  0.18872601462E+03 -0.40062040638E+02 -0.11719046027E+04  0.11913963453E+04  0.94033920217E+02 0.  0.
          4    1    3    3  502    0  0.28825314834E+02  0.32408446719E+02  0.40365645763E+01  0.43560303576E+02  0.00000000000E+00 0. -1.
         -3    1    3    3    0  502  0.78070164552E+02  0.25048541230E+03  0.20283111124E+03  0.33162984192E+03  0.00000000000E+00 0.  1.
         13    1    5    5    0    0 -0.88386465810E+02 -0.26290032641E+02 -0.41366476352E+02  0.10106690121E+03  0.00000000000E+00 0. -1.
        -13    1    5    5    0    0 -0.20723502819E+03 -0.21654178574E+03 -0.78995100555E+02  0.30996278453E+03  0.00000000000E+00 0.  1.
          2    1    6    6  503    0  0.12536222651E+03  0.36319054540E+01 -0.90387670561E+03  0.91253601437E+03  0.00000000000E+00 0.  1.
         -2    1    6    6    0  503  0.63363788101E+02 -0.43693946092E+02 -0.26802789708E+03  0.27886033096E+03  0.00000000000E+00 0. -1.
<mgrwt>
<rscale>  0 0.16531412E+04</rscale>
<asrwt>0</asrwt>
<pdfrwt beam="1">  1        2 0.23561651E+00 0.16531412E+04</pdfrwt>
<pdfrwt beam="2">  1       -1 0.68632129E-01 0.16531412E+04</pdfrwt>
<totfact> 0.28487093E+01</totfact>
</mgrwt>
</event>
<event>
12    7  0.1741211E-007  0.2213437E+04  0.7818608E-02  0.8512856E-01
         -1   -1    0    0    0  501 -0.00000000000E+00  0.00000000000E+00  0.47193250793E+03  0.47193250793E+03  0.00000000000E+00 0.  1.
          2   -1    0    0  501    0  0.00000000000E+00 -0.00000000000E+00 -0.25953403212E+04  0.25953403212E+04  0.00000000000E+00 0. -1.
         24    2    1    2    0    0 -0.42930045846E+03  0.20559860899E+03  0.20462493832E+03  0.52601815463E+03  0.90851868249E+02 0.  0.
        254    2    1    2    0    0  0.42930045846E+03 -0.20559860899E+03 -0.23280327516E+04  0.25412546745E+04  0.90092683196E+03 0.  0.
         23    2    4    4    0    0  0.59613341070E+03 -0.32256781087E+03 -0.21488655068E+04  0.22550736249E+04  0.91153997740E+02 0.  0.
         23    2    4    4    0    0 -0.16683295224E+03  0.11696920188E+03 -0.17916724478E+03  0.28618104962E+03  0.91014632994E+02 0.  0.
          2    1    3    3  502    0 -0.33042910194E+03  0.14786274568E+03  0.19483697285E+03  0.41110610426E+03  0.00000000000E+00 0. -1.
         -1    1    3    3    0  502 -0.98871356524E+02  0.57735863315E+02  0.97879654700E+01  0.11491205038E+03  0.00000000000E+00 0.  1.
         13    1    5    5    0    0  0.17200426108E+03 -0.11120589479E+03 -0.52723755326E+03  0.56562501221E+03  0.00000000000E+00 0.  1.
        -13    1    5    5    0    0  0.42412914962E+03 -0.21136191608E+03 -0.16216279536E+04  0.16894486127E+04  0.00000000000E+00 0. -1.
          1    1    6    6  503    0 -0.78914543602E+02  0.27901877125E+01 -0.59632863795E+02  0.98951345538E+02  0.00000000000E+00 0. -1.
         -1    1    6    6    0  503 -0.87918408634E+02  0.11417901417E+03 -0.11953438098E+03  0.18722970408E+03  0.00000000000E+00 0.  1.
<mgrwt>
<rscale>  0 0.22134367E+04</rscale>
<asrwt>0</asrwt>
<pdfrwt beam="1">  1        2 0.39928312E+00 0.22134367E+04</pdfrwt>
<pdfrwt beam="2">  1       -1 0.72605002E-01 0.22134367E+04</pdfrwt>
<totfact> 0.60884055E+00</totfact>
</mgrwt>
</event>
<event>
12    7  0.1741211E-007  0.1639282E+04  0.7818608E-02  0.8796773E-01
          2   -1    0    0  501    0  0.00000000000E+00  0.00000000000E+00  0.20436973509E+04  0.20436973509E+04  0.00000000000E+00 0. -1.
         -1   -1    0    0    0  501 -0.00000000000E+00 -0.00000000000E+00 -0.32872336594E+03  0.32872336594E+03  0.00000000000E+00 0.  1.
         24    2    1    2    0    0 -0.10564357662E+03 -0.19055167919E+03 -0.15744573656E+03  0.28149165213E+03  0.83533720941E+02 0.  0.
        254    2    1    2    0    0  0.10564357662E+03  0.19055167919E+03  0.18724197216E+04  0.20909290647E+04  0.90474208061E+03 0.  0.
         23    2    4    4    0    0 -0.15506515537E+03  0.33744636810E+03  0.29593717889E+03  0.48367974061E+03  0.91934889280E+02 0.  0.
         23    2    4    4    0    0  0.26070873199E+03 -0.14689468891E+03  0.15764825427E+04  0.16072493241E+04  0.91684731916E+02 0.  0.
          4    1    3    3  502    0 -0.18144926691E+02 -0.47961285656E+02  0.69260177147E+00  0.51283554709E+02  0.00000000000E+00 0. -1.
         -3    1    3    3    0  502 -0.87498649931E+02 -0.14259039354E+03 -0.15813833833E+03  0.23020809742E+03  0.00000000000E+00 0.  1.
         13    1    5    5    0    0 -0.94563872707E+02  0.17722901680E+03  0.10316753475E+03  0.22582291878E+03  0.00000000000E+00 0.  1.
        -13    1    5    5    0    0 -0.60501282662E+02  0.16021735130E+03  0.19276964414E+03  0.25785682183E+03  0.00000000000E+00 0. -1.
          1    1    6    6  503    0  0.92630915033E+02 -0.82990943965E+01  0.39026576400E+03  0.40119412750E+03  0.00000000000E+00 0. -1.
         -1    1    6    6    0  503  0.16807781696E+03 -0.13859559452E+03  0.11862167787E+04  0.12060551966E+04  0.00000000000E+00 0.  1.
<mgrwt>
<rscale>  0 0.16392816E+04</rscale>
<asrwt>0</asrwt>
<pdfrwt beam="1">  1        2 0.31441497E+00 0.16392816E+04</pdfrwt>
<pdfrwt beam="2">  1       -1 0.50572827E-01 0.16392816E+04</pdfrwt>
<totfact> 0.27023386E+01</totfact>
</mgrwt>
</event>
<event>
12    7  0.1741211E-007  0.2385975E+04  0.7818608E-02  0.8444773E-01
          2   -1    0    0  501    0  0.00000000000E+00  0.00000000000E+00  0.11734157684E+04  0.11734157684E+04  0.00000000000E+00 0. -1.
         -1   -1    0    0    0  501 -0.00000000000E+00 -0.00000000000E+00 -0.12128856213E+04  0.12128856213E+04  0.00000000000E+00 0.  1.
         24    2    1    2    0    0  0.50390918419E+03  0.71682412287E+03 -0.56676308492E+03  0.10462049099E+04  0.74585722745E+02 0.  0.
        254    2    1    2    0    0 -0.50390918419E+03 -0.71682412287E+03  0.52729323199E+03  0.13400964799E+04  0.86605954401E+03 0.  0.
         23    2    4    4    0    0 -0.10448923692E+03  0.15272230833E+03  0.28078697841E+03  0.34803045369E+03  0.89675890627E+02 0.  0.
         23    2    4    4    0    0 -0.39941994726E+03 -0.86954643120E+03  0.24650625358E+03  0.99206602616E+03  0.88217781263E+02 0.  0.
          2    1    3    3  502    0  0.11395948877E+03  0.11535095456E+03 -0.11725097351E+03  0.20010097098E+03  0.00000000000E+00 0. -1.
         -1    1    3    3    0  502  0.38994969542E+03  0.60147316831E+03 -0.44951211142E+03  0.84610393893E+03  0.00000000000E+00 0.  1.
         13    1    5    5    0    0 -0.96310906406E+02  0.77595851647E+02  0.13040670216E+03  0.17972983852E+03  0.00000000000E+00 0.  1.
        -13    1    5    5    0    0 -0.81783305187E+01  0.75126456679E+02  0.15038027625E+03  0.16830061518E+03  0.00000000000E+00 0. -1.
          2    1    6    6  503    0 -0.15621534592E+03 -0.25977144362E+03  0.10236276437E+03  0.31994151457E+03  0.00000000000E+00 0. -1.
         -2    1    6    6    0  503 -0.24320460134E+03 -0.60977498758E+03  0.14414348921E+03  0.67212451159E+03  0.00000000000E+00 0.  1.
<mgrwt>
<rscale>  0 0.23859749E+04</rscale>
<asrwt>0</asrwt>
<pdfrwt beam="1">  1        2 0.18052550E+00 0.23859749E+04</pdfrwt>
<pdfrwt beam="2">  1       -1 0.18659779E+00 0.23859749E+04</pdfrwt>
<totfact> 0.37655615E+00</totfact>
</mgrwt>
</event>
<event>
12    7  0.1741211E-007  0.1253348E+04  0.7818608E-02  0.9067401E-01
         -1   -1    0    0    0  501 -0.00000000000E+00  0.00000000000E+00  0.56077415624E+03  0.56077415624E+03  0.00000000000E+00 0.  1.
          2   -1    0    0  501    0  0.00000000000E+00 -0.00000000000E+00 -0.70031835440E+03  0.70031835440E+03  0.00000000000E+00 0. -1.
         24    2    1    2    0    0 -0.17239855175E+02  0.10368613751E+03 -0.32360774216E+03  0.34925243870E+03  0.78786213471E+02 0.  0.
        254    2    1    2    0    0  0.17239855175E+02 -0.10368613751E+03  0.18406354400E+03  0.91184007194E+03  0.88686239115E+03 0.  0.
         23    2    4    4    0    0 -0.39086703503E+02 -0.33125643780E+03  0.43556114066E+03  0.55607194044E+03  0.90795912476E+02 0.  0.
         23    2    4    4    0    0  0.56326558678E+02  0.22757030028E+03 -0.25149759666E+03  0.35576813149E+03  0.91427564112E+02 0.  0.
          2    1    3    3  502    0 -0.11423933539E+02  0.11274575021E+03 -0.24533955757E+03  0.27024731073E+03  0.00000000000E+00 0. -1.
         -1    1    3    3    0  502 -0.58159216360E+01 -0.90596126949E+01 -0.78268184592E+02  0.79005127973E+02  0.00000000000E+00 0.  1.
         13    1    5    5    0    0 -0.39192628766E+02 -0.29137837602E+03  0.32355615560E+03  0.43717960381E+03  0.00000000000E+00 0.  1.
        -13    1    5    5    0    0  0.10592526344E+00 -0.39878061772E+02  0.11200498506E+03  0.11889233663E+03  0.00000000000E+00 0. -1.
          1    1    6    6  503    0  0.33789859534E+02  0.20325908072E+03 -0.16775349330E+03  0.26570141704E+03  0.00000000000E+00 0.  1.
         -1    1    6    6    0  503  0.22536699144E+02  0.24311219557E+02 -0.83744103361E+02  0.90066714454E+02  0.00000000000E+00 0. -1.
<mgrwt>
<rscale>  0 0.12533482E+04</rscale>
<asrwt>0</asrwt>
<pdfrwt beam="1">  1        2 0.10774129E+00 0.12533482E+04</pdfrwt>
<pdfrwt beam="2">  1       -1 0.86272947E-01 0.12533482E+04</pdfrwt>
<totfact> 0.60991710E+01</totfact>
</mgrwt>
</event>
<event>
12    7  0.1741211E-007  0.1643938E+04  0.7818608E-02  0.8794001E-01
         -1   -1    0    0    0  501 -0.00000000000E+00  0.00000000000E+00  0.39517343511E+03  0.39517343511E+03  0.00000000000E+00 0.  1.
          2   -1    0    0  501    0  0.00000000000E+00 -0.00000000000E+00 -0.17097127038E+04  0.17097127038E+04  0.00000000000E+00 0. -1.
         24    2    1    2    0    0 -0.99691009992E+02 -0.49788123698E+03 -0.81311473640E+03  0.96224735076E+03  0.83308858366E+02 0.  0.
        254    2    1    2    0    0  0.99691009992E+02  0.49788123698E+03 -0.50142453233E+03  0.11426387882E+04  0.89239722941E+03 0.  0.
         23    2    4    4    0    0 -0.31683266750E+02  0.53393115651E+03 -0.69944039276E+03  0.88517384446E+03  0.90716936705E+02 0.  0.
         23    2    4    4    0    0  0.13137427674E+03 -0.36049919530E+02  0.19801586043E+03  0.25746494373E+03  0.92299073566E+02 0.  0.
          2    1    3    3  502    0 -0.26609454358E+02 -0.18635350658E+03 -0.37643738695E+03  0.42088097934E+03  0.00000000000E+00 0. -1.
         -1    1    3    3    0  502 -0.73081555634E+02 -0.31152773040E+03 -0.43667734946E+03  0.54136637143E+03  0.00000000000E+00 0.  1.
         13    1    5    5    0    0 -0.52290720346E+02  0.47722460256E+03 -0.59465225068E+03  0.76425711639E+03  0.00000000000E+00 0.  1.
        -13    1    5    5    0    0  0.20607453597E+02  0.56706553946E+02 -0.10478814208E+03  0.12091672806E+03  0.00000000000E+00 0. -1.
          3    1    6    6  503    0 -0.37971529698E+01  0.12155462013E+02  0.48812333612E+02  0.50446184594E+02  0.00000000000E+00 0. -1.
         -3    1    6    6    0  503  0.13517142971E+03 -0.48205381543E+02  0.14920352682E+03  0.20701875914E+03  0.00000000000E+00 0.  1.
<mgrwt>
<rscale>  0 0.16439380E+04</rscale>
<asrwt>0</asrwt>
<pdfrwt beam="1">  1        2 0.26303273E+00 0.16439380E+04</pdfrwt>
<pdfrwt beam="2">  1       -1 0.60795912E-01 0.16439380E+04</pdfrwt>
<totfact> 0.28931989E+01</totfact>
</mgrwt>
</event>
<event>
12    7  0.1741211E-007  0.2044787E+04  0.7818608E-02  0.8585963E-01
          2   -1    0    0  501    0  0.00000000000E+00  0.00000000000E+00  0.16053223274E+04  0.16053223274E+04  0.00000000000E+00 0. -1.
         -1   -1    0    0    0  501 -0.00000000000E+00 -0.00000000000E+00 -0.65113911810E+03  0.65113911810E+03  0.00000000000E+00 0.  1.
         24    2    1    2    0    0 -0.28869694879E+03  0.68172798335E+03  0.48280582973E+03  0.88724230288E+03  0.77449746767E+02 0.  0.
        254    2    1    2    0    0  0.28869694879E+03 -0.68172798335E+03  0.47137737952E+03  0.13692191426E+04  0.10509355142E+04 0.  0.
         23    2    4    4    0    0  0.79677398527E+02 -0.79457251135E+03 -0.32677406746E+02  0.80439086451E+03  0.91010364090E+02 0.  0.
         23    2    4    4    0    0  0.20901955026E+03  0.11284452800E+03  0.50405478627E+03  0.56482827807E+03  0.92394243621E+02 0.  0.
          4    1    3    3  502    0 -0.55856064174E+02  0.90555752068E+02  0.96555030167E+02  0.14367713106E+03  0.00000000000E+00 0. -1.
         -3    1    3    3    0  502 -0.23284088461E+03  0.59117223128E+03  0.38625079957E+03  0.74356517182E+03  0.00000000000E+00 0.  1.
         13    1    5    5    0    0  0.23784071786E+02 -0.81640818346E+02 -0.27103938337E+02  0.89249811005E+02  0.00000000000E+00 0.  1.
        -13    1    5    5    0    0  0.55893326741E+02 -0.71293169300E+03 -0.55734684082E+01  0.71514105350E+03  0.00000000000E+00 0. -1.
          1    1    6    6  503    0  0.18020708874E+03  0.78530308808E+02  0.32132029456E+03  0.37668068165E+03  0.00000000000E+00 0. -1.
         -1    1    6    6    0  503  0.28812461524E+02  0.34314219190E+02  0.18273449171E+03  0.18814759642E+03  0.00000000000E+00 0.  1.
<mgrwt>
<rscale>  0 0.20447867E+04</rscale>
<asrwt>0</asrwt>
<pdfrwt beam="1">  1        2 0.24697266E+00 0.20447867E+04</pdfrwt>
<pdfrwt beam="2">  1       -1 0.10017525E+00 0.20447867E+04</pdfrwt>
<totfact> 0.11086749E+01</totfact>
</mgrwt>
</event>
<event>
12    7  0.1906156E-007  0.2350140E+04  0.7818608E-02  0.8458410E-01
         -1   -1    0    0    0  501 -0.00000000000E+00  0.00000000000E+00  0.58510801398E+03  0.58510801398E+03  0.00000000000E+00 0.  1.
          2   -1    0    0  501    0  0.00000000000E+00 -0.00000000000E+00 -0.23598882160E+04  0.23598882160E+04  0.00000000000E+00 0. -1.
         24    2    1    2    0    0  0.58078678895E+03 -0.78156017367E+03 -0.90735188784E+03  0.13333521054E+04  0.79942412132E+02 0.  0.
        254    2    1    2    0    0 -0.58078678895E+03  0.78156017367E+03 -0.86742831420E+03  0.16116441246E+04  0.94700332887E+03 0.  0.
         23    2    4    4    0    0 -0.17563608604E+03 -0.17737477392E+03 -0.21770024224E+02  0.26729716885E+03  0.93080596147E+02 0.  0.
         23    2    4    4    0    0 -0.40515070291E+03  0.95893494758E+03 -0.84565828998E+03  0.13443469558E+04  0.91801243611E+02 0.  0.
          2    1    3    3  502    0  0.50448834344E+03 -0.68191533459E+03 -0.75154156068E+03  0.11332836051E+04  0.00000000000E+00 0. -1.
         -1    1    3    3    0  502  0.76298445510E+02 -0.99644839076E+02 -0.15581032717E+03  0.20006850025E+03  0.00000000000E+00 0.  1.
         13    1    5    5    0    0  0.26896716225E+01  0.63732375702E+01 -0.84181465344E+01  0.10895764390E+02  0.00000000000E+00 0.  1.
        -13    1    5    5    0    0 -0.17832575767E+03 -0.18374801149E+03 -0.13351877690E+02  0.25640140446E+03  0.00000000000E+00 0. -1.
          1    1    6    6  503    0 -0.37477331433E+03  0.91719552287E+03 -0.82272740318E+03  0.12878598698E+04  0.00000000000E+00 0. -1.
         -1    1    6    6    0  503 -0.30377388577E+02  0.41739424710E+02 -0.22930886798E+02  0.56487085969E+02  0.00000000000E+00 0.  1.
<mgrwt>
<rscale>  0 0.23501400E+04</rscale>
<asrwt>0</asrwt>
<pdfrwt beam="1">  1        2 0.36305973E+00 0.23501400E+04</pdfrwt>
<pdfrwt beam="2">  1       -1 0.90016617E-01 0.23501400E+04</pdfrwt>
<totfact> 0.51980788E+00</totfact>
</mgrwt>
</event>
<event>
12    7  0.1741211E-007  0.1975565E+04  0.7818608E-02  0.8618131E-01
         -1   -1    0    0    0  501 -0.00000000000E+00  0.00000000000E+00  0.76988918133E+03  0.76988918133E+03  0.00000000000E+00 0.  1.
          2   -1    0    0  501    0  0.00000000000E+00 -0.00000000000E+00 -0.12673436972E+04  0.12673436972E+04  0.00000000000E+00 0. -1.
         24    2    1    2    0    0 -0.74168178968E+03  0.18543216635E+03 -0.37102560810E+02  0.76953785593E+03  0.79592375430E+02 0.  0.
        254    2    1    2    0    0  0.74168178968E+03 -0.18543216635E+03 -0.46035195509E+03  0.12676950226E+04  0.90036091785E+03 0.  0.
         23    2    4    4    0    0  0.52902204084E+03  0.18666097119E+03  0.77835323317E+02  0.57354716146E+03  0.90506193231E+02 0.  0.
         23    2    4    4    0    0  0.21265974884E+03 -0.37209313754E+03 -0.53818727840E+03  0.69414786116E+03  0.92294283360E+02 0.  0.
          4    1    3    3  502    0 -0.62343151059E+03  0.17063808727E+03 -0.56380367273E+02  0.64881657735E+03  0.00000000000E+00 0. -1.
         -1    1    3    3    0  502 -0.11825027908E+03  0.14794079081E+02  0.19277806462E+02  0.12072127858E+03  0.00000000000E+00 0.  1.
         13    1    5    5    0    0  0.76713517394E+02 -0.18806361041E+01  0.24847208683E+02  0.80659062246E+02  0.00000000000E+00 0. -1.
        -13    1    5    5    0    0  0.45230852344E+03  0.18854160729E+03  0.52988114634E+02  0.49288809922E+03  0.00000000000E+00 0.  1.
          2    1    6    6  503    0  0.20630857627E+03 -0.31772841738E+03 -0.43122308508E+03  0.57399296594E+03  0.00000000000E+00 0.  1.
         -2    1    6    6    0  503  0.63511725783E+01 -0.54364720162E+02 -0.10696419332E+03  0.12015489522E+03  0.00000000000E+00 0. -1.
<mgrwt>
<rscale>  0 0.19755649E+04</rscale>
<asrwt>0</asrwt>
<pdfrwt beam="1">  1        2 0.19497595E+00 0.19755649E+04</pdfrwt>
<pdfrwt beam="2">  1       -1 0.11844449E+00 0.19755649E+04</pdfrwt>
<totfact> 0.11719398E+01</totfact>
</mgrwt>
</event>
<event>
12    7  0.1741211E-007  0.2633116E+04  0.7818608E-02  0.8357039E-01
          2   -1    0    0  501    0  0.00000000000E+00  0.00000000000E+00  0.13829737198E+04  0.13829737198E+04  0.00000000000E+00 0. -1.
         -1   -1    0    0    0  501 -0.00000000000E+00 -0.00000000000E+00 -0.12533316972E+04  0.12533316972E+04  0.00000000000E+00 0.  1.
         24    2    1    2    0    0 -0.60398327394E+03  0.52837926824E+03  0.88984703755E+03  0.12003774584E+04  0.71399203090E+02 0.  0.
        254    2    1    2    0    0  0.60398327394E+03 -0.52837926824E+03 -0.76020501494E+03  0.14359279586E+04  0.91651349759E+03 0.  0.
         23    2    4    4    0    0  0.78112585786E+03 -0.17812631332E+03 -0.42273021550E+03  0.91041178233E+03  0.90896584047E+02 0.  0.
         23    2    4    4    0    0 -0.17714258392E+03 -0.35025295492E+03 -0.33747479944E+03  0.52551617628E+03  0.90671846860E+02 0.  0.
          2    1    3    3  502    0 -0.59268725928E+03  0.52015978635E+03  0.88553815854E+03  0.11857580786E+04  0.00000000000E+00 0. -1.
         -1    1    3    3    0  502 -0.11296014659E+02  0.82194818890E+01  0.43088790045E+01  0.14619379877E+02  0.00000000000E+00 0.  1.
         13    1    5    5    0    0  0.29249284029E+03 -0.11212209153E+03 -0.16480336926E+03  0.35395419979E+03  0.00000000000E+00 0. -1.
        -13    1    5    5    0    0  0.48863301757E+03 -0.66004221795E+02 -0.25792684625E+03  0.55645758254E+03  0.00000000000E+00 0.  1.
          4    1    6    6  503    0 -0.39499765165E+02 -0.35831401307E+02 -0.81282608230E+02  0.97216167217E+02  0.00000000000E+00 0. -1.
         -4    1    6    6    0  503 -0.13764281875E+03 -0.31442155361E+03 -0.25619219121E+03  0.42830000906E+03  0.00000000000E+00 0.  1.
<mgrwt>
<rscale>  0 0.26331159E+04</rscale>
<asrwt>0</asrwt>
<pdfrwt beam="1">  1        2 0.21276519E+00 0.26331159E+04</pdfrwt>
<pdfrwt beam="2">  1       -1 0.19282026E+00 0.26331159E+04</pdfrwt>
<totfact> 0.25110740E+00</totfact>
</mgrwt>
</event>
<event>
12    7  0.1741211E-007  0.1568489E+04  0.7818608E-02  0.8840144E-01
         -1   -1    0    0    0  501 -0.00000000000E+00  0.00000000000E+00  0.45533602327E+03  0.45533602327E+03  0.00000000000E+00 0.  1.
          2   -1    0    0  501    0  0.00000000000E+00 -0.00000000000E+00 -0.13507367958E+04  0.13507367958E+04  0.00000000000E+00 0. -1.
         24    2    1    2    0    0  0.11509837976E+02  0.40988326594E+03 -0.70956292819E+03  0.82330024132E+03  0.78784327272E+02 0.  0.
        254    2    1    2    0    0 -0.11509837976E+02 -0.40988326594E+03 -0.18583784430E+03  0.98277257771E+03  0.87359571145E+03 0.  0.
         23    2    4    4    0    0 -0.12923905961E+03 -0.23266480800E+03  0.32051429869E+03  0.42615579330E+03  0.89686660603E+02 0.  0.
         23    2    4    4    0    0  0.11772922164E+03 -0.17721845794E+03 -0.50635214298E+03  0.55661678440E+03  0.90350431730E+02 0.  0.
          2    1    3    3  502    0  0.45451731780E+02  0.23016517996E+03 -0.39308677394E+03  0.45777623555E+03  0.00000000000E+00 0. -1.
         -1    1    3    3    0  502 -0.33941893804E+02  0.17971808598E+03 -0.31647615425E+03  0.36552400577E+03  0.00000000000E+00 0.  1.
         13    1    5    5    0    0 -0.13875829769E+03 -0.18905206405E+03  0.25066040886E+03  0.34325673871E+03  0.00000000000E+00 0.  1.
        -13    1    5    5    0    0  0.95192380762E+01 -0.43612743957E+02  0.69853889827E+02  0.82899054596E+02  0.00000000000E+00 0. -1.
          1    1    6    6  503    0 -0.10108967903E+02 -0.18101226553E+02 -0.97109469513E+02  0.99298009567E+02  0.00000000000E+00 0. -1.
         -1    1    6    6    0  503  0.12783818954E+03 -0.15911723138E+03 -0.40924267347E+03  0.45731877484E+03  0.00000000000E+00 0.  1.
<mgrwt>
<rscale>  0 0.15684886E+04</rscale>
<asrwt>0</asrwt>
<pdfrwt beam="1">  1        2 0.20780566E+00 0.15684886E+04</pdfrwt>
<pdfrwt beam="2">  1       -1 0.70051697E-01 0.15684886E+04</pdfrwt>
<totfact> 0.34866497E+01</totfact>
</mgrwt>
</event>
<event>
12    7  0.1741211E-007  0.1423743E+04  0.7818608E-02  0.8936809E-01
         -1   -1    0    0    0  501 -0.00000000000E+00  0.00000000000E+00  0.11219623901E+04  0.11219623901E+04  0.00000000000E+00 0.  1.
          2   -1    0    0  501    0  0.00000000000E+00 -0.00000000000E+00 -0.45167380163E+03  0.45167380163E+03  0.00000000000E+00 0. -1.
         24    2    1    2    0    0  0.19494784125E+02 -0.26355705095E+03 -0.11940072526E+03  0.30102151783E+03  0.80715892429E+02 0.  0.
        254    2    1    2    0    0 -0.19494784125E+02  0.26355705095E+03  0.78968931378E+03  0.12726146739E+04  0.96233909321E+03 0.  0.
         23    2    4    4    0    0  0.30772127081E+03 -0.52613428777E+02  0.73521712648E+03  0.80403384220E+03  0.92008928572E+02 0.  0.
         23    2    4    4    0    0 -0.32721605493E+03  0.31617047972E+03  0.54472187299E+02  0.46858083174E+03  0.97809293183E+02 0.  0.
          2    1    3    3  502    0 -0.65858307306E+01 -0.22138686167E+03 -0.73248811427E+02  0.23328288420E+03  0.00000000000E+00 0. -1.
         -1    1    3    3    0  502  0.26080614856E+02 -0.42170189277E+02 -0.46151913833E+02  0.67738633625E+02  0.00000000000E+00 0.  1.
         13    1    5    5    0    0  0.28054461309E+03 -0.74797099397E+02  0.65967898351E+03  0.72074700644E+03  0.00000000000E+00 0.  1.
        -13    1    5    5    0    0  0.27176657719E+02  0.22183670621E+02  0.75538142970E+02  0.83286835757E+02  0.00000000000E+00 0. -1.
          2    1    6    6  503    0 -0.89015535388E+02  0.72820666281E+02  0.56302013639E+02  0.12804894267E+03  0.00000000000E+00 0. -1.
         -2    1    6    6    0  503 -0.23820051954E+03  0.24334981344E+03 -0.18298263392E+01  0.34053188908E+03  0.00000000000E+00 0.  1.
<mgrwt>
<rscale>  0 0.14237430E+04</rscale>
<asrwt>0</asrwt>
<pdfrwt beam="1">  1        2 0.69488278E-01 0.14237430E+04</pdfrwt>
<pdfrwt beam="2">  1       -1 0.17260960E+00 0.14237430E+04</pdfrwt>
<totfact> 0.18119454E+01</totfact>
</mgrwt>
</event>
<event>
12    7  0.1741211E-007  0.3181672E+04  0.7818608E-02  0.8193674E-01
          2   -1    0    0  501    0  0.00000000000E+00  0.00000000000E+00  0.20461498141E+04  0.20461498141E+04  0.00000000000E+00 0. -1.
         -1   -1    0    0    0  501 -0.00000000000E+00 -0.00000000000E+00 -0.12368396675E+04  0.12368396675E+04  0.00000000000E+00 0.  1.
         24    2    1    2    0    0  0.13626016726E+03  0.63998545133E+03  0.17210082212E+04  0.18429708157E+04  0.80770781084E+02 0.  0.
        254    2    1    2    0    0 -0.13626016726E+03 -0.63998545133E+03 -0.91169807448E+03  0.14400186659E+04  0.90239246895E+03 0.  0.
         23    2    4    4    0    0  0.31372414428E+02 -0.61825334868E+03 -0.13552272323E+03  0.64008605840E+03  0.90123926336E+02 0.  0.
         23    2    4    4    0    0 -0.16763258169E+03 -0.21732102644E+02 -0.77617535126E+03  0.79993260750E+03  0.94186166220E+02 0.  0.
          2    1    3    3  502    0  0.12374136327E+03  0.39362598573E+03  0.10791058280E+04  0.11553020080E+04  0.00000000000E+00 0. -1.
         -1    1    3    3    0  502  0.12518803989E+02  0.24635946560E+03  0.64190239316E+03  0.68766880771E+03  0.00000000000E+00 0.  1.
         13    1    5    5    0    0 -0.10693171087E+02 -0.34182670759E+03 -0.38648374495E+02  0.34417079885E+03  0.00000000000E+00 0.  1.
        -13    1    5    5    0    0  0.42065585515E+02 -0.27642664110E+03 -0.96874348732E+02  0.29591525955E+03  0.00000000000E+00 0. -1.
          1    1    6    6  503    0 -0.31139623244E+02  0.11183364948E+02 -0.47713653256E+02  0.58063211196E+02  0.00000000000E+00 0. -1.
         -1    1    6    6    0  503 -0.13649295844E+03 -0.32915467592E+02 -0.72846169800E+03  0.74186939630E+03  0.00000000000E+00 0.  1.
<mgrwt>
<rscale>  0 0.31816720E+04</rscale>
<asrwt>0</asrwt>
<pdfrwt beam="1">  1        2 0.31479228E+00 0.31816720E+04</pdfrwt>
<pdfrwt beam="2">  1       -1 0.19028303E+00 0.31816720E+04</pdfrwt>
<totfact> 0.10624075E+00</totfact>
</mgrwt>
</event>
<event>
12    7  0.1741211E-007  0.1206101E+04  0.7818608E-02  0.9107533E-01
         -1   -1    0    0    0  501 -0.00000000000E+00  0.00000000000E+00  0.59446840994E+03  0.59446840994E+03  0.00000000000E+00 0.  1.
          2   -1    0    0  501    0  0.00000000000E+00 -0.00000000000E+00 -0.61175681379E+03  0.61175681379E+03  0.00000000000E+00 0. -1.
         24    2    1    2    0    0  0.70927790976E+02 -0.23974591228E+03 -0.79001233982E+02  0.27439534682E+03  0.80887312965E+02 0.  0.
        254    2    1    2    0    0 -0.70927790976E+02  0.23974591228E+03  0.61712830136E+02  0.93182987691E+03  0.89553871614E+03 0.  0.
         23    2    4    4    0    0  0.14608427949E+03  0.52749764827E+03  0.33407865087E+00  0.55489232429E+03  0.91164654865E+02 0.  0.
         23    2    4    4    0    0 -0.21701207047E+03 -0.28775173599E+03  0.61378751485E+02  0.37693755263E+03  0.91756564622E+02 0.  0.
          4    1    3    3  502    0  0.40979748982E+02 -0.20635415305E+03 -0.89009282367E+02  0.22843823816E+03  0.00000000000E+00 0. -1.
         -3    1    3    3    0  502  0.29948041994E+02 -0.33391759232E+02  0.10008048385E+02  0.45957108660E+02  0.00000000000E+00 0.  1.
         13    1    5    5    0    0  0.76612345275E+02  0.35133745583E+03 -0.38299918545E+02  0.36162735388E+03  0.00000000000E+00 0. -1.
        -13    1    5    5    0    0  0.69471934215E+02  0.17616019244E+03  0.38633997196E+02  0.19326497040E+03  0.00000000000E+00 0.  1.
          4    1    6    6  503    0 -0.46112528952E+02 -0.71787530250E+02 -0.23947265308E+02  0.88618769690E+02  0.00000000000E+00 0. -1.
         -4    1    6    6    0  503 -0.17089954151E+03 -0.21596420574E+03  0.85326016793E+02  0.28831878294E+03  0.00000000000E+00 0.  1.
<mgrwt>
<rscale>  0 0.12061013E+04</rscale>
<asrwt>0</asrwt>
<pdfrwt beam="1">  1        2 0.94116432E-01 0.12061013E+04</pdfrwt>
<pdfrwt beam="2">  1       -1 0.91456679E-01 0.12061013E+04</pdfrwt>
<totfact> 0.63684201E+01</totfact>
</mgrwt>
</event>
<event>
12    7  0.1741211E-007  0.2454156E+04  0.7818608E-02  0.8419502E-01
          2   -1    0    0  501    0  0.00000000000E+00  0.00000000000E+00  0.97167378958E+03  0.97167378958E+03  0.00000000000E+00 0. -1.
         -1   -1    0    0    0  501 -0.00000000000E+00 -0.00000000000E+00 -0.15496151901E+04  0.15496151901E+04  0.00000000000E+00 0.  1.
         24    2    1    2    0    0  0.30293317429E+03 -0.99954725479E+03 -0.44811353014E+03  0.11393524261E+04  0.80342966394E+02 0.  0.
        254    2    1    2    0    0 -0.30293317429E+03  0.99954725479E+03 -0.12982787036E+03  0.13819365536E+04  0.89556135445E+03 0.  0.
         23    2    4    4    0    0 -0.21583234083E+03  0.78502563578E+03 -0.48226168305E+03  0.95037999369E+03  0.88300358371E+02 0.  0.
         23    2    4    4    0    0 -0.87100833460E+02  0.21452161901E+03  0.35243381270E+03  0.43155655990E+03  0.91789933262E+02 0.  0.
          2    1    3    3  502    0  0.25747215914E+03 -0.76522906366E+03 -0.32028452844E+03  0.86859058927E+03  0.00000000000E+00 0. -1.
         -1    1    3    3    0  502  0.45461015145E+02 -0.23431819113E+03 -0.12782900170E+03  0.27076183680E+03  0.00000000000E+00 0.  1.
         13    1    5    5    0    0 -0.12744833955E+03  0.51231021921E+03 -0.26518293841E+03  0.59078492769E+03  0.00000000000E+00 0.  1.
        -13    1    5    5    0    0 -0.88384001283E+02  0.27271541657E+03 -0.21707874465E+03  0.35959506601E+03  0.00000000000E+00 0. -1.
          1    1    6    6  503    0 -0.34626311157E+02  0.48081334674E+02  0.16566614363E+03  0.17594336394E+03  0.00000000000E+00 0. -1.
         -1    1    6    6    0  503 -0.52474522303E+02  0.16644028434E+03  0.18676766906E+03  0.25561319596E+03  0.00000000000E+00 0.  1.
<mgrwt>
<rscale>  0 0.24541560E+04</rscale>
<asrwt>0</asrwt>
<pdfrwt beam="1">  1        2 0.14948828E+00 0.24541560E+04</pdfrwt>
<pdfrwt beam="2">  1       -1 0.23840234E+00 0.24541560E+04</pdfrwt>
<totfact> 0.22277049E+00</totfact>
</mgrwt>
</event>
<event>
12    7  0.1741211E-007  0.2306405E+04  0.7818608E-02  0.8475400E-01
         -1   -1    0    0    0  501 -0.00000000000E+00  0.00000000000E+00  0.50594515494E+03  0.50594515494E+03  0.00000000000E+00 0.  1.
          2   -1    0    0  501    0  0.00000000000E+00 -0.00000000000E+00 -0.26284987363E+04  0.26284987363E+04  0.00000000000E+00 0. -1.
         24    2    1    2    0    0  0.62678274240E+02  0.30318621351E+03  0.35785586296E+03  0.47915564774E+03  0.75358277436E+02 0.  0.
        254    2    1    2    0    0 -0.62678274240E+02 -0.30318621351E+03 -0.24804094443E+04  0.26552882435E+04  0.89569760434E+03 0.  0.
         23    2    4    4    0    0 -0.37532713007E+03 -0.27205402023E+03 -0.21038166811E+04  0.21560981509E+04  0.88491604794E+02 0.  0.
         23    2    4    4    0    0  0.31264885583E+03 -0.31132193273E+02 -0.37659276322E+03  0.49919009260E+03  0.93006014474E+02 0.  0.
          2    1    3    3  502    0 -0.10614406363E+02  0.28839311727E+02  0.61270608088E+02  0.68545305739E+02  0.00000000000E+00 0. -1.
         -1    1    3    3    0  502  0.73292680603E+02  0.27434690178E+03  0.29658525487E+03  0.41061034200E+03  0.00000000000E+00 0.  1.
         13    1    5    5    0    0 -0.34498515764E+03 -0.24342429070E+03 -0.17688374039E+04  0.18185312496E+04  0.00000000000E+00 0. -1.
        -13    1    5    5    0    0 -0.30341972433E+02 -0.28629729537E+02 -0.33497927713E+03  0.33756690124E+03  0.00000000000E+00 0.  1.
          4    1    6    6  503    0  0.18250248870E+03 -0.17871913542E+02 -0.28718141073E+03  0.34073409918E+03  0.00000000000E+00 0. -1.
         -4    1    6    6    0  503  0.13014636713E+03 -0.13260279731E+02 -0.89411352490E+02  0.15845599342E+03  0.00000000000E+00 0.  1.
<mgrwt>
<rscale>  0 0.23064052E+04</rscale>
<asrwt>0</asrwt>
<pdfrwt beam="1">  1        2 0.40438441E+00 0.23064052E+04</pdfrwt>
<pdfrwt beam="2">  1       -1 0.77837718E-01 0.23064052E+04</pdfrwt>
<totfact> 0.49912078E+00</totfact>
</mgrwt>
</event>
<event>
12    7  0.1741211E-007  0.1560613E+04  0.7818608E-02  0.8845117E-01
         -1   -1    0    0    0  501 -0.00000000000E+00  0.00000000000E+00  0.79066905799E+03  0.79066905799E+03  0.00000000000E+00 0.  1.
          2   -1    0    0  501    0  0.00000000000E+00 -0.00000000000E+00 -0.77007934282E+03  0.77007934282E+03  0.00000000000E+00 0. -1.
         24    2    1    2    0    0  0.17447591646E+03 -0.36198754049E+03  0.32856113611E+03  0.52516337684E+03  0.79795534436E+02 0.  0.
        254    2    1    2    0    0 -0.17447591646E+03  0.36198754049E+03 -0.30797142094E+03  0.10355850240E+04  0.90338979454E+03 0.  0.
         23    2    4    4    0    0 -0.25678503301E+03  0.58018515167E+03 -0.46687059996E+01  0.64221731025E+03  0.99337371508E+02 0.  0.
         23    2    4    4    0    0  0.82309116549E+02 -0.21819761119E+03 -0.30330271494E+03  0.39336771372E+03  0.91436497710E+02 0.  0.
          2    1    3    3  502    0  0.28308791889E+02 -0.13136927017E+02  0.30031861341E+02  0.43311421649E+02  0.00000000000E+00 0. -1.
         -1    1    3    3    0  502  0.14616712457E+03 -0.34885061347E+03  0.29852927477E+03  0.48185195519E+03  0.00000000000E+00 0.  1.
         13    1    5    5    0    0 -0.20298494510E+03  0.50038442783E+03  0.27643416904E+02  0.54069549845E+03  0.00000000000E+00 0.  1.
        -13    1    5    5    0    0 -0.53800087908E+02  0.79800723846E+02 -0.32312122904E+02  0.10152181180E+03  0.00000000000E+00 0. -1.
          1    1    6    6  503    0 -0.45437591424E+01 -0.62596349836E+02 -0.36732578442E+02  0.72720224690E+02  0.00000000000E+00 0. -1.
         -1    1    6    6    0  503  0.86852875691E+02 -0.15560126135E+03 -0.26657013649E+03  0.32064748903E+03  0.00000000000E+00 0.  1.
<mgrwt>
<rscale>  0 0.15606126E+04</rscale>
<asrwt>0</asrwt>
<pdfrwt beam="1">  1        2 0.11847374E+00 0.15606126E+04</pdfrwt>
<pdfrwt beam="2">  1       -1 0.12164139E+00 0.15606126E+04</pdfrwt>
<totfact> 0.23826986E+01</totfact>
</mgrwt>
</event>
<event>
12    7  0.1741211E-007  0.1903891E+04  0.7818608E-02  0.8652922E-01
         -1   -1    0    0    0  501 -0.00000000000E+00  0.00000000000E+00  0.52541226365E+03  0.52541226365E+03  0.00000000000E+00 0.  1.
          2   -1    0    0  501    0  0.00000000000E+00 -0.00000000000E+00 -0.17247414955E+04  0.17247414955E+04  0.00000000000E+00 0. -1.
         24    2    1    2    0    0  0.11728078274E+03  0.64472907106E+03 -0.86262077543E+03  0.10874381655E+04  0.94746000472E+02 0.  0.
        254    2    1    2    0    0 -0.11728078274E+03 -0.64472907106E+03 -0.33670845638E+03  0.11627155936E+04  0.89950242351E+03 0.  0.
         23    2    4    4    0    0 -0.45215285079E+03 -0.57551616239E+03 -0.33173192412E+03  0.80903666768E+03  0.93985139858E+02 0.  0.
         23    2    4    4    0    0  0.33487206805E+03 -0.69212908662E+02 -0.49765322663E+01  0.35367892590E+03  0.90190288084E+02 0.  0.
          4    1    3    3  502    0  0.11934183102E+03  0.45068391372E+03 -0.57107614697E+03  0.73721532021E+03  0.00000000000E+00 0. -1.
         -3    1    3    3    0  502 -0.20610482835E+01  0.19404515733E+03 -0.29154462846E+03  0.35022284533E+03  0.00000000000E+00 0.  1.
         13    1    5    5    0    0 -0.36541778905E+03 -0.50677495308E+03 -0.25743940676E+03  0.67574112038E+03  0.00000000000E+00 0. -1.
        -13    1    5    5    0    0 -0.86735061740E+02 -0.68741209312E+02 -0.74292517362E+02  0.13329554730E+03  0.00000000000E+00 0.  1.
          3    1    6    6  503    0  0.26451348844E+03 -0.42479970193E+02 -0.39630701627E+02  0.27081825261E+03  0.00000000000E+00 0. -1.
         -3    1    6    6    0  503  0.70358579617E+02 -0.26732938469E+02  0.34654169361E+02  0.82860673296E+02  0.00000000000E+00 0.  1.
<mgrwt>
<rscale>  0 0.19038911E+04</rscale>
<asrwt>0</asrwt>
<pdfrwt beam="1">  1        2 0.26534484E+00 0.19038911E+04</pdfrwt>
<pdfrwt beam="2">  1       -1 0.80832657E-01 0.19038911E+04</pdfrwt>
<totfact> 0.15458081E+01</totfact>
</mgrwt>
</event>
<event>
12    7  0.1741211E-007  0.2131192E+04  0.7818608E-02  0.8547626E-01
          2   -1    0    0  501    0  0.00000000000E+00  0.00000000000E+00  0.12306607879E+04  0.12306607879E+04  0.00000000000E+00 0. -1.
         -1   -1    0    0    0  501 -0.00000000000E+00 -0.00000000000E+00 -0.92267079531E+03  0.92267079531E+03  0.00000000000E+00 0.  1.
         24    2    1    2    0    0  0.18930419933E+03  0.50712679748E+03 -0.55870051102E+03  0.78181898567E+03  0.77980745901E+02 0.  0.
        254    2    1    2    0    0 -0.18930419933E+03 -0.50712679748E+03  0.86669050359E+03  0.13715125975E+04  0.91481184269E+03 0.  0.
         23    2    4    4    0    0  0.19919504914E+03 -0.44504513635E+03  0.99957517201E+02  0.50581239668E+03  0.90060170958E+02 0.  0.
         23    2    4    4    0    0 -0.38849924847E+03 -0.62081661126E+02  0.76673298639E+03  0.86570020084E+03  0.82289529151E+02 0.  0.
          4    1    3    3  502    0  0.75744231737E+02  0.10906668351E+03 -0.14403082612E+03  0.19590203921E+03  0.00000000000E+00 0. -1.
         -3    1    3    3    0  502  0.11355996759E+03  0.39806011397E+03 -0.41466968490E+03  0.58591694645E+03  0.00000000000E+00 0.  1.
         13    1    5    5    0    0  0.15830438951E+03 -0.27657664879E+03  0.34633082589E+02  0.32055322928E+03  0.00000000000E+00 0. -1.
        -13    1    5    5    0    0  0.40890659639E+02 -0.16846848756E+03  0.65324434612E+02  0.18525916739E+03  0.00000000000E+00 0.  1.
          4    1    6    6  503    0 -0.35295898765E+03 -0.77346864380E+02  0.66438470946E+03  0.75628673567E+03  0.00000000000E+00 0. -1.
         -4    1    6    6    0  503 -0.35540260825E+02  0.15265203254E+02  0.10234827692E+03  0.10941346516E+03  0.00000000000E+00 0.  1.
<mgrwt>
<rscale>  0 0.21311919E+04</rscale>
<asrwt>0</asrwt>
<pdfrwt beam="1">  1        2 0.18933243E+00 0.21311919E+04</pdfrwt>
<pdfrwt beam="2">  1       -1 0.14194935E+00 0.21311919E+04</pdfrwt>
<totfact> 0.76924248E+00</totfact>
</mgrwt>
</event>
<event>
12    7  0.1741211E-007  0.1463005E+04  0.7818608E-02  0.8909434E-01
          2   -1    0    0  501    0  0.00000000000E+00  0.00000000000E+00  0.61768102151E+03  0.61768102151E+03  0.00000000000E+00 0. -1.
         -1   -1    0    0    0  501 -0.00000000000E+00 -0.00000000000E+00 -0.86629821555E+03  0.86629821555E+03  0.00000000000E+00 0.  1.
         24    2    1    2    0    0  0.16871295029E+03  0.41208428094E+03 -0.12483740910E+03  0.46914879659E+03  0.78985444497E+02 0.  0.
        254    2    1    2    0    0 -0.16871295029E+03 -0.41208428094E+03 -0.12377978493E+03  0.10148304405E+04  0.90348318941E+03 0.  0.
         23    2    4    4    0    0 -0.33443458205E+03  0.15557627124E+03 -0.16640115921E+03  0.41454465186E+03  0.90041416881E+02 0.  0.
         23    2    4    4    0    0  0.16572163176E+03 -0.56766055218E+03  0.42621374279E+02  0.60028578861E+03  0.93937664067E+02 0.  0.
          4    1    3    3  502    0  0.15350184879E+03  0.33849783686E+03 -0.13018430761E+03  0.39381665415E+03  0.00000000000E+00 0. -1.
         -3    1    3    3    0  502  0.15211101498E+02  0.73586444080E+02  0.53468985071E+01  0.75332142441E+02  0.00000000000E+00 0.  1.
         13    1    5    5    0    0 -0.67870040699E+02  0.41404407023E+02  0.13879152125E+01  0.79514738596E+02  0.00000000000E+00 0. -1.
        -13    1    5    5    0    0 -0.26656454135E+03  0.11417186422E+03 -0.16778907442E+03  0.33502991326E+03  0.00000000000E+00 0.  1.
          3    1    6    6  503    0  0.98546227086E+02 -0.40458557870E+03 -0.90200712505E+01  0.41651195788E+03  0.00000000000E+00 0. -1.
         -3    1    6    6    0  503  0.67175404672E+02 -0.16307497347E+03  0.51641445529E+02  0.18377383073E+03  0.00000000000E+00 0.  1.
<mgrwt>
<rscale>  0 0.14630051E+04</rscale>
<asrwt>0</asrwt>
<pdfrwt beam="1">  1        2 0.95027850E-01 0.14630051E+04</pdfrwt>
<pdfrwt beam="2">  1       -1 0.13327665E+00 0.14630051E+04</pdfrwt>
<totfact> 0.25235273E+01</totfact>
</mgrwt>
</event>
<event>
12    7  0.1741211E-007  0.1639381E+04  0.7818608E-02  0.8796714E-01
          2   -1    0    0  501    0  0.00000000000E+00  0.00000000000E+00  0.60941286845E+03  0.60941286845E+03  0.00000000000E+00 0. -1.
         -1   -1    0    0    0  501 -0.00000000000E+00 -0.00000000000E+00 -0.11025240066E+04  0.11025240066E+04  0.00000000000E+00 0.  1.
         24    2    1    2    0    0  0.19845242316E+03 -0.27135896154E+03  0.30609628177E+03  0.46179389698E+03  0.80867912742E+02 0.  0.
        254    2    1    2    0    0 -0.19845242316E+03  0.27135896154E+03 -0.79920741991E+03  0.12501429781E+04  0.90061418781E+03 0.  0.
         23    2    4    4    0    0 -0.31638019000E+02 -0.25895389439E+03 -0.54782190152E+01  0.27619358540E+03  0.90525146049E+02 0.  0.
         23    2    4    4    0    0 -0.16681440416E+03  0.53031285592E+03 -0.79372920090E+03  0.97394939266E+03  0.97532581792E+02 0.  0.
          2    1    3    3  502    0  0.14182102020E+03 -0.20408197915E+03  0.26934961506E+03  0.36648584027E+03  0.00000000000E+00 0. -1.
         -1    1    3    3    0  502  0.56631402962E+02 -0.67276982390E+02  0.36746666716E+02  0.95308056720E+02  0.00000000000E+00 0.  1.
         13    1    5    5    0    0 -0.60376360474E+02 -0.21723587217E+03 -0.35314284870E+01  0.22549767194E+03  0.00000000000E+00 0. -1.
        -13    1    5    5    0    0  0.28738341474E+02 -0.41718022214E+02 -0.19467905282E+01  0.50695913459E+02  0.00000000000E+00 0.  1.
          2    1    6    6  503    0 -0.15101234685E+03  0.42013586681E+03 -0.56969564436E+03  0.72379002666E+03  0.00000000000E+00 0.  1.
         -2    1    6    6    0  503 -0.15802057309E+02  0.11017698911E+03 -0.22403355653E+03  0.25015936600E+03  0.00000000000E+00 0. -1.
<mgrwt>
<rscale>  0 0.16393808E+04</rscale>
<asrwt>0</asrwt>
<pdfrwt beam="1">  1        2 0.93755827E-01 0.16393808E+04</pdfrwt>
<pdfrwt beam="2">  1       -1 0.16961908E+00 0.16393808E+04</pdfrwt>
<totfact> 0.13163601E+01</totfact>
</mgrwt>
</event>
<event>
12    7  0.1741211E-007  0.3343258E+04  0.7818608E-02  0.8151975E-01
         -1   -1    0    0    0  501 -0.00000000000E+00  0.00000000000E+00  0.21047301518E+04  0.21047301518E+04  0.00000000000E+00 0.  1.
          2   -1    0    0  501    0  0.00000000000E+00 -0.00000000000E+00 -0.13276491862E+04  0.13276491862E+04  0.00000000000E+00 0. -1.
         24    2    1    2    0    0  0.64949804073E+03  0.45046953331E+03 -0.10077146882E+04  0.12835349848E+04  0.84868480122E+02 0.  0.
        254    2    1    2    0    0 -0.64949804073E+03 -0.45046953331E+03  0.17847956538E+04  0.21488443532E+04  0.89847984031E+03 0.  0.
         23    2    4    4    0    0  0.22645280543E+02  0.22213350082E+03  0.34645735744E+03  0.42216467793E+03  0.91291915563E+02 0.  0.
         23    2    4    4    0    0 -0.67214332127E+03 -0.67260303413E+03  0.14383382963E+04  0.17266796753E+04  0.91837686430E+02 0.  0.
          2    1    3    3  502    0  0.57137703603E+03  0.39127626250E+03 -0.92353709752E+03  0.11543351339E+04  0.00000000000E+00 0. -1.
         -1    1    3    3    0  502  0.78121004694E+02  0.59193270810E+02 -0.84177590706E+02  0.12919985085E+03  0.00000000000E+00 0.  1.
         13    1    5    5    0    0 -0.66656216147E+01 -0.73166452507E+01  0.13322818181E+02  0.16597026647E+02  0.00000000000E+00 0.  1.
        -13    1    5    5    0    0  0.29310902158E+02  0.22945014607E+03  0.33313453926E+03  0.40556765128E+03  0.00000000000E+00 0. -1.
          1    1    6    6  503    0 -0.58763543348E+03 -0.60901202643E+03  0.12298036992E+04  0.14928590656E+04  0.00000000000E+00 0. -1.
         -1    1    6    6    0  503 -0.84507887791E+02 -0.63591007696E+02  0.20853459709E+03  0.23382060975E+03  0.00000000000E+00 0.  1.
<mgrwt>
<rscale>  0 0.33432579E+04</rscale>
<asrwt>0</asrwt>
<pdfrwt beam="1">  1        2 0.20425372E+00 0.33432579E+04</pdfrwt>
<pdfrwt beam="2">  1       -1 0.32380464E+00 0.33432579E+04</pdfrwt>
<totfact> 0.34890933E-01</totfact>
</mgrwt>
</event>
<event>
12    7  0.1741211E-007  0.1555180E+04  0.7818608E-02  0.8848566E-01
          2   -1    0    0  501    0  0.00000000000E+00  0.00000000000E+00  0.87525276207E+03  0.87525276207E+03  0.00000000000E+00 0. -1.
         -1   -1    0    0    0  501 -0.00000000000E+00 -0.00000000000E+00 -0.69082441803E+03  0.69082441803E+03  0.00000000000E+00 0.  1.
         24    2    1    2    0    0 -0.31877320656E+03  0.36665105210E+03  0.22291208405E+03  0.54051733006E+03  0.80123876908E+02 0.  0.
        254    2    1    2    0    0  0.31877320656E+03 -0.36665105210E+03 -0.38483740008E+02  0.10255598501E+04  0.90235395304E+03 0.  0.
         23    2    4    4    0    0  0.26250897531E+03  0.12474935099E+03  0.29375122886E+03  0.42342434104E+03  0.92331064322E+02 0.  0.
         23    2    4    4    0    0  0.56264231258E+02 -0.49140040309E+03 -0.33223496887E+03  0.60213550901E+03  0.86873913180E+02 0.  0.
          2    1    3    3  502    0 -0.60969602362E+02  0.78059718934E+02  0.11923547069E+02  0.99763636195E+02  0.00000000000E+00 0. -1.
         -1    1    3    3    0  502 -0.25780360420E+03  0.28859133316E+03  0.21098853698E+03  0.44075369386E+03  0.00000000000E+00 0.  1.
         13    1    5    5    0    0  0.14643649365E+03  0.11893819089E+03  0.18662357241E+03  0.26536446202E+03  0.00000000000E+00 0. -1.
        -13    1    5    5    0    0  0.11607248165E+03  0.58111601059E+01  0.10712765645E+03  0.15805987902E+03  0.00000000000E+00 0.  1.
          1    1    6    6  503    0  0.56882109089E+02 -0.35078082213E+03 -0.19364711723E+03  0.40469984621E+03  0.00000000000E+00 0. -1.
         -1    1    6    6    0  503 -0.61787783100E+00 -0.14061958096E+03 -0.13858785165E+03  0.19743566280E+03  0.00000000000E+00 0.  1.
<mgrwt>
<rscale>  0 0.15551797E+04</rscale>
<asrwt>0</asrwt>
<pdfrwt beam="1">  1        2 0.13465427E+00 0.15551797E+04</pdfrwt>
<pdfrwt beam="2">  1       -1 0.10628068E+00 0.15551797E+04</pdfrwt>
<totfact> 0.27714947E+01</totfact>
</mgrwt>
</event>
<event>
12    7  0.1741211E-007  0.1548200E+04  0.7818608E-02  0.8853018E-01
          2   -1    0    0  501    0  0.00000000000E+00  0.00000000000E+00  0.91500493617E+03  0.91500493617E+03  0.00000000000E+00 0. -1.
         -1   -1    0    0    0  501 -0.00000000000E+00 -0.00000000000E+00 -0.65489357752E+03  0.65489357752E+03  0.00000000000E+00 0.  1.
         24    2    1    2    0    0 -0.20198338675E+03  0.25489537351E+03  0.47241313318E+03  0.57907629698E+03  0.79914012319E+02 0.  0.
        254    2    1    2    0    0  0.20198338675E+03 -0.25489537351E+03 -0.21230177453E+03  0.99082221671E+03  0.91153040634E+03 0.  0.
         23    2    4    4    0    0  0.41422337756E+03 -0.23164472135E+03 -0.44881124568E+03  0.65937684703E+03  0.90033375510E+02 0.  0.
         23    2    4    4    0    0 -0.21223999081E+03 -0.23250652162E+02  0.23650947115E+03  0.33144536968E+03  0.91284700864E+02 0.  0.
          4    1    3    3  502    0 -0.16641750867E+03  0.18584263522E+03  0.40775283812E+03  0.47801113925E+03  0.00000000000E+00 0. -1.
         -3    1    3    3    0  502 -0.35565878071E+02  0.69052738293E+02  0.64660295064E+02  0.10106515773E+03  0.00000000000E+00 0.  1.
         13    1    5    5    0    0  0.22241567814E+03 -0.10744353443E+03 -0.17487294874E+03  0.30264400733E+03  0.00000000000E+00 0.  1.
        -13    1    5    5    0    0  0.19180769942E+03 -0.12420118692E+03 -0.27393829694E+03  0.35673283970E+03  0.00000000000E+00 0. -1.
          4    1    6    6  503    0 -0.13304082541E+03  0.82076792535E+01  0.19614772960E+03  0.23715218542E+03  0.00000000000E+00 0. -1.
         -4    1    6    6    0  503 -0.79199165403E+02 -0.31458331415E+02  0.40361741549E+02  0.94293184255E+02  0.00000000000E+00 0.  1.
<mgrwt>
<rscale>  0 0.15482001E+04</rscale>
<asrwt>0</asrwt>
<pdfrwt beam="1">  1        2 0.14076999E+00 0.15482001E+04</pdfrwt>
<pdfrwt beam="2">  1       -1 0.10075286E+00 0.15482001E+04</pdfrwt>
<totfact> 0.29492924E+01</totfact>
</mgrwt>
</event>
<event>
12    7  0.1741211E-007  0.1400137E+04  0.7818608E-02  0.8953719E-01
         -1   -1    0    0    0  501 -0.00000000000E+00  0.00000000000E+00  0.29390181494E+03  0.29390181494E+03  0.00000000000E+00 0.  1.
          2   -1    0    0  501    0  0.00000000000E+00 -0.00000000000E+00 -0.16675509303E+04  0.16675509303E+04  0.00000000000E+00 0. -1.
         24    2    1    2    0    0  0.12594119093E+03 -0.13150244162E+03 -0.91023881032E+03  0.93194099874E+03  0.82615117198E+02 0.  0.
        254    2    1    2    0    0 -0.12594119093E+03  0.13150244162E+03 -0.46341030501E+03  0.10295117465E+04  0.90110557074E+03 0.  0.
         23    2    4    4    0    0 -0.27515358849E+02  0.24410463024E+03  0.20790415144E+03  0.33571988684E+03  0.95600945385E+02 0.  0.
         23    2    4    4    0    0 -0.98425832077E+02 -0.11260218862E+03 -0.67131445645E+03  0.69379185963E+03  0.91198397713E+02 0.  0.
          2    1    3    3  502    0  0.12297773256E+03 -0.13457400291E+03 -0.90952344015E+03  0.92761337482E+03  0.00000000000E+00 0. -1.
         -1    1    3    3    0  502  0.29634583647E+01  0.30715612919E+01 -0.71537016708E+00  0.43276239122E+01  0.00000000000E+00 0.  1.
         13    1    5    5    0    0 -0.17199751636E+00  0.22946105330E+03  0.16433793631E+03  0.28223990128E+03  0.00000000000E+00 0.  1.
        -13    1    5    5    0    0 -0.27343361333E+02  0.14643576937E+02  0.43566215138E+02  0.53479985564E+02  0.00000000000E+00 0. -1.
          3    1    6    6  503    0 -0.66485307466E+02 -0.16090658358E+02 -0.19217121769E+03  0.20398279904E+03  0.00000000000E+00 0. -1.
         -3    1    6    6    0  503 -0.31940524611E+02 -0.96511530258E+02 -0.47914323876E+03  0.48980906059E+03  0.00000000000E+00 0.  1.
<mgrwt>
<rscale>  0 0.14001375E+04</rscale>
<asrwt>0</asrwt>
<pdfrwt beam="1">  1        2 0.25654630E+00 0.14001375E+04</pdfrwt>
<pdfrwt beam="2">  1       -1 0.45215664E-01 0.14001375E+04</pdfrwt>
<totfact> 0.55022565E+01</totfact>
</mgrwt>
</event>
<event>
12    7  0.1741211E-007  0.2237111E+04  0.7818608E-02  0.8503138E-01
         -1   -1    0    0    0  501 -0.00000000000E+00  0.00000000000E+00  0.54954897747E+03  0.54954897747E+03  0.00000000000E+00 0.  1.
          2   -1    0    0  501    0  0.00000000000E+00 -0.00000000000E+00 -0.22767156695E+04  0.22767156695E+04  0.00000000000E+00 0. -1.
         24    2    1    2    0    0  0.57070949072E+03 -0.22361549514E+03  0.16357934300E+03  0.64063778428E+03  0.89136730528E+02 0.  0.
        254    2    1    2    0    0 -0.57070949072E+03  0.22361549514E+03 -0.18907460350E+04  0.21856268627E+04  0.90902750312E+03 0.  0.
         23    2    4    4    0    0  0.14502552777E+03 -0.72670544968E+02 -0.59715034476E+02  0.19538837425E+03  0.91089624211E+02 0.  0.
         23    2    4    4    0    0 -0.71573501850E+03  0.29628604010E+03 -0.18310310006E+04  0.19902384884E+04  0.91173908404E+02 0.  0.
          2    1    3    3  502    0  0.98644625034E+02 -0.15213642495E+02  0.17112597706E+01  0.99825574759E+02  0.00000000000E+00 0. -1.
         -1    1    3    3    0  502  0.47206486569E+03 -0.20840185264E+03  0.16186808323E+03  0.54081220952E+03  0.00000000000E+00 0.  1.
         13    1    5    5    0    0  0.40278224563E+02 -0.64623288652E+02 -0.34779836490E+01  0.76227299443E+02  0.00000000000E+00 0. -1.
        -13    1    5    5    0    0  0.10474730321E+03 -0.80472563156E+01 -0.56237050827E+02  0.11916107481E+03  0.00000000000E+00 0.  1.
          1    1    6    6  503    0 -0.34252538242E+03  0.93058025566E+02 -0.84814592738E+03  0.91942098510E+03  0.00000000000E+00 0. -1.
         -1    1    6    6    0  503 -0.37320963608E+03  0.20322801454E+03 -0.98288507318E+03  0.10708175033E+04  0.00000000000E+00 0.  1.
<mgrwt>
<rscale>  0 0.22371113E+04</rscale>
<asrwt>0</asrwt>
<pdfrwt beam="1">  1        2 0.35026395E+00 0.22371113E+04</pdfrwt>
<pdfrwt beam="2">  1       -1 0.84545995E-01 0.22371113E+04</pdfrwt>
<totfact> 0.67122207E+00</totfact>
</mgrwt>
</event>
<event>
12    7  0.1741211E-007  0.1979967E+04  0.7818608E-02  0.8616044E-01
          2   -1    0    0  501    0  0.00000000000E+00  0.00000000000E+00  0.17980974760E+04  0.17980974760E+04  0.00000000000E+00 0. -1.
         -1   -1    0    0    0  501 -0.00000000000E+00 -0.00000000000E+00 -0.54505821099E+03  0.54505821099E+03  0.00000000000E+00 0.  1.
         24    2    1    2    0    0 -0.64885106115E+03 -0.41919903737E+03  0.32806369742E+03  0.84304291181E+03  0.79749790660E+02 0.  0.
        254    2    1    2    0    0  0.64885106115E+03  0.41919903737E+03  0.92497556761E+03  0.15001127752E+04  0.89332133366E+03 0.  0.
         23    2    4    4    0    0  0.20939702225E+03 -0.85216601101E+02 -0.10757445549E+03  0.26639061809E+03  0.91009427549E+02 0.  0.
         23    2    4    4    0    0  0.43945403890E+03  0.50441563847E+03  0.10325500231E+04  0.12337221571E+04  0.91410186073E+02 0.  0.
          4    1    3    3  502    0 -0.29708501567E+03 -0.16717942999E+03  0.18128637079E+03  0.38610000852E+03  0.00000000000E+00 0. -1.
         -3    1    3    3    0  502 -0.35176604547E+03 -0.25201960738E+03  0.14677732663E+03  0.45694290329E+03  0.00000000000E+00 0.  1.
         13    1    5    5    0    0  0.65200593138E+02 -0.81747836649E+01  0.79723565747E+01  0.66192921849E+02  0.00000000000E+00 0.  1.
        -13    1    5    5    0    0  0.14419642911E+03 -0.77041817436E+02 -0.11554681206E+03  0.20019769624E+03  0.00000000000E+00 0. -1.
          3    1    6    6  503    0  0.37262887925E+03  0.37365933651E+03  0.78463649717E+03  0.94558342525E+03  0.00000000000E+00 0. -1.
         -3    1    6    6    0  503  0.66825159655E+02  0.13075630195E+03  0.24791352593E+03  0.28813873187E+03  0.00000000000E+00 0.  1.
<mgrwt>
<rscale>  0 0.19799675E+04</rscale>
<asrwt>0</asrwt>
<pdfrwt beam="1">  1        2 0.27663038E+00 0.19799675E+04</pdfrwt>
<pdfrwt beam="2">  1       -1 0.83855110E-01 0.19799675E+04</pdfrwt>
<totfact> 0.12923482E+01</totfact>
</mgrwt>
</event>
<event>
12    7  0.1741211E-007  0.1602307E+04  0.7818608E-02  0.8819132E-01
         -1   -1    0    0    0  501 -0.00000000000E+00  0.00000000000E+00  0.80620860909E+03  0.80620860909E+03  0.00000000000E+00 0.  1.
          2   -1    0    0  501    0  0.00000000000E+00 -0.00000000000E+00 -0.79612975115E+03  0.79612975115E+03  0.00000000000E+00 0. -1.
         24    2    1    2    0    0  0.30015397546E+03  0.17604994570E+03  0.41768985496E+03  0.54930161815E+03  0.78622264040E+02 0.  0.
        254    2    1    2    0    0 -0.30015397546E+03 -0.17604994570E+03 -0.40761099701E+03  0.10530367421E+04  0.90645113654E+03 0.  0.
         23    2    4    4    0    0  0.24008696161E+03 -0.44046745122E+02 -0.41401466287E+03  0.48977355237E+03  0.94276861678E+02 0.  0.
         23    2    4    4    0    0 -0.54024093706E+03 -0.13200320058E+03  0.64036658525E+01  0.56326318971E+03  0.89102743563E+02 0.  0.
          4    1    3    3  502    0  0.36860921930E+02  0.47980968548E+02  0.45249374528E+02  0.75553999255E+02  0.00000000000E+00 0. -1.
         -3    1    3    3    0  502  0.26329305353E+03  0.12806897715E+03  0.37244048043E+03  0.47374761889E+03  0.00000000000E+00 0.  1.
         13    1    5    5    0    0  0.62618847376E+02  0.28687582890E+02 -0.91295914719E+02  0.11436363715E+03  0.00000000000E+00 0.  1.
        -13    1    5    5    0    0  0.17746811423E+03 -0.72734328012E+02 -0.32271874815E+03  0.37540991522E+03  0.00000000000E+00 0. -1.
          1    1    6    6  503    0 -0.77808703369E+02 -0.50037569555E+02 -0.11869807927E+02  0.93267599021E+02  0.00000000000E+00 0.  1.
         -1    1    6    6    0  503 -0.46243223369E+03 -0.81965631024E+02  0.18273473780E+02  0.46999559069E+03  0.00000000000E+00 0. -1.
<mgrwt>
<rscale>  0 0.16023067E+04</rscale>
<asrwt>0</asrwt>
<pdfrwt beam="1">  1        2 0.12248150E+00 0.16023067E+04</pdfrwt>
<pdfrwt beam="2">  1       -1 0.12403209E+00 0.16023067E+04</pdfrwt>
<totfact> 0.21657289E+01</totfact>
</mgrwt>
</event>
<event>
12    7  0.1741211E-007  0.1669822E+04  0.7818608E-02  0.8778765E-01
          2   -1    0    0  501    0  0.00000000000E+00  0.00000000000E+00  0.10022048642E+04  0.10022048642E+04  0.00000000000E+00 0. -1.
         -1   -1    0    0    0  501 -0.00000000000E+00 -0.00000000000E+00 -0.69554314203E+03  0.69554314203E+03  0.00000000000E+00 0.  1.
         24    2    1    2    0    0 -0.39900702172E+03 -0.96649331242E+02 -0.34258299597E+03  0.54057231902E+03  0.79420566291E+02 0.  0.
        254    2    1    2    0    0  0.39900702172E+03  0.96649331242E+02  0.64924471819E+03  0.11571756872E+04  0.86544160429E+03 0.  0.
         23    2    4    4    0    0 -0.24288501814E+02 -0.48710243512E+02  0.69043775689E+03  0.69863133809E+03  0.91754189427E+02 0.  0.
         23    2    4    4    0    0  0.42329552353E+03  0.14535957475E+03 -0.41193038699E+02  0.45854434916E+03  0.90871048688E+02 0.  0.
          4    1    3    3  502    0 -0.17178090419E+03 -0.59642100458E+02 -0.10608442201E+03  0.21052259685E+03  0.00000000000E+00 0. -1.
         -3    1    3    3    0  502 -0.22722611753E+03 -0.37007230784E+02 -0.23649857397E+03  0.33004972217E+03  0.00000000000E+00 0.  1.
         13    1    5    5    0    0 -0.46535938818E+02 -0.62276232328E+02  0.43737512627E+03  0.44423071010E+03  0.00000000000E+00 0. -1.
        -13    1    5    5    0    0  0.22247437004E+02  0.13565988816E+02  0.25306263062E+03  0.25440062799E+03  0.00000000000E+00 0.  1.
          2    1    6    6  503    0  0.24680763785E+03  0.12706958627E+03 -0.60472274857E+01  0.27766393143E+03  0.00000000000E+00 0. -1.
         -2    1    6    6    0  503  0.17648788568E+03  0.18289988484E+02 -0.35145811214E+02  0.18088041772E+03  0.00000000000E+00 0.  1.
<mgrwt>
<rscale>  0 0.16698224E+04</rscale>
<asrwt>0</asrwt>
<pdfrwt beam="1">  1        2 0.15418536E+00 0.16698224E+04</pdfrwt>
<pdfrwt beam="2">  1       -1 0.10700664E+00 0.16698224E+04</pdfrwt>
<totfact> 0.22256026E+01</totfact>
</mgrwt>
</event>
<event>
12    7  0.1741211E-007  0.1124652E+04  0.7818608E-02  0.9181492E-01
         -1   -1    0    0    0  501 -0.00000000000E+00  0.00000000000E+00  0.10833502067E+03  0.10833502067E+03  0.00000000000E+00 0.  1.
          2   -1    0    0  501    0  0.00000000000E+00 -0.00000000000E+00 -0.29188223973E+04  0.29188223973E+04  0.00000000000E+00 0. -1.
         24    2    1    2    0    0 -0.12107285654E+03  0.11347074894E+03 -0.64791033368E+03  0.67351215728E+03  0.79350980220E+02 0.  0.
        254    2    1    2    0    0  0.12107285654E+03 -0.11347074894E+03 -0.21625770430E+04  0.23536452607E+04  0.91398703440E+03 0.  0.
         23    2    4    4    0    0  0.49591924668E+03 -0.14736477469E+03 -0.10221104810E+04  0.11492663545E+04  0.91929550252E+02 0.  0.
         23    2    4    4    0    0 -0.37484639014E+03  0.33894025750E+02 -0.11404665620E+04  0.12043789062E+04  0.90586696280E+02 0.  0.
          2    1    3    3  502    0 -0.44085349826E+02  0.46748546660E+02 -0.40556770303E+03  0.41062648042E+03  0.00000000000E+00 0. -1.
         -1    1    3    3    0  502 -0.76987506711E+02  0.66722202278E+02 -0.24234263064E+03  0.26288567685E+03  0.00000000000E+00 0.  1.
         13    1    5    5    0    0  0.14653556709E+03 -0.60940270942E+02 -0.40327080297E+03  0.43337481419E+03  0.00000000000E+00 0.  1.
        -13    1    5    5    0    0  0.34938367958E+03 -0.86424503746E+02 -0.61883967804E+03  0.71589154034E+03  0.00000000000E+00 0. -1.
          4    1    6    6  503    0 -0.10712252518E+03 -0.28391928801E+02 -0.37628902059E+03  0.39226873957E+03  0.00000000000E+00 0. -1.
         -4    1    6    6    0  503 -0.26772386496E+03  0.62285954551E+02 -0.76417754136E+03  0.81211016662E+03  0.00000000000E+00 0.  1.
<mgrwt>
<rscale>  0 0.11246523E+04</rscale>
<asrwt>0</asrwt>
<pdfrwt beam="1">  1        2 0.44904965E+00 0.11246523E+04</pdfrwt>
<pdfrwt beam="2">  1       -1 0.16666924E-01 0.11246523E+04</pdfrwt>
<totfact> 0.62134914E+01</totfact>
</mgrwt>
</event>
<event>
12    7  0.1741211E-007  0.2256211E+04  0.7818608E-02  0.8495389E-01
          2   -1    0    0  501    0  0.00000000000E+00  0.00000000000E+00  0.11891718458E+04  0.11891718458E+04  0.00000000000E+00 0. -1.
         -1   -1    0    0    0  501 -0.00000000000E+00 -0.00000000000E+00 -0.10701748651E+04  0.10701748651E+04  0.00000000000E+00 0.  1.
         24    2    1    2    0    0  0.81495843434E+03 -0.10767715776E+03  0.52041762340E+03  0.97705551035E+03  0.89729301479E+02 0.  0.
        254    2    1    2    0    0 -0.81495843434E+03  0.10767715776E+03 -0.40142064270E+03  0.12822912006E+04  0.89854358310E+03 0.  0.
         23    2    4    4    0    0 -0.47553230072E+03  0.15209628641E+03  0.23130707067E+03  0.55763868083E+03  0.90518992767E+02 0.  0.
         23    2    4    4    0    0 -0.33942613363E+03 -0.44419128648E+02 -0.63272771336E+03  0.72465251977E+03  0.87142159563E+02 0.  0.
          4    1    3    3  502    0  0.79362512592E+03 -0.11602390891E+03  0.51605018231E+03  0.95373485760E+03  0.00000000000E+00 0. -1.
         -3    1    3    3    0  502  0.21333308425E+02  0.83467511519E+01  0.43674410902E+01  0.23320652753E+02  0.00000000000E+00 0.  1.
         13    1    5    5    0    0 -0.92031372311E+02  0.54488533366E+02  0.81654283170E+02  0.13455926470E+03  0.00000000000E+00 0.  1.
        -13    1    5    5    0    0 -0.38350092841E+03  0.97607753043E+02  0.14965278750E+03  0.42307941612E+03  0.00000000000E+00 0. -1.
          2    1    6    6  503    0 -0.27431736924E+02 -0.27113106728E+02 -0.98036650929E+02  0.10535086935E+03  0.00000000000E+00 0. -1.
         -2    1    6    6    0  503 -0.31199439670E+03 -0.17306021920E+02 -0.53469106243E+03  0.61930165042E+03  0.00000000000E+00 0.  1.
<mgrwt>
<rscale>  0 0.22562108E+04</rscale>
<asrwt>0</asrwt>
<pdfrwt beam="1">  1        2 0.18294952E+00 0.22562108E+04</pdfrwt>
<pdfrwt beam="2">  1       -1 0.16464229E+00 0.22562108E+04</pdfrwt>
<totfact> 0.53771910E+00</totfact>
</mgrwt>
</event>
<event>
12    7  0.1741211E-007  0.2344014E+04  0.7818608E-02  0.8460766E-01
          2   -1    0    0  501    0  0.00000000000E+00  0.00000000000E+00  0.17868152758E+04  0.17868152758E+04  0.00000000000E+00 0. -1.
         -1   -1    0    0    0  501 -0.00000000000E+00 -0.00000000000E+00 -0.76874246064E+03  0.76874246064E+03  0.00000000000E+00 0.  1.
         24    2    1    2    0    0 -0.63138876084E+03 -0.57113150039E+03  0.10027724235E+04  0.13178943423E+04  0.80311929384E+02 0.  0.
        254    2    1    2    0    0  0.63138876084E+03  0.57113150039E+03  0.15300391607E+02  0.12376633941E+04  0.89818350971E+03 0.  0.
         23    2    4    4    0    0  0.66600645198E+02 -0.20123411444E+03  0.13804909983E+03  0.26886234912E+03  0.91096619343E+02 0.  0.
         23    2    4    4    0    0  0.56478811565E+03  0.77236561483E+03 -0.12274870823E+03  0.96880104500E+03  0.89297037340E+02 0.  0.
          4    1    3    3  502    0 -0.60420633262E+03 -0.52120354062E+03  0.92614391814E+03  0.12224814846E+04  0.00000000000E+00 0. -1.
         -1    1    3    3    0  502 -0.27182428220E+02 -0.49927959770E+02  0.76628505392E+02  0.95412857673E+02  0.00000000000E+00 0.  1.
         13    1    5    5    0    0  0.39476773059E+02 -0.79427349122E+02  0.86881390267E+01  0.89121283425E+02  0.00000000000E+00 0.  1.
        -13    1    5    5    0    0  0.27123872139E+02 -0.12180676532E+03  0.12936096081E+03  0.17974106570E+03  0.00000000000E+00 0. -1.
          3    1    6    6  503    0  0.51348280534E+03  0.66138355332E+03 -0.89428264797E+02  0.84207494353E+03  0.00000000000E+00 0. -1.
         -3    1    6    6    0  503  0.51305310302E+02  0.11098206151E+03 -0.33320443430E+02  0.12672610147E+03  0.00000000000E+00 0.  1.
<mgrwt>
<rscale>  0 0.23440143E+04</rscale>
<asrwt>0</asrwt>
<pdfrwt beam="1">  1        2 0.27489466E+00 0.23440143E+04</pdfrwt>
<pdfrwt beam="2">  1       -1 0.11826807E+00 0.23440143E+04</pdfrwt>
<totfact> 0.57894265E+00</totfact>
</mgrwt>
</event>
<event>
12    7  0.1741211E-007  0.1617133E+04  0.7818608E-02  0.8810091E-01
          2   -1    0    0  501    0  0.00000000000E+00  0.00000000000E+00  0.77651526032E+03  0.77651526032E+03  0.00000000000E+00 0. -1.
         -1   -1    0    0    0  501 -0.00000000000E+00 -0.00000000000E+00 -0.84194042214E+03  0.84194042214E+03  0.00000000000E+00 0.  1.
         24    2    1    2    0    0  0.42511967599E+03  0.38666124670E+02 -0.37516975084E+03  0.57394994518E+03  0.80276955078E+02 0.  0.
        254    2    1    2    0    0 -0.42511967599E+03 -0.38666124670E+02  0.30974458902E+03  0.10445057373E+04  0.90157013963E+03 0.  0.
         23    2    4    4    0    0 -0.25791889780E+03 -0.24197682866E+03  0.56096480176E+03  0.66927461161E+03  0.90399410883E+02 0.  0.
         23    2    4    4    0    0 -0.16720077818E+03  0.20331070399E+03 -0.25122021274E+03  0.37523112567E+03  0.91626741740E+02 0.  0.
          2    1    3    3  502    0  0.24165686304E+03  0.51043186366E+02 -0.17870733133E+03  0.30486022469E+03  0.00000000000E+00 0. -1.
         -1    1    3    3    0  502  0.18346281295E+03 -0.12377061696E+02 -0.19646241952E+03  0.26908972049E+03  0.00000000000E+00 0.  1.
         13    1    5    5    0    0 -0.11202005392E+03 -0.47916757102E+02  0.20251092979E+03  0.23633701525E+03  0.00000000000E+00 0. -1.
        -13    1    5    5    0    0 -0.14589884388E+03 -0.19406007156E+03  0.35845387197E+03  0.43293759636E+03  0.00000000000E+00 0.  1.
          3    1    6    6  503    0 -0.96314773581E+02  0.57498674631E+02 -0.13620046743E+03  0.17644602722E+03  0.00000000000E+00 0. -1.
         -3    1    6    6    0  503 -0.70886004602E+02  0.14581202936E+03 -0.11501974530E+03  0.19878509844E+03  0.00000000000E+00 0.  1.
<mgrwt>
<rscale>  0 0.16171328E+04</rscale>
<asrwt>0</asrwt>
<pdfrwt beam="1">  1        2 0.11946389E+00 0.16171328E+04</pdfrwt>
<pdfrwt beam="2">  1       -1 0.12952930E+00 0.16171328E+04</pdfrwt>
<totfact> 0.20057644E+01</totfact>
</mgrwt>
</event>
<event>
12    7  0.1741211E-007  0.1119945E+04  0.7818608E-02  0.9185968E-01
          2   -1    0    0  501    0  0.00000000000E+00  0.00000000000E+00  0.11345259840E+04  0.11345259840E+04  0.00000000000E+00 0. -1.
         -1   -1    0    0    0  501 -0.00000000000E+00 -0.00000000000E+00 -0.27638761458E+03  0.27638761458E+03  0.00000000000E+00 0.  1.
         24    2    1    2    0    0  0.82871608592E+02 -0.16690306445E+03  0.19148283221E+03  0.27889228946E+03  0.79943090125E+02 0.  0.
        254    2    1    2    0    0 -0.82871608592E+02  0.16690306445E+03  0.66665553720E+03  0.11320213091E+04  0.89572222400E+03 0.  0.
         23    2    4    4    0    0 -0.18837033406E+03  0.28601851417E+03 -0.79964812005E+02  0.36337432181E+03  0.91414185958E+02 0.  0.
         23    2    4    4    0    0  0.10549872547E+03 -0.11911544972E+03  0.74662034921E+03  0.76864698730E+03  0.89765103444E+02 0.  0.
          2    1    3    3  502    0  0.37344103933E+02 -0.18446269162E+02  0.71143838524E+02  0.82439630667E+02  0.00000000000E+00 0. -1.
         -1    1    3    3    0  502  0.45527504659E+02 -0.14845679529E+03  0.12033899368E+03  0.19645265880E+03  0.00000000000E+00 0.  1.
         13    1    5    5    0    0 -0.72753486865E+02  0.63010578268E+02  0.95165447480E+01  0.96715911042E+02  0.00000000000E+00 0. -1.
        -13    1    5    5    0    0 -0.11561684720E+03  0.22300793590E+03 -0.89481356753E+02  0.26665841077E+03  0.00000000000E+00 0.  1.
          2    1    6    6  503    0 -0.65573690914E+01  0.96258315238E+01  0.37020348738E+02  0.38809302269E+02  0.00000000000E+00 0. -1.
         -2    1    6    6    0  503  0.11205609456E+03 -0.12874128124E+03  0.70960000047E+03  0.72983768503E+03  0.00000000000E+00 0.  1.
<mgrwt>
<rscale>  0 0.11199445E+04</rscale>
<asrwt>0</asrwt>
<pdfrwt beam="1">  1        2 0.17454246E+00 0.11199445E+04</pdfrwt>
<pdfrwt beam="2">  1       -1 0.42521172E-01 0.11199445E+04</pdfrwt>
<totfact> 0.12757172E+02</totfact>
</mgrwt>
</event>
<event>
12    7  0.1741211E-007  0.2017522E+04  0.7818608E-02  0.8598472E-01
          2   -1    0    0  501    0  0.00000000000E+00  0.00000000000E+00  0.13075931643E+04  0.13075931643E+04  0.00000000000E+00 0. -1.
         -1   -1    0    0    0  501 -0.00000000000E+00 -0.00000000000E+00 -0.77822255934E+03  0.77822255934E+03  0.00000000000E+00 0.  1.
         24    2    1    2    0    0 -0.68961027617E+03 -0.13736959007E+03  0.60132082708E+03  0.92880035520E+03  0.81551367036E+02 0.  0.
        254    2    1    2    0    0  0.68961027617E+03  0.13736959007E+03 -0.71950222155E+02  0.11570153684E+04  0.91601036620E+03 0.  0.
         23    2    4    4    0    0  0.89007280009E+02  0.44628846011E+03  0.41671199300E+02  0.46605842912E+03  0.91532972066E+02 0.  0.
         23    2    4    4    0    0  0.60060299616E+03 -0.30891887004E+03 -0.11362142145E+03  0.69095693929E+03  0.91415738626E+02 0.  0.
          2    1    3    3  502    0 -0.42170287183E+03 -0.49829270809E+02  0.38966882866E+03  0.57633155767E+03  0.00000000000E+00 0. -1.
         -1    1    3    3    0  502 -0.26790740434E+03 -0.87540319260E+02  0.21165199842E+03  0.35246879753E+03  0.00000000000E+00 0.  1.
         13    1    5    5    0    0  0.76373171086E+02  0.41838272497E+03  0.61278309229E+02  0.42968825560E+03  0.00000000000E+00 0.  1.
        -13    1    5    5    0    0  0.12634108922E+02  0.27905735140E+02 -0.19607109929E+02  0.36370173518E+02  0.00000000000E+00 0. -1.
          1    1    6    6  503    0  0.23306893463E+03 -0.71300601874E+02 -0.47884557328E+02  0.24839048884E+03  0.00000000000E+00 0. -1.
         -1    1    6    6    0  503  0.36753406154E+03 -0.23761826817E+03 -0.65736864126E+02  0.44256645045E+03  0.00000000000E+00 0.  1.
<mgrwt>
<rscale>  0 0.20175217E+04</rscale>
<asrwt>0</asrwt>
<pdfrwt beam="1">  1        2 0.20116818E+00 0.20175217E+04</pdfrwt>
<pdfrwt beam="2">  1       -1 0.11972655E+00 0.20175217E+04</pdfrwt>
<totfact> 0.10773777E+01</totfact>
</mgrwt>
</event>
<event>
12    7  0.1741211E-007  0.2161154E+04  0.7818608E-02  0.8534773E-01
          2   -1    0    0  501    0  0.00000000000E+00  0.00000000000E+00  0.13616513662E+04  0.13616513662E+04  0.00000000000E+00 0. -1.
         -1   -1    0    0    0  501 -0.00000000000E+00 -0.00000000000E+00 -0.85752226453E+03  0.85752226453E+03  0.00000000000E+00 0.  1.
         24    2    1    2    0    0 -0.22040228962E+03 -0.34483194992E+03  0.10372566798E+04  0.11178643804E+04  0.78950049518E+02 0.  0.
        254    2    1    2    0    0  0.22040228962E+03  0.34483194992E+03 -0.53312757806E+03  0.11013092504E+04  0.87245103443E+03 0.  0.
         23    2    4    4    0    0  0.50665599027E+02 -0.27257569213E+03 -0.55754131549E+02  0.29758433007E+03  0.92646637566E+02 0.  0.
         23    2    4    4    0    0  0.16973669059E+03  0.61740764205E+03 -0.47737344651E+03  0.80372492029E+03  0.89919961435E+02 0.  0.
          2    1    3    3  502    0 -0.19513021730E+03 -0.24705238120E+03  0.81703803818E+03  0.87559227760E+03  0.00000000000E+00 0. -1.
         -1    1    3    3    0  502 -0.25272072321E+02 -0.97779568726E+02  0.22021864158E+03  0.24227210281E+03  0.00000000000E+00 0.  1.
         13    1    5    5    0    0  0.72274507825E+02 -0.18048488502E+03 -0.16320944378E+02  0.19510195137E+03  0.00000000000E+00 0.  1.
        -13    1    5    5    0    0 -0.21608908798E+02 -0.92090807108E+02 -0.39433187171E+02  0.10248237870E+03  0.00000000000E+00 0. -1.
          2    1    6    6  503    0  0.14230228504E+03  0.58412554989E+03 -0.42703708120E+03  0.73743695804E+03  0.00000000000E+00 0. -1.
         -2    1    6    6    0  503  0.27434405557E+02  0.33282092164E+02 -0.50336365309E+02  0.66287962252E+02  0.00000000000E+00 0.  1.
<mgrwt>
<rscale>  0 0.21611537E+04</rscale>
<asrwt>0</asrwt>
<pdfrwt beam="1">  1        2 0.20948483E+00 0.21611537E+04</pdfrwt>
<pdfrwt beam="2">  1       -1 0.13192650E+00 0.21611537E+04</pdfrwt>
<totfact> 0.77729889E+00</totfact>
</mgrwt>
</event>
<event>
12    7  0.1741211E-007  0.1369604E+04  0.7818608E-02  0.8976119E-01
         -1   -1    0    0    0  501 -0.00000000000E+00  0.00000000000E+00  0.70387907927E+03  0.70387907927E+03  0.00000000000E+00 0.  1.
          2   -1    0    0  501    0  0.00000000000E+00 -0.00000000000E+00 -0.66624240037E+03  0.66624240037E+03  0.00000000000E+00 0. -1.
         24    2    1    2    0    0  0.60978120104E+02  0.35446842609E+03 -0.13253026424E+03  0.38976917992E+03  0.70636721657E+02 0.  0.
        254    2    1    2    0    0 -0.60978120104E+02 -0.35446842609E+03  0.17016694313E+03  0.98035229973E+03  0.89597301679E+03 0.  0.
         23    2    4    4    0    0 -0.14970029973E+03 -0.33763190192E+03 -0.30563945489E+03  0.48796142618E+03  0.91024151313E+02 0.  0.
         23    2    4    4    0    0  0.88722179627E+02 -0.16836524170E+02  0.47580639802E+03  0.49239087354E+03  0.88892914482E+02 0.  0.
          4    1    3    3  502    0  0.27283126139E+01  0.58302309439E+02 -0.49987561724E+02  0.76846335650E+02  0.00000000000E+00 0. -1.
         -3    1    3    3    0  502  0.58249807490E+02  0.29616611665E+03 -0.82542702511E+02  0.31292284427E+03  0.00000000000E+00 0.  1.
         13    1    5    5    0    0 -0.51356604556E+02 -0.50915723791E+02 -0.92493384409E+02  0.11740927527E+03  0.00000000000E+00 0.  1.
        -13    1    5    5    0    0 -0.98343695175E+02 -0.28671617813E+03 -0.21314607048E+03  0.37055215091E+03  0.00000000000E+00 0. -1.
          3    1    6    6  503    0  0.57026902790E+02  0.24459873215E+02  0.36152275426E+03  0.36680928954E+03  0.00000000000E+00 0. -1.
         -3    1    6    6    0  503  0.31695276836E+02 -0.41296397386E+02  0.11428364376E+03  0.12558158400E+03  0.00000000000E+00 0.  1.
<mgrwt>
<rscale>  0 0.13696044E+04</rscale>
<asrwt>0</asrwt>
<pdfrwt beam="1">  1        2 0.10249883E+00 0.13696044E+04</pdfrwt>
<pdfrwt beam="2">  1       -1 0.10828909E+00 0.13696044E+04</pdfrwt>
<totfact> 0.38497249E+01</totfact>
</mgrwt>
</event>
<event>
12    7  0.1741211E-007  0.2355135E+04  0.7818608E-02  0.8456494E-01
          2   -1    0    0  501    0  0.00000000000E+00  0.00000000000E+00  0.16959811043E+04  0.16959811043E+04  0.00000000000E+00 0. -1.
         -1   -1    0    0    0  501 -0.00000000000E+00 -0.00000000000E+00 -0.81761809339E+03  0.81761809339E+03  0.00000000000E+00 0.  1.
         24    2    1    2    0    0 -0.89201909098E+02  0.89068223218E+03 -0.10768706984E+03  0.90512995587E+03  0.79949438386E+02 0.  0.
        254    2    1    2    0    0  0.89201909098E+02 -0.89068223218E+03  0.98605008075E+03  0.16084692418E+04  0.90200150822E+03 0.  0.
         23    2    4    4    0    0 -0.91059411757E+02 -0.79178830777E+03  0.10954781873E+04  0.13577004198E+04  0.89763191116E+02 0.  0.
         23    2    4    4    0    0  0.18026132085E+03 -0.98893924414E+02 -0.10942810652E+03  0.25076882197E+03  0.92931907836E+02 0.  0.
          4    1    3    3  502    0 -0.86994195751E+02  0.56362663120E+03 -0.92153604329E+02  0.57769823982E+03  0.00000000000E+00 0. -1.
         -3    1    3    3    0  502 -0.22077133471E+01  0.32705560098E+03 -0.15533465511E+02  0.32743171606E+03  0.00000000000E+00 0.  1.
         13    1    5    5    0    0 -0.68846551188E+01 -0.11977714876E+03  0.22281561454E+03  0.25306276281E+03  0.00000000000E+00 0.  1.
        -13    1    5    5    0    0 -0.84174756638E+02 -0.67201115901E+03  0.87266257274E+03  0.11046376570E+04  0.00000000000E+00 0. -1.
          4    1    6    6  503    0  0.16438718805E+03 -0.11053342439E+03 -0.11654961686E+03  0.22983602566E+03  0.00000000000E+00 0. -1.
         -4    1    6    6    0  503  0.15874132806E+02  0.11639499977E+02  0.71215103322E+01  0.20932796313E+02  0.00000000000E+00 0.  1.
<mgrwt>
<rscale>  0 0.23551347E+04</rscale>
<asrwt>0</asrwt>
<pdfrwt beam="1">  1        2 0.26092017E+00 0.23551347E+04</pdfrwt>
<pdfrwt beam="2">  1       -1 0.12578740E+00 0.23551347E+04</pdfrwt>
<totfact> 0.55810844E+00</totfact>
</mgrwt>
</event>
<event>
12    7  0.2243197E-007  0.1626792E+04  0.7818608E-02  0.8804256E-01
          2   -1    0    0  501    0  0.00000000000E+00  0.00000000000E+00  0.11661167603E+04  0.11661167603E+04  0.00000000000E+00 0. -1.
         -1   -1    0    0    0  501 -0.00000000000E+00 -0.00000000000E+00 -0.56736428102E+03  0.56736428102E+03  0.00000000000E+00 0.  1.
         24    2    1    2    0    0 -0.27768367758E+02 -0.46275182476E+01  0.80301449360E+03  0.80744933650E+03  0.79684740752E+02 0.  0.
        254    2    1    2    0    0  0.27768367758E+02  0.46275182476E+01 -0.20426201433E+03  0.92603170482E+03  0.90278416671E+03 0.  0.
         23    2    4    4    0    0  0.33266736963E+03 -0.29993668191E+03 -0.15443027257E+03  0.48262235353E+03  0.91902312679E+02 0.  0.
         23    2    4    4    0    0 -0.30489900187E+03  0.30456420015E+03 -0.49831741762E+02  0.44340935129E+03  0.91683678831E+02 0.  0.
          2    1    3    3  502    0 -0.47337293695E+02 -0.13887895983E+02  0.71899520029E+03  0.72068563956E+03  0.00000000000E+00 0. -1.
         -1    1    3    3    0  502  0.19568925937E+02  0.92603777351E+01  0.84019293308E+02  0.86763696937E+02  0.00000000000E+00 0.  1.
         13    1    5    5    0    0  0.49026528846E+02 -0.26132669654E+02 -0.50115982839E+02  0.74820643474E+02  0.00000000000E+00 0. -1.
        -13    1    5    5    0    0  0.28364084079E+03 -0.27380401225E+03 -0.10431428973E+03  0.40780171006E+03  0.00000000000E+00 0.  1.
          4    1    6    6  503    0 -0.94736574808E+02  0.47306099523E+02 -0.32507143501E+02  0.11076822666E+03  0.00000000000E+00 0. -1.
         -4    1    6    6    0  503 -0.21016242707E+03  0.25725810063E+03 -0.17324598261E+02  0.33264112463E+03  0.00000000000E+00 0.  1.
<mgrwt>
<rscale>  0 0.16267919E+04</rscale>
<asrwt>0</asrwt>
<pdfrwt beam="1">  1        2 0.17940258E+00 0.16267919E+04</pdfrwt>
<pdfrwt beam="2">  1       -1 0.87286813E-01 0.16267919E+04</pdfrwt>
<totfact> 0.27994783E+01</totfact>
</mgrwt>
</event>
<event>
12    7  0.1741211E-007  0.1477229E+04  0.7818608E-02  0.8899738E-01
         -1   -1    0    0    0  501 -0.00000000000E+00  0.00000000000E+00  0.31772849545E+03  0.31772849545E+03  0.00000000000E+00 0.  1.
          2   -1    0    0  501    0  0.00000000000E+00 -0.00000000000E+00 -0.17170374778E+04  0.17170374778E+04  0.00000000000E+00 0. -1.
         24    2    1    2    0    0  0.45437374689E+03 -0.72942448435E+02 -0.45968425505E+03  0.65463096958E+03  0.73864669118E+02 0.  0.
        254    2    1    2    0    0 -0.45437374689E+03  0.72942448435E+02 -0.93962472726E+03  0.13801350036E+04  0.90005660796E+03 0.  0.
         23    2    4    4    0    0 -0.45301269552E+03  0.21660624392E+03 -0.10565754576E+04  0.11737747061E+04  0.96211205038E+02 0.  0.
         23    2    4    4    0    0 -0.13610513650E+01 -0.14366379549E+03  0.11695073033E+03  0.20636029750E+03  0.90917327643E+02 0.  0.
          2    1    3    3  502    0  0.18759807093E+03 -0.36213028532E+02 -0.14130503472E+03  0.23763739708E+03  0.00000000000E+00 0. -1.
         -1    1    3    3    0  502  0.26677567596E+03 -0.36729419902E+02 -0.31837922033E+03  0.41699357250E+03  0.00000000000E+00 0.  1.
         13    1    5    5    0    0 -0.19201094942E+03  0.13287764620E+03 -0.41675901716E+03  0.47771618346E+03  0.00000000000E+00 0. -1.
        -13    1    5    5    0    0 -0.26100174610E+03  0.83728597723E+02 -0.63981644043E+03  0.69605852267E+03  0.00000000000E+00 0.  1.
          4    1    6    6  503    0 -0.11827486966E+01 -0.45874201363E+02 -0.91422552133E+01  0.46791260675E+02  0.00000000000E+00 0. -1.
         -4    1    6    6    0  503 -0.17830266842E+00 -0.97789594123E+02  0.12609298554E+03  0.15956903682E+03  0.00000000000E+00 0.  1.
<mgrwt>
<rscale>  0 0.14772295E+04</rscale>
<asrwt>0</asrwt>
<pdfrwt beam="1">  1        2 0.26415961E+00 0.14772295E+04</pdfrwt>
<pdfrwt beam="2">  1       -1 0.48881307E-01 0.14772295E+04</pdfrwt>
<totfact> 0.44331805E+01</totfact>
</mgrwt>
</event>
<event>
12    7  0.1741211E-007  0.1323695E+04  0.7818608E-02  0.9010983E-01
         -1   -1    0    0    0  501 -0.00000000000E+00  0.00000000000E+00  0.40239248579E+04  0.40239248579E+04  0.00000000000E+00 0.  1.
          4   -1    0    0  501    0  0.00000000000E+00 -0.00000000000E+00 -0.10885937961E+03  0.10885937961E+03  0.00000000000E+00 0. -1.
         24    2    1    2    0    0  0.23274503160E+03 -0.26563021489E+03  0.12095088280E+04  0.12626642661E+04  0.81729938799E+02 0.  0.
        254    2    1    2    0    0 -0.23274503160E+03  0.26563021489E+03  0.27055566503E+04  0.28701199715E+04  0.89040563900E+03 0.  0.
         23    2    4    4    0    0 -0.36611808064E+03  0.10158527319E+03  0.25760439982E+04  0.26058132970E+04  0.99489907471E+02 0.  0.
         23    2    4    4    0    0  0.13337304904E+03  0.16404494170E+03  0.12951265206E+03  0.26430667441E+03  0.91571709527E+02 0.  0.
          2    1    3    3  502    0  0.15916830807E+02 -0.62684938677E+02  0.18505749383E+03  0.19603321928E+03  0.00000000000E+00 0. -1.
         -1    1    3    3    0  502  0.21682820079E+03 -0.20294527621E+03  0.10244513342E+04  0.10666310468E+04  0.00000000000E+00 0.  1.
         13    1    5    5    0    0 -0.11646365418E+03  0.20649761042E+02  0.53202249602E+03  0.54501204725E+03  0.00000000000E+00 0.  1.
        -13    1    5    5    0    0 -0.24965442646E+03  0.80935512147E+02  0.20440215022E+04  0.20608012498E+04  0.00000000000E+00 0. -1.
          4    1    6    6  503    0  0.33799191002E+02  0.11391225739E+03  0.70667905531E+02  0.13824738901E+03  0.00000000000E+00 0. -1.
         -4    1    6    6    0  503  0.99573858039E+02  0.50132684307E+02  0.58844746532E+02  0.12605928540E+03  0.00000000000E+00 0.  1.
<mgrwt>
<rscale>  0 0.13236948E+04</rscale>
<asrwt>0</asrwt>
<pdfrwt beam="1">  1        4 0.16747600E-01 0.13236948E+04</pdfrwt>
<pdfrwt beam="2">  1       -1 0.61906525E+00 0.13236948E+04</pdfrwt>
<totfact> 0.49267180E-02</totfact>
</mgrwt>
</event>
<event>
12    7  0.1741211E-007  0.1632429E+04  0.7818608E-02  0.8800869E-01
         -1   -1    0    0    0  501 -0.00000000000E+00  0.00000000000E+00  0.33699120198E+03  0.33699120198E+03  0.00000000000E+00 0.  1.
          2   -1    0    0  501    0  0.00000000000E+00 -0.00000000000E+00 -0.19769253010E+04  0.19769253010E+04  0.00000000000E+00 0. -1.
         24    2    1    2    0    0 -0.18510857203E+03  0.44780352774E+03 -0.16644877546E+03  0.51900803771E+03  0.82891286978E+02 0.  0.
        254    2    1    2    0    0  0.18510857203E+03 -0.44780352774E+03 -0.14734853235E+04  0.17949084652E+04  0.90318559388E+03 0.  0.
         23    2    4    4    0    0  0.37748624101E+02  0.20263303152E+03 -0.66144782139E+02  0.23499275699E+03  0.91440469963E+02 0.  0.
         23    2    4    4    0    0  0.14735994793E+03 -0.65043655926E+03 -0.14073405414E+04  0.15599157082E+04  0.89145642067E+02 0.  0.
          4    1    3    3  502    0 -0.94422942483E+01  0.46607734504E+02 -0.42650196892E+02  0.63878612471E+02  0.00000000000E+00 0. -1.
         -3    1    3    3    0  502 -0.17566627778E+03  0.40119579324E+03 -0.12379857856E+03  0.45512942524E+03  0.00000000000E+00 0.  1.
         13    1    5    5    0    0  0.37187546387E+02  0.20768076835E+03 -0.75715012930E+02  0.22415837778E+03  0.00000000000E+00 0.  1.
        -13    1    5    5    0    0  0.56107771372E+00 -0.50477368274E+01  0.95702307919E+01  0.10834379202E+02  0.00000000000E+00 0. -1.
          3    1    6    6  503    0  0.22344253148E+02 -0.84589970506E+02 -0.26373661177E+03  0.27786998605E+03  0.00000000000E+00 0. -1.
         -3    1    6    6    0  503  0.12501569478E+03 -0.56584658876E+03 -0.11436039296E+04  0.12820457222E+04  0.00000000000E+00 0.  1.
<mgrwt>
<rscale>  0 0.16324294E+04</rscale>
<asrwt>0</asrwt>
<pdfrwt beam="1">  1        2 0.30414236E+00 0.16324294E+04</pdfrwt>
<pdfrwt beam="2">  1       -1 0.51844799E-01 0.16324294E+04</pdfrwt>
<totfact> 0.28083656E+01</totfact>
</mgrwt>
</event>
<event>
12    7  0.1741211E-007  0.1440699E+04  0.7818608E-02  0.8924874E-01
          2   -1    0    0  501    0  0.00000000000E+00  0.00000000000E+00  0.14321852208E+04  0.14321852208E+04  0.00000000000E+00 0. -1.
         -1   -1    0    0    0  501 -0.00000000000E+00 -0.00000000000E+00 -0.36231581967E+03  0.36231581967E+03  0.00000000000E+00 0.  1.
         24    2    1    2    0    0  0.94457561685E+02  0.13584735660E+03 -0.17202927695E+03  0.25179105952E+03  0.80174374178E+02 0.  0.
        254    2    1    2    0    0 -0.94457561685E+02 -0.13584735660E+03  0.12418986781E+04  0.15427099810E+04  0.90014722322E+03 0.  0.
         23    2    4    4    0    0  0.18484378108E+01  0.37556834847E+03  0.55137392602E+03  0.67324224694E+03  0.90481576410E+02 0.  0.
         23    2    4    4    0    0 -0.96305999495E+02 -0.51141570507E+03  0.69052475206E+03  0.86946773402E+03  0.91262469595E+02 0.  0.
          4    1    3    3  502    0  0.16438988695E+00  0.60704254466E+02 -0.38515353649E+02  0.71892044073E+02  0.00000000000E+00 0. -1.
         -3    1    3    3    0  502  0.94293171798E+02  0.75143102135E+02 -0.13351392330E+03  0.17989901545E+03  0.00000000000E+00 0.  1.
         13    1    5    5    0    0 -0.13438921695E+02  0.16995936892E+03  0.32531278785E+03  0.36728082123E+03  0.00000000000E+00 0. -1.
        -13    1    5    5    0    0  0.15287359505E+02  0.20560897956E+03  0.22606113817E+03  0.30596142572E+03  0.00000000000E+00 0.  1.
          1    1    6    6  503    0  0.77173527267E+01 -0.10078744010E+03  0.17645101656E+03  0.20335345303E+03  0.00000000000E+00 0. -1.
         -1    1    6    6    0  503 -0.10402335222E+03 -0.41062826498E+03  0.51407373551E+03  0.66611428100E+03  0.00000000000E+00 0.  1.
<mgrwt>
<rscale>  0 0.14406989E+04</rscale>
<asrwt>0</asrwt>
<pdfrwt beam="1">  1        2 0.22033618E+00 0.14406989E+04</pdfrwt>
<pdfrwt beam="2">  1       -1 0.55740896E-01 0.14406989E+04</pdfrwt>
<totfact> 0.49929736E+01</totfact>
</mgrwt>
</event>
<event>
12    7  0.1741211E-007  0.3057727E+04  0.7818608E-02  0.8227436E-01
         -1   -1    0    0    0  501 -0.00000000000E+00  0.00000000000E+00  0.89410127770E+03  0.89410127770E+03  0.00000000000E+00 0.  1.
          2   -1    0    0  501    0  0.00000000000E+00 -0.00000000000E+00 -0.26142711531E+04  0.26142711531E+04  0.00000000000E+00 0. -1.
         24    2    1    2    0    0  0.12058553394E+04  0.53079139203E+02 -0.15674318854E+04  0.19799009915E+04  0.79124749753E+02 0.  0.
        254    2    1    2    0    0 -0.12058553394E+04 -0.53079139203E+02 -0.15273799000E+03  0.15284714394E+04  0.92519811544E+03 0.  0.
         23    2    4    4    0    0 -0.75087910080E+02 -0.32048766524E+03 -0.12214016301E+03  0.36256963900E+03  0.90487490279E+02 0.  0.
         23    2    4    4    0    0 -0.11307674293E+04  0.26740852603E+03 -0.30597826983E+02  0.11659018003E+04  0.90821154394E+02 0.  0.
          4    1    3    3  502    0  0.80786294178E+03  0.60106904370E+02 -0.10045891967E+04  0.12905250198E+04  0.00000000000E+00 0. -1.
         -3    1    3    3    0  502  0.39799239760E+03 -0.70277651664E+01 -0.56284268869E+03  0.68937597162E+03  0.00000000000E+00 0.  1.
         13    1    5    5    0    0 -0.15617706482E+02 -0.31290799537E+02  0.13714739505E+02  0.37564890138E+02  0.00000000000E+00 0. -1.
        -13    1    5    5    0    0 -0.59470203598E+02 -0.28919686570E+03 -0.13585490252E+03  0.32500474887E+03  0.00000000000E+00 0.  1.
          1    1    6    6  503    0 -0.28189897745E+03  0.43420065733E+02 -0.39421100384E+02  0.28793464319E+03  0.00000000000E+00 0. -1.
         -1    1    6    6    0  503 -0.84886845185E+03  0.22398846030E+03  0.88232734008E+01  0.87796715715E+03  0.00000000000E+00 0.  1.
<mgrwt>
<rscale>  0 0.30577267E+04</rscale>
<asrwt>0</asrwt>
<pdfrwt beam="1">  1        2 0.40219555E+00 0.30577267E+04</pdfrwt>
<pdfrwt beam="2">  1       -1 0.13755405E+00 0.30577267E+04</pdfrwt>
<totfact> 0.12680169E+00</totfact>
</mgrwt>
</event>
<event>
12    7  0.1741211E-007  0.1594308E+04  0.7818608E-02  0.8824052E-01
          2   -1    0    0  501    0  0.00000000000E+00  0.00000000000E+00  0.94325904709E+03  0.94325904709E+03  0.00000000000E+00 0. -1.
         -1   -1    0    0    0  501 -0.00000000000E+00 -0.00000000000E+00 -0.67368011759E+03  0.67368011759E+03  0.00000000000E+00 0.  1.
         24    2    1    2    0    0 -0.59166220144E+02 -0.32404157182E+03 -0.37970755069E+03  0.50891020747E+03  0.79424135759E+02 0.  0.
        254    2    1    2    0    0  0.59166220144E+02  0.32404157182E+03  0.64928648019E+03  0.11080289572E+04  0.83525544284E+03 0.  0.
         23    2    4    4    0    0  0.40692891415E+03  0.30874133758E+03  0.27385460370E+03  0.58747554524E+03  0.96014673775E+02 0.  0.
         23    2    4    4    0    0 -0.34776269401E+03  0.15300234242E+02  0.37543187648E+03  0.52055341198E+03  0.94094486166E+02 0.  0.
          2    1    3    3  502    0 -0.22097746816E+02 -0.13506676080E+02 -0.24568627891E+02  0.35698153867E+02  0.00000000000E+00 0. -1.
         -1    1    3    3    0  502 -0.37068473328E+02 -0.31053489574E+03 -0.35513892280E+03  0.47321205360E+03  0.00000000000E+00 0.  1.
         13    1    5    5    0    0  0.65270933221E+02  0.15877482388E+02  0.16844922489E+02  0.69254173767E+02  0.00000000000E+00 0. -1.
        -13    1    5    5    0    0  0.34165798093E+03  0.29286385519E+03  0.25700968122E+03  0.51822137147E+03  0.00000000000E+00 0.  1.
          4    1    6    6  503    0 -0.16449499814E+03  0.54176713419E+02  0.18507225835E+03  0.25346688443E+03  0.00000000000E+00 0. -1.
         -4    1    6    6    0  503 -0.18326769587E+03 -0.38876479177E+02  0.19035961814E+03  0.26708652755E+03  0.00000000000E+00 0.  1.
<mgrwt>
<rscale>  0 0.15943085E+04</rscale>
<asrwt>0</asrwt>
<pdfrwt beam="1">  1        2 0.14511678E+00 0.15943085E+04</pdfrwt>
<pdfrwt beam="2">  1       -1 0.10364310E+00 0.15943085E+04</pdfrwt>
<totfact> 0.26357523E+01</totfact>
</mgrwt>
</event>
<event>
12    7  0.1741211E-007  0.4347062E+04  0.7818608E-02  0.7937973E-01
          2   -1    0    0  501    0  0.00000000000E+00  0.00000000000E+00  0.20467754865E+04  0.20467754865E+04  0.00000000000E+00 0. -1.
         -1   -1    0    0    0  501 -0.00000000000E+00 -0.00000000000E+00 -0.23081365945E+04  0.23081365945E+04  0.00000000000E+00 0.  1.
         24    2    1    2    0    0  0.16889492007E+03  0.85786331775E+03  0.17623057693E+04  0.19688930252E+04  0.79769382844E+02 0.  0.
        254    2    1    2    0    0 -0.16889492007E+03 -0.85786331775E+03 -0.20236668773E+04  0.23860190557E+04  0.91290981913E+03 0.  0.
         23    2    4    4    0    0 -0.20903590820E+03 -0.22183403483E+03 -0.64919677661E+02  0.32423301334E+03  0.89476994060E+02 0.  0.
         23    2    4    4    0    0  0.40140988121E+02 -0.63602928291E+03 -0.19587471996E+04  0.20617860423E+04  0.90147349829E+02 0.  0.
          4    1    3    3  502    0  0.12032966815E+03  0.71891959168E+03  0.15116784229E+04  0.16782420155E+04  0.00000000000E+00 0. -1.
         -3    1    3    3    0  502  0.48565251928E+02  0.13894372607E+03  0.25062734640E+03  0.29065100976E+03  0.00000000000E+00 0.  1.
         13    1    5    5    0    0 -0.12011088989E+03 -0.11935850107E+03 -0.80811421513E+02  0.18762612690E+03  0.00000000000E+00 0. -1.
        -13    1    5    5    0    0 -0.88925018309E+02 -0.10247553376E+03  0.15891743852E+02  0.13660688644E+03  0.00000000000E+00 0.  1.
          2    1    6    6  503    0  0.46371472962E+02 -0.32940517016E+03 -0.11374652651E+04  0.11851098299E+04  0.00000000000E+00 0. -1.
         -2    1    6    6    0  503 -0.62304848418E+01 -0.30662411276E+03 -0.82128193457E+03  0.87667621247E+03  0.00000000000E+00 0.  1.
<mgrwt>
<rscale>  0 0.43470622E+04</rscale>
<asrwt>0</asrwt>
<pdfrwt beam="1">  1        2 0.31488854E+00 0.43470622E+04</pdfrwt>
<pdfrwt beam="2">  1       -1 0.35509794E+00 0.43470622E+04</pdfrwt>
<totfact> 0.78929971E-02</totfact>
</mgrwt>
</event>
<event>
12    7  0.1741211E-007  0.1584696E+04  0.7818608E-02  0.8830005E-01
         -1   -1    0    0    0  501 -0.00000000000E+00  0.00000000000E+00  0.70314341438E+03  0.70314341438E+03  0.00000000000E+00 0.  1.
          2   -1    0    0  501    0  0.00000000000E+00 -0.00000000000E+00 -0.89286945963E+03  0.89286945963E+03  0.00000000000E+00 0. -1.
         24    2    1    2    0    0  0.38027514435E+03  0.15764513869E+03 -0.38393913044E+03  0.56803744728E+03  0.76132190727E+02 0.  0.
        254    2    1    2    0    0 -0.38027514435E+03 -0.15764513869E+03  0.19421308519E+03  0.10279754267E+04  0.92171230888E+03 0.  0.
         23    2    4    4    0    0 -0.56619155243E+03 -0.38744079280E+03  0.19127125150E+03  0.71799743970E+03  0.90842665076E+02 0.  0.
         23    2    4    4    0    0  0.18591640809E+03  0.22979565411E+03  0.29418336906E+01  0.30997798703E+03  0.93309938464E+02 0.  0.
          4    1    3    3  502    0  0.36753050311E+03  0.16437266900E+03 -0.35997172867E+03  0.54007100503E+03  0.00000000000E+00 0. -1.
         -3    1    3    3    0  502  0.12744641233E+02 -0.67275303122E+01 -0.23967401769E+02  0.27966442245E+02  0.00000000000E+00 0.  1.
         13    1    5    5    0    0 -0.25106839782E+03 -0.11961818753E+03  0.88661990437E+02  0.29189861206E+03  0.00000000000E+00 0.  1.
        -13    1    5    5    0    0 -0.31512315461E+03 -0.26782260527E+03  0.10260926107E+03  0.42609882764E+03  0.00000000000E+00 0. -1.
          4    1    6    6  503    0  0.15628826807E+03  0.23145907341E+03  0.10047673639E+02  0.27946427526E+03  0.00000000000E+00 0. -1.
         -4    1    6    6    0  503  0.29628140016E+02 -0.16634193060E+01 -0.71058399488E+01  0.30513711770E+02  0.00000000000E+00 0.  1.
<mgrwt>
<rscale>  0 0.15846959E+04</rscale>
<asrwt>0</asrwt>
<pdfrwt beam="1">  1        2 0.13736453E+00 0.15846959E+04</pdfrwt>
<pdfrwt beam="2">  1       -1 0.10817591E+00 0.15846959E+04</pdfrwt>
<totfact> 0.25800259E+01</totfact>
</mgrwt>
</event>
<event>
12    7  0.1741211E-007  0.1371236E+04  0.7818608E-02  0.8974907E-01
          2   -1    0    0  501    0  0.00000000000E+00  0.00000000000E+00  0.84086823729E+03  0.84086823729E+03  0.00000000000E+00 0. -1.
         -1   -1    0    0    0  501 -0.00000000000E+00 -0.00000000000E+00 -0.55903179696E+03  0.55903179696E+03  0.00000000000E+00 0.  1.
         24    2    1    2    0    0  0.38796937797E+03  0.37612998362E+02  0.57575065789E+02  0.40171884389E+03  0.78282599871E+02 0.  0.
        254    2    1    2    0    0 -0.38796937797E+03 -0.37612998362E+02  0.22426137455E+03  0.99818119036E+03  0.89114395514E+03 0.  0.
         23    2    4    4    0    0 -0.20583770762E+03 -0.25115240025E+03 -0.26351940036E+03  0.42849159872E+03  0.93358908387E+02 0.  0.
         23    2    4    4    0    0 -0.18213167036E+03  0.21353940189E+03  0.48778077491E+03  0.56968959165E+03  0.88572709995E+02 0.  0.
          2    1    3    3  502    0  0.28093142161E+03  0.54386834261E+01  0.69103782155E+02  0.28935683098E+03  0.00000000000E+00 0. -1.
         -1    1    3    3    0  502  0.10703795636E+03  0.32174314936E+02 -0.11528716366E+02  0.11236201291E+03  0.00000000000E+00 0.  1.
         13    1    5    5    0    0  0.78939183025E+00 -0.12844738879E+02  0.54428074148E+01  0.13972637864E+02  0.00000000000E+00 0.  1.
        -13    1    5    5    0    0 -0.20662709945E+03 -0.23830766137E+03 -0.26896220778E+03  0.41451896085E+03  0.00000000000E+00 0. -1.
          1    1    6    6  503    0 -0.18088792288E+03  0.20325306446E+03  0.48864663819E+03  0.55929221868E+03  0.00000000000E+00 0. -1.
         -1    1    6    6    0  503 -0.12437474755E+01  0.10286337428E+02 -0.86586328317E+00  0.10397372971E+02  0.00000000000E+00 0.  1.
<mgrwt>
<rscale>  0 0.13712361E+04</rscale>
<asrwt>0</asrwt>
<pdfrwt beam="1">  1        2 0.12936434E+00 0.13712361E+04</pdfrwt>
<pdfrwt beam="2">  1       -1 0.86004892E-01 0.13712361E+04</pdfrwt>
<totfact> 0.47876037E+01</totfact>
</mgrwt>
</event>
<event>
12    7  0.1741211E-007  0.1474048E+04  0.7818608E-02  0.8901897E-01
         -1   -1    0    0    0  501 -0.00000000000E+00  0.00000000000E+00  0.30607333971E+03  0.30607333971E+03  0.00000000000E+00 0.  1.
          2   -1    0    0  501    0  0.00000000000E+00 -0.00000000000E+00 -0.17747518153E+04  0.17747518153E+04  0.00000000000E+00 0. -1.
         24    2    1    2    0    0  0.31400922445E+03  0.31217882644E+03 -0.60231464793E+03  0.75535484576E+03  0.10826169767E+03 0.  0.
        254    2    1    2    0    0 -0.31400922445E+03 -0.31217882644E+03 -0.86636382765E+03  0.13254703092E+04  0.90012657226E+03 0.  0.
         23    2    4    4    0    0  0.48449568550E+02 -0.54996220614E+03 -0.45785462070E+03  0.72291714343E+03  0.90402177522E+02 0.  0.
         23    2    4    4    0    0 -0.36245879300E+03  0.23778337970E+03 -0.40850920696E+03  0.60255316580E+03  0.90957315078E+02 0.  0.
          2    1    3    3  502    0  0.32019131745E+03  0.28836504071E+03 -0.56297738531E+03  0.70895727152E+03  0.00000000000E+00 0. -1.
         -1    1    3    3    0  502 -0.61820929986E+01  0.23813785730E+02 -0.39337262619E+02  0.46397574236E+02  0.00000000000E+00 0.  1.
         13    1    5    5    0    0  0.11560066934E+02 -0.56646336412E+02 -0.87817911031E+02  0.10514004030E+03  0.00000000000E+00 0. -1.
        -13    1    5    5    0    0  0.36889501616E+02 -0.49331586973E+03 -0.37003670967E+03  0.61777710313E+03  0.00000000000E+00 0.  1.
          1    1    6    6  503    0 -0.37295610400E+02  0.15216283900E+02 -0.79876016300E+02  0.89457676198E+02  0.00000000000E+00 0. -1.
         -1    1    6    6    0  503 -0.32516318260E+03  0.22256709580E+03 -0.32863319066E+03  0.51309548960E+03  0.00000000000E+00 0.  1.
<mgrwt>
<rscale>  0 0.14740478E+04</rscale>
<asrwt>0</asrwt>
<pdfrwt beam="1">  1        2 0.27303874E+00 0.14740478E+04</pdfrwt>
<pdfrwt beam="2">  1       -1 0.47088206E-01 0.14740478E+04</pdfrwt>
<totfact> 0.44203393E+01</totfact>
</mgrwt>
</event>
<event>
12    7  0.1741211E-007  0.1680369E+04  0.7818608E-02  0.8772640E-01
          2   -1    0    0  501    0  0.00000000000E+00  0.00000000000E+00  0.17325147325E+04  0.17325147325E+04  0.00000000000E+00 0. -1.
         -1   -1    0    0    0  501 -0.00000000000E+00 -0.00000000000E+00 -0.40744843019E+03  0.40744843019E+03  0.00000000000E+00 0.  1.
         24    2    1    2    0    0 -0.48987728757E+03  0.31368512282E+03  0.30916524590E+03  0.66307780807E+03  0.75570610152E+02 0.  0.
        254    2    1    2    0    0  0.48987728757E+03 -0.31368512282E+03  0.10159010565E+04  0.14768853547E+04  0.90042061346E+03 0.  0.
         23    2    4    4    0    0  0.13795234539E+02  0.95980377069E+02 -0.11708203007E+03  0.17831749542E+03  0.93200783956E+02 0.  0.
         23    2    4    4    0    0  0.47608205304E+03 -0.40966549989E+03  0.11329830865E+04  0.12985678592E+04  0.90265539859E+02 0.  0.
          2    1    3    3  502    0 -0.27605191140E+03  0.15541880756E+03  0.20526148916E+03  0.37748104914E+03  0.00000000000E+00 0. -1.
         -1    1    3    3    0  502 -0.21382537617E+03  0.15826631527E+03  0.10390375674E+03  0.28559675893E+03  0.00000000000E+00 0.  1.
         13    1    5    5    0    0 -0.15174762560E+02  0.10302339876E+03 -0.97449642418E+02  0.14262021918E+03  0.00000000000E+00 0.  1.
        -13    1    5    5    0    0  0.28969997099E+02 -0.70430216894E+01 -0.19632387648E+02  0.35697276243E+02  0.00000000000E+00 0. -1.
          4    1    6    6  503    0  0.15054773202E+03 -0.77517591114E+02  0.29125980802E+03  0.33690632573E+03  0.00000000000E+00 0. -1.
         -4    1    6    6    0  503  0.32553432101E+03 -0.33214790878E+03  0.84172327850E+03  0.96166153351E+03  0.00000000000E+00 0.  1.
<mgrwt>
<rscale>  0 0.16803695E+04</rscale>
<asrwt>0</asrwt>
<pdfrwt beam="1">  1        2 0.26654073E+00 0.16803695E+04</pdfrwt>
<pdfrwt beam="2">  1       -1 0.62684374E-01 0.16803695E+04</pdfrwt>
<totfact> 0.26359707E+01</totfact>
</mgrwt>
</event>
<event>
12    7  0.1741211E-007  0.1219200E+04  0.7818608E-02  0.9096215E-01
         -1   -1    0    0    0  501 -0.00000000000E+00  0.00000000000E+00  0.89884498320E+03  0.89884498320E+03  0.00000000000E+00 0.  1.
          2   -1    0    0  501    0  0.00000000000E+00 -0.00000000000E+00 -0.41343287103E+03  0.41343287103E+03  0.00000000000E+00 0. -1.
         24    2    1    2    0    0  0.23622830349E+02 -0.94027557383E+02 -0.15336293843E+03  0.20261783973E+03  0.90191897825E+02 0.  0.
        254    2    1    2    0    0 -0.23622830349E+02  0.94027557383E+02  0.63877505060E+03  0.11096600145E+04  0.90217102748E+03 0.  0.
         23    2    4    4    0    0 -0.23331899366E+03  0.12110067472E+03  0.78729424577E+03  0.83514642630E+03  0.92380721567E+02 0.  0.
         23    2    4    4    0    0  0.20969616331E+03 -0.27073117335E+02 -0.14851919517E+03  0.27451358819E+03  0.92705577908E+02 0.  0.
          4    1    3    3  502    0  0.57437034480E+02 -0.61951024146E+02 -0.84685403151E+02  0.11961839252E+03  0.00000000000E+00 0. -1.
         -3    1    3    3    0  502 -0.33814204130E+02 -0.32076533236E+02 -0.68677535281E+02  0.82999447213E+02  0.00000000000E+00 0.  1.
         13    1    5    5    0    0 -0.15785709640E+03  0.42854676484E+02  0.38242966720E+03  0.41594210719E+03  0.00000000000E+00 0. -1.
        -13    1    5    5    0    0 -0.75461897264E+02  0.78245998234E+02  0.40486457858E+03  0.41920431911E+03  0.00000000000E+00 0.  1.
          2    1    6    6  503    0 -0.23940312051E+01 -0.17098123934E+02 -0.41506302749E+01  0.17756828522E+02  0.00000000000E+00 0. -1.
         -2    1    6    6    0  503  0.21209019452E+03 -0.99749934012E+01 -0.14436856490E+03  0.25675675967E+03  0.00000000000E+00 0.  1.
<mgrwt>
<rscale>  0 0.12191998E+04</rscale>
<asrwt>0</asrwt>
<pdfrwt beam="1">  1        2 0.63605057E-01 0.12191998E+04</pdfrwt>
<pdfrwt beam="2">  1       -1 0.13828384E+00 0.12191998E+04</pdfrwt>
<totfact> 0.37403990E+01</totfact>
</mgrwt>
</event>
<event>
12    7  0.1741211E-007  0.4420896E+04  0.7818608E-02  0.7924634E-01
         -1   -1    0    0    0  501 -0.00000000000E+00  0.00000000000E+00  0.15257243773E+04  0.15257243773E+04  0.00000000000E+00 0.  1.
          2   -1    0    0  501    0  0.00000000000E+00 -0.00000000000E+00 -0.32024655222E+04  0.32024655222E+04  0.00000000000E+00 0. -1.
         24    2    1    2    0    0 -0.20138642074E+04 -0.11382282992E+03 -0.14920914805E+04  0.25102792630E+04  0.80995737283E+02 0.  0.
        254    2    1    2    0    0  0.20138642074E+04  0.11382282992E+03 -0.18464966450E+03  0.22179106365E+04  0.90356372801E+03 0.  0.
         23    2    4    4    0    0  0.73234393534E+03  0.47208944427E+03 -0.54187243345E+02  0.87780594186E+03  0.91711129150E+02 0.  0.
         23    2    4    4    0    0  0.12815202721E+04 -0.35826661435E+03 -0.13046242116E+03  0.13401046947E+04  0.90614428673E+02 0.  0.
          4    1    3    3  502    0 -0.19961261474E+04 -0.12020392225E+03 -0.14755443821E+04  0.24851961297E+04  0.00000000000E+00 0. -1.
         -3    1    3    3    0  502 -0.17738059987E+02  0.63810923293E+01 -0.16547098390E+02  0.25083133308E+02  0.00000000000E+00 0.  1.
         13    1    5    5    0    0  0.35590335717E+03  0.17681055122E+03 -0.35964303325E+02  0.39902706898E+03  0.00000000000E+00 0.  1.
        -13    1    5    5    0    0  0.37644057817E+03  0.29527889305E+03 -0.18222940021E+02  0.47877887288E+03  0.00000000000E+00 0. -1.
          3    1    6    6  503    0  0.66359838455E+03 -0.15027186514E+03 -0.36483385115E+02  0.68137763892E+03  0.00000000000E+00 0. -1.
         -3    1    6    6    0  503  0.61792188752E+03 -0.20799474921E+03 -0.93979036040E+02  0.65872705575E+03  0.00000000000E+00 0.  1.
<mgrwt>
<rscale>  0 0.44208957E+04</rscale>
<asrwt>0</asrwt>
<pdfrwt beam="1">  1        2 0.49268700E+00 0.44208957E+04</pdfrwt>
<pdfrwt beam="2">  1       -1 0.23472683E+00 0.44208957E+04</pdfrwt>
<totfact> 0.98164843E-02</totfact>
</mgrwt>
</event>
<event>
12    7  0.1741211E-007  0.1521736E+04  0.7818608E-02  0.8870126E-01
         -1   -1    0    0    0  501 -0.00000000000E+00  0.00000000000E+00  0.39280546164E+03  0.39280546164E+03  0.00000000000E+00 0.  1.
          2   -1    0    0  501    0  0.00000000000E+00 -0.00000000000E+00 -0.14738083252E+04  0.14738083252E+04  0.00000000000E+00 0. -1.
         24    2    1    2    0    0 -0.20597846840E+02  0.21326483634E+03  0.18257830743E+03  0.29896556307E+03  0.10069462669E+03 0.  0.
        254    2    1    2    0    0  0.20597846840E+02 -0.21326483634E+03 -0.12635811710E+04  0.15676482238E+04  0.90276099610E+03 0.  0.
         23    2    4    4    0    0  0.49362787209E+02 -0.28556742055E+03 -0.63612554423E+01  0.30378069335E+03  0.90866977743E+02 0.  0.
         23    2    4    4    0    0 -0.28764940369E+02  0.72302584205E+02 -0.12572199155E+04  0.12638675304E+04  0.10346077955E+03 0.  0.
          2    1    3    3  502    0 -0.11215541715E+02  0.59506186415E+02  0.61990869010E+00  0.60557071300E+02  0.00000000000E+00 0. -1.
         -3    1    3    3    0  502 -0.93823051258E+01  0.15375864993E+03  0.18195839874E+03  0.23840849177E+03  0.00000000000E+00 0.  1.
         13    1    5    5    0    0 -0.14355710271E+02 -0.40558987361E+02  0.23235772879E+02  0.48898047143E+02  0.00000000000E+00 0. -1.
        -13    1    5    5    0    0  0.63718497480E+02 -0.24500843319E+03 -0.29597028321E+02  0.25488264621E+03  0.00000000000E+00 0.  1.
          2    1    6    6  503    0 -0.18305347933E+02  0.32187285337E+01 -0.34799430277E+02  0.39451822821E+02  0.00000000000E+00 0. -1.
         -2    1    6    6    0  503 -0.10459592436E+02  0.69083855671E+02 -0.12224204853E+04  0.12244157076E+04  0.00000000000E+00 0.  1.
<mgrwt>
<rscale>  0 0.15217358E+04</rscale>
<asrwt>0</asrwt>
<pdfrwt beam="1">  1        2 0.22673974E+00 0.15217358E+04</pdfrwt>
<pdfrwt beam="2">  1       -1 0.60431610E-01 0.15217358E+04</pdfrwt>
<totfact> 0.40089210E+01</totfact>
</mgrwt>
</event>
<event>
12    7  0.1741211E-007  0.1400806E+04  0.7818608E-02  0.8953235E-01
          2   -1    0    0  501    0  0.00000000000E+00  0.00000000000E+00  0.28382566193E+04  0.28382566193E+04  0.00000000000E+00 0. -1.
         -1   -1    0    0    0  501 -0.00000000000E+00 -0.00000000000E+00 -0.17283999731E+03  0.17283999731E+03  0.00000000000E+00 0.  1.
         24    2    1    2    0    0 -0.52113539177E+02  0.34787037057E+03  0.12230273991E+04  0.12750100552E+04  0.78262419024E+02 0.  0.
        254    2    1    2    0    0  0.52113539177E+02 -0.34787037057E+03  0.14423892228E+04  0.17360865614E+04  0.89987791542E+03 0.  0.
         23    2    4    4    0    0 -0.37452833760E+03 -0.21433197062E+03  0.38927109248E+03  0.58841571275E+03  0.92148783320E+02 0.  0.
         23    2    4    4    0    0  0.42664187678E+03 -0.13353839995E+03  0.10531181304E+04  0.11476708486E+04  0.90745715988E+02 0.  0.
          2    1    3    3  502    0 -0.52662137627E+02  0.31029281414E+03  0.98573532054E+03  0.10347603845E+04  0.00000000000E+00 0. -1.
         -1    1    3    3    0  502  0.54859844950E+00  0.37577556432E+02  0.23729207858E+03  0.24024967068E+03  0.00000000000E+00 0.  1.
         13    1    5    5    0    0 -0.30671052142E+03 -0.13894288841E+03  0.26809736233E+03  0.43040988125E+03  0.00000000000E+00 0.  1.
        -13    1    5    5    0    0 -0.67817816184E+02 -0.75389082211E+02  0.12117373015E+03  0.15800583150E+03  0.00000000000E+00 0. -1.
          1    1    6    6  503    0  0.42662434839E+02 -0.97243999766E+01  0.18915045559E+03  0.19414567250E+03  0.00000000000E+00 0. -1.
         -1    1    6    6    0  503  0.38397944194E+03 -0.12381399997E+03  0.86396767478E+03  0.95352517611E+03  0.00000000000E+00 0.  1.
<mgrwt>
<rscale>  0 0.14008059E+04</rscale>
<asrwt>0</asrwt>
<pdfrwt beam="1">  1        2 0.43665483E+00 0.14008059E+04</pdfrwt>
<pdfrwt beam="2">  1       -1 0.26590771E-01 0.14008059E+04</pdfrwt>
<totfact> 0.30814359E+01</totfact>
</mgrwt>
</event>
<event>
12    7  0.1774211E-007  0.1664594E+04  0.7818608E-02  0.8781819E-01
         -1   -1    0    0    0  501 -0.00000000000E+00  0.00000000000E+00  0.53724251157E+03  0.53724251157E+03  0.00000000000E+00 0.  1.
          2   -1    0    0  501    0  0.00000000000E+00 -0.00000000000E+00 -0.12893955669E+04  0.12893955669E+04  0.00000000000E+00 0. -1.
         24    2    1    2    0    0 -0.10404966549E+02  0.29161299931E+03 -0.81801246971E+03  0.87154738413E+03  0.72828823206E+02 0.  0.
        254    2    1    2    0    0  0.10404966549E+02 -0.29161299931E+03  0.65859414401E+02  0.95509069432E+03  0.90703603414E+03 0.  0.
         23    2    4    4    0    0 -0.17757640160E+03 -0.56764147252E+03  0.89389093920E+02  0.60836287472E+03  0.91459048204E+02 0.  0.
         23    2    4    4    0    0  0.18798136815E+03  0.27602847321E+03 -0.23529679519E+02  0.34672781960E+03  0.90209879052E+02 0.  0.
          4    1    3    3  502    0 -0.29198647562E+02  0.21660682578E+03 -0.66686238004E+03  0.70176670760E+03  0.00000000000E+00 0. -1.
         -3    1    3    3    0  502  0.18793681012E+02  0.75006173531E+02 -0.15115008968E+03  0.16978067653E+03  0.00000000000E+00 0.  1.
         13    1    5    5    0    0 -0.30027052714E+02 -0.97988966529E+02 -0.19136351677E+02  0.10425766836E+03  0.00000000000E+00 0. -1.
        -13    1    5    5    0    0 -0.14754934888E+03 -0.46965250599E+03  0.10852544560E+03  0.50410520636E+03  0.00000000000E+00 0.  1.
          1    1    6    6  503    0  0.95766919085E+02  0.12479829190E+03  0.33129705089E+02  0.16075911735E+03  0.00000000000E+00 0. -1.
         -1    1    6    6    0  503  0.92214449060E+02  0.15123018131E+03 -0.56659384608E+02  0.18596870226E+03  0.00000000000E+00 0.  1.
<mgrwt>
<rscale>  0 0.16645938E+04</rscale>
<asrwt>0</asrwt>
<pdfrwt beam="1">  1        2 0.19836855E+00 0.16645938E+04</pdfrwt>
<pdfrwt beam="2">  1       -1 0.82652695E-01 0.16645938E+04</pdfrwt>
<totfact> 0.26534932E+01</totfact>
</mgrwt>
</event>
<event>
12    7  0.1741211E-007  0.2016681E+04  0.7818608E-02  0.8598861E-01
         -1   -1    0    0    0  501 -0.00000000000E+00  0.00000000000E+00  0.63527232408E+03  0.63527232408E+03  0.00000000000E+00 0.  1.
          2   -1    0    0  501    0  0.00000000000E+00 -0.00000000000E+00 -0.16004963564E+04  0.16004963564E+04  0.00000000000E+00 0. -1.
         24    2    1    2    0    0 -0.43827177142E+03  0.31699341920E+03  0.26762195077E+03  0.60835590246E+03  0.76866261028E+02 0.  0.
        254    2    1    2    0    0  0.43827177142E+03 -0.31699341920E+03 -0.12328459831E+04  0.16274127780E+04  0.91432825539E+03 0.  0.
         23    2    4    4    0    0  0.44266499913E+03 -0.58136626875E+03 -0.65609177061E+03  0.98635645900E+03  0.92215035953E+02 0.  0.
         23    2    4    4    0    0 -0.43932277113E+01  0.26437284954E+03 -0.57675421249E+03  0.64105631903E+03  0.91626843861E+02 0.  0.
          2    1    3    3  502    0 -0.66178720692E+01 -0.74121351363E+00  0.13768574709E+02  0.15294419823E+02  0.00000000000E+00 0. -1.
         -1    1    3    3    0  502 -0.43165389935E+03  0.31773463272E+03  0.25385337606E+03  0.59306148264E+03  0.00000000000E+00 0.  1.
         13    1    5    5    0    0  0.31625788841E+03 -0.45559073320E+03 -0.45304432376E+03  0.71612228526E+03  0.00000000000E+00 0. -1.
        -13    1    5    5    0    0  0.12640711072E+03 -0.12577553555E+03 -0.20304744685E+03  0.27023417374E+03  0.00000000000E+00 0.  1.
          2    1    6    6  503    0 -0.19054543583E+02  0.87016154762E+01 -0.23971858831E+02  0.31834631439E+02  0.00000000000E+00 0. -1.
         -2    1    6    6    0  503  0.14661315871E+02  0.25567123407E+03 -0.55278235366E+03  0.60922168759E+03  0.00000000000E+00 0.  1.
<mgrwt>
<rscale>  0 0.20166815E+04</rscale>
<asrwt>0</asrwt>
<pdfrwt beam="1">  1        2 0.24623021E+00 0.20166815E+04</pdfrwt>
<pdfrwt beam="2">  1       -1 0.97734204E-01 0.20166815E+04</pdfrwt>
<totfact> 0.11828871E+01</totfact>
</mgrwt>
</event>
<event>
12    7  0.1741211E-007  0.3212272E+04  0.7818608E-02  0.8185584E-01
         -1   -1    0    0    0  501 -0.00000000000E+00  0.00000000000E+00  0.24953267136E+04  0.24953267136E+04  0.00000000000E+00 0.  1.
          2   -1    0    0  501    0  0.00000000000E+00 -0.00000000000E+00 -0.10338018927E+04  0.10338018927E+04  0.00000000000E+00 0. -1.
         24    2    1    2    0    0  0.11233824656E+04 -0.92255230361E+03  0.96135277373E+03  0.17446217800E+04  0.80094211247E+02 0.  0.
        254    2    1    2    0    0 -0.11233824656E+04  0.92255230361E+03  0.50017204714E+03  0.17845068264E+04  0.90620175434E+03 0.  0.
         23    2    4    4    0    0 -0.12630409815E+04  0.87336998153E+03  0.44336281351E+03  0.16010529364E+04  0.93553595641E+02 0.  0.
         23    2    4    4    0    0  0.13965851588E+03  0.49182322078E+02  0.56809233631E+02  0.18345388991E+03  0.92220598767E+02 0.  0.
          4    1    3    3  502    0  0.54003587828E+03 -0.42206899943E+03  0.49684737125E+03  0.84654491932E+03  0.00000000000E+00 0. -1.
         -3    1    3    3    0  502  0.58334658736E+03 -0.50048330418E+03  0.46450540248E+03  0.89807686067E+03  0.00000000000E+00 0.  1.
         13    1    5    5    0    0 -0.11884153511E+04  0.83751488758E+03  0.43643332920E+03  0.15179711079E+04  0.00000000000E+00 0. -1.
        -13    1    5    5    0    0 -0.74625630430E+02  0.35855093949E+02  0.69294843122E+01  0.83081828530E+02  0.00000000000E+00 0.  1.
          2    1    6    6  503    0  0.12551470879E+03  0.13938297542E+02  0.68566165708E+02  0.14369946882E+03  0.00000000000E+00 0. -1.
         -2    1    6    6    0  503  0.14143807091E+02  0.35244024536E+02 -0.11756932077E+02  0.39754421092E+02  0.00000000000E+00 0.  1.
<mgrwt>
<rscale>  0 0.32122724E+04</rscale>
<asrwt>0</asrwt>
<pdfrwt beam="1">  1        2 0.15904645E+00 0.32122724E+04</pdfrwt>
<pdfrwt beam="2">  1       -1 0.38389642E+00 0.32122724E+04</pdfrwt>
<totfact> 0.21137991E-01</totfact>
</mgrwt>
</event>
<event>
12    7  0.1741211E-007  0.1896800E+04  0.7818608E-02  0.8656451E-01
          2   -1    0    0  501    0  0.00000000000E+00  0.00000000000E+00  0.20544456856E+04  0.20544456856E+04  0.00000000000E+00 0. -1.
         -1   -1    0    0    0  501 -0.00000000000E+00 -0.00000000000E+00 -0.43781261391E+03  0.43781261391E+03  0.00000000000E+00 0.  1.
         24    2    1    2    0    0 -0.40897552962E+03 -0.57735340444E+03  0.89281075266E+03  0.11417108523E+04  0.76122879892E+02 0.  0.
        254    2    1    2    0    0  0.40897552962E+03  0.57735340444E+03  0.72382231900E+03  0.13505474471E+04  0.89412623271E+03 0.  0.
         23    2    4    4    0    0  0.43158282030E+03  0.36835568808E+02  0.13336350161E+01  0.44223064340E+03  0.89137946347E+02 0.  0.
         23    2    4    4    0    0 -0.22607290678E+02  0.54051783563E+03  0.72248868399E+03  0.90831680373E+03  0.10187687283E+03 0.  0.
          4    1    3    3  502    0 -0.17426702366E+03 -0.19571824671E+03  0.29397875405E+03  0.39382500615E+03  0.00000000000E+00 0. -1.
         -3    1    3    3    0  502 -0.23470850596E+03 -0.38163515773E+03  0.59883199860E+03  0.74788584619E+03  0.00000000000E+00 0.  1.
         13    1    5    5    0    0  0.31148428425E+03  0.96041442832E+01 -0.35612885289E+02  0.31366060721E+03  0.00000000000E+00 0. -1.
        -13    1    5    5    0    0  0.12009853605E+03  0.27231424525E+02  0.36946520305E+02  0.12857003619E+03  0.00000000000E+00 0.  1.
          3    1    6    6  503    0  0.19033063468E+02  0.34974960990E+03  0.52048219349E+03  0.62736652833E+03  0.00000000000E+00 0. -1.
         -3    1    6    6    0  503 -0.41640354146E+02  0.19076822573E+03  0.20200649050E+03  0.28095027540E+03  0.00000000000E+00 0.  1.
<mgrwt>
<rscale>  0 0.18967997E+04</rscale>
<asrwt>0</asrwt>
<pdfrwt beam="1">  1        2 0.31606856E+00 0.18967997E+04</pdfrwt>
<pdfrwt beam="2">  1       -1 0.67355788E-01 0.18967997E+04</pdfrwt>
<totfact> 0.14837196E+01</totfact>
</mgrwt>
</event>
<event>
12    7  0.1741211E-007  0.1335256E+04  0.7818608E-02  0.9002065E-01
          2   -1    0    0  501    0  0.00000000000E+00  0.00000000000E+00  0.93858865015E+03  0.93858865015E+03  0.00000000000E+00 0. -1.
         -1   -1    0    0    0  501 -0.00000000000E+00 -0.00000000000E+00 -0.47489064229E+03  0.47489064229E+03  0.00000000000E+00 0.  1.
         24    2    1    2    0    0 -0.15092236864E+03  0.72408215579E+02  0.49158498908E+03  0.52439573589E+03  0.72901133669E+02 0.  0.
        254    2    1    2    0    0  0.15092236864E+03 -0.72408215579E+02 -0.27886981222E+02  0.88908355655E+03  0.87273786200E+03 0.  0.
         23    2    4    4    0    0  0.26144538161E+03  0.26501381443E+03  0.22470558299E+03  0.44440651881E+03  0.91752632257E+02 0.  0.
         23    2    4    4    0    0 -0.11052301296E+03 -0.33742203001E+03 -0.25259256421E+03  0.44467703774E+03  0.88688791088E+02 0.  0.
          2    1    3    3  502    0 -0.10427474670E+03  0.43900640701E+02  0.41601085648E+03  0.43112123789E+03  0.00000000000E+00 0. -1.
         -1    1    3    3    0  502 -0.46647621946E+02  0.28507574877E+02  0.75574132610E+02  0.93274498006E+02  0.00000000000E+00 0.  1.
         13    1    5    5    0    0  0.20660458050E+03  0.25012984828E+03  0.17344307471E+03  0.36787619364E+03  0.00000000000E+00 0. -1.
        -13    1    5    5    0    0  0.54840801111E+02  0.14883966156E+02  0.51262508281E+02  0.76530325168E+02  0.00000000000E+00 0.  1.
          4    1    6    6  503    0 -0.71569450841E+01 -0.15711553751E+03 -0.93817218943E+02  0.18313433474E+03  0.00000000000E+00 0. -1.
         -4    1    6    6    0  503 -0.10336606788E+03 -0.18030649250E+03 -0.15877534527E+03  0.26154270300E+03  0.00000000000E+00 0.  1.
<mgrwt>
<rscale>  0 0.13352557E+04</rscale>
<asrwt>0</asrwt>
<pdfrwt beam="1">  1        2 0.14439825E+00 0.13352557E+04</pdfrwt>
<pdfrwt beam="2">  1       -1 0.73060099E-01 0.13352557E+04</pdfrwt>
<totfact> 0.58222783E+01</totfact>
</mgrwt>
</event>
<event>
12    7  0.1741211E-007  0.2429170E+04  0.7818608E-02  0.8428663E-01
         -1   -1    0    0    0  501 -0.00000000000E+00  0.00000000000E+00  0.47337920858E+03  0.47337920858E+03  0.00000000000E+00 0.  1.
          2   -1    0    0  501    0  0.00000000000E+00 -0.00000000000E+00 -0.31163525228E+04  0.31163525228E+04  0.00000000000E+00 0. -1.
         24    2    1    2    0    0  0.82112586616E+03 -0.30038975112E+03 -0.29965793386E+03  0.92813684095E+03  0.84625218198E+02 0.  0.
        254    2    1    2    0    0 -0.82112586616E+03  0.30038975112E+03 -0.23433153804E+04  0.26615948904E+04  0.91020805214E+03 0.  0.
         23    2    4    4    0    0  0.15825878299E+02  0.27013008214E+03 -0.17473139103E+03  0.33502171254E+03  0.92129089645E+02 0.  0.
         23    2    4    4    0    0 -0.83695174446E+03  0.30259668981E+02 -0.21685839893E+04  0.23265731779E+04  0.93714263156E+02 0.  0.
          2    1    3    3  502    0  0.11869273250E+03 -0.60336391044E+02 -0.18830331247E+02  0.13447314308E+03  0.00000000000E+00 0. -1.
         -1    1    3    3    0  502  0.70243313365E+03 -0.24005336008E+03 -0.28082760261E+03  0.79366369788E+03  0.00000000000E+00 0.  1.
         13    1    5    5    0    0 -0.22077967082E+02  0.14100301665E+03 -0.49132504345E+02  0.15094134728E+03  0.00000000000E+00 0.  1.
        -13    1    5    5    0    0  0.37903845381E+02  0.12912706549E+03 -0.12559888669E+03  0.18408036526E+03  0.00000000000E+00 0. -1.
          4    1    6    6  503    0 -0.83552476161E+03  0.25925609125E+02 -0.21372701646E+04  0.22949286527E+04  0.00000000000E+00 0.  1.
         -4    1    6    6    0  503 -0.14269828499E+01  0.43340598557E+01 -0.31313824704E+02  0.31644525158E+02  0.00000000000E+00 0. -1.
<mgrwt>
<rscale>  0 0.24291698E+04</rscale>
<asrwt>0</asrwt>
<pdfrwt beam="1">  1        2 0.47943888E+00 0.24291698E+04</pdfrwt>
<pdfrwt beam="2">  1       -1 0.72827566E-01 0.24291698E+04</pdfrwt>
<totfact> 0.28510469E+00</totfact>
</mgrwt>
</event>
<event>
12    7  0.1741211E-007  0.1199773E+04  0.7818608E-02  0.9113056E-01
          2   -1    0    0  501    0  0.00000000000E+00  0.00000000000E+00  0.83301754825E+03  0.83301754825E+03  0.00000000000E+00 0. -1.
         -1   -1    0    0    0  501 -0.00000000000E+00 -0.00000000000E+00 -0.43199995782E+03  0.43199995782E+03  0.00000000000E+00 0.  1.
         24    2    1    2    0    0 -0.20564691252E+03  0.93704367282E+02 -0.62003264642E+02  0.24774771235E+03  0.80395043841E+02 0.  0.
        254    2    1    2    0    0  0.20564691252E+03 -0.93704367282E+02  0.46302085507E+03  0.10172697937E+04  0.87714215490E+03 0.  0.
         23    2    4    4    0    0  0.90087145503E+02  0.26178454108E+03 -0.12157965652E+03  0.31738175203E+03  0.96450629379E+02 0.  0.
         23    2    4    4    0    0  0.11555976702E+03 -0.35548890836E+03  0.58460051159E+03  0.69988804169E+03  0.91428053831E+02 0.  0.
          2    1    3    3  502    0 -0.54401402157E+02 -0.78675585579E+01  0.99461841516E+00  0.54976361285E+02  0.00000000000E+00 0. -1.
         -1    1    3    3    0  502 -0.15124551036E+03  0.10157192584E+03 -0.62997883057E+02  0.19277135107E+03  0.00000000000E+00 0.  1.
         13    1    5    5    0    0  0.59257729461E+02  0.71955061378E+02 -0.69029730261E+01  0.93470104287E+02  0.00000000000E+00 0.  1.
        -13    1    5    5    0    0  0.30829416043E+02  0.18982947970E+03 -0.11467668349E+03  0.22391164774E+03  0.00000000000E+00 0. -1.
          3    1    6    6  503    0  0.45389117675E+02 -0.11702739531E+03  0.27917737792E+03  0.30609735640E+03  0.00000000000E+00 0. -1.
         -3    1    6    6    0  503  0.70170649341E+02 -0.23846151305E+03  0.30542313367E+03  0.39379068529E+03  0.00000000000E+00 0.  1.
<mgrwt>
<rscale>  0 0.11997726E+04</rscale>
<asrwt>0</asrwt>
<pdfrwt beam="1">  1        2 0.12815655E+00 0.11997726E+04</pdfrwt>
<pdfrwt beam="2">  1       -1 0.66461532E-01 0.11997726E+04</pdfrwt>
<totfact> 0.84311967E+01</totfact>
</mgrwt>
</event>
<event>
12    7  0.1741211E-007  0.1362521E+04  0.7818608E-02  0.8981404E-01
          2   -1    0    0  501    0  0.00000000000E+00  0.00000000000E+00  0.62098684097E+03  0.62098684097E+03  0.00000000000E+00 0. -1.
         -1   -1    0    0    0  501 -0.00000000000E+00 -0.00000000000E+00 -0.74738402099E+03  0.74738402099E+03  0.00000000000E+00 0.  1.
         24    2    1    2    0    0  0.25527180218E+03  0.17471406245E+03  0.16520648631E+03  0.36013031294E+03  0.81926568191E+02 0.  0.
        254    2    1    2    0    0 -0.25527180218E+03 -0.17471406245E+03 -0.29160366634E+03  0.10082405490E+04  0.91423607993E+03 0.  0.
         23    2    4    4    0    0  0.20492838181E+03 -0.22751241069E+02  0.20791830315E+03  0.30653629550E+03  0.90670938184E+02 0.  0.
         23    2    4    4    0    0 -0.46020018398E+03 -0.15196282138E+03 -0.49952196949E+03  0.70170425352E+03  0.89385418169E+02 0.  0.
          4    1    3    3  502    0  0.24002200661E+03  0.17133716019E+03  0.17379706494E+03  0.34230455139E+03  0.00000000000E+00 0. -1.
         -3    1    3    3    0  502  0.15249795567E+02  0.33769022596E+01 -0.85905786309E+01  0.17825761553E+02  0.00000000000E+00 0.  1.
         13    1    5    5    0    0  0.63032743191E+02 -0.39623759242E+02  0.11179967479E+03  0.13432176404E+03  0.00000000000E+00 0.  1.
        -13    1    5    5    0    0  0.14189563861E+03  0.16872518173E+02  0.96118628359E+02  0.17221453146E+03  0.00000000000E+00 0. -1.
          1    1    6    6  503    0 -0.21338397722E+03 -0.11151255380E+03 -0.21393968553E+03  0.32208377859E+03  0.00000000000E+00 0. -1.
         -1    1    6    6    0  503 -0.24681620677E+03 -0.40450267581E+02 -0.28558228397E+03  0.37962047493E+03  0.00000000000E+00 0.  1.
<mgrwt>
<rscale>  0 0.13625207E+04</rscale>
<asrwt>0</asrwt>
<pdfrwt beam="1">  1        2 0.95536437E-01 0.13625207E+04</pdfrwt>
<pdfrwt beam="2">  1       -1 0.11498216E+00 0.13625207E+04</pdfrwt>
<totfact> 0.36434981E+01</totfact>
</mgrwt>
</event>
<event>
12    7  0.1741211E-007  0.1435027E+04  0.7818608E-02  0.8928847E-01
         -1   -1    0    0    0  501 -0.00000000000E+00  0.00000000000E+00  0.34293282457E+03  0.34293282457E+03  0.00000000000E+00 0.  1.
          2   -1    0    0  501    0  0.00000000000E+00 -0.00000000000E+00 -0.15012442098E+04  0.15012442098E+04  0.00000000000E+00 0. -1.
         24    2    1    2    0    0 -0.32488470864E+03 -0.12348464812E+02  0.85758719007E+01  0.33617330945E+03  0.85066973135E+02 0.  0.
        254    2    1    2    0    0  0.32488470864E+03  0.12348464812E+02 -0.11668872571E+04  0.15080037249E+04  0.89819085112E+03 0.  0.
         23    2    4    4    0    0 -0.10313130228E+03 -0.20128071445E+03 -0.25996396400E-01  0.24354010488E+03  0.90342628318E+02 0.  0.
         23    2    4    4    0    0  0.42801601092E+03  0.21362917926E+03 -0.11668612608E+04  0.12644636201E+04  0.92021262605E+02 0.  0.
          4    1    3    3  502    0 -0.13773070830E+03  0.25481949735E+01 -0.37677100419E+02  0.14281388309E+03  0.00000000000E+00 0. -1.
         -3    1    3    3    0  502 -0.18715400034E+03 -0.14896659786E+02  0.46252972320E+02  0.19335942636E+03  0.00000000000E+00 0.  1.
         13    1    5    5    0    0 -0.44955018631E+02 -0.16500950869E+03  0.19819828797E+02  0.17216828184E+03  0.00000000000E+00 0. -1.
        -13    1    5    5    0    0 -0.58176283649E+02 -0.36271205752E+02 -0.19845825193E+02  0.71371823036E+02  0.00000000000E+00 0.  1.
          4    1    6    6  503    0  0.23405619775E+03  0.14388699777E+03 -0.76469726014E+03  0.81255625744E+03  0.00000000000E+00 0. -1.
         -4    1    6    6    0  503  0.19395981317E+03  0.69742181494E+02 -0.40216400061E+03  0.45190736262E+03  0.00000000000E+00 0.  1.
<mgrwt>
<rscale>  0 0.14350274E+04</rscale>
<asrwt>0</asrwt>
<pdfrwt beam="1">  1        2 0.23096064E+00 0.14350274E+04</pdfrwt>
<pdfrwt beam="2">  1       -1 0.52758897E-01 0.14350274E+04</pdfrwt>
<totfact> 0.50764133E+01</totfact>
</mgrwt>
</event>
<event>
12    7  0.1741211E-007  0.1501786E+04  0.7818608E-02  0.8883266E-01
         -1   -1    0    0    0  501 -0.00000000000E+00  0.00000000000E+00  0.98689512588E+03  0.98689512588E+03  0.00000000000E+00 0.  1.
          2   -1    0    0  501    0  0.00000000000E+00 -0.00000000000E+00 -0.57132736696E+03  0.57132736696E+03  0.00000000000E+00 0. -1.
         24    2    1    2    0    0  0.14282241178E+03  0.11045747293E+03 -0.32587409739E+03  0.38407149070E+03  0.93369630978E+02 0.  0.
        254    2    1    2    0    0 -0.14282241178E+03 -0.11045747293E+03  0.74144185631E+03  0.11741510021E+04  0.89235388434E+03 0.  0.
         23    2    4    4    0    0 -0.19291913095E+03  0.27929066707E+03  0.25097227830E+02  0.35205743070E+03  0.89963858672E+02 0.  0.
         23    2    4    4    0    0  0.50096719172E+02 -0.38974814000E+03  0.71634462848E+03  0.82209357144E+03  0.90966584773E+02 0.  0.
          4    1    3    3  502    0  0.14344457195E+03  0.11328143005E+03 -0.25826940362E+03  0.31640498173E+03  0.00000000000E+00 0. -1.
         -3    1    3    3    0  502 -0.62216017557E+00 -0.28239571188E+01 -0.67604693765E+02  0.67666508969E+02  0.00000000000E+00 0.  1.
         13    1    5    5    0    0 -0.19575662494E+03  0.27653428087E+03  0.12703358269E+02  0.33904754831E+03  0.00000000000E+00 0.  1.
        -13    1    5    5    0    0  0.28374939915E+01  0.27563861977E+01  0.12393869561E+02  0.13009882386E+02  0.00000000000E+00 0. -1.
          1    1    6    6  503    0  0.68388544728E+01 -0.20804673386E+02  0.10075345650E+03  0.10310607820E+03  0.00000000000E+00 0. -1.
         -1    1    6    6    0  503  0.43257864699E+02 -0.36894346661E+03  0.61559117198E+03  0.71898749324E+03  0.00000000000E+00 0.  1.
<mgrwt>
<rscale>  0 0.15017859E+04</rscale>
<asrwt>0</asrwt>
<pdfrwt beam="1">  1        2 0.87896518E-01 0.15017859E+04</pdfrwt>
<pdfrwt beam="2">  1       -1 0.15183002E+00 0.15017859E+04</pdfrwt>
<totfact> 0.19612226E+01</totfact>
</mgrwt>
</event>
<event>
12    7  0.1741211E-007  0.2020063E+04  0.7818608E-02  0.8597298E-01
         -1   -1    0    0    0  501 -0.00000000000E+00  0.00000000000E+00  0.11235088303E+04  0.11235088303E+04  0.00000000000E+00 0.  1.
          2   -1    0    0  501    0  0.00000000000E+00 -0.00000000000E+00 -0.90801569274E+03  0.90801569274E+03  0.00000000000E+00 0. -1.
         24    2    1    2    0    0  0.33221254820E+03  0.67023471283E+03 -0.22730760891E+03  0.78633393155E+03  0.84098486181E+02 0.  0.
        254    2    1    2    0    0 -0.33221254820E+03 -0.67023471283E+03  0.44280074651E+03  0.12451905915E+04  0.89154212499E+03 0.  0.
         23    2    4    4    0    0  0.28648301124E+03 -0.10652115148E+03  0.99943665692E+02  0.33622658172E+03  0.98185062510E+02 0.  0.
         23    2    4    4    0    0 -0.61869555944E+03 -0.56371356135E+03  0.34285708082E+03  0.90896400980E+03  0.90041205719E+02 0.  0.
          4    1    3    3  502    0  0.29869350680E+03  0.63412365399E+03 -0.22787661003E+03  0.73706062773E+03  0.00000000000E+00 0. -1.
         -3    1    3    3    0  502  0.33519041403E+02  0.36111058841E+02  0.56900112204E+00  0.49273303821E+02  0.00000000000E+00 0.  1.
         13    1    5    5    0    0  0.88312406023E+02 -0.81249560530E+02  0.23240378616E+02  0.12223210438E+03  0.00000000000E+00 0.  1.
        -13    1    5    5    0    0  0.19817060522E+03 -0.25271590949E+02  0.76703287075E+02  0.21399447733E+03  0.00000000000E+00 0. -1.
          4    1    6    6  503    0 -0.17405598016E+03 -0.21305189268E+03  0.12586901949E+03  0.30253859799E+03  0.00000000000E+00 0. -1.
         -4    1    6    6    0  503 -0.44463957928E+03 -0.35066166867E+03  0.21698806133E+03  0.60642541181E+03  0.00000000000E+00 0.  1.
<mgrwt>
<rscale>  0 0.20200630E+04</rscale>
<asrwt>0</asrwt>
<pdfrwt beam="1">  1        2 0.13969472E+00 0.20200630E+04</pdfrwt>
<pdfrwt beam="2">  1       -1 0.17284751E+00 0.20200630E+04</pdfrwt>
<totfact> 0.71867307E+00</totfact>
</mgrwt>
</event>
<event>
12    7  0.1741211E-007  0.1623173E+04  0.7818608E-02  0.8806437E-01
          2   -1    0    0  501    0  0.00000000000E+00  0.00000000000E+00  0.24505023806E+04  0.24505023806E+04  0.00000000000E+00 0. -1.
         -1   -1    0    0    0  501 -0.00000000000E+00 -0.00000000000E+00 -0.26879091493E+03  0.26879091493E+03  0.00000000000E+00 0.  1.
         24    2    1    2    0    0 -0.52090921025E+02 -0.41848004007E+03  0.13968403995E+04  0.14612709013E+04  0.79438890629E+02 0.  0.
        254    2    1    2    0    0  0.52090921025E+02  0.41848004007E+03  0.78487106618E+03  0.12580223942E+04  0.88812090722E+03 0.  0.
         23    2    4    4    0    0 -0.27345971248E+02  0.49866462513E+03  0.51214782476E+02  0.51015557365E+03  0.90672735044E+02 0.  0.
         23    2    4    4    0    0  0.79436892273E+02 -0.80184585058E+02  0.73365628370E+03  0.74786682057E+03  0.91178128785E+02 0.  0.
          2    1    3    3  502    0 -0.60229195068E+02 -0.41560324158E+03  0.13564467652E+04  0.14199652944E+04  0.00000000000E+00 0. -1.
         -1    1    3    3    0  502  0.81382740424E+01 -0.28767984920E+01  0.40393634260E+02  0.41305606916E+02  0.00000000000E+00 0.  1.
         13    1    5    5    0    0 -0.22907597729E+02  0.29321318307E+03 -0.14332515344E+02  0.29445568386E+03  0.00000000000E+00 0. -1.
        -13    1    5    5    0    0 -0.44383735187E+01  0.20545144206E+03  0.65547297821E+02  0.21569988979E+03  0.00000000000E+00 0.  1.
          3    1    6    6  503    0  0.26961534591E+02  0.13916220349E+02  0.83461306926E+02  0.88805266117E+02  0.00000000000E+00 0. -1.
         -3    1    6    6    0  503  0.52475357682E+02 -0.94100805406E+02  0.65019497677E+03  0.65906155446E+03  0.00000000000E+00 0.  1.
<mgrwt>
<rscale>  0 0.16231732E+04</rscale>
<asrwt>0</asrwt>
<pdfrwt beam="1">  1        2 0.37700035E+00 0.16231732E+04</pdfrwt>
<pdfrwt beam="2">  1       -1 0.41352450E-01 0.16231732E+04</pdfrwt>
<totfact> 0.23265282E+01</totfact>
</mgrwt>
</event>
<event>
12    7  0.1741211E-007  0.2450921E+04  0.7818608E-02  0.8420682E-01
          2   -1    0    0  501    0  0.00000000000E+00  0.00000000000E+00  0.29654529765E+04  0.29654529765E+04  0.00000000000E+00 0. -1.
         -1   -1    0    0    0  501 -0.00000000000E+00 -0.00000000000E+00 -0.50641603427E+03  0.50641603427E+03  0.00000000000E+00 0.  1.
         24    2    1    2    0    0 -0.10454479037E+04 -0.12461153221E+02  0.13005034409E+04  0.16708337365E+04  0.85203143576E+02 0.  0.
        254    2    1    2    0    0  0.10454479037E+04  0.12461153221E+02  0.11585335013E+04  0.18010352742E+04  0.89911711454E+03 0.  0.
         23    2    4    4    0    0  0.97722680510E+03  0.98313334977E+02  0.46052713918E+03  0.10885442896E+04  0.90585231120E+02 0.  0.
         23    2    4    4    0    0  0.68221098585E+02 -0.85852181756E+02  0.69800636216E+03  0.71249098462E+03  0.91683183531E+02 0.  0.
          2    1    3    3  502    0 -0.80792239437E+03  0.20134266402E+01  0.94866321614E+03  0.12460756586E+04  0.00000000000E+00 0. -1.
         -1    1    3    3    0  502 -0.23752550932E+03 -0.14474579861E+02  0.35184022476E+03  0.42475807797E+03  0.00000000000E+00 0.  1.
         13    1    5    5    0    0  0.18964492708E+03  0.50195005241E+02  0.71447544745E+02  0.20878095834E+03  0.00000000000E+00 0. -1.
        -13    1    5    5    0    0  0.78758187803E+03  0.48118329736E+02  0.38907959443E+03  0.87976333128E+03  0.00000000000E+00 0.  1.
          1    1    6    6  503    0  0.70616587746E+01 -0.19006378830E+02  0.41152073984E+03  0.41201993735E+03  0.00000000000E+00 0. -1.
         -1    1    6    6    0  503  0.61159439810E+02 -0.66845802925E+02  0.28648562232E+03  0.30047104727E+03  0.00000000000E+00 0.  1.
<mgrwt>
<rscale>  0 0.24509206E+04</rscale>
<asrwt>0</asrwt>
<pdfrwt beam="1">  1        2 0.45622352E+00 0.24509206E+04</pdfrwt>
<pdfrwt beam="2">  1       -1 0.77910161E-01 0.24509206E+04</pdfrwt>
<totfact> 0.30762727E+00</totfact>
</mgrwt>
</event>
<event>
12    7  0.1741211E-007  0.1285179E+04  0.7818608E-02  0.9041401E-01
          2   -1    0    0  501    0  0.00000000000E+00  0.00000000000E+00  0.78576337901E+03  0.78576337901E+03  0.00000000000E+00 0. -1.
         -3   -1    0    0    0  501 -0.00000000000E+00 -0.00000000000E+00 -0.52550344814E+03  0.52550344814E+03  0.00000000000E+00 0.  1.
         24    2    1    2    0    0  0.13460310765E+02  0.83345993651E+01 -0.27136040195E+03  0.28306634686E+03  0.78990147878E+02 0.  0.
        254    2    1    2    0    0 -0.13460310765E+02 -0.83345993651E+01  0.53162033283E+03  0.10282004803E+04  0.87995761483E+03 0.  0.
         23    2    4    4    0    0 -0.32262103552E+03 -0.26341172254E+03  0.42846412483E+03  0.60454091581E+03  0.91750446805E+02 0.  0.
         23    2    4    4    0    0  0.30916072476E+03  0.25507712317E+03  0.10315620799E+03  0.42365956448E+03  0.90562303585E+02 0.  0.
          4    1    3    3  502    0 -0.81974595850E+01 -0.15099967501E+01  0.20816206883E+01  0.85913665108E+01  0.00000000000E+00 0. -1.
         -3    1    3    3    0  502  0.21657770350E+02  0.98445961153E+01 -0.27344202264E+03  0.27447498035E+03  0.00000000000E+00 0.  1.
         13    1    5    5    0    0 -0.22776382613E+03 -0.23469752934E+03  0.31860556235E+03  0.45658383144E+03  0.00000000000E+00 0. -1.
        -13    1    5    5    0    0 -0.94857209388E+02 -0.28714193195E+02  0.10985856249E+03  0.14795708437E+03  0.00000000000E+00 0.  1.
          2    1    6    6  503    0  0.21599646810E+03  0.17256219795E+03  0.11333381174E+03  0.29879213389E+03  0.00000000000E+00 0. -1.
         -2    1    6    6    0  503  0.93164256661E+02  0.82514925227E+02 -0.10177603752E+02  0.12486743059E+03  0.00000000000E+00 0.  1.
<mgrwt>
<rscale>  0 0.12851792E+04</rscale>
<asrwt>0</asrwt>
<pdfrwt beam="1">  1        2 0.12088667E+00 0.12851792E+04</pdfrwt>
<pdfrwt beam="2">  1       -3 0.80846684E-01 0.12851792E+04</pdfrwt>
<totfact> 0.31149510E+01</totfact>
</mgrwt>
</event>
<event>
12    7  0.1741211E-007  0.1338017E+04  0.7818608E-02  0.8999949E-01
         -1   -1    0    0    0  501 -0.00000000000E+00  0.00000000000E+00  0.15195383672E+03  0.15195383672E+03  0.00000000000E+00 0.  1.
          2   -1    0    0  501    0  0.00000000000E+00 -0.00000000000E+00 -0.29454483147E+04  0.29454483147E+04  0.00000000000E+00 0. -1.
         24    2    1    2    0    0 -0.17602653413E+03 -0.12093205193E+03 -0.14008595943E+04  0.14192721867E+04  0.79473486033E+02 0.  0.
        254    2    1    2    0    0  0.17602653413E+03  0.12093205193E+03 -0.13926348837E+04  0.16781299648E+04  0.91163499136E+03 0.  0.
         23    2    4    4    0    0  0.67092602212E+02 -0.98821887706E+02  0.88228361518E+02  0.17386446711E+03  0.90429123553E+02 0.  0.
         23    2    4    4    0    0  0.10893393192E+03  0.21975393963E+03 -0.14808632452E+04  0.15042654976E+04  0.98490308760E+02 0.  0.
          2    1    3    3  502    0 -0.99665551991E+02 -0.61816376200E+02 -0.51608187571E+03  0.52924001082E+03  0.00000000000E+00 0. -1.
         -1    1    3    3    0  502 -0.76360982142E+02 -0.59115675725E+02 -0.88477771861E+03  0.89003217586E+03  0.00000000000E+00 0.  1.
         13    1    5    5    0    0 -0.13222636050E+01 -0.71431453065E+02  0.21921849762E+02  0.74731307797E+02  0.00000000000E+00 0. -1.
        -13    1    5    5    0    0  0.68414865817E+02 -0.27390434640E+02  0.66306511755E+02  0.99133159314E+02  0.00000000000E+00 0.  1.
          2    1    6    6  503    0 -0.90752813894E+01  0.33799449312E+02 -0.99949932368E+02  0.10589972845E+03  0.00000000000E+00 0. -1.
         -2    1    6    6    0  503  0.11800921331E+03  0.18595449032E+03 -0.13809133128E+04  0.13983657692E+04  0.00000000000E+00 0.  1.
<mgrwt>
<rscale>  0 0.13380167E+04</rscale>
<asrwt>0</asrwt>
<pdfrwt beam="1">  1        2 0.45314589E+00 0.13380167E+04</pdfrwt>
<pdfrwt beam="2">  1       -1 0.23377514E-01 0.13380167E+04</pdfrwt>
<totfact> 0.33262868E+01</totfact>
</mgrwt>
</event>
<event>
12    7  0.1741211E-007  0.1717771E+04  0.7818608E-02  0.8751293E-01
          4   -1    0    0  501    0  0.00000000000E+00  0.00000000000E+00  0.13348625823E+04  0.13348625823E+04  0.00000000000E+00 0. -1.
         -3   -1    0    0    0  501 -0.00000000000E+00 -0.00000000000E+00 -0.55262948726E+03  0.55262948726E+03  0.00000000000E+00 0.  1.
         24    2    1    2    0    0 -0.49879275814E+03  0.56707110115E+02  0.67724511215E+03  0.84673044256E+03  0.79256473005E+02 0.  0.
        254    2    1    2    0    0  0.49879275814E+03 -0.56707110115E+02  0.10498798289E+03  0.10407616270E+04  0.90562264536E+03 0.  0.
         23    2    4    4    0    0  0.72615142008E+03  0.10328463266E+03  0.11653237052E+03  0.74828694624E+03  0.91596726492E+02 0.  0.
         23    2    4    4    0    0 -0.22735866194E+03 -0.15999174278E+03 -0.11544387631E+02  0.29247468077E+03  0.90104645207E+02 0.  0.
          2    1    3    3  502    0 -0.34828592035E+03  0.10112524418E+02  0.42846984655E+03  0.55226058601E+03  0.00000000000E+00 0. -1.
         -1    1    3    3    0  502 -0.15050683779E+03  0.46594585697E+02  0.24877526560E+03  0.29446985654E+03  0.00000000000E+00 0.  1.
         13    1    5    5    0    0  0.32076992034E+03  0.39999002791E+02  0.97152116083E+02  0.33753784333E+03  0.00000000000E+00 0. -1.
        -13    1    5    5    0    0  0.40538149974E+03  0.63285629872E+02  0.19380254435E+02  0.41074910291E+03  0.00000000000E+00 0.  1.
          1    1    6    6  503    0 -0.50329227968E+02 -0.21869438742E+02 -0.37466223127E+02  0.66445627502E+02  0.00000000000E+00 0. -1.
         -1    1    6    6    0  503 -0.17702943397E+03 -0.13812230404E+03  0.25921835495E+02  0.22602905327E+03  0.00000000000E+00 0.  1.
<mgrwt>
<rscale>  0 0.17177711E+04</rscale>
<asrwt>0</asrwt>
<pdfrwt beam="1">  1        4 0.20536347E+00 0.17177711E+04</pdfrwt>
<pdfrwt beam="2">  1       -3 0.85019921E-01 0.17177711E+04</pdfrwt>
<totfact> 0.33409860E-01</totfact>
</mgrwt>
</event>
<event>
12    7  0.1741211E-007  0.1802360E+04  0.7818608E-02  0.8705045E-01
         -1   -1    0    0    0  501 -0.00000000000E+00  0.00000000000E+00  0.11136143311E+04  0.11136143311E+04  0.00000000000E+00 0.  1.
          2   -1    0    0  501    0  0.00000000000E+00 -0.00000000000E+00 -0.72927003689E+03  0.72927003689E+03  0.00000000000E+00 0. -1.
         24    2    1    2    0    0  0.58455622009E+03 -0.26626609648E+03  0.35454250571E+03  0.73862174830E+03  0.85194425428E+02 0.  0.
        254    2    1    2    0    0 -0.58455622009E+03  0.26626609648E+03  0.29801788550E+02  0.11042626197E+04  0.89772165962E+03 0.  0.
         23    2    4    4    0    0 -0.33757242967E+03  0.16853024911E+03  0.45277244615E+03  0.59634575542E+03  0.90927343950E+02 0.  0.
         23    2    4    4    0    0 -0.24698379042E+03  0.97735847366E+02 -0.42297065760E+03  0.50791686431E+03  0.92315086906E+02 0.  0.
          2    1    3    3  502    0  0.27975251393E+03 -0.12786908998E+03  0.12139290175E+03  0.33067840846E+03  0.00000000000E+00 0. -1.
         -1    1    3    3    0  502  0.30480370616E+03 -0.13839700650E+03  0.23314960396E+03  0.40794333984E+03  0.00000000000E+00 0.  1.
         13    1    5    5    0    0 -0.27004102705E+03  0.16491237572E+03  0.33696400479E+03  0.46223693976E+03  0.00000000000E+00 0.  1.
        -13    1    5    5    0    0 -0.67531402628E+02  0.36178733926E+01  0.11580844136E+03  0.13410881567E+03  0.00000000000E+00 0. -1.
          3    1    6    6  503    0  0.33450839439E+01  0.17588172241E+02 -0.34650407883E+02  0.39002360900E+02  0.00000000000E+00 0. -1.
         -3    1    6    6    0  503 -0.25032887437E+03  0.80147675125E+02 -0.38832024971E+03  0.46891450341E+03  0.00000000000E+00 0.  1.
<mgrwt>
<rscale>  0 0.18023602E+04</rscale>
<asrwt>0</asrwt>
<pdfrwt beam="1">  1        2 0.11219539E+00 0.18023602E+04</pdfrwt>
<pdfrwt beam="2">  1       -1 0.17132528E+00 0.18023602E+04</pdfrwt>
<totfact> 0.10082044E+01</totfact>
</mgrwt>
</event>
<event>
12    7  0.1741211E-007  0.1368426E+04  0.7818608E-02  0.8976996E-01
          2   -1    0    0  501    0  0.00000000000E+00  0.00000000000E+00  0.12780557870E+04  0.12780557870E+04  0.00000000000E+00 0. -1.
         -1   -1    0    0    0  501 -0.00000000000E+00 -0.00000000000E+00 -0.36629653536E+03  0.36629653536E+03  0.00000000000E+00 0.  1.
         24    2    1    2    0    0 -0.25427696023E+03  0.17469762038E+03  0.52623679942E+03  0.61522409648E+03  0.79996804672E+02 0.  0.
        254    2    1    2    0    0  0.25427696023E+03 -0.17469762038E+03  0.38552245220E+03  0.10291282259E+04  0.90294037071E+03 0.  0.
         23    2    4    4    0    0 -0.11548019156E+02  0.26452042877E+03 -0.11730842426E+03  0.30421180058E+03  0.93161897941E+02 0.  0.
         23    2    4    4    0    0  0.26582497939E+03 -0.43921804914E+03  0.50283087646E+03  0.72491642529E+03  0.95338968805E+02 0.  0.
          4    1    3    3  502    0 -0.25296335698E+03  0.15052029473E+03  0.48124733781E+03  0.56413280285E+03  0.00000000000E+00 0. -1.
         -3    1    3    3    0  502 -0.13136032456E+01  0.24177325644E+02  0.44989461618E+02  0.51091293636E+02  0.00000000000E+00 0.  1.
         13    1    5    5    0    0  0.16441171615E+02  0.23992270058E+01 -0.30004138735E+01  0.16884042694E+02  0.00000000000E+00 0.  1.
        -13    1    5    5    0    0 -0.27989190770E+02  0.26212120176E+03 -0.11430801038E+03  0.28732775788E+03  0.00000000000E+00 0. -1.
          2    1    6    6  503    0  0.21172148521E+03 -0.26821236845E+03  0.30701013631E+03  0.45936813743E+03  0.00000000000E+00 0. -1.
         -2    1    6    6    0  503  0.54103494175E+02 -0.17100568069E+03  0.19582074015E+03  0.26554828786E+03  0.00000000000E+00 0.  1.
<mgrwt>
<rscale>  0 0.13684260E+04</rscale>
<asrwt>0</asrwt>
<pdfrwt beam="1">  1        2 0.19662397E+00 0.13684260E+04</pdfrwt>
<pdfrwt beam="2">  1       -1 0.56353314E-01 0.13684260E+04</pdfrwt>
<totfact> 0.60332232E+01</totfact>
</mgrwt>
</event>
<event>
12    7  0.1741211E-007  0.1291420E+04  0.7818608E-02  0.9036397E-01
          2   -1    0    0  501    0  0.00000000000E+00  0.00000000000E+00  0.20694820315E+04  0.20694820315E+04  0.00000000000E+00 0. -1.
         -3   -1    0    0    0  501 -0.00000000000E+00 -0.00000000000E+00 -0.20147152440E+03  0.20147152440E+03  0.00000000000E+00 0.  1.
         24    2    1    2    0    0 -0.31474899160E+03 -0.38793181236E+02  0.33458166985E+03  0.46746086469E+03  0.77478562128E+02 0.  0.
        254    2    1    2    0    0  0.31474899160E+03  0.38793181236E+02  0.15334288372E+04  0.18034926912E+04  0.89476815418E+03 0.  0.
         23    2    4    4    0    0  0.21469103584E+03  0.18107153988E+03  0.15753392659E+04  0.16030909814E+04  0.96580269940E+02 0.  0.
         23    2    4    4    0    0  0.10005795576E+03 -0.14227835864E+03 -0.41910428745E+02  0.20040170973E+03  0.90275330938E+02 0.  0.
          4    1    3    3  502    0 -0.24771788334E+03 -0.36417969433E+02  0.30374495171E+03  0.39363868447E+03  0.00000000000E+00 0. -1.
         -3    1    3    3    0  502 -0.67031108261E+02 -0.23752118025E+01  0.30836718140E+02  0.73822180213E+02  0.00000000000E+00 0.  1.
         13    1    5    5    0    0  0.86136145262E+02  0.77079713186E+02  0.40651546881E+03  0.42262932232E+03  0.00000000000E+00 0. -1.
        -13    1    5    5    0    0  0.12855489058E+03  0.10399182669E+03  0.11688237971E+04  0.11804616591E+04  0.00000000000E+00 0.  1.
          1    1    6    6  503    0  0.20171789519E+02 -0.65748999497E+02  0.22534693547E+02  0.72371572046E+02  0.00000000000E+00 0. -1.
         -1    1    6    6    0  503  0.79886166240E+02 -0.76529359146E+02 -0.64445122292E+02  0.12803013768E+03  0.00000000000E+00 0.  1.
<mgrwt>
<rscale>  0 0.12914205E+04</rscale>
<asrwt>0</asrwt>
<pdfrwt beam="1">  1        2 0.31838184E+00 0.12914205E+04</pdfrwt>
<pdfrwt beam="2">  1       -3 0.30995621E-01 0.12914205E+04</pdfrwt>
<totfact> 0.39561781E+01</totfact>
</mgrwt>
</event>
<event>
12    7  0.1741211E-007  0.3271756E+04  0.7818608E-02  0.8170119E-01
         -1   -1    0    0    0  501 -0.00000000000E+00  0.00000000000E+00  0.10249051526E+04  0.10249051526E+04  0.00000000000E+00 0.  1.
          2   -1    0    0  501    0  0.00000000000E+00 -0.00000000000E+00 -0.26110682258E+04  0.26110682258E+04  0.00000000000E+00 0. -1.
         24    2    1    2    0    0 -0.36545888939E+03 -0.47922143114E+03 -0.22780166466E+04  0.23577272765E+04  0.79402067942E+02 0.  0.
        254    2    1    2    0    0  0.36545888939E+03  0.47922143114E+03  0.69185357331E+03  0.12782461020E+04  0.88996536470E+03 0.  0.
         23    2    4    4    0    0  0.11464355144E+03  0.28591284865E+03 -0.16535647245E+03  0.36002610340E+03  0.85946094960E+02 0.  0.
         23    2    4    4    0    0  0.25081533795E+03  0.19330858249E+03  0.85721004576E+03  0.91821999855E+03  0.89679213706E+02 0.  0.
          2    1    3    3  502    0 -0.32938333699E+03 -0.38327174408E+03 -0.18990558473E+04  0.19651472524E+04  0.00000000000E+00 0. -1.
         -1    1    3    3    0  502 -0.36075552399E+02 -0.95949687066E+02 -0.37896079930E+03  0.39258002412E+03  0.00000000000E+00 0.  1.
         13    1    5    5    0    0  0.76418143297E+02  0.13023901134E+03 -0.39117944807E+02  0.15598764793E+03  0.00000000000E+00 0. -1.
        -13    1    5    5    0    0  0.38225408142E+02  0.15567383731E+03 -0.12623852765E+03  0.20403845548E+03  0.00000000000E+00 0.  1.
          4    1    6    6  503    0  0.20399594276E+03  0.19504559782E+03  0.73950441091E+03  0.79153262955E+03  0.00000000000E+00 0. -1.
         -4    1    6    6    0  503  0.46819395187E+02 -0.17370153297E+01  0.11770563485E+03  0.12668736900E+03  0.00000000000E+00 0.  1.
<mgrwt>
<rscale>  0 0.32717563E+04</rscale>
<asrwt>0</asrwt>
<pdfrwt beam="1">  1        2 0.40170280E+00 0.32717563E+04</pdfrwt>
<pdfrwt beam="2">  1       -1 0.15767772E+00 0.32717563E+04</pdfrwt>
<totfact> 0.86774076E-01</totfact>
</mgrwt>
</event>
<event>
12    7  0.1741211E-007  0.1580878E+04  0.7818608E-02  0.8832382E-01
         -1   -1    0    0    0  501 -0.00000000000E+00  0.00000000000E+00  0.32380949521E+03  0.32380949521E+03  0.00000000000E+00 0.  1.
          2   -1    0    0  501    0  0.00000000000E+00 -0.00000000000E+00 -0.19295098811E+04  0.19295098811E+04  0.00000000000E+00 0. -1.
         24    2    1    2    0    0  0.23765313741E+03  0.33891658495E+03 -0.64968042273E+02  0.42672730328E+03  0.80820044370E+02 0.  0.
        254    2    1    2    0    0 -0.23765313741E+03 -0.33891658495E+03 -0.15407323436E+04  0.18265920730E+04  0.88951615012E+03 0.  0.
         23    2    4    4    0    0 -0.44205678993E+03 -0.51444221947E+03 -0.12132119041E+04  0.13926927677E+04  0.87435795288E+02 0.  0.
         23    2    4    4    0    0  0.20440365252E+03  0.17552563452E+03 -0.32752043950E+03  0.43389930530E+03  0.91699876311E+02 0.  0.
          2    1    3    3  502    0  0.10673314122E+03  0.90664623959E+02 -0.74856091550E+01  0.14024290291E+03  0.00000000000E+00 0. -1.
         -1    1    3    3    0  502  0.13091999620E+03  0.24825196099E+03 -0.57482433118E+02  0.28648440037E+03  0.00000000000E+00 0.  1.
         13    1    5    5    0    0  0.70724580025E+00 -0.11794969796E+02 -0.95356949959E+01  0.15183905563E+02  0.00000000000E+00 0. -1.
        -13    1    5    5    0    0 -0.44276403573E+03 -0.50264724967E+03 -0.12036762091E+04  0.13775088622E+04  0.00000000000E+00 0.  1.
          2    1    6    6  503    0  0.31949026495E+02 -0.75968809347E+01 -0.43463052035E+02  0.54474671051E+02  0.00000000000E+00 0. -1.
         -2    1    6    6    0  503  0.17245462602E+03  0.18312251546E+03 -0.28405738746E+03  0.37942463425E+03  0.00000000000E+00 0.  1.
<mgrwt>
<rscale>  0 0.15808778E+04</rscale>
<asrwt>0</asrwt>
<pdfrwt beam="1">  1        2 0.29684767E+00 0.15808778E+04</pdfrwt>
<pdfrwt beam="2">  1       -1 0.49816846E-01 0.15808778E+04</pdfrwt>
<totfact> 0.32335769E+01</totfact>
</mgrwt>
</event>
<event>
12    7  0.1741211E-007  0.1589221E+04  0.7818608E-02  0.8827198E-01
         -1   -1    0    0    0  501 -0.00000000000E+00  0.00000000000E+00  0.36988638530E+03  0.36988638530E+03  0.00000000000E+00 0.  1.
          2   -1    0    0  501    0  0.00000000000E+00 -0.00000000000E+00 -0.17070256633E+04  0.17070256633E+04  0.00000000000E+00 0. -1.
         24    2    1    2    0    0  0.14422659626E+03 -0.42798215750E+03 -0.84787260433E+02  0.46664712089E+03  0.81244185627E+02 0.  0.
        254    2    1    2    0    0 -0.14422659626E+03  0.42798215750E+03 -0.12523520175E+04  0.16102649277E+04  0.90586838078E+03 0.  0.
         23    2    4    4    0    0  0.75564406883E+02  0.66203831652E+03 -0.91478758962E+03  0.11358219367E+04  0.96179132788E+02 0.  0.
         23    2    4    4    0    0 -0.21979100315E+03 -0.23405615902E+03 -0.33756442791E+03  0.47444299100E+03  0.89755434829E+02 0.  0.
          4    1    3    3  502    0  0.74657261647E+01 -0.12666529641E+03 -0.91690645450E+01  0.12721598219E+03  0.00000000000E+00 0. -1.
         -3    1    3    3    0  502  0.13676087010E+03 -0.30131686109E+03 -0.75618195888E+02  0.33943113870E+03  0.00000000000E+00 0.  1.
         13    1    5    5    0    0  0.32761809064E+02  0.58391541620E+02 -0.11207090332E+03  0.13054805872E+03  0.00000000000E+00 0. -1.
        -13    1    5    5    0    0  0.42802597819E+02  0.60364677490E+03 -0.80271668630E+03  0.10052738780E+04  0.00000000000E+00 0.  1.
          2    1    6    6  503    0 -0.60317344036E+02 -0.77181655530E+02 -0.49592563704E+02  0.10979349852E+03  0.00000000000E+00 0. -1.
         -2    1    6    6    0  503 -0.15947365911E+03 -0.15687450349E+03 -0.28797186420E+03  0.36464949248E+03  0.00000000000E+00 0.  1.
<mgrwt>
<rscale>  0 0.15892206E+04</rscale>
<asrwt>0</asrwt>
<pdfrwt beam="1">  1        2 0.26261933E+00 0.15892206E+04</pdfrwt>
<pdfrwt beam="2">  1       -1 0.56905599E-01 0.15892206E+04</pdfrwt>
<totfact> 0.33219155E+01</totfact>
</mgrwt>
</event>
<event>
12    7  0.1741211E-007  0.1471761E+04  0.7818608E-02  0.8903452E-01
         -1   -1    0    0    0  501 -0.00000000000E+00  0.00000000000E+00  0.97011035426E+03  0.97011035426E+03  0.00000000000E+00 0.  1.
          2   -1    0    0  501    0  0.00000000000E+00 -0.00000000000E+00 -0.55820482343E+03  0.55820482343E+03  0.00000000000E+00 0. -1.
         24    2    1    2    0    0  0.22224686985E+03  0.32562670338E+03  0.37280788172E+03  0.54862068395E+03  0.81071061907E+02 0.  0.
        254    2    1    2    0    0 -0.22224686985E+03 -0.32562670338E+03  0.39097649113E+02  0.97969449373E+03  0.89601688253E+03 0.  0.
         23    2    4    4    0    0 -0.36591292488E+03  0.69102779424E+02 -0.25348730447E+03  0.45966584566E+03  0.91484498224E+02 0.  0.
         23    2    4    4    0    0  0.14366605503E+03 -0.39472948280E+03  0.29258495358E+03  0.52002864808E+03  0.91501583561E+02 0.  0.
          2    1    3    3  502    0  0.80812285353E+02  0.71160045175E+02  0.13517456289E+03  0.17281938533E+03  0.00000000000E+00 0. -1.
         -1    1    3    3    0  502  0.14143458450E+03  0.25446665820E+03  0.23763331882E+03  0.37580129862E+03  0.00000000000E+00 0.  1.
         13    1    5    5    0    0 -0.35582769238E+03  0.55188156793E+02 -0.21984839310E+03  0.42189144962E+03  0.00000000000E+00 0. -1.
        -13    1    5    5    0    0 -0.10085232500E+02  0.13914622631E+02 -0.33638911370E+02  0.37774396033E+02  0.00000000000E+00 0.  1.
          1    1    6    6  503    0  0.95308749787E+02 -0.13947984542E+03  0.13434438774E+03  0.21583975441E+03  0.00000000000E+00 0. -1.
         -1    1    6    6    0  503  0.48357305245E+02 -0.25524963738E+03  0.15824056584E+03  0.30418889367E+03  0.00000000000E+00 0.  1.
<mgrwt>
<rscale>  0 0.14717612E+04</rscale>
<asrwt>0</asrwt>
<pdfrwt beam="1">  1        2 0.85877665E-01 0.14717612E+04</pdfrwt>
<pdfrwt beam="2">  1       -1 0.14924775E+00 0.14717612E+04</pdfrwt>
<totfact> 0.21171501E+01</totfact>
</mgrwt>
</event>
<event>
12    7  0.1741211E-007  0.2503755E+04  0.7818608E-02  0.8401649E-01
          2   -1    0    0  501    0  0.00000000000E+00  0.00000000000E+00  0.28373827918E+04  0.28373827918E+04  0.00000000000E+00 0. -1.
         -1   -1    0    0    0  501 -0.00000000000E+00 -0.00000000000E+00 -0.55233914137E+03  0.55233914137E+03  0.00000000000E+00 0.  1.
         24    2    1    2    0    0  0.41101074773E+03 -0.54550169752E+03 -0.15096185722E+03  0.70391803219E+03  0.78798330989E+02 0.  0.
        254    2    1    2    0    0 -0.41101074773E+03  0.54550169752E+03  0.24360055076E+04  0.26858039009E+04  0.90161955635E+03 0.  0.
         23    2    4    4    0    0 -0.23068506307E+03  0.57396712439E+03  0.23969848976E+04  0.24772645353E+04  0.93000644556E+02 0.  0.
         23    2    4    4    0    0 -0.18032568466E+03 -0.28465426869E+02  0.39020609963E+02  0.20853936567E+03  0.92943132933E+02 0.  0.
          4    1    3    3  502    0  0.22342230389E+02 -0.20888997004E+02  0.86556348509E+01  0.31787504923E+02  0.00000000000E+00 0. -1.
         -3    1    3    3    0  502  0.38866851734E+03 -0.52461270051E+03 -0.15961749207E+03  0.67213052727E+03  0.00000000000E+00 0.  1.
         13    1    5    5    0    0 -0.14545072044E+03  0.30220086753E+03  0.11335552889E+04  0.11821289564E+04  0.00000000000E+00 0. -1.
        -13    1    5    5    0    0 -0.85234342634E+02  0.27176625686E+03  0.12634296087E+04  0.12951355789E+04  0.00000000000E+00 0.  1.
          2    1    6    6  503    0  0.29009543047E+01 -0.20776547141E+02 -0.31420584006E+00  0.20980447380E+02  0.00000000000E+00 0. -1.
         -2    1    6    6    0  503 -0.18322663896E+03 -0.76888797283E+01  0.39334815803E+02  0.18755891829E+03  0.00000000000E+00 0.  1.
<mgrwt>
<rscale>  0 0.25037552E+04</rscale>
<asrwt>0</asrwt>
<pdfrwt beam="1">  1        2 0.43652042E+00 0.25037552E+04</pdfrwt>
<pdfrwt beam="2">  1       -1 0.84975254E-01 0.25037552E+04</pdfrwt>
<totfact> 0.30484526E+00</totfact>
</mgrwt>
</event>
<event>
12    7  0.1741211E-007  0.3477107E+04  0.7818608E-02  0.8119237E-01
          2   -1    0    0  501    0  0.00000000000E+00  0.00000000000E+00  0.19134776630E+04  0.19134776630E+04  0.00000000000E+00 0. -1.
         -1   -1    0    0    0  501 -0.00000000000E+00 -0.00000000000E+00 -0.15796202145E+04  0.15796202145E+04  0.00000000000E+00 0.  1.
         24    2    1    2    0    0 -0.14430777494E+03 -0.14549487964E+04 -0.54387969026E+03  0.15619488907E+04  0.78603343028E+02 0.  0.
        254    2    1    2    0    0  0.14430777494E+03  0.14549487964E+04  0.87773713872E+03  0.19311489868E+04  0.90620813859E+03 0.  0.
         23    2    4    4    0    0  0.60068399709E+02  0.15341721646E+04  0.89496921062E+03  0.17795228017E+04  0.91864413324E+02 0.  0.
         23    2    4    4    0    0  0.84239375230E+02 -0.79223368212E+02 -0.17232071898E+02  0.15162618511E+03  0.96545022136E+02 0.  0.
          2    1    3    3  502    0 -0.97680713957E+02 -0.60190668484E+03 -0.23563518814E+03  0.65372557012E+03  0.00000000000E+00 0. -1.
         -1    1    3    3    0  502 -0.46627060981E+02 -0.85304211156E+03 -0.30824450212E+03  0.90822332056E+03  0.00000000000E+00 0.  1.
         13    1    5    5    0    0  0.29447272019E+02  0.11932547515E+03  0.73274269864E+02  0.14309028434E+03  0.00000000000E+00 0. -1.
        -13    1    5    5    0    0  0.30621127690E+02  0.14148466895E+04  0.82169494076E+03  0.16364325173E+04  0.00000000000E+00 0.  1.
          3    1    6    6  503    0 -0.19902607490E+02 -0.33827261243E+01  0.52240028460E+01  0.20852981242E+02  0.00000000000E+00 0. -1.
         -3    1    6    6    0  503  0.10414198272E+03 -0.75840642088E+02 -0.22456074744E+02  0.13077320387E+03  0.00000000000E+00 0.  1.
<mgrwt>
<rscale>  0 0.34771068E+04</rscale>
<asrwt>0</asrwt>
<pdfrwt beam="1">  1        2 0.29438118E+00 0.34771068E+04</pdfrwt>
<pdfrwt beam="2">  1       -1 0.24301850E+00 0.34771068E+04</pdfrwt>
<totfact> 0.54145831E-01</totfact>
</mgrwt>
</event>
<event>
12    7  0.1741211E-007  0.1333914E+04  0.7818608E-02  0.9003095E-01
          2   -1    0    0  501    0  0.00000000000E+00  0.00000000000E+00  0.79148754709E+03  0.79148754709E+03  0.00000000000E+00 0. -1.
         -1   -1    0    0    0  501 -0.00000000000E+00 -0.00000000000E+00 -0.56201993095E+03  0.56201993095E+03  0.00000000000E+00 0.  1.
         24    2    1    2    0    0 -0.17730294214E+03  0.13262440779E+03 -0.62821154175E+02  0.24482475771E+03  0.83469142451E+02 0.  0.
        254    2    1    2    0    0  0.17730294214E+03 -0.13262440779E+03  0.29228877031E+03  0.11086827203E+04  0.10462882405E+04 0.  0.
         23    2    4    4    0    0  0.27181240426E+03  0.18427399931E+03  0.57155922457E+03  0.66620874805E+03  0.96515588660E+02 0.  0.
         23    2    4    4    0    0 -0.94509462125E+02 -0.31689840709E+03 -0.27927045426E+03  0.44247397229E+03  0.91840027656E+02 0.  0.
          4    1    3    3  502    0 -0.10174824390E+03  0.86515281249E+02  0.44778076352E+01  0.13363251770E+03  0.00000000000E+00 0. -1.
         -3    1    3    3    0  502 -0.75554698238E+02  0.46109126539E+02 -0.67298961810E+02  0.11119224000E+03  0.00000000000E+00 0.  1.
         13    1    5    5    0    0  0.10977505181E+03  0.23121836142E+02  0.21899338949E+03  0.24605545299E+03  0.00000000000E+00 0. -1.
        -13    1    5    5    0    0  0.16203735245E+03  0.16115216316E+03  0.35256583508E+03  0.42015329506E+03  0.00000000000E+00 0.  1.
          3    1    6    6  503    0 -0.29229278948E+01 -0.14333505461E+01 -0.29836456292E+02  0.30013532370E+02  0.00000000000E+00 0. -1.
         -3    1    6    6    0  503 -0.91586534230E+02 -0.31546505655E+03 -0.24943399797E+03  0.41246043992E+03  0.00000000000E+00 0.  1.
<mgrwt>
<rscale>  0 0.13339142E+04</rscale>
<asrwt>0</asrwt>
<pdfrwt beam="1">  1        2 0.12176732E+00 0.13339142E+04</pdfrwt>
<pdfrwt beam="2">  1       -1 0.86464604E-01 0.13339142E+04</pdfrwt>
<totfact> 0.51480475E+01</totfact>
</mgrwt>
</event>
<event>
12    7  0.1741211E-007  0.2462259E+04  0.7818608E-02  0.8416556E-01
         -1   -1    0    0    0  501 -0.00000000000E+00  0.00000000000E+00  0.49990950644E+03  0.49990950644E+03  0.00000000000E+00 0.  1.
          2   -1    0    0  501    0  0.00000000000E+00 -0.00000000000E+00 -0.30319082782E+04  0.30319082782E+04  0.00000000000E+00 0. -1.
         24    2    1    2    0    0  0.77030845842E+03 -0.63834035305E+03 -0.56950587863E+03  0.11539335251E+04  0.79825478479E+02 0.  0.
        254    2    1    2    0    0 -0.77030845842E+03  0.63834035305E+03 -0.19624928932E+04  0.23778842596E+04  0.89560128904E+03 0.  0.
         23    2    4    4    0    0 -0.23651815078E+02  0.49316797048E+03 -0.11821719731E+04  0.12843204934E+04  0.90412943369E+02 0.  0.
         23    2    4    4    0    0 -0.74665664334E+03  0.14517238257E+03 -0.78032092009E+03  0.10935637662E+04  0.91705009472E+02 0.  0.
          2    1    3    3  502    0  0.32258696003E+03 -0.29111349632E+03 -0.28769692334E+03  0.52113235768E+03  0.00000000000E+00 0. -1.
         -3    1    3    3    0  502  0.44772149840E+03 -0.34722685673E+03 -0.28180895530E+03  0.63280116739E+03  0.00000000000E+00 0.  1.
         13    1    5    5    0    0 -0.15944579171E+02  0.34069296810E+03 -0.70210343137E+03  0.78056079613E+03  0.00000000000E+00 0.  1.
        -13    1    5    5    0    0 -0.77072359068E+01  0.15247500238E+03 -0.48006854172E+03  0.50375969726E+03  0.00000000000E+00 0. -1.
          2    1    6    6  503    0 -0.14477950291E+02  0.87745704282E+01 -0.32964307428E+01  0.17247335634E+02  0.00000000000E+00 0. -1.
         -2    1    6    6    0  503 -0.73217869305E+03  0.13639781214E+03 -0.77702448935E+03  0.10763164306E+04  0.00000000000E+00 0.  1.
<mgrwt>
<rscale>  0 0.24622589E+04</rscale>
<asrwt>0</asrwt>
<pdfrwt beam="1">  1        2 0.46644743E+00 0.24622589E+04</pdfrwt>
<pdfrwt beam="2">  1       -1 0.76909155E-01 0.24622589E+04</pdfrwt>
<totfact> 0.28696512E+00</totfact>
</mgrwt>
</event>
<event>
12    7  0.1741211E-007  0.1633562E+04  0.7818608E-02  0.8800191E-01
          2   -1    0    0  501    0  0.00000000000E+00  0.00000000000E+00  0.34773977941E+04  0.34773977941E+04  0.00000000000E+00 0. -1.
         -1   -1    0    0    0  501 -0.00000000000E+00 -0.00000000000E+00 -0.19184791226E+03  0.19184791226E+03  0.00000000000E+00 0.  1.
         24    2    1    2    0    0  0.33173994457E+03 -0.26596691822E+03  0.31586785180E+03  0.53571804566E+03  0.80196834314E+02 0.  0.
        254    2    1    2    0    0 -0.33173994457E+03  0.26596691822E+03  0.29696820300E+04  0.31335276607E+04  0.90509361310E+03 0.  0.
         23    2    4    4    0    0  0.75394894038E+02 -0.28400904058E+03  0.83579492777E+03  0.89070104033E+03  0.91922014662E+02 0.  0.
         23    2    4    4    0    0 -0.40713483861E+03  0.54997595880E+03  0.21338871023E+04  0.22428266204E+04  0.92545944131E+02 0.  0.
          4    1    3    3  502    0  0.78737805953E+02 -0.69504491195E+02  0.38066673783E+02  0.11171207650E+03  0.00000000000E+00 0. -1.
         -3    1    3    3    0  502  0.25300213862E+03 -0.19646242702E+03  0.27780117801E+03  0.42400596916E+03  0.00000000000E+00 0.  1.
         13    1    5    5    0    0  0.28027714495E+02 -0.12404614401E+03  0.23536145258E+03  0.26752198411E+03  0.00000000000E+00 0. -1.
        -13    1    5    5    0    0  0.47367179543E+02 -0.15996289657E+03  0.60043347519E+03  0.62317905622E+03  0.00000000000E+00 0.  1.
          1    1    6    6  503    0 -0.18304241850E+03  0.17485218517E+03  0.82020600283E+03  0.85837969495E+03  0.00000000000E+00 0. -1.
         -1    1    6    6    0  503 -0.22409242011E+03  0.37512377363E+03  0.13136810994E+04  0.13844469254E+04  0.00000000000E+00 0.  1.
<mgrwt>
<rscale>  0 0.16335624E+04</rscale>
<asrwt>0</asrwt>
<pdfrwt beam="1">  1        2 0.53498423E+00 0.16335624E+04</pdfrwt>
<pdfrwt beam="2">  1       -1 0.29515066E-01 0.16335624E+04</pdfrwt>
<totfact> 0.97463643E+00</totfact>
</mgrwt>
</event>
<event>
12    7  0.1741211E-007  0.1552951E+04  0.7818608E-02  0.8849985E-01
          2   -1    0    0  501    0  0.00000000000E+00  0.00000000000E+00  0.17590505024E+04  0.17590505024E+04  0.00000000000E+00 0. -1.
         -1   -1    0    0    0  501 -0.00000000000E+00 -0.00000000000E+00 -0.34274994733E+03  0.34274994733E+03  0.00000000000E+00 0.  1.
         24    2    1    2    0    0  0.38246141680E+02  0.14414052703E+03  0.11412849553E+04  0.11537583703E+04  0.79923519395E+02 0.  0.
        254    2    1    2    0    0 -0.38246141680E+02 -0.14414052703E+03  0.27501559971E+03  0.94804207938E+03  0.89493628002E+03 0.  0.
         23    2    4    4    0    0 -0.31980852745E+03 -0.15439681424E+03 -0.17704827224E+03  0.40776774345E+03  0.93875297161E+02 0.  0.
         23    2    4    4    0    0  0.28156238577E+03  0.10256287211E+02  0.45206387195E+03  0.54027433593E+03  0.90288677199E+02 0.  0.
          4    1    3    3  502    0  0.53209718144E+02  0.14251423176E+03  0.97532206239E+03  0.98711433266E+03  0.00000000000E+00 0. -1.
         -3    1    3    3    0  502 -0.14963576464E+02  0.16262952679E+01  0.16596289293E+03  0.16664403766E+03  0.00000000000E+00 0.  1.
         13    1    5    5    0    0 -0.26332846426E+02 -0.39052222354E+02 -0.20761831066E+01  0.47146637292E+02  0.00000000000E+00 0.  1.
        -13    1    5    5    0    0 -0.29347568102E+03 -0.11534459189E+03 -0.17497208914E+03  0.36062110616E+03  0.00000000000E+00 0. -1.
          1    1    6    6  503    0  0.18733640930E+03  0.49515064525E+02  0.29870806321E+03  0.35605221372E+03  0.00000000000E+00 0. -1.
         -1    1    6    6    0  503  0.94225976467E+02 -0.39258777314E+02  0.15335580874E+03  0.18422212221E+03  0.00000000000E+00 0.  1.
<mgrwt>
<rscale>  0 0.15529513E+04</rscale>
<asrwt>0</asrwt>
<pdfrwt beam="1">  1        2 0.27062315E+00 0.15529513E+04</pdfrwt>
<pdfrwt beam="2">  1       -1 0.52730762E-01 0.15529513E+04</pdfrwt>
<totfact> 0.36133891E+01</totfact>
</mgrwt>
</event>
<event>
12    7  0.1741211E-007  0.1209893E+04  0.7818608E-02  0.9104241E-01
          2   -1    0    0  501    0  0.00000000000E+00  0.00000000000E+00  0.15487848011E+04  0.15487848011E+04  0.00000000000E+00 0. -1.
         -1   -1    0    0    0  501 -0.00000000000E+00 -0.00000000000E+00 -0.23628876419E+03  0.23628876419E+03  0.00000000000E+00 0.  1.
         24    2    1    2    0    0  0.21314472749E+03 -0.11346336108E+03  0.43362559584E+03  0.50308146759E+03  0.82190002445E+02 0.  0.
        254    2    1    2    0    0 -0.21314472749E+03  0.11346336108E+03  0.87887044104E+03  0.12819920977E+04  0.90154638106E+03 0.  0.
         23    2    4    4    0    0 -0.21059546730E+02 -0.35548322324E+03  0.58062043025E+03  0.68683924338E+03  0.88409477468E+02 0.  0.
         23    2    4    4    0    0 -0.19208518076E+03  0.46894658432E+03  0.29825001079E+03  0.59515285430E+03  0.91903402718E+02 0.  0.
          2    1    3    3  502    0  0.52771446729E+02  0.83294909378E+01  0.10052706620E+03  0.11384154359E+03  0.00000000000E+00 0. -1.
         -1    1    3    3    0  502  0.16037328077E+03 -0.12179285202E+03  0.33309852964E+03  0.38923992400E+03  0.00000000000E+00 0.  1.
         13    1    5    5    0    0  0.21883166860E+02 -0.24301731533E+03  0.42535438380E+03  0.49036990157E+03  0.00000000000E+00 0.  1.
        -13    1    5    5    0    0 -0.42942713590E+02 -0.11246590790E+03  0.15526604645E+03  0.19646934181E+03  0.00000000000E+00 0. -1.
          4    1    6    6  503    0  0.68676984526E+01  0.56151715035E+02  0.27428140938E+02  0.62868778410E+02  0.00000000000E+00 0. -1.
         -4    1    6    6    0  503 -0.19895287922E+03  0.41279486928E+03  0.27082186986E+03  0.53228407589E+03  0.00000000000E+00 0.  1.
<mgrwt>
<rscale>  0 0.12098933E+04</rscale>
<asrwt>0</asrwt>
<pdfrwt beam="1">  1        2 0.23827458E+00 0.12098933E+04</pdfrwt>
<pdfrwt beam="2">  1       -1 0.36352118E-01 0.12098933E+04</pdfrwt>
<totfact> 0.96987210E+01</totfact>
</mgrwt>
</event>
<event>
12    7  0.1741211E-007  0.2139488E+04  0.7818608E-02  0.8544045E-01
         -1   -1    0    0    0  501 -0.00000000000E+00  0.00000000000E+00  0.10734962552E+04  0.10734962552E+04  0.00000000000E+00 0.  1.
          2   -1    0    0  501    0  0.00000000000E+00 -0.00000000000E+00 -0.10660053517E+04  0.10660053517E+04  0.00000000000E+00 0. -1.
         24    2    1    2    0    0 -0.38190409866E+03  0.37586571436E+03  0.70317904203E+03  0.88769114359E+03  0.80056389238E+02 0.  0.
        254    2    1    2    0    0  0.38190409866E+03 -0.37586571436E+03 -0.69568813857E+03  0.12518104633E+04  0.89214442443E+03 0.  0.
         23    2    4    4    0    0  0.45940263273E+02 -0.78259098389E+02  0.20449467657E+03  0.24195268512E+03  0.92130531428E+02 0.  0.
         23    2    4    4    0    0  0.33596383539E+03 -0.29760661597E+03 -0.90018281514E+03  0.10098577782E+04  0.89678508532E+02 0.  0.
          4    1    3    3  502    0 -0.24828528767E+03  0.23831149084E+03  0.51194176095E+03  0.61686491012E+03  0.00000000000E+00 0. -1.
         -3    1    3    3    0  502 -0.13361881099E+03  0.13755422352E+03  0.19123728108E+03  0.27082623347E+03  0.00000000000E+00 0.  1.
         13    1    5    5    0    0  0.22282622467E+02 -0.96450094279E+02  0.14787821228E+03  0.17795252631E+03  0.00000000000E+00 0. -1.
        -13    1    5    5    0    0  0.23657640806E+02  0.18190995890E+02  0.56616464287E+02  0.64000158815E+02  0.00000000000E+00 0.  1.
          2    1    6    6  503    0  0.23400641244E+03 -0.25434493709E+03 -0.71329794918E+03  0.79261864247E+03  0.00000000000E+00 0. -1.
         -2    1    6    6    0  503  0.10195742294E+03 -0.43261678877E+02 -0.18688486597E+03  0.21723913570E+03  0.00000000000E+00 0.  1.
<mgrwt>
<rscale>  0 0.21394885E+04</rscale>
<asrwt>0</asrwt>
<pdfrwt beam="1">  1        2 0.16400082E+00 0.21394885E+04</pdfrwt>
<pdfrwt beam="2">  1       -1 0.16515327E+00 0.21394885E+04</pdfrwt>
<totfact> 0.64043056E+00</totfact>
</mgrwt>
</event>
<event>
12    7  0.1741211E-007  0.3557679E+04  0.7818608E-02  0.8100255E-01
          2   -1    0    0  501    0  0.00000000000E+00  0.00000000000E+00  0.20995229397E+04  0.20995229397E+04  0.00000000000E+00 0. -1.
         -1   -1    0    0    0  501 -0.00000000000E+00 -0.00000000000E+00 -0.15071374102E+04  0.15071374102E+04  0.00000000000E+00 0.  1.
         24    2    1    2    0    0  0.45154196524E+01 -0.16060606039E+04 -0.18028834256E+03  0.16180917073E+04  0.79157023629E+02 0.  0.
        254    2    1    2    0    0 -0.45154196524E+01  0.16060606039E+04  0.77267387207E+03  0.19885686427E+04  0.88200299424E+03 0.  0.
         23    2    4    4    0    0  0.23933753722E+03  0.14535654237E+03 -0.40130472146E+02  0.29704790134E+03  0.90642262571E+02 0.  0.
         23    2    4    4    0    0 -0.24385295687E+03  0.14607040615E+04  0.81280434422E+03  0.16915207414E+04  0.86434348641E+02 0.  0.
          2    1    3    3  502    0  0.60576704129E+01 -0.13843267259E+03  0.59543594794E+01  0.13869302292E+03  0.00000000000E+00 0. -1.
         -1    1    3    3    0  502 -0.15422507605E+01 -0.14676279313E+04 -0.18624270204E+03  0.14793986843E+04  0.00000000000E+00 0.  1.
         13    1    5    5    0    0  0.15528674651E+03  0.14165681840E+03 -0.28390274181E+02  0.21210053161E+03  0.00000000000E+00 0. -1.
        -13    1    5    5    0    0  0.84050790713E+02  0.36997239758E+01 -0.11740197965E+02  0.84947369737E+02  0.00000000000E+00 0.  1.
          2    1    6    6  503    0 -0.20260739226E+03  0.13378213230E+04  0.72627960877E+03  0.15356750040E+04  0.00000000000E+00 0. -1.
         -2    1    6    6    0  503 -0.41245564615E+02  0.12288273846E+03  0.86524735447E+02  0.15584573737E+03  0.00000000000E+00 0.  1.
<mgrwt>
<rscale>  0 0.35576788E+04</rscale>
<asrwt>0</asrwt>
<pdfrwt beam="1">  1        2 0.32300353E+00 0.35576788E+04</pdfrwt>
<pdfrwt beam="2">  1       -1 0.23186729E+00 0.35576788E+04</pdfrwt>
<totfact> 0.50169772E-01</totfact>
</mgrwt>
</event>
<event>
12    7  0.1741211E-007  0.1163491E+04  0.7818608E-02  0.9145427E-01
         -1   -1    0    0    0  501 -0.00000000000E+00  0.00000000000E+00  0.14574119008E+03  0.14574119008E+03  0.00000000000E+00 0.  1.
          2   -1    0    0  501    0  0.00000000000E+00 -0.00000000000E+00 -0.23221143844E+04  0.23221143844E+04  0.00000000000E+00 0. -1.
         24    2    1    2    0    0  0.79247895161E+02  0.20848638802E+03 -0.32873356638E+03  0.40457732162E+03  0.76617547783E+02 0.  0.
        254    2    1    2    0    0 -0.79247895161E+02 -0.20848638802E+03 -0.18476396279E+04  0.20632782529E+04  0.89084126035E+03 0.  0.
         23    2    4    4    0    0 -0.35495117798E+03  0.50820904275E+02 -0.14877602896E+04  0.15331171090E+04  0.91892805344E+02 0.  0.
         23    2    4    4    0    0  0.27570328282E+03 -0.25930729229E+03 -0.35987933834E+03  0.53016114383E+03  0.91132476451E+02 0.  0.
          4    1    3    3  502    0  0.53185843756E+02  0.19574806533E+03 -0.25847415411E+03  0.32856495156E+03  0.00000000000E+00 0. -1.
         -3    1    3    3    0  502  0.26062051405E+02  0.12738322690E+02 -0.70259412279E+02  0.76012370060E+02  0.00000000000E+00 0.  1.
         13    1    5    5    0    0 -0.13579098389E+03 -0.24332296093E+02 -0.59495709393E+03  0.61074151289E+03  0.00000000000E+00 0. -1.
        -13    1    5    5    0    0 -0.21916019409E+03  0.75153200367E+02 -0.89280319567E+03  0.92237559616E+03  0.00000000000E+00 0.  1.
          3    1    6    6  503    0  0.10895457158E+03 -0.57094275543E+02 -0.80079705434E+02  0.14677743079E+03  0.00000000000E+00 0. -1.
         -3    1    6    6    0  503  0.16674871124E+03 -0.20221301675E+03 -0.27979963291E+03  0.38338371303E+03  0.00000000000E+00 0.  1.
<mgrwt>
<rscale>  0 0.11634908E+04</rscale>
<asrwt>0</asrwt>
<pdfrwt beam="1">  1        2 0.35724834E+00 0.11634908E+04</pdfrwt>
<pdfrwt beam="2">  1       -1 0.22421723E-01 0.11634908E+04</pdfrwt>
<totfact> 0.84099592E+01</totfact>
</mgrwt>
</event>
<event>
12    7  0.1741211E-007  0.1156917E+04  0.7818608E-02  0.9151426E-01
          2   -1    0    0  501    0  0.00000000000E+00  0.00000000000E+00  0.24365571231E+04  0.24365571231E+04  0.00000000000E+00 0. -1.
         -1   -1    0    0    0  501 -0.00000000000E+00 -0.00000000000E+00 -0.13733075899E+03  0.13733075899E+03  0.00000000000E+00 0.  1.
         24    2    1    2    0    0  0.39830394378E+02 -0.14009731602E+03  0.85093712506E+03  0.86708492280E+03  0.80799469490E+02 0.  0.
        254    2    1    2    0    0 -0.39830394378E+02  0.14009731602E+03  0.14482892390E+04  0.17068029592E+04  0.89130292470E+03 0.  0.
         23    2    4    4    0    0 -0.41245341710E+03  0.18501929041E+03  0.48970944606E+03  0.67337202777E+03  0.96252725276E+02 0.  0.
         23    2    4    4    0    0  0.37262302272E+03 -0.44921974395E+02  0.95857979295E+03  0.10334309315E+04  0.90765466105E+02 0.  0.
          4    1    3    3  502    0 -0.11309577073E+02 -0.55653970240E+02  0.47572350979E+03  0.47910137623E+03  0.00000000000E+00 0. -1.
         -1    1    3    3    0  502  0.51139971451E+02 -0.84443345777E+02  0.37521361527E+03  0.38798354657E+03  0.00000000000E+00 0.  1.
         13    1    5    5    0    0 -0.31756418474E+03  0.10854969996E+03  0.31440773945E+03  0.45987202069E+03  0.00000000000E+00 0. -1.
        -13    1    5    5    0    0 -0.94889232357E+02  0.76469590451E+02  0.17530170661E+03  0.21350000708E+03  0.00000000000E+00 0.  1.
          3    1    6    6  503    0  0.24428247402E+03 -0.10524960668E+02  0.71948677722E+03  0.75989862778E+03  0.00000000000E+00 0. -1.
         -3    1    6    6    0  503  0.12834054870E+03 -0.34397013728E+02  0.23909301573E+03  0.27353230369E+03  0.00000000000E+00 0.  1.
<mgrwt>
<rscale>  0 0.11569170E+04</rscale>
<asrwt>0</asrwt>
<pdfrwt beam="1">  1        2 0.37485491E+00 0.11569170E+04</pdfrwt>
<pdfrwt beam="2">  1       -1 0.21127811E-01 0.11569170E+04</pdfrwt>
<totfact> 0.80139202E+01</totfact>
</mgrwt>
</event>
<event>
12    7  0.1741211E-007  0.3268222E+04  0.7818608E-02  0.8171029E-01
         -1   -1    0    0    0  501 -0.00000000000E+00  0.00000000000E+00  0.95679825367E+03  0.95679825367E+03  0.00000000000E+00 0.  1.
          2   -1    0    0  501    0  0.00000000000E+00 -0.00000000000E+00 -0.27908904222E+04  0.27908904222E+04  0.00000000000E+00 0. -1.
         24    2    1    2    0    0  0.41926483097E+03 -0.52974261905E+03 -0.24022557254E+04  0.24966862513E+04  0.78736438260E+02 0.  0.
        254    2    1    2    0    0 -0.41926483097E+03  0.52974261905E+03  0.56816355681E+03  0.12510024246E+04  0.88644627475E+03 0.  0.
         23    2    4    4    0    0  0.78434947802E+02 -0.19206094039E+03  0.64337059630E+02  0.23576411366E+03  0.91684318102E+02 0.  0.
         23    2    4    4    0    0 -0.49769977877E+03  0.72180355944E+03  0.50382649718E+03  0.10152383109E+04  0.90345118485E+02 0.  0.
          2    1    3    3  502    0  0.35670334689E+03 -0.46718459889E+03 -0.19873379163E+04  0.20724407641E+04  0.00000000000E+00 0. -1.
         -1    1    3    3    0  502  0.62561484077E+02 -0.62558020159E+02 -0.41491780908E+03  0.42424548727E+03  0.00000000000E+00 0.  1.
         13    1    5    5    0    0  0.55749580350E+01  0.94327602126E+01  0.97278751383E+01  0.14652258428E+02  0.00000000000E+00 0.  1.
        -13    1    5    5    0    0  0.72859989767E+02 -0.20149370061E+03  0.54609184491E+02  0.22111185523E+03  0.00000000000E+00 0. -1.
          2    1    6    6  503    0 -0.14674852178E+03  0.28856538127E+03  0.17719924417E+03  0.36905918231E+03  0.00000000000E+00 0.  1.
         -2    1    6    6    0  503 -0.35095125699E+03  0.43323817817E+03  0.32662725301E+03  0.64617912858E+03  0.00000000000E+00 0. -1.
<mgrwt>
<rscale>  0 0.32682222E+04</rscale>
<asrwt>0</asrwt>
<pdfrwt beam="1">  1        2 0.42936775E+00 0.32682222E+04</pdfrwt>
<pdfrwt beam="2">  1       -1 0.14719973E+00 0.32682222E+04</pdfrwt>
<totfact> 0.81729715E-01</totfact>
</mgrwt>
</event>
<event>
12    7  0.1741211E-007  0.1582654E+04  0.7818608E-02  0.8831276E-01
         -1   -1    0    0    0  501 -0.00000000000E+00  0.00000000000E+00  0.19688718354E+03  0.19688718354E+03  0.00000000000E+00 0.  1.
          2   -1    0    0  501    0  0.00000000000E+00 -0.00000000000E+00 -0.31804934561E+04  0.31804934561E+04  0.00000000000E+00 0. -1.
         24    2    1    2    0    0 -0.13510776791E+03  0.29747377827E+02 -0.19449313321E+04  0.19514452336E+04  0.79003783255E+02 0.  0.
        254    2    1    2    0    0  0.13510776791E+03 -0.29747377827E+02 -0.10386749405E+04  0.14259354061E+04  0.96711278288E+03 0.  0.
         23    2    4    4    0    0  0.21562916743E+03  0.38900564749E+03 -0.23415497280E+03  0.51097334439E+03  0.91890564043E+02 0.  0.
         23    2    4    4    0    0 -0.80521399527E+02 -0.41875302532E+03 -0.80451996768E+03  0.91496206166E+03  0.89807593743E+02 0.  0.
          2    1    3    3  502    0 -0.11570876437E+03 -0.37374199563E+00 -0.16968016430E+04  0.17007423302E+04  0.00000000000E+00 0. -1.
         -1    1    3    3    0  502 -0.19399003541E+02  0.30121119823E+02 -0.24812968905E+03  0.25070290342E+03  0.00000000000E+00 0.  1.
         13    1    5    5    0    0  0.20191562088E+03  0.34111478922E+03 -0.17409181283E+03  0.43294015369E+03  0.00000000000E+00 0. -1.
        -13    1    5    5    0    0  0.13713546549E+02  0.47890858268E+02 -0.60063159973E+02  0.78033190699E+02  0.00000000000E+00 0.  1.
          3    1    6    6  503    0 -0.83545476294E+02 -0.36776693223E+03 -0.64170394800E+03  0.74432272565E+03  0.00000000000E+00 0. -1.
         -3    1    6    6    0  503  0.30240767669E+01 -0.50986093092E+02 -0.16281601968E+03  0.17063933601E+03  0.00000000000E+00 0.  1.
<mgrwt>
<rscale>  0 0.15826540E+04</rscale>
<asrwt>0</asrwt>
<pdfrwt beam="1">  1        2 0.48930669E+00 0.15826540E+04</pdfrwt>
<pdfrwt beam="2">  1       -1 0.30290336E-01 0.15826540E+04</pdfrwt>
<totfact> 0.14766112E+01</totfact>
</mgrwt>
</event>
<event>
12    7  0.1741211E-007  0.2557477E+04  0.7818608E-02  0.8382791E-01
          2   -1    0    0  501    0  0.00000000000E+00  0.00000000000E+00  0.10702079785E+04  0.10702079785E+04  0.00000000000E+00 0. -1.
         -1   -1    0    0    0  501 -0.00000000000E+00 -0.00000000000E+00 -0.15279007082E+04  0.15279007082E+04  0.00000000000E+00 0.  1.
         24    2    1    2    0    0  0.97500260051E+03  0.13707206211E+03 -0.74014192160E+03  0.12343213457E+04  0.79500308744E+02 0.  0.
        254    2    1    2    0    0 -0.97500260051E+03 -0.13707206211E+03  0.28244919188E+03  0.13637873410E+04  0.90039965811E+03 0.  0.
         23    2    4    4    0    0 -0.89363089998E+03 -0.41231562630E+03  0.64529061620E+02  0.99020209221E+03  0.88067147801E+02 0.  0.
         23    2    4    4    0    0 -0.81371700528E+02  0.27524356419E+03  0.21792013026E+03  0.37358524882E+03  0.98470207100E+02 0.  0.
          4    1    3    3  502    0  0.21789087391E+02 -0.87625039343E+01 -0.16985955055E+02  0.28983934751E+02  0.00000000000E+00 0. -1.
         -3    1    3    3    0  502  0.95321351312E+03  0.14583456604E+03 -0.72315596655E+03  0.12053374109E+04  0.00000000000E+00 0.  1.
         13    1    5    5    0    0 -0.68066768844E+03 -0.27839911105E+03  0.68659881443E+02  0.73859917847E+03  0.00000000000E+00 0. -1.
        -13    1    5    5    0    0 -0.21296321154E+03 -0.13391651525E+03 -0.41308198229E+01  0.25160291373E+03  0.00000000000E+00 0.  1.
          4    1    6    6  503    0  0.70329269994E+01  0.62003988352E+02  0.10562643936E+02  0.63289225629E+02  0.00000000000E+00 0. -1.
         -4    1    6    6    0  503 -0.88404627528E+02  0.21323957584E+03  0.20735748633E+03  0.31029602319E+03  0.00000000000E+00 0.  1.
<mgrwt>
<rscale>  0 0.25574765E+04</rscale>
<asrwt>0</asrwt>
<pdfrwt beam="1">  1        2 0.16464738E+00 0.25574765E+04</pdfrwt>
<pdfrwt beam="2">  1       -1 0.23506165E+00 0.25574765E+04</pdfrwt>
<totfact> 0.20100996E+00</totfact>
</mgrwt>
</event>
<event>
12    7  0.1741211E-007  0.1662204E+04  0.7818608E-02  0.8783219E-01
         -1   -1    0    0    0  501 -0.00000000000E+00  0.00000000000E+00  0.17050755192E+04  0.17050755192E+04  0.00000000000E+00 0.  1.
          2   -1    0    0  501    0  0.00000000000E+00 -0.00000000000E+00 -0.40510254372E+03  0.40510254372E+03  0.00000000000E+00 0. -1.
         24    2    1    2    0    0  0.41890485021E+03 -0.32957288290E+03  0.14109608272E+03  0.55718319546E+03  0.80283560432E+02 0.  0.
        254    2    1    2    0    0 -0.41890485021E+03  0.32957288290E+03  0.11588768927E+04  0.15529948674E+04  0.88583172617E+03 0.  0.
         23    2    4    4    0    0 -0.37327492316E+03 -0.10884766230E+03  0.99648459016E+03  0.10735264496E+04  0.91079732316E+02 0.  0.
         23    2    4    4    0    0 -0.45629927054E+02  0.43842054520E+03  0.16239230257E+03  0.47946841787E+03  0.96041861199E+02 0.  0.
          4    1    3    3  502    0  0.77688644295E+02 -0.82076855323E+02  0.11002026402E+01  0.11301922880E+03  0.00000000000E+00 0. -1.
         -3    1    3    3    0  502  0.34121620591E+03 -0.24749602758E+03  0.13999588008E+03  0.44416396667E+03  0.00000000000E+00 0.  1.
         13    1    5    5    0    0 -0.30831386184E+02 -0.39164984577E+02  0.12951901412E+03  0.13877912455E+03  0.00000000000E+00 0. -1.
        -13    1    5    5    0    0 -0.34244353697E+03 -0.69682677724E+02  0.86696557603E+03  0.93474732501E+03  0.00000000000E+00 0.  1.
          1    1    6    6  503    0 -0.34819988396E+01 -0.17890734736E+01 -0.52390308407E+01  0.65400721680E+01  0.00000000000E+00 0. -1.
         -1    1    6    6    0  503 -0.42147928214E+02  0.44020961867E+03  0.16763133341E+03  0.47292834570E+03  0.00000000000E+00 0.  1.
<mgrwt>
<rscale>  0 0.16622039E+04</rscale>
<asrwt>0</asrwt>
<pdfrwt beam="1">  1        2 0.62323469E-01 0.16622039E+04</pdfrwt>
<pdfrwt beam="2">  1       -1 0.26231931E+00 0.16622039E+04</pdfrwt>
<totfact> 0.49611972E+00</totfact>
</mgrwt>
</event>
<event>
12    7  0.1741211E-007  0.2403370E+04  0.7818608E-02  0.8438243E-01
          2   -1    0    0  501    0  0.00000000000E+00  0.00000000000E+00  0.22043307101E+04  0.22043307101E+04  0.00000000000E+00 0. -1.
         -1   -1    0    0    0  501 -0.00000000000E+00 -0.00000000000E+00 -0.65509558847E+03  0.65509558847E+03  0.00000000000E+00 0.  1.
         24    2    1    2    0    0  0.43480793450E+03 -0.45614836533E+03 -0.26259936696E+03  0.68737377626E+03  0.79968804335E+02 0.  0.
        254    2    1    2    0    0 -0.43480793450E+03  0.45614836533E+03  0.18118344886E+04  0.21720525223E+04  0.10187927535E+04 0.  0.
         23    2    4    4    0    0  0.69305004357E+02  0.18363437072E+03 -0.49957371685E+02  0.22200030113E+03  0.90904504710E+02 0.  0.
         23    2    4    4    0    0 -0.50411293886E+03  0.27251399460E+03  0.18617918603E+04  0.19500522212E+04  0.89671634319E+02 0.  0.
          4    1    3    3  502    0  0.75934746261E+02 -0.12040340192E+03 -0.39946458013E+02  0.14784716566E+03  0.00000000000E+00 0. -1.
         -3    1    3    3    0  502  0.35887318824E+03 -0.33574496340E+03 -0.22265290894E+03  0.53952661060E+03  0.00000000000E+00 0.  1.
         13    1    5    5    0    0  0.79316838585E+02  0.15991438729E+03 -0.15765780515E+02  0.17919914057E+03  0.00000000000E+00 0.  1.
        -13    1    5    5    0    0 -0.10011834228E+02  0.23719983433E+02 -0.34191591170E+02  0.42801160561E+02  0.00000000000E+00 0. -1.
          1    1    6    6  503    0 -0.30001939791E+03  0.11860420488E+03  0.11142376637E+04  0.11600017964E+04  0.00000000000E+00 0. -1.
         -1    1    6    6    0  503 -0.20409354095E+03  0.15390978972E+03  0.74755419658E+03  0.79005042476E+03  0.00000000000E+00 0.  1.
<mgrwt>
<rscale>  0 0.24033704E+04</rscale>
<asrwt>0</asrwt>
<pdfrwt beam="1">  1        2 0.33912780E+00 0.24033704E+04</pdfrwt>
<pdfrwt beam="2">  1       -1 0.10078394E+00 0.24033704E+04</pdfrwt>
<totfact> 0.49161843E+00</totfact>
</mgrwt>
</event>
<event>
12    7  0.1741211E-007  0.2038035E+04  0.7818608E-02  0.8589042E-01
         -1   -1    0    0    0  501 -0.00000000000E+00  0.00000000000E+00  0.13750134889E+04  0.13750134889E+04  0.00000000000E+00 0.  1.
          2   -1    0    0  501    0  0.00000000000E+00 -0.00000000000E+00 -0.75518982976E+03  0.75518982976E+03  0.00000000000E+00 0. -1.
         24    2    1    2    0    0  0.21176197745E+03  0.75538569952E+03  0.92903876121E+01  0.78859809835E+03  0.79686631735E+02 0.  0.
        254    2    1    2    0    0 -0.21176197745E+03 -0.75538569952E+03  0.61053327150E+03  0.13416052203E+04  0.90094561508E+03 0.  0.
         23    2    4    4    0    0 -0.53330046147E+03 -0.40674162921E+03  0.19564028539E+03  0.70461166787E+03  0.91402112093E+02 0.  0.
         23    2    4    4    0    0  0.32153848402E+03 -0.34864407032E+03  0.41489298611E+03  0.63699355241E+03  0.93192872138E+02 0.  0.
          4    1    3    3  502    0  0.19184469533E+03  0.69758130901E+03 -0.12789990451E+02  0.72359356939E+03  0.00000000000E+00 0. -1.
         -3    1    3    3    0  502  0.19917282119E+02  0.57804390518E+02  0.22080378063E+02  0.65004528962E+02  0.00000000000E+00 0.  1.
         13    1    5    5    0    0 -0.43940326395E+03 -0.36611694603E+03  0.14296375522E+03  0.58953836334E+03  0.00000000000E+00 0. -1.
        -13    1    5    5    0    0 -0.93897197520E+02 -0.40624683180E+02  0.52676530165E+02  0.11507330453E+03  0.00000000000E+00 0.  1.
          4    1    6    6  503    0  0.31111346818E+03 -0.34743977554E+03  0.38321389971E+03  0.60362147132E+03  0.00000000000E+00 0. -1.
         -4    1    6    6    0  503  0.10425015839E+02 -0.12042947800E+01  0.31679086401E+02  0.33372081091E+02  0.00000000000E+00 0.  1.
<mgrwt>
<rscale>  0 0.20380345E+04</rscale>
<asrwt>0</asrwt>
<pdfrwt beam="1">  1        2 0.11618305E+00 0.20380345E+04</pdfrwt>
<pdfrwt beam="2">  1       -1 0.21154054E+00 0.20380345E+04</pdfrwt>
<totfact> 0.49300081E+00</totfact>
</mgrwt>
</event>
<event>
12    7  0.1845111E-007  0.2170430E+04  0.7818608E-02  0.8530838E-01
         -1   -1    0    0    0  501 -0.00000000000E+00  0.00000000000E+00  0.80293529966E+03  0.80293529966E+03  0.00000000000E+00 0.  1.
          2   -1    0    0  501    0  0.00000000000E+00 -0.00000000000E+00 -0.14667322254E+04  0.14667322254E+04  0.00000000000E+00 0. -1.
         24    2    1    2    0    0  0.36696310086E+03  0.20609039502E+03  0.54141308614E+03  0.68901953226E+03  0.66967288225E+02 0.  0.
        254    2    1    2    0    0 -0.36696310086E+03 -0.20609039502E+03 -0.12052100119E+04  0.15806479928E+04  0.93208461851E+03 0.  0.
         23    2    4    4    0    0  0.13763930750E+03 -0.22300808867E+03 -0.80305577369E+01  0.27834922518E+03  0.93469859960E+02 0.  0.
         23    2    4    4    0    0 -0.50460240836E+03  0.16917693647E+02 -0.11971794541E+04  0.13022987676E+04  0.88507829165E+02 0.  0.
          2    1    3    3  502    0  0.73641015904E+02  0.45681793819E+02  0.15893411367E+03  0.18102452320E+03  0.00000000000E+00 0. -1.
         -3    1    3    3    0  502  0.29332208495E+03  0.16040860120E+03  0.38247897247E+03  0.50799500907E+03  0.00000000000E+00 0.  1.
         13    1    5    5    0    0  0.62877394816E+02 -0.16116271936E+03  0.27209720647E+02  0.17512098043E+03  0.00000000000E+00 0. -1.
        -13    1    5    5    0    0  0.74761912683E+02 -0.61845369306E+02 -0.35240278384E+02  0.10322824475E+03  0.00000000000E+00 0.  1.
          2    1    6    6  503    0 -0.49171662322E+02 -0.15966712175E+02 -0.18109734305E+03  0.18833224879E+03  0.00000000000E+00 0. -1.
         -2    1    6    6    0  503 -0.45543074603E+03  0.32884405822E+02 -0.10160821111E+04  0.11139665188E+04  0.00000000000E+00 0.  1.
<mgrwt>
<rscale>  0 0.21704295E+04</rscale>
<asrwt>0</asrwt>
<pdfrwt beam="1">  1        2 0.22565111E+00 0.21704295E+04</pdfrwt>
<pdfrwt beam="2">  1       -1 0.12352851E+00 0.21704295E+04</pdfrwt>
<totfact> 0.79764614E+00</totfact>
</mgrwt>
</event>
<event>
12    7  0.1741211E-007  0.1862019E+04  0.7818608E-02  0.8673997E-01
         -1   -1    0    0    0  501 -0.00000000000E+00  0.00000000000E+00  0.85599552317E+03  0.85599552317E+03  0.00000000000E+00 0.  1.
          2   -1    0    0  501    0  0.00000000000E+00 -0.00000000000E+00 -0.10125967429E+04  0.10125967429E+04  0.00000000000E+00 0. -1.
         24    2    1    2    0    0  0.37207538182E+02  0.17506954159E+03 -0.69808633359E+03  0.72503561558E+03  0.79488171656E+02 0.  0.
        254    2    1    2    0    0 -0.37207538182E+02 -0.17506954159E+03  0.54148511386E+03  0.11435566505E+04  0.99120226949E+03 0.  0.
         23    2    4    4    0    0 -0.32432209009E+03 -0.13153226447E+03 -0.14759008970E+03  0.38983241983E+03  0.87754921526E+02 0.  0.
         23    2    4    4    0    0  0.28711455191E+03 -0.43537277120E+02  0.68907520356E+03  0.75372423065E+03  0.94579698122E+02 0.  0.
          2    1    3    3  502    0 -0.95107001276E+01  0.10516025249E+03 -0.47586502394E+03  0.48743887117E+03  0.00000000000E+00 0. -1.
         -1    1    3    3    0  502  0.46718238309E+02  0.69909289104E+02 -0.22222130965E+03  0.23759674441E+03  0.00000000000E+00 0.  1.
         13    1    5    5    0    0 -0.15972782549E+03 -0.39150256223E+02 -0.29200767407E+02  0.16702815815E+03  0.00000000000E+00 0.  1.
        -13    1    5    5    0    0 -0.16459426460E+03 -0.92382008251E+02 -0.11838932230E+03  0.22280426168E+03  0.00000000000E+00 0. -1.
          1    1    6    6  503    0  0.72668603553E+02 -0.32417942731E+02  0.28790445860E+03  0.29869821933E+03  0.00000000000E+00 0. -1.
         -1    1    6    6    0  503  0.21444594836E+03 -0.11119334389E+02  0.40117074496E+03  0.45502601132E+03  0.00000000000E+00 0.  1.
<mgrwt>
<rscale>  0 0.18620186E+04</rscale>
<asrwt>0</asrwt>
<pdfrwt beam="1">  1        2 0.15578411E+00 0.18620186E+04</pdfrwt>
<pdfrwt beam="2">  1       -1 0.13169162E+00 0.18620186E+04</pdfrwt>
<totfact> 0.13005053E+01</totfact>
</mgrwt>
</event>
<event>
12    7  0.1741211E-007  0.2443879E+04  0.7818608E-02  0.8423256E-01
          2   -1    0    0  501    0  0.00000000000E+00  0.00000000000E+00  0.15135069076E+04  0.15135069076E+04  0.00000000000E+00 0. -1.
         -1   -1    0    0    0  501 -0.00000000000E+00 -0.00000000000E+00 -0.98654056812E+03  0.98654056812E+03  0.00000000000E+00 0.  1.
         24    2    1    2    0    0  0.10039671948E+04 -0.18556193357E+03  0.49995742448E+03  0.11396176365E+04  0.79922285798E+02 0.  0.
        254    2    1    2    0    0 -0.10039671948E+04  0.18556193357E+03  0.27008915029E+02  0.13604298393E+04  0.89869711622E+03 0.  0.
         23    2    4    4    0    0 -0.16356268903E+03  0.29877119626E+03 -0.28398465757E+03  0.45255789933E+03  0.90246249534E+02 0.  0.
         23    2    4    4    0    0 -0.84040450572E+03 -0.11320926269E+03  0.31099357260E+03  0.90787193992E+03  0.91751766734E+02 0.  0.
          4    1    3    3  502    0  0.12272424218E+03 -0.25433882127E+02  0.91653091784E+02  0.15526883529E+03  0.00000000000E+00 0. -1.
         -3    1    3    3    0  502  0.88124295257E+03 -0.16012805145E+03  0.40830433269E+03  0.98434880120E+03  0.00000000000E+00 0.  1.
         13    1    5    5    0    0 -0.13442208812E+03  0.21721098416E+03 -0.16032948281E+03  0.30158821674E+03  0.00000000000E+00 0. -1.
        -13    1    5    5    0    0 -0.29140600909E+02  0.81560212098E+02 -0.12365517475E+03  0.15096968259E+03  0.00000000000E+00 0.  1.
          3    1    6    6  503    0 -0.69075473168E+02 -0.32503492367E+02  0.41170414296E+02  0.86734658717E+02  0.00000000000E+00 0. -1.
         -3    1    6    6    0  503 -0.77132903256E+03 -0.80705770320E+02  0.26982315830E+03  0.82113728120E+03  0.00000000000E+00 0.  1.
<mgrwt>
<rscale>  0 0.24438789E+04</rscale>
<asrwt>0</asrwt>
<pdfrwt beam="1">  1        2 0.23284722E+00 0.24438789E+04</pdfrwt>
<pdfrwt beam="2">  1       -1 0.15177547E+00 0.24438789E+04</pdfrwt>
<totfact> 0.43021261E+00</totfact>
</mgrwt>
</event>
<event>
12    7  0.1741211E-007  0.1645515E+04  0.7818608E-02  0.8793064E-01
         -1   -1    0    0    0  501 -0.00000000000E+00  0.00000000000E+00  0.19737086254E+03  0.19737086254E+03  0.00000000000E+00 0.  1.
          2   -1    0    0  501    0  0.00000000000E+00 -0.00000000000E+00 -0.34297368225E+04  0.34297368225E+04  0.00000000000E+00 0. -1.
         24    2    1    2    0    0  0.32627229181E+03 -0.38167676895E+03 -0.17107807862E+04  0.17847806101E+04  0.80871276798E+02 0.  0.
        254    2    1    2    0    0 -0.32627229181E+03  0.38167676895E+03 -0.15215851737E+04  0.18423270749E+04  0.90929469681E+03 0.  0.
         23    2    4    4    0    0 -0.49925233161E+02  0.21359148806E+02  0.10531087684E+03  0.15071200997E+03  0.93139610401E+02 0.  0.
         23    2    4    4    0    0 -0.27634705865E+03  0.36031762014E+03 -0.16268960505E+04  0.16916150649E+04  0.92597431742E+02 0.  0.
          4    1    3    3  502    0  0.29720557407E+03 -0.37544246404E+03 -0.16062390050E+04  0.16760942510E+04  0.00000000000E+00 0. -1.
         -3    1    3    3    0  502  0.29066717739E+02 -0.62343049073E+01 -0.10454178123E+03  0.10868635913E+03  0.00000000000E+00 0.  1.
         13    1    5    5    0    0 -0.49917101983E+02  0.57846907390E+01  0.11950466086E+03  0.12964005432E+03  0.00000000000E+00 0. -1.
        -13    1    5    5    0    0 -0.81311772586E-02  0.15574458067E+02 -0.14193784020E+02  0.21071955652E+02  0.00000000000E+00 0.  1.
          4    1    6    6  503    0 -0.10766391830E+03  0.80626289659E+02 -0.40122914017E+03  0.42317483481E+03  0.00000000000E+00 0.  1.
         -4    1    6    6    0  503 -0.16868314035E+03  0.27969133048E+03 -0.12256669104E+04  0.12684402301E+04  0.00000000000E+00 0. -1.
<mgrwt>
<rscale>  0 0.16455153E+04</rscale>
<asrwt>0</asrwt>
<pdfrwt beam="1">  1        2 0.52765185E+00 0.16455153E+04</pdfrwt>
<pdfrwt beam="2">  1       -1 0.30364746E-01 0.16455153E+04</pdfrwt>
<totfact> 0.99866185E+00</totfact>
</mgrwt>
</event>
<event>
12    7  0.2144942E-007  0.2141266E+04  0.7818608E-02  0.8543280E-01
          2   -1    0    0  501    0  0.00000000000E+00  0.00000000000E+00  0.13665493854E+04  0.13665493854E+04  0.00000000000E+00 0. -1.
         -1   -1    0    0    0  501 -0.00000000000E+00 -0.00000000000E+00 -0.83879496505E+03  0.83879496505E+03  0.00000000000E+00 0.  1.
         24    2    1    2    0    0  0.63848184534E+03 -0.19276424889E+03  0.82144522431E+03  0.10611293019E+04  0.80037593260E+02 0.  0.
        254    2    1    2    0    0 -0.63848184534E+03  0.19276424889E+03 -0.29369080400E+03  0.11442150485E+04  0.88213188720E+03 0.  0.
         23    2    4    4    0    0 -0.33088521630E+03 -0.85064526095E+02  0.26623430880E+03  0.44127542393E+03  0.84393676391E+02 0.  0.
         23    2    4    4    0    0 -0.30759662903E+03  0.27782877499E+03 -0.55992511281E+03  0.70293962458E+03  0.93826805617E+02 0.  0.
          2    1    3    3  502    0  0.57516259868E+03 -0.19426866518E+03  0.72310277028E+03  0.94415567867E+03  0.00000000000E+00 0. -1.
         -1    1    3    3    0  502  0.63319246658E+02  0.15044162869E+01  0.98342454029E+02  0.11697362322E+03  0.00000000000E+00 0.  1.
         13    1    5    5    0    0 -0.33270222178E+03 -0.89705359238E+02  0.25405001499E+03  0.42811123551E+03  0.00000000000E+00 0.  1.
        -13    1    5    5    0    0  0.18170054726E+01  0.46408331430E+01  0.12184293816E+02  0.13164188427E+02  0.00000000000E+00 0. -1.
          4    1    6    6  503    0 -0.26311196503E+03  0.25893592066E+03 -0.53068088222E+03  0.64645024241E+03  0.00000000000E+00 0.  1.
         -4    1    6    6    0  503 -0.44484664003E+02  0.18892854331E+02 -0.29244230581E+02  0.56489382175E+02  0.00000000000E+00 0. -1.
<mgrwt>
<rscale>  0 0.21412657E+04</rscale>
<asrwt>0</asrwt>
<pdfrwt beam="1">  1        2 0.21023837E+00 0.21412657E+04</pdfrwt>
<pdfrwt beam="2">  1       -1 0.12904538E+00 0.21412657E+04</pdfrwt>
<totfact> 0.81802021E+00</totfact>
</mgrwt>
</event>
<event>
12    7  0.1741211E-007  0.3003900E+04  0.7818608E-02  0.8242618E-01
         -1   -1    0    0    0  501 -0.00000000000E+00  0.00000000000E+00  0.65642972159E+03  0.65642972159E+03  0.00000000000E+00 0.  1.
          2   -1    0    0  501    0  0.00000000000E+00 -0.00000000000E+00 -0.34365512230E+04  0.34365512230E+04  0.00000000000E+00 0. -1.
         24    2    1    2    0    0 -0.51820461940E+03  0.66868733739E+03  0.19415494604E+03  0.87174763418E+03  0.81049440966E+02 0.  0.
        254    2    1    2    0    0  0.51820461940E+03 -0.66868733739E+03 -0.29742764474E+04  0.32212333104E+04  0.90241058917E+03 0.  0.
         23    2    4    4    0    0  0.12918212061E+02 -0.66648945124E+03 -0.21247863074E+04  0.22284127702E+04  0.82046044267E+02 0.  0.
         23    2    4    4    0    0  0.50528640734E+03 -0.21978861488E+01 -0.84949014005E+03  0.99282054022E+03  0.93487661764E+02 0.  0.
          2    1    3    3  502    0 -0.44172091804E+02  0.29011299479E+02  0.29104536346E+01  0.52927308000E+02  0.00000000000E+00 0. -1.
         -1    1    3    3    0  502 -0.47403252759E+03  0.63967603791E+03  0.19124449240E+03  0.81882032618E+03  0.00000000000E+00 0.  1.
         13    1    5    5    0    0  0.19061181397E+01 -0.50322234356E+03 -0.14812307280E+04  0.15643787361E+04  0.00000000000E+00 0. -1.
        -13    1    5    5    0    0  0.11012093921E+02 -0.16326710768E+03 -0.64355557938E+03  0.66403403408E+03  0.00000000000E+00 0.  1.
          3    1    6    6  503    0  0.30269405574E+03  0.43113451304E+02 -0.52771102212E+03  0.60988636969E+03  0.00000000000E+00 0. -1.
         -3    1    6    6    0  503  0.20259235160E+03 -0.45311337453E+02 -0.32177911793E+03  0.38293417053E+03  0.00000000000E+00 0.  1.
<mgrwt>
<rscale>  0 0.30039004E+04</rscale>
<asrwt>0</asrwt>
<pdfrwt beam="1">  1        2 0.52870018E+00 0.30039004E+04</pdfrwt>
<pdfrwt beam="2">  1       -1 0.10098919E+00 0.30039004E+04</pdfrwt>
<totfact> 0.81450096E-01</totfact>
</mgrwt>
</event>
<event>
12    7  0.1741211E-007  0.1320276E+04  0.7818608E-02  0.9013639E-01
          2   -1    0    0  501    0  0.00000000000E+00  0.00000000000E+00  0.14966426591E+04  0.14966426591E+04  0.00000000000E+00 0. -1.
         -1   -1    0    0    0  501 -0.00000000000E+00 -0.00000000000E+00 -0.29117301052E+03  0.29117301052E+03  0.00000000000E+00 0.  1.
         24    2    1    2    0    0  0.71884919117E+02  0.51965007853E+02 -0.12651583119E+03  0.17435080036E+03  0.80772163573E+02 0.  0.
        254    2    1    2    0    0 -0.71884919117E+02 -0.51965007853E+02  0.13319854798E+04  0.16134648693E+04  0.90620955765E+03 0.  0.
         23    2    4    4    0    0 -0.27548942620E+03 -0.31863405100E+03  0.30253588992E+03  0.52667333052E+03  0.91840894954E+02 0.  0.
         23    2    4    4    0    0  0.20360450708E+03  0.26666904315E+03  0.10294495899E+04  0.10867915388E+04  0.93713482127E+02 0.  0.
          2    1    3    3  502    0  0.39476714982E+01 -0.49253397406E+01  0.98646357279E+01  0.11711281734E+02  0.00000000000E+00 0. -1.
         -1    1    3    3    0  502  0.67937247619E+02  0.56890347593E+02 -0.13638046692E+03  0.16263951863E+03  0.00000000000E+00 0.  1.
         13    1    5    5    0    0 -0.79249975055E+02 -0.41150470813E+02  0.84111464170E+02  0.12267297257E+03  0.00000000000E+00 0.  1.
        -13    1    5    5    0    0 -0.19623945115E+03 -0.27748358019E+03  0.21842442575E+03  0.40400035795E+03  0.00000000000E+00 0. -1.
          2    1    6    6  503    0  0.18307841363E+03  0.25389438803E+03  0.10041104174E+04  0.10517688891E+04  0.00000000000E+00 0. -1.
         -2    1    6    6    0  503  0.20526093449E+02  0.12774655120E+02  0.25339172529E+02  0.35022649674E+02  0.00000000000E+00 0.  1.
<mgrwt>
<rscale>  0 0.13202757E+04</rscale>
<asrwt>0</asrwt>
<pdfrwt beam="1">  1        2 0.23025271E+00 0.13202757E+04</pdfrwt>
<pdfrwt beam="2">  1       -1 0.44795849E-01 0.13202757E+04</pdfrwt>
<totfact> 0.70217257E+01</totfact>
</mgrwt>
</event>
<event>
12    7  0.1741211E-007  0.2643285E+04  0.7818608E-02  0.8353645E-01
         -1   -1    0    0    0  501 -0.00000000000E+00  0.00000000000E+00  0.10023282605E+04  0.10023282605E+04  0.00000000000E+00 0.  1.
          2   -1    0    0  501    0  0.00000000000E+00 -0.00000000000E+00 -0.17426811128E+04  0.17426811128E+04  0.00000000000E+00 0. -1.
         24    2    1    2    0    0  0.52350466565E+03 -0.10327943396E+04 -0.15981094082E+03  0.11717311670E+04  0.81811417631E+02 0.  0.
        254    2    1    2    0    0 -0.52350466565E+03  0.10327943396E+04 -0.58054191141E+03  0.15732782063E+04  0.89300286718E+03 0.  0.
         23    2    4    4    0    0 -0.69208085288E+03  0.51916846704E+03 -0.16498877316E+03  0.88546425640E+03  0.91180315890E+02 0.  0.
         23    2    4    4    0    0  0.16857618723E+03  0.51362587253E+03 -0.41555313825E+03  0.68781394993E+03  0.90411012473E+02 0.  0.
          4    1    3    3  502    0  0.38371790251E+03 -0.69693127764E+03 -0.82825246747E+02  0.79988290141E+03  0.00000000000E+00 0. -1.
         -3    1    3    3    0  502  0.13978676314E+03 -0.33586306192E+03 -0.76985694075E+02  0.37184826556E+03  0.00000000000E+00 0.  1.
         13    1    5    5    0    0 -0.39777589565E+01  0.97685274126E+01 -0.11625955035E+02  0.15697436880E+02  0.00000000000E+00 0.  1.
        -13    1    5    5    0    0 -0.68810309392E+03  0.50939993962E+03 -0.15336281813E+03  0.86976681952E+03  0.00000000000E+00 0. -1.
          2    1    6    6  503    0  0.17166822824E+03  0.51399041277E+03 -0.40420296707E+03  0.67604449824E+03  0.00000000000E+00 0. -1.
         -2    1    6    6    0  503 -0.30920410175E+01 -0.36454024550E+00 -0.11350171180E+02  0.11769451689E+02  0.00000000000E+00 0.  1.
<mgrwt>
<rscale>  0 0.26432847E+04</rscale>
<asrwt>0</asrwt>
<pdfrwt beam="1">  1        2 0.26810479E+00 0.26432847E+04</pdfrwt>
<pdfrwt beam="2">  1       -1 0.15420435E+00 0.26432847E+04</pdfrwt>
<totfact> 0.30152274E+00</totfact>
</mgrwt>
</event>
<event>
12    7  0.1741211E-007  0.2300583E+04  0.7818608E-02  0.8477691E-01
         -1   -1    0    0    0  501 -0.00000000000E+00  0.00000000000E+00  0.88733136888E+03  0.88733136888E+03  0.00000000000E+00 0.  1.
          2   -1    0    0  501    0  0.00000000000E+00 -0.00000000000E+00 -0.14911802932E+04  0.14911802932E+04  0.00000000000E+00 0. -1.
         24    2    1    2    0    0 -0.66789215175E+03  0.43434533541E+03  0.31831745533E+03  0.86170992908E+03  0.80512127880E+02 0.  0.
        254    2    1    2    0    0  0.66789215175E+03 -0.43434533541E+03 -0.92216637968E+03  0.15168017330E+04  0.90308408732E+03 0.  0.
         23    2    4    4    0    0  0.11028335524E+03 -0.28459503159E+03 -0.87432640586E+03  0.93044233856E+03  0.90108439930E+02 0.  0.
         23    2    4    4    0    0  0.55760879651E+03 -0.14975030382E+03 -0.47839973818E+02  0.58635939447E+03  0.90420976296E+02 0.  0.
          2    1    3    3  502    0 -0.50284458672E+02  0.10209910380E+02  0.25553084873E+02  0.57321280520E+02  0.00000000000E+00 0. -1.
         -1    1    3    3    0  502 -0.61760769308E+03  0.42413542503E+03  0.29276437046E+03  0.80438864856E+03  0.00000000000E+00 0.  1.
         13    1    5    5    0    0  0.79425430576E+01 -0.52966883811E+02 -0.76445740119E+02  0.93340912537E+02  0.00000000000E+00 0. -1.
        -13    1    5    5    0    0  0.10234081218E+03 -0.23162814778E+03 -0.79788066574E+03  0.83710142602E+03  0.00000000000E+00 0.  1.
          2    1    6    6  503    0  0.16512085882E+03 -0.72002684266E+01  0.56497436460E+01  0.16537430721E+03  0.00000000000E+00 0. -1.
         -2    1    6    6    0  503  0.39248793769E+03 -0.14255003539E+03 -0.53489717464E+02  0.42098508726E+03  0.00000000000E+00 0.  1.
<mgrwt>
<rscale>  0 0.23005834E+04</rscale>
<asrwt>0</asrwt>
<pdfrwt beam="1">  1        2 0.22941235E+00 0.23005834E+04</pdfrwt>
<pdfrwt beam="2">  1       -1 0.13651252E+00 0.23005834E+04</pdfrwt>
<totfact> 0.59360726E+00</totfact>
</mgrwt>
</event>
<event>
12    7  0.1741211E-007  0.1900861E+04  0.7818608E-02  0.8654428E-01
         -1   -1    0    0    0  501 -0.00000000000E+00  0.00000000000E+00  0.53821059748E+03  0.53821059748E+03  0.00000000000E+00 0.  1.
          2   -1    0    0  501    0  0.00000000000E+00 -0.00000000000E+00 -0.16783729083E+04  0.16783729083E+04  0.00000000000E+00 0. -1.
         24    2    1    2    0    0  0.19913418631E+03 -0.66551664865E+03 -0.17984004514E+03  0.72199091999E+03  0.79759719923E+02 0.  0.
        254    2    1    2    0    0 -0.19913418631E+03  0.66551664865E+03 -0.96032226565E+03  0.14945925858E+04  0.91050607342E+03 0.  0.
         23    2    4    4    0    0 -0.77563272292E+02 -0.21370031465E+03 -0.28501743889E+03  0.37564376260E+03  0.90495360196E+02 0.  0.
         23    2    4    4    0    0 -0.12157091402E+03  0.87921696330E+03 -0.67530482676E+03  0.11189488232E+04  0.90597484163E+02 0.  0.
          4    1    3    3  502    0  0.42189247945E+02 -0.14223432562E+03 -0.72934701352E+02  0.16531789585E+03  0.00000000000E+00 0. -1.
         -3    1    3    3    0  502  0.15694493837E+03 -0.52328232303E+03 -0.10690534379E+03  0.55667302414E+03  0.00000000000E+00 0.  1.
         13    1    5    5    0    0  0.97579131378E+01 -0.25160896007E+02 -0.58051737114E+01  0.27604122853E+02  0.00000000000E+00 0. -1.
        -13    1    5    5    0    0 -0.87321185430E+02 -0.18853941864E+03 -0.27921226518E+03  0.34803963975E+03  0.00000000000E+00 0.  1.
          4    1    6    6  503    0 -0.67652198716E+02  0.23621278961E+03 -0.16046359419E+03  0.29346527397E+03  0.00000000000E+00 0. -1.
         -4    1    6    6    0  503 -0.53918715302E+02  0.64300417369E+03 -0.51484123257E+03  0.82548354920E+03  0.00000000000E+00 0.  1.
<mgrwt>
<rscale>  0 0.19008609E+04</rscale>
<asrwt>0</asrwt>
<pdfrwt beam="1">  1        2 0.25821122E+00 0.19008609E+04</pdfrwt>
<pdfrwt beam="2">  1       -1 0.82801630E-01 0.19008609E+04</pdfrwt>
<totfact> 0.15583606E+01</totfact>
</mgrwt>
</event>
<event>
12    7  0.1741211E-007  0.1472262E+04  0.7818608E-02  0.8903111E-01
         -1   -1    0    0    0  501 -0.00000000000E+00  0.00000000000E+00  0.17001634205E+03  0.17001634205E+03  0.00000000000E+00 0.  1.
          2   -1    0    0  501    0  0.00000000000E+00 -0.00000000000E+00 -0.31872756528E+04  0.31872756528E+04  0.00000000000E+00 0. -1.
         24    2    1    2    0    0  0.44195453663E+02 -0.35167355121E+03 -0.15926450032E+04  0.16333190342E+04  0.74735777044E+02 0.  0.
        254    2    1    2    0    0 -0.44195453663E+02  0.35167355121E+03 -0.14246143075E+04  0.17239729607E+04  0.90384142370E+03 0.  0.
         23    2    4    4    0    0 -0.25093268408E+03  0.35838234813E+03 -0.22005905118E+03  0.49838367195E+03  0.92494211001E+02 0.  0.
         23    2    4    4    0    0  0.20673723042E+03 -0.67087969297E+01 -0.12045552563E+04  0.12255892887E+04  0.91271291511E+02 0.  0.
          2    1    3    3  502    0  0.63426908763E+02 -0.26912750873E+03 -0.12675379624E+04  0.12973453954E+04  0.00000000000E+00 0. -1.
         -1    1    3    3    0  502 -0.19231455100E+02 -0.82546042479E+02 -0.32510704082E+03  0.33597363883E+03  0.00000000000E+00 0.  1.
         13    1    5    5    0    0 -0.90072659015E+02  0.11457402303E+03 -0.12263312701E+03  0.19047092822E+03  0.00000000000E+00 0. -1.
        -13    1    5    5    0    0 -0.16086002506E+03  0.24380832511E+03 -0.97425924167E+02  0.30791274373E+03  0.00000000000E+00 0.  1.
          4    1    6    6  503    0  0.40832985413E+02 -0.19568460595E+02 -0.11842728657E+03  0.12678832577E+03  0.00000000000E+00 0. -1.
         -4    1    6    6    0  503  0.16590424500E+03  0.12859663666E+02 -0.10861279698E+04  0.10988009629E+04  0.00000000000E+00 0.  1.
<mgrwt>
<rscale>  0 0.14722621E+04</rscale>
<asrwt>0</asrwt>
<pdfrwt beam="1">  1        2 0.49035008E+00 0.14722621E+04</pdfrwt>
<pdfrwt beam="2">  1       -1 0.26156361E-01 0.14722621E+04</pdfrwt>
<totfact> 0.19076930E+01</totfact>
</mgrwt>
</event>
<event>
12    7  0.1741211E-007  0.1662047E+04  0.7818608E-02  0.8783311E-01
         -1   -1    0    0    0  501 -0.00000000000E+00  0.00000000000E+00  0.53239823186E+03  0.53239823186E+03  0.00000000000E+00 0.  1.
          2   -1    0    0  501    0  0.00000000000E+00 -0.00000000000E+00 -0.12971493216E+04  0.12971493216E+04  0.00000000000E+00 0. -1.
         24    2    1    2    0    0 -0.30134243772E+03  0.12924608351E+01 -0.81681384773E+03  0.87419618331E+03  0.78899745539E+02 0.  0.
        254    2    1    2    0    0  0.30134243772E+03 -0.12924608351E+01  0.52062757963E+02  0.95535137017E+03  0.90508384943E+03 0.  0.
         23    2    4    4    0    0 -0.30616639638E+03  0.67295823857E+02  0.84263850563E+02  0.33679946925E+03  0.89815899472E+02 0.  0.
         23    2    4    4    0    0  0.60750883410E+03 -0.68588284692E+02 -0.32201092600E+02  0.61855190092E+03  0.88307459786E+02 0.  0.
          4    1    3    3  502    0 -0.15552206886E+03  0.10136601614E+02 -0.52823335275E+03  0.55074525831E+03  0.00000000000E+00 0. -1.
         -3    1    3    3    0  502 -0.14582036886E+03 -0.88441407785E+01 -0.28858049498E+03  0.32345092500E+03  0.00000000000E+00 0.  1.
         13    1    5    5    0    0 -0.12708979326E+02 -0.13002393979E+02 -0.64928599465E+01  0.19306414348E+02  0.00000000000E+00 0. -1.
        -13    1    5    5    0    0 -0.29345741705E+03  0.80298217836E+02  0.90756710510E+02  0.31749305491E+03  0.00000000000E+00 0.  1.
          4    1    6    6  503    0  0.51605807283E+02  0.16031148392E+02 -0.14573553825E+02  0.55969148066E+02  0.00000000000E+00 0. -1.
         -4    1    6    6    0  503  0.55590302682E+03 -0.84619433084E+02 -0.17627538775E+02  0.56258275285E+03  0.00000000000E+00 0.  1.
<mgrwt>
<rscale>  0 0.16620469E+04</rscale>
<asrwt>0</asrwt>
<pdfrwt beam="1">  1        2 0.19956143E+00 0.16620469E+04</pdfrwt>
<pdfrwt beam="2">  1       -1 0.81907421E-01 0.16620469E+04</pdfrwt>
<totfact> 0.26780518E+01</totfact>
</mgrwt>
</event>
<event>
12    7  0.1741211E-007  0.1864947E+04  0.7818608E-02  0.8672504E-01
          2   -1    0    0  501    0  0.00000000000E+00  0.00000000000E+00  0.13934532791E+04  0.13934532791E+04  0.00000000000E+00 0. -1.
         -1   -1    0    0    0  501 -0.00000000000E+00 -0.00000000000E+00 -0.62399407909E+03  0.62399407909E+03  0.00000000000E+00 0.  1.
         24    2    1    2    0    0 -0.38299497726E+03 -0.57190553435E+03  0.47655775562E+03  0.84080657182E+03  0.78021176189E+02 0.  0.
        254    2    1    2    0    0  0.38299497726E+03  0.57190553435E+03  0.29290144437E+03  0.11766407864E+04  0.90825722744E+03 0.  0.
         23    2    4    4    0    0  0.46911055118E+03  0.32135753339E+03 -0.20003147464E+03  0.60947562790E+03  0.90069843265E+02 0.  0.
         23    2    4    4    0    0 -0.86115573918E+02  0.25054800096E+03  0.49293291901E+03  0.56716515847E+03  0.92213130732E+02 0.  0.
          2    1    3    3  502    0 -0.36773237363E+03 -0.52370950689E+03  0.45808661189E+03  0.78698290339E+03  0.00000000000E+00 0. -1.
         -1    1    3    3    0  502 -0.15262603625E+02 -0.48196027462E+02  0.18471143732E+02  0.53823668431E+02  0.00000000000E+00 0.  1.
         13    1    5    5    0    0  0.25333197938E+02  0.48351267590E+02 -0.22338992847E+02  0.58980052532E+02  0.00000000000E+00 0.  1.
        -13    1    5    5    0    0  0.44377735324E+03  0.27300626580E+03 -0.17769248179E+03  0.55049557537E+03  0.00000000000E+00 0. -1.
          3    1    6    6  503    0 -0.39487551464E+02  0.22141992017E+03  0.41056846612E+03  0.46813728023E+03  0.00000000000E+00 0. -1.
         -3    1    6    6    0  503 -0.46628022454E+02  0.29128080795E+02  0.82364452884E+02  0.99027878234E+02  0.00000000000E+00 0.  1.
<mgrwt>
<rscale>  0 0.18649468E+04</rscale>
<asrwt>0</asrwt>
<pdfrwt beam="1">  1        2 0.21437743E+00 0.18649468E+04</pdfrwt>
<pdfrwt beam="2">  1       -1 0.95999090E-01 0.18649468E+04</pdfrwt>
<totfact> 0.16340163E+01</totfact>
</mgrwt>
</event>
<event>
12    7  0.1741211E-007  0.1828844E+04  0.7818608E-02  0.8691109E-01
          2   -1    0    0  501    0  0.00000000000E+00  0.00000000000E+00  0.43404979578E+04  0.43404979578E+04  0.00000000000E+00 0. -1.
         -1   -1    0    0    0  501 -0.00000000000E+00 -0.00000000000E+00 -0.19264313734E+03  0.19264313734E+03  0.00000000000E+00 0.  1.
         24    2    1    2    0    0  0.63385315559E+03 -0.20914391475E+03  0.16227488368E+04  0.17563561947E+04  0.77215900050E+02 0.  0.
        254    2    1    2    0    0 -0.63385315559E+03  0.20914391475E+03  0.25251059837E+04  0.27767849005E+04  0.94279539402E+03 0.  0.
         23    2    4    4    0    0 -0.86599344663E+03  0.86882562332E+02  0.19826665093E+04  0.21672159776E+04  0.91462436796E+02 0.  0.
         23    2    4    4    0    0  0.23214029103E+03  0.12226135242E+03  0.54243947440E+03  0.60956892291E+03  0.92177737920E+02 0.  0.
          4    1    3    3  502    0  0.78381992576E+02 -0.13115881718E+02  0.25666031107E+03  0.26868248620E+03  0.00000000000E+00 0. -1.
         -3    1    3    3    0  502  0.55547116302E+03 -0.19602803304E+03  0.13660885258E+04  0.14876737085E+04  0.00000000000E+00 0.  1.
         13    1    5    5    0    0 -0.40463060186E+01  0.56902293070E+01  0.57851962443E+01  0.90675133057E+01  0.00000000000E+00 0.  1.
        -13    1    5    5    0    0 -0.86194714061E+03  0.81192333025E+02  0.19768813130E+04  0.21581484643E+04  0.00000000000E+00 0. -1.
          1    1    6    6  503    0  0.16187279847E+03  0.10215027569E+03  0.29580307134E+03  0.35233072350E+03  0.00000000000E+00 0. -1.
         -1    1    6    6    0  503  0.70267492563E+02  0.20111076730E+02  0.24663640306E+03  0.25723819941E+03  0.00000000000E+00 0.  1.
<mgrwt>
<rscale>  0 0.18288435E+04</rscale>
<asrwt>0</asrwt>
<pdfrwt beam="1">  1        2 0.66776884E+00 0.18288435E+04</pdfrwt>
<pdfrwt beam="2">  1       -1 0.29637409E-01 0.18288435E+04</pdfrwt>
<totfact> 0.19851432E+00</totfact>
</mgrwt>
</event>
<event>
12    7  0.1741211E-007  0.1301778E+04  0.7818608E-02  0.9028156E-01
          2   -1    0    0  501    0  0.00000000000E+00  0.00000000000E+00  0.30426123847E+03  0.30426123847E+03  0.00000000000E+00 0. -1.
         -1   -1    0    0    0  501 -0.00000000000E+00 -0.00000000000E+00 -0.13924110570E+04  0.13924110570E+04  0.00000000000E+00 0.  1.
         24    2    1    2    0    0  0.32578253985E+03 -0.75901029814E+02 -0.23951650849E+03  0.41865727581E+03  0.77527589575E+02 0.  0.
        254    2    1    2    0    0 -0.32578253985E+03  0.75901029814E+02 -0.84863331003E+03  0.12780150196E+04  0.89512494432E+03 0.  0.
         23    2    4    4    0    0 -0.60488970092E+03  0.39249123161E+02 -0.74009392563E+03  0.96213134730E+03  0.10259467215E+03 0.  0.
         23    2    4    4    0    0  0.27910716107E+03  0.36651906653E+02 -0.10853938440E+03  0.31588367235E+03  0.93581658829E+02 0.  0.
          2    1    3    3  502    0  0.23128261884E+03 -0.71332860705E+02 -0.13291845060E+03  0.27612921125E+03  0.00000000000E+00 0. -1.
         -1    1    3    3    0  502  0.94499921013E+02 -0.45681691091E+01 -0.10659805790E+03  0.14252806456E+03  0.00000000000E+00 0.  1.
         13    1    5    5    0    0 -0.18311352056E+03 -0.63058828740E+01 -0.15856815989E+03  0.24231010483E+03  0.00000000000E+00 0.  1.
        -13    1    5    5    0    0 -0.42177618036E+03  0.45555006035E+02 -0.58152576574E+03  0.71982124247E+03  0.00000000000E+00 0. -1.
          1    1    6    6  503    0  0.28136241520E+03  0.23240285795E+02 -0.10800044350E+03  0.30227308079E+03  0.00000000000E+00 0. -1.
         -1    1    6    6    0  503 -0.22552541370E+01  0.13411620858E+02 -0.53894089915E+00  0.13610591558E+02  0.00000000000E+00 0.  1.
<mgrwt>
<rscale>  0 0.13017783E+04</rscale>
<asrwt>0</asrwt>
<pdfrwt beam="1">  1        2 0.46809423E-01 0.13017783E+04</pdfrwt>
<pdfrwt beam="2">  1       -1 0.21421708E+00 0.13017783E+04</pdfrwt>
<totfact> 0.14609383E+01</totfact>
</mgrwt>
</event>
<event>
12    7  0.1741211E-007  0.3096333E+04  0.7818608E-02  0.8216745E-01
         -1   -1    0    0    0  501 -0.00000000000E+00  0.00000000000E+00  0.10742816987E+04  0.10742816987E+04  0.00000000000E+00 0.  1.
          2   -1    0    0  501    0  0.00000000000E+00 -0.00000000000E+00 -0.22310899825E+04  0.22310899825E+04  0.00000000000E+00 0. -1.
         24    2    1    2    0    0  0.99065302696E+03  0.88572479156E+02  0.54302846523E+03  0.11370534812E+04  0.93660030295E+02 0.  0.
        254    2    1    2    0    0 -0.99065302696E+03 -0.88572479156E+02 -0.16998367490E+04  0.21683182000E+04  0.90714956833E+03 0.  0.
         23    2    4    4    0    0 -0.99248180501E+02 -0.19190736532E+03 -0.99902666213E+03  0.10260595215E+04  0.89806635231E+02 0.  0.
         23    2    4    4    0    0 -0.89140484646E+03  0.10333488617E+03 -0.70081008685E+03  0.11422586785E+04  0.91320380260E+02 0.  0.
          4    1    3    3  502    0  0.95990543642E+03  0.96071494730E+02  0.50962906259E+03  0.10910407694E+04  0.00000000000E+00 0. -1.
         -3    1    3    3    0  502  0.30747590542E+02 -0.74990155741E+01  0.33399402635E+02  0.46012711886E+02  0.00000000000E+00 0.  1.
         13    1    5    5    0    0 -0.17513660496E+02 -0.95758228449E+02 -0.59100001674E+03  0.59896359356E+03  0.00000000000E+00 0. -1.
        -13    1    5    5    0    0 -0.81734520006E+02 -0.96149136876E+02 -0.40802664539E+03  0.42709592790E+03  0.00000000000E+00 0.  1.
          3    1    6    6  503    0 -0.88923862270E+03  0.97111384017E+02 -0.69947358844E+03  0.11355347859E+04  0.00000000000E+00 0. -1.
         -3    1    6    6    0  503 -0.21662237591E+01  0.62235021520E+01 -0.13364984109E+01  0.67238926532E+01  0.00000000000E+00 0.  1.
<mgrwt>
<rscale>  0 0.30963328E+04</rscale>
<asrwt>0</asrwt>
<pdfrwt beam="1">  1        2 0.34324461E+00 0.30963328E+04</pdfrwt>
<pdfrwt beam="2">  1       -1 0.16527411E+00 0.30963328E+04</pdfrwt>
<totfact> 0.12772952E+00</totfact>
</mgrwt>
</event>
<event>
12    7  0.1741211E-007  0.1690451E+04  0.7818608E-02  0.8766829E-01
         -1   -1    0    0    0  501 -0.00000000000E+00  0.00000000000E+00  0.59583475960E+03  0.59583475960E+03  0.00000000000E+00 0.  1.
          2   -1    0    0  501    0  0.00000000000E+00 -0.00000000000E+00 -0.11990002572E+04  0.11990002572E+04  0.00000000000E+00 0. -1.
         24    2    1    2    0    0  0.28555933146E+03 -0.51390268159E+03 -0.60940637134E+02  0.59672988333E+03  0.82052997993E+02 0.  0.
        254    2    1    2    0    0 -0.28555933146E+03  0.51390268159E+03 -0.54222486051E+03  0.11981051335E+04  0.89208072149E+03 0.  0.
         23    2    4    4    0    0 -0.52332584234E+03  0.13025536100E+03 -0.94158054140E+02  0.55544741352E+03  0.93913224331E+02 0.  0.
         23    2    4    4    0    0  0.23776651088E+03  0.38364732060E+03 -0.44806680637E+03  0.64265771999E+03  0.92341224753E+02 0.  0.
          4    1    3    3  502    0  0.23128740058E+03 -0.42568551103E+03 -0.18548163101E+02  0.48481548070E+03  0.00000000000E+00 0. -1.
         -3    1    3    3    0  502  0.54271930876E+02 -0.88217170559E+02 -0.42392474033E+02  0.11191440263E+03  0.00000000000E+00 0.  1.
         13    1    5    5    0    0 -0.29394402976E+03  0.49293423091E+02 -0.10570386125E+02  0.29823592550E+03  0.00000000000E+00 0.  1.
        -13    1    5    5    0    0 -0.22938181257E+03  0.80961937905E+02 -0.83587668016E+02  0.25721148803E+03  0.00000000000E+00 0. -1.
          3    1    6    6  503    0  0.81798148795E+02  0.61585590656E+02 -0.87861561817E+02  0.13491988796E+03  0.00000000000E+00 0. -1.
         -3    1    6    6    0  503  0.15596836208E+03  0.32206172994E+03 -0.36020524456E+03  0.50773783202E+03  0.00000000000E+00 0.  1.
<mgrwt>
<rscale>  0 0.16904509E+04</rscale>
<asrwt>0</asrwt>
<pdfrwt beam="1">  1        2 0.18446158E+00 0.16904509E+04</pdfrwt>
<pdfrwt beam="2">  1       -1 0.91666886E-01 0.16904509E+04</pdfrwt>
<totfact> 0.23888848E+01</totfact>
</mgrwt>
</event>
<event>
12    7  0.1741211E-007  0.2016662E+04  0.7818608E-02  0.8598870E-01
          2   -1    0    0  501    0  0.00000000000E+00  0.00000000000E+00  0.22190119710E+04  0.22190119710E+04  0.00000000000E+00 0. -1.
         -1   -1    0    0    0  501 -0.00000000000E+00 -0.00000000000E+00 -0.45819119325E+03  0.45819119325E+03  0.00000000000E+00 0.  1.
         24    2    1    2    0    0  0.29400199568E+03 -0.24400155895E+03 -0.23775054680E+03  0.45689030778E+03  0.79053757701E+02 0.  0.
        254    2    1    2    0    0 -0.29400199568E+03  0.24400155895E+03  0.19985713246E+04  0.22203128565E+04  0.88855382900E+03 0.  0.
         23    2    4    4    0    0 -0.18818149967E+03 -0.25453917374E+03  0.13544134926E+04  0.13939713464E+04  0.92291590919E+02 0.  0.
         23    2    4    4    0    0 -0.10582049601E+03  0.49854073269E+03  0.64415783193E+03  0.82634151008E+03  0.90333489482E+02 0.  0.
          4    1    3    3  502    0  0.11910683006E+03 -0.78347136855E+02 -0.13022370383E+03  0.19308786565E+03  0.00000000000E+00 0. -1.
         -3    1    3    3    0  502  0.17489516561E+03 -0.16565442210E+03 -0.10752684297E+03  0.26380244213E+03  0.00000000000E+00 0.  1.
         13    1    5    5    0    0 -0.68882495858E+02 -0.29358914972E+02  0.31392790461E+03  0.32273436975E+03  0.00000000000E+00 0.  1.
        -13    1    5    5    0    0 -0.11929900381E+03 -0.22518025876E+03  0.10404855880E+04  0.10712369767E+04  0.00000000000E+00 0. -1.
          3    1    6    6  503    0 -0.71488807347E+02  0.13860814606E+03  0.20027138986E+03  0.25383360165E+03  0.00000000000E+00 0. -1.
         -3    1    6    6    0  503 -0.34331688663E+02  0.35993258663E+03  0.44388644207E+03  0.57250790843E+03  0.00000000000E+00 0.  1.
<mgrwt>
<rscale>  0 0.20166623E+04</rscale>
<asrwt>0</asrwt>
<pdfrwt beam="1">  1        2 0.34138645E+00 0.20166623E+04</pdfrwt>
<pdfrwt beam="2">  1       -1 0.70490954E-01 0.20166623E+04</pdfrwt>
<totfact> 0.10822649E+01</totfact>
</mgrwt>
</event>
<event>
12    7  0.1741211E-007  0.1447044E+04  0.7818608E-02  0.8920453E-01
          2   -1    0    0  501    0  0.00000000000E+00  0.00000000000E+00  0.21084305478E+04  0.21084305478E+04  0.00000000000E+00 0. -1.
         -1   -1    0    0    0  501 -0.00000000000E+00 -0.00000000000E+00 -0.24828126713E+03  0.24828126713E+03  0.00000000000E+00 0.  1.
         24    2    1    2    0    0 -0.18419054676E+03 -0.26488793723E+03  0.10650170427E+04  0.11157363734E+04  0.80712928923E+02 0.  0.
        254    2    1    2    0    0  0.18419054676E+03  0.26488793723E+03  0.79513223792E+03  0.12409754415E+04  0.89648926026E+03 0.  0.
         23    2    4    4    0    0  0.19664879627E+03  0.43997492842E+03  0.89395855854E+03  0.10195139190E+04  0.89431761323E+02 0.  0.
         23    2    4    4    0    0 -0.12458249502E+02 -0.17508699119E+03 -0.98826320625E+02  0.22146152248E+03  0.92021203120E+02 0.  0.
          4    1    3    3  502    0 -0.15303726592E+03 -0.16356691275E+03  0.78476967442E+03  0.81611150072E+03  0.00000000000E+00 0. -1.
         -3    1    3    3    0  502 -0.31153280840E+02 -0.10132102448E+03  0.28024736828E+03  0.29962487269E+03  0.00000000000E+00 0.  1.
         13    1    5    5    0    0  0.13845540354E+02  0.11533041436E+03  0.18080746582E+03  0.21490496309E+03  0.00000000000E+00 0. -1.
        -13    1    5    5    0    0  0.18280325591E+03  0.32464451406E+03  0.71315109272E+03  0.80460895591E+03  0.00000000000E+00 0.  1.
          1    1    6    6  503    0 -0.32038534527E+02 -0.15331115547E+03 -0.10859855164E+03  0.19058967313E+03  0.00000000000E+00 0. -1.
         -1    1    6    6    0  503  0.19580285025E+02 -0.21775835722E+02  0.97722310127E+01  0.30871849346E+02  0.00000000000E+00 0.  1.
<mgrwt>
<rscale>  0 0.14470436E+04</rscale>
<asrwt>0</asrwt>
<pdfrwt beam="1">  1        2 0.32437392E+00 0.14470436E+04</pdfrwt>
<pdfrwt beam="2">  1       -1 0.38197119E-01 0.14470436E+04</pdfrwt>
<totfact> 0.42590019E+01</totfact>
</mgrwt>
</event>
<event>
12    7  0.1741211E-007  0.1935173E+04  0.7818608E-02  0.8637544E-01
          2   -1    0    0  501    0  0.00000000000E+00  0.00000000000E+00  0.18870916595E+04  0.18870916595E+04  0.00000000000E+00 0. -1.
         -1   -1    0    0    0  501 -0.00000000000E+00 -0.00000000000E+00 -0.49611967115E+03  0.49611967115E+03  0.00000000000E+00 0.  1.
         24    2    1    2    0    0  0.59725587631E+03  0.88457097224E+02  0.11112337475E+04  0.12669291096E+04  0.75694698305E+02 0.  0.
        254    2    1    2    0    0 -0.59725587631E+03 -0.88457097224E+02  0.27973824089E+03  0.11162822211E+04  0.89626629627E+03 0.  0.
         23    2    4    4    0    0 -0.14665627360E+03 -0.39420018685E+03 -0.10555300126E+03  0.44278759290E+03  0.89540864660E+02 0.  0.
         23    2    4    4    0    0 -0.45059960271E+03  0.30574308963E+03  0.38529124215E+03  0.67349462817E+03  0.92880751966E+02 0.  0.
          2    1    3    3  502    0  0.49434355381E+03  0.44462569112E+02  0.92018034148E+03  0.10455067336E+04  0.00000000000E+00 0. -1.
         -1    1    3    3    0  502  0.10291232251E+03  0.43994528112E+02  0.19105340602E+03  0.22142237597E+03  0.00000000000E+00 0.  1.
         13    1    5    5    0    0 -0.40856352245E+02 -0.46110979009E+02 -0.39066155892E+02  0.72949492391E+02  0.00000000000E+00 0. -1.
        -13    1    5    5    0    0 -0.10579992136E+03 -0.34808920785E+03 -0.66486845368E+02  0.36983810051E+03  0.00000000000E+00 0.  1.
          2    1    6    6  503    0 -0.22479996531E+03  0.13611952341E+03  0.24000216001E+03  0.35589968512E+03  0.00000000000E+00 0. -1.
         -2    1    6    6    0  503 -0.22579963740E+03  0.16962356622E+03  0.14528908214E+03  0.31759494306E+03  0.00000000000E+00 0.  1.
<mgrwt>
<rscale>  0 0.19351726E+04</rscale>
<asrwt>0</asrwt>
<pdfrwt beam="1">  1        2 0.29032179E+00 0.19351726E+04</pdfrwt>
<pdfrwt beam="2">  1       -1 0.76326104E-01 0.19351726E+04</pdfrwt>
<totfact> 0.14147566E+01</totfact>
</mgrwt>
</event>
<event>
12    7  0.1741211E-007  0.2971024E+04  0.7818608E-02  0.8252054E-01
          2   -1    0    0  501    0  0.00000000000E+00  0.00000000000E+00  0.11470870431E+04  0.11470870431E+04  0.00000000000E+00 0. -1.
         -1   -1    0    0    0  501 -0.00000000000E+00 -0.00000000000E+00 -0.19237822296E+04  0.19237822296E+04  0.00000000000E+00 0.  1.
         24    2    1    2    0    0 -0.15509709294E+03  0.13288167113E+04 -0.20509959160E+03  0.13558351301E+04  0.80088057832E+02 0.  0.
        254    2    1    2    0    0  0.15509709294E+03 -0.13288167113E+04 -0.57159559495E+03  0.17150341426E+04  0.90819140373E+03 0.  0.
         23    2    4    4    0    0  0.44329491393E+03 -0.11766017517E+04 -0.33984398388E+03  0.13050274371E+04  0.81857286933E+02 0.  0.
         23    2    4    4    0    0 -0.28819782099E+03 -0.15221495957E+03 -0.23175161107E+03  0.41000670551E+03  0.90384243021E+02 0.  0.
          2    1    3    3  502    0 -0.11960973730E+03  0.10583812618E+04 -0.13063894700E+03  0.10731001440E+04  0.00000000000E+00 0. -1.
         -1    1    3    3    0  502 -0.35487355645E+02  0.27043544953E+03 -0.74460644595E+02  0.28273498610E+03  0.00000000000E+00 0.  1.
         13    1    5    5    0    0  0.32754085678E+03 -0.77134251712E+03 -0.20821946095E+03  0.86348574713E+03  0.00000000000E+00 0.  1.
        -13    1    5    5    0    0  0.11575405715E+03 -0.40525923461E+03 -0.13162452293E+03  0.44154169001E+03  0.00000000000E+00 0. -1.
          4    1    6    6  503    0 -0.24858556965E+02  0.12240403683E+02 -0.17187379353E+02  0.32606461717E+02  0.00000000000E+00 0. -1.
         -4    1    6    6    0  503 -0.26333926403E+03 -0.16445536326E+03 -0.21456423171E+03  0.37740024379E+03  0.00000000000E+00 0.  1.
<mgrwt>
<rscale>  0 0.29710238E+04</rscale>
<asrwt>0</asrwt>
<pdfrwt beam="1">  1        2 0.17647493E+00 0.29710238E+04</pdfrwt>
<pdfrwt beam="2">  1       -1 0.29596650E+00 0.29710238E+04</pdfrwt>
<totfact> 0.69896342E-01</totfact>
</mgrwt>
</event>
<event>
12    7  0.1741211E-007  0.1568847E+04  0.7818608E-02  0.8839919E-01
          2   -1    0    0  501    0  0.00000000000E+00  0.00000000000E+00  0.29816470059E+04  0.29816470059E+04  0.00000000000E+00 0. -1.
         -1   -1    0    0    0  501 -0.00000000000E+00 -0.00000000000E+00 -0.20636914192E+03  0.20636914192E+03  0.00000000000E+00 0.  1.
         24    2    1    2    0    0 -0.56928965672E+02 -0.51645419284E+03  0.10359664018E+04  0.11617426697E+04  0.80335574304E+02 0.  0.
        254    2    1    2    0    0  0.56928965672E+02  0.51645419284E+03  0.17393114622E+04  0.20262734781E+04  0.90034104941E+03 0.  0.
         23    2    4    4    0    0 -0.24690455080E+02 -0.49379162512E+02 -0.69616376485E+02  0.12697006736E+03  0.90703020172E+02 0.  0.
         23    2    4    4    0    0  0.81619420752E+02  0.56583335535E+03  0.18089278386E+04  0.18993034107E+04  0.91128506956E+02 0.  0.
          4    1    3    3  502    0 -0.18436108376E+02 -0.19310208148E+03  0.30408890022E+03  0.36069150697E+03  0.00000000000E+00 0. -1.
         -3    1    3    3    0  502 -0.38492857296E+02 -0.32335211136E+03  0.73187750155E+03  0.80105116270E+03  0.00000000000E+00 0.  1.
         13    1    5    5    0    0 -0.39803948397E+02 -0.60450543191E+02 -0.78032559665E+02  0.10643168160E+03  0.00000000000E+00 0. -1.
        -13    1    5    5    0    0  0.15113493317E+02  0.11071380679E+02  0.84161831803E+01  0.20538385762E+02  0.00000000000E+00 0.  1.
          2    1    6    6  503    0  0.35294664345E+01  0.15264680734E+03  0.60821972418E+03  0.62709228811E+03  0.00000000000E+00 0. -1.
         -2    1    6    6    0  503  0.78089954318E+02  0.41318654801E+03  0.12007081145E+04  0.12722111226E+04  0.00000000000E+00 0.  1.
<mgrwt>
<rscale>  0 0.15688466E+04</rscale>
<asrwt>0</asrwt>
<pdfrwt beam="1">  1        2 0.45871489E+00 0.15688466E+04</pdfrwt>
<pdfrwt beam="2">  1       -1 0.31749101E-01 0.15688466E+04</pdfrwt>
<totfact> 0.18179434E+01</totfact>
</mgrwt>
</event>
<event>
12    7  0.1741211E-007  0.4112736E+04  0.7818608E-02  0.7982182E-01
         -1   -1    0    0    0  501 -0.00000000000E+00  0.00000000000E+00  0.94842690699E+03  0.94842690699E+03  0.00000000000E+00 0.  1.
          2   -1    0    0  501    0  0.00000000000E+00 -0.00000000000E+00 -0.44585920999E+04  0.44585920999E+04  0.00000000000E+00 0. -1.
         24    2    1    2    0    0  0.10251113387E+04  0.14814043555E+04 -0.66842449469E+03  0.19230201296E+04  0.76177374621E+02 0.  0.
        254    2    1    2    0    0 -0.10251113387E+04 -0.14814043555E+04 -0.28417406982E+04  0.34839988773E+04  0.90407182238E+03 0.  0.
         23    2    4    4    0    0 -0.49144244820E+03 -0.33493652315E+03 -0.15996945550E+04  0.17090970245E+04  0.91059404756E+02 0.  0.
         23    2    4    4    0    0 -0.53366889049E+03 -0.11464678324E+04 -0.12420461432E+04  0.17749018529E+04  0.91689640361E+02 0.  0.
          2    1    3    3  502    0  0.22565687325E+03  0.29155709637E+03 -0.16214801801E+03  0.40276363370E+03  0.00000000000E+00 0. -1.
         -1    1    3    3    0  502  0.79945446544E+03  0.11898472591E+04 -0.50627647668E+03  0.15202564959E+04  0.00000000000E+00 0.  1.
         13    1    5    5    0    0 -0.47915693375E+03 -0.33709821446E+03 -0.15307058436E+04  0.16389896135E+04  0.00000000000E+00 0. -1.
        -13    1    5    5    0    0 -0.12285514448E+02  0.21616913062E+01 -0.68988711410E+02  0.70107410996E+02  0.00000000000E+00 0.  1.
          2    1    6    6  503    0 -0.39334648658E+03 -0.91586625333E+03 -0.94491780494E+03  0.13734635454E+04  0.00000000000E+00 0. -1.
         -2    1    6    6    0  503 -0.14032240392E+03 -0.23060157903E+03 -0.29712833824E+03  0.40143830744E+03  0.00000000000E+00 0.  1.
<mgrwt>
<rscale>  0 0.41127357E+04</rscale>
<asrwt>0</asrwt>
<pdfrwt beam="1">  1        2 0.68593724E+00 0.41127357E+04</pdfrwt>
<pdfrwt beam="2">  1       -1 0.14591183E+00 0.41127357E+04</pdfrwt>
<totfact> 0.44651395E-02</totfact>
</mgrwt>
</event>
<event>
12    7  0.1741211E-007  0.3420369E+04  0.7818608E-02  0.8132925E-01
         -1   -1    0    0    0  501 -0.00000000000E+00  0.00000000000E+00  0.17179362395E+04  0.17179362395E+04  0.00000000000E+00 0.  1.
          2   -1    0    0  501    0  0.00000000000E+00 -0.00000000000E+00 -0.17024681122E+04  0.17024681122E+04  0.00000000000E+00 0. -1.
         24    2    1    2    0    0  0.50458496165E+03 -0.11396528875E+02 -0.15032187218E+04  0.15876167762E+04  0.78260068568E+02 0.  0.
        254    2    1    2    0    0 -0.50458496165E+03  0.11396528875E+02  0.15186868492E+04  0.18327875755E+04  0.89328869160E+03 0.  0.
         23    2    4    4    0    0 -0.18750208095E+03 -0.40965673427E+03  0.48027711045E+03  0.66474755550E+03  0.90815964624E+02 0.  0.
         23    2    4    4    0    0 -0.31708288070E+03  0.42105326315E+03  0.10384097387E+04  0.11680400199E+04  0.90527891392E+02 0.  0.
          4    1    3    3  502    0  0.39055221740E+03  0.93564121743E+01 -0.12380219037E+04  0.12981975239E+04  0.00000000000E+00 0. -1.
         -3    1    3    3    0  502  0.11403274425E+03 -0.20752941049E+02 -0.26519681804E+03  0.28941925234E+03  0.00000000000E+00 0.  1.
         13    1    5    5    0    0 -0.57230842078E+02 -0.12461299511E+03  0.89195830766E+02  0.16358381356E+03  0.00000000000E+00 0. -1.
        -13    1    5    5    0    0 -0.13027123887E+03 -0.28504373917E+03  0.39108127968E+03  0.50116374194E+03  0.00000000000E+00 0.  1.
          3    1    6    6  503    0 -0.11197592972E+03  0.83239486525E+02  0.27990575288E+03  0.31275333963E+03  0.00000000000E+00 0. -1.
         -3    1    6    6    0  503 -0.20510695098E+03  0.33781377662E+03  0.75850398583E+03  0.85528668032E+03  0.00000000000E+00 0.  1.
<mgrwt>
<rscale>  0 0.34203694E+04</rscale>
<asrwt>0</asrwt>
<pdfrwt beam="1">  1        2 0.26191817E+00 0.34203694E+04</pdfrwt>
<pdfrwt beam="2">  1       -1 0.26429788E+00 0.34203694E+04</pdfrwt>
<totfact> 0.51774379E-01</totfact>
</mgrwt>
</event>
<event>
12    7  0.1741211E-007  0.1592819E+04  0.7818608E-02  0.8824972E-01
         -1   -1    0    0    0  501 -0.00000000000E+00  0.00000000000E+00  0.32041124471E+03  0.32041124471E+03  0.00000000000E+00 0.  1.
          2   -1    0    0  501    0  0.00000000000E+00 -0.00000000000E+00 -0.19795439693E+04  0.19795439693E+04  0.00000000000E+00 0. -1.
         24    2    1    2    0    0 -0.43969857812E+03  0.30487625165E+03 -0.58302111546E+03  0.79537560025E+03  0.80152080392E+02 0.  0.
        254    2    1    2    0    0  0.43969857812E+03 -0.30487625165E+03 -0.10761116091E+04  0.15045796138E+04  0.90523988555E+03 0.  0.
         23    2    4    4    0    0  0.37504816862E+03 -0.59579464249E+03 -0.57185513314E+03  0.91154559919E+03  0.90910402524E+02 0.  0.
         23    2    4    4    0    0  0.64650409492E+02  0.29091839085E+03 -0.50425647600E+03  0.59303401457E+03  0.92744613162E+02 0.  0.
          2    1    3    3  502    0 -0.24677074573E+03  0.16102009285E+03 -0.37764202979E+03  0.47899558861E+03  0.00000000000E+00 0. -1.
         -1    1    3    3    0  502 -0.19292783239E+03  0.14385615880E+03 -0.20537908567E+03  0.31638001164E+03  0.00000000000E+00 0.  1.
         13    1    5    5    0    0  0.32250234964E+03 -0.46185887851E+03 -0.48610076470E+03  0.74405331975E+03  0.00000000000E+00 0. -1.
        -13    1    5    5    0    0  0.52545818988E+02 -0.13393576398E+03 -0.85754368436E+02  0.16749227944E+03  0.00000000000E+00 0.  1.
          4    1    6    6  503    0  0.60724100572E+02  0.26535819505E+03 -0.38820735413E+03  0.47413852182E+03  0.00000000000E+00 0. -1.
         -4    1    6    6    0  503  0.39263089200E+01  0.25560195800E+02 -0.11604912186E+03  0.11889549275E+03  0.00000000000E+00 0.  1.
<mgrwt>
<rscale>  0 0.15928191E+04</rscale>
<asrwt>0</asrwt>
<pdfrwt beam="1">  1        2 0.30454522E+00 0.15928191E+04</pdfrwt>
<pdfrwt beam="2">  1       -1 0.49294038E-01 0.15928191E+04</pdfrwt>
<totfact> 0.30918356E+01</totfact>
</mgrwt>
</event>
<event>
12    7  0.1741211E-007  0.1663984E+04  0.7818608E-02  0.8782177E-01
         -1   -1    0    0    0  501 -0.00000000000E+00  0.00000000000E+00  0.10002390280E+04  0.10002390280E+04  0.00000000000E+00 0.  1.
          2   -1    0    0  501    0  0.00000000000E+00 -0.00000000000E+00 -0.69204508054E+03  0.69204508054E+03  0.00000000000E+00 0. -1.
         24    2    1    2    0    0  0.22486593340E+03 -0.32045965235E+03  0.56216263325E+03  0.68984679108E+03  0.81256951372E+02 0.  0.
        254    2    1    2    0    0 -0.22486593340E+03  0.32045965235E+03 -0.25396868583E+03  0.10024373174E+04  0.88719862782E+03 0.  0.
         23    2    4    4    0    0 -0.51873597324E+03  0.38111292761E+03 -0.12137645393E+03  0.66173390802E+03  0.93943855206E+02 0.  0.
         23    2    4    4    0    0  0.29387003984E+03 -0.60653275264E+02 -0.13259223190E+03  0.34070340940E+03  0.91976589975E+02 0.  0.
          2    1    3    3  502    0 -0.20081161510E+01 -0.23393427616E+02  0.55153707949E+02  0.59943444067E+02  0.00000000000E+00 0. -1.
         -1    1    3    3    0  502  0.22687404955E+03 -0.29706622473E+03  0.50700892530E+03  0.62990334701E+03  0.00000000000E+00 0.  1.
         13    1    5    5    0    0 -0.76933205732E+02  0.10250892635E+03 -0.26361079160E+02  0.13084993167E+03  0.00000000000E+00 0.  1.
        -13    1    5    5    0    0 -0.44180276751E+03  0.27860400126E+03 -0.95015374770E+02  0.53088397635E+03  0.00000000000E+00 0. -1.
          2    1    6    6  503    0  0.29315452165E+03 -0.71911906242E+02 -0.12318500677E+03  0.32601448084E+03  0.00000000000E+00 0. -1.
         -2    1    6    6    0  503  0.71551819031E+00  0.11258630978E+02 -0.94072251275E+01  0.14688928565E+02  0.00000000000E+00 0.  1.
<mgrwt>
<rscale>  0 0.16639838E+04</rscale>
<asrwt>0</asrwt>
<pdfrwt beam="1">  1        2 0.10646847E+00 0.16639838E+04</pdfrwt>
<pdfrwt beam="2">  1       -1 0.15388293E+00 0.16639838E+04</pdfrwt>
<totfact> 0.14746695E+01</totfact>
</mgrwt>
</event>
<event>
12    7  0.1741211E-007  0.1443910E+04  0.7818608E-02  0.8922634E-01
          2   -1    0    0  501    0  0.00000000000E+00  0.00000000000E+00  0.22090100573E+04  0.22090100573E+04  0.00000000000E+00 0. -1.
         -1   -1    0    0    0  501 -0.00000000000E+00 -0.00000000000E+00 -0.23595133268E+03  0.23595133268E+03  0.00000000000E+00 0.  1.
         24    2    1    2    0    0  0.72763517307E+02  0.47573059861E+02 -0.11765251156E+03  0.16682831498E+03  0.80198801289E+02 0.  0.
        254    2    1    2    0    0 -0.72763517307E+02 -0.47573059861E+02  0.20907112362E+04  0.22781330750E+04  0.90069923329E+03 0.  0.
         23    2    4    4    0    0  0.26927701153E+03  0.18460542683E+03  0.15728606457E+04  0.16088877906E+04  0.89666265577E+02 0.  0.
         23    2    4    4    0    0 -0.34204052884E+03 -0.23217848669E+03  0.51785059044E+03  0.66924528443E+03  0.93922540786E+02 0.  0.
          2    1    3    3  502    0  0.62653237062E+02  0.44659000217E+02 -0.36789758486E+02  0.85283883262E+02  0.00000000000E+00 0. -1.
         -1    1    3    3    0  502  0.10110280245E+02  0.29140596441E+01 -0.80862753069E+02  0.81544431718E+02  0.00000000000E+00 0.  1.
         13    1    5    5    0    0  0.81624712958E+02  0.10659440028E+03  0.68991932301E+03  0.70286103334E+03  0.00000000000E+00 0.  1.
        -13    1    5    5    0    0  0.18765229857E+03  0.78011026547E+02  0.88294132272E+03  0.90602675721E+03  0.00000000000E+00 0. -1.
          4    1    6    6  503    0 -0.19430052190E+03 -0.85760094349E+02  0.21839627865E+03  0.30463818067E+03  0.00000000000E+00 0. -1.
         -4    1    6    6    0  503 -0.14774000694E+03 -0.14641839234E+03  0.29945431179E+03  0.36460710376E+03  0.00000000000E+00 0.  1.
<mgrwt>
<rscale>  0 0.14439098E+04</rscale>
<asrwt>0</asrwt>
<pdfrwt beam="1">  1        2 0.33984769E+00 0.14439098E+04</pdfrwt>
<pdfrwt beam="2">  1       -1 0.36300207E-01 0.14439098E+04</pdfrwt>
<totfact> 0.41041039E+01</totfact>
</mgrwt>
</event>
<event>
12    7  0.1741211E-007  0.2047704E+04  0.7818608E-02  0.8584637E-01
         -1   -1    0    0    0  501 -0.00000000000E+00  0.00000000000E+00  0.25117094637E+03  0.25117094637E+03  0.00000000000E+00 0.  1.
          2   -1    0    0  501    0  0.00000000000E+00 -0.00000000000E+00 -0.41735427908E+04  0.41735427908E+04  0.00000000000E+00 0. -1.
         24    2    1    2    0    0 -0.69569709322E+03 -0.21865422890E+03 -0.74270235584E+03  0.10433726139E+04  0.72218452062E+02 0.  0.
        254    2    1    2    0    0  0.69569709322E+03  0.21865422890E+03 -0.31796694886E+04  0.33813411232E+04  0.88958732993E+03 0.  0.
         23    2    4    4    0    0  0.50265635851E+03 -0.36918964516E+02 -0.29060008067E+04  0.29508060262E+04  0.91591979241E+02 0.  0.
         23    2    4    4    0    0  0.19304073472E+03  0.25557319342E+03 -0.27366868181E+03  0.43053509701E+03  0.88789300575E+02 0.  0.
          2    1    3    3  502    0 -0.90197632030E+02 -0.34068345744E+02 -0.66561620013E+02  0.11716106121E+03  0.00000000000E+00 0. -1.
         -1    1    3    3    0  502 -0.60549946119E+03 -0.18458588316E+03 -0.67614073582E+03  0.92621155273E+03  0.00000000000E+00 0.  1.
         13    1    5    5    0    0  0.48620694182E+03 -0.32623706582E+02 -0.26635034124E+04  0.27077134125E+04  0.00000000000E+00 0.  1.
        -13    1    5    5    0    0  0.16449416686E+02 -0.42952579345E+01 -0.24249739435E+03  0.24309261366E+03  0.00000000000E+00 0. -1.
          1    1    6    6  503    0  0.27848421528E+02  0.34446640272E+02 -0.86073230786E+02  0.96802410433E+02  0.00000000000E+00 0. -1.
         -1    1    6    6    0  503  0.16519231319E+03  0.22112655314E+03 -0.18759545103E+03  0.33373268657E+03  0.00000000000E+00 0.  1.
<mgrwt>
<rscale>  0 0.20477038E+04</rscale>
<asrwt>0</asrwt>
<pdfrwt beam="1">  1        2 0.64208352E+00 0.20477038E+04</pdfrwt>
<pdfrwt beam="2">  1       -1 0.38641683E-01 0.20477038E+04</pdfrwt>
<totfact> 0.16944420E+00</totfact>
</mgrwt>
</event>
<event>
12    7  0.1741211E-007  0.1831234E+04  0.7818608E-02  0.8689864E-01
          2   -1    0    0  501    0  0.00000000000E+00  0.00000000000E+00  0.38140504878E+04  0.38140504878E+04  0.00000000000E+00 0. -1.
         -1   -1    0    0    0  501 -0.00000000000E+00 -0.00000000000E+00 -0.21980694349E+03  0.21980694349E+03  0.00000000000E+00 0.  1.
         24    2    1    2    0    0  0.67597161032E+03 -0.12516493749E+03  0.13614139815E+04  0.15282543383E+04  0.97516224502E+02 0.  0.
        254    2    1    2    0    0 -0.67597161032E+03  0.12516493749E+03  0.22328295628E+04  0.25056030930E+04  0.90549164732E+03 0.  0.
         23    2    4    4    0    0 -0.38206914715E+03 -0.37810896502E+03  0.11429922381E+04  0.12663628695E+04  0.91106741221E+02 0.  0.
         23    2    4    4    0    0 -0.29390246317E+03  0.50327390251E+03  0.10898373248E+04  0.12392402235E+04  0.91146356328E+02 0.  0.
          2    1    3    3  502    0  0.36433014792E+03 -0.87149648268E+02  0.64163150080E+03  0.74298216714E+03  0.00000000000E+00 0. -1.
         -1    1    3    3    0  502  0.31164146239E+03 -0.38015289226E+02  0.71978248071E+03  0.78527217119E+03  0.00000000000E+00 0.  1.
         13    1    5    5    0    0 -0.11803601696E+03 -0.62883312804E+02  0.26381903830E+03  0.29578251689E+03  0.00000000000E+00 0. -1.
        -13    1    5    5    0    0 -0.26403313019E+03 -0.31522565222E+03  0.87917319976E+03  0.97058035259E+03  0.00000000000E+00 0.  1.
          3    1    6    6  503    0 -0.15835895837E+03  0.19027106607E+03  0.41887434863E+03  0.48655560650E+03  0.00000000000E+00 0. -1.
         -3    1    6    6    0  503 -0.13554350480E+03  0.31300283645E+03  0.67096297613E+03  0.75268461699E+03  0.00000000000E+00 0.  1.
<mgrwt>
<rscale>  0 0.18312343E+04</rscale>
<asrwt>0</asrwt>
<pdfrwt beam="1">  1        2 0.58677695E+00 0.18312343E+04</pdfrwt>
<pdfrwt beam="2">  1       -1 0.33816456E-01 0.18312343E+04</pdfrwt>
<totfact> 0.42877568E+00</totfact>
</mgrwt>
</event>
<event>
12    7  0.1741211E-007  0.1224852E+04  0.7818608E-02  0.9091378E-01
          2   -1    0    0  501    0  0.00000000000E+00  0.00000000000E+00  0.47929465224E+03  0.47929465224E+03  0.00000000000E+00 0. -1.
         -1   -1    0    0    0  501 -0.00000000000E+00 -0.00000000000E+00 -0.78253657682E+03  0.78253657682E+03  0.00000000000E+00 0.  1.
         24    2    1    2    0    0 -0.18425949531E+03 -0.22565173727E+03 -0.23028126052E+01  0.30267110076E+03  0.82062318653E+02 0.  0.
        254    2    1    2    0    0  0.18425949531E+03  0.22565173727E+03 -0.30093911198E+03  0.95916012830E+03  0.86287515578E+03 0.  0.
         23    2    4    4    0    0  0.32195165114E+03 -0.22835328204E+03 -0.24327723732E+03  0.47252218354E+03  0.91078606936E+02 0.  0.
         23    2    4    4    0    0 -0.13769215583E+03  0.45400501931E+03 -0.57661874656E+02  0.48663794477E+03  0.91716466155E+02 0.  0.
          4    1    3    3  502    0 -0.99570826131E+02 -0.12830771013E+03  0.39308630924E+02  0.16709992926E+03  0.00000000000E+00 0. -1.
         -3    1    3    3    0  502 -0.84688669182E+02 -0.97344027137E+02 -0.41611443529E+02  0.13557117149E+03  0.00000000000E+00 0.  1.
         13    1    5    5    0    0  0.30817248910E+03 -0.18889089219E+03 -0.20341206236E+03  0.41476079770E+03  0.00000000000E+00 0. -1.
        -13    1    5    5    0    0  0.13779162041E+02 -0.39462389856E+02 -0.39865174960E+02  0.57761385841E+02  0.00000000000E+00 0.  1.
          1    1    6    6  503    0 -0.13097048860E+03  0.34141467394E+03 -0.14785459265E+02  0.36597248294E+03  0.00000000000E+00 0. -1.
         -1    1    6    6    0  503 -0.67216672312E+01  0.11259034537E+03 -0.42876415391E+02  0.12066546182E+03  0.00000000000E+00 0.  1.
<mgrwt>
<rscale>  0 0.12248520E+04</rscale>
<asrwt>0</asrwt>
<pdfrwt beam="1">  1        2 0.73737639E-01 0.12248520E+04</pdfrwt>
<pdfrwt beam="2">  1       -1 0.12039024E+00 0.12248520E+04</pdfrwt>
<totfact> 0.44776317E+01</totfact>
</mgrwt>
</event>
<event>
12    7  0.1741211E-007  0.1408875E+04  0.7818608E-02  0.8947420E-01
         -1   -1    0    0    0  501 -0.00000000000E+00  0.00000000000E+00  0.24189991418E+03  0.24189991418E+03  0.00000000000E+00 0.  1.
          2   -1    0    0  501    0  0.00000000000E+00 -0.00000000000E+00 -0.20513932988E+04  0.20513932988E+04  0.00000000000E+00 0. -1.
         24    2    1    2    0    0 -0.17292879995E+03 -0.80179521764E+01  0.71490983529E+02  0.20358772911E+03  0.79801912936E+02 0.  0.
        254    2    1    2    0    0  0.17292879995E+03  0.80179521764E+01 -0.18809843682E+04  0.20897054839E+04  0.89375508875E+03 0.  0.
         23    2    4    4    0    0 -0.63788874296E+02 -0.25860698223E+03 -0.16055104260E+04  0.16299962194E+04  0.90979972109E+02 0.  0.
         23    2    4    4    0    0  0.23671767424E+03  0.26662493441E+03 -0.27547394215E+03  0.45970926452E+03  0.91228296808E+02 0.  0.
          2    1    3    3  502    0 -0.34951259264E+02 -0.17756332149E+02 -0.13239544410E+02  0.41378296143E+02  0.00000000000E+00 0. -1.
         -1    1    3    3    0  502 -0.13797754068E+03  0.97383799723E+01  0.84730527939E+02  0.16220943296E+03  0.00000000000E+00 0.  1.
         13    1    5    5    0    0 -0.66579820770E+02 -0.12138994626E+03 -0.97032382025E+03  0.98015136980E+03  0.00000000000E+00 0.  1.
        -13    1    5    5    0    0  0.27909464744E+01 -0.13721703597E+03 -0.63518660576E+03  0.64984484955E+03  0.00000000000E+00 0. -1.
          3    1    6    6  503    0 -0.12972464603E+01  0.64717102475E+01  0.57007156549E+01  0.87214701102E+01  0.00000000000E+00 0. -1.
         -3    1    6    6    0  503  0.23801492070E+03  0.26015322416E+03 -0.28117465780E+03  0.45098779441E+03  0.00000000000E+00 0.  1.
<mgrwt>
<rscale>  0 0.14088745E+04</rscale>
<asrwt>0</asrwt>
<pdfrwt beam="1">  1        2 0.31559897E+00 0.14088745E+04</pdfrwt>
<pdfrwt beam="2">  1       -1 0.37215371E-01 0.14088745E+04</pdfrwt>
<totfact> 0.48180606E+01</totfact>
</mgrwt>
</event>
<event>
12    7  0.1741211E-007  0.3341513E+04  0.7818608E-02  0.8152412E-01
          2   -1    0    0  501    0  0.00000000000E+00  0.00000000000E+00  0.19687837253E+04  0.19687837253E+04  0.00000000000E+00 0. -1.
         -1   -1    0    0    0  501 -0.00000000000E+00 -0.00000000000E+00 -0.14178433441E+04  0.14178433441E+04  0.00000000000E+00 0.  1.
         24    2    1    2    0    0  0.14170798642E+04  0.53996327581E+03 -0.60979782481E+02  0.15198723417E+04  0.81349374054E+02 0.  0.
        254    2    1    2    0    0 -0.14170798642E+04 -0.53996327581E+03  0.61192016368E+03  0.18667547277E+04  0.90036173065E+03 0.  0.
         23    2    4    4    0    0 -0.93380556715E+03 -0.65851411580E+03  0.10593298652E+03  0.11510089134E+04  0.89252692330E+02 0.  0.
         23    2    4    4    0    0 -0.48327429701E+03  0.11855083999E+03  0.50598717716E+03  0.71574581432E+03  0.93062879024E+02 0.  0.
          2    1    3    3  502    0  0.86605059543E+03  0.31855784377E+03 -0.75358370666E+02  0.92585183356E+03  0.00000000000E+00 0. -1.
         -1    1    3    3    0  502  0.55102926873E+03  0.22140543204E+03  0.14378588184E+02  0.59402050817E+03  0.00000000000E+00 0.  1.
         13    1    5    5    0    0 -0.47423138096E+02 -0.17138816796E+02 -0.77888402658E+01  0.51023123197E+02  0.00000000000E+00 0.  1.
        -13    1    5    5    0    0 -0.88638242906E+03 -0.64137529900E+03  0.11372182678E+03  0.10999857902E+04  0.00000000000E+00 0. -1.
          3    1    6    6  503    0 -0.36656870398E+03  0.48453222704E+02  0.38119956552E+03  0.53106820492E+03  0.00000000000E+00 0. -1.
         -3    1    6    6    0  503 -0.11670559303E+03  0.70097617282E+02  0.12478761164E+03  0.18467760940E+03  0.00000000000E+00 0.  1.
<mgrwt>
<rscale>  0 0.33415128E+04</rscale>
<asrwt>0</asrwt>
<pdfrwt beam="1">  1        2 0.30288980E+00 0.33415128E+04</pdfrwt>
<pdfrwt beam="2">  1       -1 0.21812975E+00 0.33415128E+04</pdfrwt>
<totfact> 0.74587830E-01</totfact>
</mgrwt>
</event>
<event>
12    7  0.1741211E-007  0.1230391E+04  0.7818608E-02  0.9086664E-01
         -1   -1    0    0    0  501 -0.00000000000E+00  0.00000000000E+00  0.28548453148E+03  0.28548453148E+03  0.00000000000E+00 0.  1.
          2   -1    0    0  501    0  0.00000000000E+00 -0.00000000000E+00 -0.13256951466E+04  0.13256951466E+04  0.00000000000E+00 0. -1.
         24    2    1    2    0    0  0.22306017844E+03 -0.25734151760E+02 -0.49015653921E+02  0.24304642789E+03  0.79062899070E+02 0.  0.
        254    2    1    2    0    0 -0.22306017844E+03  0.25734151760E+02 -0.99119496125E+03  0.13681332502E+04  0.91591650788E+03 0.  0.
         23    2    4    4    0    0 -0.11043768728E+03  0.23736638175E+03  0.61918324925E+02  0.28414136632E+03  0.91450287770E+02 0.  0.
         23    2    4    4    0    0 -0.11262249116E+03 -0.21163222999E+03 -0.10531132862E+04  0.10839918839E+04  0.92297262090E+02 0.  0.
          2    1    3    3  502    0  0.13692983318E+03 -0.50552788893E+02 -0.47157718855E+02  0.15339235355E+03  0.00000000000E+00 0. -1.
         -1    1    3    3    0  502  0.86130345259E+02  0.24818637133E+02 -0.18579350659E+01  0.89654074343E+02  0.00000000000E+00 0.  1.
         13    1    5    5    0    0 -0.72237130159E+02  0.60438505334E+02  0.46810427281E+01  0.94302322674E+02  0.00000000000E+00 0.  1.
        -13    1    5    5    0    0 -0.38200557121E+02  0.17692787642E+03  0.57237282197E+02  0.18983904364E+03  0.00000000000E+00 0. -1.
          1    1    6    6  503    0 -0.50320358616E+02 -0.17239827544E+03 -0.82379943705E+03  0.84314815801E+03  0.00000000000E+00 0. -1.
         -1    1    6    6    0  503 -0.62302132541E+02 -0.39233954553E+02 -0.22931384913E+03  0.24084372591E+03  0.00000000000E+00 0.  1.
<mgrwt>
<rscale>  0 0.12303909E+04</rscale>
<asrwt>0</asrwt>
<pdfrwt beam="1">  1        2 0.20395310E+00 0.12303909E+04</pdfrwt>
<pdfrwt beam="2">  1       -1 0.43920696E-01 0.12303909E+04</pdfrwt>
<totfact> 0.91821636E+01</totfact>
</mgrwt>
</event>
<event>
12    7  0.1741211E-007  0.1647084E+04  0.7818608E-02  0.8792133E-01
         -3   -1    0    0    0  501 -0.00000000000E+00  0.00000000000E+00  0.51096903717E+03  0.51096903717E+03  0.00000000000E+00 0.  1.
          2   -1    0    0  501    0  0.00000000000E+00 -0.00000000000E+00 -0.13273238228E+04  0.13273238228E+04  0.00000000000E+00 0. -1.
         24    2    1    2    0    0 -0.94500809654E+02 -0.55746946519E+03 -0.37830231625E+03  0.68485859799E+03  0.78841924862E+02 0.  0.
        254    2    1    2    0    0  0.94500809654E+02  0.55746946519E+03 -0.43805246937E+03  0.11534342620E+04  0.90488564091E+03 0.  0.
         23    2    4    4    0    0  0.27517202413E+03  0.73968464282E+03 -0.34673622251E+03  0.86671360009E+03  0.90074651826E+02 0.  0.
         23    2    4    4    0    0 -0.18067121447E+03 -0.18221517763E+03 -0.91316246863E+02  0.28672066188E+03  0.89585837657E+02 0.  0.
          4    1    3    3  502    0 -0.63228862145E+02 -0.49692464426E+03 -0.34989408364E+03  0.61103016361E+03  0.00000000000E+00 0. -1.
         -3    1    3    3    0  502 -0.31271947508E+02 -0.60544820930E+02 -0.28408232618E+02  0.73828434379E+02  0.00000000000E+00 0.  1.
         13    1    5    5    0    0 -0.58541052897E+01  0.29325874848E+02 -0.73768682565E+01  0.30800903714E+02  0.00000000000E+00 0. -1.
        -13    1    5    5    0    0  0.28102612942E+03  0.71035876797E+03 -0.33935935426E+03  0.83591269638E+03  0.00000000000E+00 0.  1.
          4    1    6    6  503    0 -0.44326918097E+02 -0.88652475914E+02 -0.66868023843E+02  0.11956366407E+03  0.00000000000E+00 0. -1.
         -4    1    6    6    0  503 -0.13634429638E+03 -0.93562701715E+02 -0.24448223020E+02  0.16715699781E+03  0.00000000000E+00 0.  1.
<mgrwt>
<rscale>  0 0.16470839E+04</rscale>
<asrwt>0</asrwt>
<pdfrwt beam="1">  1        2 0.20420367E+00 0.16470839E+04</pdfrwt>
<pdfrwt beam="2">  1       -3 0.78610620E-01 0.16470839E+04</pdfrwt>
<totfact> 0.14664662E+01</totfact>
</mgrwt>
</event>
<event>
12    7  0.1741211E-007  0.1474112E+04  0.7818608E-02  0.8901853E-01
          2   -1    0    0  501    0  0.00000000000E+00  0.00000000000E+00  0.19470814457E+04  0.19470814457E+04  0.00000000000E+00 0. -1.
         -1   -1    0    0    0  501 -0.00000000000E+00 -0.00000000000E+00 -0.27900816595E+03  0.27900816595E+03  0.00000000000E+00 0.  1.
         24    2    1    2    0    0  0.35721372347E+03  0.23909568215E+02  0.10118721672E+03  0.38077759056E+03  0.81113555937E+02 0.  0.
        254    2    1    2    0    0 -0.35721372347E+03 -0.23909568215E+02  0.15668860630E+04  0.18453120211E+04  0.90657112735E+03 0.  0.
         23    2    4    4    0    0 -0.63372470309E+03  0.92397046087E+02  0.11969882036E+04  0.13606144793E+04  0.91360759908E+02 0.  0.
         23    2    4    4    0    0  0.27651097962E+03 -0.11630661430E+03  0.36989785943E+03  0.48469754172E+03  0.90120642285E+02 0.  0.
          4    1    3    3  502    0  0.51730288136E+02 -0.24239868300E+02  0.24478023101E+02  0.62151166849E+02  0.00000000000E+00 0. -1.
         -3    1    3    3    0  502  0.30548343533E+03  0.48149436515E+02  0.76709193621E+02  0.31862642371E+03  0.00000000000E+00 0.  1.
         13    1    5    5    0    0 -0.74491051530E+02  0.76835596558E+01  0.21123360248E+03  0.22411512368E+03  0.00000000000E+00 0.  1.
        -13    1    5    5    0    0 -0.55923365156E+03  0.84713486431E+02  0.98575460109E+03  0.11364993556E+04  0.00000000000E+00 0. -1.
          3    1    6    6  503    0  0.18462632018E+03 -0.29855489237E+02  0.22444656517E+03  0.29215490576E+03  0.00000000000E+00 0. -1.
         -3    1    6    6    0  503  0.91884659441E+02 -0.86451125065E+02  0.14545129425E+03  0.19254263597E+03  0.00000000000E+00 0.  1.
<mgrwt>
<rscale>  0 0.14741121E+04</rscale>
<asrwt>0</asrwt>
<pdfrwt beam="1">  1        2 0.29955098E+00 0.14741121E+04</pdfrwt>
<pdfrwt beam="2">  1       -1 0.42924335E-01 0.14741121E+04</pdfrwt>
<totfact> 0.42175075E+01</totfact>
</mgrwt>
</event>
<event>
12    7  0.1741211E-007  0.1308269E+04  0.7818608E-02  0.9023033E-01
         -1   -1    0    0    0  501 -0.00000000000E+00  0.00000000000E+00  0.16988801198E+03  0.16988801198E+03  0.00000000000E+00 0.  1.
          2   -1    0    0  501    0  0.00000000000E+00 -0.00000000000E+00 -0.25186707937E+04  0.25186707937E+04  0.00000000000E+00 0. -1.
         24    2    1    2    0    0 -0.30063155238E+03 -0.12477781684E+03 -0.40464670695E+03  0.52527723386E+03  0.78920093170E+02 0.  0.
        254    2    1    2    0    0  0.30063155238E+03  0.12477781684E+03 -0.19441360747E+04  0.21632815718E+04  0.89116398483E+03 0.  0.
         23    2    4    4    0    0 -0.26331752051E+03  0.84607074022E+02 -0.28335950241E+03  0.40666868227E+03  0.92694853973E+02 0.  0.
         23    2    4    4    0    0  0.56394907289E+03  0.40170742817E+02 -0.16607765723E+04  0.17566128895E+04  0.88644091772E+02 0.  0.
          2    1    3    3  502    0 -0.21233428350E+03 -0.10583712039E+03 -0.23988573654E+03  0.33739073876E+03  0.00000000000E+00 0. -1.
         -1    1    3    3    0  502 -0.88297268883E+02 -0.18940696452E+02 -0.16476097041E+03  0.18788649511E+03  0.00000000000E+00 0.  1.
         13    1    5    5    0    0 -0.19556405223E+03  0.23718514544E+02 -0.16278308583E+03  0.25555077673E+03  0.00000000000E+00 0.  1.
        -13    1    5    5    0    0 -0.67753468284E+02  0.60888559478E+02 -0.12057641658E+03  0.15111790554E+03  0.00000000000E+00 0. -1.
          4    1    6    6  503    0  0.53297577799E+03  0.46279318524E+02 -0.14945372545E+04  0.15874024569E+04  0.00000000000E+00 0.  1.
         -4    1    6    6    0  503  0.30973294900E+02 -0.61085757070E+01 -0.16623931786E+03  0.16921043259E+03  0.00000000000E+00 0. -1.
<mgrwt>
<rscale>  0 0.13082690E+04</rscale>
<asrwt>0</asrwt>
<pdfrwt beam="1">  1        2 0.38748776E+00 0.13082690E+04</pdfrwt>
<pdfrwt beam="2">  1       -1 0.26136621E-01 0.13082690E+04</pdfrwt>
<totfact> 0.49390710E+01</totfact>
</mgrwt>
</event>
<event>
12    7  0.1741211E-007  0.1848935E+04  0.7818608E-02  0.8680701E-01
         -1   -1    0    0    0  501 -0.00000000000E+00  0.00000000000E+00  0.65051043287E+03  0.65051043287E+03  0.00000000000E+00 0.  1.
          2   -1    0    0  501    0  0.00000000000E+00 -0.00000000000E+00 -0.13137996311E+04  0.13137996311E+04  0.00000000000E+00 0. -1.
         24    2    1    2    0    0  0.49351121821E+02 -0.34516810815E+03  0.39241013066E+03  0.53173963160E+03  0.84763017027E+02 0.  0.
        254    2    1    2    0    0 -0.49351121821E+02  0.34516810815E+03 -0.10556993289E+04  0.14325704324E+04  0.90342703887E+03 0.  0.
         23    2    4    4    0    0  0.24209061986E+03 -0.18532103593E+03 -0.56560642051E+03  0.64909870282E+03  0.92014936268E+02 0.  0.
         23    2    4    4    0    0 -0.29144174168E+03  0.53048914408E+03 -0.49009290837E+03  0.78347172954E+03  0.85322162249E+02 0.  0.
          2    1    3    3  502    0  0.18733736675E+01 -0.67221864383E+02  0.13091858033E+03  0.14718003688E+03  0.00000000000E+00 0. -1.
         -1    1    3    3    0  502  0.47477748154E+02 -0.27794624377E+03  0.26149155033E+03  0.38455959472E+03  0.00000000000E+00 0.  1.
         13    1    5    5    0    0  0.13370565482E+03 -0.51627889869E+02 -0.21302414928E+03  0.25675266176E+03  0.00000000000E+00 0. -1.
        -13    1    5    5    0    0  0.10838496504E+03 -0.13369314606E+03 -0.35258227123E+03  0.39234604106E+03  0.00000000000E+00 0.  1.
          3    1    6    6  503    0 -0.22547550000E+03  0.32674643775E+03 -0.32545605097E+03  0.51334596209E+03  0.00000000000E+00 0. -1.
         -3    1    6    6    0  503 -0.65966241683E+02  0.20374270634E+03 -0.16463685741E+03  0.27012576746E+03  0.00000000000E+00 0.  1.
<mgrwt>
<rscale>  0 0.18489352E+04</rscale>
<asrwt>0</asrwt>
<pdfrwt beam="1">  1        2 0.20212302E+00 0.18489352E+04</pdfrwt>
<pdfrwt beam="2">  1       -1 0.10007853E+00 0.18489352E+04</pdfrwt>
<totfact> 0.16551661E+01</totfact>
</mgrwt>
</event>
<event>
12    7  0.1741211E-007  0.1502019E+04  0.7818608E-02  0.8883112E-01
         -1   -1    0    0    0  501 -0.00000000000E+00  0.00000000000E+00  0.31261539006E+03  0.31261539006E+03  0.00000000000E+00 0.  1.
          2   -1    0    0  501    0  0.00000000000E+00 -0.00000000000E+00 -0.18041820234E+04  0.18041820234E+04  0.00000000000E+00 0. -1.
         24    2    1    2    0    0 -0.15085722829E+03  0.43283380601E+03 -0.68555450492E+03  0.82848299288E+03  0.79347862790E+02 0.  0.
        254    2    1    2    0    0  0.15085722829E+03 -0.43283380601E+03 -0.80601212841E+03  0.12883144206E+04  0.89442466879E+03 0.  0.
         23    2    4    4    0    0 -0.18289240928E+03 -0.39459077014E+02  0.11026161396E+03  0.23273763081E+03  0.83681115864E+02 0.  0.
         23    2    4    4    0    0  0.33374963757E+03 -0.39337472899E+03 -0.91627374236E+03  0.10555767897E+04  0.92478592793E+02 0.  0.
          4    1    3    3  502    0 -0.11276112148E+03  0.23416283460E+03 -0.43154466474E+03  0.50376393409E+03  0.00000000000E+00 0. -1.
         -3    1    3    3    0  502 -0.38096106802E+02  0.19867097141E+03 -0.25400984018E+03  0.32471905879E+03  0.00000000000E+00 0.  1.
         13    1    5    5    0    0 -0.14600171518E+03 -0.64999470651E+02  0.81014726316E+02  0.17917817362E+03  0.00000000000E+00 0.  1.
        -13    1    5    5    0    0 -0.36890694101E+02  0.25540393638E+02  0.29246887641E+02  0.53559457196E+02  0.00000000000E+00 0. -1.
          4    1    6    6  503    0  0.13069341670E+03 -0.21032053940E+03 -0.49296587412E+03  0.55166189963E+03  0.00000000000E+00 0. -1.
         -4    1    6    6    0  503  0.20305622087E+03 -0.18305418959E+03 -0.42330786824E+03  0.50391489012E+03  0.00000000000E+00 0.  1.
<mgrwt>
<rscale>  0 0.15020187E+04</rscale>
<asrwt>0</asrwt>
<pdfrwt beam="1">  1        2 0.27756646E+00 0.15020187E+04</pdfrwt>
<pdfrwt beam="2">  1       -1 0.48094676E-01 0.15020187E+04</pdfrwt>
<totfact> 0.40818059E+01</totfact>
</mgrwt>
</event>
<event>
12    7  0.1741211E-007  0.1156231E+04  0.7818608E-02  0.9152054E-01
         -1   -1    0    0    0  501 -0.00000000000E+00  0.00000000000E+00  0.17740097359E+03  0.17740097359E+03  0.00000000000E+00 0.  1.
          2   -1    0    0  501    0  0.00000000000E+00 -0.00000000000E+00 -0.18839681972E+04  0.18839681972E+04  0.00000000000E+00 0. -1.
         24    2    1    2    0    0  0.39474425382E+02 -0.49326940526E+02 -0.55595103867E+03  0.56512046933E+03  0.79298235385E+02 0.  0.
        254    2    1    2    0    0 -0.39474425382E+02  0.49326940526E+02 -0.11506161849E+04  0.14962487014E+04  0.95438524414E+03 0.  0.
         23    2    4    4    0    0  0.40213490566E+03 -0.94737890801E+02 -0.28825072489E+03  0.51245513974E+03  0.93989571475E+02 0.  0.
         23    2    4    4    0    0 -0.44160933104E+03  0.14406483133E+03 -0.86236546002E+03  0.98379356169E+03  0.91663015935E+02 0.  0.
          4    1    3    3  502    0 -0.53098260387E+01 -0.51844934700E+02 -0.37929819906E+03  0.38286187499E+03  0.00000000000E+00 0. -1.
         -3    1    3    3    0  502  0.44784251421E+02  0.25179941741E+01 -0.17665283961E+03  0.18225859434E+03  0.00000000000E+00 0.  1.
         13    1    5    5    0    0  0.34939253451E+02  0.11112679277E+01  0.14978059926E+01  0.34988994997E+02  0.00000000000E+00 0.  1.
        -13    1    5    5    0    0  0.36719565221E+03 -0.95849158729E+02 -0.28974853088E+03  0.47746614474E+03  0.00000000000E+00 0. -1.
          1    1    6    6  503    0 -0.37762759959E+03  0.11468169693E+03 -0.78848059847E+03  0.88173473888E+03  0.00000000000E+00 0. -1.
         -1    1    6    6    0  503 -0.63981731452E+02  0.29383134395E+02 -0.73884861555E+02  0.10205882281E+03  0.00000000000E+00 0.  1.
<mgrwt>
<rscale>  0 0.11562315E+04</rscale>
<asrwt>0</asrwt>
<pdfrwt beam="1">  1        2 0.28984124E+00 0.11562315E+04</pdfrwt>
<pdfrwt beam="2">  1       -1 0.27292460E-01 0.11562315E+04</pdfrwt>
<totfact> 0.10525884E+02</totfact>
</mgrwt>
</event>
<event>
12    7  0.1741211E-007  0.2775962E+04  0.7818608E-02  0.8310770E-01
          2   -1    0    0  501    0  0.00000000000E+00  0.00000000000E+00  0.22983910596E+04  0.22983910596E+04  0.00000000000E+00 0. -1.
         -1   -1    0    0    0  501 -0.00000000000E+00 -0.00000000000E+00 -0.83819112607E+03  0.83819112607E+03  0.00000000000E+00 0.  1.
         24    2    1    2    0    0 -0.89576926359E+03  0.84352893313E+03  0.44513217052E+03  0.13108424503E+04  0.78877408770E+02 0.  0.
        254    2    1    2    0    0  0.89576926359E+03 -0.84352893313E+03  0.10150677631E+04  0.18257397354E+04  0.88826763043E+03 0.  0.
         23    2    4    4    0    0  0.82415655970E+03 -0.51084545737E+03  0.28439079678E+03  0.10144664762E+04  0.89816423372E+02 0.  0.
         23    2    4    4    0    0  0.71612703895E+02 -0.33268347576E+03  0.73067696628E+03  0.81127325918E+03  0.92026070297E+02 0.  0.
          2    1    3    3  502    0 -0.76104229830E+03  0.67573380481E+03  0.37004027236E+03  0.10829272173E+04  0.00000000000E+00 0. -1.
         -1    1    3    3    0  502 -0.13472696529E+03  0.16779512832E+03  0.75091898156E+02  0.22791523300E+03  0.00000000000E+00 0.  1.
         13    1    5    5    0    0  0.27702956756E+03 -0.17280432920E+03  0.14038925919E+03  0.35540942811E+03  0.00000000000E+00 0. -1.
        -13    1    5    5    0    0  0.54712699214E+03 -0.33804112817E+03  0.14400153760E+03  0.65905704813E+03  0.00000000000E+00 0.  1.
          1    1    6    6  503    0 -0.20487903175E+02 -0.66023798775E+02  0.17294216962E+03  0.18624685290E+03  0.00000000000E+00 0. -1.
         -1    1    6    6    0  503  0.92100607070E+02 -0.26665967698E+03  0.55773479666E+03  0.62502640628E+03  0.00000000000E+00 0.  1.
<mgrwt>
<rscale>  0 0.27759618E+04</rscale>
<asrwt>0</asrwt>
<pdfrwt beam="1">  1        2 0.35359862E+00 0.27759618E+04</pdfrwt>
<pdfrwt beam="2">  1       -1 0.12895248E+00 0.27759618E+04</pdfrwt>
<totfact> 0.23310776E+00</totfact>
</mgrwt>
</event>
<event>
12    7  0.1741211E-007  0.1846976E+04  0.7818608E-02  0.8681709E-01
          2   -1    0    0  501    0  0.00000000000E+00  0.00000000000E+00  0.26087593839E+04  0.26087593839E+04  0.00000000000E+00 0. -1.
         -1   -1    0    0    0  501 -0.00000000000E+00 -0.00000000000E+00 -0.32691021216E+03  0.32691021216E+03  0.00000000000E+00 0.  1.
         24    2    1    2    0    0 -0.62311519997E+03  0.31559274587E+03  0.74952534561E+03  0.10276097882E+04  0.79512888831E+02 0.  0.
        254    2    1    2    0    0  0.62311519997E+03 -0.31559274587E+03  0.15323238261E+04  0.19080598078E+04  0.89710901703E+03 0.  0.
         23    2    4    4    0    0  0.78963509134E+03 -0.26957510367E+03  0.83489839751E+03  0.11838186890E+04  0.90426988291E+02 0.  0.
         23    2    4    4    0    0 -0.16651989137E+03 -0.46017642198E+02  0.69742542861E+03  0.72424111884E+03  0.90975118219E+02 0.  0.
          4    1    3    3  502    0 -0.19507430182E+03  0.10482007772E+03  0.18576053527E+03  0.28904706950E+03  0.00000000000E+00 0. -1.
         -3    1    3    3    0  502 -0.42804089815E+03  0.21077266815E+03  0.56376481034E+03  0.73856271874E+03  0.00000000000E+00 0.  1.
         13    1    5    5    0    0  0.21062830916E+03 -0.89180598107E+02  0.17842336940E+03  0.29009026604E+03  0.00000000000E+00 0.  1.
        -13    1    5    5    0    0  0.57900678217E+03 -0.18039450557E+03  0.65647502811E+03  0.89372842294E+03  0.00000000000E+00 0. -1.
          1    1    6    6  503    0 -0.43903826893E+02 -0.74424610307E+01  0.64395624472E+02  0.78292609442E+02  0.00000000000E+00 0. -1.
         -1    1    6    6    0  503 -0.12261606447E+03 -0.38575181167E+02  0.63302980414E+03  0.64594850940E+03  0.00000000000E+00 0.  1.
<mgrwt>
<rscale>  0 0.18469760E+04</rscale>
<asrwt>0</asrwt>
<pdfrwt beam="1">  1        2 0.40134758E+00 0.18469760E+04</pdfrwt>
<pdfrwt beam="2">  1       -1 0.50293880E-01 0.18469760E+04</pdfrwt>
<totfact> 0.12800009E+01</totfact>
</mgrwt>
</event>
<event>
12    7  0.1741211E-007  0.3030704E+04  0.7818608E-02  0.8235017E-01
         -1   -1    0    0    0  501 -0.00000000000E+00  0.00000000000E+00  0.10863239143E+04  0.10863239143E+04  0.00000000000E+00 0.  1.
          2   -1    0    0  501    0  0.00000000000E+00 -0.00000000000E+00 -0.21138179399E+04  0.21138179399E+04  0.00000000000E+00 0. -1.
         24    2    1    2    0    0  0.23138549133E+03  0.57005403902E+03 -0.17758090407E+04  0.18820062538E+04  0.99744359720E+02 0.  0.
        254    2    1    2    0    0 -0.23138549133E+03 -0.57005403902E+03  0.74831501504E+03  0.13181356004E+04  0.89387093382E+03 0.  0.
         23    2    4    4    0    0  0.12285583748E+03 -0.40488286643E+03  0.80319947350E+03  0.91218349974E+03  0.89026123275E+02 0.  0.
         23    2    4    4    0    0 -0.35424132881E+03 -0.16517117259E+03 -0.54884458464E+02  0.40595210067E+03  0.94954562645E+02 0.  0.
          4    1    3    3  502    0  0.76831012979E+02  0.20819053862E+03 -0.78973249438E+03  0.82031927785E+03  0.00000000000E+00 0. -1.
         -3    1    3    3    0  502  0.15455447835E+03  0.36186350040E+03 -0.98607654631E+03  0.10616869759E+04  0.00000000000E+00 0.  1.
         13    1    5    5    0    0  0.60657394585E+02 -0.74959142611E+02  0.19137905818E+03  0.21429917519E+03  0.00000000000E+00 0. -1.
        -13    1    5    5    0    0  0.62198442891E+02 -0.32992372382E+03  0.61182041532E+03  0.69788432454E+03  0.00000000000E+00 0.  1.
          2    1    6    6  503    0 -0.35393252796E+03 -0.15438639069E+03 -0.40914194966E+02  0.38830060949E+03  0.00000000000E+00 0. -1.
         -2    1    6    6    0  503 -0.30880084145E+00 -0.10784781895E+02 -0.13970263498E+02  0.17651491175E+02  0.00000000000E+00 0.  1.
<mgrwt>
<rscale>  0 0.30307035E+04</rscale>
<asrwt>0</asrwt>
<pdfrwt beam="1">  1        2 0.32520276E+00 0.30307035E+04</pdfrwt>
<pdfrwt beam="2">  1       -1 0.16712676E+00 0.30307035E+04</pdfrwt>
<totfact> 0.14483066E+00</totfact>
</mgrwt>
</event>
<event>
12    7  0.1741211E-007  0.1203766E+04  0.7818608E-02  0.9109567E-01
         -3   -1    0    0    0  501 -0.00000000000E+00  0.00000000000E+00  0.16845742207E+04  0.16845742207E+04  0.00000000000E+00 0.  1.
          4   -1    0    0  501    0  0.00000000000E+00 -0.00000000000E+00 -0.21504718522E+03  0.21504718522E+03  0.00000000000E+00 0. -1.
         24    2    1    2    0    0  0.22293236389E+02  0.14864644379E+03  0.63001655497E+03  0.65251910974E+03  0.79168020098E+02 0.  0.
        254    2    1    2    0    0 -0.22293236389E+02 -0.14864644379E+03  0.83951048051E+03  0.12471022962E+04  0.90988655151E+03 0.  0.
         23    2    4    4    0    0 -0.38595424369E+03  0.15154420155E+03  0.51488598384E+03  0.66755340058E+03  0.92701904128E+02 0.  0.
         23    2    4    4    0    0  0.36366100730E+03 -0.30019064533E+03  0.32462449667E+03  0.57954889560E+03  0.90178194587E+02 0.  0.
          2    1    3    3  502    0  0.23897103558E+02  0.19073600093E+02  0.23034705002E+03  0.23236746164E+03  0.00000000000E+00 0. -1.
         -1    1    3    3    0  502 -0.16038671698E+01  0.12957284369E+03  0.39966950495E+03  0.42015164810E+03  0.00000000000E+00 0.  1.
         13    1    5    5    0    0 -0.22933974927E+03  0.13802136128E+03  0.32662657601E+03  0.42229318834E+03  0.00000000000E+00 0. -1.
        -13    1    5    5    0    0 -0.15661449442E+03  0.13522840268E+02  0.18825940783E+03  0.24526021224E+03  0.00000000000E+00 0.  1.
          1    1    6    6  503    0  0.20619051098E+03 -0.11191266964E+03  0.15462330186E+03  0.28097568920E+03  0.00000000000E+00 0. -1.
         -1    1    6    6    0  503  0.15747049632E+03 -0.18827797570E+03  0.17000119481E+03  0.29857320640E+03  0.00000000000E+00 0.  1.
<mgrwt>
<rscale>  0 0.12037657E+04</rscale>
<asrwt>0</asrwt>
<pdfrwt beam="1">  1        4 0.33084183E-01 0.12037657E+04</pdfrwt>
<pdfrwt beam="2">  1       -3 0.25916526E+00 0.12037657E+04</pdfrwt>
<totfact> 0.13076590E+00</totfact>
</mgrwt>
</event>
<event>
12    7  0.1741211E-007  0.1738135E+04  0.7818608E-02  0.8739909E-01
          2   -1    0    0  501    0  0.00000000000E+00  0.00000000000E+00  0.16705684970E+04  0.16705684970E+04  0.00000000000E+00 0. -1.
         -1   -1    0    0    0  501 -0.00000000000E+00 -0.00000000000E+00 -0.45210847477E+03  0.45210847477E+03  0.00000000000E+00 0.  1.
         24    2    1    2    0    0 -0.16989113077E+01 -0.36130113410E+03  0.10334347521E+04  0.10975909578E+04  0.78594707494E+02 0.  0.
        254    2    1    2    0    0  0.16989113077E+01  0.36130113410E+03  0.18502527013E+03  0.10250860139E+04  0.94128932299E+03 0.  0.
         23    2    4    4    0    0 -0.81635991345E+02  0.63521029728E+03  0.28608008778E+03  0.70750225130E+03  0.92526007816E+02 0.  0.
         23    2    4    4    0    0  0.83334902653E+02 -0.27390916318E+03 -0.10105481766E+03  0.31758376263E+03  0.93147380221E+02 0.  0.
          2    1    3    3  502    0  0.31544715152E+02 -0.28130821783E+03  0.79941149631E+03  0.84804959932E+03  0.00000000000E+00 0. -1.
         -1    1    3    3    0  502 -0.33243626460E+02 -0.79992916275E+02  0.23402325576E+03  0.24954135847E+03  0.00000000000E+00 0.  1.
         13    1    5    5    0    0 -0.65668742315E+02  0.53420858678E+03  0.20119542381E+03  0.57460490467E+03  0.00000000000E+00 0. -1.
        -13    1    5    5    0    0 -0.15967249030E+02  0.10100171050E+03  0.84884663970E+02  0.13289734664E+03  0.00000000000E+00 0.  1.
          2    1    6    6  503    0 -0.10829314215E+02 -0.13803827991E+00  0.32212719956E+00  0.10834983473E+02  0.00000000000E+00 0.  1.
         -2    1    6    6    0  503  0.94164216868E+02 -0.27377112490E+03 -0.10137694486E+03  0.30674877916E+03  0.00000000000E+00 0. -1.
<mgrwt>
<rscale>  0 0.17381348E+04</rscale>
<asrwt>0</asrwt>
<pdfrwt beam="1">  1        2 0.25701053E+00 0.17381348E+04</pdfrwt>
<pdfrwt beam="2">  1       -1 0.69555151E-01 0.17381348E+04</pdfrwt>
<totfact> 0.23007867E+01</totfact>
</mgrwt>
</event>
<event>
12    7  0.1741211E-007  0.2552297E+04  0.7818608E-02  0.8384588E-01
          2   -1    0    0  501    0  0.00000000000E+00  0.00000000000E+00  0.11295483646E+04  0.11295483646E+04  0.00000000000E+00 0. -1.
         -1   -1    0    0    0  501 -0.00000000000E+00 -0.00000000000E+00 -0.14417751645E+04  0.14417751645E+04  0.00000000000E+00 0.  1.
         24    2    1    2    0    0 -0.78710551096E+03 -0.39996990006E+03  0.54367988951E+03  0.10404294918E+04  0.85992435080E+02 0.  0.
        254    2    1    2    0    0  0.78710551096E+03  0.39996990006E+03 -0.85590668943E+03  0.15308940372E+04  0.91189324252E+03 0.  0.
         23    2    4    4    0    0 -0.82896218421E+02 -0.18286741146E+02  0.10765815658E+03  0.16430533955E+03  0.90552625553E+02 0.  0.
         23    2    4    4    0    0  0.87000172938E+03  0.41825664121E+03 -0.96356484601E+03  0.13665886976E+04  0.85239832405E+02 0.  0.
          2    1    3    3  502    0 -0.49184238217E+03 -0.20346247276E+03  0.31734173586E+03  0.61968676284E+03  0.00000000000E+00 0. -1.
         -1    1    3    3    0  502 -0.29526312879E+03 -0.19650742730E+03  0.22633815365E+03  0.42074272899E+03  0.00000000000E+00 0.  1.
         13    1    5    5    0    0 -0.68919803626E+02  0.23081781380E+02  0.37802794541E+02  0.81925327211E+02  0.00000000000E+00 0. -1.
        -13    1    5    5    0    0 -0.13976414795E+02 -0.41368522526E+02  0.69855362040E+02  0.82380012335E+02  0.00000000000E+00 0.  1.
          3    1    6    6  503    0  0.21579824775E+03  0.69665636615E+02 -0.25294480299E+03  0.33971055035E+03  0.00000000000E+00 0. -1.
         -3    1    6    6    0  503  0.65420348163E+03  0.34859100459E+03 -0.71062004302E+03  0.10268781473E+04  0.00000000000E+00 0.  1.
<mgrwt>
<rscale>  0 0.25522968E+04</rscale>
<asrwt>0</asrwt>
<pdfrwt beam="1">  1        2 0.17377667E+00 0.25522968E+04</pdfrwt>
<pdfrwt beam="2">  1       -1 0.22181156E+00 0.25522968E+04</pdfrwt>
<totfact> 0.22631986E+00</totfact>
</mgrwt>
</event>
<event>
12    7  0.1741211E-007  0.1598632E+04  0.7818608E-02  0.8821389E-01
         -1   -1    0    0    0  501 -0.00000000000E+00  0.00000000000E+00  0.51459858722E+03  0.51459858722E+03  0.00000000000E+00 0.  1.
          2   -1    0    0  501    0  0.00000000000E+00 -0.00000000000E+00 -0.12415622585E+04  0.12415622585E+04  0.00000000000E+00 0. -1.
         24    2    1    2    0    0 -0.55575084613E+02 -0.38013102447E+03  0.17145885191E+03  0.42923598332E+03  0.85189234530E+02 0.  0.
        254    2    1    2    0    0  0.55575084613E+02  0.38013102447E+03 -0.89842252322E+03  0.13269248624E+04  0.89776298350E+03 0.  0.
         23    2    4    4    0    0  0.37382093836E+03 -0.80329752515E+02 -0.48797736991E+03  0.62680981443E+03  0.92594097125E+02 0.  0.
         23    2    4    4    0    0 -0.31824585375E+03  0.46046077699E+03 -0.41044515331E+03  0.70011504802E+03  0.91604071994E+02 0.  0.
          4    1    3    3  502    0 -0.30748202888E+01 -0.15863685412E+02 -0.98951746104E+01  0.18947968630E+02  0.00000000000E+00 0. -1.
         -3    1    3    3    0  502 -0.52500264324E+02 -0.36426733906E+03  0.18135402652E+03  0.41028801469E+03  0.00000000000E+00 0.  1.
         13    1    5    5    0    0  0.27542551226E+03 -0.53342236193E+02 -0.28656333517E+03  0.40102762003E+03  0.00000000000E+00 0.  1.
        -13    1    5    5    0    0  0.98395426100E+02 -0.26987516322E+02 -0.20141403474E+03  0.22578219440E+03  0.00000000000E+00 0. -1.
          4    1    6    6  503    0 -0.24260811814E+03  0.31005771413E+03 -0.32915993331E+03  0.51316736722E+03  0.00000000000E+00 0.  1.
         -4    1    6    6    0  503 -0.75637735609E+02  0.15040306286E+03 -0.81285220001E+02  0.18694768080E+03  0.00000000000E+00 0. -1.
<mgrwt>
<rscale>  0 0.15986321E+04</rscale>
<asrwt>0</asrwt>
<pdfrwt beam="1">  1        2 0.19100957E+00 0.15986321E+04</pdfrwt>
<pdfrwt beam="2">  1       -1 0.79169015E-01 0.15986321E+04</pdfrwt>
<totfact> 0.31206904E+01</totfact>
</mgrwt>
</event>
<event>
12    7  0.1741211E-007  0.2102597E+04  0.7818608E-02  0.8560100E-01
          2   -1    0    0  501    0  0.00000000000E+00  0.00000000000E+00  0.42412295177E+03  0.42412295177E+03  0.00000000000E+00 0. -1.
         -1   -1    0    0    0  501 -0.00000000000E+00 -0.00000000000E+00 -0.26059159862E+04  0.26059159862E+04  0.00000000000E+00 0.  1.
         24    2    1    2    0    0  0.66944681725E+03 -0.35185192627E+03 -0.31068150665E+03  0.82179323318E+03  0.82839002789E+02 0.  0.
        254    2    1    2    0    0 -0.66944681725E+03  0.35185192627E+03 -0.18711115278E+04  0.22082457048E+04  0.89628785787E+03 0.  0.
         23    2    4    4    0    0 -0.72829800818E+03  0.49738871944E+03 -0.10841664806E+04  0.14005162996E+04  0.90638958295E+02 0.  0.
         23    2    4    4    0    0  0.58851190924E+02 -0.14553679317E+03 -0.78694504722E+03  0.80772940525E+03  0.92194706574E+02 0.  0.
          4    1    3    3  502    0  0.34999849611E+03 -0.21116882889E+03 -0.20370940960E+03  0.45671516849E+03  0.00000000000E+00 0. -1.
         -3    1    3    3    0  502  0.31944832114E+03 -0.14068309738E+03 -0.10697209705E+03  0.36507806469E+03  0.00000000000E+00 0.  1.
         13    1    5    5    0    0 -0.51624711286E+03  0.38473211730E+03 -0.83612915158E+03  0.10552923016E+04  0.00000000000E+00 0.  1.
        -13    1    5    5    0    0 -0.21205089532E+03  0.11265660214E+03 -0.24803732900E+03  0.34522399799E+03  0.00000000000E+00 0. -1.
          3    1    6    6  503    0  0.60044898637E+02 -0.13523403805E+03 -0.78263250512E+03  0.79649687568E+03  0.00000000000E+00 0. -1.
         -3    1    6    6    0  503 -0.11937077133E+01 -0.10302755119E+02 -0.43125421026E+01  0.11232529570E+02  0.00000000000E+00 0.  1.
<mgrwt>
<rscale>  0 0.21025972E+04</rscale>
<asrwt>0</asrwt>
<pdfrwt beam="1">  1        2 0.65249687E-01 0.21025972E+04</pdfrwt>
<pdfrwt beam="2">  1       -1 0.40091014E+00 0.21025972E+04</pdfrwt>
<totfact> 0.55311179E-01</totfact>
</mgrwt>
</event>
<event>
12    7  0.1741211E-007  0.1379600E+04  0.7818608E-02  0.8968719E-01
          2   -1    0    0  501    0  0.00000000000E+00  0.00000000000E+00  0.62416649031E+03  0.62416649031E+03  0.00000000000E+00 0. -1.
         -1   -1    0    0    0  501 -0.00000000000E+00 -0.00000000000E+00 -0.76233533024E+03  0.76233533024E+03  0.00000000000E+00 0.  1.
         24    2    1    2    0    0 -0.20414632397E+03  0.20175055701E+03 -0.27645523018E+03  0.40712135301E+03  0.83314422142E+02 0.  0.
        254    2    1    2    0    0  0.20414632397E+03 -0.20175055701E+03  0.13828639025E+03  0.97938046754E+03  0.92611228565E+03 0.  0.
         23    2    4    4    0    0 -0.92164917073E+01 -0.23350833137E+03 -0.35422942267E+03  0.43408143016E+03  0.91307828705E+02 0.  0.
         23    2    4    4    0    0  0.21336281567E+03  0.31757774368E+02  0.49251581292E+03  0.54529903738E+03  0.90812812108E+02 0.  0.
          2    1    3    3  502    0 -0.82455101199E+02  0.36970339285E+02 -0.56603622358E+02  0.10662841912E+03  0.00000000000E+00 0. -1.
         -1    1    3    3    0  502 -0.12169122277E+03  0.16478021772E+03 -0.21985160782E+03  0.30049293388E+03  0.00000000000E+00 0.  1.
         13    1    5    5    0    0 -0.47823669662E+02 -0.14224428765E+03 -0.23778010940E+03  0.28117596124E+03  0.00000000000E+00 0.  1.
        -13    1    5    5    0    0  0.38607177954E+02 -0.91264043720E+02 -0.11644931327E+03  0.15290546892E+03  0.00000000000E+00 0. -1.
          4    1    6    6  503    0  0.21382515544E+03  0.46379096597E+02  0.47022934028E+03  0.51864038617E+03  0.00000000000E+00 0. -1.
         -4    1    6    6    0  503 -0.46233976627E+00 -0.14621322229E+02  0.22286472643E+02  0.26658651216E+02  0.00000000000E+00 0.  1.
<mgrwt>
<rscale>  0 0.13796002E+04</rscale>
<asrwt>0</asrwt>
<pdfrwt beam="1">  1        2 0.96025614E-01 0.13796002E+04</pdfrwt>
<pdfrwt beam="2">  1       -1 0.11728236E+00 0.13796002E+04</pdfrwt>
<totfact> 0.34475817E+01</totfact>
</mgrwt>
</event>
<event>
12    7  0.1741211E-007  0.1815417E+04  0.7818608E-02  0.8698144E-01
          2   -1    0    0  501    0  0.00000000000E+00  0.00000000000E+00  0.80721734541E+03  0.80721734541E+03  0.00000000000E+00 0. -1.
         -1   -1    0    0    0  501 -0.00000000000E+00 -0.00000000000E+00 -0.10207096357E+04  0.10207096357E+04  0.00000000000E+00 0.  1.
         24    2    1    2    0    0  0.14647703168E+03 -0.44316828606E+03  0.41794267866E+03  0.63149096199E+03  0.79063909895E+02 0.  0.
        254    2    1    2    0    0 -0.14647703168E+03  0.44316828606E+03 -0.63143496891E+03  0.11964360191E+04  0.90271555720E+03 0.  0.
         23    2    4    4    0    0  0.52590632809E+02 -0.23036977636E+03 -0.35791557047E+03  0.43778810294E+03  0.87857037100E+02 0.  0.
         23    2    4    4    0    0 -0.19906766449E+03  0.67353806242E+03 -0.27351939844E+03  0.75864791614E+03  0.86326952752E+02 0.  0.
          4    1    3    3  502    0  0.10007903276E+03 -0.23526198656E+03  0.27186800630E+03  0.37319730434E+03  0.00000000000E+00 0. -1.
         -3    1    3    3    0  502  0.46397998924E+02 -0.20790629950E+03  0.14607467237E+03  0.25829365765E+03  0.00000000000E+00 0.  1.
         13    1    5    5    0    0 -0.41179896749E+01 -0.12236396538E+03 -0.23287997632E+03  0.26310260590E+03  0.00000000000E+00 0. -1.
        -13    1    5    5    0    0  0.56708622483E+02 -0.10800581098E+03 -0.12503559416E+03  0.17468549704E+03  0.00000000000E+00 0.  1.
          2    1    6    6  503    0 -0.68705686866E+02  0.28808723753E+03 -0.73032820666E+02  0.30503855613E+03  0.00000000000E+00 0. -1.
         -2    1    6    6    0  503 -0.13036197762E+03  0.38545082489E+03 -0.20048657777E+03  0.45360936001E+03  0.00000000000E+00 0.  1.
<mgrwt>
<rscale>  0 0.18154168E+04</rscale>
<asrwt>0</asrwt>
<pdfrwt beam="1">  1        2 0.12418728E+00 0.18154168E+04</pdfrwt>
<pdfrwt beam="2">  1       -1 0.15703225E+00 0.18154168E+04</pdfrwt>
<totfact> 0.11277821E+01</totfact>
</mgrwt>
</event>
<event>
12    7  0.1741211E-007  0.1890867E+04  0.7818608E-02  0.8659416E-01
          2   -1    0    0  501    0  0.00000000000E+00  0.00000000000E+00  0.17773279697E+04  0.17773279697E+04  0.00000000000E+00 0. -1.
         -1   -1    0    0    0  501 -0.00000000000E+00 -0.00000000000E+00 -0.50291498114E+03  0.50291498114E+03  0.00000000000E+00 0.  1.
         24    2    1    2    0    0 -0.15261206149E+03 -0.50899320922E+03  0.10882678395E+04  0.12135709199E+04  0.77865004875E+02 0.  0.
        254    2    1    2    0    0  0.15261206149E+03  0.50899320922E+03  0.18614514909E+03  0.10666720309E+04  0.90596615643E+03 0.  0.
         23    2    4    4    0    0 -0.26197387014E+03  0.79113138382E+02  0.33689105602E+03  0.44400674960E+03  0.93579980564E+02 0.  0.
         23    2    4    4    0    0  0.41458593163E+03  0.42988007083E+03 -0.15074590693E+03  0.62266528129E+03  0.91155658404E+02 0.  0.
          2    1    3    3  502    0 -0.14890785948E+03 -0.50663770703E+03  0.10877448291E+04  0.12091501686E+04  0.00000000000E+00 0. -1.
         -1    1    3    3    0  502 -0.37042020115E+01 -0.23555021845E+01  0.52301033095E+00  0.44207513943E+01  0.00000000000E+00 0.  1.
         13    1    5    5    0    0 -0.12227476832E+03  0.35666360532E+01  0.96117345097E+02  0.15557115378E+03  0.00000000000E+00 0. -1.
        -13    1    5    5    0    0 -0.13969910182E+03  0.75546502328E+02  0.24077371093E+03  0.28843559582E+03  0.00000000000E+00 0.  1.
          4    1    6    6  503    0  0.43241671073E+02  0.92288087101E+02 -0.33609044540E+02  0.10731496174E+03  0.00000000000E+00 0. -1.
         -4    1    6    6    0  503  0.37134426055E+03  0.33759198373E+03 -0.11713686239E+03  0.51535031955E+03  0.00000000000E+00 0.  1.
<mgrwt>
<rscale>  0 0.18908674E+04</rscale>
<asrwt>0</asrwt>
<pdfrwt beam="1">  1        2 0.27343507E+00 0.18908674E+04</pdfrwt>
<pdfrwt beam="2">  1       -1 0.77371536E-01 0.18908674E+04</pdfrwt>
<totfact> 0.15876819E+01</totfact>
</mgrwt>
</event>
<event>
12    7  0.1741211E-007  0.2707627E+04  0.7818608E-02  0.8332535E-01
         -1   -1    0    0    0  501 -0.00000000000E+00  0.00000000000E+00  0.12641370413E+04  0.12641370413E+04  0.00000000000E+00 0.  1.
          2   -1    0    0  501    0  0.00000000000E+00 -0.00000000000E+00 -0.14498513925E+04  0.14498513925E+04  0.00000000000E+00 0. -1.
         24    2    1    2    0    0  0.40605333448E+03  0.79560039972E+03  0.72585204065E+03  0.11536232706E+04  0.78269783570E+02 0.  0.
        254    2    1    2    0    0 -0.40605333448E+03 -0.79560039972E+03 -0.91156639177E+03  0.15603651632E+04  0.89773428673E+03 0.  0.
         23    2    4    4    0    0  0.20670181424E+03 -0.55299168187E+03 -0.36928989181E+03  0.70230550923E+03  0.91282878314E+02 0.  0.
         23    2    4    4    0    0 -0.61275514872E+03 -0.24260871785E+03 -0.54227649996E+03  0.85805965401E+03  0.88739535536E+02 0.  0.
          2    1    3    3  502    0  0.98519165363E+02  0.20458999672E+03  0.22920822140E+03  0.32264454351E+03  0.00000000000E+00 0. -1.
         -1    1    3    3    0  502  0.30753416911E+03  0.59101040300E+03  0.49664381924E+03  0.83097872706E+03  0.00000000000E+00 0.  1.
         13    1    5    5    0    0  0.13955038411E+03 -0.36812718479E+03 -0.19421385067E+03  0.43898855757E+03  0.00000000000E+00 0. -1.
        -13    1    5    5    0    0  0.67151430132E+02 -0.18486449708E+03 -0.17507604114E+03  0.26331695165E+03  0.00000000000E+00 0.  1.
          1    1    6    6  503    0 -0.54767136855E+03 -0.24376393866E+03 -0.49794587617E+03  0.77930410066E+03  0.00000000000E+00 0. -1.
         -1    1    6    6    0  503 -0.65083780174E+02  0.11552208127E+01 -0.44330623795E+02  0.78755553347E+02  0.00000000000E+00 0.  1.
<mgrwt>
<rscale>  0 0.27076269E+04</rscale>
<asrwt>0</asrwt>
<pdfrwt beam="1">  1        2 0.22305406E+00 0.27076269E+04</pdfrwt>
<pdfrwt beam="2">  1       -1 0.19448262E+00 0.27076269E+04</pdfrwt>
<totfact> 0.22246752E+00</totfact>
</mgrwt>
</event>
<event>
12    7  0.1741211E-007  0.1439925E+04  0.7818608E-02  0.8925415E-01
         -3   -1    0    0    0  501 -0.00000000000E+00  0.00000000000E+00  0.63428359348E+03  0.63428359348E+03  0.00000000000E+00 0.  1.
          2   -1    0    0  501    0  0.00000000000E+00 -0.00000000000E+00 -0.81721502352E+03  0.81721502352E+03  0.00000000000E+00 0. -1.
         24    2    1    2    0    0 -0.19239523312E+03 -0.75207122855E+02  0.32823031404E+03  0.39598940653E+03  0.80002712318E+02 0.  0.
        254    2    1    2    0    0  0.19239523312E+03  0.75207122855E+02 -0.51116174408E+03  0.10555092105E+04  0.90007851197E+03 0.  0.
         23    2    4    4    0    0  0.34281060762E+03 -0.16500118241E+03 -0.62429198012E+03  0.73676318325E+03  0.91296269712E+02 0.  0.
         23    2    4    4    0    0 -0.15041537450E+03  0.24020830527E+03  0.11313023603E+03  0.31874602721E+03  0.92063916674E+02 0.  0.
          4    1    3    3  502    0 -0.12218790835E+03 -0.24711489418E+02  0.25007974061E+03  0.27942873746E+03  0.00000000000E+00 0. -1.
         -1    1    3    3    0  502 -0.70207324764E+02 -0.50495633438E+02  0.78150573430E+02  0.11656066907E+03  0.00000000000E+00 0.  1.
         13    1    5    5    0    0  0.64426142731E+02 -0.22436990990E+01 -0.67551741994E+02  0.93375585135E+02  0.00000000000E+00 0. -1.
        -13    1    5    5    0    0  0.27838446489E+03 -0.16275748331E+03 -0.55674023812E+03  0.64338759812E+03  0.00000000000E+00 0.  1.
          1    1    6    6  503    0 -0.26275056736E+02  0.67910215019E+01 -0.74914268739E+01  0.28153473252E+02  0.00000000000E+00 0. -1.
         -1    1    6    6    0  503 -0.12414031777E+03  0.23341728377E+03  0.12062166291E+03  0.29059255396E+03  0.00000000000E+00 0.  1.
<mgrwt>
<rscale>  0 0.14399251E+04</rscale>
<asrwt>0</asrwt>
<pdfrwt beam="1">  1        2 0.12572539E+00 0.14399251E+04</pdfrwt>
<pdfrwt beam="2">  1       -3 0.97582092E-01 0.14399251E+04</pdfrwt>
<totfact> 0.19022837E+01</totfact>
</mgrwt>
</event>
<event>
12    7  0.1741211E-007  0.2794417E+04  0.7818608E-02  0.8305004E-01
          2   -1    0    0  501    0  0.00000000000E+00  0.00000000000E+00  0.40006028575E+04  0.40006028575E+04  0.00000000000E+00 0. -1.
         -1   -1    0    0    0  501 -0.00000000000E+00 -0.00000000000E+00 -0.48797419343E+03  0.48797419343E+03  0.00000000000E+00 0.  1.
         24    2    1    2    0    0  0.11762894166E+04 -0.13690304607E+03  0.22187008227E+04  0.25163191100E+04  0.82639499467E+02 0.  0.
        254    2    1    2    0    0 -0.11762894166E+04  0.13690304607E+03  0.12939278414E+04  0.19722579410E+04  0.90174990521E+03 0.  0.
         23    2    4    4    0    0 -0.11916968604E+03  0.12124013650E+03 -0.10218737023E+03  0.21864887287E+03  0.92002642383E+02 0.  0.
         23    2    4    4    0    0 -0.10571197305E+04  0.15662909579E+02  0.13961152116E+04  0.17536090681E+04  0.90882497158E+02 0.  0.
          4    1    3    3  502    0  0.99496322719E+03 -0.14324836867E+03  0.19038198905E+04  0.21529055005E+04  0.00000000000E+00 0. -1.
         -3    1    3    3    0  502  0.18132618937E+03  0.63453225912E+01  0.31488093223E+03  0.36341360948E+03  0.00000000000E+00 0.  1.
         13    1    5    5    0    0 -0.11503790871E+02  0.51379252007E+01  0.16502845556E+02  0.20762451474E+02  0.00000000000E+00 0.  1.
        -13    1    5    5    0    0 -0.10766589517E+03  0.11610221129E+03 -0.11869021579E+03  0.19788642140E+03  0.00000000000E+00 0. -1.
          3    1    6    6  503    0 -0.72491406338E+03  0.98538633808E+01  0.10252064412E+04  0.12556455491E+04  0.00000000000E+00 0. -1.
         -3    1    6    6    0  503 -0.33220566714E+03  0.58090461986E+01  0.37090877043E+03  0.49796351903E+03  0.00000000000E+00 0.  1.
<mgrwt>
<rscale>  0 0.27944165E+04</rscale>
<asrwt>0</asrwt>
<pdfrwt beam="1">  1        2 0.61547734E+00 0.27944165E+04</pdfrwt>
<pdfrwt beam="2">  1       -1 0.75072955E-01 0.27944165E+04</pdfrwt>
<totfact> 0.60377220E-01</totfact>
</mgrwt>
</event>
<event>
12    7  0.1741211E-007  0.1537922E+04  0.7818608E-02  0.8859620E-01
          2   -1    0    0  501    0  0.00000000000E+00  0.00000000000E+00  0.52414205575E+03  0.52414205575E+03  0.00000000000E+00 0. -1.
         -1   -1    0    0    0  501 -0.00000000000E+00 -0.00000000000E+00 -0.11281306686E+04  0.11281306686E+04  0.00000000000E+00 0.  1.
         24    2    1    2    0    0 -0.50153015334E+03  0.33897824010E+02 -0.22369103958E+03  0.55603933885E+03  0.80377285211E+02 0.  0.
        254    2    1    2    0    0  0.50153015334E+03 -0.33897824010E+02 -0.38029757327E+03  0.10962333855E+04  0.89689455013E+03 0.  0.
         23    2    4    4    0    0  0.39366165604E+03  0.13302530304E+03 -0.63298624188E+03  0.76259595128E+03  0.90640894785E+02 0.  0.
         23    2    4    4    0    0  0.10786849730E+03 -0.16692312705E+03  0.25268866861E+03  0.33363743422E+03  0.89238059228E+02 0.  0.
          4    1    3    3  502    0 -0.32553519453E+03  0.41609272824E+02 -0.18095645991E+03  0.37476624027E+03  0.00000000000E+00 0. -1.
         -3    1    3    3    0  502 -0.17599495881E+03 -0.77114488138E+01 -0.42734579671E+02  0.18127309858E+03  0.00000000000E+00 0.  1.
         13    1    5    5    0    0  0.31263865517E+02 -0.64461639272E+01 -0.86477059390E+02  0.92180605971E+02  0.00000000000E+00 0.  1.
        -13    1    5    5    0    0  0.36239779053E+03  0.13947146696E+03 -0.54650918249E+03  0.67041534531E+03  0.00000000000E+00 0. -1.
          3    1    6    6  503    0  0.10306592384E+03 -0.16655838202E+03  0.25960695222E+03  0.32520770120E+03  0.00000000000E+00 0. -1.
         -3    1    6    6    0  503  0.48025734529E+01 -0.36474502958E+00 -0.69182836079E+01  0.84297330199E+01  0.00000000000E+00 0.  1.
<mgrwt>
<rscale>  0 0.15379216E+04</rscale>
<asrwt>0</asrwt>
<pdfrwt beam="1">  1        2 0.80637240E-01 0.15379216E+04</pdfrwt>
<pdfrwt beam="2">  1       -1 0.17355856E+00 0.15379216E+04</pdfrwt>
<totfact> 0.14869974E+01</totfact>
</mgrwt>
</event>
<event>
12    7  0.1741211E-007  0.1556327E+04  0.7818608E-02  0.8847836E-01
         -1   -1    0    0    0  501 -0.00000000000E+00  0.00000000000E+00  0.74524388222E+03  0.74524388222E+03  0.00000000000E+00 0.  1.
          2   -1    0    0  501    0  0.00000000000E+00 -0.00000000000E+00 -0.81253769618E+03  0.81253769618E+03  0.00000000000E+00 0. -1.
         24    2    1    2    0    0  0.24061532583E+03  0.13417162058E+03 -0.47326089832E+03  0.55297163703E+03  0.76837456290E+02 0.  0.
        254    2    1    2    0    0 -0.24061532583E+03 -0.13417162058E+03  0.40596708436E+03  0.10048099414E+04  0.87688995085E+03 0.  0.
         23    2    4    4    0    0 -0.89027260062E+01 -0.47864682355E+03  0.15586984337E+03  0.51164193551E+03  0.91104455803E+02 0.  0.
         23    2    4    4    0    0 -0.23171259982E+03  0.34447520298E+03  0.25009724099E+03  0.49316800586E+03  0.91171035273E+02 0.  0.
          4    1    3    3  502    0  0.92716606950E+02  0.83126122876E+02 -0.26195458682E+03  0.29004573272E+03  0.00000000000E+00 0. -1.
         -3    1    3    3    0  502  0.14789871888E+03  0.51045497701E+02 -0.21130631150E+03  0.26292590432E+03  0.00000000000E+00 0.  1.
         13    1    5    5    0    0 -0.75571098089E+01 -0.24785981514E+02  0.32006364113E+02  0.41180846664E+02  0.00000000000E+00 0. -1.
        -13    1    5    5    0    0 -0.13456161973E+01 -0.45386084204E+03  0.12386347926E+03  0.47046108884E+03  0.00000000000E+00 0.  1.
          4    1    6    6  503    0 -0.14908974745E+02  0.81764757404E+02  0.64959996552E+02  0.10548722308E+03  0.00000000000E+00 0. -1.
         -4    1    6    6    0  503 -0.21680362508E+03  0.26271044557E+03  0.18513724444E+03  0.38768078278E+03  0.00000000000E+00 0.  1.
<mgrwt>
<rscale>  0 0.15563274E+04</rscale>
<asrwt>0</asrwt>
<pdfrwt beam="1">  1        2 0.12500580E+00 0.15563274E+04</pdfrwt>
<pdfrwt beam="2">  1       -1 0.11465290E+00 0.15563274E+04</pdfrwt>
<totfact> 0.25628334E+01</totfact>
</mgrwt>
</event>
<event>
12    7  0.1741211E-007  0.1187905E+04  0.7818608E-02  0.9123509E-01
         -1   -1    0    0    0  501 -0.00000000000E+00  0.00000000000E+00  0.24548191209E+03  0.24548191209E+03  0.00000000000E+00 0.  1.
          2   -1    0    0  501    0  0.00000000000E+00 -0.00000000000E+00 -0.14370906669E+04  0.14370906669E+04  0.00000000000E+00 0. -1.
         24    2    1    2    0    0 -0.38277294833E+02  0.13086377614E+03  0.20925215033E+02  0.15761072755E+03  0.76241705179E+02 0.  0.
        254    2    1    2    0    0  0.38277294833E+02 -0.13086377614E+03 -0.12125339699E+04  0.15249618514E+04  0.91470188646E+03 0.  0.
         23    2    4    4    0    0 -0.39405882985E+03 -0.46424564486E+02 -0.86679782956E+03  0.95770472394E+03  0.91772868233E+02 0.  0.
         23    2    4    4    0    0  0.43233612469E+03 -0.84439211655E+02 -0.34573614029E+03  0.56725712750E+03  0.90568564238E+02 0.  0.
          2    1    3    3  502    0  0.28293844761E+01  0.15338329513E+02 -0.22629810401E+02  0.27484142474E+02  0.00000000000E+00 0. -1.
         -1    1    3    3    0  502 -0.41106679309E+02  0.11552544663E+03  0.43555025434E+02  0.13012658507E+03  0.00000000000E+00 0.  1.
         13    1    5    5    0    0 -0.31017607961E+03 -0.66486630821E+02 -0.62323969895E+03  0.69932638646E+03  0.00000000000E+00 0.  1.
        -13    1    5    5    0    0 -0.83882750238E+02  0.20062066335E+02 -0.24355813061E+03  0.25837833748E+03  0.00000000000E+00 0. -1.
          3    1    6    6  503    0  0.55404498171E+02 -0.11199823041E+02 -0.10426534483E+02  0.57478753249E+02  0.00000000000E+00 0. -1.
         -3    1    6    6    0  503  0.37693162651E+03 -0.73239388614E+02 -0.33530960580E+03  0.50977837425E+03  0.00000000000E+00 0.  1.
<mgrwt>
<rscale>  0 0.11879053E+04</rscale>
<asrwt>0</asrwt>
<pdfrwt beam="1">  1        2 0.22109087E+00 0.11879053E+04</pdfrwt>
<pdfrwt beam="2">  1       -1 0.37766449E-01 0.11879053E+04</pdfrwt>
<totfact> 0.10483501E+02</totfact>
</mgrwt>
</event>
<event>
12    7  0.1741211E-007  0.1254681E+04  0.7818608E-02  0.9066296E-01
         -1   -1    0    0    0  501 -0.00000000000E+00  0.00000000000E+00  0.31247433340E+03  0.31247433340E+03  0.00000000000E+00 0.  1.
          2   -1    0    0  501    0  0.00000000000E+00 -0.00000000000E+00 -0.12594826631E+04  0.12594826631E+04  0.00000000000E+00 0. -1.
         24    2    1    2    0    0  0.88698190070E+02  0.45361247803E+01  0.12418332135E+03  0.17002944153E+03  0.74836945004E+02 0.  0.
        254    2    1    2    0    0 -0.88698190070E+02 -0.45361247803E+01 -0.10711916510E+04  0.14019275549E+04  0.90003409421E+03 0.  0.
         23    2    4    4    0    0 -0.36902563979E+03 -0.11740197583E+03 -0.14494998222E+03  0.42340806421E+03  0.91108422991E+02 0.  0.
         23    2    4    4    0    0  0.28032744972E+03  0.11286585105E+03 -0.92624166881E+03  0.97851949074E+03  0.90854748424E+02 0.  0.
          4    1    3    3  502    0  0.21300274713E+02 -0.12435402241E+01 -0.69806063660E+01  0.22449431182E+02  0.00000000000E+00 0. -1.
         -3    1    3    3    0  502  0.67397915356E+02  0.57796650045E+01  0.13116392772E+03  0.14758001035E+03  0.00000000000E+00 0.  1.
         13    1    5    5    0    0 -0.13528738984E+03 -0.78131352921E+02 -0.26557018533E+02  0.15846911810E+03  0.00000000000E+00 0. -1.
        -13    1    5    5    0    0 -0.23373824995E+03 -0.39270622913E+02 -0.11839296368E+03  0.26493894610E+03  0.00000000000E+00 0.  1.
          2    1    6    6  503    0  0.26813234524E+03  0.78947144276E+02 -0.82001447738E+03  0.86634366695E+03  0.00000000000E+00 0. -1.
         -2    1    6    6    0  503  0.12195104476E+02  0.33918706777E+02 -0.10622719143E+03  0.11217582378E+03  0.00000000000E+00 0.  1.
<mgrwt>
<rscale>  0 0.12546808E+04</rscale>
<asrwt>0</asrwt>
<pdfrwt beam="1">  1        2 0.19376656E+00 0.12546808E+04</pdfrwt>
<pdfrwt beam="2">  1       -1 0.48072974E-01 0.12546808E+04</pdfrwt>
<totfact> 0.84612917E+01</totfact>
</mgrwt>
</event>
<event>
12    7  0.1741211E-007  0.1139513E+04  0.7818608E-02  0.9167513E-01
         -1   -1    0    0    0  501 -0.00000000000E+00  0.00000000000E+00  0.34618731792E+03  0.34618731792E+03  0.00000000000E+00 0.  1.
          2   -1    0    0  501    0  0.00000000000E+00 -0.00000000000E+00 -0.93770818417E+03  0.93770818417E+03  0.00000000000E+00 0. -1.
         24    2    1    2    0    0  0.17959801311E+02 -0.21760362007E+02  0.11127616398E+03  0.13970938241E+03  0.79625743598E+02 0.  0.
        254    2    1    2    0    0 -0.17959801311E+02  0.21760362007E+02 -0.70279703023E+03  0.11441861197E+04  0.90246448294E+03 0.  0.
         23    2    4    4    0    0  0.41667094015E+03  0.12231002507E+03 -0.29018933471E+03  0.53019140130E+03  0.91206674277E+02 0.  0.
         23    2    4    4    0    0 -0.43463074146E+03 -0.10054966307E+03 -0.41260769552E+03  0.61399471839E+03  0.87922054340E+02 0.  0.
          4    1    3    3  502    0  0.31735300073E+02 -0.19894768830E+02  0.11805629920E+02  0.39272178388E+02  0.00000000000E+00 0. -1.
         -3    1    3    3    0  502 -0.13775498762E+02 -0.18655931763E+01  0.99470534064E+02  0.10043720402E+03  0.00000000000E+00 0.  1.
         13    1    5    5    0    0  0.67933738710E+02  0.27032606218E+02 -0.12144408149E+02  0.74116403740E+02  0.00000000000E+00 0. -1.
        -13    1    5    5    0    0  0.34873720144E+03  0.95277418854E+02 -0.27804492656E+03  0.45607499756E+03  0.00000000000E+00 0.  1.
          3    1    6    6  503    0 -0.36071687775E+02  0.15440601266E+02 -0.29030288343E+02  0.48809184255E+02  0.00000000000E+00 0. -1.
         -3    1    6    6    0  503 -0.39855905369E+03 -0.11599026433E+03 -0.38357740717E+03  0.56518553413E+03  0.00000000000E+00 0.  1.
<mgrwt>
<rscale>  0 0.11395134E+04</rscale>
<asrwt>0</asrwt>
<pdfrwt beam="1">  1        2 0.14426280E+00 0.11395134E+04</pdfrwt>
<pdfrwt beam="2">  1       -1 0.53259588E-01 0.11395134E+04</pdfrwt>
<totfact> 0.11113355E+02</totfact>
</mgrwt>
</event>
<event>
12    7  0.1741211E-007  0.1444533E+04  0.7818608E-02  0.8922199E-01
         -1   -1    0    0    0  501 -0.00000000000E+00  0.00000000000E+00  0.29338055456E+03  0.29338055456E+03  0.00000000000E+00 0.  1.
          2   -1    0    0  501    0  0.00000000000E+00 -0.00000000000E+00 -0.17781302607E+04  0.17781302607E+04  0.00000000000E+00 0. -1.
         24    2    1    2    0    0  0.11448041172E+02  0.36988538857E+03 -0.78987442531E+03  0.87589253814E+03  0.79623314913E+02 0.  0.
        254    2    1    2    0    0 -0.11448041172E+02 -0.36988538857E+03 -0.69487528087E+03  0.11956182772E+04  0.89983617976E+03 0.  0.
         23    2    4    4    0    0 -0.19402544232E+03 -0.53405271570E+03 -0.73194412630E+03  0.93128639216E+03  0.93241432721E+02 0.  0.
         23    2    4    4    0    0  0.18257740115E+03  0.16416732713E+03  0.37068845430E+02  0.26433188501E+03  0.90619133879E+02 0.  0.
          2    1    3    3  502    0 -0.66484890948E+01  0.36628181597E+02 -0.37618637612E+02  0.52924361028E+02  0.00000000000E+00 0. -1.
         -3    1    3    3    0  502  0.18096530266E+02  0.33325720697E+03 -0.75225578770E+03  0.82296817711E+03  0.00000000000E+00 0.  1.
         13    1    5    5    0    0 -0.14883526529E+03 -0.33985808159E+03 -0.53478306512E+03  0.65088276868E+03  0.00000000000E+00 0. -1.
        -13    1    5    5    0    0 -0.45190177038E+02 -0.19419463411E+03 -0.19716106118E+03  0.28040362348E+03  0.00000000000E+00 0.  1.
          1    1    6    6  503    0  0.19002513524E+03  0.15347676462E+03  0.45971234708E+02  0.24855185318E+03  0.00000000000E+00 0. -1.
         -1    1    6    6    0  503 -0.74477340832E+01  0.10690562509E+02 -0.89023892786E+01  0.15780031832E+02  0.00000000000E+00 0.  1.
<mgrwt>
<rscale>  0 0.14445329E+04</rscale>
<asrwt>0</asrwt>
<pdfrwt beam="1">  1        2 0.27355850E+00 0.14445329E+04</pdfrwt>
<pdfrwt beam="2">  1       -1 0.45135470E-01 0.14445329E+04</pdfrwt>
<totfact> 0.47762230E+01</totfact>
</mgrwt>
</event>
<event>
12    7  0.1741211E-007  0.1372356E+04  0.7818608E-02  0.8974075E-01
         -1   -1    0    0    0  501 -0.00000000000E+00  0.00000000000E+00  0.37785560336E+03  0.37785560336E+03  0.00000000000E+00 0.  1.
          2   -1    0    0  501    0  0.00000000000E+00 -0.00000000000E+00 -0.12460856798E+04  0.12460856798E+04  0.00000000000E+00 0. -1.
         24    2    1    2    0    0 -0.11742415744E+03  0.35819911463E+03 -0.14831041564E+03  0.41285080509E+03  0.79716807545E+02 0.  0.
        254    2    1    2    0    0  0.11742415744E+03 -0.35819911463E+03 -0.71991966078E+03  0.12110904780E+04  0.89797594041E+03 0.  0.
         23    2    4    4    0    0 -0.27179186539E+03 -0.27071665505E+03 -0.69749940781E+03  0.80149621884E+03  0.93447522701E+02 0.  0.
         23    2    4    4    0    0  0.38921602284E+03 -0.87482459586E+02 -0.22420252971E+02  0.40959425921E+03  0.90124892602E+02 0.  0.
          2    1    3    3  502    0 -0.12560522488E+03  0.35147463340E+03 -0.13763052405E+03  0.39781057250E+03  0.00000000000E+00 0. -1.
         -1    1    3    3    0  502  0.81810674315E+01  0.67244812286E+01 -0.10679891592E+02  0.15040232595E+02  0.00000000000E+00 0.  1.
         13    1    5    5    0    0  0.36872391531E+01 -0.24747165371E+01  0.62965972208E+00  0.44851338750E+01  0.00000000000E+00 0.  1.
        -13    1    5    5    0    0 -0.27547910455E+03 -0.26824193851E+03 -0.69812906753E+03  0.79701108496E+03  0.00000000000E+00 0. -1.
          2    1    6    6  503    0  0.17134773080E+03 -0.74993722750E+02 -0.37819659496E+02  0.19082565327E+03  0.00000000000E+00 0. -1.
         -2    1    6    6    0  503  0.21786829204E+03 -0.12488736836E+02  0.15399406525E+02  0.21876860594E+03  0.00000000000E+00 0.  1.
<mgrwt>
<rscale>  0 0.13723563E+04</rscale>
<asrwt>0</asrwt>
<pdfrwt beam="1">  1        2 0.19170549E+00 0.13723563E+04</pdfrwt>
<pdfrwt beam="2">  1       -1 0.58131630E-01 0.13723563E+04</pdfrwt>
<totfact> 0.59271396E+01</totfact>
</mgrwt>
</event>
<event>
12    7  0.1741211E-007  0.1605088E+04  0.7818608E-02  0.8817428E-01
          2   -1    0    0  501    0  0.00000000000E+00  0.00000000000E+00  0.16250547957E+04  0.16250547957E+04  0.00000000000E+00 0. -1.
         -1   -1    0    0    0  501 -0.00000000000E+00 -0.00000000000E+00 -0.39634166105E+03  0.39634166105E+03  0.00000000000E+00 0.  1.
         24    2    1    2    0    0  0.52875830022E+03 -0.12853682017E+03  0.45983265414E+03  0.71673098775E+03  0.78423113948E+02 0.  0.
        254    2    1    2    0    0 -0.52875830022E+03  0.12853682017E+03  0.76888048049E+03  0.13046654690E+04  0.90270024841E+03 0.  0.
         23    2    4    4    0    0  0.89817867502E+02  0.77264523738E+02 -0.13669137327E+03  0.20257747264E+03  0.91192351356E+02 0.  0.
         23    2    4    4    0    0 -0.61857616772E+03  0.51272296435E+02  0.90557185376E+03  0.11020879963E+04  0.96292500721E+02 0.  0.
          2    1    3    3  502    0  0.39620531143E+02 -0.29968451366E+02  0.55650393937E+02  0.74597995353E+02  0.00000000000E+00 0. -1.
         -1    1    3    3    0  502  0.48913776907E+03 -0.98568368807E+02  0.40418226020E+03  0.64213299240E+03  0.00000000000E+00 0.  1.
         13    1    5    5    0    0  0.10199165312E+03  0.39321626528E+02 -0.10617826930E+03  0.15238868885E+03  0.00000000000E+00 0. -1.
        -13    1    5    5    0    0 -0.12173785614E+02  0.37942897211E+02 -0.30513103972E+02  0.50188783796E+02  0.00000000000E+00 0.  1.
          2    1    6    6  503    0 -0.91574614963E+02  0.39280457966E+02  0.11891827130E+03  0.15514644609E+03  0.00000000000E+00 0.  1.
         -2    1    6    6    0  503 -0.52700155276E+03  0.11991838469E+02  0.78665358246E+03  0.94694155025E+03  0.00000000000E+00 0. -1.
<mgrwt>
<rscale>  0 0.16050881E+04</rscale>
<asrwt>0</asrwt>
<pdfrwt beam="1">  1        2 0.25000843E+00 0.16050881E+04</pdfrwt>
<pdfrwt beam="2">  1       -1 0.60975641E-01 0.16050881E+04</pdfrwt>
<totfact> 0.32164153E+01</totfact>
</mgrwt>
</event>
<event>
12    7  0.1741211E-007  0.1809848E+04  0.7818608E-02  0.8701080E-01
         -1   -1    0    0    0  501 -0.00000000000E+00  0.00000000000E+00  0.31333680739E+03  0.31333680739E+03  0.00000000000E+00 0.  1.
          2   -1    0    0  501    0  0.00000000000E+00 -0.00000000000E+00 -0.26134427610E+04  0.26134427610E+04  0.00000000000E+00 0. -1.
         24    2    1    2    0    0  0.57894210686E+02  0.47045979756E+03 -0.83052598051E+02  0.48802048089E+03  0.81130111411E+02 0.  0.
        254    2    1    2    0    0 -0.57894210686E+02 -0.47045979756E+03 -0.22170533556E+04  0.24387590875E+04  0.89863014900E+03 0.  0.
         23    2    4    4    0    0  0.39217113609E+03 -0.20270181037E+03 -0.13360264161E+04  0.14097377999E+04  0.86647885450E+02 0.  0.
         23    2    4    4    0    0 -0.45006534678E+03 -0.26775798719E+03 -0.88102693945E+03  0.10290212876E+04  0.91777917729E+02 0.  0.
          2    1    3    3  502    0  0.50857916202E+01  0.13049195313E+02 -0.18294781132E+02  0.23040090959E+02  0.00000000000E+00 0. -1.
         -1    1    3    3    0  502  0.52808419066E+02  0.45741060224E+03 -0.64757816920E+02  0.46498038993E+03  0.00000000000E+00 0.  1.
         13    1    5    5    0    0  0.31334600182E+03 -0.12277509179E+03 -0.95783494940E+03  0.10152375241E+04  0.00000000000E+00 0. -1.
        -13    1    5    5    0    0  0.78825134272E+02 -0.79926718582E+02 -0.37819146674E+03  0.39450027586E+03  0.00000000000E+00 0.  1.
          1    1    6    6  503    0 -0.42857868484E+03 -0.24495086779E+03 -0.85893677935E+03  0.99068310152E+03  0.00000000000E+00 0. -1.
         -1    1    6    6    0  503 -0.21486661937E+02 -0.22807119402E+02 -0.22090160098E+02  0.38338186052E+02  0.00000000000E+00 0.  1.
<mgrwt>
<rscale>  0 0.18098484E+04</rscale>
<asrwt>0</asrwt>
<pdfrwt beam="1">  1        2 0.40206812E+00 0.18098484E+04</pdfrwt>
<pdfrwt beam="2">  1       -1 0.48205663E-01 0.18098484E+04</pdfrwt>
<totfact> 0.13831371E+01</totfact>
</mgrwt>
</event>
<event>
12    7  0.1741211E-007  0.2131350E+04  0.7818608E-02  0.8547558E-01
         -1   -1    0    0    0  501 -0.00000000000E+00  0.00000000000E+00  0.62626627919E+03  0.62626627919E+03  0.00000000000E+00 0.  1.
          2   -1    0    0  501    0  0.00000000000E+00 -0.00000000000E+00 -0.18133869594E+04  0.18133869594E+04  0.00000000000E+00 0. -1.
         24    2    1    2    0    0 -0.46277460222E+03 -0.13971549023E+03  0.34378968431E+03  0.59889106978E+03  0.82452506081E+02 0.  0.
        254    2    1    2    0    0  0.46277460222E+03  0.13971549023E+03 -0.15309103645E+04  0.18407621688E+04  0.90057651939E+03 0.  0.
         23    2    4    4    0    0 -0.14708954850E+03  0.30335138357E+03 -0.32823150125E+03  0.47938356303E+03  0.91734861932E+02 0.  0.
         23    2    4    4    0    0  0.60986415072E+03 -0.16363589334E+03 -0.12026788633E+04  0.13613786058E+04  0.90577437725E+02 0.  0.
          4    1    3    3  502    0  0.20116225766E+01 -0.20253494592E+01  0.98317361064E+01  0.10237758577E+02  0.00000000000E+00 0. -1.
         -3    1    3    3    0  502 -0.46478622480E+03 -0.13769014077E+03  0.33395794820E+03  0.58865331121E+03  0.00000000000E+00 0.  1.
         13    1    5    5    0    0 -0.13142104884E+03  0.20965668817E+03 -0.27710608696E+03  0.37150397360E+03  0.00000000000E+00 0.  1.
        -13    1    5    5    0    0 -0.15668499663E+02  0.93694695401E+02 -0.51125414293E+02  0.10787958943E+03  0.00000000000E+00 0. -1.
          1    1    6    6  503    0  0.13970224408E+02 -0.17965193306E+02 -0.64748674685E+02  0.68631670634E+02  0.00000000000E+00 0. -1.
         -1    1    6    6    0  503  0.59589392631E+03 -0.14567070004E+03 -0.11379301886E+04  0.12927469352E+04  0.00000000000E+00 0.  1.
<mgrwt>
<rscale>  0 0.21313499E+04</rscale>
<asrwt>0</asrwt>
<pdfrwt beam="1">  1        2 0.27898261E+00 0.21313499E+04</pdfrwt>
<pdfrwt beam="2">  1       -1 0.96348658E-01 0.21313499E+04</pdfrwt>
<totfact> 0.92081607E+00</totfact>
</mgrwt>
</event>
<event>
12    7  0.1741211E-007  0.2533645E+04  0.7818608E-02  0.8391096E-01
         -1   -1    0    0    0  501 -0.00000000000E+00  0.00000000000E+00  0.17084151042E+04  0.17084151042E+04  0.00000000000E+00 0.  1.
          2   -1    0    0  501    0  0.00000000000E+00 -0.00000000000E+00 -0.93937330932E+03  0.93937330932E+03  0.00000000000E+00 0. -1.
         24    2    1    2    0    0  0.34842156494E+03  0.97793275300E+03 -0.57949290737E+02  0.10428521606E+04  0.80202570350E+02 0.  0.
        254    2    1    2    0    0 -0.34842156494E+03 -0.97793275300E+03  0.82699108560E+03  0.16049362529E+04  0.90230597021E+03 0.  0.
         23    2    4    4    0    0 -0.39351676636E+03 -0.11014692136E+04  0.84069132473E+03  0.14433924738E+04  0.92358303345E+02 0.  0.
         23    2    4    4    0    0  0.45095201422E+02  0.12353646058E+03 -0.13700239134E+02  0.16154377904E+03  0.92810892196E+02 0.  0.
          4    1    3    3  502    0  0.28784075107E+03  0.83575073526E+03 -0.22135833436E+02  0.88420675444E+03  0.00000000000E+00 0. -1.
         -3    1    3    3    0  502  0.60580813863E+02  0.14218201774E+03 -0.35813457301E+02  0.15864540618E+03  0.00000000000E+00 0.  1.
         13    1    5    5    0    0 -0.19668915221E+03 -0.46164818707E+03  0.40292122973E+03  0.64354579370E+03  0.00000000000E+00 0. -1.
        -13    1    5    5    0    0 -0.19682761414E+03 -0.63982102652E+03  0.43777009500E+03  0.79984668015E+03  0.00000000000E+00 0.  1.
          2    1    6    6  503    0  0.28902916319E+01 -0.86897343563E+01  0.17073728862E+02  0.19374660930E+02  0.00000000000E+00 0. -1.
         -2    1    6    6    0  503  0.42204909790E+02  0.13222619494E+03 -0.30773967996E+02  0.14216911811E+03  0.00000000000E+00 0.  1.
<mgrwt>
<rscale>  0 0.25336452E+04</rscale>
<asrwt>0</asrwt>
<pdfrwt beam="1">  1        2 0.14451897E+00 0.25336452E+04</pdfrwt>
<pdfrwt beam="2">  1       -1 0.26283309E+00 0.25336452E+04</pdfrwt>
<totfact> 0.16092318E+00</totfact>
</mgrwt>
</event>
<event>
12    7  0.1741211E-007  0.2107238E+04  0.7818608E-02  0.8558062E-01
         -1   -1    0    0    0  501 -0.00000000000E+00  0.00000000000E+00  0.78409412077E+03  0.78409412077E+03  0.00000000000E+00 0.  1.
          2   -1    0    0  501    0  0.00000000000E+00 -0.00000000000E+00 -0.14157908885E+04  0.14157908885E+04  0.00000000000E+00 0. -1.
         24    2    1    2    0    0 -0.77160578064E+03  0.36818228769E+03 -0.26795315736E+03  0.89951358728E+03  0.79950744038E+02 0.  0.
        254    2    1    2    0    0  0.77160578064E+03 -0.36818228769E+03 -0.36374361041E+03  0.13003714220E+04  0.90979269255E+03 0.  0.
         23    2    4    4    0    0  0.62007558361E+03 -0.65703774463E+03 -0.24085286027E+03  0.93968168503E+03  0.93804272937E+02 0.  0.
         23    2    4    4    0    0  0.15153019704E+03  0.28885545695E+03 -0.12289075014E+03  0.36068973699E+03  0.92715016482E+02 0.  0.
          4    1    3    3  502    0 -0.46924188375E+03  0.21399220114E+03 -0.20127230841E+03  0.55361642836E+03  0.00000000000E+00 0. -1.
         -3    1    3    3    0  502 -0.30236389689E+03  0.15419008654E+03 -0.66680848948E+02  0.34589715892E+03  0.00000000000E+00 0.  1.
         13    1    5    5    0    0  0.37192349307E+03 -0.43851034856E+03 -0.11825273920E+03  0.58702821126E+03  0.00000000000E+00 0. -1.
        -13    1    5    5    0    0  0.24815209054E+03 -0.21852739608E+03 -0.12260012107E+03  0.35265347377E+03  0.00000000000E+00 0.  1.
          3    1    6    6  503    0  0.12719128694E+03  0.14724214189E+03 -0.58036999699E+02  0.20304227430E+03  0.00000000000E+00 0. -1.
         -3    1    6    6    0  503  0.24338910100E+02  0.14161331506E+03 -0.64853750439E+02  0.15764746269E+03  0.00000000000E+00 0.  1.
<mgrwt>
<rscale>  0 0.21072383E+04</rscale>
<asrwt>0</asrwt>
<pdfrwt beam="1">  1        2 0.21781398E+00 0.21072383E+04</pdfrwt>
<pdfrwt beam="2">  1       -1 0.12062987E+00 0.21072383E+04</pdfrwt>
<totfact> 0.90910447E+00</totfact>
</mgrwt>
</event>
<event>
12    7  0.1741211E-007  0.1765084E+04  0.7818608E-02  0.8725091E-01
         -1   -1    0    0    0  501 -0.00000000000E+00  0.00000000000E+00  0.48716607143E+03  0.48716607143E+03  0.00000000000E+00 0.  1.
          2   -1    0    0  501    0  0.00000000000E+00 -0.00000000000E+00 -0.15987982516E+04  0.15987982516E+04  0.00000000000E+00 0. -1.
         24    2    1    2    0    0 -0.50423636042E+03 -0.21932207705E+03 -0.20666661753E+02  0.55604801619E+03  0.80036271432E+02 0.  0.
        254    2    1    2    0    0  0.50423636042E+03  0.21932207705E+03 -0.10909655184E+04  0.15299163068E+04  0.92091349370E+03 0.  0.
         23    2    4    4    0    0  0.34267650156E+03 -0.16453510625E+03 -0.35921047299E+02  0.39190402708E+03  0.88314545199E+02 0.  0.
         23    2    4    4    0    0  0.16155985886E+03  0.38385718330E+03 -0.10550444711E+04  0.11380122797E+04  0.92223574366E+02 0.  0.
          2    1    3    3  502    0 -0.20162302596E+01 -0.14259177753E+01 -0.80824587252E+01  0.84513055208E+01  0.00000000000E+00 0. -1.
         -1    1    3    3    0  502 -0.50222013016E+03 -0.21789615928E+03 -0.12584203028E+02  0.54759671067E+03  0.00000000000E+00 0.  1.
         13    1    5    5    0    0  0.16032500217E+03 -0.90613836197E+02  0.25173053017E+02  0.18587268823E+03  0.00000000000E+00 0.  1.
        -13    1    5    5    0    0  0.18235149939E+03 -0.73921270052E+02 -0.61094100317E+02  0.20603133885E+03  0.00000000000E+00 0. -1.
          4    1    6    6  503    0  0.98725942221E+00  0.57317177147E+01 -0.76675339916E+02  0.76895611190E+02  0.00000000000E+00 0. -1.
         -4    1    6    6    0  503  0.16057259944E+03  0.37812546559E+03 -0.97836913117E+03  0.10611166685E+04  0.00000000000E+00 0.  1.
<mgrwt>
<rscale>  0 0.17650839E+04</rscale>
<asrwt>0</asrwt>
<pdfrwt beam="1">  1        2 0.24596896E+00 0.17650839E+04</pdfrwt>
<pdfrwt beam="2">  1       -1 0.74948628E-01 0.17650839E+04</pdfrwt>
<totfact> 0.21568365E+01</totfact>
</mgrwt>
</event>
<event>
12    7  0.1741211E-007  0.1851283E+04  0.7818608E-02  0.8679494E-01
         -1   -1    0    0    0  501 -0.00000000000E+00  0.00000000000E+00  0.59182229799E+03  0.59182229799E+03  0.00000000000E+00 0.  1.
          2   -1    0    0  501    0  0.00000000000E+00 -0.00000000000E+00 -0.14477517582E+04  0.14477517582E+04  0.00000000000E+00 0. -1.
         24    2    1    2    0    0  0.10111953619E+03 -0.13284627280E+03 -0.10750270724E+04  0.10907238069E+04  0.78242723766E+02 0.  0.
        254    2    1    2    0    0 -0.10111953619E+03  0.13284627280E+03  0.21909761214E+03  0.94885024930E+03  0.90798664040E+03 0.  0.
         23    2    4    4    0    0 -0.19915151769E+03  0.25286248210E+03 -0.26828652832E+03  0.42906348915E+03  0.92287889755E+02 0.  0.
         23    2    4    4    0    0  0.98031981492E+02 -0.12001620929E+03  0.48738414046E+03  0.51978676014E+03  0.92848348156E+02 0.  0.
          2    1    3    3  502    0  0.44077691839E+02 -0.81994751128E+02 -0.79588335493E+03  0.80130911438E+03  0.00000000000E+00 0. -1.
         -1    1    3    3    0  502  0.57041844354E+02 -0.50851521676E+02 -0.27914371744E+03  0.28941469252E+03  0.00000000000E+00 0.  1.
         13    1    5    5    0    0 -0.22444308854E+02  0.12599137741E+02  0.29716702682E+01  0.25909768350E+02  0.00000000000E+00 0. -1.
        -13    1    5    5    0    0 -0.17670720883E+03  0.24026334436E+03 -0.27125819859E+03  0.40315372080E+03  0.00000000000E+00 0.  1.
          2    1    6    6  503    0  0.30672432471E+02  0.83308326208E+01  0.13631311104E+03  0.13996951499E+03  0.00000000000E+00 0. -1.
         -2    1    6    6    0  503  0.67359549021E+02 -0.12834704192E+03  0.35107102942E+03  0.37981724515E+03  0.00000000000E+00 0.  1.
<mgrwt>
<rscale>  0 0.18512826E+04</rscale>
<asrwt>0</asrwt>
<pdfrwt beam="1">  1        2 0.22273104E+00 0.18512826E+04</pdfrwt>
<pdfrwt beam="2">  1       -1 0.91049585E-01 0.18512826E+04</pdfrwt>
<totfact> 0.17143175E+01</totfact>
</mgrwt>
</event>
<event>
12    7  0.1741211E-007  0.1692034E+04  0.7818608E-02  0.8765921E-01
          2   -1    0    0  501    0  0.00000000000E+00  0.00000000000E+00  0.97801727437E+03  0.97801727437E+03  0.00000000000E+00 0. -1.
         -1   -1    0    0    0  501 -0.00000000000E+00 -0.00000000000E+00 -0.73183241362E+03  0.73183241362E+03  0.00000000000E+00 0.  1.
         24    2    1    2    0    0 -0.83153771662E+02  0.28657275883E+03 -0.43786443185E+03  0.53913976884E+03  0.99538604699E+02 0.  0.
        254    2    1    2    0    0  0.83153771662E+02 -0.28657275883E+03  0.68404929260E+03  0.11707099192E+04  0.90199766311E+03 0.  0.
         23    2    4    4    0    0 -0.37261151422E+03 -0.20371772541E+03  0.50370426727E+03  0.66450753041E+03  0.86671892441E+02 0.  0.
         23    2    4    4    0    0  0.45576528588E+03 -0.82855033412E+02  0.18034502533E+03  0.50620238874E+03  0.95548824336E+02 0.  0.
          2    1    3    3  502    0 -0.34846062605E+02  0.13797364419E+02 -0.55636926226E+02  0.67082657251E+02  0.00000000000E+00 0. -1.
         -1    1    3    3    0  502 -0.48307709057E+02  0.27277539441E+03 -0.38222750562E+03  0.47205711159E+03  0.00000000000E+00 0.  1.
         13    1    5    5    0    0 -0.18220827489E+03 -0.14609898954E+03  0.29373228764E+03  0.37526447605E+03  0.00000000000E+00 0.  1.
        -13    1    5    5    0    0 -0.19040323932E+03 -0.57618735874E+02  0.20997197963E+03  0.28924305436E+03  0.00000000000E+00 0. -1.
          3    1    6    6  503    0  0.42276523020E+03 -0.97730113767E+02  0.15045333684E+03  0.45925790311E+03  0.00000000000E+00 0. -1.
         -3    1    6    6    0  503  0.33000055680E+02  0.14875080356E+02  0.29891688489E+02  0.46944485632E+02  0.00000000000E+00 0.  1.
<mgrwt>
<rscale>  0 0.16920340E+04</rscale>
<asrwt>0</asrwt>
<pdfrwt beam="1">  1        2 0.15046420E+00 0.16920340E+04</pdfrwt>
<pdfrwt beam="2">  1       -1 0.11258960E+00 0.16920340E+04</pdfrwt>
<totfact> 0.20421726E+01</totfact>
</mgrwt>
</event>
<event>
12    7  0.1741211E-007  0.1606782E+04  0.7818608E-02  0.8816392E-01
         -1   -1    0    0    0  501 -0.00000000000E+00  0.00000000000E+00  0.96557126139E+03  0.96557126139E+03  0.00000000000E+00 0.  1.
          2   -1    0    0  501    0  0.00000000000E+00 -0.00000000000E+00 -0.66845109583E+03  0.66845109583E+03  0.00000000000E+00 0. -1.
         24    2    1    2    0    0 -0.29755409111E+03 -0.75889339531E+02 -0.36330294224E+03  0.48236029598E+03  0.79904932926E+02 0.  0.
        254    2    1    2    0    0  0.29755409111E+03  0.75889339531E+02  0.66042310781E+03  0.11516620612E+04  0.89211501107E+03 0.  0.
         23    2    4    4    0    0 -0.14144474154E+03  0.36969882113E+03  0.27604347113E+03  0.49148466212E+03  0.93130778456E+02 0.  0.
         23    2    4    4    0    0  0.43899883265E+03 -0.29380948160E+03  0.38437963667E+03  0.66017739911E+03  0.95092095672E+02 0.  0.
          4    1    3    3  502    0 -0.15332910753E+03 -0.80106848159E+02 -0.20105799504E+03  0.26523808118E+03  0.00000000000E+00 0. -1.
         -3    1    3    3    0  502 -0.14422498358E+03  0.42175086288E+01 -0.16224494720E+03  0.21712221480E+03  0.00000000000E+00 0.  1.
         13    1    5    5    0    0 -0.18358696155E+02  0.67767115006E+02  0.10527201328E+02  0.70994686903E+02  0.00000000000E+00 0. -1.
        -13    1    5    5    0    0 -0.12308604539E+03  0.30193170612E+03  0.26551626980E+03  0.42048997522E+03  0.00000000000E+00 0.  1.
          4    1    6    6  503    0  0.20839078798E+03 -0.19295606586E+03  0.18328559055E+03  0.33801238375E+03  0.00000000000E+00 0.  1.
         -4    1    6    6    0  503  0.23060804467E+03 -0.10085341574E+03  0.20109404613E+03  0.32216501536E+03  0.00000000000E+00 0. -1.
<mgrwt>
<rscale>  0 0.16067821E+04</rscale>
<asrwt>0</asrwt>
<pdfrwt beam="1">  1        2 0.10283863E+00 0.16067821E+04</pdfrwt>
<pdfrwt beam="2">  1       -1 0.14854943E+00 0.16067821E+04</pdfrwt>
<totfact> 0.17026928E+01</totfact>
</mgrwt>
</event>
<event>
12    7  0.1741211E-007  0.1337076E+04  0.7818608E-02  0.9000669E-01
          2   -1    0    0  501    0  0.00000000000E+00  0.00000000000E+00  0.84954512945E+03  0.84954512945E+03  0.00000000000E+00 0. -1.
         -1   -1    0    0    0  501 -0.00000000000E+00 -0.00000000000E+00 -0.52609712252E+03  0.52609712252E+03  0.00000000000E+00 0.  1.
         24    2    1    2    0    0 -0.59760388658E+02 -0.28656026984E+03 -0.14039727195E+03  0.33479378231E+03  0.81776466067E+02 0.  0.
        254    2    1    2    0    0  0.59760388658E+02  0.28656026984E+03  0.46384527888E+03  0.10408484697E+04  0.88460443237E+03 0.  0.
         23    2    4    4    0    0  0.18028121685E+03  0.11660279287E+03  0.68483960355E+03  0.72337834406E+03  0.90406955546E+02 0.  0.
         23    2    4    4    0    0 -0.12052082819E+03  0.16995747696E+03 -0.22099432467E+03  0.31747012561E+03  0.92401164026E+02 0.  0.
          2    1    3    3  502    0 -0.36206006083E+01 -0.11363530348E+03 -0.16744419234E+02  0.11491939140E+03  0.00000000000E+00 0. -1.
         -1    1    3    3    0  502 -0.56139788050E+02 -0.17292496636E+03 -0.12365285271E+03  0.21987439091E+03  0.00000000000E+00 0.  1.
         13    1    5    5    0    0  0.18748258095E+03  0.10509061524E+03  0.59730649508E+03  0.63479823932E+03  0.00000000000E+00 0. -1.
        -13    1    5    5    0    0 -0.72013640982E+01  0.11512177632E+02  0.87533108465E+02  0.88580104743E+02  0.00000000000E+00 0.  1.
          3    1    6    6  503    0 -0.91656925502E+02  0.16102897159E+03 -0.14369895534E+03  0.23447966106E+03  0.00000000000E+00 0. -1.
         -3    1    6    6    0  503 -0.28863902688E+02  0.89285053760E+01 -0.77295369329E+02  0.82990464551E+02  0.00000000000E+00 0.  1.
<mgrwt>
<rscale>  0 0.13370763E+04</rscale>
<asrwt>0</asrwt>
<pdfrwt beam="1">  1        2 0.13069925E+00 0.13370763E+04</pdfrwt>
<pdfrwt beam="2">  1       -1 0.80938019E-01 0.13370763E+04</pdfrwt>
<totfact> 0.53951662E+01</totfact>
</mgrwt>
</event>
<event>
12    7  0.1741211E-007  0.1700433E+04  0.7818608E-02  0.8761117E-01
          2   -1    0    0  501    0  0.00000000000E+00  0.00000000000E+00  0.14801151471E+04  0.14801151471E+04  0.00000000000E+00 0. -1.
         -1   -1    0    0    0  501 -0.00000000000E+00 -0.00000000000E+00 -0.48838657782E+03  0.48838657782E+03  0.00000000000E+00 0.  1.
         24    2    1    2    0    0  0.35326216407E+03 -0.85261665169E+02  0.91537954998E+03  0.98813589687E+03  0.80181806220E+02 0.  0.
        254    2    1    2    0    0 -0.35326216407E+03  0.85261665169E+02  0.76349019286E+02  0.98036582803E+03  0.90731707573E+03 0.  0.
         23    2    4    4    0    0 -0.59996147104E+03  0.66019934482E+01  0.24855803322E+03  0.65589736046E+03  0.91776350548E+02 0.  0.
         23    2    4    4    0    0  0.24669930697E+03  0.78659671721E+02 -0.17220901394E+03  0.32446846757E+03  0.92606425012E+02 0.  0.
          2    1    3    3  502    0  0.28562098855E+03 -0.34973969031E+02  0.71771413965E+03  0.77325035652E+03  0.00000000000E+00 0. -1.
         -1    1    3    3    0  502  0.67641175519E+02 -0.50287696139E+02  0.19766541033E+03  0.21488554035E+03  0.00000000000E+00 0.  1.
         13    1    5    5    0    0 -0.35071658774E+03 -0.16089549334E+02  0.18861597828E+03  0.39854358078E+03  0.00000000000E+00 0.  1.
        -13    1    5    5    0    0 -0.24924488330E+03  0.22691542782E+02  0.59942054947E+02  0.25735377968E+03  0.00000000000E+00 0. -1.
          3    1    6    6  503    0  0.79183256234E+02 -0.54929639146E+01 -0.17196189065E+02  0.81214959451E+02  0.00000000000E+00 0. -1.
         -3    1    6    6    0  503  0.16751605074E+03  0.84152635636E+02 -0.15501282487E+03  0.24325350812E+03  0.00000000000E+00 0.  1.
<mgrwt>
<rscale>  0 0.17004333E+04</rscale>
<asrwt>0</asrwt>
<pdfrwt beam="1">  1        2 0.22771002E+00 0.17004333E+04</pdfrwt>
<pdfrwt beam="2">  1       -1 0.75136398E-01 0.17004333E+04</pdfrwt>
<totfact> 0.25158379E+01</totfact>
</mgrwt>
</event>
<event>
12    7  0.1741211E-007  0.3007315E+04  0.7818608E-02  0.8241645E-01
         -1   -1    0    0    0  501 -0.00000000000E+00  0.00000000000E+00  0.12372854345E+04  0.12372854345E+04  0.00000000000E+00 0.  1.
          2   -1    0    0  501    0  0.00000000000E+00 -0.00000000000E+00 -0.18273755429E+04  0.18273755429E+04  0.00000000000E+00 0. -1.
         24    2    1    2    0    0  0.19967399398E+03  0.62021860554E+03 -0.14951295113E+04  0.16328618602E+04  0.79276581614E+02 0.  0.
        254    2    1    2    0    0 -0.19967399398E+03 -0.62021860554E+03  0.90503940279E+03  0.14317991172E+04  0.89800421433E+03 0.  0.
         23    2    4    4    0    0 -0.49018446107E+03 -0.21262983830E+03  0.23515775400E+03  0.59066658750E+03  0.89975520649E+02 0.  0.
         23    2    4    4    0    0  0.29051046709E+03 -0.40758876724E+03  0.66988164879E+03  0.84113252972E+03  0.90761084714E+02 0.  0.
          4    1    3    3  502    0  0.18553095468E+03  0.51708605214E+03 -0.11959984211E+04  0.13161352301E+04  0.00000000000E+00 0. -1.
         -3    1    3    3    0  502  0.14143039297E+02  0.10313255340E+03 -0.29913109011E+03  0.31672663008E+03  0.00000000000E+00 0.  1.
         13    1    5    5    0    0 -0.23676627099E+03 -0.64755791537E+02  0.76479505288E+02  0.25710055299E+03  0.00000000000E+00 0.  1.
        -13    1    5    5    0    0 -0.25341819008E+03 -0.14787404677E+03  0.15867824871E+03  0.33356603452E+03  0.00000000000E+00 0. -1.
          1    1    6    6  503    0  0.20040192619E+03 -0.20777977924E+03  0.40432858058E+03  0.49680476020E+03  0.00000000000E+00 0. -1.
         -1    1    6    6    0  503  0.90108540904E+02 -0.19980898800E+03  0.26555306821E+03  0.34432776952E+03  0.00000000000E+00 0.  1.
<mgrwt>
<rscale>  0 0.30073145E+04</rscale>
<asrwt>0</asrwt>
<pdfrwt beam="1">  1        2 0.28113470E+00 0.30073145E+04</pdfrwt>
<pdfrwt beam="2">  1       -1 0.19035160E+00 0.30073145E+04</pdfrwt>
<totfact> 0.14251596E+00</totfact>
</mgrwt>
</event>
<event>
12    7  0.1741211E-007  0.2513913E+04  0.7818608E-02  0.8398046E-01
          2   -1    0    0  501    0  0.00000000000E+00  0.00000000000E+00  0.18307451943E+04  0.18307451943E+04  0.00000000000E+00 0. -1.
         -1   -1    0    0    0  501 -0.00000000000E+00 -0.00000000000E+00 -0.86300369857E+03  0.86300369857E+03  0.00000000000E+00 0.  1.
         24    2    1    2    0    0  0.82998853518E+03  0.43240498982E+03 -0.18686394011E+03  0.95771054231E+03  0.80226597778E+02 0.  0.
        254    2    1    2    0    0 -0.82998853518E+03 -0.43240498982E+03  0.11546054358E+04  0.17360383505E+04  0.89714012191E+03 0.  0.
         23    2    4    4    0    0 -0.48205743941E+03  0.12129381203E+03  0.13820324840E+03  0.52403240347E+03  0.91751066977E+02 0.  0.
         23    2    4    4    0    0 -0.34793109577E+03 -0.55369880184E+03  0.10164021874E+04  0.12120059471E+04  0.90810784466E+02 0.  0.
          2    1    3    3  502    0  0.36061417777E+02  0.32554227480E+01 -0.67710195166E+00  0.36214390736E+02  0.00000000000E+00 0. -1.
         -1    1    3    3    0  502  0.79392711741E+03  0.42914956707E+03 -0.18618683815E+03  0.92149615158E+03  0.00000000000E+00 0.  1.
         13    1    5    5    0    0 -0.41045431173E+03  0.12929730202E+03  0.13819706552E+03  0.45198336612E+03  0.00000000000E+00 0. -1.
        -13    1    5    5    0    0 -0.71603127676E+02 -0.80034899954E+01  0.61828889147E-02  0.72049037352E+02  0.00000000000E+00 0.  1.
          3    1    6    6  503    0 -0.23569065014E+03 -0.42254352034E+03  0.80333533904E+03  0.93778503726E+03  0.00000000000E+00 0. -1.
         -3    1    6    6    0  503 -0.11224044563E+03 -0.13115528150E+03  0.21306684835E+03  0.27422090979E+03  0.00000000000E+00 0.  1.
<mgrwt>
<rscale>  0 0.25139132E+04</rscale>
<asrwt>0</asrwt>
<pdfrwt beam="1">  1        2 0.28165311E+00 0.25139132E+04</pdfrwt>
<pdfrwt beam="2">  1       -1 0.13276980E+00 0.25139132E+04</pdfrwt>
<totfact> 0.40437611E+00</totfact>
</mgrwt>
</event>
<event>
12    7  0.1741211E-007  0.1382826E+04  0.7818608E-02  0.8966344E-01
         -1   -1    0    0    0  501 -0.00000000000E+00  0.00000000000E+00  0.34109390651E+03  0.34109390651E+03  0.00000000000E+00 0.  1.
          2   -1    0    0  501    0  0.00000000000E+00 -0.00000000000E+00 -0.14015266180E+04  0.14015266180E+04  0.00000000000E+00 0. -1.
         24    2    1    2    0    0 -0.12385095689E+03  0.36473523682E+02  0.15713847396E+03  0.21880594889E+03  0.80710382336E+02 0.  0.
        254    2    1    2    0    0  0.12385095689E+03 -0.36473523682E+02 -0.12175711855E+04  0.15238145756E+04  0.90711735281E+03 0.  0.
         23    2    4    4    0    0 -0.36062597097E+03  0.11169559424E+03 -0.39810383837E+03  0.55601703487E+03  0.90229043197E+02 0.  0.
         23    2    4    4    0    0  0.48447692786E+03 -0.14816911792E+03 -0.81946734710E+03  0.96779754075E+03  0.91833358859E+02 0.  0.
          2    1    3    3  502    0 -0.17758786447E+02  0.21626616151E+02 -0.76399186832E+00  0.27994083407E+02  0.00000000000E+00 0. -1.
         -1    1    3    3    0  502 -0.10609217044E+03  0.14846907531E+02  0.15790246583E+03  0.19081186548E+03  0.00000000000E+00 0.  1.
         13    1    5    5    0    0 -0.10299288224E+03 -0.73118201060E+01 -0.88082262121E+02  0.13571839008E+03  0.00000000000E+00 0.  1.
        -13    1    5    5    0    0 -0.25763308873E+03  0.11900741434E+03 -0.31002157625E+03  0.42029864479E+03  0.00000000000E+00 0. -1.
          1    1    6    6  503    0  0.11249972169E+03 -0.58683420399E+02 -0.14766842570E+03  0.19469436345E+03  0.00000000000E+00 0. -1.
         -1    1    6    6    0  503  0.37197720617E+03 -0.89485697521E+02 -0.67179892139E+03  0.77310317730E+03  0.00000000000E+00 0.  1.
<mgrwt>
<rscale>  0 0.13828264E+04</rscale>
<asrwt>0</asrwt>
<pdfrwt beam="1">  1        2 0.21561948E+00 0.13828264E+04</pdfrwt>
<pdfrwt beam="2">  1       -1 0.52475985E-01 0.13828264E+04</pdfrwt>
<totfact> 0.58676646E+01</totfact>
</mgrwt>
</event>
<event>
12    7  0.1741211E-007  0.3465585E+04  0.7818608E-02  0.8121995E-01
          2   -1    0    0  501    0  0.00000000000E+00  0.00000000000E+00  0.17756179369E+04  0.17756179369E+04  0.00000000000E+00 0. -1.
         -1   -1    0    0    0  501 -0.00000000000E+00 -0.00000000000E+00 -0.16909997426E+04  0.16909997426E+04  0.00000000000E+00 0.  1.
         24    2    1    2    0    0 -0.11605037893E+04  0.85892651635E+03 -0.68185122077E+03  0.15986937645E+04  0.79855244377E+02 0.  0.
        254    2    1    2    0    0  0.11605037893E+04 -0.85892651635E+03  0.76646941503E+03  0.18679239150E+04  0.90395828591E+03 0.  0.
         23    2    4    4    0    0  0.69052453755E+03 -0.97533603847E+03  0.64517551273E+03  0.13610433713E+04  0.89906015217E+02 0.  0.
         23    2    4    4    0    0  0.46997925171E+03  0.11640952212E+03  0.12129390230E+03  0.50688054365E+03  0.88226985164E+02 0.  0.
          4    1    3    3  502    0 -0.46956758904E+02  0.38438959068E+02 -0.47120061636E+02  0.76829623125E+02  0.00000000000E+00 0. -1.
         -3    1    3    3    0  502 -0.11135470304E+04  0.82048755728E+03 -0.63473115913E+03  0.15218641414E+04  0.00000000000E+00 0.  1.
         13    1    5    5    0    0  0.66061938599E+03 -0.91471331294E+03  0.58712741529E+03  0.12719422234E+04  0.00000000000E+00 0. -1.
        -13    1    5    5    0    0  0.29905151562E+02 -0.60622725534E+02  0.58048097436E+02  0.89101147900E+02  0.00000000000E+00 0.  1.
          2    1    6    6  503    0  0.17710930911E+03  0.87476656957E+02  0.39715734784E+02  0.20148749955E+03  0.00000000000E+00 0. -1.
         -2    1    6    6    0  503  0.29286994260E+03  0.28932865165E+02  0.81578167519E+02  0.30539304410E+03  0.00000000000E+00 0.  1.
<mgrwt>
<rscale>  0 0.34655848E+04</rscale>
<asrwt>0</asrwt>
<pdfrwt beam="1">  1        2 0.27317199E+00 0.34655848E+04</pdfrwt>
<pdfrwt beam="2">  1       -1 0.26015381E+00 0.34655848E+04</pdfrwt>
<totfact> 0.49970510E-01</totfact>
</mgrwt>
</event>
<event>
12    7  0.1741211E-007  0.1654122E+04  0.7818608E-02  0.8787972E-01
          2   -1    0    0  501    0  0.00000000000E+00  0.00000000000E+00  0.12081410932E+04  0.12081410932E+04  0.00000000000E+00 0. -1.
         -1   -1    0    0    0  501 -0.00000000000E+00 -0.00000000000E+00 -0.56618380444E+03  0.56618380444E+03  0.00000000000E+00 0.  1.
         24    2    1    2    0    0  0.56424528581E+03 -0.23389480691E+02  0.11447746965E+03  0.58192003445E+03  0.81277457327E+02 0.  0.
        254    2    1    2    0    0 -0.56424528581E+03  0.23389480691E+02  0.52747981912E+03  0.11924048632E+04  0.90811595505E+03 0.  0.
         23    2    4    4    0    0 -0.51177787429E+03  0.11249263763E+03 -0.10740432428E+03  0.54257070683E+03  0.90973055904E+02 0.  0.
         23    2    4    4    0    0 -0.52467411520E+02 -0.89103156935E+02  0.63488414339E+03  0.64983415636E+03  0.92273253935E+02 0.  0.
          2    1    3    3  502    0  0.50896048316E+02  0.17875938075E+02  0.23938429325E+02  0.59016991577E+02  0.00000000000E+00 0. -1.
         -1    1    3    3    0  502  0.51334923750E+03 -0.41265418766E+02  0.90539040324E+02  0.52290304287E+03  0.00000000000E+00 0.  1.
         13    1    5    5    0    0 -0.16318369649E+02  0.21917650483E+02  0.10917731965E+01  0.27347112451E+02  0.00000000000E+00 0. -1.
        -13    1    5    5    0    0 -0.49545950464E+03  0.90574987143E+02 -0.10849609747E+03  0.51522359438E+03  0.00000000000E+00 0.  1.
          2    1    6    6  503    0 -0.58226664563E+02 -0.90383187829E+02  0.63489526281E+03  0.64393435989E+03  0.00000000000E+00 0.  1.
         -2    1    6    6    0  503  0.57592530435E+01  0.12800308939E+01 -0.11119419402E-01  0.58997964669E+01  0.00000000000E+00 0. -1.
<mgrwt>
<rscale>  0 0.16541220E+04</rscale>
<asrwt>0</asrwt>
<pdfrwt beam="1">  1        2 0.18586786E+00 0.16541220E+04</pdfrwt>
<pdfrwt beam="2">  1       -1 0.87105201E-01 0.16541220E+04</pdfrwt>
<totfact> 0.26474979E+01</totfact>
</mgrwt>
</event>
<event>
12    7  0.1741211E-007  0.1952048E+04  0.7818608E-02  0.8629374E-01
         -1   -1    0    0    0  501 -0.00000000000E+00  0.00000000000E+00  0.84026016510E+03  0.84026016510E+03  0.00000000000E+00 0.  1.
          2   -1    0    0  501    0  0.00000000000E+00 -0.00000000000E+00 -0.11337231532E+04  0.11337231532E+04  0.00000000000E+00 0. -1.
         24    2    1    2    0    0 -0.39961800857E+03  0.26078052512E+03  0.50152208275E+03  0.69685184161E+03  0.79856462544E+02 0.  0.
        254    2    1    2    0    0  0.39961800857E+03 -0.26078052512E+03 -0.79498507082E+03  0.12771314767E+04  0.87827245817E+03 0.  0.
         23    2    4    4    0    0 -0.86247071734E+02 -0.33063875105E+03 -0.67780360729E+03  0.76440909351E+03  0.90238523439E+02 0.  0.
         23    2    4    4    0    0  0.48586508031E+03  0.69858225931E+02 -0.11718146353E+03  0.51272238314E+03  0.90596350839E+02 0.  0.
          4    1    3    3  502    0 -0.35971631556E+03  0.24740498262E+03  0.42370417994E+03  0.60838333738E+03  0.00000000000E+00 0. -1.
         -3    1    3    3    0  502 -0.39901693010E+02  0.13375542503E+02  0.77817902810E+02  0.88468504227E+02  0.00000000000E+00 0.  1.
         13    1    5    5    0    0  0.60878981097E+01 -0.66210145671E+02 -0.78418630371E+02  0.10281209794E+03  0.00000000000E+00 0.  1.
        -13    1    5    5    0    0 -0.92334969844E+02 -0.26442860538E+03 -0.59938497691E+03  0.66159699557E+03  0.00000000000E+00 0. -1.
          3    1    6    6  503    0  0.38607113970E+03  0.27658263642E+02 -0.65069052763E+02  0.39249189301E+03  0.00000000000E+00 0. -1.
         -3    1    6    6    0  503  0.99793940612E+02  0.42199962289E+02 -0.52112410770E+02  0.12023049013E+03  0.00000000000E+00 0.  1.
<mgrwt>
<rscale>  0 0.19520475E+04</rscale>
<asrwt>0</asrwt>
<pdfrwt beam="1">  1        2 0.17441894E+00 0.19520475E+04</pdfrwt>
<pdfrwt beam="2">  1       -1 0.12927080E+00 0.19520475E+04</pdfrwt>
<totfact> 0.11365255E+01</totfact>
</mgrwt>
</event>
<event>
12    7  0.1741211E-007  0.2229939E+04  0.7818608E-02  0.8506069E-01
          2   -1    0    0  501    0  0.00000000000E+00  0.00000000000E+00  0.10793261142E+04  0.10793261142E+04  0.00000000000E+00 0. -1.
         -1   -1    0    0    0  501 -0.00000000000E+00 -0.00000000000E+00 -0.11517903913E+04  0.11517903913E+04  0.00000000000E+00 0.  1.
         24    2    1    2    0    0 -0.24085207469E+03  0.56405792081E+03  0.67115082805E+03  0.91273059909E+03  0.80390625143E+02 0.  0.
        254    2    1    2    0    0  0.24085207469E+03 -0.56405792081E+03 -0.74361510516E+03  0.13183859065E+04  0.89944811624E+03 0.  0.
         23    2    4    4    0    0  0.45286870891E+03  0.20879998425E+01 -0.43367826691E+03  0.63349676909E+03  0.90260124115E+02 0.  0.
         23    2    4    4    0    0 -0.21201663422E+03 -0.56614592065E+03 -0.30993683825E+03  0.68488913736E+03  0.86833346784E+02 0.  0.
          2    1    3    3  502    0 -0.13893054194E+03  0.40408147847E+03  0.49434773997E+03  0.65342423030E+03  0.00000000000E+00 0. -1.
         -1    1    3    3    0  502 -0.10192153274E+03  0.15997644234E+03  0.17680308808E+03  0.25930636879E+03  0.00000000000E+00 0.  1.
         13    1    5    5    0    0  0.19681701503E+03  0.17598111163E+02 -0.13265694230E+03  0.23800104047E+03  0.00000000000E+00 0. -1.
        -13    1    5    5    0    0  0.25605169388E+03 -0.15510111320E+02 -0.30102132461E+03  0.39549572862E+03  0.00000000000E+00 0.  1.
          3    1    6    6  503    0 -0.14196097646E+03 -0.45703378352E+03 -0.26857883108E+03  0.54878719612E+03  0.00000000000E+00 0. -1.
         -3    1    6    6    0  503 -0.70055657758E+02 -0.10911213713E+03 -0.41358007168E+02  0.13610194124E+03  0.00000000000E+00 0.  1.
<mgrwt>
<rscale>  0 0.22299394E+04</rscale>
<asrwt>0</asrwt>
<pdfrwt beam="1">  1        2 0.16605017E+00 0.22299394E+04</pdfrwt>
<pdfrwt beam="2">  1       -1 0.17719852E+00 0.22299394E+04</pdfrwt>
<totfact> 0.50864674E+00</totfact>
</mgrwt>
</event>
<event>
12    7  0.1741211E-007  0.1380536E+04  0.7818608E-02  0.8968029E-01
          2   -1    0    0  501    0  0.00000000000E+00  0.00000000000E+00  0.26517987955E+04  0.26517987955E+04  0.00000000000E+00 0. -1.
         -1   -1    0    0    0  501 -0.00000000000E+00 -0.00000000000E+00 -0.17967805265E+03  0.17967805265E+03  0.00000000000E+00 0.  1.
         24    2    1    2    0    0 -0.20070571474E+03 -0.39742224380E+02  0.13630513102E+04  0.13806825560E+04  0.80704509415E+02 0.  0.
        254    2    1    2    0    0  0.20070571474E+03  0.39742224380E+02  0.11090694326E+04  0.14507942921E+04  0.91263730111E+03 0.  0.
         23    2    4    4    0    0  0.53330166300E+03 -0.10654271258E+02  0.88124618934E+03  0.10341692891E+04  0.91581084506E+02 0.  0.
         23    2    4    4    0    0 -0.33259594826E+03  0.50396495638E+02  0.22782324324E+03  0.41662500300E+03  0.92266415283E+02 0.  0.
          4    1    3    3  502    0 -0.16431718543E+03 -0.36687624119E+02  0.12630641136E+04  0.12742358786E+04  0.00000000000E+00 0. -1.
         -3    1    3    3    0  502 -0.36388529308E+02 -0.30546002619E+01  0.99987196656E+02  0.10644667746E+03  0.00000000000E+00 0.  1.
         13    1    5    5    0    0  0.41489843536E+03 -0.37141016170E+02  0.72747277093E+03  0.83829398136E+03  0.00000000000E+00 0. -1.
        -13    1    5    5    0    0  0.11840322764E+03  0.26486744912E+02  0.15377341841E+03  0.19587530774E+03  0.00000000000E+00 0.  1.
          3    1    6    6  503    0 -0.26126929890E+03  0.67188056624E+02  0.20819440269E+03  0.34076500820E+03  0.00000000000E+00 0. -1.
         -3    1    6    6    0  503 -0.71326649363E+02 -0.16791560986E+02  0.19628840550E+02  0.75859994800E+02  0.00000000000E+00 0.  1.
<mgrwt>
<rscale>  0 0.13805362E+04</rscale>
<asrwt>0</asrwt>
<pdfrwt beam="1">  1        2 0.40796902E+00 0.13805362E+04</pdfrwt>
<pdfrwt beam="2">  1       -1 0.27642779E-01 0.13805362E+04</pdfrwt>
<totfact> 0.37269394E+01</totfact>
</mgrwt>
</event>
<event>
12    7  0.1741211E-007  0.2623279E+04  0.7818608E-02  0.8360337E-01
          2   -1    0    0  501    0  0.00000000000E+00  0.00000000000E+00  0.29899564826E+04  0.29899564826E+04  0.00000000000E+00 0. -1.
         -1   -1    0    0    0  501 -0.00000000000E+00 -0.00000000000E+00 -0.57539221463E+03  0.57539221463E+03  0.00000000000E+00 0.  1.
         24    2    1    2    0    0 -0.56997025004E+03  0.10043251695E+04  0.11386484161E+04  0.16237021347E+04  0.79707430895E+02 0.  0.
        254    2    1    2    0    0  0.56997025004E+03 -0.10043251695E+04  0.12759158518E+04  0.19416465626E+04  0.89916348961E+03 0.  0.
         23    2    4    4    0    0  0.23391936596E+03 -0.10259901188E+04  0.11748495962E+04  0.15800162849E+04  0.93839721346E+02 0.  0.
         23    2    4    4    0    0  0.33605088408E+03  0.21664949285E+02  0.10106625564E+03  0.36163027768E+03  0.84631572062E+02 0.  0.
          4    1    3    3  502    0 -0.41224958001E+03  0.69975268663E+03  0.84725995789E+03  0.11736494259E+04  0.00000000000E+00 0. -1.
         -3    1    3    3    0  502 -0.15772067002E+03  0.30457248284E+03  0.29138845825E+03  0.45005270875E+03  0.00000000000E+00 0.  1.
         13    1    5    5    0    0  0.24275512923E+03 -0.99660539757E+03  0.11436013385E+04  0.15362214660E+04  0.00000000000E+00 0.  1.
        -13    1    5    5    0    0 -0.88357632690E+01 -0.29384721187E+02  0.31248257704E+02  0.43794818887E+02  0.00000000000E+00 0. -1.
          3    1    6    6  503    0  0.30000305383E+02 -0.14695780964E+02 -0.86035828598E+01  0.34496462707E+02  0.00000000000E+00 0. -1.
         -3    1    6    6    0  503  0.30605057870E+03  0.36360730249E+02  0.10966983850E+03  0.32713381497E+03  0.00000000000E+00 0.  1.
<mgrwt>
<rscale>  0 0.26232786E+04</rscale>
<asrwt>0</asrwt>
<pdfrwt beam="1">  1        2 0.45999330E+00 0.26232786E+04</pdfrwt>
<pdfrwt beam="2">  1       -1 0.88521881E-01 0.26232786E+04</pdfrwt>
<totfact> 0.22212892E+00</totfact>
</mgrwt>
</event>
<event>
12    7  0.1741211E-007  0.2938714E+04  0.7818608E-02  0.8261451E-01
          2   -1    0    0  501    0  0.00000000000E+00  0.00000000000E+00  0.24945362819E+04  0.24945362819E+04  0.00000000000E+00 0. -1.
         -1   -1    0    0    0  501 -0.00000000000E+00 -0.00000000000E+00 -0.86549528428E+03  0.86549528428E+03  0.00000000000E+00 0.  1.
         24    2    1    2    0    0 -0.96699624794E+03 -0.31846274082E+03 -0.24271341948E+03  0.10497203896E+04  0.80640136271E+02 0.  0.
        254    2    1    2    0    0  0.96699624794E+03  0.31846274082E+03  0.18717544171E+04  0.23103111766E+04  0.89306935554E+03 0.  0.
         23    2    4    4    0    0  0.32444078109E+01  0.37381818572E+03  0.53301733732E+03  0.65731993513E+03  0.90617068395E+02 0.  0.
         23    2    4    4    0    0  0.96375184013E+03 -0.55355444906E+02  0.13387370798E+04  0.16529912415E+04  0.91001323263E+02 0.  0.
          4    1    3    3  502    0 -0.59381584608E+03 -0.17699816435E+03 -0.11131955542E+03  0.62955353439E+03  0.00000000000E+00 0. -1.
         -3    1    3    3    0  502 -0.37318040185E+03 -0.14146457647E+03 -0.13139386406E+03  0.42016685523E+03  0.00000000000E+00 0.  1.
         13    1    5    5    0    0  0.45703211453E+02  0.18010341378E+03  0.27514916604E+03  0.33201368460E+03  0.00000000000E+00 0. -1.
        -13    1    5    5    0    0 -0.42458803642E+02  0.19371477194E+03  0.25786817128E+03  0.32530625053E+03  0.00000000000E+00 0.  1.
          2    1    6    6  503    0  0.73815078529E+02  0.19260918840E+02  0.11626559991E+03  0.13905875929E+03  0.00000000000E+00 0. -1.
         -2    1    6    6    0  503  0.88993676160E+03 -0.74616363745E+02  0.12224714799E+04  0.15139324822E+04  0.00000000000E+00 0.  1.
<mgrwt>
<rscale>  0 0.29387136E+04</rscale>
<asrwt>0</asrwt>
<pdfrwt beam="1">  1        2 0.38377481E+00 0.29387136E+04</pdfrwt>
<pdfrwt beam="2">  1       -1 0.13315312E+00 0.29387136E+04</pdfrwt>
<totfact> 0.16359719E+00</totfact>
</mgrwt>
</event>
<event>
12    7  0.1741211E-007  0.1922874E+04  0.7818608E-02  0.8643554E-01
         -1   -1    0    0    0  501 -0.00000000000E+00  0.00000000000E+00  0.80348665585E+03  0.80348665585E+03  0.00000000000E+00 0.  1.
          2   -1    0    0  501    0  0.00000000000E+00 -0.00000000000E+00 -0.11504371095E+04  0.11504371095E+04  0.00000000000E+00 0. -1.
         24    2    1    2    0    0  0.37161155653E+03  0.62425411927E+03 -0.29566855070E+03  0.78802919320E+03  0.76037905695E+02 0.  0.
        254    2    1    2    0    0 -0.37161155653E+03 -0.62425411927E+03 -0.51281902934E+02  0.11658945721E+04  0.91043504183E+03 0.  0.
         23    2    4    4    0    0 -0.22355269246E+03 -0.78266228948E+03  0.17713388990E+03  0.83788041772E+03  0.90172688586E+02 0.  0.
         23    2    4    4    0    0 -0.14805886406E+03  0.15840817021E+03 -0.22841579284E+03  0.32801415441E+03  0.91678435069E+02 0.  0.
          2    1    3    3  502    0  0.21671472911E+03  0.33733825263E+03 -0.12487704034E+03  0.41994838457E+03  0.00000000000E+00 0. -1.
         -1    1    3    3    0  502  0.15489682742E+03  0.28691586663E+03 -0.17079151036E+03  0.36808080863E+03  0.00000000000E+00 0.  1.
         13    1    5    5    0    0 -0.62821077663E+02 -0.10436444257E+03  0.29589678821E+02  0.12535538985E+03  0.00000000000E+00 0. -1.
        -13    1    5    5    0    0 -0.16073161480E+03 -0.67829784691E+03  0.14754421108E+03  0.71252502788E+03  0.00000000000E+00 0.  1.
          1    1    6    6  503    0 -0.69263912349E+02  0.13377269366E+03 -0.16842015840E+03  0.22596011347E+03  0.00000000000E+00 0. -1.
         -1    1    6    6    0  503 -0.78794951715E+02  0.24635476552E+02 -0.59995634440E+02  0.10205404094E+03  0.00000000000E+00 0.  1.
<mgrwt>
<rscale>  0 0.19228738E+04</rscale>
<asrwt>0</asrwt>
<pdfrwt beam="1">  1        2 0.17699032E+00 0.19228738E+04</pdfrwt>
<pdfrwt beam="2">  1       -1 0.12361333E+00 0.19228738E+04</pdfrwt>
<totfact> 0.12446656E+01</totfact>
</mgrwt>
</event>
<event>
12    7  0.1741211E-007  0.1347010E+04  0.7818608E-02  0.8993095E-01
          2   -1    0    0  501    0  0.00000000000E+00  0.00000000000E+00  0.89559221324E+03  0.89559221324E+03  0.00000000000E+00 0. -1.
         -1   -1    0    0    0  501 -0.00000000000E+00 -0.00000000000E+00 -0.50649040850E+03  0.50649040850E+03  0.00000000000E+00 0.  1.
         24    2    1    2    0    0 -0.33080269536E+03 -0.12534804850E+03  0.21866041065E+03  0.42280093400E+03  0.76195131670E+02 0.  0.
        254    2    1    2    0    0  0.33080269536E+03  0.12534804850E+03  0.17044139410E+03  0.97928168774E+03  0.89710634743E+03 0.  0.
         23    2    4    4    0    0  0.48146244269E+03  0.11120197791E+03 -0.22190153640E+03  0.54882981246E+03  0.88328407553E+02 0.  0.
         23    2    4    4    0    0 -0.15065974733E+03  0.14146070586E+02  0.39234293049E+03  0.43045187528E+03  0.91963966017E+02 0.  0.
          2    1    3    3  502    0 -0.28139055459E+03 -0.12503958294E+03  0.16311202475E+03  0.34845526848E+03  0.00000000000E+00 0. -1.
         -1    1    3    3    0  502 -0.49412140774E+02 -0.30846556152E+00  0.55548385896E+02  0.74345665526E+02  0.00000000000E+00 0.  1.
         13    1    5    5    0    0  0.46594055241E+03  0.12336618653E+03 -0.20967507921E+03  0.52562672421E+03  0.00000000000E+00 0. -1.
        -13    1    5    5    0    0  0.15521890275E+02 -0.12164208621E+02 -0.12226457182E+02  0.23203088249E+02  0.00000000000E+00 0.  1.
          4    1    6    6  503    0 -0.12712796792E+03  0.90870382062E+01  0.38459919415E+03  0.40516741556E+03  0.00000000000E+00 0. -1.
         -4    1    6    6    0  503 -0.23531779411E+02  0.50590323802E+01  0.77437363460E+01  0.25284459723E+02  0.00000000000E+00 0.  1.
<mgrwt>
<rscale>  0 0.13470098E+04</rscale>
<asrwt>0</asrwt>
<pdfrwt beam="1">  1        2 0.13778342E+00 0.13470098E+04</pdfrwt>
<pdfrwt beam="2">  1       -1 0.77921601E-01 0.13470098E+04</pdfrwt>
<totfact> 0.54323192E+01</totfact>
</mgrwt>
</event>
<event>
12    7  0.1741211E-007  0.1152410E+04  0.7818608E-02  0.9155563E-01
         -1   -1    0    0    0  501 -0.00000000000E+00  0.00000000000E+00  0.64134469249E+03  0.64134469249E+03  0.00000000000E+00 0.  1.
          2   -1    0    0  501    0  0.00000000000E+00 -0.00000000000E+00 -0.51768163363E+03  0.51768163363E+03  0.00000000000E+00 0. -1.
         24    2    1    2    0    0 -0.15390315149E+03  0.61428772822E+02 -0.45940007047E+02  0.19969664015E+03  0.10153122509E+03 0.  0.
        254    2    1    2    0    0  0.15390315149E+03 -0.61428772822E+02  0.16960306591E+03  0.95932968598E+03  0.92956364616E+03 0.  0.
         23    2    4    4    0    0  0.23804231102E+03 -0.32760683242E+03  0.40822686709E+03  0.58211519225E+03  0.90656183188E+02 0.  0.
         23    2    4    4    0    0 -0.84139159526E+02  0.26617805960E+03 -0.23862380118E+03  0.37721449373E+03  0.86135348213E+02 0.  0.
          4    1    3    3  502    0 -0.14213961705E+03  0.76671646173E+02 -0.63598267535E+02  0.17357117184E+03  0.00000000000E+00 0. -1.
         -3    1    3    3    0  502 -0.11763534447E+02 -0.15242873351E+02  0.17658260488E+02  0.26125468305E+02  0.00000000000E+00 0.  1.
         13    1    5    5    0    0  0.24298498820E+03 -0.30879893030E+03  0.37249445980E+03  0.54143384307E+03  0.00000000000E+00 0. -1.
        -13    1    5    5    0    0 -0.49426771823E+01 -0.18807902123E+02  0.35732407293E+02  0.40681349178E+02  0.00000000000E+00 0.  1.
          3    1    6    6  503    0 -0.98906511959E+02  0.25437536418E+03 -0.22726411551E+03  0.35515954473E+03  0.00000000000E+00 0. -1.
         -3    1    6    6    0  503  0.14767352433E+02  0.11802695415E+02 -0.11359685665E+02  0.22054948999E+02  0.00000000000E+00 0.  1.
<mgrwt>
<rscale>  0 0.11524103E+04</rscale>
<asrwt>0</asrwt>
<pdfrwt beam="1">  1        2 0.79643329E-01 0.11524103E+04</pdfrwt>
<pdfrwt beam="2">  1       -1 0.98668414E-01 0.11524103E+04</pdfrwt>
<totfact> 0.65800470E+01</totfact>
</mgrwt>
</event>
<event>
12    7  0.1741211E-007  0.1502631E+04  0.7818608E-02  0.8882705E-01
         -1   -1    0    0    0  501 -0.00000000000E+00  0.00000000000E+00  0.54964101927E+03  0.54964101927E+03  0.00000000000E+00 0.  1.
          2   -1    0    0  501    0  0.00000000000E+00 -0.00000000000E+00 -0.10269888170E+04  0.10269888170E+04  0.00000000000E+00 0. -1.
         24    2    1    2    0    0 -0.35201687477E+03 -0.30972126805E+03 -0.28119219077E+03  0.55290164910E+03  0.82389571098E+02 0.  0.
        254    2    1    2    0    0  0.35201687477E+03  0.30972126805E+03 -0.19615560694E+03  0.10237281871E+04  0.88865023210E+03 0.  0.
         23    2    4    4    0    0  0.21886362791E+03 -0.28378806293E+03 -0.17007391715E+03  0.40757402306E+03  0.93565456740E+02 0.  0.
         23    2    4    4    0    0  0.13315324687E+03  0.59350933098E+03 -0.26081689784E+02  0.61615416408E+03  0.94776506902E+02 0.  0.
          2    1    3    3  502    0 -0.29200847777E+03 -0.29322493100E+03 -0.24436887624E+03  0.48058917894E+03  0.00000000000E+00 0. -1.
         -1    1    3    3    0  502 -0.60008397006E+02 -0.16496337052E+02 -0.36823314535E+02  0.72312470161E+02  0.00000000000E+00 0.  1.
         13    1    5    5    0    0  0.94355699111E+01  0.69852168937E+01 -0.84755401016E+01  0.14479572322E+02  0.00000000000E+00 0. -1.
        -13    1    5    5    0    0  0.20942805799E+03 -0.29077327982E+03 -0.16159837705E+03  0.39309445074E+03  0.00000000000E+00 0.  1.
          3    1    6    6  503    0 -0.99828485543E+01  0.66902920799E+02  0.13612935911E+02  0.68999783339E+02  0.00000000000E+00 0. -1.
         -3    1    6    6    0  503  0.14313609542E+03  0.52660641018E+03 -0.39694625694E+02  0.54715438074E+03  0.00000000000E+00 0.  1.
<mgrwt>
<rscale>  0 0.15026313E+04</rscale>
<asrwt>0</asrwt>
<pdfrwt beam="1">  1        2 0.15799828E+00 0.15026313E+04</pdfrwt>
<pdfrwt beam="2">  1       -1 0.84560157E-01 0.15026313E+04</pdfrwt>
<totfact> 0.36944627E+01</totfact>
</mgrwt>
</event>
<event>
12    7  0.1741211E-007  0.2057844E+04  0.7818608E-02  0.8580044E-01
         -1   -1    0    0    0  501 -0.00000000000E+00  0.00000000000E+00  0.44648204017E+03  0.44648204017E+03  0.00000000000E+00 0.  1.
          2   -1    0    0  501    0  0.00000000000E+00 -0.00000000000E+00 -0.23711594910E+04  0.23711594910E+04  0.00000000000E+00 0. -1.
         24    2    1    2    0    0 -0.48826417691E+02 -0.49436598087E+03  0.13197795565E+03  0.52011752465E+03  0.79512996177E+02 0.  0.
        254    2    1    2    0    0  0.48826417691E+02  0.49436598087E+03 -0.20566554065E+04  0.22975240065E+04  0.89554640163E+03 0.  0.
         23    2    4    4    0    0 -0.21625729928E+03  0.46001563583E+03 -0.19115702784E+04  0.19801340548E+04  0.91914857231E+02 0.  0.
         23    2    4    4    0    0  0.26508371697E+03  0.34350345040E+02 -0.14508512811E+03  0.31738995176E+03  0.90759924386E+02 0.  0.
          2    1    3    3  502    0  0.11928767768E+02 -0.80696841605E+02 -0.33491223002E+00  0.81574431728E+02  0.00000000000E+00 0. -1.
         -1    1    3    3    0  502 -0.60755185459E+02 -0.41366913927E+03  0.13231286788E+03  0.43854309292E+03  0.00000000000E+00 0.  1.
         13    1    5    5    0    0 -0.40848206190E+02  0.32998623825E+02 -0.26053578291E+03  0.26577505395E+03  0.00000000000E+00 0. -1.
        -13    1    5    5    0    0 -0.17540909309E+03  0.42701701201E+03 -0.16510344955E+04  0.17143590008E+04  0.00000000000E+00 0.  1.
          1    1    6    6  503    0  0.14128299845E+00  0.11163380954E+02  0.47486395600E+01  0.12132213849E+02  0.00000000000E+00 0. -1.
         -1    1    6    6    0  503  0.26494243397E+03  0.23186964086E+02 -0.14983376767E+03  0.30525773791E+03  0.00000000000E+00 0.  1.
<mgrwt>
<rscale>  0 0.20578437E+04</rscale>
<asrwt>0</asrwt>
<pdfrwt beam="1">  1        2 0.36479377E+00 0.20578437E+04</pdfrwt>
<pdfrwt beam="2">  1       -1 0.68689545E-01 0.20578437E+04</pdfrwt>
<totfact> 0.93246120E+00</totfact>
</mgrwt>
</event>
<event>
12    7  0.1741211E-007  0.1223232E+04  0.7818608E-02  0.9092761E-01
         -1   -1    0    0    0  501 -0.00000000000E+00  0.00000000000E+00  0.17906868138E+04  0.17906868138E+04  0.00000000000E+00 0.  1.
          2   -1    0    0  501    0  0.00000000000E+00 -0.00000000000E+00 -0.20889981904E+03  0.20889981904E+03  0.00000000000E+00 0. -1.
         24    2    1    2    0    0 -0.13042152612E+03 -0.12703292343E+02  0.75811314402E+03  0.77353117306E+03  0.80273211294E+02 0.  0.
        254    2    1    2    0    0  0.13042152612E+03  0.12703292343E+02  0.82367385076E+03  0.12260554598E+04  0.89866691825E+03 0.  0.
         23    2    4    4    0    0  0.25316154990E+03  0.23807420152E+03  0.87766476192E+03  0.94886869441E+03  0.96365290046E+02 0.  0.
         23    2    4    4    0    0 -0.12274002378E+03 -0.22537090918E+03 -0.53990911166E+02  0.27718676539E+03  0.89779308729E+02 0.  0.
          4    1    3    3  502    0 -0.74433563443E+02 -0.10862542121E+02  0.21988461624E+03  0.23239534128E+03  0.00000000000E+00 0. -1.
         -3    1    3    3    0  502 -0.55987962678E+02 -0.18407502216E+01  0.53822852778E+03  0.54113583178E+03  0.00000000000E+00 0.  1.
         13    1    5    5    0    0  0.54381674785E+01  0.31520557116E+02  0.14277096830E+03  0.14631017933E+03  0.00000000000E+00 0. -1.
        -13    1    5    5    0    0  0.24772338242E+03  0.20655364441E+03  0.73489379362E+03  0.80255851508E+03  0.00000000000E+00 0.  1.
          4    1    6    6  503    0 -0.46847691559E+02 -0.51365515791E+02 -0.52882445551E+02  0.87348013511E+02  0.00000000000E+00 0. -1.
         -4    1    6    6    0  503 -0.75892332221E+02 -0.17400539339E+03 -0.11084656157E+01  0.18983875188E+03  0.00000000000E+00 0.  1.
<mgrwt>
<rscale>  0 0.12232320E+04</rscale>
<asrwt>0</asrwt>
<pdfrwt beam="1">  1        2 0.32138435E-01 0.12232320E+04</pdfrwt>
<pdfrwt beam="2">  1       -1 0.27549027E+00 0.12232320E+04</pdfrwt>
<totfact> 0.88980632E+00</totfact>
</mgrwt>
</event>
<event>
12    7  0.1741211E-007  0.1719676E+04  0.7818608E-02  0.8750221E-01
          2   -1    0    0  501    0  0.00000000000E+00  0.00000000000E+00  0.61783320787E+03  0.61783320787E+03  0.00000000000E+00 0. -1.
         -1   -1    0    0    0  501 -0.00000000000E+00 -0.00000000000E+00 -0.11966356510E+04  0.11966356510E+04  0.00000000000E+00 0.  1.
         24    2    1    2    0    0  0.15534383962E+03 -0.14179429997E+03  0.41587031943E+03  0.47143818095E+03  0.71193425673E+02 0.  0.
        254    2    1    2    0    0 -0.15534383962E+03  0.14179429997E+03 -0.99467276254E+03  0.13430306779E+04  0.87756490655E+03 0.  0.
         23    2    4    4    0    0 -0.58156520447E+02 -0.61629971482E+02  0.13667242043E+03  0.18572360457E+03  0.92916481500E+02 0.  0.
         23    2    4    4    0    0 -0.97187319178E+02  0.20342427145E+03 -0.11313451830E+04  0.11573070733E+04  0.92687268304E+02 0.  0.
          4    1    3    3  502    0  0.11530976425E+03 -0.61649049716E+02  0.27484753841E+03  0.30436510384E+03  0.00000000000E+00 0. -1.
         -3    1    3    3    0  502  0.40034075378E+02 -0.80145250255E+02  0.14102278102E+03  0.16707307711E+03  0.00000000000E+00 0.  1.
         13    1    5    5    0    0 -0.44119221606E+02 -0.24552845420E+02  0.80486725116E+01  0.51128554278E+02  0.00000000000E+00 0. -1.
        -13    1    5    5    0    0 -0.14037298840E+02 -0.37077126063E+02  0.12862374792E+03  0.13459505029E+03  0.00000000000E+00 0.  1.
          1    1    6    6  503    0  0.15262401283E+02  0.22264363880E+02 -0.76367935058E+02  0.80998174652E+02  0.00000000000E+00 0. -1.
         -1    1    6    6    0  503 -0.11244972046E+03  0.18115990757E+03 -0.10549772479E+04  0.10763088987E+04  0.00000000000E+00 0.  1.
<mgrwt>
<rscale>  0 0.17196758E+04</rscale>
<asrwt>0</asrwt>
<pdfrwt beam="1">  1        2 0.95051263E-01 0.17196758E+04</pdfrwt>
<pdfrwt beam="2">  1       -1 0.18409779E+00 0.17196758E+04</pdfrwt>
<totfact> 0.10102570E+01</totfact>
</mgrwt>
</event>
<event>
12    7  0.1741211E-007  0.1653672E+04  0.7818608E-02  0.8788237E-01
         -1   -1    0    0    0  501 -0.00000000000E+00  0.00000000000E+00  0.50302178221E+03  0.50302178221E+03  0.00000000000E+00 0.  1.
          2   -1    0    0  501    0  0.00000000000E+00 -0.00000000000E+00 -0.13591023157E+04  0.13591023157E+04  0.00000000000E+00 0. -1.
         24    2    1    2    0    0  0.64612008080E+02 -0.35639309164E+03 -0.82379761321E+03  0.90360341219E+03  0.81644789493E+02 0.  0.
        254    2    1    2    0    0 -0.64612008080E+02  0.35639309164E+03 -0.32282920335E+02  0.95852068576E+03  0.88686468570E+03 0.  0.
         23    2    4    4    0    0  0.78295294273E+02 -0.10709072163E+03 -0.34064590595E+03  0.37581540500E+03  0.87172298532E+02 0.  0.
         23    2    4    4    0    0 -0.14290730235E+03  0.46348381326E+03  0.30836298561E+03  0.58270528076E+03  0.96010265658E+02 0.  0.
          2    1    3    3  502    0  0.63342045307E+02 -0.33152530026E+03 -0.80338329286E+03  0.87140458724E+03  0.00000000000E+00 0. -1.
         -1    1    3    3    0  502  0.12699627733E+01 -0.24867791375E+02 -0.20414320351E+02  0.32198824959E+02  0.00000000000E+00 0.  1.
         13    1    5    5    0    0  0.89494956784E+02 -0.88800902557E+02 -0.32683048028E+03  0.35030431117E+03  0.00000000000E+00 0. -1.
        -13    1    5    5    0    0 -0.11199662511E+02 -0.18289819069E+02 -0.13815425670E+02  0.25511093829E+02  0.00000000000E+00 0.  1.
          1    1    6    6  503    0 -0.14810802891E+03  0.35965984960E+03  0.22418890319E+03  0.44894527501E+03  0.00000000000E+00 0. -1.
         -1    1    6    6    0  503  0.52007265547E+01  0.10382396367E+03  0.84174082422E+02  0.13376000576E+03  0.00000000000E+00 0.  1.
<mgrwt>
<rscale>  0 0.16536724E+04</rscale>
<asrwt>0</asrwt>
<pdfrwt beam="1">  1        2 0.20909266E+00 0.16536724E+04</pdfrwt>
<pdfrwt beam="2">  1       -1 0.77387968E-01 0.16536724E+04</pdfrwt>
<totfact> 0.27833215E+01</totfact>
</mgrwt>
</event>
<event>
12    7  0.1741211E-007  0.1573652E+04  0.7818608E-02  0.8836900E-01
          2   -1    0    0  501    0  0.00000000000E+00  0.00000000000E+00  0.10902138182E+04  0.10902138182E+04  0.00000000000E+00 0. -1.
         -1   -1    0    0    0  501 -0.00000000000E+00 -0.00000000000E+00 -0.56786547176E+03  0.56786547176E+03  0.00000000000E+00 0.  1.
         24    2    1    2    0    0  0.66864376923E-01 -0.36215970357E+03  0.57399865701E+03  0.68306196146E+03  0.77068343546E+02 0.  0.
        254    2    1    2    0    0 -0.66864376923E-01  0.36215970357E+03 -0.51650310579E+02  0.97501732850E+03  0.90378724317E+03 0.  0.
         23    2    4    4    0    0  0.14679607570E+03  0.38932366914E+01  0.36189796289E+03  0.40099358602E+03  0.90892658420E+02 0.  0.
         23    2    4    4    0    0 -0.14686294008E+03  0.35826646688E+03 -0.41354827347E+03  0.57402374248E+03  0.92506745591E+02 0.  0.
          2    1    3    3  502    0 -0.32688524022E+02 -0.27124393648E+03  0.43810152752E+03  0.51630878463E+03  0.00000000000E+00 0. -1.
         -1    1    3    3    0  502  0.32755388399E+02 -0.90915767094E+02  0.13589712949E+03  0.16675317682E+03  0.00000000000E+00 0.  1.
         13    1    5    5    0    0  0.21211478690E+02  0.33693148245E+02  0.53614562581E+02  0.66780808528E+02  0.00000000000E+00 0. -1.
        -13    1    5    5    0    0  0.12558459701E+03 -0.29799911554E+02  0.30828340031E+03  0.33421277749E+03  0.00000000000E+00 0.  1.
          3    1    6    6  503    0 -0.25282421697E+02  0.54847212545E+02 -0.12152995913E+03  0.13570905842E+03  0.00000000000E+00 0. -1.
         -3    1    6    6    0  503 -0.12158051838E+03  0.30341925434E+03 -0.29201831433E+03  0.43831468405E+03  0.00000000000E+00 0.  1.
<mgrwt>
<rscale>  0 0.15736515E+04</rscale>
<asrwt>0</asrwt>
<pdfrwt beam="1">  1        2 0.16772520E+00 0.15736515E+04</pdfrwt>
<pdfrwt beam="2">  1       -1 0.87363919E-01 0.15736515E+04</pdfrwt>
<totfact> 0.31229704E+01</totfact>
</mgrwt>
</event>
<event>
12    7  0.1741211E-007  0.2580603E+04  0.7818608E-02  0.8374820E-01
         -1   -1    0    0    0  501 -0.00000000000E+00  0.00000000000E+00  0.44037773822E+03  0.44037773822E+03  0.00000000000E+00 0.  1.
          2   -1    0    0  501    0  0.00000000000E+00 -0.00000000000E+00 -0.37805692182E+04  0.37805692182E+04  0.00000000000E+00 0. -1.
         24    2    1    2    0    0  0.24155826765E+03 -0.60890567469E+03  0.40438441008E+02  0.66112387989E+03  0.79580146460E+02 0.  0.
        254    2    1    2    0    0 -0.24155826765E+03  0.60890567469E+03 -0.33806299210E+04  0.35598230765E+04  0.90253263440E+03 0.  0.
         23    2    4    4    0    0  0.30513748483E+03  0.88965393938E+02 -0.13936949271E+04  0.14325057668E+04  0.93077903630E+02 0.  0.
         23    2    4    4    0    0 -0.54669575249E+03  0.51994028075E+03 -0.19869349939E+04  0.21273173097E+04  0.91400902408E+02 0.  0.
          2    1    3    3  502    0  0.89013111689E+02 -0.23157344454E+03  0.53985620113E+02  0.25389769879E+03  0.00000000000E+00 0. -1.
         -1    1    3    3    0  502  0.15254515596E+03 -0.37733223015E+03 -0.13547179105E+02  0.40722618111E+03  0.00000000000E+00 0.  1.
         13    1    5    5    0    0  0.24868541181E+03  0.10486236696E+03 -0.10680704702E+04  0.11016419923E+04  0.00000000000E+00 0.  1.
        -13    1    5    5    0    0  0.56452073027E+02 -0.15896973025E+02 -0.32562445690E+03  0.33086377444E+03  0.00000000000E+00 0. -1.
          1    1    6    6  503    0 -0.31986228766E+02  0.48143831919E+02 -0.10230374200E+03  0.11750320425E+03  0.00000000000E+00 0. -1.
         -1    1    6    6    0  503 -0.51470952372E+03  0.47179644884E+03 -0.18846312519E+04  0.20098141055E+04  0.00000000000E+00 0.  1.
<mgrwt>
<rscale>  0 0.25806034E+04</rscale>
<asrwt>0</asrwt>
<pdfrwt beam="1">  1        2 0.58162605E+00 0.25806034E+04</pdfrwt>
<pdfrwt beam="2">  1       -1 0.67750419E-01 0.25806034E+04</pdfrwt>
<totfact> 0.11310979E+00</totfact>
</mgrwt>
</event>
<event>
12    7  0.1741211E-007  0.2591611E+04  0.7818608E-02  0.8371056E-01
         -3   -1    0    0    0  501 -0.00000000000E+00  0.00000000000E+00  0.12864450820E+04  0.12864450820E+04  0.00000000000E+00 0.  1.
          2   -1    0    0  501    0  0.00000000000E+00 -0.00000000000E+00 -0.13052340135E+04  0.13052340135E+04  0.00000000000E+00 0. -1.
         24    2    1    2    0    0  0.48980626106E+03 -0.83958608268E+03 -0.57882671343E+03  0.11340407737E+04  0.78696559923E+02 0.  0.
        254    2    1    2    0    0 -0.48980626106E+03  0.83958608268E+03  0.56003778199E+03  0.14576383219E+04  0.93072670343E+03 0.  0.
         23    2    4    4    0    0 -0.13511661317E+01 -0.13261221860E+03  0.29246179938E+03  0.33348952140E+03  0.89964051776E+02 0.  0.
         23    2    4    4    0    0 -0.48845509493E+03  0.97219830128E+03  0.26757598261E+03  0.11241488005E+04  0.91409530848E+02 0.  0.
          2    1    3    3  502    0  0.17058491349E+03 -0.32010170026E+03 -0.17513371615E+03  0.40278546368E+03  0.00000000000E+00 0. -1.
         -1    1    3    3    0  502  0.31922134757E+03 -0.51948438242E+03 -0.40369299728E+03  0.73125530998E+03  0.00000000000E+00 0.  1.
         13    1    5    5    0    0  0.15822197212E+01 -0.57861147630E+01  0.11602544124E+03  0.11618040092E+03  0.00000000000E+00 0.  1.
        -13    1    5    5    0    0 -0.29333858530E+01 -0.12682610384E+03  0.17643635814E+03  0.21730912047E+03  0.00000000000E+00 0. -1.
          3    1    6    6  503    0 -0.20545495155E+03  0.32242703807E+03  0.73407933633E+02  0.38930663585E+03  0.00000000000E+00 0. -1.
         -3    1    6    6    0  503 -0.28300014338E+03  0.64977126320E+03  0.19416804898E+03  0.73484216460E+03  0.00000000000E+00 0.  1.
<mgrwt>
<rscale>  0 0.25916110E+04</rscale>
<asrwt>0</asrwt>
<pdfrwt beam="1">  1        2 0.20080523E+00 0.25916110E+04</pdfrwt>
<pdfrwt beam="2">  1       -3 0.19791463E+00 0.25916110E+04</pdfrwt>
<totfact> 0.13837916E+00</totfact>
</mgrwt>
</event>
<event>
12    7  0.1741211E-007  0.1300608E+04  0.7818608E-02  0.9029083E-01
          2   -1    0    0  501    0  0.00000000000E+00  0.00000000000E+00  0.36747662826E+03  0.36747662826E+03  0.00000000000E+00 0. -1.
         -1   -1    0    0    0  501 -0.00000000000E+00 -0.00000000000E+00 -0.11508086846E+04  0.11508086846E+04  0.00000000000E+00 0.  1.
         24    2    1    2    0    0 -0.80569219130E+02  0.22809418240E+03  0.63002284210E+02  0.26167026900E+03  0.77354293650E+02 0.  0.
        254    2    1    2    0    0  0.80569219130E+02 -0.22809418240E+03 -0.84633434052E+03  0.12566150438E+04  0.89681725973E+03 0.  0.
         23    2    4    4    0    0  0.37021175858E+02 -0.10514643543E+03 -0.10149692640E+04  0.10252729279E+04  0.92712617198E+02 0.  0.
         23    2    4    4    0    0  0.43548043272E+02 -0.12294774697E+03  0.16863492351E+03  0.23134211595E+03  0.89826814640E+02 0.  0.
          4    1    3    3  502    0 -0.32509691230E+02  0.18754468625E+03  0.55956285686E+02  0.19839605660E+03  0.00000000000E+00 0. -1.
         -3    1    3    3    0  502 -0.48059527900E+02  0.40549496146E+02  0.70459985246E+01  0.63274212400E+02  0.00000000000E+00 0.  1.
         13    1    5    5    0    0  0.97500539381E+01 -0.39059908731E+02 -0.10427247513E+03  0.11177427741E+03  0.00000000000E+00 0. -1.
        -13    1    5    5    0    0  0.27271121920E+02 -0.66086526697E+02 -0.91069678890E+03  0.91349865048E+03  0.00000000000E+00 0.  1.
          3    1    6    6  503    0  0.40631461315E+02 -0.12850135738E+02  0.77270474025E+02  0.88242664246E+02  0.00000000000E+00 0. -1.
         -3    1    6    6    0  503  0.29165819568E+01 -0.11009761123E+03  0.91364449486E+02  0.14309945171E+03  0.00000000000E+00 0.  1.
<mgrwt>
<rscale>  0 0.13006080E+04</rscale>
<asrwt>0</asrwt>
<pdfrwt beam="1">  1        2 0.56534866E-01 0.13006080E+04</pdfrwt>
<pdfrwt beam="2">  1       -1 0.17704749E+00 0.13006080E+04</pdfrwt>
<totfact> 0.21454837E+01</totfact>
</mgrwt>
</event>
<event>
12    7  0.1741211E-007  0.1226250E+04  0.7818608E-02  0.9090185E-01
         -1   -1    0    0    0  501 -0.00000000000E+00  0.00000000000E+00  0.10236540375E+04  0.10236540375E+04  0.00000000000E+00 0.  1.
          2   -1    0    0  501    0  0.00000000000E+00 -0.00000000000E+00 -0.36723561754E+03  0.36723561754E+03  0.00000000000E+00 0. -1.
         24    2    1    2    0    0 -0.26237589503E+03 -0.53529405955E+02  0.89015567448E+02  0.29295618874E+03  0.78695931778E+02 0.  0.
        254    2    1    2    0    0  0.26237589503E+03  0.53529405955E+02  0.56740285251E+03  0.10979334663E+04  0.90100243717E+03 0.  0.
         23    2    4    4    0    0  0.47642988866E+00  0.44553779513E+03  0.33473629705E+03  0.56413284070E+03  0.87711570046E+02 0.  0.
         23    2    4    4    0    0  0.26189946515E+03 -0.39200838917E+03  0.23266655547E+03  0.53380062560E+03  0.92452554502E+02 0.  0.
          2    1    3    3  502    0 -0.11333194170E+03 -0.29301014874E+02 -0.11885361958E+01  0.11706447412E+03  0.00000000000E+00 0. -1.
         -1    1    3    3    0  502 -0.14904395333E+03 -0.24228391082E+02  0.90204103644E+02  0.17589171462E+03  0.00000000000E+00 0.  1.
         13    1    5    5    0    0  0.37640937660E+02  0.10658200450E+03  0.87618095064E+02  0.14301571401E+03  0.00000000000E+00 0.  1.
        -13    1    5    5    0    0 -0.37164507771E+02  0.33895579063E+03  0.24711820198E+03  0.42111712669E+03  0.00000000000E+00 0. -1.
          4    1    6    6  503    0  0.24116231641E+03 -0.29532103398E+03  0.17756062750E+03  0.42059666238E+03  0.00000000000E+00 0. -1.
         -4    1    6    6    0  503  0.20737148735E+02 -0.96687355191E+02  0.55105927966E+02  0.11320396322E+03  0.00000000000E+00 0.  1.
<mgrwt>
<rscale>  0 0.12262499E+04</rscale>
<asrwt>0</asrwt>
<pdfrwt beam="1">  1        2 0.56497788E-01 0.12262499E+04</pdfrwt>
<pdfrwt beam="2">  1       -1 0.15748524E+00 0.12262499E+04</pdfrwt>
<totfact> 0.30157499E+01</totfact>
</mgrwt>
</event>
<event>
12    7  0.1741211E-007  0.1536280E+04  0.7818608E-02  0.8860679E-01
          2   -1    0    0  501    0  0.00000000000E+00  0.00000000000E+00  0.62497534731E+03  0.62497534731E+03  0.00000000000E+00 0. -1.
         -1   -1    0    0    0  501 -0.00000000000E+00 -0.00000000000E+00 -0.94410023807E+03  0.94410023807E+03  0.00000000000E+00 0.  1.
         24    2    1    2    0    0  0.39658798943E+03  0.20655183394E+03  0.12632660242E+03  0.47147782225E+03  0.79920165998E+02 0.  0.
        254    2    1    2    0    0 -0.39658798943E+03 -0.20655183394E+03 -0.44545149319E+03  0.10975977631E+04  0.89796888776E+03 0.  0.
         23    2    4    4    0    0  0.12142874757E+03  0.24403513552E+03 -0.23486728117E+03  0.37233664137E+03  0.95780199624E+02 0.  0.
         23    2    4    4    0    0 -0.51801673699E+03 -0.45058696945E+03 -0.21058421202E+03  0.72526112176E+03  0.10142991443E+03 0.  0.
          2    1    3    3  502    0  0.74271335015E+01  0.13818359198E+02  0.18042550368E+02  0.23909056585E+02  0.00000000000E+00 0. -1.
         -1    1    3    3    0  502  0.38916085592E+03  0.19273347474E+03  0.10828405205E+03  0.44756876566E+03  0.00000000000E+00 0.  1.
         13    1    5    5    0    0  0.32104435431E+00  0.30992614866E+02 -0.71185498936E+02  0.77640327823E+02  0.00000000000E+00 0. -1.
        -13    1    5    5    0    0  0.12110770321E+03  0.21304252065E+03 -0.16368178223E+03  0.29469631355E+03  0.00000000000E+00 0.  1.
          3    1    6    6  503    0 -0.33492922407E+03 -0.31845261026E+03 -0.95845620011E+02  0.47199156030E+03  0.00000000000E+00 0. -1.
         -3    1    6    6    0  503 -0.18308751293E+03 -0.13213435919E+03 -0.11473859201E+03  0.25326956147E+03  0.00000000000E+00 0.  1.
<mgrwt>
<rscale>  0 0.15362804E+04</rscale>
<asrwt>0</asrwt>
<pdfrwt beam="1">  1        2 0.96150055E-01 0.15362804E+04</pdfrwt>
<pdfrwt beam="2">  1       -1 0.14524619E+00 0.15362804E+04</pdfrwt>
<totfact> 0.19762602E+01</totfact>
</mgrwt>
</event>
<event>
12    7  0.1741211E-007  0.1352344E+04  0.7818608E-02  0.8989056E-01
          2   -1    0    0  501    0  0.00000000000E+00  0.00000000000E+00  0.67732698779E+03  0.67732698779E+03  0.00000000000E+00 0. -1.
         -1   -1    0    0    0  501 -0.00000000000E+00 -0.00000000000E+00 -0.67501884329E+03  0.67501884329E+03  0.00000000000E+00 0.  1.
         24    2    1    2    0    0  0.11087410267E+03 -0.34686654046E+03 -0.65356989129E+02  0.37813820213E+03  0.78150498097E+02 0.  0.
        254    2    1    2    0    0 -0.11087410267E+03  0.34686654046E+03  0.67665133632E+02  0.97420762895E+03  0.90105075910E+03 0.  0.
         23    2    4    4    0    0 -0.23450727961E+03 -0.20307035245E+03 -0.15850955043E+03  0.35991843238E+03  0.90469708475E+02 0.  0.
         23    2    4    4    0    0  0.12363317694E+03  0.54993689290E+03  0.22617468406E+03  0.61428919658E+03  0.92089525486E+02 0.  0.
          4    1    3    3  502    0  0.20099019410E+02 -0.86368044532E+01  0.88170116013E-01  0.21876305592E+02  0.00000000000E+00 0. -1.
         -3    1    3    3    0  502  0.90775083263E+02 -0.33822973600E+03 -0.65445159245E+02  0.35626189654E+03  0.00000000000E+00 0.  1.
         13    1    5    5    0    0 -0.59534345706E+02 -0.94361923259E+02 -0.24681264281E+02  0.11427018722E+03  0.00000000000E+00 0.  1.
        -13    1    5    5    0    0 -0.17497293391E+03 -0.10870842919E+03 -0.13382828615E+03  0.24564824516E+03  0.00000000000E+00 0. -1.
          1    1    6    6  503    0  0.12169321093E+03  0.40258675563E+03  0.19537477001E+03  0.46374199093E+03  0.00000000000E+00 0. -1.
         -1    1    6    6    0  503  0.19399660127E+01  0.14735013727E+03  0.30799914049E+02  0.15054720565E+03  0.00000000000E+00 0.  1.
<mgrwt>
<rscale>  0 0.13523439E+04</rscale>
<asrwt>0</asrwt>
<pdfrwt beam="1">  1        2 0.10420415E+00 0.13523439E+04</pdfrwt>
<pdfrwt beam="2">  1       -1 0.10384905E+00 0.13523439E+04</pdfrwt>
<totfact> 0.41641655E+01</totfact>
</mgrwt>
</event>
<event>
12    7  0.1741211E-007  0.2330341E+04  0.7818608E-02  0.8466053E-01
         -1   -1    0    0    0  501 -0.00000000000E+00  0.00000000000E+00  0.53928886098E+03  0.53928886098E+03  0.00000000000E+00 0.  1.
          2   -1    0    0  501    0  0.00000000000E+00 -0.00000000000E+00 -0.25174316319E+04  0.25174316319E+04  0.00000000000E+00 0. -1.
         24    2    1    2    0    0 -0.21032269690E+03  0.75041955225E+03 -0.10619849354E+03  0.79064062717E+03  0.80432207931E+02 0.  0.
        254    2    1    2    0    0  0.21032269690E+03 -0.75041955225E+03 -0.18719442774E+04  0.22660798657E+04  0.10117200398E+04 0.  0.
         23    2    4    4    0    0  0.25549772631E+03 -0.51997285989E+03 -0.19217959613E+04  0.20088708277E+04  0.81310653137E+02 0.  0.
         23    2    4    4    0    0 -0.45175029414E+02 -0.23044669236E+03  0.49851683909E+02  0.25720903803E+03  0.92330046881E+02 0.  0.
          2    1    3    3  502    0 -0.64794178456E+02  0.11908883840E+03 -0.20219817414E+02  0.13707398735E+03  0.00000000000E+00 0. -1.
         -1    1    3    3    0  502 -0.14552851844E+03  0.63133071385E+03 -0.85978676122E+02  0.65356663981E+03  0.00000000000E+00 0.  1.
         13    1    5    5    0    0  0.10217847802E+02 -0.73085446781E+02 -0.19930484925E+03  0.21252837429E+03  0.00000000000E+00 0.  1.
        -13    1    5    5    0    0  0.24527987851E+03 -0.44688741311E+03 -0.17224911120E+04  0.17963424534E+04  0.00000000000E+00 0. -1.
          3    1    6    6  503    0 -0.62818347584E+02 -0.22033631108E+03  0.56196430426E+02  0.23590734106E+03  0.00000000000E+00 0. -1.
         -3    1    6    6    0  503  0.17643318170E+02 -0.10110381278E+02 -0.63447465173E+01  0.21301696975E+02  0.00000000000E+00 0.  1.
<mgrwt>
<rscale>  0 0.23303415E+04</rscale>
<asrwt>0</asrwt>
<pdfrwt beam="1">  1        2 0.38729717E+00 0.23303415E+04</pdfrwt>
<pdfrwt beam="2">  1       -1 0.82967518E-01 0.23303415E+04</pdfrwt>
<totfact> 0.50481314E+00</totfact>
</mgrwt>
</event>
<event>
12    7  0.1741211E-007  0.1181626E+04  0.7818608E-02  0.9129093E-01
          2   -1    0    0  501    0  0.00000000000E+00  0.00000000000E+00  0.14370061674E+04  0.14370061674E+04  0.00000000000E+00 0. -1.
         -1   -1    0    0    0  501 -0.00000000000E+00 -0.00000000000E+00 -0.24290769532E+03  0.24290769532E+03  0.00000000000E+00 0.  1.
         24    2    1    2    0    0  0.32626129390E+02  0.20790713195E+03  0.10848872291E+03  0.25005943193E+03  0.80436786775E+02 0.  0.
        254    2    1    2    0    0 -0.32626129390E+02 -0.20790713195E+03  0.10856097492E+04  0.14298544308E+04  0.90644653782E+03 0.  0.
         23    2    4    4    0    0 -0.14759207449E+02 -0.27674267550E+03  0.12187637136E+04  0.12531534269E+04  0.90576923725E+02 0.  0.
         23    2    4    4    0    0 -0.17866921940E+02  0.68835543549E+02 -0.13315396439E+03  0.17670100393E+03  0.91846108244E+02 0.  0.
          4    1    3    3  502    0 -0.13657112999E+02  0.10764454967E+03  0.83296940173E+02  0.13679271199E+03  0.00000000000E+00 0. -1.
         -3    1    3    3    0  502  0.46283242389E+02  0.10026258228E+03  0.25191782733E+02  0.11326671995E+03  0.00000000000E+00 0.  1.
         13    1    5    5    0    0  0.39646090507E+01 -0.30600641522E+02  0.30757184984E+03  0.30911577152E+03  0.00000000000E+00 0.  1.
        -13    1    5    5    0    0 -0.18723816500E+02 -0.24614203398E+03  0.91119186374E+03  0.94403765537E+03  0.00000000000E+00 0. -1.
          1    1    6    6  503    0 -0.43660133315E+02  0.52010913147E+02 -0.12879252145E+03  0.14559826891E+03  0.00000000000E+00 0. -1.
         -1    1    6    6    0  503  0.25793211375E+02  0.16824630402E+02 -0.43614429452E+01  0.31102735020E+02  0.00000000000E+00 0.  1.
<mgrwt>
<rscale>  0 0.11816258E+04</rscale>
<asrwt>0</asrwt>
<pdfrwt beam="1">  1        2 0.22107787E+00 0.11816258E+04</pdfrwt>
<pdfrwt beam="2">  1       -1 0.37370415E-01 0.11816258E+04</pdfrwt>
<totfact> 0.10691181E+02</totfact>
</mgrwt>
</event>
<event>
12    7  0.1741211E-007  0.2823304E+04  0.7818608E-02  0.8296070E-01
          2   -1    0    0  501    0  0.00000000000E+00  0.00000000000E+00  0.30358734372E+04  0.30358734372E+04  0.00000000000E+00 0. -1.
         -1   -1    0    0    0  501 -0.00000000000E+00 -0.00000000000E+00 -0.65640444880E+03  0.65640444880E+03  0.00000000000E+00 0.  1.
         24    2    1    2    0    0  0.96270264061E+03 -0.45811998847E+03  0.17321269799E+03  0.10830078100E+04  0.78949221807E+02 0.  0.
        254    2    1    2    0    0 -0.96270264061E+03  0.45811998847E+03  0.22062562904E+04  0.26092700760E+04  0.89669014308E+03 0.  0.
         23    2    4    4    0    0 -0.76254352779E+02  0.43841673331E+03  0.45005409286E+03  0.63962344914E+03  0.92441937597E+02 0.  0.
         23    2    4    4    0    0 -0.88644828783E+03  0.19703255165E+02  0.17562021975E+04  0.19696466269E+04  0.95304202110E+02 0.  0.
          4    1    3    3  502    0  0.57817503949E+03 -0.26865499962E+03  0.14225026992E+03  0.65322050213E+03  0.00000000000E+00 0. -1.
         -3    1    3    3    0  502  0.38452760112E+03 -0.18946498885E+03  0.30962428070E+02  0.42978730783E+03  0.00000000000E+00 0.  1.
         13    1    5    5    0    0  0.44304350014E+01  0.38423297271E+02  0.79586951559E+02  0.88487634085E+02  0.00000000000E+00 0.  1.
        -13    1    5    5    0    0 -0.80684787780E+02  0.39999343604E+03  0.37046714130E+03  0.55113581505E+03  0.00000000000E+00 0. -1.
          4    1    6    6  503    0 -0.51771814644E+03 -0.26291642874E+02  0.10840674546E+04  0.12016345433E+04  0.00000000000E+00 0. -1.
         -4    1    6    6    0  503 -0.36873014139E+03  0.45994898039E+02  0.67213474298E+03  0.76801208359E+03  0.00000000000E+00 0.  1.
<mgrwt>
<rscale>  0 0.28233036E+04</rscale>
<asrwt>0</asrwt>
<pdfrwt beam="1">  1        2 0.46705744E+00 0.28233036E+04</pdfrwt>
<pdfrwt beam="2">  1       -1 0.10098530E+00 0.28233036E+04</pdfrwt>
<totfact> 0.15197193E+00</totfact>
</mgrwt>
</event>
<event>
12    7  0.1741211E-007  0.1312639E+04  0.7818608E-02  0.9019602E-01
         -3   -1    0    0    0  501 -0.00000000000E+00  0.00000000000E+00  0.19555636339E+04  0.19555636339E+04  0.00000000000E+00 0.  1.
          4   -1    0    0  501    0  0.00000000000E+00 -0.00000000000E+00 -0.22027162794E+03  0.22027162794E+03  0.00000000000E+00 0. -1.
         24    2    1    2    0    0 -0.10883057745E+02  0.10440976005E+03 -0.98358215099E+02  0.17082561412E+03  0.92126071357E+02 0.  0.
        254    2    1    2    0    0  0.10883057745E+02 -0.10440976005E+03  0.18336502211E+04  0.20050096477E+04  0.80422056385E+03 0.  0.
         23    2    4    4    0    0 -0.31905028332E+03 -0.27127120897E+03  0.95712954404E+03  0.10487868015E+04  0.92063232551E+02 0.  0.
         23    2    4    4    0    0  0.32993334107E+03  0.16686144892E+03  0.87652067702E+03  0.95622284624E+03  0.96823972978E+02 0.  0.
          2    1    3    3  502    0 -0.22919492435E+00  0.95589204400E+02 -0.11476942272E+03  0.14936321140E+03  0.00000000000E+00 0. -1.
         -1    1    3    3    0  502 -0.10653862821E+02  0.88205556471E+01  0.16411207623E+02  0.21462402721E+02  0.00000000000E+00 0.  1.
         13    1    5    5    0    0 -0.27018604636E+03 -0.25625837025E+03  0.77835118366E+03  0.86284379645E+03  0.00000000000E+00 0.  1.
        -13    1    5    5    0    0 -0.48864236961E+02 -0.15012838723E+02  0.17877836037E+03  0.18594300503E+03  0.00000000000E+00 0. -1.
          2    1    6    6  503    0  0.68691636255E+00 -0.15939698602E+01 -0.22246717266E+01  0.28216587843E+01  0.00000000000E+00 0. -1.
         -2    1    6    6    0  503  0.32924642470E+03  0.16845541878E+03  0.87874534875E+03  0.95340118746E+03  0.00000000000E+00 0.  1.
<mgrwt>
<rscale>  0 0.13126388E+04</rscale>
<asrwt>0</asrwt>
<pdfrwt beam="1">  1        4 0.33887944E-01 0.13126388E+04</pdfrwt>
<pdfrwt beam="2">  1       -3 0.30085593E+00 0.13126388E+04</pdfrwt>
<totfact> 0.72098319E-01</totfact>
</mgrwt>
</event>
<event>
12    7  0.1741211E-007  0.1670846E+04  0.7818608E-02  0.8778169E-01
         -1   -1    0    0    0  501 -0.00000000000E+00  0.00000000000E+00  0.42973433827E+03  0.42973433827E+03  0.00000000000E+00 0.  1.
          2   -1    0    0  501    0  0.00000000000E+00 -0.00000000000E+00 -0.16240995987E+04  0.16240995987E+04  0.00000000000E+00 0. -1.
         24    2    1    2    0    0 -0.28137975731E+03 -0.12195035311E+03  0.19286199488E+03  0.37143282839E+03  0.81976463029E+02 0.  0.
        254    2    1    2    0    0  0.28137975731E+03  0.12195035311E+03 -0.13872272553E+04  0.16824011086E+04  0.90112572700E+03 0.  0.
         23    2    4    4    0    0  0.44166087135E+03  0.34406729536E+03 -0.52395742753E+03  0.77227181470E+03  0.91791834579E+02 0.  0.
         23    2    4    4    0    0 -0.16028111404E+03 -0.22211694226E+03 -0.86326982775E+03  0.91012929386E+03  0.89858580522E+02 0.  0.
          4    1    3    3  502    0 -0.79326040035E+02 -0.25184102900E+02  0.96844067498E+02  0.12769351227E+03  0.00000000000E+00 0. -1.
         -3    1    3    3    0  502 -0.20205371727E+03 -0.96766250206E+02  0.96017927377E+02  0.24373931612E+03  0.00000000000E+00 0.  1.
         13    1    5    5    0    0  0.11156344555E+03  0.11573824348E+03 -0.19918828934E+03  0.25596429047E+03  0.00000000000E+00 0.  1.
        -13    1    5    5    0    0  0.33009742580E+03  0.22832905188E+03 -0.32476913819E+03  0.51630752423E+03  0.00000000000E+00 0. -1.
          2    1    6    6  503    0 -0.11897868373E+02 -0.61987067267E+02 -0.28784362955E+03  0.29468272914E+03  0.00000000000E+00 0.  1.
         -2    1    6    6    0  503 -0.14838324567E+03 -0.16012987499E+03 -0.57542619820E+03  0.61544656472E+03  0.00000000000E+00 0. -1.
<mgrwt>
<rscale>  0 0.16708457E+04</rscale>
<asrwt>0</asrwt>
<pdfrwt beam="1">  1        2 0.24986148E+00 0.16708457E+04</pdfrwt>
<pdfrwt beam="2">  1       -1 0.66112975E-01 0.16708457E+04</pdfrwt>
<totfact> 0.27235215E+01</totfact>
</mgrwt>
</event>
<event>
12    7  0.1741211E-007  0.1869495E+04  0.7818608E-02  0.8670192E-01
         -1   -1    0    0    0  501 -0.00000000000E+00  0.00000000000E+00  0.56750031752E+03  0.56750031752E+03  0.00000000000E+00 0.  1.
          2   -1    0    0  501    0  0.00000000000E+00 -0.00000000000E+00 -0.15396511410E+04  0.15396511410E+04  0.00000000000E+00 0. -1.
         24    2    1    2    0    0 -0.51597418181E+02  0.71199378865E+03 -0.28378678540E+03  0.77281445552E+03  0.84319597121E+02 0.  0.
        254    2    1    2    0    0  0.51597418181E+02 -0.71199378865E+03 -0.68836403808E+03  0.13343370030E+04  0.89275570005E+03 0.  0.
         23    2    4    4    0    0  0.92095466478E+02 -0.47198170293E+03  0.10402617982E+03  0.50031453381E+03  0.90801342536E+02 0.  0.
         23    2    4    4    0    0 -0.40498048297E+02 -0.24001208572E+03 -0.79239021790E+03  0.83402246917E+03  0.92007219539E+02 0.  0.
          2    1    3    3  502    0 -0.22782010619E+02  0.54655831711E+03 -0.25032139996E+03  0.60158608469E+03  0.00000000000E+00 0. -1.
         -1    1    3    3    0  502 -0.28815407562E+02  0.16543547154E+03 -0.33465385437E+02  0.17122837084E+03  0.00000000000E+00 0.  1.
         13    1    5    5    0    0 -0.86046049061E+01 -0.11153982117E+03  0.48664306653E+02  0.12199748225E+03  0.00000000000E+00 0. -1.
        -13    1    5    5    0    0  0.10070007138E+03 -0.36044188176E+03  0.55361873169E+02  0.37831705157E+03  0.00000000000E+00 0.  1.
          3    1    6    6  503    0 -0.29062844026E+02 -0.63167240115E+02 -0.12017974858E+03  0.13884495344E+03  0.00000000000E+00 0. -1.
         -3    1    6    6    0  503 -0.11435204271E+02 -0.17684484560E+03 -0.67221046932E+03  0.69517751573E+03  0.00000000000E+00 0.  1.
<mgrwt>
<rscale>  0 0.18694946E+04</rscale>
<asrwt>0</asrwt>
<pdfrwt beam="1">  1        2 0.23686940E+00 0.18694946E+04</pdfrwt>
<pdfrwt beam="2">  1       -1 0.87307742E-01 0.18694946E+04</pdfrwt>
<totfact> 0.16654803E+01</totfact>
</mgrwt>
</event>
<event>
12    7  0.1741211E-007  0.1245198E+04  0.7818608E-02  0.9074190E-01
         -1   -1    0    0    0  501 -0.00000000000E+00  0.00000000000E+00  0.34146548691E+03  0.34146548691E+03  0.00000000000E+00 0.  1.
          2   -1    0    0  501    0  0.00000000000E+00 -0.00000000000E+00 -0.11351932745E+04  0.11351932745E+04  0.00000000000E+00 0. -1.
         24    2    1    2    0    0 -0.25022934499E+03 -0.14872500538E+03 -0.35221198759E+03  0.46336553782E+03  0.76944688663E+02 0.  0.
        254    2    1    2    0    0  0.25022934499E+03  0.14872500538E+03 -0.44151580000E+03  0.10132932236E+04  0.86434547667E+03 0.  0.
         23    2    4    4    0    0 -0.18071409669E+03  0.18067574898E+03 -0.49900830454E+03  0.56814086368E+03  0.92051300798E+02 0.  0.
         23    2    4    4    0    0  0.43094344168E+03 -0.31950743600E+02  0.57492504532E+02  0.44515235992E+03  0.90122891228E+02 0.  0.
          4    1    3    3  502    0 -0.19880670047E+03 -0.10543420284E+03 -0.31315050178E+03  0.38562120279E+03  0.00000000000E+00 0. -1.
         -3    1    3    3    0  502 -0.51422644526E+02 -0.43290802544E+02 -0.39061485816E+02  0.77744335029E+02  0.00000000000E+00 0.  1.
         13    1    5    5    0    0 -0.15820411844E+03  0.15855227470E+03 -0.48374490427E+03  0.53308207558E+03  0.00000000000E+00 0. -1.
        -13    1    5    5    0    0 -0.22509978251E+02  0.22123474283E+02 -0.15263400266E+02  0.35058788098E+02  0.00000000000E+00 0.  1.
          1    1    6    6  503    0  0.40433886711E+03 -0.22034886579E+02  0.30677986168E+02  0.40609924220E+03  0.00000000000E+00 0. -1.
         -1    1    6    6    0  503  0.26604574571E+02 -0.99158570217E+01  0.26814518364E+02  0.39053117721E+02  0.00000000000E+00 0.  1.
<mgrwt>
<rscale>  0 0.12451977E+04</rscale>
<asrwt>0</asrwt>
<pdfrwt beam="1">  1        2 0.17464512E+00 0.12451977E+04</pdfrwt>
<pdfrwt beam="2">  1       -1 0.52533153E-01 0.12451977E+04</pdfrwt>
<totfact> 0.84885058E+01</totfact>
</mgrwt>
</event>
<event>
12    7  0.1741211E-007  0.1907193E+04  0.7818608E-02  0.8651284E-01
         -1   -1    0    0    0  501 -0.00000000000E+00  0.00000000000E+00  0.50561616477E+03  0.50561616477E+03  0.00000000000E+00 0.  1.
          2   -1    0    0  501    0  0.00000000000E+00 -0.00000000000E+00 -0.17984919380E+04  0.17984919380E+04  0.00000000000E+00 0. -1.
         24    2    1    2    0    0  0.27185419783E+03 -0.13667894653E+03  0.30713592070E+03  0.44111577875E+03  0.87548941594E+02 0.  0.
        254    2    1    2    0    0 -0.27185419783E+03  0.13667894653E+03 -0.16000116939E+04  0.18629923240E+04  0.90449828046E+03 0.  0.
         23    2    4    4    0    0 -0.46167517183E+03 -0.35887460847E+02 -0.36230710392E+03  0.59493693827E+03  0.90838586731E+02 0.  0.
         23    2    4    4    0    0  0.18982097399E+03  0.17256640738E+03 -0.12377045900E+04  0.12680553857E+04  0.10119605768E+03 0.  0.
          4    1    3    3  502    0  0.19034161596E+02  0.17245563965E+01 -0.10661309786E+01  0.19141839977E+02  0.00000000000E+00 0. -1.
         -3    1    3    3    0  502  0.25282003624E+03 -0.13840350293E+03  0.30820205168E+03  0.42197393877E+03  0.00000000000E+00 0.  1.
         13    1    5    5    0    0 -0.39748234841E+03 -0.14261363841E+02 -0.34106245228E+03  0.52394579887E+03  0.00000000000E+00 0. -1.
        -13    1    5    5    0    0 -0.64192823417E+02 -0.21626097006E+02 -0.21244651634E+02  0.70991139397E+02  0.00000000000E+00 0.  1.
          4    1    6    6  503    0  0.19930400345E+03  0.16520779326E+03 -0.12160231068E+04  0.12432730581E+04  0.00000000000E+00 0. -1.
         -4    1    6    6    0  503 -0.94830294601E+01  0.73586141206E+01 -0.21681483219E+02  0.24782327657E+02  0.00000000000E+00 0.  1.
<mgrwt>
<rscale>  0 0.19071933E+04</rscale>
<asrwt>0</asrwt>
<pdfrwt beam="1">  1        2 0.27669106E+00 0.19071933E+04</pdfrwt>
<pdfrwt beam="2">  1       -1 0.77787104E-01 0.19071933E+04</pdfrwt>
<totfact> 0.15258368E+01</totfact>
</mgrwt>
</event>
<event>
12    7  0.1741211E-007  0.1381385E+04  0.7818608E-02  0.8967404E-01
         -1   -1    0    0    0  501 -0.00000000000E+00  0.00000000000E+00  0.21759792438E+03  0.21759792438E+03  0.00000000000E+00 0.  1.
          2   -1    0    0  501    0  0.00000000000E+00 -0.00000000000E+00 -0.21923758658E+04  0.21923758658E+04  0.00000000000E+00 0. -1.
         24    2    1    2    0    0  0.11373658155E+03 -0.35844550829E+03 -0.40016804609E+03  0.55495852584E+03  0.80158018258E+02 0.  0.
        254    2    1    2    0    0 -0.11373658155E+03  0.35844550829E+03 -0.15746098953E+04  0.18550152643E+04  0.90568543991E+03 0.  0.
         23    2    4    4    0    0 -0.47095160860E+03  0.21158194875E+02 -0.73120275250E+03  0.87468116066E+03  0.90369135758E+02 0.  0.
         23    2    4    4    0    0  0.35721502704E+03  0.33728731341E+03 -0.84340714281E+03  0.98033410366E+03  0.91400431778E+02 0.  0.
          4    1    3    3  502    0 -0.84422063158E+01 -0.92602002980E+01 -0.45777448595E+01  0.13340835995E+02  0.00000000000E+00 0. -1.
         -3    1    3    3    0  502  0.12217878787E+03 -0.34918530799E+03 -0.39559030123E+03  0.54161768984E+03  0.00000000000E+00 0.  1.
         13    1    5    5    0    0 -0.10215200342E+03  0.40355368870E+02 -0.14611114333E+03  0.18278964359E+03  0.00000000000E+00 0.  1.
        -13    1    5    5    0    0 -0.36879960518E+03 -0.19197173995E+02 -0.58509160916E+03  0.69189151706E+03  0.00000000000E+00 0. -1.
          3    1    6    6  503    0  0.51673585354E+02  0.93392996552E+02 -0.21920039195E+03  0.24380570760E+03  0.00000000000E+00 0. -1.
         -3    1    6    6    0  503  0.30554144169E+03  0.24389431686E+03 -0.62420675086E+03  0.73652839606E+03  0.00000000000E+00 0.  1.
<mgrwt>
<rscale>  0 0.13813854E+04</rscale>
<asrwt>0</asrwt>
<pdfrwt beam="1">  1        2 0.33728859E+00 0.13813854E+04</pdfrwt>
<pdfrwt beam="2">  1       -1 0.33476604E-01 0.13813854E+04</pdfrwt>
<totfact> 0.48725298E+01</totfact>
</mgrwt>
</event>
<event>
12    7  0.1741211E-007  0.1287062E+04  0.7818608E-02  0.9039889E-01
          2   -1    0    0  501    0  0.00000000000E+00  0.00000000000E+00  0.24649741952E+04  0.24649741952E+04  0.00000000000E+00 0. -1.
         -1   -1    0    0    0  501 -0.00000000000E+00 -0.00000000000E+00 -0.16800661409E+03  0.16800661409E+03  0.00000000000E+00 0.  1.
         24    2    1    2    0    0  0.83616320863E+02  0.13006196457E+03  0.11489819121E+04  0.11627107044E+04  0.88481319362E+02 0.  0.
        254    2    1    2    0    0 -0.83616320863E+02 -0.13006196457E+03  0.11479856689E+04  0.14702701049E+04  0.90549173466E+03 0.  0.
         23    2    4    4    0    0  0.35014480170E+01  0.31253659116E+03  0.87825423516E+03  0.93677958816E+03  0.92380269823E+02 0.  0.
         23    2    4    4    0    0 -0.87117768880E+02 -0.44259855574E+03  0.26973143378E+03  0.53349051675E+03  0.91510097233E+02 0.  0.
          2    1    3    3  502    0  0.71589505792E+02  0.10443098728E+03  0.10895228636E+04  0.10968550309E+04  0.00000000000E+00 0. -1.
         -1    1    3    3    0  502  0.12026815071E+02  0.25630977290E+02  0.59459048527E+02  0.65855673478E+02  0.00000000000E+00 0.  1.
         13    1    5    5    0    0 -0.31823560289E+02  0.17355326314E+03  0.39328189924E+03  0.43105002772E+03  0.00000000000E+00 0. -1.
        -13    1    5    5    0    0  0.35325008306E+02  0.13898332803E+03  0.48497233593E+03  0.50572956043E+03  0.00000000000E+00 0.  1.
          1    1    6    6  503    0 -0.11075765150E+02 -0.28422020534E+03  0.17346578793E+03  0.33315788641E+03  0.00000000000E+00 0. -1.
         -1    1    6    6    0  503 -0.76042003731E+02 -0.15837835040E+03  0.96265645847E+02  0.20033263034E+03  0.00000000000E+00 0.  1.
<mgrwt>
<rscale>  0 0.12870617E+04</rscale>
<asrwt>0</asrwt>
<pdfrwt beam="1">  1        2 0.37922677E+00 0.12870617E+04</pdfrwt>
<pdfrwt beam="2">  1       -1 0.25847173E-01 0.12870617E+04</pdfrwt>
<totfact> 0.54152987E+01</totfact>
</mgrwt>
</event>
<event>
12    7  0.1741211E-007  0.2619167E+04  0.7818608E-02  0.8361720E-01
          2   -1    0    0  501    0  0.00000000000E+00  0.00000000000E+00  0.20118306994E+04  0.20118306994E+04  0.00000000000E+00 0. -1.
         -3   -1    0    0    0  501 -0.00000000000E+00 -0.00000000000E+00 -0.85246173673E+03  0.85246173673E+03  0.00000000000E+00 0.  1.
         24    2    1    2    0    0 -0.90777792426E+03  0.70540944849E+03  0.46345962442E+03  0.12420442928E+04  0.78841309404E+02 0.  0.
        254    2    1    2    0    0  0.90777792426E+03 -0.70540944849E+03  0.69590933822E+03  0.16222481433E+04  0.90870016042E+03 0.  0.
         23    2    4    4    0    0  0.74130705637E+03 -0.31584114250E+03  0.83883145032E+03  0.11665225340E+04  0.88571107656E+02 0.  0.
         23    2    4    4    0    0  0.16647086790E+03 -0.38956830599E+03 -0.14292211210E+03  0.45572560930E+03  0.88221799757E+02 0.  0.
          4    1    3    3  502    0 -0.21734274438E+03  0.16363516631E+03  0.14610524731E+03  0.30880589288E+03  0.00000000000E+00 0. -1.
         -3    1    3    3    0  502 -0.69043517989E+03  0.54177428218E+03  0.31735437711E+03  0.93323839994E+03  0.00000000000E+00 0.  1.
         13    1    5    5    0    0  0.51889855786E+03 -0.19733499924E+03  0.62561694902E+03  0.83641699061E+03  0.00000000000E+00 0. -1.
        -13    1    5    5    0    0  0.22240849851E+03 -0.11850614326E+03  0.21321450130E+03  0.33010554337E+03  0.00000000000E+00 0.  1.
          3    1    6    6  503    0  0.12340605062E+03 -0.27412222602E+03 -0.58224149344E+02  0.30620597593E+03  0.00000000000E+00 0. -1.
         -3    1    6    6    0  503  0.43064817275E+02 -0.11544607998E+03 -0.84697962760E+02  0.14951963338E+03  0.00000000000E+00 0.  1.
<mgrwt>
<rscale>  0 0.26191668E+04</rscale>
<asrwt>0</asrwt>
<pdfrwt beam="1">  1        2 0.30951241E+00 0.26191668E+04</pdfrwt>
<pdfrwt beam="2">  1       -3 0.13114796E+00 0.26191668E+04</pdfrwt>
<totfact> 0.16781199E+00</totfact>
</mgrwt>
</event>
<event>
12    7  0.1741211E-007  0.1384906E+04  0.7818608E-02  0.8964818E-01
         -3   -1    0    0    0  501 -0.00000000000E+00  0.00000000000E+00  0.25832952805E+03  0.25832952805E+03  0.00000000000E+00 0.  1.
          4   -1    0    0  501    0  0.00000000000E+00 -0.00000000000E+00 -0.18561208388E+04  0.18561208388E+04  0.00000000000E+00 0. -1.
         24    2    1    2    0    0  0.23969911445E+03 -0.29257201609E+03 -0.55863314532E+03  0.67893685339E+03  0.76355810350E+02 0.  0.
        254    2    1    2    0    0 -0.23969911445E+03  0.29257201609E+03 -0.10391581655E+04  0.14355135135E+04  0.91531158875E+03 0.  0.
         23    2    4    4    0    0 -0.15634920632E+02  0.12590080826E+03 -0.11215598702E+04  0.11330345425E+04  0.98869953882E+02 0.  0.
         23    2    4    4    0    0 -0.22406419382E+03  0.16667120783E+03  0.82401704696E+02  0.30247897103E+03  0.81972144715E+02 0.  0.
          2    1    3    3  502    0  0.24388892880E+03 -0.28104473976E+03 -0.52809827420E+03  0.64603075976E+03  0.00000000000E+00 0. -1.
         -1    1    3    3    0  502 -0.41898143537E+01 -0.11527276335E+02 -0.30534871117E+02  0.32906093632E+02  0.00000000000E+00 0.  1.
         13    1    5    5    0    0 -0.12683525497E+02  0.10952602450E+03 -0.11013559822E+04  0.11068612475E+04  0.00000000000E+00 0.  1.
        -13    1    5    5    0    0 -0.29513951349E+01  0.16374783764E+02 -0.20203888000E+02  0.26173294918E+02  0.00000000000E+00 0. -1.
          2    1    6    6  503    0 -0.14410208857E+03  0.62983921881E+02  0.65861162880E+02  0.17049949889E+03  0.00000000000E+00 0. -1.
         -2    1    6    6    0  503 -0.79962105241E+02  0.10368728595E+03  0.16540541816E+02  0.13197947214E+03  0.00000000000E+00 0.  1.
<mgrwt>
<rscale>  0 0.13849055E+04</rscale>
<asrwt>0</asrwt>
<pdfrwt beam="1">  1        4 0.28555705E+00 0.13849055E+04</pdfrwt>
<pdfrwt beam="2">  1       -3 0.39743004E-01 0.13849055E+04</pdfrwt>
<totfact> 0.53617285E-01</totfact>
</mgrwt>
</event>
<event>
12    7  0.1741211E-007  0.1460320E+04  0.7818608E-02  0.8911277E-01
          2   -1    0    0  501    0  0.00000000000E+00  0.00000000000E+00  0.15355657072E+04  0.15355657072E+04  0.00000000000E+00 0. -1.
         -1   -1    0    0    0  501 -0.00000000000E+00 -0.00000000000E+00 -0.34719051510E+03  0.34719051510E+03  0.00000000000E+00 0.  1.
         24    2    1    2    0    0 -0.29644916124E+03  0.29442116278E+03  0.16079367321E+03  0.45472505126E+03  0.79714117968E+02 0.  0.
        254    2    1    2    0    0  0.29644916124E+03 -0.29442116278E+03  0.10275815189E+04  0.14280311711E+04  0.89932381334E+03 0.  0.
         23    2    4    4    0    0  0.34035100183E+02  0.10140149596E+03  0.92307236803E+03  0.93371466595E+03  0.91213098605E+02 0.  0.
         23    2    4    4    0    0  0.26241406106E+03 -0.39582265874E+03  0.10450915087E+03  0.49431650511E+03  0.88825266692E+02 0.  0.
          4    1    3    3  502    0 -0.23459371826E+02  0.38621276768E+02  0.43340109008E+02  0.62612380521E+02  0.00000000000E+00 0. -1.
         -3    1    3    3    0  502 -0.27298978941E+03  0.25579988601E+03  0.11745356421E+03  0.39211267074E+03  0.00000000000E+00 0.  1.
         13    1    5    5    0    0  0.14708658906E+02  0.12106261341E+02  0.52283585754E+03  0.52318279802E+03  0.00000000000E+00 0. -1.
        -13    1    5    5    0    0  0.19326441277E+02  0.89295234615E+02  0.40023651049E+03  0.41053186793E+03  0.00000000000E+00 0.  1.
          3    1    6    6  503    0  0.26131394131E+03 -0.35860083511E+03  0.83301509524E+02  0.45146281835E+03  0.00000000000E+00 0. -1.
         -3    1    6    6    0  503  0.11001197427E+01 -0.37221823633E+02  0.21207641344E+02  0.42853686765E+02  0.00000000000E+00 0.  1.
<mgrwt>
<rscale>  0 0.14603203E+04</rscale>
<asrwt>0</asrwt>
<pdfrwt beam="1">  1        2 0.23624087E+00 0.14603203E+04</pdfrwt>
<pdfrwt beam="2">  1       -1 0.53413926E-01 0.14603203E+04</pdfrwt>
<totfact> 0.47319154E+01</totfact>
</mgrwt>
</event>
<event>
12    7  0.1741211E-007  0.1334777E+04  0.7818608E-02  0.9002432E-01
         -1   -1    0    0    0  501 -0.00000000000E+00  0.00000000000E+00  0.56955749179E+03  0.56955749179E+03  0.00000000000E+00 0.  1.
          2   -1    0    0  501    0  0.00000000000E+00 -0.00000000000E+00 -0.78202409468E+03  0.78202409468E+03  0.00000000000E+00 0. -1.
         24    2    1    2    0    0 -0.24455901419E+03 -0.14807225599E+03 -0.26915426314E+03  0.40072331368E+03  0.80004077027E+02 0.  0.
        254    2    1    2    0    0  0.24455901419E+03  0.14807225599E+03  0.56687660254E+02  0.95085827278E+03  0.90508754255E+03 0.  0.
         23    2    4    4    0    0  0.47786261103E+03  0.30899181021E+03 -0.14134680370E+03  0.59343388102E+03  0.91412463222E+02 0.  0.
         23    2    4    4    0    0 -0.23330359684E+03 -0.16091955421E+03  0.19803446395E+03  0.35742439176E+03  0.90602845933E+02 0.  0.
          4    1    3    3  502    0 -0.15017586422E+03 -0.99258001755E+02 -0.21822184849E+03  0.28288816918E+03  0.00000000000E+00 0. -1.
         -1    1    3    3    0  502 -0.94383149976E+02 -0.48814254240E+02 -0.50932414654E+02  0.11783514450E+03  0.00000000000E+00 0.  1.
         13    1    5    5    0    0  0.46866627847E+02  0.15616476454E+02  0.10289988211E+02  0.50460271501E+02  0.00000000000E+00 0. -1.
        -13    1    5    5    0    0  0.43099598318E+03  0.29337533375E+03 -0.15163679191E+03  0.54297360952E+03  0.00000000000E+00 0.  1.
          2    1    6    6  503    0 -0.49184428975E+02 -0.30503797042E+02  0.90638511727E+02  0.10754036217E+03  0.00000000000E+00 0. -1.
         -2    1    6    6    0  503 -0.18411916786E+03 -0.13041575717E+03  0.10739595222E+03  0.24988402959E+03  0.00000000000E+00 0.  1.
<mgrwt>
<rscale>  0 0.13347774E+04</rscale>
<asrwt>0</asrwt>
<pdfrwt beam="1">  1        2 0.12031140E+00 0.13347774E+04</pdfrwt>
<pdfrwt beam="2">  1       -1 0.87624229E-01 0.13347774E+04</pdfrwt>
<totfact> 0.50804121E+01</totfact>
</mgrwt>
</event>
<event>
12    7  0.1741211E-007  0.1121444E+04  0.7818608E-02  0.9184539E-01
          2   -1    0    0  501    0  0.00000000000E+00  0.00000000000E+00  0.61124369068E+03  0.61124369068E+03  0.00000000000E+00 0. -1.
         -1   -1    0    0    0  501 -0.00000000000E+00 -0.00000000000E+00 -0.51437631585E+03  0.51437631585E+03  0.00000000000E+00 0.  1.
         24    2    1    2    0    0  0.71160507910E+02 -0.90616724478E+02  0.16415813957E+03  0.21495868870E+03  0.77357187239E+02 0.  0.
        254    2    1    2    0    0 -0.71160507910E+02  0.90616724478E+02 -0.67290764744E+02  0.91066131784E+03  0.90083338090E+03 0.  0.
         23    2    4    4    0    0  0.39908479748E+03  0.58636800866E+02 -0.10958927763E+03  0.42845102968E+03  0.94093172287E+02 0.  0.
         23    2    4    4    0    0 -0.47024530539E+03  0.31979923612E+02  0.42298512890E+02  0.48221028815E+03  0.92651147085E+02 0.  0.
          4    1    3    3  502    0  0.83401642411E+02 -0.90265844753E+02  0.16055755981E+03  0.20219418067E+03  0.00000000000E+00 0. -1.
         -3    1    3    3    0  502 -0.12241134502E+02 -0.35087972445E+00  0.36005797620E+01  0.12764508024E+02  0.00000000000E+00 0.  1.
         13    1    5    5    0    0  0.81249777756E+01 -0.14333634776E+02 -0.49728568112E+01  0.17210393796E+02  0.00000000000E+00 0. -1.
        -13    1    5    5    0    0  0.39095981970E+03  0.72970435643E+02 -0.10461642082E+03  0.41124063589E+03  0.00000000000E+00 0.  1.
          2    1    6    6  503    0 -0.96993282375E+02 -0.25306168251E+01 -0.27664200092E+02  0.10089305632E+03  0.00000000000E+00 0. -1.
         -2    1    6    6    0  503 -0.37325202301E+03  0.34510540437E+02  0.69962712982E+02  0.38131723183E+03  0.00000000000E+00 0.  1.
<mgrwt>
<rscale>  0 0.11214442E+04</rscale>
<asrwt>0</asrwt>
<pdfrwt beam="1">  1        2 0.94037491E-01 0.11214442E+04</pdfrwt>
<pdfrwt beam="2">  1       -1 0.79134818E-01 0.11214442E+04</pdfrwt>
<totfact> 0.87763591E+01</totfact>
</mgrwt>
</event>
<event>
12    7  0.1741211E-007  0.2919480E+04  0.7818608E-02  0.8267105E-01
          2   -1    0    0  501    0  0.00000000000E+00  0.00000000000E+00  0.15439196394E+04  0.15439196394E+04  0.00000000000E+00 0. -1.
         -1   -1    0    0    0  501 -0.00000000000E+00 -0.00000000000E+00 -0.13801504901E+04  0.13801504901E+04  0.00000000000E+00 0.  1.
         24    2    1    2    0    0  0.54276828862E+03 -0.88920285657E+03 -0.74866027101E+03  0.12853151653E+04  0.79143777322E+02 0.  0.
        254    2    1    2    0    0 -0.54276828862E+03  0.88920285657E+03  0.91242942034E+03  0.16387549642E+04  0.87619133212E+03 0.  0.
         23    2    4    4    0    0 -0.29059530347E+02  0.79105106434E+03  0.36655585159E+03  0.87720173092E+03  0.92268313690E+02 0.  0.
         23    2    4    4    0    0 -0.51370875827E+03  0.98151792230E+02  0.54587356875E+03  0.76155323332E+03  0.91950592615E+02 0.  0.
          2    1    3    3  502    0  0.74925880615E+02 -0.80394329880E+02 -0.91319041414E+02  0.14288562974E+03  0.00000000000E+00 0. -1.
         -1    1    3    3    0  502  0.46784240800E+03 -0.80880852669E+03 -0.65734122960E+03  0.11424295355E+04  0.00000000000E+00 0.  1.
         13    1    5    5    0    0 -0.42204448196E+02  0.71697800692E+03  0.30626174499E+03  0.78079122325E+03  0.00000000000E+00 0. -1.
        -13    1    5    5    0    0  0.13144917849E+02  0.74073057413E+02  0.60294106594E+02  0.96410507673E+02  0.00000000000E+00 0.  1.
          1    1    6    6  503    0 -0.46224487299E+03  0.11581235243E+03  0.48583078954E+03  0.68052507643E+03  0.00000000000E+00 0. -1.
         -1    1    6    6    0  503 -0.51463885275E+02 -0.17660560197E+02  0.60042779214E+02  0.81028156895E+02  0.00000000000E+00 0.  1.
<mgrwt>
<rscale>  0 0.29194804E+04</rscale>
<asrwt>0</asrwt>
<pdfrwt beam="1">  1        2 0.23752610E+00 0.29194804E+04</pdfrwt>
<pdfrwt beam="2">  1       -1 0.21233084E+00 0.29194804E+04</pdfrwt>
<totfact> 0.14582838E+00</totfact>
</mgrwt>
</event>
<event>
12    7  0.1741211E-007  0.1537049E+04  0.7818608E-02  0.8860183E-01
         -1   -1    0    0    0  501 -0.00000000000E+00  0.00000000000E+00  0.75894144232E+03  0.75894144232E+03  0.00000000000E+00 0.  1.
          2   -1    0    0  501    0  0.00000000000E+00 -0.00000000000E+00 -0.77822873040E+03  0.77822873040E+03  0.00000000000E+00 0. -1.
         24    2    1    2    0    0  0.16417053172E+03  0.21924959880E+03 -0.42832112779E+03  0.51473807203E+03  0.80460824161E+02 0.  0.
        254    2    1    2    0    0 -0.16417053172E+03 -0.21924959880E+03  0.40903383970E+03  0.10224321007E+04  0.89612296502E+03 0.  0.
         23    2    4    4    0    0 -0.99892668018E+01 -0.54528984573E+03  0.33057364655E+03  0.64396668606E+03  0.89293648505E+02 0.  0.
         23    2    4    4    0    0 -0.15418126492E+03  0.32604024693E+03  0.78460193156E+02  0.37846541463E+03  0.83701631342E+02 0.  0.
          4    1    3    3  502    0  0.35503917675E+02  0.11285461894E+03 -0.16796732090E+03  0.20545002817E+03  0.00000000000E+00 0. -1.
         -3    1    3    3    0  502  0.12866661405E+03  0.10639497986E+03 -0.26035380689E+03  0.30928804386E+03  0.00000000000E+00 0.  1.
         13    1    5    5    0    0 -0.11692682434E+01  0.23159955890E+01 -0.19511587111E+01  0.32462353749E+01  0.00000000000E+00 0. -1.
        -13    1    5    5    0    0 -0.88199985584E+01 -0.54760584132E+03  0.33252480526E+03  0.64072045069E+03  0.00000000000E+00 0.  1.
          3    1    6    6  503    0 -0.84605896847E+02  0.12153410368E+03  0.65895264344E+02  0.16208294790E+03  0.00000000000E+00 0. -1.
         -3    1    6    6    0  503 -0.69575368075E+02  0.20450614325E+03  0.12564928812E+02  0.21638246672E+03  0.00000000000E+00 0.  1.
<mgrwt>
<rscale>  0 0.15370492E+04</rscale>
<asrwt>0</asrwt>
<pdfrwt beam="1">  1        2 0.11972750E+00 0.15370492E+04</pdfrwt>
<pdfrwt beam="2">  1       -1 0.11676022E+00 0.15370492E+04</pdfrwt>
<totfact> 0.26018611E+01</totfact>
</mgrwt>
</event>
<event>
12    7  0.1741211E-007  0.2163072E+04  0.7818608E-02  0.8533957E-01
         -1   -1    0    0    0  501 -0.00000000000E+00  0.00000000000E+00  0.46911244651E+03  0.46911244651E+03  0.00000000000E+00 0.  1.
          2   -1    0    0  501    0  0.00000000000E+00 -0.00000000000E+00 -0.24934750486E+04  0.24934750486E+04  0.00000000000E+00 0. -1.
         24    2    1    2    0    0  0.21091282869E+03 -0.54239380123E+02 -0.20423782721E+04  0.20555832892E+04  0.81777264977E+02 0.  0.
        254    2    1    2    0    0 -0.21091282869E+03  0.54239380123E+02  0.18015670027E+02  0.90700420584E+03  0.88028741522E+03 0.  0.
         23    2    4    4    0    0 -0.16887991861E+03 -0.25728063626E+03  0.32674740562E+03  0.45705493412E+03  0.86148668129E+02 0.  0.
         23    2    4    4    0    0 -0.42032910083E+02  0.31152001638E+03 -0.30873173559E+03  0.44994927173E+03  0.91255555620E+02 0.  0.
          2    1    3    3  502    0  0.85826315149E+02 -0.31067478561E+02 -0.52446278366E+03  0.53234627457E+03  0.00000000000E+00 0. -1.
         -1    1    3    3    0  502  0.12508651354E+03 -0.23171901562E+02 -0.15179154884E+04  0.15232370147E+04  0.00000000000E+00 0.  1.
         13    1    5    5    0    0 -0.26343952623E+02 -0.12406743301E+02  0.72255799303E+01  0.30002335317E+02  0.00000000000E+00 0. -1.
        -13    1    5    5    0    0 -0.14253596599E+03 -0.24487389296E+03  0.31952182569E+03  0.42705259880E+03  0.00000000000E+00 0.  1.
          2    1    6    6  503    0 -0.33029098843E+01  0.13089337697E+03 -0.71210389373E+02  0.14904665345E+03  0.00000000000E+00 0. -1.
         -2    1    6    6    0  503 -0.38730000199E+02  0.18062663941E+03 -0.23752134622E+03  0.30090261828E+03  0.00000000000E+00 0.  1.
<mgrwt>
<rscale>  0 0.21630721E+04</rscale>
<asrwt>0</asrwt>
<pdfrwt beam="1">  1        2 0.38361155E+00 0.21630721E+04</pdfrwt>
<pdfrwt beam="2">  1       -1 0.72171145E-01 0.21630721E+04</pdfrwt>
<totfact> 0.70983999E+00</totfact>
</mgrwt>
</event>
<event>
12    7  0.1741211E-007  0.1154057E+04  0.7818608E-02  0.9154049E-01
          2   -1    0    0  501    0  0.00000000000E+00  0.00000000000E+00  0.60933929891E+03  0.60933929891E+03  0.00000000000E+00 0. -1.
         -1   -1    0    0    0  501 -0.00000000000E+00 -0.00000000000E+00 -0.54643133077E+03  0.54643133077E+03  0.00000000000E+00 0.  1.
         24    2    1    2    0    0  0.83986188197E+02  0.81760094237E+02 -0.16179677480E+03  0.21390400116E+03  0.76408982173E+02 0.  0.
        254    2    1    2    0    0 -0.83986188197E+02 -0.81760094237E+02  0.22470474294E+03  0.94186662853E+03  0.90712850888E+03 0.  0.
         23    2    4    4    0    0 -0.29357193474E+03  0.51186733874E+02  0.48144229569E+03  0.57362747205E+03  0.91963199232E+02 0.  0.
         23    2    4    4    0    0  0.20958574654E+03 -0.13294682811E+03 -0.25673755275E+03  0.36823915648E+03  0.89915855765E+02 0.  0.
          4    1    3    3  502    0  0.58998923494E+02  0.89193297369E+02 -0.98266628272E+02  0.14523307991E+03  0.00000000000E+00 0. -1.
         -3    1    3    3    0  502  0.24987264704E+02 -0.74332031329E+01 -0.63530146532E+02  0.68670921244E+02  0.00000000000E+00 0.  1.
         13    1    5    5    0    0 -0.71502635102E+02  0.31350645204E+02  0.66395363553E+02  0.10248821436E+03  0.00000000000E+00 0. -1.
        -13    1    5    5    0    0 -0.22206929963E+03  0.19836088670E+02  0.41504693214E+03  0.47113925769E+03  0.00000000000E+00 0.  1.
          1    1    6    6  503    0  0.45983112615E+02 -0.71843521928E+02 -0.11578698716E+03  0.14381434102E+03  0.00000000000E+00 0. -1.
         -1    1    6    6    0  503  0.16360263393E+03 -0.61103306183E+02 -0.14095056559E+03  0.22442481546E+03  0.00000000000E+00 0.  1.
<mgrwt>
<rscale>  0 0.11540573E+04</rscale>
<asrwt>0</asrwt>
<pdfrwt beam="1">  1        2 0.93744508E-01 0.11540573E+04</pdfrwt>
<pdfrwt beam="2">  1       -1 0.84066358E-01 0.11540573E+04</pdfrwt>
<totfact> 0.77232527E+01</totfact>
</mgrwt>
</event>
<event>
12    7  0.1741211E-007  0.2958207E+04  0.7818608E-02  0.8255767E-01
         -1   -1    0    0    0  501 -0.00000000000E+00  0.00000000000E+00  0.20330626336E+04  0.20330626336E+04  0.00000000000E+00 0.  1.
          2   -1    0    0  501    0  0.00000000000E+00 -0.00000000000E+00 -0.10760847940E+04  0.10760847940E+04  0.00000000000E+00 0. -1.
         24    2    1    2    0    0  0.83328342905E+03 -0.14180010948E+03 -0.66039273933E+03  0.10755250459E+04  0.78530312817E+02 0.  0.
        254    2    1    2    0    0 -0.83328342905E+03  0.14180010948E+03  0.16173705789E+04  0.20336223817E+04  0.89736495243E+03 0.  0.
         23    2    4    4    0    0 -0.74171007607E+03 -0.18432409061E+03  0.65952544704E+03  0.10133825405E+04  0.88663130882E+02 0.  0.
         23    2    4    4    0    0 -0.91573352978E+02  0.32612420009E+03  0.95784513182E+03  0.10202398412E+04  0.93163105247E+02 0.  0.
          4    1    3    3  502    0  0.54476478443E+03 -0.12024827928E+03 -0.46673170690E+03  0.72736978577E+03  0.00000000000E+00 0. -1.
         -3    1    3    3    0  502  0.28851864462E+03 -0.21551830201E+02 -0.19366103243E+03  0.34815526013E+03  0.00000000000E+00 0.  1.
         13    1    5    5    0    0 -0.17570301225E+03 -0.83211523950E+02  0.16961458616E+03  0.25800157765E+03  0.00000000000E+00 0. -1.
        -13    1    5    5    0    0 -0.56600706382E+03 -0.10111256666E+03  0.48991086088E+03  0.75538096285E+03  0.00000000000E+00 0.  1.
          3    1    6    6  503    0 -0.25320206324E+02  0.42877370603E+02  0.69625441598E+02  0.85599555348E+02  0.00000000000E+00 0. -1.
         -3    1    6    6    0  503 -0.66253146654E+02  0.28324682948E+03  0.88821969022E+03  0.93464028586E+03  0.00000000000E+00 0.  1.
<mgrwt>
<rscale>  0 0.29582074E+04</rscale>
<asrwt>0</asrwt>
<pdfrwt beam="1">  1        2 0.16555151E+00 0.29582074E+04</pdfrwt>
<pdfrwt beam="2">  1       -1 0.31277887E+00 0.29582074E+04</pdfrwt>
<totfact> 0.60181327E-01</totfact>
</mgrwt>
</event>
<event>
12    7  0.1741211E-007  0.1734735E+04  0.7818608E-02  0.8741798E-01
         -1   -1    0    0    0  501 -0.00000000000E+00  0.00000000000E+00  0.59769210120E+03  0.59769210120E+03  0.00000000000E+00 0.  1.
          2   -1    0    0  501    0  0.00000000000E+00 -0.00000000000E+00 -0.12587196276E+04  0.12587196276E+04  0.00000000000E+00 0. -1.
         24    2    1    2    0    0  0.44248601112E+03  0.11828743915E+03 -0.71095101182E+03  0.84960304664E+03  0.81167772847E+02 0.  0.
        254    2    1    2    0    0 -0.44248601112E+03 -0.11828743915E+03  0.49923485474E+02  0.10068086821E+04  0.89520141850E+03 0.  0.
         23    2    4    4    0    0 -0.44212132477E+03  0.29975617099E+02  0.40763619816E+03  0.60890263658E+03  0.90693700715E+02 0.  0.
         23    2    4    4    0    0 -0.36468635212E+00 -0.14826305625E+03 -0.35771271269E+03  0.39790604553E+03  0.91590225497E+02 0.  0.
          4    1    3    3  502    0  0.43102212176E+03  0.10789821784E+03 -0.65450001607E+03  0.79107039250E+03  0.00000000000E+00 0. -1.
         -3    1    3    3    0  502  0.11463889361E+02  0.10389221304E+02 -0.56450995759E+02  0.58532654141E+02  0.00000000000E+00 0.  1.
         13    1    5    5    0    0 -0.63342312195E+02  0.35149835841E+02  0.50721289296E+02  0.88433074478E+02  0.00000000000E+00 0.  1.
        -13    1    5    5    0    0 -0.37877901258E+03 -0.51742187420E+01  0.35691490887E+03  0.52046956211E+03  0.00000000000E+00 0. -1.
          3    1    6    6  503    0 -0.25542459086E+02 -0.14616309084E+03 -0.29279865906E+03  0.32824856601E+03  0.00000000000E+00 0. -1.
         -3    1    6    6    0  503  0.25177772733E+02 -0.20999654048E+01 -0.64914053627E+02  0.69657479518E+02  0.00000000000E+00 0.  1.
<mgrwt>
<rscale>  0 0.17347355E+04</rscale>
<asrwt>0</asrwt>
<pdfrwt beam="1">  1        2 0.19364917E+00 0.17347355E+04</pdfrwt>
<pdfrwt beam="2">  1       -1 0.91952632E-01 0.17347355E+04</pdfrwt>
<totfact> 0.21783578E+01</totfact>
</mgrwt>
</event>
<event>
12    7  0.1741211E-007  0.1828017E+04  0.7818608E-02  0.8691541E-01
         -1   -1    0    0    0  501 -0.00000000000E+00  0.00000000000E+00  0.67585614047E+03  0.67585614047E+03  0.00000000000E+00 0.  1.
          2   -1    0    0  501    0  0.00000000000E+00 -0.00000000000E+00 -0.12360784240E+04  0.12360784240E+04  0.00000000000E+00 0. -1.
         24    2    1    2    0    0  0.65451103693E+02 -0.60070469440E+03  0.12542615977E+03  0.62227368914E+03  0.79767448232E+02 0.  0.
        254    2    1    2    0    0 -0.65451103693E+02  0.60070469440E+03 -0.68564844333E+03  0.12896608754E+04  0.90993483763E+03 0.  0.
         23    2    4    4    0    0 -0.30176519789E+03  0.17950954613E+03 -0.70955283737E+03  0.79673666233E+03  0.89655832317E+02 0.  0.
         23    2    4    4    0    0  0.23631409420E+03  0.42119514827E+03  0.23904394039E+02  0.49292421303E+03  0.95672125993E+02 0.  0.
          2    1    3    3  502    0 -0.65557785435E+01 -0.63568352058E+02  0.34929443911E+02  0.72828426233E+02  0.00000000000E+00 0. -1.
         -1    1    3    3    0  502  0.72006882236E+02 -0.53713634234E+03  0.90496715861E+02  0.54944526291E+03  0.00000000000E+00 0.  1.
         13    1    5    5    0    0 -0.71815693413E+01 -0.75909212863E+01 -0.44188870850E+02  0.45407635164E+02  0.00000000000E+00 0.  1.
        -13    1    5    5    0    0 -0.29458362855E+03  0.18710046741E+03 -0.66536396652E+03  0.75132902716E+03  0.00000000000E+00 0. -1.
          4    1    6    6  503    0  0.94077987546E+02  0.91434696501E+02  0.26236886800E+02  0.13378843632E+03  0.00000000000E+00 0.  1.
         -4    1    6    6    0  503  0.14223610665E+03  0.32976045177E+03 -0.23324927612E+01  0.35913577670E+03  0.00000000000E+00 0. -1.
<mgrwt>
<rscale>  0 0.18280166E+04</rscale>
<asrwt>0</asrwt>
<pdfrwt beam="1">  1        2 0.19016591E+00 0.18280166E+04</pdfrwt>
<pdfrwt beam="2">  1       -1 0.10397787E+00 0.18280166E+04</pdfrwt>
<totfact> 0.16863569E+01</totfact>
</mgrwt>
</event>
<event>
12    7  0.1741211E-007  0.1915714E+04  0.7818608E-02  0.8647074E-01
          2   -1    0    0  501    0  0.00000000000E+00  0.00000000000E+00  0.12314128418E+04  0.12314128418E+04  0.00000000000E+00 0. -1.
         -1   -1    0    0    0  501 -0.00000000000E+00 -0.00000000000E+00 -0.74507117814E+03  0.74507117814E+03  0.00000000000E+00 0.  1.
         24    2    1    2    0    0  0.63814650810E+03  0.71020453059E+02 -0.19430812979E+03  0.67557537022E+03  0.79822058330E+02 0.  0.
        254    2    1    2    0    0 -0.63814650810E+03 -0.71020453059E+02  0.68064979347E+03  0.13009086497E+04  0.90377226284E+03 0.  0.
         23    2    4    4    0    0 -0.26489776163E+03 -0.47264446535E+03  0.38773837133E+03  0.67304215856E+03  0.95294742014E+02 0.  0.
         23    2    4    4    0    0 -0.37324874647E+03  0.40162401229E+03  0.29291142214E+03  0.62786649119E+03  0.88333207492E+02 0.  0.
          2    1    3    3  502    0  0.45316810211E+03  0.35923177242E+02 -0.10202917194E+03  0.46589886817E+03  0.00000000000E+00 0. -1.
         -1    1    3    3    0  502  0.18497840598E+03  0.35097275817E+02 -0.92278957844E+02  0.20967650205E+03  0.00000000000E+00 0.  1.
         13    1    5    5    0    0 -0.13197068382E+02 -0.17253110534E+01  0.27814117104E+00  0.13312275336E+02  0.00000000000E+00 0.  1.
        -13    1    5    5    0    0 -0.25170069325E+03 -0.47091915429E+03  0.38746023016E+03  0.65972988322E+03  0.00000000000E+00 0. -1.
          1    1    6    6  503    0 -0.27480957028E+03  0.26808713261E+03  0.24406118032E+03  0.45492512607E+03  0.00000000000E+00 0. -1.
         -1    1    6    6    0  503 -0.98439176188E+02  0.13353687968E+03  0.48850241821E+02  0.17294136512E+03  0.00000000000E+00 0.  1.
<mgrwt>
<rscale>  0 0.19157142E+04</rscale>
<asrwt>0</asrwt>
<pdfrwt beam="1">  1        2 0.18944813E+00 0.19157142E+04</pdfrwt>
<pdfrwt beam="2">  1       -1 0.11462634E+00 0.19157142E+04</pdfrwt>
<totfact> 0.13385401E+01</totfact>
</mgrwt>
</event>
<event>
12    7  0.1741211E-007  0.1653027E+04  0.7818608E-02  0.8788618E-01
         -1   -1    0    0    0  501 -0.00000000000E+00  0.00000000000E+00  0.21704095694E+03  0.21704095694E+03  0.00000000000E+00 0.  1.
          2   -1    0    0  501    0  0.00000000000E+00 -0.00000000000E+00 -0.31474467499E+04  0.31474467499E+04  0.00000000000E+00 0. -1.
         24    2    1    2    0    0  0.14104722789E+01  0.14085715892E+03  0.10612478118E+03  0.19459536356E+03  0.82232339666E+02 0.  0.
        254    2    1    2    0    0 -0.14104722789E+01 -0.14085715892E+03 -0.30365305742E+04  0.31698923433E+04  0.89880855114E+03 0.  0.
         23    2    4    4    0    0 -0.29721404366E+03  0.25274183914E+03 -0.11425363231E+04  0.12108199357E+04  0.92092574319E+02 0.  0.
         23    2    4    4    0    0  0.29580357138E+03 -0.39359899806E+03 -0.18939942511E+04  0.19590724076E+04  0.91271850884E+02 0.  0.
          2    1    3    3  502    0 -0.38396512051E+02  0.54477953764E+02  0.31577753855E+02  0.73751570305E+02  0.00000000000E+00 0. -1.
         -1    1    3    3    0  502  0.39806984330E+02  0.86379205160E+02  0.74547027323E+02  0.12084379326E+03  0.00000000000E+00 0.  1.
         13    1    5    5    0    0 -0.21771553928E+03  0.23255054959E+03 -0.92660516514E+03  0.97983516278E+03  0.00000000000E+00 0. -1.
        -13    1    5    5    0    0 -0.79498504379E+02  0.20191289543E+02 -0.21593115794E+03  0.23098477296E+03  0.00000000000E+00 0.  1.
          3    1    6    6  503    0  0.22946910444E+03 -0.31965350130E+03 -0.13540438584E+04  0.14100599992E+04  0.00000000000E+00 0. -1.
         -3    1    6    6    0  503  0.66334466938E+02 -0.73945496765E+02 -0.53995039269E+03  0.54901240838E+03  0.00000000000E+00 0.  1.
<mgrwt>
<rscale>  0 0.16530273E+04</rscale>
<asrwt>0</asrwt>
<pdfrwt beam="1">  1        2 0.48422256E+00 0.16530273E+04</pdfrwt>
<pdfrwt beam="2">  1       -1 0.33390918E-01 0.16530273E+04</pdfrwt>
<totfact> 0.12964199E+01</totfact>
</mgrwt>
</event>
<event>
12    7  0.1741211E-007  0.1903987E+04  0.7818608E-02  0.8652874E-01
         -1   -1    0    0    0  501 -0.00000000000E+00  0.00000000000E+00  0.45354808508E+03  0.45354808508E+03  0.00000000000E+00 0.  1.
          2   -1    0    0  501    0  0.00000000000E+00 -0.00000000000E+00 -0.19982266311E+04  0.19982266311E+04  0.00000000000E+00 0. -1.
         24    2    1    2    0    0  0.45676924035E+03  0.52322320933E+03 -0.27185093872E+03  0.75005744161E+03  0.79262646422E+02 0.  0.
        254    2    1    2    0    0 -0.45676924035E+03 -0.52322320933E+03 -0.12728276073E+04  0.17017172746E+04  0.89070247499E+03 0.  0.
         23    2    4    4    0    0  0.25734138065E+03 -0.17256609422E+03 -0.44771104234E+03  0.55205744844E+03  0.91206391684E+02 0.  0.
         23    2    4    4    0    0 -0.71411062100E+03 -0.35065711511E+03 -0.82511656498E+03  0.11496598261E+04  0.89364302867E+02 0.  0.
          2    1    3    3  502    0  0.66341587956E+02  0.47147352419E+02 -0.14166633684E+02  0.82612182168E+02  0.00000000000E+00 0. -1.
         -1    1    3    3    0  502  0.39042765239E+03  0.47607585691E+03 -0.25768430503E+03  0.66744525944E+03  0.00000000000E+00 0.  1.
         13    1    5    5    0    0  0.28985928873E+02  0.83252017429E+00 -0.14163133553E+02  0.32271837793E+02  0.00000000000E+00 0.  1.
        -13    1    5    5    0    0  0.22835545178E+03 -0.17339861440E+03 -0.43354790878E+03  0.51978561065E+03  0.00000000000E+00 0. -1.
          1    1    6    6  503    0 -0.37780346432E+03 -0.20701166725E+03 -0.38829721644E+03  0.57996897876E+03  0.00000000000E+00 0. -1.
         -1    1    6    6    0  503 -0.33630715668E+03 -0.14364544786E+03 -0.43681934855E+03  0.56969084738E+03  0.00000000000E+00 0.  1.
<mgrwt>
<rscale>  0 0.19039873E+04</rscale>
<asrwt>0</asrwt>
<pdfrwt beam="1">  1        2 0.30741948E+00 0.19039873E+04</pdfrwt>
<pdfrwt beam="2">  1       -1 0.69776629E-01 0.19039873E+04</pdfrwt>
<totfact> 0.14826530E+01</totfact>
</mgrwt>
</event>
<event>
12    7  0.1741211E-007  0.3700284E+04  0.7818608E-02  0.8067899E-01
         -1   -1    0    0    0  501 -0.00000000000E+00  0.00000000000E+00  0.15999065226E+04  0.15999065226E+04  0.00000000000E+00 0.  1.
          2   -1    0    0  501    0  0.00000000000E+00 -0.00000000000E+00 -0.21395160650E+04  0.21395160650E+04  0.00000000000E+00 0. -1.
         24    2    1    2    0    0 -0.15204576669E+04  0.34497854909E+03  0.52659307338E+03  0.16475492921E+04  0.79477599914E+02 0.  0.
        254    2    1    2    0    0  0.15204576669E+04 -0.34497854909E+03 -0.10662026158E+04  0.20918732954E+04  0.89907961267E+03 0.  0.
         23    2    4    4    0    0  0.47400422856E+02 -0.16302376126E+03 -0.43515660492E+03  0.47649201091E+03  0.94126610649E+02 0.  0.
         23    2    4    4    0    0  0.14730572440E+04 -0.18195478783E+03 -0.63104601088E+03  0.16153812845E+04  0.90732780211E+02 0.  0.
          2    1    3    3  502    0 -0.77921021148E+03  0.16776449853E+03  0.22829540557E+03  0.82911535557E+03  0.00000000000E+00 0. -1.
         -1    1    3    3    0  502 -0.74124745542E+03  0.17721405055E+03  0.29829766781E+03  0.81843393655E+03  0.00000000000E+00 0.  1.
         13    1    5    5    0    0 -0.15033546718E+02 -0.54646250002E+02 -0.67478265440E+02  0.88122281365E+02  0.00000000000E+00 0. -1.
        -13    1    5    5    0    0  0.62433969573E+02 -0.10837751126E+03 -0.36767833948E+03  0.38836972955E+03  0.00000000000E+00 0.  1.
          1    1    6    6  503    0  0.12481361945E+04 -0.12873905557E+03 -0.55543449820E+03  0.13721972111E+04  0.00000000000E+00 0. -1.
         -1    1    6    6    0  503  0.22492104953E+03 -0.53215732254E+02 -0.75611512684E+02  0.24318407335E+03  0.00000000000E+00 0.  1.
<mgrwt>
<rscale>  0 0.37002842E+04</rscale>
<asrwt>0</asrwt>
<pdfrwt beam="1">  1        2 0.32915632E+00 0.37002842E+04</pdfrwt>
<pdfrwt beam="2">  1       -1 0.24613947E+00 0.37002842E+04</pdfrwt>
<totfact> 0.37934806E-01</totfact>
</mgrwt>
</event>
<event>
12    7  0.1741211E-007  0.2444782E+04  0.7818608E-02  0.8422926E-01
          2   -1    0    0  501    0  0.00000000000E+00  0.00000000000E+00  0.28508382906E+04  0.28508382906E+04  0.00000000000E+00 0. -1.
         -1   -1    0    0    0  501 -0.00000000000E+00 -0.00000000000E+00 -0.52414050438E+03  0.52414050438E+03  0.00000000000E+00 0.  1.
         24    2    1    2    0    0 -0.12686940303E+03  0.85713710898E+03  0.18306309745E+03  0.88991682755E+03  0.87521387558E+02 0.  0.
        254    2    1    2    0    0  0.12686940303E+03 -0.85713710898E+03  0.21436346888E+04  0.24850619674E+04  0.91081470897E+03 0.  0.
         23    2    4    4    0    0  0.27551572801E+03  0.92957872726E+00  0.19786832759E+03  0.35129582681E+03  0.91362477926E+02 0.  0.
         23    2    4    4    0    0 -0.14864632498E+03 -0.85806668771E+03  0.19457663612E+04  0.21337661406E+04  0.92612310716E+02 0.  0.
          2    1    3    3  502    0 -0.30914959399E+02  0.70561855156E+02  0.18768630516E+01  0.77059929488E+02  0.00000000000E+00 0. -1.
         -3    1    3    3    0  502 -0.95954443632E+02  0.78657525383E+03  0.18118623440E+03  0.81285689806E+03  0.00000000000E+00 0.  1.
         13    1    5    5    0    0  0.22229845328E+03 -0.14748575331E+02  0.11274891911E+03  0.24969269426E+03  0.00000000000E+00 0.  1.
        -13    1    5    5    0    0  0.53217274729E+02  0.15678154058E+02  0.85119408478E+02  0.10160313255E+03  0.00000000000E+00 0. -1.
          4    1    6    6  503    0 -0.53077614572E+02 -0.19284158249E+03  0.53310314611E+03  0.56938921091E+03  0.00000000000E+00 0. -1.
         -4    1    6    6    0  503 -0.95568710407E+02 -0.66522510522E+03  0.14126632151E+04  0.15643769297E+04  0.00000000000E+00 0.  1.
<mgrwt>
<rscale>  0 0.24447821E+04</rscale>
<asrwt>0</asrwt>
<pdfrwt beam="1">  1        2 0.43859050E+00 0.24447821E+04</pdfrwt>
<pdfrwt beam="2">  1       -1 0.80637002E-01 0.24447821E+04</pdfrwt>
<totfact> 0.33660155E+00</totfact>
</mgrwt>
</event>
<event>
12    7  0.1741211E-007  0.1014711E+04  0.7818608E-02  0.9292556E-01
          2   -1    0    0  501    0  0.00000000000E+00  0.00000000000E+00  0.18760407273E+04  0.18760407273E+04  0.00000000000E+00 0. -1.
         -1   -1    0    0    0  501 -0.00000000000E+00 -0.00000000000E+00 -0.13720893253E+03  0.13720893253E+03  0.00000000000E+00 0.  1.
         24    2    1    2    0    0  0.61179995061E+02  0.13988761392E+02  0.32658775730E+03  0.34209928837E+03  0.80210240252E+02 0.  0.
        254    2    1    2    0    0 -0.61179995061E+02 -0.13988761392E+02  0.14122440375E+04  0.16711503715E+04  0.89127530283E+03 0.  0.
         23    2    4    4    0    0 -0.73045309614E+02  0.17228818952E+03  0.14452597913E+04  0.14600392406E+04  0.88993721429E+02 0.  0.
         23    2    4    4    0    0  0.11865314553E+02 -0.18627695091E+03 -0.33015753800E+02  0.21111113082E+03  0.92940741473E+02 0.  0.
          2    1    3    3  502    0  0.77699308657E+01 -0.30814107015E+02  0.11588608003E+03  0.12016432316E+03  0.00000000000E+00 0. -1.
         -1    1    3    3    0  502  0.53410064196E+02  0.44802868407E+02  0.21070167728E+03  0.22193496521E+03  0.00000000000E+00 0.  1.
         13    1    5    5    0    0 -0.48903472829E+02  0.15193371671E+03  0.13559449007E+04  0.13653065508E+04  0.00000000000E+00 0.  1.
        -13    1    5    5    0    0 -0.24141836785E+02  0.20354472813E+02  0.89314890527E+02  0.94732689800E+02  0.00000000000E+00 0. -1.
          2    1    6    6  503    0 -0.38533680836E+02 -0.57202085974E+02 -0.20647813367E+02  0.71994828949E+02  0.00000000000E+00 0. -1.
         -2    1    6    6    0  503  0.50398995389E+02 -0.12907486494E+03 -0.12367940432E+02  0.13911630187E+03  0.00000000000E+00 0.  1.
<mgrwt>
<rscale>  0 0.10147109E+04</rscale>
<asrwt>0</asrwt>
<pdfrwt beam="1">  1        2 0.28862163E+00 0.10147109E+04</pdfrwt>
<pdfrwt beam="2">  1       -1 0.21109068E-01 0.10147109E+04</pdfrwt>
<totfact> 0.16655136E+02</totfact>
</mgrwt>
</event>
<event>
12    7  0.1741211E-007  0.1272561E+04  0.7818608E-02  0.9051612E-01
         -1   -1    0    0    0  501 -0.00000000000E+00  0.00000000000E+00  0.22956168199E+03  0.22956168199E+03  0.00000000000E+00 0.  1.
          2   -1    0    0  501    0  0.00000000000E+00 -0.00000000000E+00 -0.17635895229E+04  0.17635895229E+04  0.00000000000E+00 0. -1.
         24    2    1    2    0    0 -0.37565364352E+02 -0.22387404670E+03 -0.12834925735E+03  0.27259734997E+03  0.79404269166E+02 0.  0.
        254    2    1    2    0    0  0.37565364352E+02  0.22387404670E+03 -0.14056785836E+04  0.17205538549E+04  0.96583774105E+03 0.  0.
         23    2    4    4    0    0  0.23485935023E+03  0.53531983268E+03 -0.10205995661E+04  0.11796697046E+04  0.90944489311E+02 0.  0.
         23    2    4    4    0    0 -0.19729398588E+03 -0.31144578598E+03 -0.38507901751E+03  0.54088415030E+03  0.91358742590E+02 0.  0.
          2    1    3    3  502    0  0.18387568967E+02 -0.73902539858E+02 -0.18228309149E+02  0.78306828210E+02  0.00000000000E+00 0. -1.
         -1    1    3    3    0  502 -0.55952933319E+02 -0.14997150684E+03 -0.11012094820E+03  0.19429052176E+03  0.00000000000E+00 0.  1.
         13    1    5    5    0    0  0.87969956001E+02  0.21984261582E+03 -0.32778322048E+03  0.40436534040E+03  0.00000000000E+00 0. -1.
        -13    1    5    5    0    0  0.14688939423E+03  0.31547721686E+03 -0.69281634559E+03  0.77530436424E+03  0.00000000000E+00 0.  1.
          3    1    6    6  503    0 -0.19753940024E+03 -0.31582320352E+03 -0.36944951958E+03  0.52465136810E+03  0.00000000000E+00 0. -1.
         -3    1    6    6    0  503  0.24541435580E+00  0.43774175377E+01 -0.15629497930E+02  0.16232782203E+02  0.00000000000E+00 0.  1.
<mgrwt>
<rscale>  0 0.12725605E+04</rscale>
<asrwt>0</asrwt>
<pdfrwt beam="1">  1        2 0.27132148E+00 0.12725605E+04</pdfrwt>
<pdfrwt beam="2">  1       -1 0.35317180E-01 0.12725605E+04</pdfrwt>
<totfact> 0.77219774E+01</totfact>
</mgrwt>
</event>
<event>
12    7  0.1741211E-007  0.1781261E+04  0.7818608E-02  0.8716329E-01
          2   -1    0    0  501    0  0.00000000000E+00  0.00000000000E+00  0.20372507180E+04  0.20372507180E+04  0.00000000000E+00 0. -1.
         -1   -1    0    0    0  501 -0.00000000000E+00 -0.00000000000E+00 -0.38935936433E+03  0.38935936433E+03  0.00000000000E+00 0.  1.
         24    2    1    2    0    0  0.27783229822E+03 -0.59239175655E+03  0.48479658627E+03  0.81808965144E+03  0.78257067255E+02 0.  0.
        254    2    1    2    0    0 -0.27783229822E+03  0.59239175655E+03  0.11630947674E+04  0.16085204309E+04  0.89801434261E+03 0.  0.
         23    2    4    4    0    0  0.17793629365E+03  0.29175212183E+03  0.95164601454E+03  0.10156575628E+04  0.95653137318E+02 0.  0.
         23    2    4    4    0    0 -0.45576859187E+03  0.30063963472E+03  0.21144875290E+03  0.59286286814E+03  0.93094607892E+02 0.  0.
          2    1    3    3  502    0  0.21611694581E+03 -0.47135212464E+03  0.34303397314E+03  0.62173279341E+03  0.00000000000E+00 0. -1.
         -1    1    3    3    0  502  0.61715352411E+02 -0.12103963190E+03  0.14176261313E+03  0.19635685803E+03  0.00000000000E+00 0.  1.
         13    1    5    5    0    0  0.93945229560E+02  0.22379481716E+03  0.58298377378E+03  0.63149022703E+03  0.00000000000E+00 0.  1.
        -13    1    5    5    0    0  0.83991064091E+02  0.67957304674E+02  0.36866224076E+03  0.38416733576E+03  0.00000000000E+00 0. -1.
          1    1    6    6  503    0 -0.14337181739E+03  0.92837733931E+02  0.11354520534E+03  0.20510201491E+03  0.00000000000E+00 0. -1.
         -1    1    6    6    0  503 -0.31239677448E+03  0.20780190079E+03  0.97903547558E+02  0.38776085323E+03  0.00000000000E+00 0.  1.
<mgrwt>
<rscale>  0 0.17812610E+04</rscale>
<asrwt>0</asrwt>
<pdfrwt beam="1">  1        2 0.31342318E+00 0.17812610E+04</pdfrwt>
<pdfrwt beam="2">  1       -1 0.59901442E-01 0.17812610E+04</pdfrwt>
<totfact> 0.19381113E+01</totfact>
</mgrwt>
</event>
<event>
12    7  0.1741211E-007  0.1496518E+04  0.7818608E-02  0.8886771E-01
          2   -1    0    0  501    0  0.00000000000E+00  0.00000000000E+00  0.15904696502E+04  0.15904696502E+04  0.00000000000E+00 0. -1.
         -1   -1    0    0    0  501 -0.00000000000E+00 -0.00000000000E+00 -0.35202924120E+03  0.35202924120E+03  0.00000000000E+00 0.  1.
         24    2    1    2    0    0 -0.36395147327E+03  0.93922621940E+02  0.81508390610E+03  0.90115536907E+03  0.80231486384E+02 0.  0.
        254    2    1    2    0    0  0.36395147327E+03 -0.93922621940E+02  0.42335650293E+03  0.10413435224E+04  0.87400427299E+03 0.  0.
         23    2    4    4    0    0  0.66683216166E+02 -0.33809206003E+03  0.52344765458E+03  0.63299837907E+03  0.89087644712E+02 0.  0.
         23    2    4    4    0    0  0.29726825710E+03  0.24416943809E+03 -0.10009115166E+03  0.40834514330E+03  0.93490032827E+02 0.  0.
          4    1    3    3  502    0 -0.33323048054E+03  0.10317245449E+03  0.70644319812E+03  0.78787632322E+03  0.00000000000E+00 0. -1.
         -3    1    3    3    0  502 -0.30720992732E+02 -0.92498325547E+01  0.10864070799E+03  0.11327904585E+03  0.00000000000E+00 0.  1.
         13    1    5    5    0    0 -0.17805256482E+02 -0.45703434666E+02  0.10160551162E+03  0.11282513501E+03  0.00000000000E+00 0.  1.
        -13    1    5    5    0    0  0.84488472647E+02 -0.29238862537E+03  0.42184214296E+03  0.52017324406E+03  0.00000000000E+00 0. -1.
          1    1    6    6  503    0  0.19219816812E+03  0.17028800330E+03 -0.11034947901E+03  0.27949087179E+03  0.00000000000E+00 0. -1.
         -1    1    6    6    0  503  0.10507008899E+03  0.73881434797E+02  0.10258327357E+02  0.12885427151E+03  0.00000000000E+00 0.  1.
<mgrwt>
<rscale>  0 0.14965184E+04</rscale>
<asrwt>0</asrwt>
<pdfrwt beam="1">  1        2 0.24468764E+00 0.14965184E+04</pdfrwt>
<pdfrwt beam="2">  1       -1 0.54158345E-01 0.14965184E+04</pdfrwt>
<totfact> 0.42793652E+01</totfact>
</mgrwt>
</event>
<event>
12    7  0.1741211E-007  0.2322088E+04  0.7818608E-02  0.8469263E-01
         -1   -1    0    0    0  501 -0.00000000000E+00  0.00000000000E+00  0.75742793790E+03  0.75742793790E+03  0.00000000000E+00 0.  1.
          2   -1    0    0  501    0  0.00000000000E+00 -0.00000000000E+00 -0.17797371482E+04  0.17797371482E+04  0.00000000000E+00 0. -1.
         24    2    1    2    0    0 -0.51266104400E+03 -0.52963891903E+03 -0.11718458637E+04  0.13866004340E+04  0.78098045603E+02 0.  0.
        254    2    1    2    0    0  0.51266104400E+03  0.52963891903E+03  0.14953665337E+03  0.11505646521E+04  0.87068885223E+03 0.  0.
         23    2    4    4    0    0  0.38556816794E+03 -0.13847737146E+03  0.19544291214E+03  0.46283353173E+03  0.90433133572E+02 0.  0.
         23    2    4    4    0    0  0.12709287606E+03  0.66811629049E+03 -0.45906258770E+02  0.68773112039E+03  0.91294756634E+02 0.  0.
          4    1    3    3  502    0 -0.20746417571E+02 -0.66758176693E+01 -0.21671848461E+02  0.30735149248E+02  0.00000000000E+00 0. -1.
         -1    1    3    3    0  502 -0.49191462643E+03 -0.52296310136E+03 -0.11501740152E+04  0.13558652847E+04  0.00000000000E+00 0.  1.
         13    1    5    5    0    0  0.23246988060E+03 -0.60949314080E+02  0.15671480171E+03  0.28690868469E+03  0.00000000000E+00 0. -1.
        -13    1    5    5    0    0  0.15309828734E+03 -0.77528057384E+02  0.38728110426E+02  0.17592484704E+03  0.00000000000E+00 0.  1.
          3    1    6    6  503    0  0.12025020155E+03  0.64321475618E+03 -0.25565747226E+02  0.65485795480E+03  0.00000000000E+00 0. -1.
         -3    1    6    6    0  503  0.68426745156E+01  0.24901534315E+02 -0.20340511544E+02  0.32873165585E+02  0.00000000000E+00 0.  1.
<mgrwt>
<rscale>  0 0.23220875E+04</rscale>
<asrwt>0</asrwt>
<pdfrwt beam="1">  1        2 0.27380572E+00 0.23220875E+04</pdfrwt>
<pdfrwt beam="2">  1       -1 0.11652737E+00 0.23220875E+04</pdfrwt>
<totfact> 0.60665234E+00</totfact>
</mgrwt>
</event>
<event>
12    7  0.1741211E-007  0.1144780E+04  0.7818608E-02  0.9162612E-01
         -1   -1    0    0    0  501 -0.00000000000E+00  0.00000000000E+00  0.14349341751E+03  0.14349341751E+03  0.00000000000E+00 0.  1.
          2   -1    0    0  501    0  0.00000000000E+00 -0.00000000000E+00 -0.22832444859E+04  0.22832444859E+04  0.00000000000E+00 0. -1.
         24    2    1    2    0    0 -0.43637973910E+02 -0.18554402558E+03 -0.32087609995E+03  0.38190580406E+03  0.80992058012E+02 0.  0.
        254    2    1    2    0    0  0.43637973910E+02  0.18554402558E+03 -0.18188749685E+04  0.20448320994E+04  0.91471378338E+03 0.  0.
         23    2    4    4    0    0  0.31884926220E+03  0.29562634579E+03 -0.16156831289E+04  0.16755392193E+04  0.89106196145E+02 0.  0.
         23    2    4    4    0    0 -0.27521128829E+03 -0.11008232020E+03 -0.20319183960E+03  0.36929288007E+03  0.85034917333E+02 0.  0.
          2    1    3    3  502    0 -0.11913351397E+02 -0.94943888609E+02 -0.23251722162E+03  0.25143692703E+03  0.00000000000E+00 0. -1.
         -1    1    3    3    0  502 -0.31724622513E+02 -0.90600136975E+02 -0.88358878323E+02  0.13046887702E+03  0.00000000000E+00 0.  1.
         13    1    5    5    0    0  0.21438249831E+03  0.24010103783E+03 -0.10799388367E+04  0.11268878626E+04  0.00000000000E+00 0. -1.
        -13    1    5    5    0    0  0.10446676388E+03  0.55525307957E+02 -0.53574429217E+03  0.54865135667E+03  0.00000000000E+00 0.  1.
          4    1    6    6  503    0 -0.16670866591E+03 -0.10960444042E+03 -0.12312079271E+03  0.23444326019E+03  0.00000000000E+00 0. -1.
         -4    1    6    6    0  503 -0.10850262238E+03 -0.47787978259E+00 -0.80071046885E+02  0.13484961988E+03  0.00000000000E+00 0.  1.
<mgrwt>
<rscale>  0 0.11447804E+04</rscale>
<asrwt>0</asrwt>
<pdfrwt beam="1">  1        2 0.35126837E+00 0.11447804E+04</pdfrwt>
<pdfrwt beam="2">  1       -1 0.22075911E-01 0.11447804E+04</pdfrwt>
<totfact> 0.90940384E+01</totfact>
</mgrwt>
</event>
<event>
12    7  0.1741211E-007  0.3888470E+04  0.7818608E-02  0.8027432E-01
          2   -1    0    0  501    0  0.00000000000E+00  0.00000000000E+00  0.44033025512E+04  0.44033025512E+04  0.00000000000E+00 0. -1.
         -1   -1    0    0    0  501 -0.00000000000E+00 -0.00000000000E+00 -0.85845781423E+03  0.85845781423E+03  0.00000000000E+00 0.  1.
         24    2    1    2    0    0 -0.17411466730E+03  0.12184966000E+04 -0.17215114265E+03  0.12455260547E+04  0.81542967317E+02 0.  0.
        254    2    1    2    0    0  0.17411466730E+03 -0.12184966000E+04  0.37169958796E+04  0.40162343107E+04  0.89388466151E+03 0.  0.
         23    2    4    4    0    0  0.46070858071E+03 -0.51829457441E+03  0.12310346979E+04  0.14160558087E+04  0.94265388906E+02 0.  0.
         23    2    4    4    0    0 -0.28659391340E+03 -0.70020202556E+03  0.24859611816E+04  0.26001785020E+04  0.92229593735E+02 0.  0.
          2    1    3    3  502    0 -0.84012275913E+01  0.10159845851E+02 -0.64428048534E+01  0.14673541738E+02  0.00000000000E+00 0. -1.
         -1    1    3    3    0  502 -0.16571343971E+03  0.12083367541E+04 -0.16570833780E+03  0.12308525130E+04  0.00000000000E+00 0.  1.
         13    1    5    5    0    0  0.21510443655E+03 -0.21223286563E+03  0.62243349911E+03  0.69190763017E+03  0.00000000000E+00 0. -1.
        -13    1    5    5    0    0  0.24560414416E+03 -0.30606170878E+03  0.60860119883E+03  0.72414817850E+03  0.00000000000E+00 0.  1.
          4    1    6    6  503    0 -0.17612283140E+03 -0.38990605387E+03  0.15495165617E+04  0.16074972963E+04  0.00000000000E+00 0.  1.
         -4    1    6    6    0  503 -0.11047108201E+03 -0.31029597169E+03  0.93644461992E+03  0.99268120571E+03  0.00000000000E+00 0. -1.
<mgrwt>
<rscale>  0 0.38884699E+04</rscale>
<asrwt>0</asrwt>
<pdfrwt beam="1">  1        2 0.67743115E+00 0.38884699E+04</pdfrwt>
<pdfrwt beam="2">  1       -1 0.13207044E+00 0.38884699E+04</pdfrwt>
<totfact> 0.66630378E-02</totfact>
</mgrwt>
</event>
<event>
12    7  0.1741211E-007  0.2600451E+04  0.7818608E-02  0.8368048E-01
         -1   -1    0    0    0  501 -0.00000000000E+00  0.00000000000E+00  0.10755243717E+04  0.10755243717E+04  0.00000000000E+00 0.  1.
          2   -1    0    0  501    0  0.00000000000E+00 -0.00000000000E+00 -0.15718719896E+04  0.15718719896E+04  0.00000000000E+00 0. -1.
         24    2    1    2    0    0  0.23437363316E+03 -0.35695659490E+03 -0.12870541932E+04  0.13585538045E+04  0.82528376903E+02 0.  0.
        254    2    1    2    0    0 -0.23437363316E+03  0.35695659490E+03  0.79070657521E+03  0.12888425568E+04  0.92387728494E+03 0.  0.
         23    2    4    4    0    0 -0.36833556161E+03 -0.20657874375E+03  0.34019467012E+03  0.54959627473E+03  0.89318465641E+02 0.  0.
         23    2    4    4    0    0  0.13396192846E+03  0.56353533865E+03  0.45051190510E+03  0.73924628209E+03  0.89477442784E+02 0.  0.
          4    1    3    3  502    0  0.18261974699E+03 -0.20582561265E+03 -0.81997426269E+03  0.86491152513E+03  0.00000000000E+00 0. -1.
         -3    1    3    3    0  502  0.51753886161E+02 -0.15113098225E+03 -0.46707993049E+03  0.49364227938E+03  0.00000000000E+00 0.  1.
         13    1    5    5    0    0 -0.13337101724E+03 -0.87718268602E+02  0.76767612154E+02  0.17713155891E+03  0.00000000000E+00 0.  1.
        -13    1    5    5    0    0 -0.23496454438E+03 -0.11886047515E+03  0.26342705796E+03  0.37246471582E+03  0.00000000000E+00 0. -1.
          3    1    6    6  503    0  0.42364139177E+02  0.28966391388E+03  0.18064689399E+03  0.34399593544E+03  0.00000000000E+00 0. -1.
         -3    1    6    6    0  503  0.91597789282E+02  0.27387142477E+03  0.26986501110E+03  0.39525034665E+03  0.00000000000E+00 0.  1.
<mgrwt>
<rscale>  0 0.26004512E+04</rscale>
<asrwt>0</asrwt>
<pdfrwt beam="1">  1        2 0.24182646E+00 0.26004512E+04</pdfrwt>
<pdfrwt beam="2">  1       -1 0.16546529E+00 0.26004512E+04</pdfrwt>
<totfact> 0.30968062E+00</totfact>
</mgrwt>
</event>
<event>
12    7  0.1741211E-007  0.1890607E+04  0.7818608E-02  0.8659546E-01
         -1   -1    0    0    0  501 -0.00000000000E+00  0.00000000000E+00  0.89012019985E+03  0.89012019985E+03  0.00000000000E+00 0.  1.
          2   -1    0    0  501    0  0.00000000000E+00 -0.00000000000E+00 -0.10039076553E+04  0.10039076553E+04  0.00000000000E+00 0. -1.
         24    2    1    2    0    0 -0.19356342593E+03 -0.66066362103E+03  0.20515796947E+03  0.72321443509E+03  0.83702489093E+02 0.  0.
        254    2    1    2    0    0  0.19356342593E+03  0.66066362103E+03 -0.31894542497E+03  0.11708134201E+04  0.89170323571E+03 0.  0.
         23    2    4    4    0    0  0.34759148199E+03  0.68123870464E+03  0.37472841943E+02  0.77170817716E+03  0.96037939140E+02 0.  0.
         23    2    4    4    0    0 -0.15402805606E+03 -0.20575083611E+02 -0.35641826691E+03  0.39910524294E+03  0.90016875286E+02 0.  0.
          4    1    3    3  502    0 -0.14271704171E+02 -0.19989040368E+02  0.22493041924E+02  0.33304357219E+02  0.00000000000E+00 0. -1.
         -3    1    3    3    0  502 -0.17929172176E+03 -0.64067458066E+03  0.18266492754E+03  0.68991007787E+03  0.00000000000E+00 0.  1.
         13    1    5    5    0    0  0.10066854706E+03  0.12383003260E+03  0.27730920803E+02  0.16197850878E+03  0.00000000000E+00 0.  1.
        -13    1    5    5    0    0  0.24692293494E+03  0.55740867205E+03  0.97419211398E+01  0.60972966838E+03  0.00000000000E+00 0. -1.
          1    1    6    6  503    0 -0.37810574850E+02 -0.43104478835E+02 -0.15767243144E+03  0.16777434638E+03  0.00000000000E+00 0. -1.
         -1    1    6    6    0  503 -0.11621748121E+03  0.22529395224E+02 -0.19874583547E+03  0.23133089657E+03  0.00000000000E+00 0.  1.
<mgrwt>
<rscale>  0 0.18906068E+04</rscale>
<asrwt>0</asrwt>
<pdfrwt beam="1">  1        2 0.15444733E+00 0.18906068E+04</pdfrwt>
<pdfrwt beam="2">  1       -1 0.13694157E+00 0.18906068E+04</pdfrwt>
<totfact> 0.11890019E+01</totfact>
</mgrwt>
</event>
<event>
12    7  0.1741211E-007  0.2257962E+04  0.7818608E-02  0.8494683E-01
          2   -1    0    0  501    0  0.00000000000E+00  0.00000000000E+00  0.17088135588E+04  0.17088135588E+04  0.00000000000E+00 0. -1.
         -1   -1    0    0    0  501 -0.00000000000E+00 -0.00000000000E+00 -0.74589676363E+03  0.74589676363E+03  0.00000000000E+00 0.  1.
         24    2    1    2    0    0 -0.29783789313E+03 -0.41794406309E+03 -0.46085013051E+03  0.69436951481E+03  0.79884478123E+02 0.  0.
        254    2    1    2    0    0  0.29783789313E+03  0.41794406309E+03  0.14237669257E+04  0.17603408076E+04  0.89905664442E+03 0.  0.
         23    2    4    4    0    0  0.12498414512E+02  0.46995039198E+03  0.13699193501E+04  0.14515810905E+04  0.96948724220E+02 0.  0.
         23    2    4    4    0    0  0.28533947862E+03 -0.52006328887E+02  0.53847575571E+02  0.30875971716E+03  0.91157694349E+02 0.  0.
          4    1    3    3  502    0 -0.11621374253E+03 -0.16256043729E+03 -0.23275236639E+03  0.30676569851E+03  0.00000000000E+00 0. -1.
         -3    1    3    3    0  502 -0.18162415060E+03 -0.25538362580E+03 -0.22809776412E+03  0.38760381629E+03  0.00000000000E+00 0.  1.
         13    1    5    5    0    0  0.53817358510E+02  0.21003719185E+03  0.61423069579E+03  0.65137644852E+03  0.00000000000E+00 0. -1.
        -13    1    5    5    0    0 -0.41318943997E+02  0.25991320013E+03  0.75568865430E+03  0.80020464193E+03  0.00000000000E+00 0.  1.
          4    1    6    6  503    0  0.27391842364E+03 -0.67834123834E+02  0.59586747375E+02  0.28841524167E+03  0.00000000000E+00 0.  1.
         -4    1    6    6    0  503  0.11421054982E+02  0.15827794947E+02 -0.57391718034E+01  0.20344475485E+02  0.00000000000E+00 0. -1.
<mgrwt>
<rscale>  0 0.22579624E+04</rscale>
<asrwt>0</asrwt>
<pdfrwt beam="1">  1        2 0.26289439E+00 0.22579624E+04</pdfrwt>
<pdfrwt beam="2">  1       -1 0.11475335E+00 0.22579624E+04</pdfrwt>
<totfact> 0.69303557E+00</totfact>
</mgrwt>
</event>
<event>
12    7  0.1741211E-007  0.1983541E+04  0.7818608E-02  0.8614354E-01
          2   -1    0    0  501    0  0.00000000000E+00  0.00000000000E+00  0.61345805137E+03  0.61345805137E+03  0.00000000000E+00 0. -1.
         -1   -1    0    0    0  501 -0.00000000000E+00 -0.00000000000E+00 -0.16033845270E+04  0.16033845270E+04  0.00000000000E+00 0.  1.
         24    2    1    2    0    0  0.72203204552E+02  0.48634016527E+03 -0.10733220020E+04  0.11832987510E+04  0.80223157444E+02 0.  0.
        254    2    1    2    0    0 -0.72203204552E+02 -0.48634016527E+03  0.83395526390E+02  0.10335438274E+04  0.90527231823E+03 0.  0.
         23    2    4    4    0    0 -0.67436894309E+02  0.17666626325E+03 -0.21569575435E+03  0.30112216480E+03  0.91603473731E+02 0.  0.
         23    2    4    4    0    0 -0.47663102424E+01 -0.66300642853E+03  0.29909128075E+03  0.73242166257E+03  0.85939837098E+02 0.  0.
          2    1    3    3  502    0  0.14093787167E+02  0.16168034463E+03 -0.44503095249E+03  0.47370002887E+03  0.00000000000E+00 0. -1.
         -1    1    3    3    0  502  0.58109417385E+02  0.32465982064E+03 -0.62829104952E+03  0.70959872212E+03  0.00000000000E+00 0.  1.
         13    1    5    5    0    0 -0.42096891808E+02  0.17781004991E+03 -0.20166385054E+03  0.27213392064E+03  0.00000000000E+00 0. -1.
        -13    1    5    5    0    0 -0.25340002501E+02 -0.11437866561E+01 -0.14031903819E+02  0.28988244160E+02  0.00000000000E+00 0.  1.
          2    1    6    6  503    0  0.24071559812E+02 -0.58319371122E+03  0.25938313761E+03  0.63872839053E+03  0.00000000000E+00 0. -1.
         -2    1    6    6    0  503 -0.28837870054E+02 -0.79812717309E+02  0.39708143140E+02  0.93693272038E+02  0.00000000000E+00 0.  1.
<mgrwt>
<rscale>  0 0.19835414E+04</rscale>
<asrwt>0</asrwt>
<pdfrwt beam="1">  1        2 0.94378163E-01 0.19835414E+04</pdfrwt>
<pdfrwt beam="2">  1       -1 0.24667454E+00 0.19835414E+04</pdfrwt>
<totfact> 0.37592217E+00</totfact>
</mgrwt>
</event>
<event>
12    7  0.1741211E-007  0.1199014E+04  0.7818608E-02  0.9113720E-01
          2   -1    0    0  501    0  0.00000000000E+00  0.00000000000E+00  0.12579007328E+04  0.12579007328E+04  0.00000000000E+00 0. -1.
         -1   -1    0    0    0  501 -0.00000000000E+00 -0.00000000000E+00 -0.28572075940E+03  0.28572075940E+03  0.00000000000E+00 0.  1.
         24    2    1    2    0    0  0.56615830676E+02 -0.23936048622E+03  0.30531172641E+03  0.40047944364E+03  0.81668475259E+02 0.  0.
        254    2    1    2    0    0 -0.56615830676E+02  0.23936048622E+03  0.66686824696E+03  0.11431420485E+04  0.89529977643E+03 0.  0.
         23    2    4    4    0    0  0.52605289519E+02  0.10660865172E+03  0.85648053875E+03  0.86890039545E+03  0.85418164675E+02 0.  0.
         23    2    4    4    0    0 -0.10922112020E+03  0.13275183450E+03 -0.18961229179E+03  0.27424165308E+03  0.98505636530E+02 0.  0.
          2    1    3    3  502    0  0.60755251745E+01  0.56105249743E+01  0.16155913295E+02  0.18149477431E+02  0.00000000000E+00 0. -1.
         -1    1    3    3    0  502  0.50540305502E+02 -0.24497101119E+03  0.28915581311E+03  0.38232996621E+03  0.00000000000E+00 0.  1.
         13    1    5    5    0    0  0.59050869618E+02  0.40548142107E+02  0.58753266312E+03  0.59188325476E+03  0.00000000000E+00 0. -1.
        -13    1    5    5    0    0 -0.64455800990E+01  0.66060509615E+02  0.26894787562E+03  0.27701714069E+03  0.00000000000E+00 0.  1.
          2    1    6    6  503    0 -0.10563932126E+03  0.14121117971E+03 -0.14389169377E+03  0.22760729999E+03  0.00000000000E+00 0. -1.
         -2    1    6    6    0  503 -0.35817989312E+01 -0.84593452127E+01 -0.45720598022E+02  0.46634353094E+02  0.00000000000E+00 0.  1.
<mgrwt>
<rscale>  0 0.11990135E+04</rscale>
<asrwt>0</asrwt>
<pdfrwt beam="1">  1        2 0.19352319E+00 0.11990135E+04</pdfrwt>
<pdfrwt beam="2">  1       -1 0.43957040E-01 0.11990135E+04</pdfrwt>
<totfact> 0.10065893E+02</totfact>
</mgrwt>
</event>
<event>
12    7  0.1741211E-007  0.1300796E+04  0.7818608E-02  0.9028934E-01
          2   -1    0    0  501    0  0.00000000000E+00  0.00000000000E+00  0.74106562714E+03  0.74106562714E+03  0.00000000000E+00 0. -1.
         -1   -1    0    0    0  501 -0.00000000000E+00 -0.00000000000E+00 -0.57082306176E+03  0.57082306176E+03  0.00000000000E+00 0.  1.
         24    2    1    2    0    0  0.28655541635E+03 -0.15285604854E+03 -0.29461529535E+02  0.33656969434E+03  0.83259829531E+02 0.  0.
        254    2    1    2    0    0 -0.28655541635E+03  0.15285604854E+03  0.19970409491E+03  0.97531899455E+03  0.89771177857E+03 0.  0.
         23    2    4    4    0    0 -0.49682939546E+03  0.18549999608E+03 -0.14668114253E+03  0.55771525699E+03  0.91001393168E+02 0.  0.
         23    2    4    4    0    0  0.21027397911E+03 -0.32643947547E+02  0.34638523745E+03  0.41760373756E+03  0.95547764489E+02 0.  0.
          4    1    3    3  502    0  0.75883860587E+02 -0.66766107970E+02 -0.40099194482E+02  0.10873830452E+03  0.00000000000E+00 0. -1.
         -3    1    3    3    0  502  0.21067155576E+03 -0.86089940567E+02  0.10637664947E+02  0.22783138983E+03  0.00000000000E+00 0.  1.
         13    1    5    5    0    0 -0.48904217292E+03  0.16496085026E+03 -0.14081600853E+03  0.53497988492E+03  0.00000000000E+00 0.  1.
        -13    1    5    5    0    0 -0.77872225456E+01  0.20539145825E+02 -0.58651340024E+01  0.22735372068E+02  0.00000000000E+00 0. -1.
          4    1    6    6  503    0  0.24897310088E+02 -0.39350058991E+02  0.87534878126E+02  0.99149675141E+02  0.00000000000E+00 0. -1.
         -4    1    6    6    0  503  0.18537666903E+03  0.67061114442E+01  0.25885035932E+03  0.31845406242E+03  0.00000000000E+00 0.  1.
<mgrwt>
<rscale>  0 0.13007957E+04</rscale>
<asrwt>0</asrwt>
<pdfrwt beam="1">  1        2 0.11401010E+00 0.13007957E+04</pdfrwt>
<pdfrwt beam="2">  1       -1 0.87818933E-01 0.13007957E+04</pdfrwt>
<totfact> 0.54379991E+01</totfact>
</mgrwt>
</event>
<event>
12    7  0.1741211E-007  0.3980852E+04  0.7818608E-02  0.8008421E-01
         -1   -1    0    0    0  501 -0.00000000000E+00  0.00000000000E+00  0.16545652590E+04  0.16545652590E+04  0.00000000000E+00 0.  1.
          2   -1    0    0  501    0  0.00000000000E+00 -0.00000000000E+00 -0.23944626950E+04  0.23944626950E+04  0.00000000000E+00 0. -1.
         24    2    1    2    0    0  0.16449726859E+03  0.11955110776E+04  0.11259460378E+04  0.16525695433E+04  0.83219753106E+02 0.  0.
        254    2    1    2    0    0 -0.16449726859E+03 -0.11955110776E+04 -0.18658434738E+04  0.23964584106E+04  0.89740456720E+03 0.  0.
         23    2    4    4    0    0 -0.39474275131E+03 -0.38697004828E+03 -0.11826795571E+04  0.13086630004E+04  0.91105739660E+02 0.  0.
         23    2    4    4    0    0  0.23024548272E+03 -0.80854102927E+03 -0.68316391669E+03  0.10877954102E+04  0.99168236568E+02 0.  0.
          2    1    3    3  502    0  0.10449563559E+02  0.27601878963E+03  0.28773766753E+03  0.39885903640E+03  0.00000000000E+00 0. -1.
         -1    1    3    3    0  502  0.15404770503E+03  0.91949228793E+03  0.83820837031E+03  0.12537105069E+04  0.00000000000E+00 0.  1.
         13    1    5    5    0    0 -0.50523718254E+02 -0.18521888071E+02 -0.83310516664E+02  0.99178367756E+02  0.00000000000E+00 0.  1.
        -13    1    5    5    0    0 -0.34421903305E+03 -0.36844816021E+03 -0.10993690405E+04  0.12094846326E+04  0.00000000000E+00 0. -1.
          3    1    6    6  503    0  0.79618908942E+02 -0.14453497831E+03 -0.11702104933E+03  0.20229546857E+03  0.00000000000E+00 0. -1.
         -3    1    6    6    0  503  0.15062657378E+03 -0.66400605097E+03 -0.56614286736E+03  0.88549994168E+03  0.00000000000E+00 0.  1.
<mgrwt>
<rscale>  0 0.39808516E+04</rscale>
<asrwt>0</asrwt>
<pdfrwt beam="1">  1        2 0.36837887E+00 0.39808516E+04</pdfrwt>
<pdfrwt beam="2">  1       -1 0.25454850E+00 0.39808516E+04</pdfrwt>
<totfact> 0.23421371E-01</totfact>
</mgrwt>
</event>
<event>
12    7  0.1741211E-007  0.2762386E+04  0.7818608E-02  0.8315042E-01
         -1   -1    0    0    0  501 -0.00000000000E+00  0.00000000000E+00  0.93372384053E+03  0.93372384053E+03  0.00000000000E+00 0.  1.
          2   -1    0    0  501    0  0.00000000000E+00 -0.00000000000E+00 -0.20431029765E+04  0.20431029765E+04  0.00000000000E+00 0. -1.
         24    2    1    2    0    0 -0.33763694640E+03 -0.44017861946E+02  0.78196508542E+03  0.85663194221E+03  0.80078772812E+02 0.  0.
        254    2    1    2    0    0  0.33763694640E+03  0.44017861946E+02 -0.18913442213E+04  0.21201948748E+04  0.89560430085E+03 0.  0.
         23    2    4    4    0    0  0.27212896304E+03  0.20381911926E+03 -0.18914447589E+04  0.19238920592E+04  0.90559227726E+02 0.  0.
         23    2    4    4    0    0  0.65507983359E+02 -0.15980125732E+03  0.10053756276E+00  0.19630281554E+03  0.93311561754E+02 0.  0.
          4    1    3    3  502    0 -0.39200659548E+02  0.20245542129E+02  0.11279118860E+03  0.12111327719E+03  0.00000000000E+00 0. -1.
         -3    1    3    3    0  502 -0.29843628685E+03 -0.64263404075E+02  0.66917389682E+03  0.73551866502E+03  0.00000000000E+00 0.  1.
         13    1    5    5    0    0  0.11920696094E+03  0.14570169176E+03 -0.10088030402E+04  0.10262177431E+04  0.00000000000E+00 0.  1.
        -13    1    5    5    0    0  0.15292200210E+03  0.58117427506E+02 -0.88264171875E+03  0.89767431610E+03  0.00000000000E+00 0. -1.
          3    1    6    6  503    0  0.56823728384E+01  0.78143104661E+01 -0.14836216174E+02  0.17704974428E+02  0.00000000000E+00 0. -1.
         -3    1    6    6    0  503  0.59825610521E+02 -0.16761556778E+03  0.14936753737E+02  0.17859784111E+03  0.00000000000E+00 0.  1.
<mgrwt>
<rscale>  0 0.27623859E+04</rscale>
<asrwt>0</asrwt>
<pdfrwt beam="1">  1        2 0.31432353E+00 0.27623859E+04</pdfrwt>
<pdfrwt beam="2">  1       -1 0.14364982E+00 0.27623859E+04</pdfrwt>
<totfact> 0.24585391E+00</totfact>
</mgrwt>
</event>
<event>
12    7  0.1741211E-007  0.2352580E+04  0.7818608E-02  0.8457473E-01
         -1   -1    0    0    0  501 -0.00000000000E+00  0.00000000000E+00  0.30947861194E+03  0.30947861194E+03  0.00000000000E+00 0.  1.
          2   -1    0    0  501    0  0.00000000000E+00 -0.00000000000E+00 -0.44709316261E+04  0.44709316261E+04  0.00000000000E+00 0. -1.
         24    2    1    2    0    0 -0.13266450168E+03  0.65168253056E+03 -0.24662865336E+03  0.71377085719E+03  0.79706670192E+02 0.  0.
        254    2    1    2    0    0  0.13266450168E+03 -0.65168253056E+03 -0.39148243608E+04  0.40666393808E+04  0.87716366047E+03 0.  0.
         23    2    4    4    0    0  0.46439539012E+03 -0.57954928743E+03 -0.25845983771E+04  0.26906969402E+04  0.90337136284E+02 0.  0.
         23    2    4    4    0    0 -0.33173088844E+03 -0.72133243133E+02 -0.13302259837E+04  0.13759424406E+04  0.92020895044E+02 0.  0.
          2    1    3    3  502    0 -0.67388875669E+02  0.21745481197E+03 -0.52312907526E+02  0.23359044524E+03  0.00000000000E+00 0. -1.
         -1    1    3    3    0  502 -0.65275626006E+02  0.43422771859E+03 -0.19431574583E+03  0.48018041195E+03  0.00000000000E+00 0.  1.
         13    1    5    5    0    0  0.45484046027E+03 -0.55944524689E+03 -0.24367607678E+04  0.25411930010E+04  0.00000000000E+00 0.  1.
        -13    1    5    5    0    0  0.95549298442E+01 -0.20104040537E+02 -0.14783760925E+03  0.14950393921E+03  0.00000000000E+00 0. -1.
          1    1    6    6  503    0 -0.28935354977E+02  0.14972707639E+02 -0.19935402660E+03  0.20199867491E+03  0.00000000000E+00 0. -1.
         -1    1    6    6    0  503 -0.30279553347E+03 -0.87105950772E+02 -0.11308719571E+04  0.11739437657E+04  0.00000000000E+00 0.  1.
<mgrwt>
<rscale>  0 0.23525796E+04</rscale>
<asrwt>0</asrwt>
<pdfrwt beam="1">  1        2 0.68783562E+00 0.23525796E+04</pdfrwt>
<pdfrwt beam="2">  1       -1 0.47612095E-01 0.23525796E+04</pdfrwt>
<totfact> 0.59917257E-01</totfact>
</mgrwt>
</event>
<event>
12    7  0.1741211E-007  0.1571264E+04  0.7818608E-02  0.8838399E-01
         -1   -1    0    0    0  501 -0.00000000000E+00  0.00000000000E+00  0.30731289710E+03  0.30731289710E+03  0.00000000000E+00 0.  1.
          2   -1    0    0  501    0  0.00000000000E+00 -0.00000000000E+00 -0.20084338501E+04  0.20084338501E+04  0.00000000000E+00 0. -1.
         24    2    1    2    0    0 -0.10202928193E+02  0.29874734284E+03  0.54602766257E+02  0.31399256793E+03  0.79093590362E+02 0.  0.
        254    2    1    2    0    0  0.10202928193E+02 -0.29874734284E+03 -0.17557237193E+04  0.20017541793E+04  0.91383802795E+03 0.  0.
         23    2    4    4    0    0  0.37339707963E+03  0.10949788205E+03 -0.61424714681E+03  0.73272093388E+03  0.90361741488E+02 0.  0.
         23    2    4    4    0    0 -0.36319415144E+03 -0.40824522489E+03 -0.11414765725E+04  0.12690332454E+04  0.94352833689E+02 0.  0.
          2    1    3    3  502    0  0.23095138349E+02  0.17522319577E+03  0.50896189292E+01  0.17681192826E+03  0.00000000000E+00 0. -1.
         -1    1    3    3    0  502 -0.33298066542E+02  0.12352414706E+03  0.49513147328E+02  0.13718063967E+03  0.00000000000E+00 0.  1.
         13    1    5    5    0    0  0.23635432625E+03  0.10998488666E+03 -0.43425247345E+03  0.50649309326E+03  0.00000000000E+00 0.  1.
        -13    1    5    5    0    0  0.13704275338E+03 -0.48700461184E+00 -0.17999467337E+03  0.22622784061E+03  0.00000000000E+00 0. -1.
          2    1    6    6  503    0 -0.57832771802E+02 -0.25975823342E+02 -0.16701152035E+03  0.17863991945E+03  0.00000000000E+00 0. -1.
         -2    1    6    6    0  503 -0.30536137964E+03 -0.38226940155E+03 -0.97446505213E+03  0.10903933260E+04  0.00000000000E+00 0.  1.
<mgrwt>
<rscale>  0 0.15712640E+04</rscale>
<asrwt>0</asrwt>
<pdfrwt beam="1">  1        2 0.30898982E+00 0.15712640E+04</pdfrwt>
<pdfrwt beam="2">  1       -1 0.47278908E-01 0.15712640E+04</pdfrwt>
<totfact> 0.32301588E+01</totfact>
</mgrwt>
</event>
<event>
12    7  0.1741211E-007  0.2239688E+04  0.7818608E-02  0.8502088E-01
          2   -1    0    0  501    0  0.00000000000E+00  0.00000000000E+00  0.86217411993E+03  0.86217411993E+03  0.00000000000E+00 0. -1.
         -1   -1    0    0    0  501 -0.00000000000E+00 -0.00000000000E+00 -0.14545217041E+04  0.14545217041E+04  0.00000000000E+00 0.  1.
         24    2    1    2    0    0 -0.92930715463E+03  0.12442991501E+03 -0.20136781302E+03  0.96200266707E+03  0.76194120151E+02 0.  0.
        254    2    1    2    0    0  0.92930715463E+03 -0.12442991501E+03 -0.39097977113E+03  0.13546931569E+04  0.89623310395E+03 0.  0.
         23    2    4    4    0    0  0.84990883083E+03 -0.41267215171E+03 -0.15316887727E+03  0.96161180204E+03  0.92699661957E+02 0.  0.
         23    2    4    4    0    0  0.79398323794E+02  0.28824223671E+03 -0.23781089386E+03  0.39308135489E+03  0.92581042801E+02 0.  0.
          2    1    3    3  502    0 -0.83271348399E+03  0.11997346316E+03 -0.15796918730E+03  0.85601380971E+03  0.00000000000E+00 0. -1.
         -3    1    3    3    0  502 -0.96593670634E+02  0.44564518446E+01 -0.43398625721E+02  0.10598885736E+03  0.00000000000E+00 0.  1.
         13    1    5    5    0    0  0.40969589026E+02 -0.43475116207E+02 -0.16400534255E+02  0.61948127316E+02  0.00000000000E+00 0. -1.
        -13    1    5    5    0    0  0.80893924181E+03 -0.36919703551E+03 -0.13676834302E+03  0.89966367472E+03  0.00000000000E+00 0.  1.
          4    1    6    6  503    0  0.91372336426E+01 -0.50641050077E+01 -0.14184550860E+02  0.17616346990E+02  0.00000000000E+00 0. -1.
         -4    1    6    6    0  503  0.70261090151E+02  0.29330634171E+03 -0.22362634300E+03  0.37546500790E+03  0.00000000000E+00 0.  1.
<mgrwt>
<rscale>  0 0.22396883E+04</rscale>
<asrwt>0</asrwt>
<pdfrwt beam="1">  1        2 0.13264217E+00 0.22396883E+04</pdfrwt>
<pdfrwt beam="2">  1       -1 0.22377257E+00 0.22396883E+04</pdfrwt>
<totfact> 0.33587851E+00</totfact>
</mgrwt>
</event>
<event>
12    7  0.1741211E-007  0.1416984E+04  0.7818608E-02  0.8941615E-01
          2   -1    0    0  501    0  0.00000000000E+00  0.00000000000E+00  0.16347158767E+04  0.16347158767E+04  0.00000000000E+00 0. -1.
         -1   -1    0    0    0  501 -0.00000000000E+00 -0.00000000000E+00 -0.30706322054E+03  0.30706322054E+03  0.00000000000E+00 0.  1.
         24    2    1    2    0    0  0.34668110953E+03  0.18421938919E+02  0.80038636545E+02  0.36538258505E+03  0.81062263589E+02 0.  0.
        254    2    1    2    0    0 -0.34668110953E+03 -0.18421938919E+02  0.12476140196E+04  0.15763965122E+04  0.89886487423E+03 0.  0.
         23    2    4    4    0    0  0.24243020241E+03  0.20159030575E+03  0.39680856167E+03  0.51433362765E+03  0.87584196665E+02 0.  0.
         23    2    4    4    0    0 -0.58911131194E+03 -0.22001224467E+03  0.85080545793E+03  0.10620628845E+04  0.93006009274E+02 0.  0.
          2    1    3    3  502    0  0.42125853836E+02  0.24154880632E+02 -0.58125806838E+01  0.48906358625E+02  0.00000000000E+00 0. -1.
         -3    1    3    3    0  502  0.30455525569E+03 -0.57329417127E+01  0.85851217229E+02  0.31647622642E+03  0.00000000000E+00 0.  1.
         13    1    5    5    0    0  0.12186728715E+02  0.28823830420E+02  0.11428317378E+02  0.33315701928E+02  0.00000000000E+00 0. -1.
        -13    1    5    5    0    0  0.23024347370E+03  0.17276647533E+03  0.38538024429E+03  0.48101792572E+03  0.00000000000E+00 0.  1.
          2    1    6    6  503    0 -0.19925630624E+03 -0.62718041371E+02  0.35623401948E+03  0.41296404798E+03  0.00000000000E+00 0. -1.
         -2    1    6    6    0  503 -0.38985500570E+03 -0.15729420330E+03  0.49457143845E+03  0.64909883654E+03  0.00000000000E+00 0.  1.
<mgrwt>
<rscale>  0 0.14169843E+04</rscale>
<asrwt>0</asrwt>
<pdfrwt beam="1">  1        2 0.25149475E+00 0.14169843E+04</pdfrwt>
<pdfrwt beam="2">  1       -1 0.47240496E-01 0.14169843E+04</pdfrwt>
<totfact> 0.52794402E+01</totfact>
</mgrwt>
</event>
<event>
12    7  0.1796256E-007  0.2227406E+04  0.7818608E-02  0.8507107E-01
          2   -1    0    0  501    0  0.00000000000E+00  0.00000000000E+00  0.18338295639E+04  0.18338295639E+04  0.00000000000E+00 0. -1.
         -1   -1    0    0    0  501 -0.00000000000E+00 -0.00000000000E+00 -0.67636277149E+03  0.67636277149E+03  0.00000000000E+00 0.  1.
         24    2    1    2    0    0 -0.26019672639E+03  0.13280393839E+03  0.14758447465E+04  0.15065868664E+04  0.79668361632E+02 0.  0.
        254    2    1    2    0    0  0.26019672639E+03 -0.13280393839E+03 -0.31837795409E+03  0.10036054690E+04  0.90582569692E+03 0.  0.
         23    2    4    4    0    0  0.22389922153E+03  0.13271515617E+03  0.24745449813E+03  0.37106823623E+03  0.93347379251E+02 0.  0.
         23    2    4    4    0    0  0.36297504852E+02 -0.26551909456E+03 -0.56583245222E+03  0.63253723273E+03  0.90105984094E+02 0.  0.
          2    1    3    3  502    0 -0.24950399709E+03  0.13849448522E+03  0.14527136650E+04  0.14804762610E+04  0.00000000000E+00 0. -1.
         -1    1    3    3    0  502 -0.10692729299E+02 -0.56905468240E+01  0.23131081540E+02  0.26110605436E+02  0.00000000000E+00 0.  1.
         13    1    5    5    0    0  0.14236684580E+03  0.10609467046E+03  0.10942630867E+03  0.20856297589E+03  0.00000000000E+00 0. -1.
        -13    1    5    5    0    0  0.81532375731E+02  0.26620485710E+02  0.13802818946E+03  0.16250526034E+03  0.00000000000E+00 0.  1.
          1    1    6    6  503    0 -0.22963009267E+02 -0.15382955868E+03 -0.28890160514E+03  0.32810816871E+03  0.00000000000E+00 0. -1.
         -1    1    6    6    0  503  0.59260514119E+02 -0.11168953588E+03 -0.27693084708E+03  0.30442906402E+03  0.00000000000E+00 0.  1.
<mgrwt>
<rscale>  0 0.22274057E+04</rscale>
<asrwt>0</asrwt>
<pdfrwt beam="1">  1        2 0.28212762E+00 0.22274057E+04</pdfrwt>
<pdfrwt beam="2">  1       -1 0.10405581E+00 0.22274057E+04</pdfrwt>
<totfact> 0.74595313E+00</totfact>
</mgrwt>
</event>
<event>
12    7  0.1741211E-007  0.1131840E+04  0.7818608E-02  0.9174702E-01
         -1   -1    0    0    0  501 -0.00000000000E+00  0.00000000000E+00  0.14589528262E+03  0.14589528262E+03  0.00000000000E+00 0.  1.
          2   -1    0    0  501    0  0.00000000000E+00 -0.00000000000E+00 -0.21951728937E+04  0.21951728937E+04  0.00000000000E+00 0. -1.
         24    2    1    2    0    0  0.59037337663E+02 -0.67204764193E+02 -0.14006179492E+02  0.12051222995E+03  0.79530729505E+02 0.  0.
        254    2    1    2    0    0 -0.59037337663E+02  0.67204764193E+02 -0.20352714315E+04  0.22205559463E+04  0.88348006378E+03 0.  0.
         23    2    4    4    0    0  0.75213755121E+02  0.28982729249E+03 -0.18761586029E+04  0.19022956021E+04  0.95396467702E+02 0.  0.
         23    2    4    4    0    0 -0.13425109278E+03 -0.22262252830E+03 -0.15911282865E+03  0.31826034424E+03  0.91589346837E+02 0.  0.
          4    1    3    3  502    0 -0.66643328256E+01 -0.24615980024E+02 -0.31253180166E+02  0.40337588861E+02  0.00000000000E+00 0. -1.
         -3    1    3    3    0  502  0.65701670489E+02 -0.42588784168E+02  0.17247000675E+02  0.80174641092E+02  0.00000000000E+00 0.  1.
         13    1    5    5    0    0  0.15557770639E+01 -0.44138005965E+01 -0.55727528494E+01  0.72772008560E+01  0.00000000000E+00 0. -1.
        -13    1    5    5    0    0  0.73657978057E+02  0.29424109309E+03 -0.18705858500E+04  0.18950184012E+04  0.00000000000E+00 0.  1.
          3    1    6    6  503    0 -0.10753678432E+01 -0.63413317713E+02 -0.63445886770E+02  0.89709452275E+02  0.00000000000E+00 0. -1.
         -3    1    6    6    0  503 -0.13317572494E+03 -0.15920921058E+03 -0.95666941882E+02  0.22855089196E+03  0.00000000000E+00 0.  1.
<mgrwt>
<rscale>  0 0.11318399E+04</rscale>
<asrwt>0</asrwt>
<pdfrwt beam="1">  1        2 0.33771886E+00 0.11318399E+04</pdfrwt>
<pdfrwt beam="2">  1       -1 0.22445431E-01 0.11318399E+04</pdfrwt>
<totfact> 0.99142646E+01</totfact>
</mgrwt>
</event>
<event>
12    7  0.1741211E-007  0.1502998E+04  0.7818608E-02  0.8882462E-01
         -1   -1    0    0    0  501 -0.00000000000E+00  0.00000000000E+00  0.32744379456E+03  0.32744379456E+03  0.00000000000E+00 0.  1.
          2   -1    0    0  501    0  0.00000000000E+00 -0.00000000000E+00 -0.17247265063E+04  0.17247265063E+04  0.00000000000E+00 0. -1.
         24    2    1    2    0    0  0.24891158495E+03 -0.57899345764E+02  0.99657549497E+02  0.28557974858E+03  0.79466057327E+02 0.  0.
        254    2    1    2    0    0 -0.24891158495E+03  0.57899345764E+02 -0.14969402612E+04  0.17665905523E+04  0.90260884237E+03 0.  0.
         23    2    4    4    0    0 -0.73519882151E+02  0.11379764776E+02  0.97737748828E+02  0.15886165674E+03  0.10074565160E+03 0.  0.
         23    2    4    4    0    0 -0.17539170280E+03  0.46519580987E+02 -0.15946780101E+04  0.16077288955E+04  0.94169660519E+02 0.  0.
          4    1    3    3  502    0  0.11148660131E+03  0.84402633290E+01  0.20493215699E+02  0.11366825505E+03  0.00000000000E+00 0. -1.
         -3    1    3    3    0  502  0.13742498364E+03 -0.66339609093E+02  0.79164333797E+02  0.17191149354E+03  0.00000000000E+00 0.  1.
         13    1    5    5    0    0 -0.10771266596E+02  0.91073253312E+01 -0.20559679129E+02  0.24933190021E+02  0.00000000000E+00 0. -1.
        -13    1    5    5    0    0 -0.62748615556E+02  0.22724394451E+01  0.11829742796E+03  0.13392846671E+03  0.00000000000E+00 0.  1.
          3    1    6    6  503    0 -0.37667422584E+02  0.53932923224E+02 -0.58041754190E+03  0.58413364728E+03  0.00000000000E+00 0. -1.
         -3    1    6    6    0  503 -0.13772428021E+03 -0.74133422363E+01 -0.10142604682E+04  0.10235952483E+04  0.00000000000E+00 0.  1.
<mgrwt>
<rscale>  0 0.15029983E+04</rscale>
<asrwt>0</asrwt>
<pdfrwt beam="1">  1        2 0.26534254E+00 0.15029983E+04</pdfrwt>
<pdfrwt beam="2">  1       -1 0.50375968E-01 0.15029983E+04</pdfrwt>
<totfact> 0.41370629E+01</totfact>
</mgrwt>
</event>
<event>
12    7  0.1741211E-007  0.1314520E+04  0.7818608E-02  0.9018129E-01
          2   -1    0    0  501    0  0.00000000000E+00  0.00000000000E+00  0.89755643115E+03  0.89755643115E+03  0.00000000000E+00 0. -1.
         -1   -1    0    0    0  501 -0.00000000000E+00 -0.00000000000E+00 -0.48129624776E+03  0.48129624776E+03  0.00000000000E+00 0.  1.
         24    2    1    2    0    0 -0.98199149600E+02 -0.18013037646E+03 -0.20119634435E+03  0.29721434541E+03  0.75936635648E+02 0.  0.
        254    2    1    2    0    0  0.98199149600E+02  0.18013037646E+03  0.61745652774E+03  0.10816383335E+04  0.86405954386E+03 0.  0.
         23    2    4    4    0    0 -0.49584194744E+01 -0.21182440108E+03 -0.10136179368E+03  0.25159327635E+03  0.90170952460E+02 0.  0.
         23    2    4    4    0    0  0.10315756907E+03  0.39195477753E+03  0.71881832142E+03  0.83004505715E+03  0.89470587366E+02 0.  0.
          2    1    3    3  502    0 -0.35236166992E+02 -0.72712518130E+02 -0.31464326798E+02  0.86710446994E+02  0.00000000000E+00 0. -1.
         -1    1    3    3    0  502 -0.62962982608E+02 -0.10741785833E+03 -0.16973201755E+03  0.21050389841E+03  0.00000000000E+00 0.  1.
         13    1    5    5    0    0  0.18265755371E+02 -0.16323065152E+03 -0.10910007304E+03  0.19718191943E+03  0.00000000000E+00 0.  1.
        -13    1    5    5    0    0 -0.23224174846E+02 -0.48593749559E+02  0.77382793557E+01  0.54411356911E+02  0.00000000000E+00 0. -1.
          2    1    6    6  503    0 -0.82707082550E+01  0.24433188772E+02  0.19954848913E+02  0.32612594557E+02  0.00000000000E+00 0. -1.
         -2    1    6    6    0  503  0.11142827733E+03  0.36752158876E+03  0.69886347251E+03  0.79743246260E+03  0.00000000000E+00 0.  1.
<mgrwt>
<rscale>  0 0.13145197E+04</rscale>
<asrwt>0</asrwt>
<pdfrwt beam="1">  1        2 0.13808560E+00 0.13145197E+04</pdfrwt>
<pdfrwt beam="2">  1       -1 0.74045577E-01 0.13145197E+04</pdfrwt>
<totfact> 0.60422376E+01</totfact>
</mgrwt>
</event>
<event>
12    7  0.1741211E-007  0.1380067E+04  0.7818608E-02  0.8968375E-01
         -1   -1    0    0    0  501 -0.00000000000E+00  0.00000000000E+00  0.15212347643E+03  0.15212347643E+03  0.00000000000E+00 0.  1.
          2   -1    0    0  501    0  0.00000000000E+00 -0.00000000000E+00 -0.31299995852E+04  0.31299995852E+04  0.00000000000E+00 0. -1.
         24    2    1    2    0    0 -0.10887465412E+03 -0.32892172563E+03 -0.46334256855E+03  0.58382234749E+03  0.78224073696E+02 0.  0.
        254    2    1    2    0    0  0.10887465412E+03  0.32892172563E+03 -0.25145335403E+04  0.26983007142E+04  0.91537130559E+03 0.  0.
         23    2    4    4    0    0  0.26768963065E+02  0.61431045043E+03 -0.12481857015E+04  0.13944378820E+04  0.91627258818E+02 0.  0.
         23    2    4    4    0    0  0.82105691055E+02 -0.28538872481E+03 -0.12663478388E+04  0.13038628322E+04  0.90737905528E+02 0.  0.
          2    1    3    3  502    0  0.12122464935E+02 -0.21508083885E+02 -0.36475614831E+02  0.44045684304E+02  0.00000000000E+00 0. -1.
         -1    1    3    3    0  502 -0.12099711906E+03 -0.30741364174E+03 -0.42686695372E+03  0.53977666319E+03  0.00000000000E+00 0.  1.
         13    1    5    5    0    0  0.42334107280E+02  0.58648497873E+03 -0.11571469887E+04  0.12979776425E+04  0.00000000000E+00 0. -1.
        -13    1    5    5    0    0 -0.15565144215E+02  0.27825471708E+02 -0.91038712727E+02  0.96460239504E+02  0.00000000000E+00 0.  1.
          1    1    6    6  503    0  0.58415164649E+02 -0.24893918390E+03 -0.92265446304E+03  0.95743109773E+03  0.00000000000E+00 0. -1.
         -1    1    6    6    0  503  0.23690526407E+02 -0.36449540903E+02 -0.34369337578E+03  0.34643173444E+03  0.00000000000E+00 0.  1.
<mgrwt>
<rscale>  0 0.13800673E+04</rscale>
<asrwt>0</asrwt>
<pdfrwt beam="1">  1        2 0.48153842E+00 0.13800673E+04</pdfrwt>
<pdfrwt beam="2">  1       -1 0.23403611E-01 0.13800673E+04</pdfrwt>
<totfact> 0.25348818E+01</totfact>
</mgrwt>
</event>
<event>
12    7  0.1741211E-007  0.1083073E+04  0.7818608E-02  0.9221849E-01
         -1   -1    0    0    0  501 -0.00000000000E+00  0.00000000000E+00  0.92909222872E+02  0.92909222872E+02  0.00000000000E+00 0.  1.
          2   -1    0    0  501    0  0.00000000000E+00 -0.00000000000E+00 -0.31564344008E+04  0.31564344008E+04  0.00000000000E+00 0. -1.
         24    2    1    2    0    0  0.46224808723E+02  0.25528901337E+02 -0.10058263114E+04  0.10102147525E+04  0.77838420993E+02 0.  0.
        254    2    1    2    0    0 -0.46224808723E+02 -0.25528901337E+02 -0.20576988665E+04  0.22391288712E+04  0.88135408238E+03 0.  0.
         23    2    4    4    0    0 -0.41720024526E+03 -0.69069059961E+02 -0.15038851599E+04  0.15650189555E+04  0.93739944700E+02 0.  0.
         23    2    4    4    0    0  0.37097543654E+03  0.43540158625E+02 -0.55381370667E+03  0.67410991567E+03  0.90531965554E+02 0.  0.
          2    1    3    3  502    0  0.87764890188E+01  0.33357630253E+02 -0.80725214061E+03  0.80798872317E+03  0.00000000000E+00 0. -1.
         -1    1    3    3    0  502  0.37448319704E+02 -0.78287289165E+01 -0.19857417079E+03  0.20222602936E+03  0.00000000000E+00 0.  1.
         13    1    5    5    0    0 -0.12948725653E+03 -0.28201052119E+02 -0.32806619494E+03  0.35382153299E+03  0.00000000000E+00 0. -1.
        -13    1    5    5    0    0 -0.28771298873E+03 -0.40868007843E+02 -0.11758189649E+04  0.12111974225E+04  0.00000000000E+00 0.  1.
          4    1    6    6  503    0  0.36147823836E+03  0.58763972116E+02 -0.52349074812E+03  0.63887579747E+03  0.00000000000E+00 0.  1.
         -4    1    6    6    0  503  0.94971981823E+01 -0.15223813491E+02 -0.30322958548E+02  0.35234118204E+02  0.00000000000E+00 0. -1.
<mgrwt>
<rscale>  0 0.10830732E+04</rscale>
<asrwt>0</asrwt>
<pdfrwt beam="1">  1        2 0.48560534E+00 0.10830732E+04</pdfrwt>
<pdfrwt beam="2">  1       -1 0.14293725E-01 0.10830732E+04</pdfrwt>
<totfact> 0.57087400E+01</totfact>
</mgrwt>
</event>
<event>
12    7  0.1741211E-007  0.2284241E+04  0.7818608E-02  0.8484161E-01
          2   -1    0    0  501    0  0.00000000000E+00  0.00000000000E+00  0.15079792021E+04  0.15079792021E+04  0.00000000000E+00 0. -1.
         -1   -1    0    0    0  501 -0.00000000000E+00 -0.00000000000E+00 -0.86502502009E+03  0.86502502009E+03  0.00000000000E+00 0.  1.
         24    2    1    2    0    0  0.60275427798E+02  0.10251403295E+03 -0.72281660505E+03  0.73691237690E+03  0.80210676019E+02 0.  0.
        254    2    1    2    0    0 -0.60275427798E+02 -0.10251403295E+03  0.13657707870E+04  0.16360918453E+04  0.89293024883E+03 0.  0.
         23    2    4    4    0    0 -0.16394838833E+03  0.15264779052E+03  0.13203231644E+04  0.13422944494E+04  0.91217917938E+02 0.  0.
         23    2    4    4    0    0  0.10367296053E+03 -0.25516182346E+03  0.45447622661E+02  0.29379739586E+03  0.91628513626E+02 0.  0.
          4    1    3    3  502    0  0.11693815613E+02  0.81808700949E+02 -0.31375044758E+03  0.32445146360E+03  0.00000000000E+00 0. -1.
         -3    1    3    3    0  502  0.48581612185E+02  0.20705331998E+02 -0.40906615747E+03  0.41246091330E+03  0.00000000000E+00 0.  1.
         13    1    5    5    0    0 -0.40486890259E+01  0.48360405718E+02  0.19864549357E+03  0.20448753713E+03  0.00000000000E+00 0. -1.
        -13    1    5    5    0    0 -0.15989969930E+03  0.10428738480E+03  0.11216776708E+04  0.11378069123E+04  0.00000000000E+00 0.  1.
          1    1    6    6  503    0  0.10493845153E+02  0.61373799015E+00 -0.11610750176E+02  0.15662278891E+02  0.00000000000E+00 0. -1.
         -1    1    6    6    0  503  0.93179115375E+02 -0.25577556145E+03  0.57058372837E+02  0.27813511696E+03  0.00000000000E+00 0.  1.
<mgrwt>
<rscale>  0 0.22842414E+04</rscale>
<asrwt>0</asrwt>
<pdfrwt beam="1">  1        2 0.23199680E+00 0.22842414E+04</pdfrwt>
<pdfrwt beam="2">  1       -1 0.13308077E+00 0.22842414E+04</pdfrwt>
<totfact> 0.62078348E+00</totfact>
</mgrwt>
</event>
<event>
12    7  0.1741211E-007  0.1147981E+04  0.7818608E-02  0.9159648E-01
         -1   -1    0    0    0  501 -0.00000000000E+00  0.00000000000E+00  0.41297344367E+03  0.41297344367E+03  0.00000000000E+00 0.  1.
          2   -1    0    0  501    0  0.00000000000E+00 -0.00000000000E+00 -0.79778769434E+03  0.79778769434E+03  0.00000000000E+00 0. -1.
         24    2    1    2    0    0  0.57365224403E+02 -0.89216634121E+01 -0.29333153088E+03  0.31087052857E+03  0.85010196309E+02 0.  0.
        254    2    1    2    0    0 -0.57365224403E+02  0.89216634121E+01 -0.91482719789E+02  0.89989060944E+03  0.89334408594E+03 0.  0.
         23    2    4    4    0    0 -0.90755031699E+02  0.22470776212E+03 -0.42092889433E+03  0.49443541699E+03  0.92494288269E+02 0.  0.
         23    2    4    4    0    0  0.33389807296E+02 -0.21578609870E+03  0.32944617454E+03  0.40545519245E+03  0.90446733147E+02 0.  0.
          2    1    3    3  502    0  0.44932159269E+02 -0.31392858574E+02 -0.27205119483E+03  0.27751804106E+03  0.00000000000E+00 0. -1.
         -1    1    3    3    0  502  0.12433065134E+02  0.22471195162E+02 -0.21280336048E+02  0.33352487507E+02  0.00000000000E+00 0.  1.
         13    1    5    5    0    0 -0.44416408180E+01  0.15221218886E+02  0.60698850418E+00  0.15867643574E+02  0.00000000000E+00 0.  1.
        -13    1    5    5    0    0 -0.86313390881E+02  0.20948654323E+03 -0.42153588283E+03  0.47856777342E+03  0.00000000000E+00 0. -1.
          3    1    6    6  503    0  0.45299332425E+02 -0.21845802772E+03  0.31962059895E+03  0.38978618070E+03  0.00000000000E+00 0. -1.
         -3    1    6    6    0  503 -0.11909525128E+02  0.26719290113E+01  0.98255755916E+01  0.15669011747E+02  0.00000000000E+00 0.  1.
<mgrwt>
<rscale>  0 0.11479811E+04</rscale>
<asrwt>0</asrwt>
<pdfrwt beam="1">  1        2 0.12273657E+00 0.11479811E+04</pdfrwt>
<pdfrwt beam="2">  1       -1 0.63534376E-01 0.11479811E+04</pdfrwt>
<totfact> 0.98189648E+01</totfact>
</mgrwt>
</event>
<event>
12    7  0.1741211E-007  0.1204654E+04  0.7818608E-02  0.9108793E-01
         -1   -1    0    0    0  501 -0.00000000000E+00  0.00000000000E+00  0.13352488712E+03  0.13352488712E+03  0.00000000000E+00 0.  1.
          2   -1    0    0  501    0  0.00000000000E+00 -0.00000000000E+00 -0.27170798523E+04  0.27170798523E+04  0.00000000000E+00 0. -1.
         24    2    1    2    0    0 -0.20298597112E+03 -0.58218121847E+02 -0.93745445385E+03  0.96494363970E+03  0.87765144372E+02 0.  0.
        254    2    1    2    0    0  0.20298597112E+03  0.58218121847E+02 -0.16461005114E+04  0.18856610998E+04  0.89525316834E+03 0.  0.
         23    2    4    4    0    0  0.21123229098E+03 -0.35542916376E+03 -0.46524186313E+03  0.63087038601E+03  0.10294892681E+03 0.  0.
         23    2    4    4    0    0 -0.82463198616E+01  0.41364728561E+03 -0.11808586482E+04  0.12547907137E+04  0.94342511588E+02 0.  0.
          4    1    3    3  502    0 -0.12344248979E+03 -0.19678928695E+02 -0.70998786963E+03  0.72090781903E+03  0.00000000000E+00 0. -1.
         -3    1    3    3    0  502 -0.79543481332E+02 -0.38539193152E+02 -0.22746658422E+03  0.24403582067E+03  0.00000000000E+00 0.  1.
         13    1    5    5    0    0  0.19479353202E+03 -0.26299360631E+03 -0.31857613314E+03  0.45672848574E+03  0.00000000000E+00 0. -1.
        -13    1    5    5    0    0  0.16438758961E+02 -0.92435557448E+02 -0.14666572999E+03  0.17414190027E+03  0.00000000000E+00 0.  1.
          3    1    6    6  503    0 -0.26430334103E+02  0.17022188226E+03 -0.61173536964E+03  0.63552672189E+03  0.00000000000E+00 0. -1.
         -3    1    6    6    0  503  0.18184014242E+02  0.24342540335E+03 -0.56912327859E+03  0.61926399185E+03  0.00000000000E+00 0.  1.
<mgrwt>
<rscale>  0 0.12046539E+04</rscale>
<asrwt>0</asrwt>
<pdfrwt beam="1">  1        2 0.41801230E+00 0.12046539E+04</pdfrwt>
<pdfrwt beam="2">  1       -1 0.20542290E-01 0.12046539E+04</pdfrwt>
<totfact> 0.57535309E+01</totfact>
</mgrwt>
</event>
<event>
12    7  0.1741211E-007  0.1978249E+04  0.7818608E-02  0.8616858E-01
         -1   -1    0    0    0  501 -0.00000000000E+00  0.00000000000E+00  0.75098070320E+03  0.75098070320E+03  0.00000000000E+00 0.  1.
          2   -1    0    0  501    0  0.00000000000E+00 -0.00000000000E+00 -0.13027857480E+04  0.13027857480E+04  0.00000000000E+00 0. -1.
         24    2    1    2    0    0 -0.65797128597E+03 -0.25249320175E+03 -0.58915553785E+03  0.92189802774E+03  0.78183730343E+02 0.  0.
        254    2    1    2    0    0  0.65797128597E+03  0.25249320175E+03  0.37350493083E+02  0.11318684234E+04  0.88490227626E+03 0.  0.
         23    2    4    4    0    0  0.13784634811E+03  0.44450310099E+03 -0.20997067150E+03  0.51844608208E+03  0.90077936533E+02 0.  0.
         23    2    4    4    0    0  0.52012493785E+03 -0.19200989924E+03  0.24732116458E+03  0.61342234135E+03  0.87871827309E+02 0.  0.
          2    1    3    3  502    0 -0.44150357898E+03 -0.18309841985E+03 -0.35360140549E+03  0.59454553700E+03  0.00000000000E+00 0. -1.
         -1    1    3    3    0  502 -0.21646770699E+03 -0.69394781904E+02 -0.23555413236E+03  0.32735249075E+03  0.00000000000E+00 0.  1.
         13    1    5    5    0    0  0.11860565972E+03  0.40789404660E+03 -0.16082211130E+03  0.45421207300E+03  0.00000000000E+00 0. -1.
        -13    1    5    5    0    0  0.19240688388E+02  0.36609054393E+02 -0.49148560198E+02  0.64234009082E+02  0.00000000000E+00 0.  1.
          4    1    6    6  503    0  0.44198832517E+03 -0.19340801496E+03  0.22362397402E+03  0.53175936437E+03  0.00000000000E+00 0. -1.
         -4    1    6    6    0  503  0.78136612685E+02  0.13981157147E+01  0.23697190558E+02  0.81662976983E+02  0.00000000000E+00 0.  1.
<mgrwt>
<rscale>  0 0.19782487E+04</rscale>
<asrwt>0</asrwt>
<pdfrwt beam="1">  1        2 0.20042857E+00 0.19782487E+04</pdfrwt>
<pdfrwt beam="2">  1       -1 0.11553549E+00 0.19782487E+04</pdfrwt>
<totfact> 0.11860783E+01</totfact>
</mgrwt>
</event>
<event>
12    7  0.1741211E-007  0.2196940E+04  0.7818608E-02  0.8519703E-01
          2   -1    0    0  501    0  0.00000000000E+00  0.00000000000E+00  0.37386347184E+04  0.37386347184E+04  0.00000000000E+00 0. -1.
         -1   -1    0    0    0  501 -0.00000000000E+00 -0.00000000000E+00 -0.32274800123E+03  0.32274800123E+03  0.00000000000E+00 0.  1.
         24    2    1    2    0    0  0.92848143492E+03 -0.36053352558E+02  0.17837035408E+04  0.20128160153E+04  0.80326648952E+02 0.  0.
        254    2    1    2    0    0 -0.92848143492E+03  0.36053352558E+02  0.16321831763E+04  0.20485667043E+04  0.81806234594E+03 0.  0.
         23    2    4    4    0    0 -0.26650828693E+03 -0.31349844337E+03  0.29952187925E+03  0.51729654916E+03  0.92598178318E+02 0.  0.
         23    2    4    4    0    0 -0.66197314799E+03  0.34955179593E+03  0.13326612971E+04  0.15312701552E+04  0.91691050385E+02 0.  0.
          4    1    3    3  502    0  0.83552948467E+03 -0.46055836181E+02  0.15576301071E+04  0.17681748246E+04  0.00000000000E+00 0. -1.
         -3    1    3    3    0  502  0.92951950249E+02  0.10002483623E+02  0.22607343374E+03  0.24464119068E+03  0.00000000000E+00 0.  1.
         13    1    5    5    0    0 -0.25840887423E+03 -0.28079419293E+03  0.24590061309E+03  0.45396876168E+03  0.00000000000E+00 0. -1.
        -13    1    5    5    0    0 -0.80994127017E+01 -0.32704250443E+02  0.53621266156E+02  0.63327787482E+02  0.00000000000E+00 0.  1.
          4    1    6    6  503    0 -0.27674085460E+03  0.13688807967E+03  0.64131453846E+03  0.71176413523E+03  0.00000000000E+00 0. -1.
         -4    1    6    6    0  503 -0.38523229338E+03  0.21266371626E+03  0.69134675862E+03  0.81950601995E+03  0.00000000000E+00 0.  1.
<mgrwt>
<rscale>  0 0.21969405E+04</rscale>
<asrwt>0</asrwt>
<pdfrwt beam="1">  1        2 0.57517454E+00 0.21969405E+04</pdfrwt>
<pdfrwt beam="2">  1       -1 0.49653541E-01 0.21969405E+04</pdfrwt>
<totfact> 0.23237003E+00</totfact>
</mgrwt>
</event>
<event>
12    7  0.1741211E-007  0.1884743E+04  0.7818608E-02  0.8662488E-01
         -1   -1    0    0    0  501 -0.00000000000E+00  0.00000000000E+00  0.62663001353E+03  0.62663001353E+03  0.00000000000E+00 0.  1.
          2   -1    0    0  501    0  0.00000000000E+00 -0.00000000000E+00 -0.14172068549E+04  0.14172068549E+04  0.00000000000E+00 0. -1.
         24    2    1    2    0    0 -0.13366703678E+03 -0.74939386185E+02 -0.10548671079E+04  0.10691050436E+04  0.82208215219E+02 0.  0.
        254    2    1    2    0    0  0.13366703678E+03  0.74939386185E+02  0.26429026656E+03  0.97473182477E+03  0.92561871032E+03 0.  0.
         23    2    4    4    0    0  0.40934269619E+03 -0.19294082110E+03 -0.58261665592E+02  0.46540719572E+03  0.91770544160E+02 0.  0.
         23    2    4    4    0    0 -0.27567565941E+03  0.26788020729E+03  0.32255193215E+03  0.50932462905E+03  0.87263704775E+02 0.  0.
          2    1    3    3  502    0 -0.10175446752E+03 -0.29551828887E+02 -0.85967760958E+03  0.86618293372E+03  0.00000000000E+00 0. -1.
         -1    1    3    3    0  502 -0.31912569255E+02 -0.45387557298E+02 -0.19518949831E+03  0.20292210989E+03  0.00000000000E+00 0.  1.
         13    1    5    5    0    0  0.68785908729E+02 -0.19222060067E+02  0.22070160790E+02  0.74753467011E+02  0.00000000000E+00 0.  1.
        -13    1    5    5    0    0  0.34055678746E+03 -0.17371876104E+03 -0.80331826382E+02  0.39065372871E+03  0.00000000000E+00 0. -1.
          2    1    6    6  503    0 -0.24961457944E+03  0.19651026863E+03  0.24983149853E+03  0.40415281962E+03  0.00000000000E+00 0. -1.
         -2    1    6    6    0  503 -0.26061079975E+02  0.71369938652E+02  0.72720433626E+02  0.10517180943E+03  0.00000000000E+00 0.  1.
<mgrwt>
<rscale>  0 0.18847433E+04</rscale>
<asrwt>0</asrwt>
<pdfrwt beam="1">  1        2 0.21803182E+00 0.18847433E+04</pdfrwt>
<pdfrwt beam="2">  1       -1 0.96404619E-01 0.18847433E+04</pdfrwt>
<totfact> 0.15660519E+01</totfact>
</mgrwt>
</event>
<event>
12    7  0.1741211E-007  0.1452372E+04  0.7818608E-02  0.8916757E-01
         -1   -1    0    0    0  501 -0.00000000000E+00  0.00000000000E+00  0.27347146062E+03  0.27347146062E+03  0.00000000000E+00 0.  1.
          2   -1    0    0  501    0  0.00000000000E+00 -0.00000000000E+00 -0.19283414088E+04  0.19283414088E+04  0.00000000000E+00 0. -1.
         24    2    1    2    0    0 -0.15214169539E+03  0.24787816407E+03 -0.10095749973E+04  0.10537512464E+04  0.80989718750E+02 0.  0.
        254    2    1    2    0    0  0.15214169539E+03 -0.24787816407E+03 -0.64529495091E+03  0.11480616230E+04  0.90390775901E+03 0.  0.
         23    2    4    4    0    0 -0.91185248786E+02 -0.18520734700E+02  0.19670599361E+03  0.23724389237E+03  0.94517984176E+02 0.  0.
         23    2    4    4    0    0  0.24332694418E+03 -0.22935742937E+03 -0.84200094453E+03  0.91081773062E+03  0.93864347072E+02 0.  0.
          4    1    3    3  502    0 -0.76839444628E+02  0.19552509491E+03 -0.71604544658E+03  0.74622747507E+03  0.00000000000E+00 0. -1.
         -3    1    3    3    0  502 -0.75302250764E+02  0.52353069165E+02 -0.29352955071E+03  0.30752377137E+03  0.00000000000E+00 0.  1.
         13    1    5    5    0    0 -0.91338266327E+02  0.14983080579E+02  0.10696205798E+03  0.14144982661E+03  0.00000000000E+00 0. -1.
        -13    1    5    5    0    0  0.15301754060E+00 -0.33503815279E+02  0.89743935632E+02  0.95794065763E+02  0.00000000000E+00 0.  1.
          4    1    6    6  503    0  0.18583480676E+03 -0.20477855596E+03 -0.59651951220E+03  0.65749856336E+03  0.00000000000E+00 0. -1.
         -4    1    6    6    0  503  0.57492137418E+02 -0.24578873414E+02 -0.24548143233E+03  0.25331916726E+03  0.00000000000E+00 0.  1.
<mgrwt>
<rscale>  0 0.14523723E+04</rscale>
<asrwt>0</asrwt>
<pdfrwt beam="1">  1        2 0.29666791E+00 0.14523723E+04</pdfrwt>
<pdfrwt beam="2">  1       -1 0.42072532E-01 0.14523723E+04</pdfrwt>
<totfact> 0.44904389E+01</totfact>
</mgrwt>
</event>
<event>
12    7  0.1741211E-007  0.2408644E+04  0.7818608E-02  0.8436274E-01
          2   -1    0    0  501    0  0.00000000000E+00  0.00000000000E+00  0.12754105846E+04  0.12754105846E+04  0.00000000000E+00 0. -1.
         -1   -1    0    0    0  501 -0.00000000000E+00 -0.00000000000E+00 -0.11371957249E+04  0.11371957249E+04  0.00000000000E+00 0.  1.
         24    2    1    2    0    0  0.36654002912E+03 -0.67139531083E+02  0.10232993290E+04  0.10920022068E+04  0.80423836559E+02 0.  0.
        254    2    1    2    0    0 -0.36654002912E+03  0.67139531083E+02 -0.88508446926E+03  0.13206041026E+04  0.90651054523E+03 0.  0.
         23    2    4    4    0    0  0.11275194446E+03  0.30411318308E+03 -0.64259834940E+03  0.72613830755E+03  0.95636676775E+02 0.  0.
         23    2    4    4    0    0 -0.47929197358E+03 -0.23697365200E+03 -0.24248611986E+03  0.59446579509E+03  0.93342142311E+02 0.  0.
          2    1    3    3  502    0  0.26172328899E+03 -0.10412426081E+02  0.71507563991E+03  0.76153835715E+03  0.00000000000E+00 0. -1.
         -1    1    3    3    0  502  0.10481674013E+03 -0.56727105002E+02  0.30822368907E+03  0.33046384970E+03  0.00000000000E+00 0.  1.
         13    1    5    5    0    0  0.12733458763E+03  0.29159710762E+03 -0.59350140117E+03  0.67341434761E+03  0.00000000000E+00 0. -1.
        -13    1    5    5    0    0 -0.14582643167E+02  0.12516075462E+02 -0.49096948222E+02  0.52723959937E+02  0.00000000000E+00 0.  1.
          1    1    6    6  503    0 -0.37081636049E+03 -0.22046979063E+03 -0.17433988475E+03  0.46530215689E+03  0.00000000000E+00 0. -1.
         -1    1    6    6    0  503 -0.10847561309E+03 -0.16503861368E+02 -0.68146235114E+02  0.12916363821E+03  0.00000000000E+00 0.  1.
<mgrwt>
<rscale>  0 0.24086440E+04</rscale>
<asrwt>0</asrwt>
<pdfrwt beam="1">  1        2 0.19621701E+00 0.24086440E+04</pdfrwt>
<pdfrwt beam="2">  1       -1 0.17495319E+00 0.24086440E+04</pdfrwt>
<totfact> 0.39614478E+00</totfact>
</mgrwt>
</event>
<event>
12    7  0.1741211E-007  0.1834041E+04  0.7818608E-02  0.8688404E-01
         -1   -1    0    0    0  501 -0.00000000000E+00  0.00000000000E+00  0.16420688844E+04  0.16420688844E+04  0.00000000000E+00 0.  1.
          2   -1    0    0  501    0  0.00000000000E+00 -0.00000000000E+00 -0.51211394270E+03  0.51211394270E+03  0.00000000000E+00 0. -1.
         24    2    1    2    0    0 -0.69109147440E+01 -0.70088584572E+02 -0.38346800368E+03  0.39807688304E+03  0.80357479603E+02 0.  0.
        254    2    1    2    0    0  0.69109147440E+01  0.70088584572E+02  0.15134229454E+04  0.17561059441E+04  0.88797460817E+03 0.  0.
         23    2    4    4    0    0 -0.25508563215E+03 -0.23985076906E+03  0.28855120556E+03  0.46247576892E+03  0.89582182733E+02 0.  0.
         23    2    4    4    0    0  0.26199654689E+03  0.30993935363E+03  0.12248717398E+04  0.12936301752E+04  0.91998138672E+02 0.  0.
          4    1    3    3  502    0 -0.10091224653E+02  0.13981160752E+02 -0.12693949334E+03  0.12810519365E+03  0.00000000000E+00 0. -1.
         -3    1    3    3    0  502  0.31803099089E+01 -0.84069745324E+02 -0.25652851035E+03  0.26997168939E+03  0.00000000000E+00 0.  1.
         13    1    5    5    0    0 -0.49342702432E+02 -0.10328254537E+02  0.22128783537E+02  0.55055046870E+02  0.00000000000E+00 0. -1.
        -13    1    5    5    0    0 -0.20574292972E+03 -0.22952251452E+03  0.26642242202E+03  0.40742072205E+03  0.00000000000E+00 0.  1.
          1    1    6    6  503    0  0.47701086761E+02  0.86584115156E+02  0.20101075245E+03  0.22400340461E+03  0.00000000000E+00 0. -1.
         -1    1    6    6    0  503  0.21429546013E+03  0.22335523847E+03  0.10238609874E+04  0.10696267706E+04  0.00000000000E+00 0.  1.
<mgrwt>
<rscale>  0 0.18340408E+04</rscale>
<asrwt>0</asrwt>
<pdfrwt beam="1">  1        2 0.78786761E-01 0.18340408E+04</pdfrwt>
<pdfrwt beam="2">  1       -1 0.25262598E+00 0.18340408E+04</pdfrwt>
<totfact> 0.43179437E+00</totfact>
</mgrwt>
</event>
<event>
12    7  0.1741211E-007  0.1630088E+04  0.7818608E-02  0.8802274E-01
          2   -1    0    0  501    0  0.00000000000E+00  0.00000000000E+00  0.30202118150E+04  0.30202118150E+04  0.00000000000E+00 0. -1.
         -1   -1    0    0    0  501 -0.00000000000E+00 -0.00000000000E+00 -0.21995034289E+03  0.21995034289E+03  0.00000000000E+00 0.  1.
         24    2    1    2    0    0 -0.53177545974E+03 -0.20937567775E+03  0.94496380340E+03  0.11072485870E+04  0.80121968079E+02 0.  0.
        254    2    1    2    0    0  0.53177545974E+03  0.20937567775E+03  0.18552976687E+04  0.21329135709E+04  0.88349733853E+03 0.  0.
         23    2    4    4    0    0  0.46465493827E+03 -0.16740759519E+03  0.45447945645E+03  0.67752219062E+03  0.92494474807E+02 0.  0.
         23    2    4    4    0    0  0.67120521466E+02  0.37678327294E+03  0.14008182123E+04  0.14553913802E+04  0.96961882521E+02 0.  0.
          2    1    3    3  502    0 -0.34617623106E+03 -0.13610145858E+03  0.53893559279E+03  0.65483827252E+03  0.00000000000E+00 0. -1.
         -1    1    3    3    0  502 -0.18559922868E+03 -0.73274219169E+02  0.40602821062E+03  0.45241031453E+03  0.00000000000E+00 0.  1.
         13    1    5    5    0    0  0.42351604665E+03 -0.17890812843E+03  0.41691626835E+03  0.62063929541E+03  0.00000000000E+00 0.  1.
        -13    1    5    5    0    0  0.41138891623E+02  0.11500533235E+02  0.37563188091E+02  0.56882895217E+02  0.00000000000E+00 0. -1.
          4    1    6    6  503    0  0.33869762043E+02  0.14966681066E+03  0.74286836896E+03  0.75855173099E+03  0.00000000000E+00 0. -1.
         -4    1    6    6    0  503  0.33250759423E+02  0.22711646227E+03  0.65794984331E+03  0.69683964924E+03  0.00000000000E+00 0.  1.
<mgrwt>
<rscale>  0 0.16300879E+04</rscale>
<asrwt>0</asrwt>
<pdfrwt beam="1">  1        2 0.46464794E+00 0.16300879E+04</pdfrwt>
<pdfrwt beam="2">  1       -1 0.33838517E-01 0.16300879E+04</pdfrwt>
<totfact> 0.15273266E+01</totfact>
</mgrwt>
</event>
<event>
12    7  0.1741211E-007  0.2071858E+04  0.7818608E-02  0.8573742E-01
          2   -1    0    0  501    0  0.00000000000E+00  0.00000000000E+00  0.91744400272E+03  0.91744400272E+03  0.00000000000E+00 0. -1.
         -1   -1    0    0    0  501 -0.00000000000E+00 -0.00000000000E+00 -0.11697163513E+04  0.11697163513E+04  0.00000000000E+00 0.  1.
         24    2    1    2    0    0  0.60202593976E+02 -0.13840462548E+03 -0.93159935877E+03  0.94772371153E+03  0.86733358381E+02 0.  0.
        254    2    1    2    0    0 -0.60202593976E+02  0.13840462548E+03  0.67932701022E+03  0.11394366425E+04  0.90224746202E+03 0.  0.
         23    2    4    4    0    0 -0.11902704767E+03 -0.31692643517E+03  0.48187899433E+02  0.35369524297E+03  0.90379465900E+02 0.  0.
         23    2    4    4    0    0  0.58824453694E+02  0.45533106065E+03  0.63113911079E+03  0.78574139950E+03  0.90919077099E+02 0.  0.
          2    1    3    3  502    0  0.24140418417E+02  0.52383429106E+01 -0.97656022810E+02  0.10073181637E+03  0.00000000000E+00 0. -1.
         -1    1    3    3    0  502  0.36062175559E+02 -0.14364296839E+03 -0.83394333596E+03  0.84699189516E+03  0.00000000000E+00 0.  1.
         13    1    5    5    0    0 -0.12702040440E+03 -0.25552834604E+03  0.57469972238E+02  0.29108712867E+03  0.00000000000E+00 0. -1.
        -13    1    5    5    0    0  0.79933567315E+01 -0.61398089130E+02 -0.92820728051E+01  0.62608114300E+02  0.00000000000E+00 0.  1.
          3    1    6    6  503    0  0.65602944678E+02  0.45277051018E+03  0.62970814654E+03  0.77835546575E+03  0.00000000000E+00 0. -1.
         -3    1    6    6    0  503 -0.67784909840E+01  0.25605504697E+01  0.14309642446E+01  0.73859337526E+01  0.00000000000E+00 0.  1.
<mgrwt>
<rscale>  0 0.20718583E+04</rscale>
<asrwt>0</asrwt>
<pdfrwt beam="1">  1        2 0.14114523E+00 0.20718583E+04</pdfrwt>
<pdfrwt beam="2">  1       -1 0.17995636E+00 0.20718583E+04</pdfrwt>
<totfact> 0.62626324E+00</totfact>
</mgrwt>
</event>
<event>
12    7  0.1741211E-007  0.5682373E+04  0.7818608E-02  0.7731081E-01
         -1   -1    0    0    0  501 -0.00000000000E+00  0.00000000000E+00  0.21572443358E+04  0.21572443358E+04  0.00000000000E+00 0.  1.
          2   -1    0    0  501    0  0.00000000000E+00 -0.00000000000E+00 -0.37419680504E+04  0.37419680504E+04  0.00000000000E+00 0. -1.
         24    2    1    2    0    0 -0.15423231941E+04  0.21653929213E+04  0.31796566427E+02  0.26600561537E+04  0.84855057882E+02 0.  0.
        254    2    1    2    0    0  0.15423231941E+04 -0.21653929213E+04 -0.16165202810E+04  0.32391562324E+04  0.90072634032E+03 0.  0.
         23    2    4    4    0    0  0.12841002618E+04 -0.20058129156E+04 -0.16805458230E+04  0.29164894315E+04  0.97351967765E+02 0.  0.
         23    2    4    4    0    0  0.25822293231E+03 -0.15958000563E+03  0.64025541985E+02  0.32266680092E+03  0.88711517958E+02 0.  0.
          4    1    3    3  502    0 -0.15002291026E+04  0.20816895077E+04  0.24356921145E+02  0.25660693339E+04  0.00000000000E+00 0. -1.
         -3    1    3    3    0  502 -0.42094091543E+02  0.83703413586E+02  0.74396452822E+01  0.93986819878E+02  0.00000000000E+00 0.  1.
         13    1    5    5    0    0  0.10468515450E+04 -0.16569031183E+04 -0.13388378828E+04  0.23735443912E+04  0.00000000000E+00 0. -1.
        -13    1    5    5    0    0  0.23724871681E+03 -0.34890979733E+03 -0.34170794020E+03  0.54294504022E+03  0.00000000000E+00 0.  1.
          2    1    6    6  503    0  0.20585144661E+03 -0.10016293529E+03  0.78776566264E+02  0.24210158832E+03  0.00000000000E+00 0. -1.
         -2    1    6    6    0  503  0.52371485705E+02 -0.59417070344E+02 -0.14751024279E+02  0.80565212595E+02  0.00000000000E+00 0.  1.
<mgrwt>
<rscale>  0 0.56823725E+04</rscale>
<asrwt>0</asrwt>
<pdfrwt beam="1">  1        2 0.57568739E+00 0.56823725E+04</pdfrwt>
<pdfrwt beam="2">  1       -1 0.33188375E+00 0.56823725E+04</pdfrwt>
<totfact> 0.86825909E-03</totfact>
</mgrwt>
</event>
<event>
12    7  0.1741211E-007  0.1986870E+04  0.7818608E-02  0.8612784E-01
         -1   -1    0    0    0  501 -0.00000000000E+00  0.00000000000E+00  0.59579206834E+03  0.59579206834E+03  0.00000000000E+00 0.  1.
          2   -1    0    0  501    0  0.00000000000E+00 -0.00000000000E+00 -0.16564716942E+04  0.16564716942E+04  0.00000000000E+00 0. -1.
         24    2    1    2    0    0 -0.66988007095E+03  0.27624616071E+03 -0.77332996649E+03  0.10628674370E+04  0.81220075982E+02 0.  0.
        254    2    1    2    0    0  0.66988007095E+03 -0.27624616071E+03 -0.28734965939E+03  0.11893963256E+04  0.89835546518E+03 0.  0.
         23    2    4    4    0    0 -0.12078202781E+03 -0.35414807072E+02  0.17814395496E+03  0.23640088041E+03  0.91146040897E+02 0.  0.
         23    2    4    4    0    0  0.79066209875E+03 -0.24083135364E+03 -0.46549361435E+03  0.95299544518E+03  0.91486164125E+02 0.  0.
          2    1    3    3  502    0 -0.60555845769E+03  0.22864922837E+03 -0.71041709453E+03  0.96107958230E+03  0.00000000000E+00 0. -1.
         -1    1    3    3    0  502 -0.64321613263E+02  0.47596932341E+02 -0.62912871961E+02  0.10178785468E+03  0.00000000000E+00 0.  1.
         13    1    5    5    0    0 -0.11257490715E+03  0.10836615988E+01  0.15772293438E+03  0.19378030878E+03  0.00000000000E+00 0.  1.
        -13    1    5    5    0    0 -0.82071206589E+01 -0.36498468671E+02  0.20421020578E+02  0.42620571632E+02  0.00000000000E+00 0. -1.
          4    1    6    6  503    0  0.62124865426E+03 -0.15353254156E+03 -0.33819599217E+03  0.72380844210E+03  0.00000000000E+00 0. -1.
         -4    1    6    6    0  503  0.16941344450E+03 -0.87298812085E+02 -0.12729762218E+03  0.22918700308E+03  0.00000000000E+00 0.  1.
<mgrwt>
<rscale>  0 0.19868696E+04</rscale>
<asrwt>0</asrwt>
<pdfrwt beam="1">  1        2 0.25484180E+00 0.19868696E+04</pdfrwt>
<pdfrwt beam="2">  1       -1 0.91660318E-01 0.19868696E+04</pdfrwt>
<totfact> 0.12742983E+01</totfact>
</mgrwt>
</event>
<event>
12    7  0.1741211E-007  0.1386346E+04  0.7818608E-02  0.8963761E-01
         -3   -1    0    0    0  501 -0.00000000000E+00  0.00000000000E+00  0.37121950626E+03  0.37121950626E+03  0.00000000000E+00 0.  1.
          4   -1    0    0  501    0  0.00000000000E+00 -0.00000000000E+00 -0.12943528688E+04  0.12943528688E+04  0.00000000000E+00 0. -1.
         24    2    1    2    0    0 -0.29235214810E+03 -0.31589364647E+03 -0.25224747935E+03  0.50384042928E+03  0.70482713946E+02 0.  0.
        254    2    1    2    0    0  0.29235214810E+03  0.31589364647E+03 -0.67088588321E+03  0.11617319458E+04  0.84514772155E+03 0.  0.
         23    2    4    4    0    0  0.24292065665E+03 -0.17372972429E+03  0.16945833774E+02  0.31103119373E+03  0.85210208676E+02 0.  0.
         23    2    4    4    0    0  0.49431491444E+02  0.48962337075E+03 -0.68783171699E+03  0.85070075208E+03  0.91677593513E+02 0.  0.
          4    1    3    3  502    0 -0.33713797062E+02 -0.91795749745E+01 -0.19913759590E+02  0.40217440621E+02  0.00000000000E+00 0. -1.
         -3    1    3    3    0  502 -0.25863835104E+03 -0.30671407149E+03 -0.23233371976E+03  0.46362298866E+03  0.00000000000E+00 0.  1.
         13    1    5    5    0    0  0.21317294514E+03 -0.18072260121E+03  0.20738294352E+02  0.28023818438E+03  0.00000000000E+00 0. -1.
        -13    1    5    5    0    0  0.29747711510E+02  0.69928769290E+01 -0.37924605777E+01  0.30793009353E+02  0.00000000000E+00 0.  1.
          3    1    6    6  503    0  0.64704127761E+02  0.44745109488E+03 -0.59199319900E+03  0.74488593363E+03  0.00000000000E+00 0. -1.
         -3    1    6    6    0  503 -0.15272636316E+02  0.42172275877E+02 -0.95838517992E+02  0.10581481845E+03  0.00000000000E+00 0.  1.
<mgrwt>
<rscale>  0 0.13863463E+04</rscale>
<asrwt>0</asrwt>
<pdfrwt beam="1">  1        4 0.19913121E+00 0.13863463E+04</pdfrwt>
<pdfrwt beam="2">  1       -3 0.57110694E-01 0.13863463E+04</pdfrwt>
<totfact> 0.89476817E-01</totfact>
</mgrwt>
</event>
<event>
12    7  0.2107581E-007  0.1513700E+04  0.7818608E-02  0.8875393E-01
          2   -1    0    0  501    0  0.00000000000E+00  0.00000000000E+00  0.11119360860E+04  0.11119360860E+04  0.00000000000E+00 0. -1.
         -1   -1    0    0    0  501 -0.00000000000E+00 -0.00000000000E+00 -0.51515750627E+03  0.51515750627E+03  0.00000000000E+00 0.  1.
         24    2    1    2    0    0  0.85124454198E+02 -0.37127063062E+03 -0.12705273921E+03  0.41056391602E+03  0.85628714443E+02 0.  0.
        254    2    1    2    0    0 -0.85124454198E+02  0.37127063062E+03  0.72383131897E+03  0.12165296763E+04  0.90051353186E+03 0.  0.
         23    2    4    4    0    0  0.12990897781E+03  0.74908669948E+02 -0.17059601377E+03  0.24574513896E+03  0.93808432778E+02 0.  0.
         23    2    4    4    0    0 -0.21503343201E+03  0.29636196067E+03  0.89442733274E+03  0.97078453731E+03  0.91392427005E+02 0.  0.
          4    1    3    3  502    0 -0.68667622718E+01 -0.83670690412E+01 -0.17334573204E+02  0.20436430623E+02  0.00000000000E+00 0. -1.
         -1    1    3    3    0  502  0.91991216470E+02 -0.36290356158E+03 -0.10971816601E+03  0.39012748540E+03  0.00000000000E+00 0.  1.
         13    1    5    5    0    0  0.63792861579E+01  0.20073646854E+02  0.73354550367E+01  0.22303710241E+02  0.00000000000E+00 0. -1.
        -13    1    5    5    0    0  0.12352969165E+03  0.54835023095E+02 -0.17793146881E+03  0.22344142872E+03  0.00000000000E+00 0.  1.
          2    1    6    6  503    0 -0.44577589351E+02  0.44025459177E+02  0.82232827489E+02  0.10338104490E+03  0.00000000000E+00 0. -1.
         -2    1    6    6    0  503 -0.17045584266E+03  0.25233650149E+03  0.81219450525E+03  0.86740349241E+03  0.00000000000E+00 0.  1.
<mgrwt>
<rscale>  0 0.15137004E+04</rscale>
<asrwt>0</asrwt>
<pdfrwt beam="1">  1        2 0.17106709E+00 0.15137004E+04</pdfrwt>
<pdfrwt beam="2">  1       -1 0.79255001E-01 0.15137004E+04</pdfrwt>
<totfact> 0.37529054E+01</totfact>
</mgrwt>
</event>
<event>
12    7  0.1741211E-007  0.1420534E+04  0.7818608E-02  0.8939088E-01
          2   -1    0    0  501    0  0.00000000000E+00  0.00000000000E+00  0.83722588654E+03  0.83722588654E+03  0.00000000000E+00 0. -1.
         -1   -1    0    0    0  501 -0.00000000000E+00 -0.00000000000E+00 -0.60256009616E+03  0.60256009616E+03  0.00000000000E+00 0.  1.
         24    2    1    2    0    0  0.92089169636E+02 -0.37139432726E+03 -0.10400607546E+03  0.40452653629E+03  0.80064307540E+02 0.  0.
        254    2    1    2    0    0 -0.92089169636E+02  0.37139432726E+03  0.33867186584E+03  0.10352594464E+04  0.90036066507E+03 0.  0.
         23    2    4    4    0    0 -0.77828796492E+02  0.13837414472E+03  0.62716600387E+03  0.65320042674E+03  0.90160277183E+02 0.  0.
         23    2    4    4    0    0 -0.14260373144E+02  0.23302018255E+03 -0.28849413803E+03  0.38205901968E+03  0.90765979993E+02 0.  0.
          4    1    3    3  502    0  0.33523806011E+02 -0.16232292500E+03 -0.48045795709E+01  0.16581815804E+03  0.00000000000E+00 0. -1.
         -3    1    3    3    0  502  0.58565363625E+02 -0.20907140226E+03 -0.99201495890E+02  0.23870837825E+03  0.00000000000E+00 0.  1.
         13    1    5    5    0    0 -0.34118360020E+02  0.68816385829E+02  0.46617348586E+03  0.47245896792E+03  0.00000000000E+00 0.  1.
        -13    1    5    5    0    0 -0.43710436472E+02  0.69557758887E+02  0.16099251801E+03  0.18074145881E+03  0.00000000000E+00 0. -1.
          2    1    6    6  503    0 -0.13979044255E+02  0.19206970517E+02 -0.79870542703E+02  0.83328416440E+02  0.00000000000E+00 0. -1.
         -2    1    6    6    0  503 -0.28132888890E+00  0.21381321203E+03 -0.20862359533E+03  0.29873060324E+03  0.00000000000E+00 0.  1.
<mgrwt>
<rscale>  0 0.14205336E+04</rscale>
<asrwt>0</asrwt>
<pdfrwt beam="1">  1        2 0.12880398E+00 0.14205336E+04</pdfrwt>
<pdfrwt beam="2">  1       -1 0.92701553E-01 0.14205336E+04</pdfrwt>
<totfact> 0.40676789E+01</totfact>
</mgrwt>
</event>
<event>
12    7  0.1741211E-007  0.1098318E+04  0.7818608E-02  0.9206832E-01
          2   -1    0    0  501    0  0.00000000000E+00  0.00000000000E+00  0.22083881775E+03  0.22083881775E+03  0.00000000000E+00 0. -1.
         -1   -1    0    0    0  501 -0.00000000000E+00 -0.00000000000E+00 -0.13655923132E+04  0.13655923132E+04  0.00000000000E+00 0.  1.
         24    2    1    2    0    0 -0.13340098520E+03  0.51749373583E+02 -0.27883072197E+03  0.32309833889E+03  0.78562997390E+02 0.  0.
        254    2    1    2    0    0  0.13340098520E+03 -0.51749373583E+02 -0.86592277349E+03  0.12633327921E+04  0.90868788555E+03 0.  0.
         23    2    4    4    0    0  0.20684258960E+03  0.31264624764E+03 -0.87292462414E+02  0.39565051500E+03  0.91585058762E+02 0.  0.
         23    2    4    4    0    0 -0.73441604395E+02 -0.36439562122E+03 -0.77863031107E+03  0.86768227707E+03  0.91812496936E+02 0.  0.
          4    1    3    3  502    0  0.10016661784E+02  0.91237959425E+01 -0.20660757917E+02  0.24707166640E+02  0.00000000000E+00 0. -1.
         -3    1    3    3    0  502 -0.14341764699E+03  0.42625577641E+02 -0.25816996406E+03  0.29839117225E+03  0.00000000000E+00 0.  1.
         13    1    5    5    0    0  0.23130238138E+01  0.16225976387E+02 -0.25409966140E+02  0.30237373697E+02  0.00000000000E+00 0. -1.
        -13    1    5    5    0    0  0.20452956579E+03  0.29642027125E+03 -0.61882496273E+02  0.36541314130E+03  0.00000000000E+00 0.  1.
          2    1    6    6  503    0 -0.48270408876E+02 -0.14972836213E+03 -0.42557941457E+03  0.45372508516E+03  0.00000000000E+00 0. -1.
         -2    1    6    6    0  503 -0.25171195519E+02 -0.21466725909E+03 -0.35305089651E+03  0.41395719191E+03  0.00000000000E+00 0.  1.
<mgrwt>
<rscale>  0 0.10983183E+04</rscale>
<asrwt>0</asrwt>
<pdfrwt beam="1">  1        2 0.33975203E-01 0.10983183E+04</pdfrwt>
<pdfrwt beam="2">  1       -1 0.21009112E+00 0.10983183E+04</pdfrwt>
<totfact> 0.22656388E+01</totfact>
</mgrwt>
</event>
<event>
12    7  0.1741211E-007  0.1219052E+04  0.7818608E-02  0.9096342E-01
         -1   -1    0    0    0  501 -0.00000000000E+00  0.00000000000E+00  0.21635729041E+03  0.21635729041E+03  0.00000000000E+00 0.  1.
          2   -1    0    0  501    0  0.00000000000E+00 -0.00000000000E+00 -0.17171695030E+04  0.17171695030E+04  0.00000000000E+00 0. -1.
         24    2    1    2    0    0 -0.26845740446E+03  0.10766151940E+02 -0.40348939218E+03  0.49150742736E+03  0.81182347325E+02 0.  0.
        254    2    1    2    0    0  0.26845740446E+03 -0.10766151940E+02 -0.10973228204E+04  0.14420193660E+04  0.89616806003E+03 0.  0.
         23    2    4    4    0    0  0.30810453563E+03 -0.12894254274E+03 -0.13168414399E+02  0.34671001798E+03  0.92086075071E+02 0.  0.
         23    2    4    4    0    0 -0.39647131167E+02  0.11817639081E+03 -0.10841544060E+04  0.10953093481E+04  0.93670900234E+02 0.  0.
          4    1    3    3  502    0 -0.22689234541E+03  0.92823074970E+00 -0.38046458568E+03  0.44298340711E+03  0.00000000000E+00 0. -1.
         -3    1    3    3    0  502 -0.41565059050E+02  0.98379211901E+01 -0.23024806491E+02  0.48524020249E+02  0.00000000000E+00 0.  1.
         13    1    5    5    0    0  0.16710157405E+03 -0.10709095235E+03 -0.37443110151E+02  0.20197374736E+03  0.00000000000E+00 0. -1.
        -13    1    5    5    0    0  0.14100296158E+03 -0.21851590390E+02  0.24274695752E+02  0.14473627062E+03  0.00000000000E+00 0.  1.
          3    1    6    6  503    0 -0.38166944352E+02  0.10682920064E+03 -0.57809356006E+03  0.58911913730E+03  0.00000000000E+00 0. -1.
         -3    1    6    6    0  503 -0.14801868141E+01  0.11347190163E+02 -0.50606084594E+03  0.50619021076E+03  0.00000000000E+00 0.  1.
<mgrwt>
<rscale>  0 0.12190523E+04</rscale>
<asrwt>0</asrwt>
<pdfrwt beam="1">  1        2 0.26417993E+00 0.12190523E+04</pdfrwt>
<pdfrwt beam="2">  1       -1 0.33285737E-01 0.12190523E+04</pdfrwt>
<totfact> 0.91433304E+01</totfact>
</mgrwt>
</event>
<event>
12    7  0.1741211E-007  0.2421907E+04  0.7818608E-02  0.8431347E-01
          2   -1    0    0  501    0  0.00000000000E+00  0.00000000000E+00  0.24672857815E+04  0.24672857815E+04  0.00000000000E+00 0. -1.
         -1   -1    0    0    0  501 -0.00000000000E+00 -0.00000000000E+00 -0.59434064380E+03  0.59434064380E+03  0.00000000000E+00 0.  1.
         24    2    1    2    0    0  0.31379063933E+03  0.94793604768E+03  0.43683260964E+03  0.10927640417E+04  0.79140420345E+02 0.  0.
        254    2    1    2    0    0 -0.31379063933E+03 -0.94793604768E+03  0.14361125281E+04  0.19688623836E+04  0.90385428948E+03 0.  0.
         23    2    4    4    0    0 -0.31750117397E+03  0.31662553682E+02  0.56354955111E+03  0.65367869185E+03  0.88871946322E+02 0.  0.
         23    2    4    4    0    0  0.37105346360E+01 -0.97959860136E+03  0.87256297698E+03  0.13151836918E+04  0.93353128199E+02 0.  0.
          4    1    3    3  502    0  0.57710743567E+02  0.16694880712E+03  0.45230621518E+02  0.18234100813E+03  0.00000000000E+00 0. -1.
         -3    1    3    3    0  502  0.25607989577E+03  0.78098724055E+03  0.39160198812E+03  0.91042303355E+03  0.00000000000E+00 0.  1.
         13    1    5    5    0    0 -0.28310971221E+03  0.49134866704E+01  0.44574775393E+03  0.52807794087E+03  0.00000000000E+00 0.  1.
        -13    1    5    5    0    0 -0.34391461762E+02  0.26749067012E+02  0.11780179718E+03  0.12560075098E+03  0.00000000000E+00 0. -1.
          3    1    6    6  503    0  0.43322575671E+02 -0.62911503693E+03  0.58358575559E+03  0.85920597611E+03  0.00000000000E+00 0. -1.
         -3    1    6    6    0  503 -0.39612041035E+02 -0.35048356442E+03  0.28897722139E+03  0.45597771569E+03  0.00000000000E+00 0.  1.
<mgrwt>
<rscale>  0 0.24219069E+04</rscale>
<asrwt>0</asrwt>
<pdfrwt beam="1">  1        2 0.37958242E+00 0.24219069E+04</pdfrwt>
<pdfrwt beam="2">  1       -1 0.91437024E-01 0.24219069E+04</pdfrwt>
<totfact> 0.43297220E+00</totfact>
</mgrwt>
</event>
<event>
12    7  0.1741211E-007  0.1307878E+04  0.7818608E-02  0.9023341E-01
         -1   -1    0    0    0  501 -0.00000000000E+00  0.00000000000E+00  0.27656268716E+03  0.27656268716E+03  0.00000000000E+00 0.  1.
          2   -1    0    0  501    0  0.00000000000E+00 -0.00000000000E+00 -0.15462548652E+04  0.15462548652E+04  0.00000000000E+00 0. -1.
         24    2    1    2    0    0  0.32430614101E+03 -0.20169359025E+01 -0.46248931304E+03  0.57062133475E+03  0.80831935956E+02 0.  0.
        254    2    1    2    0    0 -0.32430614101E+03  0.20169359025E+01 -0.80720286504E+03  0.12521962177E+04  0.90068882587E+03 0.  0.
         23    2    4    4    0    0 -0.51416474862E+03 -0.21488186076E+03 -0.76281754045E+03  0.94853358587E+03  0.85356667578E+02 0.  0.
         23    2    4    4    0    0  0.18985860760E+03  0.21689879666E+03 -0.44385324588E+02  0.30366263178E+03  0.84555059139E+02 0.  0.
          4    1    3    3  502    0  0.15629174693E+03  0.12629965378E+02 -0.28819009192E+03  0.32808559137E+03  0.00000000000E+00 0. -1.
         -3    1    3    3    0  502  0.16801439408E+03 -0.14646901281E+02 -0.17429922112E+03  0.24253574338E+03  0.00000000000E+00 0.  1.
         13    1    5    5    0    0 -0.15091919662E+03 -0.23857480786E+02 -0.22600759161E+03  0.27280985093E+03  0.00000000000E+00 0. -1.
        -13    1    5    5    0    0 -0.36324555200E+03 -0.19102437997E+03 -0.53680994884E+03  0.67572373495E+03  0.00000000000E+00 0.  1.
          3    1    6    6  503    0  0.60357297620E+02  0.12400879767E+03 -0.42369664074E+02  0.14427880548E+03  0.00000000000E+00 0. -1.
         -3    1    6    6    0  503  0.12950130998E+03  0.92889998992E+02 -0.20156605144E+01  0.15938382630E+03  0.00000000000E+00 0.  1.
<mgrwt>
<rscale>  0 0.13078783E+04</rscale>
<asrwt>0</asrwt>
<pdfrwt beam="1">  1        2 0.23788536E+00 0.13078783E+04</pdfrwt>
<pdfrwt beam="2">  1       -1 0.42548106E-01 0.13078783E+04</pdfrwt>
<totfact> 0.72511262E+01</totfact>
</mgrwt>
</event>
<event>
12    7  0.1741211E-007  0.1346241E+04  0.7818608E-02  0.8993678E-01
          2   -1    0    0  501    0  0.00000000000E+00  0.00000000000E+00  0.86740724676E+03  0.86740724676E+03  0.00000000000E+00 0. -1.
         -1   -1    0    0    0  501 -0.00000000000E+00 -0.00000000000E+00 -0.52235148338E+03  0.52235148338E+03  0.00000000000E+00 0.  1.
         24    2    1    2    0    0 -0.31940816721E+03 -0.17897078202E+03  0.16629794859E+03  0.41005228242E+03  0.80223117084E+02 0.  0.
        254    2    1    2    0    0  0.31940816721E+03  0.17897078202E+03  0.17875781479E+03  0.97970644772E+03  0.89096478565E+03 0.  0.
         23    2    4    4    0    0  0.43181598473E+03  0.35706236971E+03 -0.14100809561E+03  0.58541884948E+03  0.94198544416E+02 0.  0.
         23    2    4    4    0    0 -0.11240781752E+03 -0.17809158769E+03  0.31976591041E+03  0.39428759824E+03  0.94129387683E+02 0.  0.
          4    1    3    3  502    0 -0.28050450984E+03 -0.16093316831E+03  0.17282710810E+03  0.36667625229E+03  0.00000000000E+00 0. -1.
         -3    1    3    3    0  502 -0.38903657377E+02 -0.18037613710E+02 -0.65291595147E+01  0.43376030127E+02  0.00000000000E+00 0.  1.
         13    1    5    5    0    0  0.46901046084E+02  0.80751381493E+01 -0.21819258856E+02  0.52354522602E+02  0.00000000000E+00 0. -1.
        -13    1    5    5    0    0  0.38491493865E+03  0.34898723156E+03 -0.11918883676E+03  0.53306432688E+03  0.00000000000E+00 0.  1.
          1    1    6    6  503    0 -0.20781236330E+02  0.74873369794E+01  0.46609164685E+02  0.51578427963E+02  0.00000000000E+00 0. -1.
         -1    1    6    6    0  503 -0.91626581186E+02 -0.18557892467E+03  0.27315674572E+03  0.34270917028E+03  0.00000000000E+00 0.  1.
<mgrwt>
<rscale>  0 0.13462414E+04</rscale>
<asrwt>0</asrwt>
<pdfrwt beam="1">  1        2 0.13344727E+00 0.13462414E+04</pdfrwt>
<pdfrwt beam="2">  1       -1 0.80361767E-01 0.13462414E+04</pdfrwt>
<totfact> 0.53199478E+01</totfact>
</mgrwt>
</event>
<event>
12    7  0.1741211E-007  0.1403199E+04  0.7818608E-02  0.8951506E-01
         -1   -1    0    0    0  501 -0.00000000000E+00  0.00000000000E+00  0.84929701618E+03  0.84929701618E+03  0.00000000000E+00 0.  1.
          2   -1    0    0  501    0  0.00000000000E+00 -0.00000000000E+00 -0.57958707516E+03  0.57958707516E+03  0.00000000000E+00 0. -1.
         24    2    1    2    0    0  0.15087980449E+03 -0.17435244744E+03 -0.26471995392E+03  0.35995691806E+03  0.79553991245E+02 0.  0.
        254    2    1    2    0    0 -0.15087980449E+03  0.17435244744E+03  0.53442989494E+03  0.10689271733E+04  0.89656371655E+03 0.  0.
         23    2    4    4    0    0  0.44369108286E+02  0.26399213056E+03 -0.16801810820E+03  0.32892183067E+03  0.91098974977E+02 0.  0.
         23    2    4    4    0    0 -0.19524891278E+03 -0.89639683114E+02  0.70244800314E+03  0.74000534261E+03  0.89539372576E+02 0.  0.
          2    1    3    3  502    0  0.44611163704E+02 -0.35854576783E+02 -0.12094011930E+03  0.13379917436E+03  0.00000000000E+00 0. -1.
         -1    1    3    3    0  502  0.10626864079E+03 -0.13849787066E+03 -0.14377983463E+03  0.22615774370E+03  0.00000000000E+00 0.  1.
         13    1    5    5    0    0  0.43629602087E+02  0.19360932825E+03 -0.74749739320E+02  0.21207460407E+03  0.00000000000E+00 0. -1.
        -13    1    5    5    0    0  0.73950619948E+00  0.70382802305E+02 -0.93268368880E+02  0.11684722660E+03  0.00000000000E+00 0.  1.
          2    1    6    6  503    0 -0.14784379696E+03 -0.96470153244E+02  0.45665922608E+03  0.48959363510E+03  0.00000000000E+00 0. -1.
         -2    1    6    6    0  503 -0.47405115821E+02  0.68304701299E+01  0.24578877706E+03  0.25041170751E+03  0.00000000000E+00 0.  1.
<mgrwt>
<rscale>  0 0.14031986E+04</rscale>
<asrwt>0</asrwt>
<pdfrwt beam="1">  1        2 0.89167243E-01 0.14031986E+04</pdfrwt>
<pdfrwt beam="2">  1       -1 0.13066108E+00 0.14031986E+04</pdfrwt>
<totfact> 0.28801586E+01</totfact>
</mgrwt>
</event>
<event>
12    7  0.1741211E-007  0.1133556E+04  0.7818608E-02  0.9173089E-01
         -1   -1    0    0    0  501 -0.00000000000E+00  0.00000000000E+00  0.38805150433E+03  0.38805150433E+03  0.00000000000E+00 0.  1.
          2   -1    0    0  501    0  0.00000000000E+00 -0.00000000000E+00 -0.82782134393E+03  0.82782134393E+03  0.00000000000E+00 0. -1.
         24    2    1    2    0    0  0.46273811944E+02  0.34683932045E+02 -0.27970978224E+03  0.29703025188E+03  0.81517896427E+02 0.  0.
        254    2    1    2    0    0 -0.46273811944E+02 -0.34683932045E+02 -0.16006005736E+03  0.91884259639E+03  0.90294421431E+03 0.  0.
         23    2    4    4    0    0 -0.26535280525E+03 -0.29785732296E+03  0.16162355855E+03  0.44015255296E+03  0.92092340072E+02 0.  0.
         23    2    4    4    0    0  0.21907899331E+03  0.26317339092E+03 -0.32168361592E+03  0.47869004343E+03  0.91694983120E+02 0.  0.
          2    1    3    3  502    0  0.32513809229E+02  0.32798859822E+01 -0.24858454783E+03  0.25072331935E+03  0.00000000000E+00 0. -1.
         -1    1    3    3    0  502  0.13760002715E+02  0.31404046063E+02 -0.31125234403E+02  0.46306932532E+02  0.00000000000E+00 0.  1.
         13    1    5    5    0    0 -0.22210495945E+03 -0.22201516218E+03  0.16086240323E+03  0.35284282340E+03  0.00000000000E+00 0. -1.
        -13    1    5    5    0    0 -0.43247845805E+02 -0.75842160780E+02  0.76115531908E+00  0.87309729560E+02  0.00000000000E+00 0.  1.
          3    1    6    6  503    0  0.20733069909E+03  0.23034564662E+03 -0.24711375771E+03  0.39637147343E+03  0.00000000000E+00 0. -1.
         -3    1    6    6    0  503  0.11748294219E+02  0.32827744297E+02 -0.74569858205E+02  0.82318569991E+02  0.00000000000E+00 0.  1.
<mgrwt>
<rscale>  0 0.11335560E+04</rscale>
<asrwt>0</asrwt>
<pdfrwt beam="1">  1        2 0.12735713E+00 0.11335560E+04</pdfrwt>
<pdfrwt beam="2">  1       -1 0.59700231E-01 0.11335560E+04</pdfrwt>
<totfact> 0.10585433E+02</totfact>
</mgrwt>
</event>
<event>
12    7  0.1741211E-007  0.2400770E+04  0.7818608E-02  0.8439215E-01
         -1   -1    0    0    0  501 -0.00000000000E+00  0.00000000000E+00  0.14987396828E+04  0.14987396828E+04  0.00000000000E+00 0.  1.
          2   -1    0    0  501    0  0.00000000000E+00 -0.00000000000E+00 -0.96142380726E+03  0.96142380726E+03  0.00000000000E+00 0. -1.
         24    2    1    2    0    0 -0.14039766150E+03  0.76825004882E+03  0.91448615913E+03  0.12061366960E+04  0.92526500948E+02 0.  0.
        254    2    1    2    0    0  0.14039766150E+03 -0.76825004882E+03 -0.37717028355E+03  0.12540267941E+04  0.90576273747E+03 0.  0.
         23    2    4    4    0    0 -0.32219301507E+03 -0.11750232475E+03  0.23164623888E+02  0.35619262746E+03  0.93388718667E+02 0.  0.
         23    2    4    4    0    0  0.46259067657E+03 -0.65074772407E+03 -0.40033490744E+03  0.89783416662E+03  0.91517310854E+02 0.  0.
          4    1    3    3  502    0 -0.75389686599E+01  0.92392098202E+02  0.68807464829E+02  0.11544523842E+03  0.00000000000E+00 0. -1.
         -3    1    3    3    0  502 -0.13285869284E+03  0.67585795062E+03  0.84567869430E+03  0.10906914576E+04  0.00000000000E+00 0.  1.
         13    1    5    5    0    0 -0.13524695287E+03 -0.97170901129E+02  0.23206911143E+02  0.16814423276E+03  0.00000000000E+00 0.  1.
        -13    1    5    5    0    0 -0.18694606220E+03 -0.20331423616E+02 -0.42287254895E-01  0.18804839469E+03  0.00000000000E+00 0. -1.
          4    1    6    6  503    0 -0.41855281311E+01 -0.10449093363E+02 -0.51799637185E+01  0.12390892703E+02  0.00000000000E+00 0. -1.
         -4    1    6    6    0  503  0.46677620470E+03 -0.64029863071E+03 -0.39515494372E+03  0.88544327391E+03  0.00000000000E+00 0.  1.
<mgrwt>
<rscale>  0 0.24007699E+04</rscale>
<asrwt>0</asrwt>
<pdfrwt beam="1">  1        2 0.14791136E+00 0.24007699E+04</pdfrwt>
<pdfrwt beam="2">  1       -1 0.23057534E+00 0.24007699E+04</pdfrwt>
<totfact> 0.25598747E+00</totfact>
</mgrwt>
</event>
<event>
12    7  0.1741211E-007  0.1625457E+04  0.7818608E-02  0.8805060E-01
          2   -1    0    0  501    0  0.00000000000E+00  0.00000000000E+00  0.44150129964E+04  0.44150129964E+04  0.00000000000E+00 0. -1.
         -3   -1    0    0    0  501 -0.00000000000E+00 -0.00000000000E+00 -0.14960948542E+03  0.14960948542E+03  0.00000000000E+00 0.  1.
         24    2    1    2    0    0 -0.37533713210E+02 -0.47461871117E+02 -0.77426468010E+02  0.12304545284E+03  0.74053471755E+02 0.  0.
        254    2    1    2    0    0  0.37533713210E+02  0.47461871117E+02  0.43428299790E+04  0.44415770290E+04  0.92939381807E+03 0.  0.
         23    2    4    4    0    0  0.79746416802E+02  0.49266933556E+02  0.40353446003E+02  0.13791242090E+03  0.92761594952E+02 0.  0.
         23    2    4    4    0    0 -0.42212703591E+02 -0.18050624389E+01  0.43024765330E+04  0.43036646081E+04  0.91867139585E+02 0.  0.
          4    1    3    3  502    0 -0.55686662741E+02 -0.14202399798E+02 -0.42085747730E+02  0.71231472884E+02  0.00000000000E+00 0. -1.
         -3    1    3    3    0  502  0.18152949530E+02 -0.33259471319E+02 -0.35340720280E+02  0.51813979957E+02  0.00000000000E+00 0.  1.
         13    1    5    5    0    0  0.20963095032E+02  0.42534431576E+01  0.57984112166E+02  0.61803724772E+02  0.00000000000E+00 0. -1.
        -13    1    5    5    0    0  0.58783321770E+02  0.45013490399E+02 -0.17630666163E+02  0.76108696123E+02  0.00000000000E+00 0.  1.
          3    1    6    6  503    0  0.13597107547E+02 -0.13123023849E+02  0.22550174449E+03  0.22629213830E+03  0.00000000000E+00 0. -1.
         -3    1    6    6    0  503 -0.55809811138E+02  0.11317961410E+02  0.40769747885E+04  0.40773724698E+04  0.00000000000E+00 0.  1.
<mgrwt>
<rscale>  0 0.16254573E+04</rscale>
<asrwt>0</asrwt>
<pdfrwt beam="1">  1        2 0.67923267E+00 0.16254573E+04</pdfrwt>
<pdfrwt beam="2">  1       -3 0.23016847E-01 0.16254573E+04</pdfrwt>
<totfact> 0.17020615E+00</totfact>
</mgrwt>
</event>
<event>
12    7  0.1741211E-007  0.1698402E+04  0.7818608E-02  0.8762276E-01
         -3   -1    0    0    0  501 -0.00000000000E+00  0.00000000000E+00  0.21867073060E+04  0.21867073060E+04  0.00000000000E+00 0.  1.
          2   -1    0    0  501    0  0.00000000000E+00 -0.00000000000E+00 -0.32978446932E+03  0.32978446932E+03  0.00000000000E+00 0. -1.
         24    2    1    2    0    0 -0.53202944959E+03 -0.61119496688E+02  0.11025158574E+04  0.12290578172E+04  0.90834872045E+02 0.  0.
        254    2    1    2    0    0  0.53202944959E+03  0.61119496688E+02  0.75440697928E+03  0.12874339582E+04  0.89530183634E+03 0.  0.
         23    2    4    4    0    0  0.44995386889E+03  0.72990628983E+02 -0.55331408982E+02  0.46837772603E+03  0.92358071530E+02 0.  0.
         23    2    4    4    0    0  0.82075580696E+02 -0.11871132295E+02  0.80973838826E+03  0.81905623213E+03  0.91101752131E+02 0.  0.
          2    1    3    3  502    0 -0.36255744486E+03 -0.60736231754E+01  0.79167177758E+03  0.87076345419E+03  0.00000000000E+00 0. -1.
         -1    1    3    3    0  502 -0.16947200472E+03 -0.55045873513E+02  0.31084407983E+03  0.35829436298E+03  0.00000000000E+00 0.  1.
         13    1    5    5    0    0  0.66281896495E+02  0.40692099476E+02  0.79559188498E+01  0.78182052976E+02  0.00000000000E+00 0. -1.
        -13    1    5    5    0    0  0.38367197239E+03  0.32298529507E+02 -0.63287327831E+02  0.39019567306E+03  0.00000000000E+00 0.  1.
          3    1    6    6  503    0  0.25651163486E+02 -0.42170410100E+02  0.20159071899E+03  0.20754552189E+03  0.00000000000E+00 0. -1.
         -3    1    6    6    0  503  0.56424417210E+02  0.30299277804E+02  0.60814766928E+03  0.61151071024E+03  0.00000000000E+00 0.  1.
<mgrwt>
<rscale>  0 0.16984017E+04</rscale>
<asrwt>0</asrwt>
<pdfrwt beam="1">  1        2 0.50736074E-01 0.16984017E+04</pdfrwt>
<pdfrwt beam="2">  1       -3 0.33641650E+00 0.16984017E+04</pdfrwt>
<totfact> 0.13936921E+00</totfact>
</mgrwt>
</event>
<event>
12    7  0.1741211E-007  0.1537923E+04  0.7818608E-02  0.8859619E-01
         -1   -1    0    0    0  501 -0.00000000000E+00  0.00000000000E+00  0.10863145658E+03  0.10863145658E+03  0.00000000000E+00 0.  1.
          2   -1    0    0  501    0  0.00000000000E+00 -0.00000000000E+00 -0.54431911714E+04  0.54431911714E+04  0.00000000000E+00 0. -1.
         24    2    1    2    0    0  0.29245848001E+03 -0.12798209940E+03 -0.36435578906E+03  0.49106506614E+03  0.80488370962E+02 0.  0.
        254    2    1    2    0    0 -0.29245848001E+03  0.12798209940E+03 -0.49702039258E+04  0.50607575619E+04  0.89801372810E+03 0.  0.
         23    2    4    4    0    0  0.23653130435E+03 -0.16216464180E+03 -0.10110877551E+04  0.10548782277E+04  0.90692876749E+02 0.  0.
         23    2    4    4    0    0 -0.52898978437E+03  0.29014674121E+03 -0.39591161707E+04  0.40058793342E+04  0.91940541186E+02 0.  0.
          4    1    3    3  502    0  0.56931538864E+02 -0.99853488665E+01 -0.29156396109E+02  0.64737954427E+02  0.00000000000E+00 0. -1.
         -3    1    3    3    0  502  0.23552694115E+03 -0.11799675054E+03 -0.33519939296E+03  0.42632711171E+03  0.00000000000E+00 0.  1.
         13    1    5    5    0    0  0.23712652488E+02  0.10909162999E+02 -0.10363386487E+03  0.10687037790E+03  0.00000000000E+00 0. -1.
        -13    1    5    5    0    0  0.21281865186E+03 -0.17307380480E+03 -0.90745389020E+03  0.94800784983E+03  0.00000000000E+00 0.  1.
          1    1    6    6  503    0 -0.34421045342E+03  0.13871180081E+03 -0.23481766763E+04  0.23773210770E+04  0.00000000000E+00 0. -1.
         -1    1    6    6    0  503 -0.18477933095E+03  0.15143494039E+03 -0.16109394944E+04  0.16285582572E+04  0.00000000000E+00 0.  1.
<mgrwt>
<rscale>  0 0.15379230E+04</rscale>
<asrwt>0</asrwt>
<pdfrwt beam="1">  1        2 0.83741419E+00 0.15379230E+04</pdfrwt>
<pdfrwt beam="2">  1       -1 0.16712529E-01 0.15379230E+04</pdfrwt>
<totfact> 0.24521973E-01</totfact>
</mgrwt>
</event>
<event>
12    7  0.1741211E-007  0.1814219E+04  0.7818608E-02  0.8698775E-01
          2   -1    0    0  501    0  0.00000000000E+00  0.00000000000E+00  0.23330264260E+04  0.23330264260E+04  0.00000000000E+00 0. -1.
         -1   -1    0    0    0  501 -0.00000000000E+00 -0.00000000000E+00 -0.35269523068E+03  0.35269523068E+03  0.00000000000E+00 0.  1.
         24    2    1    2    0    0 -0.10139837189E+03  0.10651282066E+03  0.17307948068E+04  0.17386986273E+04  0.76129117425E+02 0.  0.
        254    2    1    2    0    0  0.10139837189E+03 -0.10651282066E+03  0.24953638849E+03  0.94702302935E+03  0.90164161293E+03 0.  0.
         23    2    4    4    0    0  0.37007261194E+03 -0.34682691790E+03  0.32262633621E+02  0.51623832443E+03  0.90655838164E+02 0.  0.
         23    2    4    4    0    0 -0.26867424005E+03  0.24031409724E+03  0.21727375487E+03  0.43078470492E+03  0.91819741018E+02 0.  0.
          4    1    3    3  502    0 -0.48633796304E+02  0.31763959978E+02  0.10729796330E+04  0.10745508308E+04  0.00000000000E+00 0. -1.
         -3    1    3    3    0  502 -0.52764575585E+02  0.74748860677E+02  0.65781517384E+03  0.66414779646E+03  0.00000000000E+00 0.  1.
         13    1    5    5    0    0  0.32100920581E+03 -0.25281551573E+03  0.35457085909E+02  0.41014607172E+03  0.00000000000E+00 0.  1.
        -13    1    5    5    0    0  0.49063406130E+02 -0.94011402167E+02 -0.31944522879E+01  0.10609225270E+03  0.00000000000E+00 0. -1.
          2    1    6    6  503    0 -0.17098634661E+03  0.13416393043E+03  0.79842325182E+02  0.23154068292E+03  0.00000000000E+00 0.  1.
         -2    1    6    6    0  503 -0.97687893441E+02  0.10615016681E+03  0.13743142969E+03  0.19924402200E+03  0.00000000000E+00 0. -1.
<mgrwt>
<rscale>  0 0.18142186E+04</rscale>
<asrwt>0</asrwt>
<pdfrwt beam="1">  1        2 0.35892713E+00 0.18142186E+04</pdfrwt>
<pdfrwt beam="2">  1       -1 0.54260806E-01 0.18142186E+04</pdfrwt>
<totfact> 0.15999529E+01</totfact>
</mgrwt>
</event>
<event>
12    7  0.1741211E-007  0.1451020E+04  0.7818608E-02  0.8917694E-01
          2   -1    0    0  501    0  0.00000000000E+00  0.00000000000E+00  0.12039763335E+04  0.12039763335E+04  0.00000000000E+00 0. -1.
         -1   -1    0    0    0  501 -0.00000000000E+00 -0.00000000000E+00 -0.43718869822E+03  0.43718869822E+03  0.00000000000E+00 0.  1.
         24    2    1    2    0    0  0.22362523011E+03  0.38520482119E+03  0.33009594161E+03  0.55961770297E+03  0.76273488169E+02 0.  0.
        254    2    1    2    0    0 -0.22362523011E+03 -0.38520482119E+03  0.43669169372E+03  0.10815473288E+04  0.88354625871E+03 0.  0.
         23    2    4    4    0    0  0.24641943023E+03 -0.10355993894E+03  0.44383676424E+03  0.52580856020E+03  0.89645814930E+02 0.  0.
         23    2    4    4    0    0 -0.47004466034E+03 -0.28164488225E+03 -0.71450705269E+01  0.55573876861E+03  0.92350985319E+02 0.  0.
          4    1    3    3  502    0  0.21968838559E+02  0.74452598392E+02  0.31352088948E+02  0.83718413485E+02  0.00000000000E+00 0. -1.
         -3    1    3    3    0  502  0.20165639155E+03  0.31075222280E+03  0.29874385266E+03  0.47589928948E+03  0.00000000000E+00 0.  1.
         13    1    5    5    0    0  0.25335827211E+03 -0.95071356262E+02  0.43118507824E+03  0.50906733202E+03  0.00000000000E+00 0. -1.
        -13    1    5    5    0    0 -0.69388418729E+01 -0.84885826779E+01  0.12651685999E+02  0.16741228181E+02  0.00000000000E+00 0.  1.
          3    1    6    6  503    0 -0.10960819611E+03 -0.10728105020E+03  0.18703938622E+02  0.15450895672E+03  0.00000000000E+00 0. -1.
         -3    1    6    6    0  503 -0.36043646423E+03 -0.17436383205E+03 -0.25849009149E+02  0.40122981189E+03  0.00000000000E+00 0.  1.
<mgrwt>
<rscale>  0 0.14510201E+04</rscale>
<asrwt>0</asrwt>
<pdfrwt beam="1">  1        2 0.18522713E+00 0.14510201E+04</pdfrwt>
<pdfrwt beam="2">  1       -1 0.67259800E-01 0.14510201E+04</pdfrwt>
<totfact> 0.46635986E+01</totfact>
</mgrwt>
</event>
<event>
12    7  0.1741211E-007  0.1870973E+04  0.7818608E-02  0.8669441E-01
          2   -1    0    0  501    0  0.00000000000E+00  0.00000000000E+00  0.14131600717E+04  0.14131600717E+04  0.00000000000E+00 0. -1.
         -1   -1    0    0    0  501 -0.00000000000E+00 -0.00000000000E+00 -0.61927538575E+03  0.61927538575E+03  0.00000000000E+00 0.  1.
         24    2    1    2    0    0 -0.65685113307E+03  0.30316728817E+03  0.25581995160E+03  0.77037259377E+03  0.68310101470E+02 0.  0.
        254    2    1    2    0    0  0.65685113307E+03 -0.30316728817E+03  0.53806473433E+03  0.12620628637E+04  0.88313373724E+03 0.  0.
         23    2    4    4    0    0 -0.28322242458E+02  0.23546826177E+03  0.49127291511E+02  0.25877165297E+03  0.91114356123E+02 0.  0.
         23    2    4    4    0    0  0.68517337553E+03 -0.53863554994E+03  0.48893744282E+03  0.10032912107E+04  0.89121379391E+02 0.  0.
          4    1    3    3  502    0 -0.39018235672E+03  0.20160084733E+03  0.18360376238E+03  0.47602049820E+03  0.00000000000E+00 0. -1.
         -3    1    3    3    0  502 -0.26666877635E+03  0.10156644084E+03  0.72216189218E+02  0.29435209557E+03  0.00000000000E+00 0.  1.
         13    1    5    5    0    0 -0.18544195672E+02  0.19383538391E+03  0.75140840430E+02  0.20871556997E+03  0.00000000000E+00 0. -1.
        -13    1    5    5    0    0 -0.97780467861E+01  0.41632877859E+02 -0.26013548919E+02  0.50056082998E+02  0.00000000000E+00 0.  1.
          3    1    6    6  503    0  0.28332694087E+02 -0.18818811101E+02  0.12860636723E+01  0.34037378942E+02  0.00000000000E+00 0. -1.
         -3    1    6    6    0  503  0.65684068144E+03 -0.51981673884E+03  0.48765137914E+03  0.96925383174E+03  0.00000000000E+00 0.  1.
<mgrwt>
<rscale>  0 0.18709733E+04</rscale>
<asrwt>0</asrwt>
<pdfrwt beam="1">  1        2 0.21740924E+00 0.18709733E+04</pdfrwt>
<pdfrwt beam="2">  1       -1 0.95273136E-01 0.18709733E+04</pdfrwt>
<totfact> 0.16187109E+01</totfact>
</mgrwt>
</event>
<event>
12    7  0.1741211E-007  0.1618813E+04  0.7818608E-02  0.8809073E-01
         -1   -1    0    0    0  501 -0.00000000000E+00  0.00000000000E+00  0.37804561189E+03  0.37804561189E+03  0.00000000000E+00 0.  1.
          2   -1    0    0  501    0  0.00000000000E+00 -0.00000000000E+00 -0.17329635386E+04  0.17329635386E+04  0.00000000000E+00 0. -1.
         24    2    1    2    0    0  0.38007092714E+03 -0.11715093216E+03  0.32402706363E+02  0.40718139324E+03  0.81046289601E+02 0.  0.
        254    2    1    2    0    0 -0.38007092714E+03  0.11715093216E+03 -0.13873206330E+04  0.17038277572E+04  0.90564465262E+03 0.  0.
         23    2    4    4    0    0 -0.61456912314E+03 -0.13286637185E+03 -0.85948856603E+03  0.10687182996E+04  0.89941808866E+02 0.  0.
         23    2    4    4    0    0  0.23449819600E+03  0.25001730400E+03 -0.52783206701E+03  0.63510945756E+03  0.85201384360E+02 0.  0.
          4    1    3    3  502    0  0.21784427368E+03 -0.10264546539E+03  0.40072386877E+02  0.24412704752E+03  0.00000000000E+00 0. -1.
         -3    1    3    3    0  502  0.16222665346E+03 -0.14505466767E+02 -0.76696805139E+01  0.16305434572E+03  0.00000000000E+00 0.  1.
         13    1    5    5    0    0 -0.58318486599E+03 -0.10387592535E+03 -0.79734510951E+03  0.99330459550E+03  0.00000000000E+00 0. -1.
        -13    1    5    5    0    0 -0.31384257152E+02 -0.28990446493E+02 -0.62143456514E+02  0.75413704141E+02  0.00000000000E+00 0.  1.
          4    1    6    6  503    0  0.12714452984E+03  0.79109001994E+02 -0.19498741568E+03  0.24585373281E+03  0.00000000000E+00 0. -1.
         -4    1    6    6    0  503  0.10735366616E+03  0.17090830201E+03 -0.33284465133E+03  0.38925572475E+03  0.00000000000E+00 0.  1.
<mgrwt>
<rscale>  0 0.16188135E+04</rscale>
<asrwt>0</asrwt>
<pdfrwt beam="1">  1        2 0.26660978E+00 0.16188135E+04</pdfrwt>
<pdfrwt beam="2">  1       -1 0.58160863E-01 0.16188135E+04</pdfrwt>
<totfact> 0.30715567E+01</totfact>
</mgrwt>
</event>
<event>
12    7  0.1741211E-007  0.1832776E+04  0.7818608E-02  0.8689061E-01
          2   -1    0    0  501    0  0.00000000000E+00  0.00000000000E+00  0.21403427326E+04  0.21403427326E+04  0.00000000000E+00 0. -1.
         -1   -1    0    0    0  501 -0.00000000000E+00 -0.00000000000E+00 -0.39235149240E+03  0.39235149240E+03  0.00000000000E+00 0.  1.
         24    2    1    2    0    0 -0.63372314418E+03 -0.26997617288E+03  0.69774597655E+03  0.98368748129E+03  0.79369110251E+02 0.  0.
        254    2    1    2    0    0  0.63372314418E+03  0.26997617288E+03  0.10502452636E+04  0.15490067437E+04  0.90659506992E+03 0.  0.
         23    2    4    4    0    0  0.32563310077E+03  0.38921684615E+03  0.83217948596E+02  0.52232419610E+03  0.91491361449E+02 0.  0.
         23    2    4    4    0    0  0.30809004341E+03 -0.11924067327E+03  0.96702731502E+03  0.10266825476E+04  0.98981879557E+02 0.  0.
          2    1    3    3  502    0 -0.11782985310E+02 -0.97110887171E+01  0.29514479309E+01  0.15551689033E+02  0.00000000000E+00 0. -1.
         -1    1    3    3    0  502 -0.62194015887E+03 -0.26026508416E+03  0.69479452862E+03  0.96813579225E+03  0.00000000000E+00 0.  1.
         13    1    5    5    0    0  0.25980695567E+03  0.25054499170E+03  0.41888206762E+02  0.36335529299E+03  0.00000000000E+00 0. -1.
        -13    1    5    5    0    0  0.65826145101E+02  0.13867185445E+03  0.41329741835E+02  0.15896890311E+03  0.00000000000E+00 0.  1.
          1    1    6    6  503    0  0.22850668558E+03 -0.42175693015E+02  0.70107412981E+03  0.73857906139E+03  0.00000000000E+00 0. -1.
         -1    1    6    6    0  503  0.79583357831E+02 -0.77064980259E+02  0.26595318521E+03  0.28810348618E+03  0.00000000000E+00 0.  1.
<mgrwt>
<rscale>  0 0.18327757E+04</rscale>
<asrwt>0</asrwt>
<pdfrwt beam="1">  1        2 0.32928349E+00 0.18327757E+04</pdfrwt>
<pdfrwt beam="2">  1       -1 0.60361769E-01 0.18327757E+04</pdfrwt>
<totfact> 0.16647870E+01</totfact>
</mgrwt>
</event>
<event>
12    7  0.1741211E-007  0.2269985E+04  0.7818608E-02  0.8489851E-01
         -1   -1    0    0    0  501 -0.00000000000E+00  0.00000000000E+00  0.75250812524E+03  0.75250812524E+03  0.00000000000E+00 0.  1.
          2   -1    0    0  501    0  0.00000000000E+00 -0.00000000000E+00 -0.17118851730E+04  0.17118851730E+04  0.00000000000E+00 0. -1.
         24    2    1    2    0    0  0.35751734526E+03 -0.43212198174E+02  0.55629945653E+03  0.66763265528E+03  0.81106909828E+02 0.  0.
        254    2    1    2    0    0 -0.35751734526E+03  0.43212198174E+02 -0.15156765043E+04  0.17967606430E+04  0.89520254480E+03 0.  0.
         23    2    4    4    0    0 -0.38040581178E+02  0.32956213454E+03 -0.17091335234E+03  0.38300997767E+03  0.86179943410E+02 0.  0.
         23    2    4    4    0    0 -0.31947676408E+03 -0.28634993637E+03 -0.13447631520E+04  0.14137506653E+04  0.79002024809E+02 0.  0.
          4    1    3    3  502    0  0.26812178283E+03 -0.40203593846E+01  0.36551434267E+03  0.45332790385E+03  0.00000000000E+00 0. -1.
         -3    1    3    3    0  502  0.89395562429E+02 -0.39191838790E+02  0.19078511386E+03  0.21430475142E+03  0.00000000000E+00 0.  1.
         13    1    5    5    0    0  0.32898883023E+01 -0.49986817967E+00 -0.15504108151E+02  0.15857194039E+02  0.00000000000E+00 0. -1.
        -13    1    5    5    0    0 -0.41330469480E+02  0.33006200272E+03 -0.15540924419E+03  0.36715278363E+03  0.00000000000E+00 0.  1.
          4    1    6    6  503    0 -0.11437063424E+03 -0.63737891056E+02 -0.33825316736E+03  0.36270975443E+03  0.00000000000E+00 0. -1.
         -4    1    6    6    0  503 -0.20510612984E+03 -0.22261204531E+03 -0.10065099846E+04  0.10510409109E+04  0.00000000000E+00 0.  1.
<mgrwt>
<rscale>  0 0.22699846E+04</rscale>
<asrwt>0</asrwt>
<pdfrwt beam="1">  1        2 0.26336695E+00 0.22699846E+04</pdfrwt>
<pdfrwt beam="2">  1       -1 0.11577048E+00 0.22699846E+04</pdfrwt>
<totfact> 0.67514887E+00</totfact>
</mgrwt>
</event>
<event>
12    7  0.1741211E-007  0.1833839E+04  0.7818608E-02  0.8688508E-01
          2   -1    0    0  501    0  0.00000000000E+00  0.00000000000E+00  0.22405111895E+04  0.22405111895E+04  0.00000000000E+00 0. -1.
         -1   -1    0    0    0  501 -0.00000000000E+00 -0.00000000000E+00 -0.37524553186E+03  0.37524553186E+03  0.00000000000E+00 0.  1.
         24    2    1    2    0    0 -0.67033626392E+03 -0.16614241094E+03  0.53468004183E+03  0.87696604392E+03  0.78947372479E+02 0.  0.
        254    2    1    2    0    0  0.67033626392E+03  0.16614241094E+03  0.13305856158E+04  0.17387906774E+04  0.88089779853E+03 0.  0.
         23    2    4    4    0    0  0.55780524269E+03  0.15192014054E+03  0.14409645202E+04  0.15552849399E+04  0.91137686255E+02 0.  0.
         23    2    4    4    0    0  0.11253102123E+03  0.14222270401E+02 -0.11037890441E+03  0.18350573753E+03  0.92872759495E+02 0.  0.
          4    1    3    3  502    0 -0.60718959724E+03 -0.13330648339E+03  0.50007787614E+03  0.79782686575E+03  0.00000000000E+00 0. -1.
         -3    1    3    3    0  502 -0.63146666680E+02 -0.32835927551E+02  0.34602165685E+02  0.79139178168E+02  0.00000000000E+00 0.  1.
         13    1    5    5    0    0  0.15470200148E+03  0.24611333889E+01  0.35042205809E+03  0.38305924507E+03  0.00000000000E+00 0. -1.
        -13    1    5    5    0    0  0.40310324121E+03  0.14945900715E+03  0.10905424621E+04  0.11722256948E+04  0.00000000000E+00 0.  1.
          3    1    6    6  503    0  0.40378050392E+01  0.17351721433E+02  0.10793736492E+02  0.20830046895E+02  0.00000000000E+00 0. -1.
         -3    1    6    6    0  503  0.10849321619E+03 -0.31294510320E+01 -0.12117264090E+03  0.16267569064E+03  0.00000000000E+00 0.  1.
<mgrwt>
<rscale>  0 0.18338395E+04</rscale>
<asrwt>0</asrwt>
<pdfrwt beam="1">  1        2 0.34469402E+00 0.18338395E+04</pdfrwt>
<pdfrwt beam="2">  1       -1 0.57730083E-01 0.18338395E+04</pdfrwt>
<totfact> 0.15968501E+01</totfact>
</mgrwt>
</event>
<event>
12    7  0.1881326E-007  0.2566437E+04  0.7818608E-02  0.8379692E-01
         -1   -1    0    0    0  501 -0.00000000000E+00  0.00000000000E+00  0.71339058857E+03  0.71339058857E+03  0.00000000000E+00 0.  1.
          2   -1    0    0  501    0  0.00000000000E+00 -0.00000000000E+00 -0.23082017332E+04  0.23082017332E+04  0.00000000000E+00 0. -1.
         24    2    1    2    0    0  0.10675269166E+03  0.11069844235E+04 -0.49105184387E+03  0.12183790040E+04  0.80652544311E+02 0.  0.
        254    2    1    2    0    0 -0.10675269166E+03 -0.11069844235E+04 -0.11037593008E+04  0.18032133178E+04  0.89245897618E+03 0.  0.
         23    2    4    4    0    0 -0.28495492572E+03 -0.10182320697E+04 -0.52304168844E+03  0.11829623177E+04  0.88495083507E+02 0.  0.
         23    2    4    4    0    0  0.17820223406E+03 -0.88752353897E+02 -0.58071761233E+03  0.62025100010E+03  0.88573931316E+02 0.  0.
          4    1    3    3  502    0  0.37594207310E+01  0.11864802782E+03 -0.79309501056E+02  0.14276373737E+03  0.00000000000E+00 0. -1.
         -3    1    3    3    0  502  0.10299327093E+03  0.98833639573E+03 -0.41174234282E+03  0.10756152667E+04  0.00000000000E+00 0.  1.
         13    1    5    5    0    0 -0.10629864138E+02 -0.63853736615E+02 -0.55995109022E+02  0.85590571476E+02  0.00000000000E+00 0. -1.
        -13    1    5    5    0    0 -0.27432506159E+03 -0.95437833304E+03 -0.46704657942E+03  0.10973717462E+04  0.00000000000E+00 0.  1.
          3    1    6    6  503    0 -0.52963199030E+01  0.86536669453E+01 -0.27319122586E+02  0.29142261666E+02  0.00000000000E+00 0. -1.
         -3    1    6    6    0  503  0.18349855396E+03 -0.97406020842E+02 -0.55339848975E+03  0.59110873844E+03  0.00000000000E+00 0.  1.
<mgrwt>
<rscale>  0 0.25664367E+04</rscale>
<asrwt>0</asrwt>
<pdfrwt beam="1">  1        2 0.35510795E+00 0.25664367E+04</pdfrwt>
<pdfrwt beam="2">  1       -1 0.10975240E+00 0.25664367E+04</pdfrwt>
<totfact> 0.34713023E+00</totfact>
</mgrwt>
</event>
<event>
12    7  0.1741211E-007  0.2376011E+04  0.7818608E-02  0.8448540E-01
          2   -1    0    0  501    0  0.00000000000E+00  0.00000000000E+00  0.61311461152E+03  0.61311461152E+03  0.00000000000E+00 0. -1.
         -3   -1    0    0    0  501 -0.00000000000E+00 -0.00000000000E+00 -0.23019470743E+04  0.23019470743E+04  0.00000000000E+00 0.  1.
         24    2    1    2    0    0  0.44576477094E+03  0.43854334358E+03 -0.15822067388E+04  0.17032456785E+04  0.81493446629E+02 0.  0.
        254    2    1    2    0    0 -0.44576477094E+03 -0.43854334358E+03 -0.10662572397E+03  0.12118160073E+04  0.10325223946E+04 0.  0.
         23    2    4    4    0    0 -0.20400685590E+03 -0.72163319451E+03 -0.26030947307E+03  0.79902177847E+03  0.91112655684E+02 0.  0.
         23    2    4    4    0    0 -0.24175791503E+03  0.28308985093E+03  0.15368374910E+03  0.41279422883E+03  0.90518657969E+02 0.  0.
          2    1    3    3  502    0  0.66535862457E+02  0.91521354945E+02 -0.22257399747E+03  0.24968452846E+03  0.00000000000E+00 0. -1.
         -1    1    3    3    0  502  0.37922890848E+03  0.34702198864E+03 -0.13596327413E+04  0.14535611501E+04  0.00000000000E+00 0.  1.
         13    1    5    5    0    0 -0.51897254727E+02 -0.30878505774E+03 -0.13931328854E+03  0.34270939482E+03  0.00000000000E+00 0. -1.
        -13    1    5    5    0    0 -0.15210960118E+03 -0.41284813677E+03 -0.12099618452E+03  0.45631238365E+03  0.00000000000E+00 0.  1.
          2    1    6    6  503    0 -0.74800025480E+01 -0.63040119667E+01 -0.50241341522E+00  0.97950714257E+01  0.00000000000E+00 0. -1.
         -2    1    6    6    0  503 -0.23427791248E+03  0.28939386289E+03  0.15418616251E+03  0.40299915741E+03  0.00000000000E+00 0.  1.
<mgrwt>
<rscale>  0 0.23760113E+04</rscale>
<asrwt>0</asrwt>
<pdfrwt beam="1">  1        2 0.94325327E-01 0.23760113E+04</pdfrwt>
<pdfrwt beam="2">  1       -3 0.35414570E+00 0.23760113E+04</pdfrwt>
<totfact> 0.51466929E-01</totfact>
</mgrwt>
</event>
<event>
12    7  0.1741211E-007  0.1313350E+04  0.7818608E-02  0.9019045E-01
          2   -1    0    0  501    0  0.00000000000E+00  0.00000000000E+00  0.96271072219E+03  0.96271072219E+03  0.00000000000E+00 0. -1.
         -1   -1    0    0    0  501 -0.00000000000E+00 -0.00000000000E+00 -0.44792484407E+03  0.44792484407E+03  0.00000000000E+00 0.  1.
         24    2    1    2    0    0  0.12030365575E+03  0.27845647728E+03 -0.43215551652E+02  0.31723679643E+03  0.82223000297E+02 0.  0.
        254    2    1    2    0    0 -0.12030365575E+03 -0.27845647728E+03  0.55800142978E+03  0.10933987698E+04  0.89002488443E+03 0.  0.
         23    2    4    4    0    0  0.10011627850E+03  0.11163639406E+03 -0.16318743800E+03  0.23992173667E+03  0.91904004845E+02 0.  0.
         23    2    4    4    0    0 -0.22041993425E+03 -0.39009287135E+03  0.72118886778E+03  0.85347703316E+03  0.86903782642E+02 0.  0.
          4    1    3    3  502    0  0.28459202413E+02  0.22829611873E+02  0.14991635304E+02  0.39444473749E+02  0.00000000000E+00 0. -1.
         -3    1    3    3    0  502  0.91844453340E+02  0.25562686541E+03 -0.58207186956E+02  0.27779232268E+03  0.00000000000E+00 0.  1.
         13    1    5    5    0    0 -0.96401801853E+01 -0.81663784431E+01 -0.65332194934E+01  0.14223423211E+02  0.00000000000E+00 0. -1.
        -13    1    5    5    0    0  0.10975645868E+03  0.11980277251E+03 -0.15665421851E+03  0.22569831346E+03  0.00000000000E+00 0.  1.
          2    1    6    6  503    0 -0.98928477840E+02 -0.10736683892E+03  0.27683597960E+03  0.31297386700E+03  0.00000000000E+00 0. -1.
         -2    1    6    6    0  503 -0.12149145641E+03 -0.28272603243E+03  0.44435288818E+03  0.54050316616E+03  0.00000000000E+00 0.  1.
<mgrwt>
<rscale>  0 0.13133500E+04</rscale>
<asrwt>0</asrwt>
<pdfrwt beam="1">  1        2 0.14810934E+00 0.13133500E+04</pdfrwt>
<pdfrwt beam="2">  1       -1 0.68911514E-01 0.13133500E+04</pdfrwt>
<totfact> 0.63416087E+01</totfact>
</mgrwt>
</event>
<event>
12    7  0.1741211E-007  0.1124437E+04  0.7818608E-02  0.9181696E-01
         -1   -1    0    0    0  501 -0.00000000000E+00  0.00000000000E+00  0.22357029514E+03  0.22357029514E+03  0.00000000000E+00 0.  1.
          2   -1    0    0  501    0  0.00000000000E+00 -0.00000000000E+00 -0.14138274432E+04  0.14138274432E+04  0.00000000000E+00 0. -1.
         24    2    1    2    0    0  0.60729108303E+02 -0.92266735186E+02 -0.39926768430E+03  0.42195422572E+03  0.80184224498E+02 0.  0.
        254    2    1    2    0    0 -0.60729108303E+02  0.92266735186E+02 -0.79098946379E+03  0.12154435126E+04  0.91620817809E+03 0.  0.
         23    2    4    4    0    0  0.19692213304E+03  0.29076549598E+03 -0.78780553482E+01  0.36257356914E+03  0.89858940309E+02 0.  0.
         23    2    4    4    0    0 -0.25765124134E+03 -0.19849876079E+03 -0.78311140844E+03  0.85286994351E+03  0.91311238680E+02 0.  0.
          4    1    3    3  502    0  0.22744227337E+02 -0.74089208095E+02 -0.34315429554E+03  0.35179735812E+03  0.00000000000E+00 0. -1.
         -3    1    3    3    0  502  0.37984880966E+02 -0.18177527091E+02 -0.56113388766E+02  0.70156867604E+02  0.00000000000E+00 0.  1.
         13    1    5    5    0    0  0.20716082737E+02  0.83668494508E+02  0.22178247557E+02  0.89002515256E+02  0.00000000000E+00 0.  1.
        -13    1    5    5    0    0  0.17620605030E+03  0.20709700147E+03 -0.30056302905E+02  0.27357105389E+03  0.00000000000E+00 0. -1.
          4    1    6    6  503    0 -0.94411844193E+02 -0.31101383237E+02 -0.17350988916E+03  0.19996643219E+03  0.00000000000E+00 0.  1.
         -4    1    6    6    0  503 -0.16323939715E+03 -0.16739737755E+03 -0.60960151928E+03  0.65290351132E+03  0.00000000000E+00 0. -1.
<mgrwt>
<rscale>  0 0.11244373E+04</rscale>
<asrwt>0</asrwt>
<pdfrwt beam="1">  1        2 0.21751191E+00 0.11244373E+04</pdfrwt>
<pdfrwt beam="2">  1       -1 0.34395430E-01 0.11244373E+04</pdfrwt>
<totfact> 0.12841751E+02</totfact>
</mgrwt>
</event>
<event>
12    7  0.1741211E-007  0.1520469E+04  0.7818608E-02  0.8870954E-01
          2   -1    0    0  501    0  0.00000000000E+00  0.00000000000E+00  0.57864497340E+03  0.57864497340E+03  0.00000000000E+00 0. -1.
         -1   -1    0    0    0  501 -0.00000000000E+00 -0.00000000000E+00 -0.99881079549E+03  0.99881079549E+03  0.00000000000E+00 0.  1.
         24    2    1    2    0    0 -0.13302979516E+03  0.11437515238E+03 -0.61592953133E+03  0.64668536439E+03  0.89745033636E+02 0.  0.
        254    2    1    2    0    0  0.13302979516E+03 -0.11437515238E+03  0.19576370925E+03  0.93077040450E+03  0.89287821911E+03 0.  0.
         23    2    4    4    0    0  0.30465343161E+03 -0.22103977407E+03 -0.23050165421E+03  0.45001398193E+03  0.87802484152E+02 0.  0.
         23    2    4    4    0    0 -0.17162363645E+03  0.10666462169E+03  0.42626536346E+03  0.48075642258E+03  0.92696082199E+02 0.  0.
          2    1    3    3  502    0 -0.67699880190E+02  0.95916696752E+02 -0.27417933638E+03  0.29825759838E+03  0.00000000000E+00 0. -1.
         -1    1    3    3    0  502 -0.65329914973E+02  0.18458455624E+02 -0.34175019495E+03  0.34842776601E+03  0.00000000000E+00 0.  1.
         13    1    5    5    0    0  0.12888590299E+03 -0.85420765544E+02 -0.14542168469E+03  0.21226339664E+03  0.00000000000E+00 0.  1.
        -13    1    5    5    0    0  0.17576752862E+03 -0.13561900852E+03 -0.85079969524E+02  0.23775058529E+03  0.00000000000E+00 0. -1.
          1    1    6    6  503    0  0.11008864810E+02  0.39495199682E+00  0.21153776976E+02  0.23850227919E+02  0.00000000000E+00 0. -1.
         -1    1    6    6    0  503 -0.18263250126E+03  0.10626966969E+03  0.40511158648E+03  0.45690619466E+03  0.00000000000E+00 0.  1.
<mgrwt>
<rscale>  0 0.15204695E+04</rscale>
<asrwt>0</asrwt>
<pdfrwt beam="1">  1        2 0.89022303E-01 0.15204695E+04</pdfrwt>
<pdfrwt beam="2">  1       -1 0.15366320E+00 0.15204695E+04</pdfrwt>
<totfact> 0.18666628E+01</totfact>
</mgrwt>
</event>
<event>
12    7  0.1741211E-007  0.3286091E+04  0.7818608E-02  0.8166444E-01
          2   -1    0    0  501    0  0.00000000000E+00  0.00000000000E+00  0.98988869045E+03  0.98988869045E+03  0.00000000000E+00 0. -1.
         -1   -1    0    0    0  501 -0.00000000000E+00 -0.00000000000E+00 -0.27271735756E+04  0.27271735756E+04  0.00000000000E+00 0.  1.
         24    2    1    2    0    0 -0.50124545490E+03 -0.35495159815E+03  0.76801480003E+03  0.98676601798E+03  0.81380575586E+02 0.  0.
        254    2    1    2    0    0  0.50124545490E+03  0.35495159815E+03 -0.25052996852E+04  0.27302962481E+04  0.89484828135E+03 0.  0.
         23    2    4    4    0    0 -0.24420358747E+03  0.11384431787E+03 -0.85966945678E+03  0.90544013696E+03  0.90522626197E+02 0.  0.
         23    2    4    4    0    0  0.74544904238E+03  0.24110728028E+03 -0.16456302284E+04  0.18248561112E+04  0.90410078414E+02 0.  0.
          4    1    3    3  502    0 -0.19298300448E+03 -0.14915542007E+03  0.36740918814E+03  0.44099806222E+03  0.00000000000E+00 0. -1.
         -3    1    3    3    0  502 -0.30826245042E+03 -0.20579617808E+03  0.40060561189E+03  0.54576795576E+03  0.00000000000E+00 0.  1.
         13    1    5    5    0    0 -0.21349922771E+03  0.82953165853E+02 -0.60173399833E+03  0.64385320742E+03  0.00000000000E+00 0.  1.
        -13    1    5    5    0    0 -0.30704359764E+02  0.30891152019E+02 -0.25793545845E+03  0.26158692954E+03  0.00000000000E+00 0. -1.
          4    1    6    6  503    0  0.42651377221E+02  0.99255893895E+01 -0.52862939933E+02  0.68645085199E+02  0.00000000000E+00 0. -1.
         -4    1    6    6    0  503  0.70279766516E+03  0.23118169089E+03 -0.15927672885E+04  0.17562110260E+04  0.00000000000E+00 0.  1.
<mgrwt>
<rscale>  0 0.32860909E+04</rscale>
<asrwt>0</asrwt>
<pdfrwt beam="1">  1        2 0.15229057E+00 0.32860909E+04</pdfrwt>
<pdfrwt beam="2">  1       -1 0.41956517E+00 0.32860909E+04</pdfrwt>
<totfact> 0.12778008E-01</totfact>
</mgrwt>
</event>
<event>
12    7  0.1741211E-007  0.1304912E+04  0.7818608E-02  0.9025679E-01
          4   -1    0    0  501    0  0.00000000000E+00  0.00000000000E+00  0.55459088932E+03  0.55459088932E+03  0.00000000000E+00 0. -1.
         -1   -1    0    0    0  501 -0.00000000000E+00 -0.00000000000E+00 -0.76759120899E+03  0.76759120899E+03  0.00000000000E+00 0.  1.
         24    2    1    2    0    0 -0.56949594961E+02 -0.30722229736E+03  0.39085132808E+02  0.32462353700E+03  0.78892311435E+02 0.  0.
        254    2    1    2    0    0  0.56949594961E+02  0.30722229736E+03 -0.25208545247E+03  0.99755856131E+03  0.91320710221E+03 0.  0.
         23    2    4    4    0    0  0.13555613932E+03  0.22945529415E+03  0.30896047121E+03  0.41846847903E+03  0.92919837748E+02 0.  0.
         23    2    4    4    0    0 -0.78606544362E+02  0.77767003212E+02 -0.56104592368E+03  0.57909008228E+03  0.91356988310E+02 0.  0.
          2    1    3    3  502    0 -0.43681882121E+02 -0.28652654961E+03  0.15026529223E+02  0.29022640652E+03  0.00000000000E+00 0. -1.
         -1    1    3    3    0  502 -0.13267712839E+02 -0.20695747749E+02  0.24058603585E+02  0.34397130481E+02  0.00000000000E+00 0.  1.
         13    1    5    5    0    0  0.81306908765E+02  0.51787949669E+02  0.10098951945E+03  0.13961263618E+03  0.00000000000E+00 0. -1.
        -13    1    5    5    0    0  0.54249230558E+02  0.17766734448E+03  0.20797095176E+03  0.27885584284E+03  0.00000000000E+00 0.  1.
          3    1    6    6  503    0 -0.83218844042E+02  0.93030747457E+02 -0.45332248898E+03  0.47019291253E+03  0.00000000000E+00 0. -1.
         -3    1    6    6    0  503  0.46122996802E+01 -0.15263744245E+02 -0.10772343470E+03  0.10889716975E+03  0.00000000000E+00 0.  1.
<mgrwt>
<rscale>  0 0.13049124E+04</rscale>
<asrwt>0</asrwt>
<pdfrwt beam="1">  1        4 0.85321676E-01 0.13049124E+04</pdfrwt>
<pdfrwt beam="2">  1       -1 0.11809095E+00 0.13049124E+04</pdfrwt>
<totfact> 0.31395472E+00</totfact>
</mgrwt>
</event>
<event>
12    7  0.1741211E-007  0.2731259E+04  0.7818608E-02  0.8324933E-01
          2   -1    0    0  501    0  0.00000000000E+00  0.00000000000E+00  0.20395439203E+04  0.20395439203E+04  0.00000000000E+00 0. -1.
         -1   -1    0    0    0  501 -0.00000000000E+00 -0.00000000000E+00 -0.91439255669E+03  0.91439255669E+03  0.00000000000E+00 0.  1.
         24    2    1    2    0    0  0.96930099520E+03 -0.54628182203E+03 -0.29973457636E+02  0.11157637821E+04  0.77859880398E+02 0.  0.
        254    2    1    2    0    0 -0.96930099520E+03  0.54628182203E+03  0.11551248213E+04  0.18381726949E+04  0.89810759665E+03 0.  0.
         23    2    4    4    0    0 -0.95089545375E+03  0.47838992962E+03  0.51220585161E+03  0.11848369845E+04  0.91786473194E+02 0.  0.
         23    2    4    4    0    0 -0.18405541447E+02  0.67891892411E+02  0.64291896968E+03  0.65333571042E+03  0.92491491070E+02 0.  0.
          2    1    3    3  502    0  0.36346551643E+03 -0.22749490191E+03  0.20802550302E+02  0.42929460529E+03  0.00000000000E+00 0. -1.
         -1    1    3    3    0  502  0.60583547877E+03 -0.31878692013E+03 -0.50776007938E+02  0.68646917684E+03  0.00000000000E+00 0.  1.
         13    1    5    5    0    0 -0.77750730458E+03  0.37462026361E+03  0.45051549546E+03  0.97356158625E+03  0.00000000000E+00 0.  1.
        -13    1    5    5    0    0 -0.17338814917E+03  0.10376966601E+03  0.61690356155E+02  0.21127539824E+03  0.00000000000E+00 0. -1.
          3    1    6    6  503    0 -0.35451821707E+02  0.56546979334E+02  0.21951179867E+03  0.22943369912E+03  0.00000000000E+00 0. -1.
         -3    1    6    6    0  503  0.17046280259E+02  0.11344913077E+02  0.42340717101E+03  0.42390201130E+03  0.00000000000E+00 0.  1.
<mgrwt>
<rscale>  0 0.27312589E+04</rscale>
<asrwt>0</asrwt>
<pdfrwt beam="1">  1        2 0.31377599E+00 0.27312589E+04</pdfrwt>
<pdfrwt beam="2">  1       -1 0.14067578E+00 0.27312589E+04</pdfrwt>
<totfact> 0.26165799E+00</totfact>
</mgrwt>
</event>
<event>
12    7  0.1741211E-007  0.1466762E+04  0.7818608E-02  0.8906862E-01
         -1   -1    0    0    0  501 -0.00000000000E+00  0.00000000000E+00  0.23828766801E+03  0.23828766801E+03  0.00000000000E+00 0.  1.
          2   -1    0    0  501    0  0.00000000000E+00 -0.00000000000E+00 -0.22571347662E+04  0.22571347662E+04  0.00000000000E+00 0. -1.
         24    2    1    2    0    0 -0.32959663267E+03  0.25463785692E+03 -0.95190992554E+03  0.10420883655E+04  0.79632133599E+02 0.  0.
        254    2    1    2    0    0  0.32959663267E+03 -0.25463785692E+03 -0.10669371726E+04  0.14533340687E+04  0.89462316452E+03 0.  0.
         23    2    4    4    0    0 -0.10789278930E+03 -0.43899066879E+03 -0.31080152719E+03  0.55611280157E+03  0.91160284617E+02 0.  0.
         23    2    4    4    0    0  0.43748942197E+03  0.18435281188E+03 -0.75613564545E+03  0.89722126715E+03  0.88780258681E+02 0.  0.
          4    1    3    3  502    0 -0.28370439069E+03  0.24020519666E+03 -0.78830512864E+03  0.87155705128E+03  0.00000000000E+00 0. -1.
         -3    1    3    3    0  502 -0.45892241975E+02  0.14432660257E+02 -0.16360479690E+03  0.17053131421E+03  0.00000000000E+00 0.  1.
         13    1    5    5    0    0 -0.10633164681E+03 -0.37037190393E+03 -0.29599876748E+03  0.48589817522E+03  0.00000000000E+00 0. -1.
        -13    1    5    5    0    0 -0.15611424878E+01 -0.68618764869E+02 -0.14802759706E+02  0.70214626346E+02  0.00000000000E+00 0.  1.
          3    1    6    6  503    0  0.34617307768E+03  0.13192130652E+03 -0.64711532196E+03  0.74565224518E+03  0.00000000000E+00 0. -1.
         -3    1    6    6    0  503  0.91316344287E+02  0.52431505359E+02 -0.10902032348E+03  0.15156902197E+03  0.00000000000E+00 0.  1.
<mgrwt>
<rscale>  0 0.14667616E+04</rscale>
<asrwt>0</asrwt>
<pdfrwt beam="1">  1        2 0.34725149E+00 0.14667616E+04</pdfrwt>
<pdfrwt beam="2">  1       -1 0.36659642E-01 0.14667616E+04</pdfrwt>
<totfact> 0.37813317E+01</totfact>
</mgrwt>
</event>
<event>
12    7  0.1741211E-007  0.1743076E+04  0.7818608E-02  0.8737171E-01
         -1   -1    0    0    0  501 -0.00000000000E+00  0.00000000000E+00  0.42086074598E+03  0.42086074598E+03  0.00000000000E+00 0.  1.
          2   -1    0    0  501    0  0.00000000000E+00 -0.00000000000E+00 -0.18048221018E+04  0.18048221018E+04  0.00000000000E+00 0. -1.
         24    2    1    2    0    0 -0.14813177187E+03  0.54625830368E+02  0.27888844627E+03  0.33077318098E+03  0.81884849726E+02 0.  0.
        254    2    1    2    0    0  0.14813177187E+03 -0.54625830368E+02 -0.16628498020E+04  0.18949096668E+04  0.89481069384E+03 0.  0.
         23    2    4    4    0    0 -0.17041562371E+03 -0.38687861083E+03 -0.68464000675E+03  0.81006346822E+03  0.93564626809E+02 0.  0.
         23    2    4    4    0    0  0.31854739558E+03  0.33225278046E+03 -0.97820979530E+03  0.10848461985E+04  0.90180471803E+02 0.  0.
          4    1    3    3  502    0 -0.12956766800E+02  0.35454312743E+02  0.91006758298E+02  0.98524698192E+02  0.00000000000E+00 0. -1.
         -3    1    3    3    0  502 -0.13517500507E+03  0.19171517625E+02  0.18788168797E+03  0.23224848279E+03  0.00000000000E+00 0.  1.
         13    1    5    5    0    0 -0.14090760395E+02 -0.41066772785E+02 -0.13749762087E+03  0.14418954574E+03  0.00000000000E+00 0.  1.
        -13    1    5    5    0    0 -0.15632486331E+03 -0.34581183804E+03 -0.54714238588E+03  0.66587392248E+03  0.00000000000E+00 0. -1.
          3    1    6    6  503    0  0.16299476470E+03  0.15415406968E+03 -0.57780761877E+03  0.61983257000E+03  0.00000000000E+00 0. -1.
         -3    1    6    6    0  503  0.15555263088E+03  0.17809871078E+03 -0.40040217653E+03  0.46501362853E+03  0.00000000000E+00 0.  1.
<mgrwt>
<rscale>  0 0.17430763E+04</rscale>
<asrwt>0</asrwt>
<pdfrwt beam="1">  1        2 0.27766493E+00 0.17430763E+04</pdfrwt>
<pdfrwt beam="2">  1       -1 0.64747808E-01 0.17430763E+04</pdfrwt>
<totfact> 0.22403548E+01</totfact>
</mgrwt>
</event>
<event>
12    7  0.1741211E-007  0.1531036E+04  0.7818608E-02  0.8864073E-01
          2   -1    0    0  501    0  0.00000000000E+00  0.00000000000E+00  0.16304649152E+04  0.16304649152E+04  0.00000000000E+00 0. -1.
         -1   -1    0    0    0  501 -0.00000000000E+00 -0.00000000000E+00 -0.35941747832E+03  0.35941747832E+03  0.00000000000E+00 0.  1.
         24    2    1    2    0    0 -0.21787961629E+02 -0.47525013928E+03  0.62749256403E+03  0.79161060010E+03  0.81012431885E+02 0.  0.
        254    2    1    2    0    0  0.21787961629E+02  0.47525013928E+03  0.64355487286E+03  0.11982717934E+04  0.89182678050E+03 0.  0.
         23    2    4    4    0    0 -0.20432485942E+03 -0.18197743842E+03  0.81348798850E+02  0.29965445040E+03  0.91163185001E+02 0.  0.
         23    2    4    4    0    0  0.22611282105E+03  0.65722757769E+03  0.56220607401E+03  0.89861734304E+03  0.91445955794E+02 0.  0.
          2    1    3    3  502    0 -0.22272764231E+02 -0.22065649444E+03  0.35591178584E+03  0.41935493781E+03  0.00000000000E+00 0. -1.
         -1    1    3    3    0  502  0.48480260225E+00 -0.25459364483E+03  0.27158077820E+03  0.37225566229E+03  0.00000000000E+00 0.  1.
         13    1    5    5    0    0 -0.17816175437E+03 -0.10433447804E+03  0.59012373724E+02  0.21473181944E+03  0.00000000000E+00 0.  1.
        -13    1    5    5    0    0 -0.26163105057E+02 -0.77642960375E+02  0.22336425126E+02  0.84922630961E+02  0.00000000000E+00 0. -1.
          2    1    6    6  503    0  0.10317065334E+02  0.55595007130E+02  0.18530635012E+02  0.59503202341E+02  0.00000000000E+00 0. -1.
         -2    1    6    6    0  503  0.21579575572E+03  0.60163257056E+03  0.54367543900E+03  0.83911414070E+03  0.00000000000E+00 0.  1.
<mgrwt>
<rscale>  0 0.15310357E+04</rscale>
<asrwt>0</asrwt>
<pdfrwt beam="1">  1        2 0.25084075E+00 0.15310357E+04</pdfrwt>
<pdfrwt beam="2">  1       -1 0.55294998E-01 0.15310357E+04</pdfrwt>
<totfact> 0.38935500E+01</totfact>
</mgrwt>
</event>
<event>
12    7  0.1741211E-007  0.3263363E+04  0.7818608E-02  0.8172281E-01
         -1   -1    0    0    0  501 -0.00000000000E+00  0.00000000000E+00  0.19538615599E+04  0.19538615599E+04  0.00000000000E+00 0.  1.
          2   -1    0    0  501    0  0.00000000000E+00 -0.00000000000E+00 -0.13626269468E+04  0.13626269468E+04  0.00000000000E+00 0. -1.
         24    2    1    2    0    0  0.78380491442E+03  0.89465275289E+03 -0.66954423407E+03  0.13673782010E+04  0.81731089734E+02 0.  0.
        254    2    1    2    0    0 -0.78380491442E+03 -0.89465275289E+03  0.12607788471E+04  0.19491103058E+04  0.89146732445E+03 0.  0.
         23    2    4    4    0    0 -0.50589248856E+03 -0.27484307144E+03  0.10987741418E+04  0.12436311005E+04  0.88587671541E+02 0.  0.
         23    2    4    4    0    0 -0.27791242586E+03 -0.61980968145E+03  0.16200470534E+03  0.70547920527E+03  0.10027974298E+03 0.  0.
          4    1    3    3  502    0  0.63211163837E+03  0.76714240409E+03 -0.55336033391E+03  0.11376643840E+04  0.00000000000E+00 0. -1.
         -3    1    3    3    0  502  0.15169327605E+03  0.12751034880E+03 -0.11618390016E+03  0.22971381697E+03  0.00000000000E+00 0.  1.
         13    1    5    5    0    0 -0.13779516669E+03 -0.11385050974E+03  0.38731071782E+03  0.42656657004E+03  0.00000000000E+00 0.  1.
        -13    1    5    5    0    0 -0.36809732187E+03 -0.16099256170E+03  0.71146342398E+03  0.81706453047E+03  0.00000000000E+00 0. -1.
          3    1    6    6  503    0 -0.17792295079E+03 -0.49869959924E+03  0.12026844037E+03  0.54297547316E+03  0.00000000000E+00 0. -1.
         -3    1    6    6    0  503 -0.99989475072E+02 -0.12111008221E+03  0.41736264963E+02  0.16250373211E+03  0.00000000000E+00 0.  1.
<mgrwt>
<rscale>  0 0.32633629E+04</rscale>
<asrwt>0</asrwt>
<pdfrwt beam="1">  1        2 0.20963492E+00 0.32633629E+04</pdfrwt>
<pdfrwt beam="2">  1       -1 0.30059409E+00 0.32633629E+04</pdfrwt>
<totfact> 0.47472862E-01</totfact>
</mgrwt>
</event>
<event>
12    7  0.1741211E-007  0.2865976E+04  0.7818608E-02  0.8283073E-01
          2   -1    0    0  501    0  0.00000000000E+00  0.00000000000E+00  0.18491648393E+04  0.18491648393E+04  0.00000000000E+00 0. -1.
         -1   -1    0    0    0  501 -0.00000000000E+00 -0.00000000000E+00 -0.11104768854E+04  0.11104768854E+04  0.00000000000E+00 0.  1.
         24    2    1    2    0    0 -0.80248707937E+03  0.37034732417E+03  0.13075373932E+04  0.15802706976E+04  0.80366598789E+02 0.  0.
        254    2    1    2    0    0  0.80248707937E+03 -0.37034732417E+03 -0.56884943933E+03  0.13793710271E+04  0.89327044768E+03 0.  0.
         23    2    4    4    0    0  0.73612440909E+03 -0.11764990552E+03 -0.42147030548E+01  0.75086566183E+03  0.89782138900E+02 0.  0.
         23    2    4    4    0    0  0.66362670283E+02 -0.25269741865E+03 -0.56463473628E+03  0.62850536527E+03  0.89143812822E+02 0.  0.
          2    1    3    3  502    0 -0.70299619462E+03  0.32763310176E+03  0.11902491588E+04  0.14206477956E+04  0.00000000000E+00 0. -1.
         -1    1    3    3    0  502 -0.99490884750E+02  0.42714222412E+02  0.11728823436E+03  0.15962290207E+03  0.00000000000E+00 0.  1.
         13    1    5    5    0    0  0.60313922474E+03 -0.11046093540E+03  0.28126679998E+02  0.61381565050E+03  0.00000000000E+00 0.  1.
        -13    1    5    5    0    0  0.13298518435E+03 -0.71889701212E+01 -0.32341383052E+02  0.13705001133E+03  0.00000000000E+00 0. -1.
          2    1    6    6  503    0  0.14844115036E+02 -0.19941988774E+03 -0.37674616460E+03  0.42652820765E+03  0.00000000000E+00 0. -1.
         -2    1    6    6    0  503  0.51518555247E+02 -0.53277530903E+02 -0.18788857168E+03  0.20197715763E+03  0.00000000000E+00 0.  1.
<mgrwt>
<rscale>  0 0.28659761E+04</rscale>
<asrwt>0</asrwt>
<pdfrwt beam="1">  1        2 0.28448690E+00 0.28659761E+04</pdfrwt>
<pdfrwt beam="2">  1       -1 0.17084260E+00 0.28659761E+04</pdfrwt>
<totfact> 0.19359394E+00</totfact>
</mgrwt>
</event>
<event>
12    7  0.1741211E-007  0.2458037E+04  0.7818608E-02  0.8418089E-01
          2   -1    0    0  501    0  0.00000000000E+00  0.00000000000E+00  0.20451694139E+04  0.20451694139E+04  0.00000000000E+00 0. -1.
         -1   -1    0    0    0  501 -0.00000000000E+00 -0.00000000000E+00 -0.73856306176E+03  0.73856306176E+03  0.00000000000E+00 0.  1.
         24    2    1    2    0    0 -0.61567122603E+03  0.81849649997E+03  0.85993282501E+03  0.13396449940E+04  0.78591776838E+02 0.  0.
        254    2    1    2    0    0  0.61567122603E+03 -0.81849649997E+03  0.44667352715E+03  0.14440874817E+04  0.91481355252E+03 0.  0.
         23    2    4    4    0    0  0.72338981840E+03 -0.27701328848E+03  0.41458340351E+03  0.88332438411E+03  0.91396814779E+02 0.  0.
         23    2    4    4    0    0 -0.10771859237E+03 -0.54148321149E+03  0.32090123645E+02  0.56076309757E+03  0.92833787425E+02 0.  0.
          2    1    3    3  502    0 -0.18280281704E+02  0.26427456645E+02  0.47476699332E+02  0.57329016591E+02  0.00000000000E+00 0. -1.
         -1    1    3    3    0  502 -0.59739094433E+03  0.79206904332E+03  0.81245612567E+03  0.12823159774E+04  0.00000000000E+00 0.  1.
         13    1    5    5    0    0  0.73338521333E+02 -0.18928686872E+02  0.13078797491E+02  0.76862792311E+02  0.00000000000E+00 0.  1.
        -13    1    5    5    0    0  0.65005129707E+03 -0.25808460160E+03  0.40150460601E+03  0.80646159180E+03  0.00000000000E+00 0. -1.
          1    1    6    6  503    0 -0.25456467967E+02 -0.19746770772E+03 -0.30895918843E+02  0.20148470204E+03  0.00000000000E+00 0. -1.
         -1    1    6    6    0  503 -0.82262124403E+02 -0.34401550377E+03  0.62986042488E+02  0.35927839553E+03  0.00000000000E+00 0.  1.
<mgrwt>
<rscale>  0 0.24580371E+04</rscale>
<asrwt>0</asrwt>
<pdfrwt beam="1">  1        2 0.31464145E+00 0.24580371E+04</pdfrwt>
<pdfrwt beam="2">  1       -1 0.11362509E+00 0.24580371E+04</pdfrwt>
<totfact> 0.45358064E+00</totfact>
</mgrwt>
</event>
<event>
12    7  0.1741211E-007  0.1102527E+04  0.7818608E-02  0.9202732E-01
          2   -1    0    0  501    0  0.00000000000E+00  0.00000000000E+00  0.37154172335E+03  0.37154172335E+03  0.00000000000E+00 0. -1.
         -1   -1    0    0    0  501 -0.00000000000E+00 -0.00000000000E+00 -0.81792020034E+03  0.81792020034E+03  0.00000000000E+00 0.  1.
         24    2    1    2    0    0  0.20670583264E+02 -0.11786131257E+03 -0.19042079364E+03  0.23904922371E+03  0.81030183830E+02 0.  0.
        254    2    1    2    0    0 -0.20670583264E+02  0.11786131257E+03 -0.25595768335E+03  0.95041269998E+03  0.90744223100E+03 0.  0.
         23    2    4    4    0    0  0.32893573385E+02 -0.19411415813E+02  0.32748553281E+03  0.34231789425E+03  0.92065065532E+02 0.  0.
         23    2    4    4    0    0 -0.53564156648E+02  0.13727272838E+03 -0.58344321615E+03  0.60809480573E+03  0.87523627888E+02 0.  0.
          2    1    3    3  502    0  0.46899104947E+01  0.27594709815E+01  0.59341541338E+01  0.80513431071E+01  0.00000000000E+00 0. -1.
         -1    1    3    3    0  502  0.15980672769E+02 -0.12062078355E+03 -0.19635494778E+03  0.23099788060E+03  0.00000000000E+00 0.  1.
         13    1    5    5    0    0 -0.56738444951E+01  0.18308018183E+02  0.12814566810E+02  0.23056217463E+02  0.00000000000E+00 0. -1.
        -13    1    5    5    0    0  0.38567417880E+02 -0.37719433996E+02  0.31467096600E+03  0.31926167679E+03  0.00000000000E+00 0.  1.
          4    1    6    6  503    0 -0.26534974291E+02  0.58364584280E+01 -0.40171850914E+02  0.48496873234E+02  0.00000000000E+00 0. -1.
         -4    1    6    6    0  503 -0.27029182357E+02  0.13143626995E+03 -0.54327136524E+03  0.55959793249E+03  0.00000000000E+00 0.  1.
<mgrwt>
<rscale>  0 0.11025271E+04</rscale>
<asrwt>0</asrwt>
<pdfrwt beam="1">  1        2 0.57160266E-01 0.11025271E+04</pdfrwt>
<pdfrwt beam="2">  1       -1 0.12583388E+00 0.11025271E+04</pdfrwt>
<totfact> 0.54080854E+01</totfact>
</mgrwt>
</event>
<event>
12    7  0.1788513E-007  0.1392988E+04  0.7818608E-02  0.8958910E-01
          2   -1    0    0  501    0  0.00000000000E+00  0.00000000000E+00  0.21582085406E+04  0.21582085406E+04  0.00000000000E+00 0. -1.
         -1   -1    0    0    0  501 -0.00000000000E+00 -0.00000000000E+00 -0.22477150760E+03  0.22477150760E+03  0.00000000000E+00 0.  1.
         24    2    1    2    0    0  0.28650493957E+03  0.52476499308E+02  0.93878859390E+02  0.31584983833E+03  0.78160199305E+02 0.  0.
        254    2    1    2    0    0 -0.28650493957E+03 -0.52476499308E+02  0.18395581737E+04  0.20671302099E+04  0.89677988774E+03 0.  0.
         23    2    4    4    0    0 -0.11722488431E+03  0.31221752835E+03  0.14823631542E+04  0.15223913608E+04  0.95149755973E+02 0.  0.
         23    2    4    4    0    0 -0.16928005526E+03 -0.36469402766E+03  0.35719501949E+03  0.54473884912E+03  0.86571709428E+02 0.  0.
          2    1    3    3  502    0  0.28152834728E+02  0.53409062822E+01  0.37593295603E+02  0.47269051793E+02  0.00000000000E+00 0. -1.
         -3    1    3    3    0  502  0.25835210484E+03  0.47135593025E+02  0.56285563787E+02  0.26858078654E+03  0.00000000000E+00 0.  1.
         13    1    5    5    0    0 -0.14468442866E+02  0.25635371377E+02  0.49922907090E+02  0.57955196117E+02  0.00000000000E+00 0.  1.
        -13    1    5    5    0    0 -0.10275644145E+03  0.28658215697E+03  0.14324402471E+04  0.14644361647E+04  0.00000000000E+00 0. -1.
          4    1    6    6  503    0 -0.13550934560E+03 -0.28593970750E+03  0.22922100910E+03  0.39072569672E+03  0.00000000000E+00 0. -1.
         -4    1    6    6    0  503 -0.33770709657E+02 -0.78754320161E+02  0.12797401039E+03  0.15401315239E+03  0.00000000000E+00 0.  1.
<mgrwt>
<rscale>  0 0.13929878E+04</rscale>
<asrwt>0</asrwt>
<pdfrwt beam="1">  1        2 0.33203207E+00 0.13929878E+04</pdfrwt>
<pdfrwt beam="2">  1       -1 0.34580233E-01 0.13929878E+04</pdfrwt>
<totfact> 0.48006991E+01</totfact>
</mgrwt>
</event>
<event>
12    7  0.1741211E-007  0.2566728E+04  0.7818608E-02  0.8379591E-01
         -1   -1    0    0    0  501 -0.00000000000E+00  0.00000000000E+00  0.74104570290E+03  0.74104570290E+03  0.00000000000E+00 0.  1.
          2   -1    0    0  501    0  0.00000000000E+00 -0.00000000000E+00 -0.22225668631E+04  0.22225668631E+04  0.00000000000E+00 0. -1.
         24    2    1    2    0    0 -0.39595106974E+03  0.67246629510E+03 -0.15714619430E+04  0.17563661644E+04  0.79632265229E+02 0.  0.
        254    2    1    2    0    0  0.39595106974E+03 -0.67246629510E+03  0.89940782785E+02  0.12072464016E+04  0.91671498406E+03 0.  0.
         23    2    4    4    0    0 -0.84104847547E+02  0.44219893978E+02  0.28868437752E+03  0.31734156520E+03  0.91312511625E+02 0.  0.
         23    2    4    4    0    0  0.48005591729E+03 -0.71668618908E+03 -0.19874359473E+03  0.88990483636E+03  0.91317161541E+02 0.  0.
          2    1    3    3  502    0 -0.29448530757E+03  0.52906323646E+03 -0.12813945766E+04  0.14172514122E+04  0.00000000000E+00 0. -1.
         -1    1    3    3    0  502 -0.10146576217E+03  0.14340305864E+03 -0.29006736638E+03  0.33911475220E+03  0.00000000000E+00 0.  1.
         13    1    5    5    0    0  0.10196740159E+02  0.15550665130E+02  0.12421973815E+03  0.12560390138E+03  0.00000000000E+00 0.  1.
        -13    1    5    5    0    0 -0.94301587706E+02  0.28669228848E+02  0.16446463937E+03  0.19173766383E+03  0.00000000000E+00 0. -1.
          3    1    6    6  503    0  0.46090251777E+03 -0.64870499701E+03 -0.17044494130E+03  0.81381864199E+03  0.00000000000E+00 0. -1.
         -3    1    6    6    0  503  0.19153399521E+02 -0.67981192067E+02 -0.28298653435E+02  0.76086194373E+02  0.00000000000E+00 0.  1.
<mgrwt>
<rscale>  0 0.25667284E+04</rscale>
<asrwt>0</asrwt>
<pdfrwt beam="1">  1        2 0.34193336E+00 0.25667284E+04</pdfrwt>
<pdfrwt beam="2">  1       -1 0.11400703E+00 0.25667284E+04</pdfrwt>
<totfact> 0.35454713E+00</totfact>
</mgrwt>
</event>
<event>
12    7  0.1741211E-007  0.2360529E+04  0.7818608E-02  0.8454431E-01
         -1   -1    0    0    0  501 -0.00000000000E+00  0.00000000000E+00  0.10143194453E+04  0.10143194453E+04  0.00000000000E+00 0.  1.
          2   -1    0    0  501    0  0.00000000000E+00 -0.00000000000E+00 -0.13733579946E+04  0.13733579946E+04  0.00000000000E+00 0. -1.
         24    2    1    2    0    0  0.77086064163E+03 -0.55010342179E+03 -0.51887341780E+03  0.10830476813E+04  0.83203081278E+02 0.  0.
        254    2    1    2    0    0 -0.77086064163E+03  0.55010342179E+03  0.15983486853E+03  0.13046297587E+04  0.88299021430E+03 0.  0.
         23    2    4    4    0    0 -0.35450954032E+03 -0.30757516829E+02 -0.27890473734E+03  0.46115518415E+03  0.90847192231E+02 0.  0.
         23    2    4    4    0    0 -0.41635110132E+03  0.58086093862E+03  0.43873960587E+03  0.84347457453E+03  0.90604892519E+02 0.  0.
          2    1    3    3  502    0  0.24025192920E+03 -0.15174124662E+03 -0.19566202904E+03  0.34500728256E+03  0.00000000000E+00 0. -1.
         -1    1    3    3    0  502  0.53060871243E+03 -0.39836217516E+03 -0.32321138876E+03  0.73804039871E+03  0.00000000000E+00 0.  1.
         13    1    5    5    0    0 -0.30903190301E+03 -0.47453179974E+02 -0.20889517340E+03  0.37601823737E+03  0.00000000000E+00 0. -1.
        -13    1    5    5    0    0 -0.45477637312E+02  0.16695663145E+02 -0.70009563939E+02  0.85136946775E+02  0.00000000000E+00 0.  1.
          1    1    6    6  503    0 -0.25249043166E+03  0.36071456311E+03  0.21818913150E+03  0.49139893287E+03  0.00000000000E+00 0. -1.
         -1    1    6    6    0  503 -0.16386066965E+03  0.22014637550E+03  0.22055047437E+03  0.35207564166E+03  0.00000000000E+00 0.  1.
<mgrwt>
<rscale>  0 0.23605285E+04</rscale>
<asrwt>0</asrwt>
<pdfrwt beam="1">  1        2 0.21128584E+00 0.23605285E+04</pdfrwt>
<pdfrwt beam="2">  1       -1 0.15604915E+00 0.23605285E+04</pdfrwt>
<totfact> 0.48268218E+00</totfact>
</mgrwt>
</event>
<event>
12    7  0.1741211E-007  0.1923997E+04  0.7818608E-02  0.8643003E-01
          2   -1    0    0  501    0  0.00000000000E+00  0.00000000000E+00  0.77390483247E+03  0.77390483247E+03  0.00000000000E+00 0. -1.
         -1   -1    0    0    0  501 -0.00000000000E+00 -0.00000000000E+00 -0.11958071165E+04  0.11958071165E+04  0.00000000000E+00 0.  1.
         24    2    1    2    0    0 -0.18552844025E+03 -0.31898234369E+02  0.57847636295E+03  0.61376553207E+03  0.81455057344E+02 0.  0.
        254    2    1    2    0    0  0.18552844025E+03  0.31898234369E+02 -0.10003786470E+04  0.13559464169E+04  0.89576500753E+03 0.  0.
         23    2    4    4    0    0 -0.31337037573E+03  0.15298165397E+03 -0.23710008739E+03  0.43149840855E+03  0.91487957157E+02 0.  0.
         23    2    4    4    0    0  0.49889881598E+03 -0.12108341960E+03 -0.76327855963E+03  0.92444800840E+03  0.91917014487E+02 0.  0.
          2    1    3    3  502    0 -0.17086953221E+03 -0.22621742537E+01  0.45823316349E+03  0.48905945098E+03  0.00000000000E+00 0. -1.
         -1    1    3    3    0  502 -0.14658908033E+02 -0.29636060116E+02  0.12024319946E+03  0.12470608109E+03  0.00000000000E+00 0.  1.
         13    1    5    5    0    0 -0.68364941090E+02  0.79137061336E+02 -0.65529578410E+02  0.12341217644E+03  0.00000000000E+00 0. -1.
        -13    1    5    5    0    0 -0.24500543464E+03  0.73844592636E+02 -0.17157050898E+03  0.30808623211E+03  0.00000000000E+00 0.  1.
          3    1    6    6  503    0  0.18679889611E+03 -0.39403538419E+00 -0.26383715306E+03  0.32327082483E+03  0.00000000000E+00 0. -1.
         -3    1    6    6    0  503  0.31209991986E+03 -0.12068938422E+03 -0.49944140657E+03  0.60117718356E+03  0.00000000000E+00 0.  1.
<mgrwt>
<rscale>  0 0.19239968E+04</rscale>
<asrwt>0</asrwt>
<pdfrwt beam="1">  1        2 0.11906228E+00 0.19239968E+04</pdfrwt>
<pdfrwt beam="2">  1       -1 0.18397033E+00 0.19239968E+04</pdfrwt>
<totfact> 0.74854432E+00</totfact>
</mgrwt>
</event>
<event>
12    7  0.1741211E-007  0.2512322E+04  0.7818608E-02  0.8398609E-01
         -1   -1    0    0    0  501 -0.00000000000E+00  0.00000000000E+00  0.10871785982E+04  0.10871785982E+04  0.00000000000E+00 0.  1.
          2   -1    0    0  501    0  0.00000000000E+00 -0.00000000000E+00 -0.14514089162E+04  0.14514089162E+04  0.00000000000E+00 0. -1.
         24    2    1    2    0    0 -0.45525139353E+03  0.79962882585E+03 -0.75838398641E+03  0.11952445823E+04  0.82481817898E+02 0.  0.
        254    2    1    2    0    0  0.45525139353E+03 -0.79962882585E+03  0.39415366840E+03  0.13433429321E+04  0.89585324042E+03 0.  0.
         23    2    4    4    0    0 -0.89264187427E+02 -0.71409284791E+03  0.23858979861E+03  0.76357054793E+03  0.90654283283E+02 0.  0.
         23    2    4    4    0    0  0.54451558096E+03 -0.85535977942E+02  0.15556386979E+03  0.57977238413E+03  0.90123683846E+02 0.  0.
          4    1    3    3  502    0 -0.40272823793E+03  0.74832037011E+03 -0.68600598476E+03  0.10921435899E+04  0.00000000000E+00 0. -1.
         -3    1    3    3    0  502 -0.52523155597E+02  0.51308455739E+02 -0.72378001651E+02  0.10310099237E+03  0.00000000000E+00 0.  1.
         13    1    5    5    0    0 -0.86840585749E+02 -0.70013142442E+03  0.21768746525E+03  0.73831777124E+03  0.00000000000E+00 0. -1.
        -13    1    5    5    0    0 -0.24236016775E+01 -0.13961423482E+02  0.20902333360E+02  0.25252776691E+02  0.00000000000E+00 0.  1.
          3    1    6    6  503    0  0.25791037505E+03 -0.40613441744E+02  0.12050782553E+03  0.28755755810E+03  0.00000000000E+00 0. -1.
         -3    1    6    6    0  503  0.28660520591E+03 -0.44922536197E+02  0.35056044261E+02  0.29221482603E+03  0.00000000000E+00 0.  1.
<mgrwt>
<rscale>  0 0.25123222E+04</rscale>
<asrwt>0</asrwt>
<pdfrwt beam="1">  1        2 0.22329368E+00 0.25123222E+04</pdfrwt>
<pdfrwt beam="2">  1       -1 0.16725825E+00 0.25123222E+04</pdfrwt>
<totfact> 0.35391063E+00</totfact>
</mgrwt>
</event>
<event>
12    7  0.1741211E-007  0.2001558E+04  0.7818608E-02  0.8605893E-01
         -1   -1    0    0    0  501 -0.00000000000E+00  0.00000000000E+00  0.61965531745E+03  0.61965531745E+03  0.00000000000E+00 0.  1.
          2   -1    0    0  501    0  0.00000000000E+00 -0.00000000000E+00 -0.16163149442E+04  0.16163149442E+04  0.00000000000E+00 0. -1.
         24    2    1    2    0    0 -0.12937653672E+03 -0.55617974577E+03 -0.10201396236E+04  0.11719596463E+04  0.82038790075E+02 0.  0.
        254    2    1    2    0    0  0.12937653672E+03  0.55617974577E+03  0.23479996845E+02  0.10640106153E+04  0.89749266373E+03 0.  0.
         23    2    4    4    0    0  0.28781170224E+03  0.28002224783E+03  0.39207858752E+03  0.56834160803E+03  0.89657846299E+02 0.  0.
         23    2    4    4    0    0 -0.15843516552E+03  0.27615749794E+03 -0.36859859068E+03  0.49566900731E+03  0.91968355511E+02 0.  0.
          4    1    3    3  502    0 -0.12073961873E+03 -0.54371722133E+03 -0.10109732730E+04  0.11542414960E+04  0.00000000000E+00 0. -1.
         -3    1    3    3    0  502 -0.86369179953E+01 -0.12462524439E+02 -0.91663505859E+01  0.17718150325E+02  0.00000000000E+00 0.  1.
         13    1    5    5    0    0  0.28004038976E+03  0.24291279107E+03  0.37303653062E+03  0.52591396362E+03  0.00000000000E+00 0.  1.
        -13    1    5    5    0    0  0.77713124824E+01  0.37109456764E+02  0.19042056904E+02  0.42427644410E+02  0.00000000000E+00 0. -1.
          1    1    6    6  503    0 -0.79021185741E+02  0.65984614801E+02 -0.82696193026E+02  0.13204914815E+03  0.00000000000E+00 0. -1.
         -1    1    6    6    0  503 -0.79413979777E+02  0.21017288314E+03 -0.28590239765E+03  0.36361985916E+03  0.00000000000E+00 0.  1.
<mgrwt>
<rscale>  0 0.20015575E+04</rscale>
<asrwt>0</asrwt>
<pdfrwt beam="1">  1        2 0.24866383E+00 0.20015575E+04</pdfrwt>
<pdfrwt beam="2">  1       -1 0.95331589E-01 0.20015575E+04</pdfrwt>
<totfact> 0.12275962E+01</totfact>
</mgrwt>
</event>
<event>
12    7  0.1741211E-007  0.2886940E+04  0.7818608E-02  0.8276774E-01
          2   -1    0    0  501    0  0.00000000000E+00  0.00000000000E+00  0.75760354192E+03  0.75760354192E+03  0.00000000000E+00 0. -1.
         -1   -1    0    0    0  501 -0.00000000000E+00 -0.00000000000E+00 -0.27502589613E+04  0.27502589613E+04  0.00000000000E+00 0.  1.
         24    2    1    2    0    0  0.92083509701E+03  0.16116949981E+03 -0.20005125962E+04  0.22095790666E+04  0.79221968672E+02 0.  0.
        254    2    1    2    0    0 -0.92083509701E+03 -0.16116949981E+03  0.78571768448E+01  0.12982834366E+04  0.90086917088E+03 0.  0.
         23    2    4    4    0    0  0.10954735735E+03  0.12900128148E+03  0.10539412908E+03  0.21941592041E+03  0.91615880510E+02 0.  0.
         23    2    4    4    0    0 -0.10303824544E+04 -0.29017078128E+03 -0.97536952232E+02  0.10788675162E+04  0.92490950517E+02 0.  0.
          4    1    3    3  502    0  0.38145330326E+03  0.41718683385E+02 -0.89178297800E+03  0.97083672725E+03  0.00000000000E+00 0. -1.
         -3    1    3    3    0  502  0.53938179375E+03  0.11945081642E+03 -0.11087296182E+04  0.12387423394E+04  0.00000000000E+00 0.  1.
         13    1    5    5    0    0  0.69946406303E+02  0.21069819735E+02  0.64319839964E+02  0.97331797843E+02  0.00000000000E+00 0.  1.
        -13    1    5    5    0    0  0.39600951047E+02  0.10793146174E+03  0.41074289113E+02  0.12208412257E+03  0.00000000000E+00 0. -1.
          3    1    6    6  503    0 -0.55584813309E+02  0.45048790991E+01 -0.10928480433E+02  0.56827784497E+02  0.00000000000E+00 0.  1.
         -3    1    6    6    0  503 -0.97479764106E+03 -0.29467566038E+03 -0.86608471800E+02  0.10220397317E+04  0.00000000000E+00 0. -1.
<mgrwt>
<rscale>  0 0.28869402E+04</rscale>
<asrwt>0</asrwt>
<pdfrwt beam="1">  1        2 0.11655439E+00 0.28869402E+04</pdfrwt>
<pdfrwt beam="2">  1       -1 0.42311676E+00 0.28869402E+04</pdfrwt>
<totfact> 0.18076277E-01</totfact>
</mgrwt>
</event>
<event>
12    7  0.1741211E-007  0.1534440E+04  0.7818608E-02  0.8861868E-01
          2   -1    0    0  501    0  0.00000000000E+00  0.00000000000E+00  0.12700687327E+04  0.12700687327E+04  0.00000000000E+00 0. -1.
         -1   -1    0    0    0  501 -0.00000000000E+00 -0.00000000000E+00 -0.46346027174E+03  0.46346027174E+03  0.00000000000E+00 0.  1.
         24    2    1    2    0    0 -0.46278678356E+03  0.18984408327E+03  0.18473869504E+03  0.53922125560E+03  0.80117376769E+02 0.  0.
        254    2    1    2    0    0  0.46278678356E+03 -0.18984408327E+03  0.62186976587E+03  0.11943077488E+04  0.88850245364E+03 0.  0.
         23    2    4    4    0    0  0.12489520954E+03  0.32620439185E+03  0.38029272310E+03  0.52442912860E+03  0.91625526170E+02 0.  0.
         23    2    4    4    0    0  0.33789157402E+03 -0.51604847512E+03  0.24157704277E+03  0.66987862020E+03  0.99504541281E+02 0.  0.
          4    1    3    3  502    0 -0.14228280134E+02  0.14157368862E+02 -0.62252179308E+01  0.21014956268E+02  0.00000000000E+00 0. -1.
         -3    1    3    3    0  502 -0.44855850342E+03  0.17568671440E+03  0.19096391297E+03  0.51820629933E+03  0.00000000000E+00 0.  1.
         13    1    5    5    0    0 -0.12761880801E+02  0.12345984403E+02  0.12541713461E+02  0.21738985924E+02  0.00000000000E+00 0. -1.
        -13    1    5    5    0    0  0.13765709034E+03  0.31385840745E+03  0.36775100964E+03  0.50269014267E+03  0.00000000000E+00 0.  1.
          1    1    6    6  503    0  0.39836456331E+02 -0.13186795772E+03  0.39386163839E+02  0.14327376392E+03  0.00000000000E+00 0. -1.
         -1    1    6    6    0  503  0.29805511769E+03 -0.38418051740E+03  0.20219087893E+03  0.52660485628E+03  0.00000000000E+00 0.  1.
<mgrwt>
<rscale>  0 0.15344398E+04</rscale>
<asrwt>0</asrwt>
<pdfrwt beam="1">  1        2 0.19539519E+00 0.15344398E+04</pdfrwt>
<pdfrwt beam="2">  1       -1 0.71301581E-01 0.15344398E+04</pdfrwt>
<totfact> 0.37564941E+01</totfact>
</mgrwt>
</event>
<event>
12    7  0.1741211E-007  0.1582197E+04  0.7818608E-02  0.8831560E-01
          2   -1    0    0  501    0  0.00000000000E+00  0.00000000000E+00  0.94928780853E+03  0.94928780853E+03  0.00000000000E+00 0. -1.
         -1   -1    0    0    0  501 -0.00000000000E+00 -0.00000000000E+00 -0.65927008981E+03  0.65927008981E+03  0.00000000000E+00 0.  1.
         24    2    1    2    0    0 -0.24966545743E+03  0.32015538977E+03 -0.23542715883E+03  0.47716066840E+03  0.86162881319E+02 0.  0.
        254    2    1    2    0    0  0.24966545743E+03 -0.32015538977E+03  0.52544487756E+03  0.11313972299E+04  0.91604315309E+03 0.  0.
         23    2    4    4    0    0  0.45514789222E+03 -0.40337572429E+03  0.61890059348E+03  0.87278816946E+03  0.94072660242E+02 0.  0.
         23    2    4    4    0    0 -0.20548243479E+03  0.83220334521E+02 -0.93455715917E+02  0.25860906048E+03  0.94847352300E+02 0.  0.
          2    1    3    3  502    0 -0.34757266575E+02  0.11869382500E+02 -0.37234087164E+02  0.52300354374E+02  0.00000000000E+00 0. -1.
         -1    1    3    3    0  502 -0.21490819086E+03  0.30828600727E+03 -0.19819307167E+03  0.42486031402E+03  0.00000000000E+00 0.  1.
         13    1    5    5    0    0  0.30441527740E+03 -0.32056548761E+03  0.41905212857E+03  0.60912689927E+03  0.00000000000E+00 0.  1.
        -13    1    5    5    0    0  0.15073261482E+03 -0.82810236676E+02  0.19984846491E+03  0.26366127019E+03  0.00000000000E+00 0. -1.
          3    1    6    6  503    0 -0.14712084229E+03  0.10296340165E+02 -0.62922863181E+02  0.16034289373E+03  0.00000000000E+00 0. -1.
         -3    1    6    6    0  503 -0.58361592497E+02  0.72923994356E+02 -0.30532852736E+02  0.98266166750E+02  0.00000000000E+00 0.  1.
<mgrwt>
<rscale>  0 0.15821973E+04</rscale>
<asrwt>0</asrwt>
<pdfrwt beam="1">  1        2 0.14604428E+00 0.15821973E+04</pdfrwt>
<pdfrwt beam="2">  1       -1 0.10142617E+00 0.15821973E+04</pdfrwt>
<totfact> 0.27482215E+01</totfact>
</mgrwt>
</event>
<event>
12    7  0.1741211E-007  0.1809499E+04  0.7818608E-02  0.8701265E-01
          2   -1    0    0  501    0  0.00000000000E+00  0.00000000000E+00  0.17562094662E+04  0.17562094662E+04  0.00000000000E+00 0. -1.
         -3   -1    0    0    0  501 -0.00000000000E+00 -0.00000000000E+00 -0.46610114275E+03  0.46610114275E+03  0.00000000000E+00 0.  1.
         24    2    1    2    0    0  0.56603997161E+02 -0.65331597664E+03  0.68951161209E+03  0.95645465519E+03  0.96713320721E+02 0.  0.
        254    2    1    2    0    0 -0.56603997161E+02  0.65331597664E+03  0.60059671132E+03  0.12658559537E+04  0.90091570532E+03 0.  0.
         23    2    4    4    0    0 -0.32815943434E+03  0.63904367784E+03  0.65190905930E+03  0.97455486027E+03  0.93307649986E+02 0.  0.
         23    2    4    4    0    0  0.27155543718E+03  0.14272298803E+02 -0.51312347973E+02  0.29130109345E+03  0.90979756071E+02 0.  0.
          2    1    3    3  502    0  0.63717733568E+00 -0.33204001744E+03  0.40467411280E+03  0.52346166693E+03  0.00000000000E+00 0. -1.
         -1    1    3    3    0  502  0.55966819825E+02 -0.32127595920E+03  0.28483749929E+03  0.43299298826E+03  0.00000000000E+00 0.  1.
         13    1    5    5    0    0 -0.72572794251E+02  0.12600327692E+03  0.85261517726E+02  0.16856204396E+03  0.00000000000E+00 0. -1.
        -13    1    5    5    0    0 -0.25558664009E+03  0.51304040092E+03  0.56664754157E+03  0.80599281631E+03  0.00000000000E+00 0.  1.
          4    1    6    6  503    0  0.23769964645E+03 -0.19676414291E+02 -0.37809366523E+02  0.24149085158E+03  0.00000000000E+00 0.  1.
         -4    1    6    6    0  503  0.33855790735E+02  0.33948713095E+02 -0.13502981451E+02  0.49810241870E+02  0.00000000000E+00 0. -1.
<mgrwt>
<rscale>  0 0.18094985E+04</rscale>
<asrwt>0</asrwt>
<pdfrwt beam="1">  1        2 0.27018607E+00 0.18094985E+04</pdfrwt>
<pdfrwt beam="2">  1       -3 0.71707869E-01 0.18094985E+04</pdfrwt>
<totfact> 0.10187949E+01</totfact>
</mgrwt>
</event>
<event>
12    7  0.1741211E-007  0.1921499E+04  0.7818608E-02  0.8644228E-01
         -1   -1    0    0    0  501 -0.00000000000E+00  0.00000000000E+00  0.98901582235E+03  0.98901582235E+03  0.00000000000E+00 0.  1.
          2   -1    0    0  501    0  0.00000000000E+00 -0.00000000000E+00 -0.93329121097E+03  0.93329121097E+03  0.00000000000E+00 0. -1.
         24    2    1    2    0    0  0.46650949802E+02 -0.56741496558E+03 -0.44211416493E+03  0.72530466511E+03  0.80410621913E+02 0.  0.
        254    2    1    2    0    0 -0.46650949802E+02  0.56741496558E+03  0.49783877632E+03  0.11970023682E+04  0.92781203269E+03 0.  0.
         23    2    4    4    0    0 -0.28147127792E+03  0.63975926431E+03  0.58989000953E+03  0.91911560691E+03  0.91023507692E+02 0.  0.
         23    2    4    4    0    0  0.23482032812E+03 -0.72344298731E+02 -0.92051233215E+02  0.27788676129E+03  0.91505947936E+02 0.  0.
          4    1    3    3  502    0  0.52027576950E+02 -0.42208233066E+03 -0.28930501148E+03  0.51435177874E+03  0.00000000000E+00 0. -1.
         -3    1    3    3    0  502 -0.53766271485E+01 -0.14533263492E+03 -0.15280915345E+03  0.21095288638E+03  0.00000000000E+00 0.  1.
         13    1    5    5    0    0  0.53946030557E+01  0.34968695517E+02  0.32793929180E+02  0.48242649174E+02  0.00000000000E+00 0. -1.
        -13    1    5    5    0    0 -0.28686588098E+03  0.60479056880E+03  0.55709608035E+03  0.87087295774E+03  0.00000000000E+00 0.  1.
          4    1    6    6  503    0  0.24039298067E+03 -0.64644480264E+02 -0.97008026730E+02  0.26716708486E+03  0.00000000000E+00 0.  1.
         -4    1    6    6    0  503 -0.55726525481E+01 -0.76998184665E+01  0.49567935144E+01  0.10719676431E+02  0.00000000000E+00 0. -1.
<mgrwt>
<rscale>  0 0.19214992E+04</rscale>
<asrwt>0</asrwt>
<pdfrwt beam="1">  1        2 0.14358326E+00 0.19214992E+04</pdfrwt>
<pdfrwt beam="2">  1       -1 0.15215628E+00 0.19214992E+04</pdfrwt>
<totfact> 0.99730981E+00</totfact>
</mgrwt>
</event>
<event>
12    7  0.1741211E-007  0.1623876E+04  0.7818608E-02  0.8806013E-01
          2   -1    0    0  501    0  0.00000000000E+00  0.00000000000E+00  0.25324522840E+04  0.25324522840E+04  0.00000000000E+00 0. -1.
         -1   -1    0    0    0  501 -0.00000000000E+00 -0.00000000000E+00 -0.26031830601E+03  0.26031830601E+03  0.00000000000E+00 0.  1.
         24    2    1    2    0    0 -0.12809789002E+03 -0.47293499645E+03  0.16515597269E+04  0.17245203460E+04  0.79020959625E+02 0.  0.
        254    2    1    2    0    0  0.12809789002E+03  0.47293499645E+03  0.62057425118E+03  0.10682502441E+04  0.71831024107E+03 0.  0.
         23    2    4    4    0    0  0.15133572983E+03  0.63958619050E+03  0.55147013571E+03  0.86254799302E+03  0.88863555437E+02 0.  0.
         23    2    4    4    0    0 -0.23237839803E+02 -0.16665119404E+03  0.69104115472E+02  0.20570225105E+03  0.96049048078E+02 0.  0.
          4    1    3    3  502    0 -0.91530953853E+02 -0.32704159537E+03  0.10100610003E+04  0.10656253304E+04  0.00000000000E+00 0. -1.
         -3    1    3    3    0  502 -0.36566936171E+02 -0.14589340109E+03  0.64149872659E+03  0.65889501555E+03  0.00000000000E+00 0.  1.
         13    1    5    5    0    0  0.74120412764E+02  0.25364425264E+03  0.16861058063E+03  0.31346255022E+03  0.00000000000E+00 0. -1.
        -13    1    5    5    0    0  0.77215317063E+02  0.38594193785E+03  0.38285955508E+03  0.54908544280E+03  0.00000000000E+00 0.  1.
          4    1    6    6  503    0  0.20900045871E+02 -0.80378633796E+01 -0.81614106613E+01  0.23833333571E+02  0.00000000000E+00 0. -1.
         -4    1    6    6    0  503 -0.44137885674E+02 -0.15861333066E+03  0.77265526133E+02  0.18186891748E+03  0.00000000000E+00 0.  1.
<mgrwt>
<rscale>  0 0.16238765E+04</rscale>
<asrwt>0</asrwt>
<pdfrwt beam="1">  1        2 0.38960803E+00 0.16238765E+04</pdfrwt>
<pdfrwt beam="2">  1       -1 0.40048972E-01 0.16238765E+04</pdfrwt>
<totfact> 0.22128306E+01</totfact>
</mgrwt>
</event>
<event>
12    7  0.1741211E-007  0.1658050E+04  0.7818608E-02  0.8785658E-01
         -1   -1    0    0    0  501 -0.00000000000E+00  0.00000000000E+00  0.78173250173E+03  0.78173250173E+03  0.00000000000E+00 0.  1.
          2   -1    0    0  501    0  0.00000000000E+00 -0.00000000000E+00 -0.87917861226E+03  0.87917861226E+03  0.00000000000E+00 0. -1.
         24    2    1    2    0    0 -0.38065467745E+03  0.40619006014E+03 -0.16782863260E+03  0.58688778837E+03  0.79890411158E+02 0.  0.
        254    2    1    2    0    0  0.38065467745E+03 -0.40619006014E+03  0.70382522068E+02  0.10740233256E+04  0.91579695137E+03 0.  0.
         23    2    4    4    0    0  0.56495321500E+03 -0.31936089336E+03  0.32876840534E+03  0.73306178995E+03  0.90152139126E+02 0.  0.
         23    2    4    4    0    0 -0.18429853755E+03 -0.86829166784E+02 -0.25838588327E+03  0.34096153567E+03  0.89365815552E+02 0.  0.
          4    1    3    3  502    0 -0.32135058661E+03  0.35245913738E+03 -0.17129056689E+03  0.50678802407E+03  0.00000000000E+00 0. -1.
         -3    1    3    3    0  502 -0.59304090839E+02  0.53730922766E+02  0.34619342974E+01  0.80099764298E+02  0.00000000000E+00 0.  1.
         13    1    5    5    0    0  0.51508261135E+03 -0.30501162965E+03  0.32470089746E+03  0.68100871033E+03  0.00000000000E+00 0.  1.
        -13    1    5    5    0    0  0.49870603645E+02 -0.14349263712E+02  0.40675078779E+01  0.52053079614E+02  0.00000000000E+00 0. -1.
          4    1    6    6  503    0 -0.37659176856E+02  0.10412174854E+02 -0.17890367507E+02  0.42973157159E+02  0.00000000000E+00 0. -1.
         -4    1    6    6    0  503 -0.14663936069E+03 -0.97241341639E+02 -0.24049551577E+03  0.29798837852E+03  0.00000000000E+00 0.  1.
<mgrwt>
<rscale>  0 0.16580501E+04</rscale>
<asrwt>0</asrwt>
<pdfrwt beam="1">  1        2 0.13525825E+00 0.16580501E+04</pdfrwt>
<pdfrwt beam="2">  1       -1 0.12026654E+00 0.16580501E+04</pdfrwt>
<totfact> 0.20329240E+01</totfact>
</mgrwt>
</event>
<event>
12    7  0.1741211E-007  0.1779524E+04  0.7818608E-02  0.8717265E-01
         -1   -1    0    0    0  501 -0.00000000000E+00  0.00000000000E+00  0.19825533264E+04  0.19825533264E+04  0.00000000000E+00 0.  1.
          2   -1    0    0  501    0  0.00000000000E+00 -0.00000000000E+00 -0.39932162231E+03  0.39932162231E+03  0.00000000000E+00 0. -1.
         24    2    1    2    0    0  0.59149630367E+03  0.29184545087E+03  0.57578458058E+03  0.87923944502E+03  0.80575889684E+02 0.  0.
        254    2    1    2    0    0 -0.59149630367E+03 -0.29184545087E+03  0.10074471236E+04  0.15026355037E+04  0.89884487307E+03 0.  0.
         23    2    4    4    0    0 -0.50391817600E+03 -0.59303012485E+03  0.77824478976E+03  0.11043781894E+04  0.91476638418E+02 0.  0.
         23    2    4    4    0    0 -0.87578127669E+02  0.30118467397E+03  0.22920233380E+03  0.39825731432E+03  0.87709989790E+02 0.  0.
          4    1    3    3  502    0  0.33908460262E+02  0.75217813205E+01  0.11664880381E+02  0.36639190847E+02  0.00000000000E+00 0. -1.
         -3    1    3    3    0  502  0.55758784341E+03  0.28432366955E+03  0.56411970020E+03  0.84260025418E+03  0.00000000000E+00 0.  1.
         13    1    5    5    0    0 -0.25502318929E+03 -0.32221952661E+03  0.47152631978E+03  0.62545928777E+03  0.00000000000E+00 0. -1.
        -13    1    5    5    0    0 -0.24889498671E+03 -0.27081059823E+03  0.30671846997E+03  0.47891890164E+03  0.00000000000E+00 0.  1.
          1    1    6    6  503    0 -0.53994178653E+02  0.83647447532E+02  0.37571681130E+02  0.10641380564E+03  0.00000000000E+00 0. -1.
         -1    1    6    6    0  503 -0.33583949016E+02  0.21753722644E+03  0.19163065267E+03  0.29184350868E+03  0.00000000000E+00 0.  1.
<mgrwt>
<rscale>  0 0.17795240E+04</rscale>
<asrwt>0</asrwt>
<pdfrwt beam="1">  1        2 0.61434097E-01 0.17795240E+04</pdfrwt>
<pdfrwt beam="2">  1       -1 0.30500820E+00 0.17795240E+04</pdfrwt>
<totfact> 0.26433475E+00</totfact>
</mgrwt>
</event>
<event>
12    7  0.1741211E-007  0.2022473E+04  0.7818608E-02  0.8596185E-01
         -1   -1    0    0    0  501 -0.00000000000E+00  0.00000000000E+00  0.34840062806E+03  0.34840062806E+03  0.00000000000E+00 0.  1.
          2   -1    0    0  501    0  0.00000000000E+00 -0.00000000000E+00 -0.29351239848E+04  0.29351239848E+04  0.00000000000E+00 0. -1.
         24    2    1    2    0    0  0.24637735873E+02 -0.55443098779E+03 -0.86263441727E+02  0.56696810271E+03  0.77528767959E+02 0.  0.
        254    2    1    2    0    0 -0.24637735873E+02  0.55443098779E+03 -0.25004599150E+04  0.27165565102E+04  0.90519541977E+03 0.  0.
         23    2    4    4    0    0 -0.25267465555E+03 -0.73407819599E+02 -0.27569575279E+03  0.39184683940E+03  0.91118647411E+02 0.  0.
         23    2    4    4    0    0  0.22803691968E+03  0.62783880739E+03 -0.22247641623E+04  0.23247096708E+04  0.92287978360E+02 0.  0.
          2    1    3    3  502    0  0.36920991656E+02 -0.12753046574E+03 -0.10082988299E+02  0.13314971261E+03  0.00000000000E+00 0. -1.
         -1    1    3    3    0  502 -0.12283255783E+02 -0.42690052205E+03 -0.76180453428E+02  0.43381839010E+03  0.00000000000E+00 0.  1.
         13    1    5    5    0    0 -0.14783311036E+02  0.18223836445E+02 -0.21067856955E+02  0.31535838290E+02  0.00000000000E+00 0. -1.
        -13    1    5    5    0    0 -0.23789134451E+03 -0.91631656044E+02 -0.25462789584E+03  0.36031100111E+03  0.00000000000E+00 0.  1.
          3    1    6    6  503    0  0.93005353260E+02  0.27526784332E+03 -0.11263280660E+04  0.11632013126E+04  0.00000000000E+00 0. -1.
         -3    1    6    6    0  503  0.13503156642E+03  0.35257096406E+03 -0.10984360963E+04  0.11615083582E+04  0.00000000000E+00 0.  1.
<mgrwt>
<rscale>  0 0.20224728E+04</rscale>
<asrwt>0</asrwt>
<pdfrwt beam="1">  1        2 0.45155755E+00 0.20224728E+04</pdfrwt>
<pdfrwt beam="2">  1       -1 0.53600095E-01 0.20224728E+04</pdfrwt>
<totfact> 0.70990455E+00</totfact>
</mgrwt>
</event>
<event>
12    7  0.1741211E-007  0.1240409E+04  0.7818608E-02  0.9078204E-01
          2   -1    0    0  501    0  0.00000000000E+00  0.00000000000E+00  0.77193831918E+03  0.77193831918E+03  0.00000000000E+00 0. -1.
         -1   -1    0    0    0  501 -0.00000000000E+00 -0.00000000000E+00 -0.49829597100E+03  0.49829597100E+03  0.00000000000E+00 0.  1.
         24    2    1    2    0    0 -0.63835790138E+02 -0.16549032421E+02  0.34588883969E+03  0.36155926302E+03  0.82080038215E+02 0.  0.
        254    2    1    2    0    0  0.63835790138E+02  0.16549032421E+02 -0.72246491509E+02  0.90867502716E+03  0.90339463739E+03 0.  0.
         23    2    4    4    0    0  0.33135383555E+03  0.22237892017E+03 -0.28593149632E+03  0.49900808485E+03  0.89467869597E+02 0.  0.
         23    2    4    4    0    0 -0.26751804541E+03 -0.20582988774E+03  0.21368500481E+03  0.40966694231E+03  0.90740702190E+02 0.  0.
          4    1    3    3  502    0 -0.62076083694E+01  0.30255582135E+02  0.11102299754E+03  0.11523905864E+03  0.00000000000E+00 0. -1.
         -3    1    3    3    0  502 -0.57628181769E+02 -0.46804614556E+02  0.23486584215E+03  0.24632020438E+03  0.00000000000E+00 0.  1.
         13    1    5    5    0    0  0.30626864451E+02  0.43370996288E+02 -0.69718646858E+02  0.87634113591E+02  0.00000000000E+00 0. -1.
        -13    1    5    5    0    0  0.30072697110E+03  0.17900792388E+03 -0.21621284946E+03  0.41137397126E+03  0.00000000000E+00 0.  1.
          4    1    6    6  503    0 -0.43140146542E+02 -0.75674360826E+02  0.31256404107E+02  0.92545361460E+02  0.00000000000E+00 0. -1.
         -4    1    6    6    0  503 -0.22437789887E+03 -0.13015552692E+03  0.18242860070E+03  0.31712158085E+03  0.00000000000E+00 0.  1.
<mgrwt>
<rscale>  0 0.12404092E+04</rscale>
<asrwt>0</asrwt>
<pdfrwt beam="1">  1        2 0.11875974E+00 0.12404092E+04</pdfrwt>
<pdfrwt beam="2">  1       -1 0.76660919E-01 0.12404092E+04</pdfrwt>
<totfact> 0.69317887E+01</totfact>
</mgrwt>
</event>
<event>
12    7  0.1741211E-007  0.1915354E+04  0.7818608E-02  0.8647251E-01
         -1   -1    0    0    0  501 -0.00000000000E+00  0.00000000000E+00  0.38702712164E+03  0.38702712164E+03  0.00000000000E+00 0.  1.
          2   -1    0    0  501    0  0.00000000000E+00 -0.00000000000E+00 -0.23697183244E+04  0.23697183244E+04  0.00000000000E+00 0. -1.
         24    2    1    2    0    0  0.58994718972E+03 -0.23399929170E+03 -0.14344035961E+04  0.15706257687E+04  0.80983168630E+02 0.  0.
        254    2    1    2    0    0 -0.58994718972E+03  0.23399929170E+03 -0.54828760675E+03  0.11861196774E+04  0.83872953584E+03 0.  0.
         23    2    4    4    0    0  0.15557861541E+03 -0.58481711026E+02 -0.27618419015E+03  0.33503498267E+03  0.91355988460E+02 0.  0.
         23    2    4    4    0    0 -0.74552580514E+03  0.29248100273E+03 -0.27210341660E+03  0.85108469475E+03  0.94609858037E+02 0.  0.
          2    1    3    3  502    0  0.55492365013E+03 -0.21577811215E+03 -0.13837199211E+04  0.15063801881E+04  0.00000000000E+00 0. -1.
         -1    1    3    3    0  502  0.35023539589E+02 -0.18221179555E+02 -0.50683674999E+02  0.64245580557E+02  0.00000000000E+00 0.  1.
         13    1    5    5    0    0  0.11151684442E+03 -0.76483152212E+02 -0.16006131790E+03  0.20953592687E+03  0.00000000000E+00 0. -1.
        -13    1    5    5    0    0  0.44061770996E+02  0.18001441186E+02 -0.11612287225E+03  0.12549905580E+03  0.00000000000E+00 0.  1.
          4    1    6    6  503    0 -0.23764503945E+03  0.13256277466E+03 -0.11937761073E+03  0.29715159085E+03  0.00000000000E+00 0. -1.
         -4    1    6    6    0  503 -0.50788076568E+03  0.15991822807E+03 -0.15272580587E+03  0.55393310390E+03  0.00000000000E+00 0.  1.
<mgrwt>
<rscale>  0 0.19153540E+04</rscale>
<asrwt>0</asrwt>
<pdfrwt beam="1">  1        2 0.36457204E+00 0.19153540E+04</pdfrwt>
<pdfrwt beam="2">  1       -1 0.59542635E-01 0.19153540E+04</pdfrwt>
<totfact> 0.12605273E+01</totfact>
</mgrwt>
</event>
<event>
12    7  0.1741211E-007  0.1500528E+04  0.7818608E-02  0.8884102E-01
          2   -1    0    0  501    0  0.00000000000E+00  0.00000000000E+00  0.38520685042E+03  0.38520685042E+03  0.00000000000E+00 0. -1.
         -1   -1    0    0    0  501 -0.00000000000E+00 -0.00000000000E+00 -0.14612822875E+04  0.14612822875E+04  0.00000000000E+00 0.  1.
         24    2    1    2    0    0  0.41574110335E+03 -0.21220012601E+03 -0.22747019937E+03  0.52549009120E+03  0.80793476569E+02 0.  0.
        254    2    1    2    0    0 -0.41574110335E+03  0.21220012601E+03 -0.84860523768E+03  0.13209990467E+04  0.89835297821E+03 0.  0.
         23    2    4    4    0    0 -0.28524665666E+03 -0.33005167385E+03 -0.37886664080E+03  0.58522971093E+03  0.93027525492E+02 0.  0.
         23    2    4    4    0    0 -0.13049444669E+03  0.54225179985E+03 -0.46973859689E+03  0.73576933577E+03  0.98164917320E+02 0.  0.
          2    1    3    3  502    0  0.25616164331E+03 -0.12078148362E+03 -0.94550072997E+02  0.29857439708E+03  0.00000000000E+00 0. -1.
         -1    1    3    3    0  502  0.15957946004E+03 -0.91418642386E+02 -0.13292012637E+03  0.22691569412E+03  0.00000000000E+00 0.  1.
         13    1    5    5    0    0 -0.88179320983E+02 -0.11045405612E+03 -0.18238953249E+03  0.23074148462E+03  0.00000000000E+00 0. -1.
        -13    1    5    5    0    0 -0.19706733568E+03 -0.21959761773E+03 -0.19647710830E+03  0.35448822631E+03  0.00000000000E+00 0.  1.
          2    1    6    6  503    0 -0.16404572906E+02  0.51046829161E+02 -0.88981392750E+02  0.10388732856E+03  0.00000000000E+00 0. -1.
         -2    1    6    6    0  503 -0.11408987378E+03  0.49120497069E+03 -0.38075720414E+03  0.63188200721E+03  0.00000000000E+00 0.  1.
<mgrwt>
<rscale>  0 0.15005278E+04</rscale>
<asrwt>0</asrwt>
<pdfrwt beam="1">  1        2 0.59262592E-01 0.15005278E+04</pdfrwt>
<pdfrwt beam="2">  1       -1 0.22481266E+00 0.15005278E+04</pdfrwt>
<totfact> 0.93742564E+00</totfact>
</mgrwt>
</event>
<event>
12    7  0.1741211E-007  0.1620595E+04  0.7818608E-02  0.8807994E-01
         -3   -1    0    0    0  501 -0.00000000000E+00  0.00000000000E+00  0.14599807825E+04  0.14599807825E+04  0.00000000000E+00 0.  1.
          4   -1    0    0  501    0  0.00000000000E+00 -0.00000000000E+00 -0.44971987249E+03  0.44971987249E+03  0.00000000000E+00 0. -1.
         24    2    1    2    0    0  0.10585328681E+03 -0.52524409014E+01 -0.29295178023E+03  0.32099768150E+03  0.77370921702E+02 0.  0.
        254    2    1    2    0    0 -0.10585328681E+03  0.52524409014E+01  0.13032126902E+04  0.15887029735E+04  0.90243078156E+03 0.  0.
         23    2    4    4    0    0 -0.42392407465E+02 -0.59879942464E+02  0.14113961364E+04  0.14162300974E+04  0.91026980449E+02 0.  0.
         23    2    4    4    0    0 -0.63460879343E+02  0.65132383366E+02 -0.10818344621E+03  0.17247287606E+03  0.98862148341E+02 0.  0.
          4    1    3    3  502    0  0.79734674349E+02 -0.26913372691E+02 -0.26158680989E+03  0.27479011451E+03  0.00000000000E+00 0. -1.
         -3    1    3    3    0  502  0.26118612459E+02  0.21660931790E+02 -0.31364970337E+02  0.46207566989E+02  0.00000000000E+00 0.  1.
         13    1    5    5    0    0  0.21698539414E+02 -0.24179680661E+00  0.12590568113E+03  0.12776198816E+03  0.00000000000E+00 0. -1.
        -13    1    5    5    0    0 -0.64090946879E+02 -0.59638145658E+02  0.12854904553E+04  0.12884681092E+04  0.00000000000E+00 0.  1.
          2    1    6    6  503    0 -0.24525887614E+02 -0.25462926750E+02 -0.34285301912E+02  0.49247961675E+02  0.00000000000E+00 0. -1.
         -2    1    6    6    0  503 -0.38934991729E+02  0.90595310116E+02 -0.73898144296E+02  0.12322491439E+03  0.00000000000E+00 0.  1.
<mgrwt>
<rscale>  0 0.16205954E+04</rscale>
<asrwt>0</asrwt>
<pdfrwt beam="1">  1        4 0.69187673E-01 0.16205954E+04</pdfrwt>
<pdfrwt beam="2">  1       -3 0.22461243E+00 0.16205954E+04</pdfrwt>
<totfact> 0.43526166E-01</totfact>
</mgrwt>
</event>
<event>
12    7  0.1741211E-007  0.1718930E+04  0.7818608E-02  0.8750641E-01
          2   -1    0    0  501    0  0.00000000000E+00  0.00000000000E+00  0.95022159093E+03  0.95022159093E+03  0.00000000000E+00 0. -1.
         -1   -1    0    0    0  501 -0.00000000000E+00 -0.00000000000E+00 -0.77737681719E+03  0.77737681719E+03  0.00000000000E+00 0.  1.
         24    2    1    2    0    0 -0.33686010348E+03  0.32860542204E+03 -0.34074609820E+03  0.58653763424E+03  0.80388060217E+02 0.  0.
        254    2    1    2    0    0  0.33686010348E+03 -0.32860542204E+03  0.51359087194E+03  0.11410607739E+04  0.90376316214E+03 0.  0.
         23    2    4    4    0    0  0.86951402877E+02 -0.15332171970E+03 -0.24634287067E+03  0.31694975887E+03  0.93296535424E+02 0.  0.
         23    2    4    4    0    0  0.24990870060E+03 -0.17528370234E+03  0.75993374261E+03  0.82411101502E+03  0.92092002779E+02 0.  0.
          2    1    3    3  502    0 -0.13554165390E+01  0.25939333263E+01  0.43290510506E+01  0.52255456264E+01  0.00000000000E+00 0. -1.
         -1    1    3    3    0  502 -0.33550468694E+03  0.32601148872E+03 -0.34507514925E+03  0.58131208861E+03  0.00000000000E+00 0.  1.
         13    1    5    5    0    0  0.64070115478E+02 -0.14059525823E+03 -0.14363565739E+03  0.21095783561E+03  0.00000000000E+00 0. -1.
        -13    1    5    5    0    0  0.22881287399E+02 -0.12726461470E+02 -0.10270721328E+03  0.10599192325E+03  0.00000000000E+00 0.  1.
          3    1    6    6  503    0  0.25645253697E+03 -0.16487555168E+03  0.71010146918E+03  0.77278454164E+03  0.00000000000E+00 0. -1.
         -3    1    6    6    0  503 -0.65438363720E+01 -0.10408150665E+02  0.49832273425E+02  0.51326473378E+02  0.00000000000E+00 0.  1.
<mgrwt>
<rscale>  0 0.17189302E+04</rscale>
<asrwt>0</asrwt>
<pdfrwt beam="1">  1        2 0.14618794E+00 0.17189302E+04</pdfrwt>
<pdfrwt beam="2">  1       -1 0.11959643E+00 0.17189302E+04</pdfrwt>
<totfact> 0.18370956E+01</totfact>
</mgrwt>
</event>
<event>
12    7  0.1741211E-007  0.2341659E+04  0.7818608E-02  0.8461674E-01
          2   -1    0    0  501    0  0.00000000000E+00  0.00000000000E+00  0.12521422679E+04  0.12521422679E+04  0.00000000000E+00 0. -1.
         -1   -1    0    0    0  501 -0.00000000000E+00 -0.00000000000E+00 -0.10947968689E+04  0.10947968689E+04  0.00000000000E+00 0.  1.
         24    2    1    2    0    0  0.72822335038E+02  0.51768073241E+03  0.91748408066E+03  0.10590038944E+04  0.80098545032E+02 0.  0.
        254    2    1    2    0    0 -0.72822335038E+02 -0.51768073241E+03 -0.76013868165E+03  0.12879352424E+04  0.89870459000E+03 0.  0.
         23    2    4    4    0    0 -0.33114730890E+03 -0.29574225660E+03 -0.34245153493E+01  0.45316514254E+03  0.90691215540E+02 0.  0.
         23    2    4    4    0    0  0.25832497386E+03 -0.22193847581E+03 -0.75671416630E+03  0.83477009986E+03  0.90754123718E+02 0.  0.
          2    1    3    3  502    0  0.34960391851E+02  0.41607075188E+03  0.68039741882E+03  0.79829677884E+03  0.00000000000E+00 0. -1.
         -1    1    3    3    0  502  0.37861943187E+02  0.10160998053E+03  0.23708666185E+03  0.26070711557E+03  0.00000000000E+00 0.  1.
         13    1    5    5    0    0 -0.16678470379E+03 -0.10620836983E+03  0.30282918513E+02  0.20003602274E+03  0.00000000000E+00 0.  1.
        -13    1    5    5    0    0 -0.16436260512E+03 -0.18953388677E+03 -0.33707433862E+02  0.25312911980E+03  0.00000000000E+00 0. -1.
          1    1    6    6  503    0  0.25650094568E+03 -0.20912859932E+03 -0.67200308026E+03  0.74907652885E+03  0.00000000000E+00 0. -1.
         -1    1    6    6    0  503  0.18240281813E+01 -0.12809876484E+02 -0.84711086046E+02  0.85693571016E+02  0.00000000000E+00 0.  1.
<mgrwt>
<rscale>  0 0.23416588E+04</rscale>
<asrwt>0</asrwt>
<pdfrwt beam="1">  1        2 0.19263727E+00 0.23416588E+04</pdfrwt>
<pdfrwt beam="2">  1       -1 0.16843029E+00 0.23416588E+04</pdfrwt>
<totfact> 0.45898193E+00</totfact>
</mgrwt>
</event>
<event>
12    7  0.1741211E-007  0.2905283E+04  0.7818608E-02  0.8271307E-01
          2   -1    0    0  501    0  0.00000000000E+00  0.00000000000E+00  0.17269680876E+04  0.17269680876E+04  0.00000000000E+00 0. -1.
         -1   -1    0    0    0  501 -0.00000000000E+00 -0.00000000000E+00 -0.12218916885E+04  0.12218916885E+04  0.00000000000E+00 0.  1.
         24    2    1    2    0    0  0.86300414995E+02 -0.10544612768E+04  0.10157165639E+04  0.14691116390E+04  0.85279093212E+02 0.  0.
        254    2    1    2    0    0 -0.86300414995E+02  0.10544612768E+04 -0.51064016482E+03  0.14797481371E+04  0.89975820390E+03 0.  0.
         23    2    4    4    0    0  0.18240158563E+03  0.39880049841E+03  0.18326746188E+03  0.48437307752E+03  0.93370978724E+02 0.  0.
         23    2    4    4    0    0 -0.26870200063E+03  0.65566077835E+03 -0.69390762670E+03  0.99537505957E+03  0.84687032131E+02 0.  0.
          4    1    3    3  502    0  0.10140599001E+03 -0.92172167819E+03  0.90296098506E+03  0.12942923037E+04  0.00000000000E+00 0. -1.
         -3    1    3    3    0  502 -0.15105575019E+02 -0.13273959857E+03  0.11275557886E+03  0.17481933528E+03  0.00000000000E+00 0.  1.
         13    1    5    5    0    0  0.88548656889E+02  0.16822455034E+03  0.31178388660E+02  0.19264593402E+03  0.00000000000E+00 0. -1.
        -13    1    5    5    0    0  0.93852928743E+02  0.23057594806E+03  0.15208907322E+03  0.29172714350E+03  0.00000000000E+00 0.  1.
          4    1    6    6  503    0 -0.70424387518E+02  0.27409939198E+03 -0.29586982490E+03  0.40942523655E+03  0.00000000000E+00 0.  1.
         -4    1    6    6    0  503 -0.19827761311E+03  0.38156138637E+03 -0.39803780180E+03  0.58594982301E+03  0.00000000000E+00 0. -1.
<mgrwt>
<rscale>  0 0.29052834E+04</rscale>
<asrwt>0</asrwt>
<pdfrwt beam="1">  1        2 0.26568740E+00 0.29052834E+04</pdfrwt>
<pdfrwt beam="2">  1       -1 0.18798334E+00 0.29052834E+04</pdfrwt>
<totfact> 0.16984311E+00</totfact>
</mgrwt>
</event>
<event>
12    7  0.1741211E-007  0.3239132E+04  0.7818608E-02  0.8178558E-01
          2   -1    0    0  501    0  0.00000000000E+00  0.00000000000E+00  0.44063141930E+04  0.44063141930E+04  0.00000000000E+00 0. -1.
         -1   -1    0    0    0  501 -0.00000000000E+00 -0.00000000000E+00 -0.59528086309E+03  0.59528086309E+03  0.00000000000E+00 0.  1.
         24    2    1    2    0    0  0.28345606637E+03  0.14667223082E+04  0.17221417472E+04  0.22812478013E+04  0.81839249997E+02 0.  0.
        254    2    1    2    0    0 -0.28345606637E+03 -0.14667223082E+04  0.20888915827E+04  0.27203472547E+04  0.89732907608E+03 0.  0.
         23    2    4    4    0    0 -0.52066297395E+03 -0.45561596632E+03  0.76787849622E+03  0.10374761690E+04  0.89685980681E+02 0.  0.
         23    2    4    4    0    0  0.23720690759E+03 -0.10111063419E+04  0.13210130865E+04  0.16828710857E+04  0.91522481563E+02 0.  0.
          2    1    3    3  502    0  0.46752117479E+02  0.42707793860E+03  0.47693986861E+03  0.64191351785E+03  0.00000000000E+00 0. -1.
         -1    1    3    3    0  502  0.23670394889E+03  0.10396443696E+04  0.12452018785E+04  0.16393342835E+04  0.00000000000E+00 0.  1.
         13    1    5    5    0    0 -0.23272449557E+03 -0.20123927786E+03  0.40839253138E+03  0.51131438223E+03  0.00000000000E+00 0.  1.
        -13    1    5    5    0    0 -0.28793847839E+03 -0.25437668845E+03  0.35948596484E+03  0.52616178679E+03  0.00000000000E+00 0. -1.
          3    1    6    6  503    0  0.24515839329E+03 -0.96944567612E+03  0.12736486680E+04  0.16192925882E+04  0.00000000000E+00 0. -1.
         -3    1    6    6    0  503 -0.79514857054E+01 -0.41660665798E+02  0.47364418480E+02  0.63578497447E+02  0.00000000000E+00 0.  1.
<mgrwt>
<rscale>  0 0.32391323E+04</rscale>
<asrwt>0</asrwt>
<pdfrwt beam="1">  1        2 0.67789447E+00 0.32391323E+04</pdfrwt>
<pdfrwt beam="2">  1       -1 0.91581674E-01 0.32391323E+04</pdfrwt>
<totfact> 0.16722456E-01</totfact>
</mgrwt>
</event>
<event>
12    7  0.1741211E-007  0.3280677E+04  0.7818608E-02  0.8167830E-01
         -1   -1    0    0    0  501 -0.00000000000E+00  0.00000000000E+00  0.87752424908E+03  0.87752424908E+03  0.00000000000E+00 0.  1.
          2   -1    0    0  501    0  0.00000000000E+00 -0.00000000000E+00 -0.30662511990E+04  0.30662511990E+04  0.00000000000E+00 0. -1.
         24    2    1    2    0    0  0.62287142564E+03  0.27941486208E+03 -0.26391280487E+04  0.27277268084E+04  0.97237882553E+02 0.  0.
        254    2    1    2    0    0 -0.62287142564E+03 -0.27941486208E+03  0.45040109884E+03  0.12160486396E+04  0.89992870054E+03 0.  0.
         23    2    4    4    0    0 -0.42084723166E+03  0.25795367815E+03  0.38025522885E+02  0.50357240140E+03  0.92123453047E+02 0.  0.
         23    2    4    4    0    0 -0.20202419398E+03 -0.53736854024E+03  0.41237557595E+03  0.71247623821E+03  0.89387087371E+02 0.  0.
          2    1    3    3  502    0  0.42950466245E+03  0.21536965839E+03 -0.20009373733E+04  0.20578164925E+04  0.00000000000E+00 0. -1.
         -1    1    3    3    0  502  0.19336676319E+03  0.64045203696E+02 -0.63819067547E+03  0.66991031600E+03  0.00000000000E+00 0.  1.
         13    1    5    5    0    0 -0.36631450153E+03  0.22281189384E+03  0.64354097908E+02  0.43355842050E+03  0.00000000000E+00 0. -1.
        -13    1    5    5    0    0 -0.54532730123E+02  0.35141784314E+02 -0.26328575022E+02  0.70013980905E+02  0.00000000000E+00 0.  1.
          1    1    6    6  503    0 -0.17053605101E+03 -0.49890590070E+03  0.39839696437E+03  0.66084021039E+03  0.00000000000E+00 0. -1.
         -1    1    6    6    0  503 -0.31488142971E+02 -0.38462639536E+02  0.13978611583E+02  0.51636027826E+02  0.00000000000E+00 0.  1.
<mgrwt>
<rscale>  0 0.32806766E+04</rscale>
<asrwt>0</asrwt>
<pdfrwt beam="1">  1        2 0.47173095E+00 0.32806766E+04</pdfrwt>
<pdfrwt beam="2">  1       -1 0.13500373E+00 0.32806766E+04</pdfrwt>
<totfact> 0.69141776E-01</totfact>
</mgrwt>
</event>
<event>
12    7  0.1741211E-007  0.1757127E+04  0.7818608E-02  0.8729437E-01
          2   -1    0    0  501    0  0.00000000000E+00  0.00000000000E+00  0.10982672864E+04  0.10982672864E+04  0.00000000000E+00 0. -1.
         -1   -1    0    0    0  501 -0.00000000000E+00 -0.00000000000E+00 -0.70281059835E+03  0.70281059835E+03  0.00000000000E+00 0.  1.
         24    2    1    2    0    0 -0.28743037465E+03  0.11947149529E+03  0.72611571924E+03  0.79415238488E+03  0.80896935839E+02 0.  0.
        254    2    1    2    0    0  0.28743037465E+03 -0.11947149529E+03 -0.33065903122E+03  0.10069254998E+04  0.89870679804E+03 0.  0.
         23    2    4    4    0    0  0.26087523492E+03  0.15547724920E+03  0.21846978282E+03  0.38511903816E+03  0.91425184354E+02 0.  0.
         23    2    4    4    0    0  0.26555139736E+02 -0.27494874449E+03 -0.54912881404E+03  0.62180646168E+03  0.93802099305E+02 0.  0.
          4    1    3    3  502    0 -0.16339485483E+03  0.36490072502E+02  0.45261293223E+03  0.48258457331E+03  0.00000000000E+00 0. -1.
         -3    1    3    3    0  502 -0.12403551982E+03  0.82981422788E+02  0.27350278701E+03  0.31156781157E+03  0.00000000000E+00 0.  1.
         13    1    5    5    0    0  0.26618947199E+03  0.14905646023E+03  0.19983038572E+03  0.36470103700E+03  0.00000000000E+00 0.  1.
        -13    1    5    5    0    0 -0.53142370769E+01  0.64207889760E+01  0.18639397105E+02  0.20418001156E+02  0.00000000000E+00 0. -1.
          3    1    6    6  503    0  0.21066390103E+02 -0.88236841132E+02 -0.27905151790E+03  0.29342679252E+03  0.00000000000E+00 0. -1.
         -3    1    6    6    0  503  0.54887496331E+01 -0.18671190336E+03 -0.27007729614E+03  0.32837966916E+03  0.00000000000E+00 0.  1.
<mgrwt>
<rscale>  0 0.17571271E+04</rscale>
<asrwt>0</asrwt>
<pdfrwt beam="1">  1        2 0.16896420E+00 0.17571271E+04</pdfrwt>
<pdfrwt beam="2">  1       -1 0.10812471E+00 0.17571271E+04</pdfrwt>
<totfact> 0.18757798E+01</totfact>
</mgrwt>
</event>
<event>
12    7  0.1741211E-007  0.1072926E+04  0.7818608E-02  0.9231990E-01
          2   -1    0    0  501    0  0.00000000000E+00  0.00000000000E+00  0.20075037798E+04  0.20075037798E+04  0.00000000000E+00 0. -1.
         -1   -1    0    0    0  501 -0.00000000000E+00 -0.00000000000E+00 -0.14335828179E+03  0.14335828179E+03  0.00000000000E+00 0.  1.
         24    2    1    2    0    0 -0.43388972557E+02  0.12286574142E+03  0.34988604080E+03  0.38157043546E+03  0.78722057371E+02 0.  0.
        254    2    1    2    0    0  0.43388972557E+02 -0.12286574142E+03  0.15142594572E+04  0.17692916261E+04  0.90577732427E+03 0.  0.
         23    2    4    4    0    0  0.10921123929E+03  0.19697390400E+01 -0.83086961417E+02  0.16310894271E+03  0.88148223887E+02 0.  0.
         23    2    4    4    0    0 -0.65822266738E+02 -0.12483548046E+03  0.15973464186E+04  0.16061826834E+04  0.91601110449E+02 0.  0.
          2    1    3    3  502    0 -0.16297314356E+02  0.11865879838E+03  0.31628436397E+03  0.33820306294E+03  0.00000000000E+00 0. -1.
         -1    1    3    3    0  502 -0.27091658200E+02  0.42069430402E+01  0.33601676827E+02  0.43367372521E+02  0.00000000000E+00 0.  1.
         13    1    5    5    0    0 -0.10129749395E+02  0.15993842042E+02 -0.19424133092E+02  0.27124006939E+02  0.00000000000E+00 0. -1.
        -13    1    5    5    0    0  0.11934098869E+03 -0.14024103002E+02 -0.63662828325E+02  0.13598493577E+03  0.00000000000E+00 0.  1.
          2    1    6    6  503    0  0.26669477532E+00 -0.11231496834E+02  0.16977494211E+02  0.20358117716E+02  0.00000000000E+00 0. -1.
         -2    1    6    6    0  503 -0.66088961513E+02 -0.11360398362E+03  0.15803689244E+04  0.15858245657E+04  0.00000000000E+00 0.  1.
<mgrwt>
<rscale>  0 0.10729255E+04</rscale>
<asrwt>0</asrwt>
<pdfrwt beam="1">  1        2 0.30884672E+00 0.10729255E+04</pdfrwt>
<pdfrwt beam="2">  1       -1 0.22055122E-01 0.10729255E+04</pdfrwt>
<totfact> 0.13036581E+02</totfact>
</mgrwt>
</event>
<event>
12    7  0.1741211E-007  0.1390184E+04  0.7818608E-02  0.8960954E-01
          2   -1    0    0  501    0  0.00000000000E+00  0.00000000000E+00  0.14700219213E+04  0.14700219213E+04  0.00000000000E+00 0. -1.
         -1   -1    0    0    0  501 -0.00000000000E+00 -0.00000000000E+00 -0.32867068345E+03  0.32867068345E+03  0.00000000000E+00 0.  1.
         24    2    1    2    0    0 -0.36442790239E+03  0.42335141259E+02  0.18504171204E+03  0.41818261298E+03  0.77693644388E+02 0.  0.
        254    2    1    2    0    0  0.36442790239E+03 -0.42335141259E+02  0.95630952576E+03  0.13805099917E+04  0.92557007729E+03 0.  0.
         23    2    4    4    0    0  0.32439813165E+03 -0.32499615158E+02 -0.73107559351E+02  0.34644118159E+03  0.91577313065E+02 0.  0.
         23    2    4    4    0    0  0.40029770741E+02 -0.98355261009E+01  0.10294170851E+04  0.10340688101E+04  0.88879968842E+02 0.  0.
          2    1    3    3  502    0 -0.34287469161E+02  0.57302271193E+01  0.47042546981E+02  0.58493309624E+02  0.00000000000E+00 0. -1.
         -1    1    3    3    0  502 -0.33014043323E+03  0.36604914140E+02  0.13799916506E+03  0.35968930335E+03  0.00000000000E+00 0.  1.
         13    1    5    5    0    0  0.27713942726E+03 -0.29680361209E+02 -0.26458606176E+02  0.27997722019E+03  0.00000000000E+00 0.  1.
        -13    1    5    5    0    0  0.47258704380E+02 -0.28192539492E+01 -0.46648953175E+02  0.66463961399E+02  0.00000000000E+00 0. -1.
          4    1    6    6  503    0  0.23601425840E+02  0.57780493918E+01  0.65122839610E+02  0.69508254153E+02  0.00000000000E+00 0. -1.
         -4    1    6    6    0  503  0.16428344901E+02 -0.15613575493E+02  0.96429424550E+03  0.96456055598E+03  0.00000000000E+00 0.  1.
<mgrwt>
<rscale>  0 0.13901843E+04</rscale>
<asrwt>0</asrwt>
<pdfrwt beam="1">  1        2 0.22615722E+00 0.13901843E+04</pdfrwt>
<pdfrwt beam="2">  1       -1 0.50564721E-01 0.13901843E+04</pdfrwt>
<totfact> 0.57549937E+01</totfact>
</mgrwt>
</event>
<event>
12    7  0.1741211E-007  0.1979394E+04  0.7818608E-02  0.8616316E-01
          2   -1    0    0  501    0  0.00000000000E+00  0.00000000000E+00  0.79609238735E+03  0.79609238735E+03  0.00000000000E+00 0. -1.
         -1   -1    0    0    0  501 -0.00000000000E+00 -0.00000000000E+00 -0.12303844270E+04  0.12303844270E+04  0.00000000000E+00 0.  1.
         24    2    1    2    0    0 -0.30168352310E+03 -0.67713684096E+03 -0.32933752358E+03  0.81495280088E+03  0.78470464061E+02 0.  0.
        254    2    1    2    0    0  0.30168352310E+03  0.67713684096E+03 -0.10495451610E+03  0.12115240135E+04  0.95249553036E+03 0.  0.
         23    2    4    4    0    0  0.11974831602E+02 -0.18769180701E+03  0.15380724737E+03  0.25915487335E+03  0.90182969726E+02 0.  0.
         23    2    4    4    0    0  0.28970869149E+03  0.86482864797E+03 -0.25876176347E+03  0.95236914015E+03  0.90496478428E+02 0.  0.
          2    1    3    3  502    0 -0.23849204710E+03 -0.47203852739E+03 -0.20709521620E+03  0.56796765440E+03  0.00000000000E+00 0. -1.
         -1    1    3    3    0  502 -0.63191475994E+02 -0.20509831357E+03 -0.12224230738E+03  0.24698514648E+03  0.00000000000E+00 0.  1.
         13    1    5    5    0    0  0.22154672377E+02 -0.18460819091E+03  0.16129708592E+03  0.24614581773E+03  0.00000000000E+00 0. -1.
        -13    1    5    5    0    0 -0.10179840775E+02 -0.30836160993E+01 -0.74898385582E+01  0.13009055618E+02  0.00000000000E+00 0.  1.
          1    1    6    6  503    0  0.17455927748E+03  0.40146464021E+03 -0.14923363519E+03  0.46250997456E+03  0.00000000000E+00 0. -1.
         -1    1    6    6    0  503  0.11514941402E+03  0.46336400776E+03 -0.10952812828E+03  0.48985916559E+03  0.00000000000E+00 0.  1.
<mgrwt>
<rscale>  0 0.19793935E+04</rscale>
<asrwt>0</asrwt>
<pdfrwt beam="1">  1        2 0.12247575E+00 0.19793935E+04</pdfrwt>
<pdfrwt beam="2">  1       -1 0.18928991E+00 0.19793935E+04</pdfrwt>
<totfact> 0.65815598E+00</totfact>
</mgrwt>
</event>
<event>
12    7  0.1741211E-007  0.4365397E+04  0.7818608E-02  0.7934635E-01
          2   -1    0    0  501    0  0.00000000000E+00  0.00000000000E+00  0.34380750967E+04  0.34380750967E+04  0.00000000000E+00 0. -1.
         -1   -1    0    0    0  501 -0.00000000000E+00 -0.00000000000E+00 -0.13857091871E+04  0.13857091871E+04  0.00000000000E+00 0.  1.
         24    2    1    2    0    0 -0.21791177045E+03  0.75227432151E+03  0.31112061214E+04  0.32092742107E+04  0.80219914444E+02 0.  0.
        254    2    1    2    0    0  0.21791177045E+03 -0.75227432151E+03 -0.10588402118E+04  0.16145100731E+04  0.93386186754E+03 0.  0.
         23    2    4    4    0    0 -0.16405457132E+03 -0.79966370179E+03 -0.75368156722E+03  0.11149646116E+04  0.93457167036E+02 0.  0.
         23    2    4    4    0    0  0.38196634177E+03  0.47389380275E+02 -0.30515864457E+03  0.49954546152E+03  0.90993572073E+02 0.  0.
          4    1    3    3  502    0 -0.19181897487E+03  0.69394870083E+03  0.27635759021E+04  0.28558205625E+04  0.00000000000E+00 0. -1.
         -3    1    3    3    0  502 -0.26092795576E+02  0.58325620685E+02  0.34763021934E+03  0.35345364818E+03  0.00000000000E+00 0.  1.
         13    1    5    5    0    0 -0.49161252130E+02 -0.36289935101E+03 -0.39120895084E+03  0.53587051690E+03  0.00000000000E+00 0. -1.
        -13    1    5    5    0    0 -0.11489331919E+03 -0.43676435078E+03 -0.36247261639E+03  0.57909409472E+03  0.00000000000E+00 0.  1.
          4    1    6    6  503    0  0.11074222324E+02  0.12377816407E+02  0.19709669903E+01  0.16725233929E+02  0.00000000000E+00 0. -1.
         -4    1    6    6    0  503  0.37089211944E+03  0.35011563868E+02 -0.30712961157E+03  0.48282022759E+03  0.00000000000E+00 0.  1.
<mgrwt>
<rscale>  0 0.43653968E+04</rscale>
<asrwt>0</asrwt>
<pdfrwt beam="1">  1        2 0.52893463E+00 0.43653968E+04</pdfrwt>
<pdfrwt beam="2">  1       -1 0.21318603E+00 0.43653968E+04</pdfrwt>
<totfact> 0.95316061E-02</totfact>
</mgrwt>
</event>
<event>
12    7  0.1741211E-007  0.2017844E+04  0.7818608E-02  0.8598323E-01
         -1   -1    0    0    0  501 -0.00000000000E+00  0.00000000000E+00  0.72587811886E+03  0.72587811886E+03  0.00000000000E+00 0.  1.
          2   -1    0    0  501    0  0.00000000000E+00 -0.00000000000E+00 -0.14023337723E+04  0.14023337723E+04  0.00000000000E+00 0. -1.
         24    2    1    2    0    0 -0.71669944127E+03  0.36311696602E+03 -0.19200786450E+03  0.83010272127E+03  0.81801514040E+02 0.  0.
        254    2    1    2    0    0  0.71669944127E+03 -0.36311696602E+03 -0.48444778894E+03  0.12981091699E+04  0.89715424349E+03 0.  0.
         23    2    4    4    0    0 -0.18924908522E+03 -0.51488154788E+02  0.67231326496E+01  0.21746987821E+03  0.93710730837E+02 0.  0.
         23    2    4    4    0    0  0.90594852649E+03 -0.31162881123E+03 -0.49117092159E+03  0.10806392917E+04  0.93151252592E+02 0.  0.
          4    1    3    3  502    0 -0.91982624611E+02  0.55750066176E+02 -0.53868992457E+02  0.12029439495E+03  0.00000000000E+00 0. -1.
         -3    1    3    3    0  502 -0.62471681666E+03  0.30736689984E+03 -0.13813887204E+03  0.70980832632E+03  0.00000000000E+00 0.  1.
         13    1    5    5    0    0 -0.47055772299E+02  0.50751849410E+01 -0.34987379962E+02  0.58856775017E+02  0.00000000000E+00 0.  1.
        -13    1    5    5    0    0 -0.14219331292E+03 -0.56563339729E+02  0.41710512611E+02  0.15861310319E+03  0.00000000000E+00 0. -1.
          2    1    6    6  503    0  0.56088437943E+03 -0.18473503731E+03 -0.35230542919E+03  0.68763175940E+03  0.00000000000E+00 0. -1.
         -2    1    6    6    0  503  0.34506414707E+03 -0.12689377392E+03 -0.13886549240E+03  0.39300753228E+03  0.00000000000E+00 0.  1.
<mgrwt>
<rscale>  0 0.20178438E+04</rscale>
<asrwt>0</asrwt>
<pdfrwt beam="1">  1        2 0.21574366E+00 0.20178438E+04</pdfrwt>
<pdfrwt beam="2">  1       -1 0.11167356E+00 0.20178438E+04</pdfrwt>
<totfact> 0.11230587E+01</totfact>
</mgrwt>
</event>
<event>
12    7  0.1741211E-007  0.1696010E+04  0.7818608E-02  0.8763643E-01
         -1   -1    0    0    0  501 -0.00000000000E+00  0.00000000000E+00  0.39492049739E+03  0.39492049739E+03  0.00000000000E+00 0.  1.
          2   -1    0    0  501    0  0.00000000000E+00 -0.00000000000E+00 -0.18209051768E+04  0.18209051768E+04  0.00000000000E+00 0. -1.
         24    2    1    2    0    0  0.22092256742E+03  0.29407775425E+03  0.11448930091E+03  0.39352112859E+03  0.80390125566E+02 0.  0.
        254    2    1    2    0    0 -0.22092256742E+03 -0.29407775425E+03 -0.15404739803E+04  0.18223045456E+04  0.90135745768E+03 0.  0.
         23    2    4    4    0    0 -0.79728512567E+02 -0.43920276579E+03 -0.26407392930E+03  0.52664540693E+03  0.91458402064E+02 0.  0.
         23    2    4    4    0    0 -0.14119405485E+03  0.14512501154E+03 -0.12764000510E+04  0.12956591386E+04  0.92403913790E+02 0.  0.
          4    1    3    3  502    0  0.55105403300E+02  0.76542899191E+02 -0.62696302922E+01  0.94523696254E+02  0.00000000000E+00 0. -1.
         -3    1    3    3    0  502  0.16581716412E+03  0.21753485506E+03  0.12075893120E+03  0.29899743234E+03  0.00000000000E+00 0.  1.
         13    1    5    5    0    0 -0.47609636334E+02 -0.68173792746E+02 -0.52152166419E+02  0.98153919695E+02  0.00000000000E+00 0. -1.
        -13    1    5    5    0    0 -0.32118876233E+02 -0.37102897304E+03 -0.21192176288E+03  0.42849148723E+03  0.00000000000E+00 0.  1.
          2    1    6    6  503    0 -0.15181185370E+03  0.13382663415E+03 -0.12345852269E+04  0.12510623843E+04  0.00000000000E+00 0. -1.
         -2    1    6    6    0  503  0.10617798849E+02  0.11298377387E+02 -0.41814824030E+02  0.44596754284E+02  0.00000000000E+00 0.  1.
<mgrwt>
<rscale>  0 0.16960104E+04</rscale>
<asrwt>0</asrwt>
<pdfrwt beam="1">  1        2 0.28013926E+00 0.16960104E+04</pdfrwt>
<pdfrwt beam="2">  1       -1 0.60756998E-01 0.16960104E+04</pdfrwt>
<totfact> 0.25023633E+01</totfact>
</mgrwt>
</event>
<event>
12    7  0.1741211E-007  0.1487071E+04  0.7818608E-02  0.8893096E-01
         -1   -1    0    0    0  501 -0.00000000000E+00  0.00000000000E+00  0.27643206819E+03  0.27643206819E+03  0.00000000000E+00 0.  1.
          2   -1    0    0  501    0  0.00000000000E+00 -0.00000000000E+00 -0.19999315137E+04  0.19999315137E+04  0.00000000000E+00 0. -1.
         24    2    1    2    0    0  0.25474548139E+03  0.33056892111E+03 -0.22310753024E+03  0.48035868682E+03  0.82440439471E+02 0.  0.
        254    2    1    2    0    0 -0.25474548139E+03 -0.33056892111E+03 -0.15003919152E+04  0.17960048950E+04  0.89458739753E+03 0.  0.
         23    2    4    4    0    0 -0.33560160545E+03  0.22647897674E+03 -0.62190884912E+03  0.74753622373E+03  0.90103411107E+02 0.  0.
         23    2    4    4    0    0  0.80856124061E+02 -0.55704789785E+03 -0.87848306610E+03  0.10484686713E+04  0.10350837635E+03 0.  0.
          4    1    3    3  502    0  0.14010462297E+03  0.12954573436E+03 -0.71853764537E+02  0.20389793071E+03  0.00000000000E+00 0. -1.
         -3    1    3    3    0  502  0.11464085842E+03  0.20102318674E+03 -0.15125376570E+03  0.27646075610E+03  0.00000000000E+00 0.  1.
         13    1    5    5    0    0 -0.30953952411E+03  0.19756725300E+03 -0.50557308840E+03  0.62486133194E+03  0.00000000000E+00 0. -1.
        -13    1    5    5    0    0 -0.26062081342E+02  0.28911723741E+02 -0.11633576072E+03  0.12267489179E+03  0.00000000000E+00 0.  1.
          2    1    6    6  503    0  0.66356678787E+02 -0.51635959100E+03 -0.84989525662E+03  0.99667064935E+03  0.00000000000E+00 0. -1.
         -2    1    6    6    0  503  0.14499445274E+02 -0.40688306850E+02 -0.28587809477E+02  0.51798021953E+02  0.00000000000E+00 0.  1.
<mgrwt>
<rscale>  0 0.14870712E+04</rscale>
<asrwt>0</asrwt>
<pdfrwt beam="1">  1        2 0.30768178E+00 0.14870712E+04</pdfrwt>
<pdfrwt beam="2">  1       -1 0.42528009E-01 0.14870712E+04</pdfrwt>
<totfact> 0.40063499E+01</totfact>
</mgrwt>
</event>
<event>
12    7  0.1741211E-007  0.1329094E+04  0.7818608E-02  0.9006806E-01
          2   -1    0    0  501    0  0.00000000000E+00  0.00000000000E+00  0.25437586745E+04  0.25437586745E+04  0.00000000000E+00 0. -1.
         -1   -1    0    0    0  501 -0.00000000000E+00 -0.00000000000E+00 -0.17361030233E+03  0.17361030233E+03  0.00000000000E+00 0.  1.
         24    2    1    2    0    0  0.27708353654E+03  0.22131844300E+03  0.75073865370E+03  0.83425016114E+03  0.81287549905E+02 0.  0.
        254    2    1    2    0    0 -0.27708353654E+03 -0.22131844300E+03  0.16194097185E+04  0.18831188157E+04  0.89324772505E+03 0.  0.
         23    2    4    4    0    0 -0.36221004846E+03  0.11990137331E+03  0.14099570323E+04  0.14636416400E+04  0.93249980814E+02 0.  0.
         23    2    4    4    0    0  0.85126511920E+02 -0.34121981631E+03  0.20945268618E+03  0.41947717568E+03  0.91723427212E+02 0.  0.
          4    1    3    3  502    0  0.13745638733E+03  0.10424761260E+03  0.45824854448E+03  0.48964635368E+03  0.00000000000E+00 0. -1.
         -3    1    3    3    0  502  0.13962714920E+03  0.11707083040E+03  0.29249010922E+03  0.34460380746E+03  0.00000000000E+00 0.  1.
         13    1    5    5    0    0 -0.32444477776E+03  0.10594757039E+03  0.11184421416E+04  0.11693597076E+04  0.00000000000E+00 0. -1.
        -13    1    5    5    0    0 -0.37765270700E+02  0.13953802918E+02  0.29151489068E+03  0.29428193246E+03  0.00000000000E+00 0.  1.
          1    1    6    6  503    0  0.95090645209E+02 -0.19641475793E+03  0.12989630567E+03  0.25395676436E+03  0.00000000000E+00 0. -1.
         -1    1    6    6    0  503 -0.99641332895E+01 -0.14480505838E+03  0.79556380505E+02  0.16552041132E+03  0.00000000000E+00 0.  1.
<mgrwt>
<rscale>  0 0.13290940E+04</rscale>
<asrwt>0</asrwt>
<pdfrwt beam="1">  1        2 0.39134746E+00 0.13290940E+04</pdfrwt>
<pdfrwt beam="2">  1       -1 0.26709279E-01 0.13290940E+04</pdfrwt>
<totfact> 0.45932787E+01</totfact>
</mgrwt>
</event>
<event>
12    7  0.1741211E-007  0.1716665E+04  0.7818608E-02  0.8751916E-01
          2   -1    0    0  501    0  0.00000000000E+00  0.00000000000E+00  0.23052470690E+04  0.23052470690E+04  0.00000000000E+00 0. -1.
         -1   -1    0    0    0  501 -0.00000000000E+00 -0.00000000000E+00 -0.31959051001E+03  0.31959051001E+03  0.00000000000E+00 0.  1.
         24    2    1    2    0    0 -0.45443234199E+03  0.40943684737E+03  0.68607463542E+03  0.92243050892E+03  0.77668223709E+02 0.  0.
        254    2    1    2    0    0  0.45443234199E+03 -0.40943684737E+03  0.12995819236E+04  0.17024070701E+04  0.91385412996E+03 0.  0.
         23    2    4    4    0    0  0.60114371986E+03 -0.15797959036E+03  0.12419501864E+04  0.13918084293E+04  0.91428197725E+02 0.  0.
         23    2    4    4    0    0 -0.14671137787E+03 -0.25145725701E+03  0.57631737185E+02  0.31059864086E+03  0.91624876944E+02 0.  0.
          2    1    3    3  502    0 -0.27453977134E+03  0.26457012510E+03  0.37307572225E+03  0.53343690505E+03  0.00000000000E+00 0. -1.
         -1    1    3    3    0  502 -0.17989257066E+03  0.14486672228E+03  0.31299891317E+03  0.38899360386E+03  0.00000000000E+00 0.  1.
         13    1    5    5    0    0  0.37909215861E+03 -0.53582801055E+02  0.76162798701E+03  0.85244306079E+03  0.00000000000E+00 0. -1.
        -13    1    5    5    0    0  0.22205156125E+03 -0.10439678931E+03  0.48032219942E+03  0.53936536849E+03  0.00000000000E+00 0.  1.
          1    1    6    6  503    0 -0.14597759830E+03 -0.25269249683E+03  0.41921223143E+02  0.29482256716E+03  0.00000000000E+00 0. -1.
         -1    1    6    6    0  503 -0.73377957040E+00  0.12352398200E+01  0.15710514042E+02  0.15776073698E+02  0.00000000000E+00 0.  1.
<mgrwt>
<rscale>  0 0.17166655E+04</rscale>
<asrwt>0</asrwt>
<pdfrwt beam="1">  1        2 0.35465338E+00 0.17166655E+04</pdfrwt>
<pdfrwt beam="2">  1       -1 0.49167772E-01 0.17166655E+04</pdfrwt>
<totfact> 0.20209166E+01</totfact>
</mgrwt>
</event>
<event>
12    7  0.1741211E-007  0.1837767E+04  0.7818608E-02  0.8686469E-01
         -1   -1    0    0    0  501 -0.00000000000E+00  0.00000000000E+00  0.38806647525E+03  0.38806647525E+03  0.00000000000E+00 0.  1.
          2   -1    0    0  501    0  0.00000000000E+00 -0.00000000000E+00 -0.21757793518E+04  0.21757793518E+04  0.00000000000E+00 0. -1.
         24    2    1    2    0    0 -0.29737497574E+03  0.42836403317E+03 -0.35893334605E+02  0.52829340199E+03  0.76667894278E+02 0.  0.
        254    2    1    2    0    0  0.29737497574E+03 -0.42836403317E+03 -0.17518195420E+04  0.20355524251E+04  0.89592094879E+03 0.  0.
         23    2    4    4    0    0  0.51249165203E+03 -0.52282629813E+03 -0.10013228621E+04  0.12438890618E+04  0.92830450377E+02 0.  0.
         23    2    4    4    0    0 -0.21511667630E+03  0.94462264966E+02 -0.75049667986E+03  0.79166336325E+03  0.91034665422E+02 0.  0.
          4    1    3    3  502    0 -0.33913387931E+02  0.78745680385E+02 -0.28857440778E+02  0.90464092039E+02  0.00000000000E+00 0. -1.
         -3    1    3    3    0  502 -0.26346158780E+03  0.34961835278E+03 -0.70358938268E+01  0.43782930995E+03  0.00000000000E+00 0.  1.
         13    1    5    5    0    0  0.31318216922E+03 -0.29493801060E+03 -0.65793687642E+03  0.78609950678E+03  0.00000000000E+00 0.  1.
        -13    1    5    5    0    0  0.19930948281E+03 -0.22788828753E+03 -0.34338598568E+03  0.45778955503E+03  0.00000000000E+00 0. -1.
          1    1    6    6  503    0 -0.17415256082E+03  0.54976780460E+02 -0.65971507931E+03  0.68452578234E+03  0.00000000000E+00 0. -1.
         -1    1    6    6    0  503 -0.40964115473E+02  0.39485484505E+02 -0.90781600554E+02  0.10713758091E+03  0.00000000000E+00 0.  1.
<mgrwt>
<rscale>  0 0.18377671E+04</rscale>
<asrwt>0</asrwt>
<pdfrwt beam="1">  1        2 0.33473529E+00 0.18377671E+04</pdfrwt>
<pdfrwt beam="2">  1       -1 0.59702534E-01 0.18377671E+04</pdfrwt>
<totfact> 0.16246574E+01</totfact>
</mgrwt>
</event>
<event>
12    7  0.1741211E-007  0.1586573E+04  0.7818608E-02  0.8828840E-01
          2   -1    0    0  501    0  0.00000000000E+00  0.00000000000E+00  0.12276708596E+04  0.12276708596E+04  0.00000000000E+00 0. -1.
         -1   -1    0    0    0  501 -0.00000000000E+00 -0.00000000000E+00 -0.51259928763E+03  0.51259928763E+03  0.00000000000E+00 0.  1.
         24    2    1    2    0    0 -0.34549397175E+03  0.11973502732E+03  0.67268875369E+03  0.77158332803E+03  0.95541150608E+02 0.  0.
        254    2    1    2    0    0  0.34549397175E+03 -0.11973502732E+03  0.42382818291E+02  0.96868681921E+03  0.89602192448E+03 0.  0.
         23    2    4    4    0    0  0.38669839061E+03 -0.16177940751E+03 -0.35417572425E+03  0.55615888140E+03  0.90355053625E+02 0.  0.
         23    2    4    4    0    0 -0.41204418857E+02  0.42044380193E+02  0.39655854255E+03  0.41252793781E+03  0.97237275621E+02 0.  0.
          2    1    3    3  502    0 -0.24668795966E+03  0.59505500058E+02  0.38093668322E+03  0.45772110570E+03  0.00000000000E+00 0. -1.
         -1    1    3    3    0  502 -0.98806012089E+02  0.60229527261E+02  0.29175207047E+03  0.31386222233E+03  0.00000000000E+00 0.  1.
         13    1    5    5    0    0  0.36920798262E+03 -0.15272484780E+03 -0.35755457691E+03  0.53617598700E+03  0.00000000000E+00 0. -1.
        -13    1    5    5    0    0  0.17490407992E+02 -0.90545597136E+01  0.33788526601E+01  0.19982894401E+02  0.00000000000E+00 0.  1.
          1    1    6    6  503    0 -0.40359097372E+02  0.69111974618E+02  0.34640420204E+03  0.35552945443E+03  0.00000000000E+00 0. -1.
         -1    1    6    6    0  503 -0.84532148538E+00 -0.27067594424E+02  0.50154340507E+02  0.56998483383E+02  0.00000000000E+00 0.  1.
<mgrwt>
<rscale>  0 0.15865727E+04</rscale>
<asrwt>0</asrwt>
<pdfrwt beam="1">  1        2 0.18887244E+00 0.15865727E+04</pdfrwt>
<pdfrwt beam="2">  1       -1 0.78861429E-01 0.15865727E+04</pdfrwt>
<totfact> 0.32099516E+01</totfact>
</mgrwt>
</event>
<event>
12    7  0.1741211E-007  0.1666932E+04  0.7818608E-02  0.8780453E-01
          2   -1    0    0  501    0  0.00000000000E+00  0.00000000000E+00  0.31747274618E+03  0.31747274618E+03  0.00000000000E+00 0. -1.
         -3   -1    0    0    0  501 -0.00000000000E+00 -0.00000000000E+00 -0.21881096927E+04  0.21881096927E+04  0.00000000000E+00 0.  1.
         24    2    1    2    0    0  0.52577197868E+03  0.21630405023E+03 -0.45479120729E+03  0.73230768978E+03  0.78840944847E+02 0.  0.
        254    2    1    2    0    0 -0.52577197868E+03 -0.21630405023E+03 -0.14158457393E+04  0.17732747491E+04  0.90369273692E+03 0.  0.
         23    2    4    4    0    0 -0.47303522823E+02  0.25719782546E+03 -0.83854566707E+03  0.88295044100E+03  0.89745756484E+02 0.  0.
         23    2    4    4    0    0 -0.47846845586E+03 -0.47350187569E+03 -0.57730007218E+03  0.89032430811E+03  0.79157505889E+02 0.  0.
          4    1    3    3  502    0  0.34303389778E+03  0.14888515781E+03 -0.25083782112E+03  0.45028730578E+03  0.00000000000E+00 0. -1.
         -3    1    3    3    0  502  0.18273808090E+03  0.67418892413E+02 -0.20395338616E+03  0.28202038400E+03  0.00000000000E+00 0.  1.
         13    1    5    5    0    0 -0.55351112140E+02  0.25638836179E+03 -0.75999659030E+03  0.80398604151E+03  0.00000000000E+00 0.  1.
        -13    1    5    5    0    0  0.80475893173E+01  0.80946367135E+00 -0.78549076774E+02  0.78964399493E+02  0.00000000000E+00 0. -1.
          2    1    6    6  503    0 -0.60461273835E+02 -0.41034842856E+02 -0.37404015642E+02  0.82088271684E+02  0.00000000000E+00 0. -1.
         -2    1    6    6    0  503 -0.41800718202E+03 -0.43246703283E+03 -0.53989605654E+03  0.80823603642E+03  0.00000000000E+00 0.  1.
<mgrwt>
<rscale>  0 0.16669315E+04</rscale>
<asrwt>0</asrwt>
<pdfrwt beam="1">  1        2 0.48841963E-01 0.16669315E+04</pdfrwt>
<pdfrwt beam="2">  1       -3 0.33663225E+00 0.16669315E+04</pdfrwt>
<totfact> 0.14538202E+00</totfact>
</mgrwt>
</event>
<event>
12    7  0.1741211E-007  0.1434848E+04  0.7818608E-02  0.8928973E-01
          2   -1    0    0  501    0  0.00000000000E+00  0.00000000000E+00  0.17280570343E+04  0.17280570343E+04  0.00000000000E+00 0. -1.
         -1   -1    0    0    0  501 -0.00000000000E+00 -0.00000000000E+00 -0.29784714072E+03  0.29784714072E+03  0.00000000000E+00 0.  1.
         24    2    1    2    0    0 -0.20802229168E+02  0.33156125231E+03  0.83017458184E+03  0.89768789454E+03  0.79297685391E+02 0.  0.
        254    2    1    2    0    0  0.20802229168E+02 -0.33156125231E+03  0.60003531176E+03  0.11282162805E+04  0.89580355182E+03 0.  0.
         23    2    4    4    0    0 -0.90804175501E+02  0.26966987982E+03  0.54566899911E+02  0.30391472620E+03  0.91757135226E+02 0.  0.
         23    2    4    4    0    0  0.11160640467E+03 -0.60123113212E+03  0.54546841185E+03  0.82430155431E+03  0.89456136220E+02 0.  0.
          4    1    3    3  502    0 -0.14936907972E+01  0.31530349786E+03  0.74848191211E+03  0.81218452314E+03  0.00000000000E+00 0. -1.
         -3    1    3    3    0  502 -0.19308538371E+02  0.16257754449E+02  0.81692669728E+02  0.85503371402E+02  0.00000000000E+00 0.  1.
         13    1    5    5    0    0 -0.52290301466E+02  0.43445442038E+02  0.25468820549E+02  0.72597815955E+02  0.00000000000E+00 0.  1.
        -13    1    5    5    0    0 -0.38513874036E+02  0.22622443778E+03  0.29098079361E+02  0.23131691024E+03  0.00000000000E+00 0. -1.
          4    1    6    6  503    0  0.12267251478E+03 -0.45708149880E+03  0.40931707052E+03  0.62570960248E+03  0.00000000000E+00 0.  1.
         -4    1    6    6    0  503 -0.11066110113E+02 -0.14414963333E+03  0.13615134134E+03  0.19859195182E+03  0.00000000000E+00 0. -1.
<mgrwt>
<rscale>  0 0.14348475E+04</rscale>
<asrwt>0</asrwt>
<pdfrwt beam="1">  1        2 0.26585492E+00 0.14348475E+04</pdfrwt>
<pdfrwt beam="2">  1       -1 0.45822638E-01 0.14348475E+04</pdfrwt>
<totfact> 0.49534986E+01</totfact>
</mgrwt>
</event>
<event>
12    7  0.1741211E-007  0.1706019E+04  0.7818608E-02  0.8757939E-01
         -1   -1    0    0    0  501 -0.00000000000E+00  0.00000000000E+00  0.44570025156E+03  0.44570025156E+03  0.00000000000E+00 0.  1.
          2   -1    0    0  501    0  0.00000000000E+00 -0.00000000000E+00 -0.16325439161E+04  0.16325439161E+04  0.00000000000E+00 0. -1.
         24    2    1    2    0    0  0.31008535694E+02  0.59899176478E+03 -0.26805827873E+03  0.66173860951E+03  0.79310043237E+02 0.  0.
        254    2    1    2    0    0 -0.31008535694E+02 -0.59899176478E+03 -0.91878538579E+03  0.14165055581E+04  0.89586201364E+03 0.  0.
         23    2    4    4    0    0  0.40212237445E+03 -0.14810868335E+03 -0.29446073436E+03  0.52806946641E+03  0.92258610154E+02 0.  0.
         23    2    4    4    0    0 -0.43313091015E+03 -0.45088308143E+03 -0.62432465143E+03  0.88843609172E+03  0.92948804391E+02 0.  0.
          2    1    3    3  502    0  0.17844798114E+02  0.11868381029E+03 -0.87149285745E+02  0.14832154816E+03  0.00000000000E+00 0. -1.
         -3    1    3    3    0  502  0.13163737580E+02  0.48030795450E+03 -0.18090899299E+03  0.51341706135E+03  0.00000000000E+00 0.  1.
         13    1    5    5    0    0  0.32569164360E+03 -0.13818942546E+03 -0.27626102849E+03  0.44887806795E+03  0.00000000000E+00 0.  1.
        -13    1    5    5    0    0  0.76430730850E+02 -0.99192578890E+01 -0.18199705868E+02  0.79191398453E+02  0.00000000000E+00 0. -1.
          4    1    6    6  503    0 -0.10929540868E+03 -0.63301235735E+02 -0.10831885827E+03  0.16638962666E+03  0.00000000000E+00 0. -1.
         -4    1    6    6    0  503 -0.32383550147E+03 -0.38758184570E+03 -0.51600579316E+03  0.72204646506E+03  0.00000000000E+00 0.  1.
<mgrwt>
<rscale>  0 0.17060190E+04</rscale>
<asrwt>0</asrwt>
<pdfrwt beam="1">  1        2 0.25116060E+00 0.17060190E+04</pdfrwt>
<pdfrwt beam="2">  1       -1 0.68569270E-01 0.17060190E+04</pdfrwt>
<totfact> 0.24942065E+01</totfact>
</mgrwt>
</event>
<event>
12    7  0.1741211E-007  0.2335416E+04  0.7818608E-02  0.8464087E-01
          2   -1    0    0  501    0  0.00000000000E+00  0.00000000000E+00  0.33090247539E+04  0.33090247539E+04  0.00000000000E+00 0. -1.
         -1   -1    0    0    0  501 -0.00000000000E+00 -0.00000000000E+00 -0.41206766146E+03  0.41206766146E+03  0.00000000000E+00 0.  1.
         24    2    1    2    0    0  0.35601679560E+03  0.94139507700E+03  0.94224959206E+03  0.13809903466E+04  0.79544917910E+02 0.  0.
        254    2    1    2    0    0 -0.35601679560E+03 -0.94139507700E+03  0.19547075003E+04  0.23401020687E+04  0.80138856386E+03 0.  0.
         23    2    4    4    0    0 -0.24736742298E+03 -0.76426043913E+03  0.71200742615E+03  0.10769024898E+04  0.86485472347E+02 0.  0.
         23    2    4    4    0    0 -0.10864937263E+03 -0.17713463786E+03  0.12427000742E+04  0.12631995789E+04  0.90489422352E+02 0.  0.
          4    1    3    3  502    0  0.14947653283E+03  0.35140393388E+03  0.40627032127E+03  0.55756930741E+03  0.00000000000E+00 0. -1.
         -3    1    3    3    0  502  0.20654026278E+03  0.58999114312E+03  0.53597927079E+03  0.82342103921E+03  0.00000000000E+00 0.  1.
         13    1    5    5    0    0 -0.17562705660E+03 -0.64690589122E+03  0.59608782115E+03  0.89702440637E+03  0.00000000000E+00 0.  1.
        -13    1    5    5    0    0 -0.71740366375E+02 -0.11735454792E+03  0.11591960500E+03  0.17987808346E+03  0.00000000000E+00 0. -1.
          1    1    6    6  503    0 -0.52310009113E+01 -0.95762332004E+01  0.97737533584E+01  0.14649022751E+02  0.00000000000E+00 0. -1.
         -1    1    6    6    0  503 -0.10341837172E+03 -0.16755840466E+03  0.12329263208E+04  0.12485505561E+04  0.00000000000E+00 0.  1.
<mgrwt>
<rscale>  0 0.23354161E+04</rscale>
<asrwt>0</asrwt>
<pdfrwt beam="1">  1        2 0.50908071E+00 0.23354161E+04</pdfrwt>
<pdfrwt beam="2">  1       -1 0.63395027E-01 0.23354161E+04</pdfrwt>
<totfact> 0.28554534E+00</totfact>
</mgrwt>
</event>
<event>
12    7  0.1741211E-007  0.2228361E+04  0.7818608E-02  0.8506715E-01
          2   -1    0    0  501    0  0.00000000000E+00  0.00000000000E+00  0.99414112635E+03  0.99414112635E+03  0.00000000000E+00 0. -1.
         -1   -1    0    0    0  501 -0.00000000000E+00 -0.00000000000E+00 -0.12487145675E+04  0.12487145675E+04  0.00000000000E+00 0.  1.
         24    2    1    2    0    0  0.61340813076E+03  0.67604516820E+03 -0.30151228977E+03  0.96465058151E+03  0.79589441514E+02 0.  0.
        254    2    1    2    0    0 -0.61340813076E+03 -0.67604516820E+03  0.46938848618E+02  0.12782051123E+04  0.89347548896E+03 0.  0.
         23    2    4    4    0    0 -0.82797464844E+03 -0.47145281571E+03  0.10451596830E+03  0.96287845931E+03  0.91660045161E+02 0.  0.
         23    2    4    4    0    0  0.21456651768E+03 -0.20459235249E+03 -0.57577119684E+02  0.31532665303E+03  0.90658436959E+02 0.  0.
          4    1    3    3  502    0  0.24032542315E+03  0.26786565140E+03 -0.78205387106E+02  0.36827218030E+03  0.00000000000E+00 0. -1.
         -3    1    3    3    0  502  0.37308270762E+03  0.40817951680E+03 -0.22330690266E+03  0.59637840122E+03  0.00000000000E+00 0.  1.
         13    1    5    5    0    0 -0.54340379962E+02 -0.93746127449E+01 -0.37633258884E+01  0.55271356780E+02  0.00000000000E+00 0. -1.
        -13    1    5    5    0    0 -0.77363426848E+03 -0.46207820296E+03  0.10827929419E+03  0.90760710253E+03  0.00000000000E+00 0.  1.
          3    1    6    6  503    0  0.36677066937E+02 -0.30392097092E+02 -0.45784334898E+02  0.66068843844E+02  0.00000000000E+00 0. -1.
         -3    1    6    6    0  503  0.17788945074E+03 -0.17420025540E+03 -0.11792784786E+02  0.24925780918E+03  0.00000000000E+00 0.  1.
<mgrwt>
<rscale>  0 0.22283613E+04</rscale>
<asrwt>0</asrwt>
<pdfrwt beam="1">  1        2 0.15294479E+00 0.22283613E+04</pdfrwt>
<pdfrwt beam="2">  1       -1 0.19210993E+00 0.22283613E+04</pdfrwt>
<totfact> 0.45126597E+00</totfact>
</mgrwt>
</event>
<event>
12    7  0.1741211E-007  0.1770601E+04  0.7818608E-02  0.8722091E-01
         -1   -1    0    0    0  501 -0.00000000000E+00  0.00000000000E+00  0.52872390149E+03  0.52872390149E+03  0.00000000000E+00 0.  1.
          2   -1    0    0  501    0  0.00000000000E+00 -0.00000000000E+00 -0.14823566275E+04  0.14823566275E+04  0.00000000000E+00 0. -1.
         24    2    1    2    0    0 -0.32687076336E+03 -0.30511674931E+03  0.18262378231E+03  0.48968483497E+03  0.80616779170E+02 0.  0.
        254    2    1    2    0    0  0.32687076336E+03  0.30511674931E+03 -0.11362565083E+04  0.15213956940E+04  0.90753803141E+03 0.  0.
         23    2    4    4    0    0  0.63614899811E+03  0.20412727737E+03 -0.75960165062E+03  0.10157436014E+04  0.91580035567E+02 0.  0.
         23    2    4    4    0    0 -0.30927823475E+03  0.10098947193E+03 -0.37665485772E+03  0.50565209268E+03  0.89237083425E+02 0.  0.
          4    1    3    3  502    0 -0.68491224094E+02 -0.80212863984E+02  0.95900111981E+01  0.10591090426E+03  0.00000000000E+00 0. -1.
         -3    1    3    3    0  502 -0.25837953927E+03 -0.22490388532E+03  0.17303377111E+03  0.38377393071E+03  0.00000000000E+00 0.  1.
         13    1    5    5    0    0  0.42518880423E+02 -0.38940643085E+01 -0.28744878840E+02  0.51471224862E+02  0.00000000000E+00 0. -1.
        -13    1    5    5    0    0  0.59363011769E+03  0.20802134168E+03 -0.73085677178E+03  0.96427237650E+03  0.00000000000E+00 0.  1.
          3    1    6    6  503    0 -0.11775659910E+03 -0.45133397918E+01 -0.14944825034E+03  0.19032016813E+03  0.00000000000E+00 0. -1.
         -3    1    6    6    0  503 -0.19152163565E+03  0.10550281173E+03 -0.22720660738E+03  0.31533192455E+03  0.00000000000E+00 0.  1.
<mgrwt>
<rscale>  0 0.17706015E+04</rscale>
<asrwt>0</asrwt>
<pdfrwt beam="1">  1        2 0.22805487E+00 0.17706015E+04</pdfrwt>
<pdfrwt beam="2">  1       -1 0.81342138E-01 0.17706015E+04</pdfrwt>
<totfact> 0.21084498E+01</totfact>
</mgrwt>
</event>
<event>
12    7  0.1741211E-007  0.1679352E+04  0.7818608E-02  0.8773229E-01
          2   -1    0    0  501    0  0.00000000000E+00  0.00000000000E+00  0.46922574011E+03  0.46922574011E+03  0.00000000000E+00 0. -1.
         -1   -1    0    0    0  501 -0.00000000000E+00 -0.00000000000E+00 -0.15025940190E+04  0.15025940190E+04  0.00000000000E+00 0.  1.
         24    2    1    2    0    0 -0.13112420082E+03  0.39564377361E+03 -0.80389690270E+03  0.90896874312E+03  0.79034132864E+02 0.  0.
        254    2    1    2    0    0  0.13112420082E+03 -0.39564377361E+03 -0.22947137617E+03  0.10628510160E+04  0.95040392362E+03 0.  0.
         23    2    4    4    0    0 -0.34736635979E+03 -0.37971408715E+03 -0.23837979500E+03  0.57444385845E+03  0.91184669543E+02 0.  0.
         23    2    4    4    0    0  0.47849056061E+03 -0.15929686462E+02  0.89084188362E+01  0.48840715751E+03  0.96204054383E+02 0.  0.
          2    1    3    3  502    0 -0.11592901062E+03  0.30754311547E+03 -0.68909851565E+03  0.76346517121E+03  0.00000000000E+00 0. -1.
         -1    1    3    3    0  502 -0.15195190208E+02  0.88100658134E+02 -0.11479838706E+03  0.14550357191E+03  0.00000000000E+00 0.  1.
         13    1    5    5    0    0 -0.29132981300E+03 -0.29869953584E+03 -0.15406607262E+03  0.44478177502E+03  0.00000000000E+00 0. -1.
        -13    1    5    5    0    0 -0.56036546782E+02 -0.81014551306E+02 -0.84313722380E+02  0.12966208343E+03  0.00000000000E+00 0.  1.
          3    1    6    6  503    0  0.45067642022E+03 -0.14651142116E+02 -0.15785728120E+02  0.45119073674E+03  0.00000000000E+00 0. -1.
         -3    1    6    6    0  503  0.27814140394E+02 -0.12785443465E+01  0.24694146957E+02  0.37216420776E+02  0.00000000000E+00 0.  1.
<mgrwt>
<rscale>  0 0.16793520E+04</rscale>
<asrwt>0</asrwt>
<pdfrwt beam="1">  1        2 0.72188574E-01 0.16793520E+04</pdfrwt>
<pdfrwt beam="2">  1       -1 0.23116832E+00 0.16793520E+04</pdfrwt>
<totfact> 0.66962383E+00</totfact>
</mgrwt>
</event>
<event>
12    7  0.1741211E-007  0.1483908E+04  0.7818608E-02  0.8895225E-01
         -1   -1    0    0    0  501 -0.00000000000E+00  0.00000000000E+00  0.55506335275E+03  0.55506335275E+03  0.00000000000E+00 0.  1.
          2   -1    0    0  501    0  0.00000000000E+00 -0.00000000000E+00 -0.99177098724E+03  0.99177098724E+03  0.00000000000E+00 0. -1.
         24    2    1    2    0    0 -0.31194886296E+03  0.20446874656E+03  0.15379039966E+03  0.41138041827E+03  0.80391542391E+02 0.  0.
        254    2    1    2    0    0  0.31194886296E+03 -0.20446874656E+03 -0.59049803415E+03  0.11354539217E+04  0.89523634789E+03 0.  0.
         23    2    4    4    0    0  0.33795223336E+03 -0.52747951740E+03 -0.41510211544E+03  0.75689715407E+03  0.90206331752E+02 0.  0.
         23    2    4    4    0    0 -0.26003370396E+02  0.32301077084E+03 -0.17539591871E+03  0.37855676765E+03  0.86771911835E+02 0.  0.
          4    1    3    3  502    0 -0.61822336853E+02  0.28604287160E+02  0.62067750084E+02  0.92155369775E+02  0.00000000000E+00 0. -1.
         -3    1    3    3    0  502 -0.25012652611E+03  0.17586445940E+03  0.91722649577E+02  0.31922504850E+03  0.00000000000E+00 0.  1.
         13    1    5    5    0    0  0.33667641602E+03 -0.49330571066E+03 -0.37996983973E+03  0.70786906443E+03  0.00000000000E+00 0. -1.
        -13    1    5    5    0    0  0.12758173340E+01 -0.34173806743E+02 -0.35132275706E+02  0.49028089637E+02  0.00000000000E+00 0.  1.
          2    1    6    6  503    0 -0.56942107878E+02  0.17429286042E+03 -0.10260431186E+03  0.21011437280E+03  0.00000000000E+00 0. -1.
         -2    1    6    6    0  503  0.30938737482E+02  0.14871791042E+03 -0.72791606843E+02  0.16844239485E+03  0.00000000000E+00 0.  1.
<mgrwt>
<rscale>  0 0.14839080E+04</rscale>
<asrwt>0</asrwt>
<pdfrwt beam="1">  1        2 0.15258015E+00 0.14839080E+04</pdfrwt>
<pdfrwt beam="2">  1       -1 0.85394362E-01 0.14839080E+04</pdfrwt>
<totfact> 0.38153185E+01</totfact>
</mgrwt>
</event>
<event>
12    7  0.1741211E-007  0.1421567E+04  0.7818608E-02  0.8938353E-01
          2   -1    0    0  501    0  0.00000000000E+00  0.00000000000E+00  0.48071016720E+03  0.48071016720E+03  0.00000000000E+00 0. -1.
         -1   -1    0    0    0  501 -0.00000000000E+00 -0.00000000000E+00 -0.10509729799E+04  0.10509729799E+04  0.00000000000E+00 0.  1.
         24    2    1    2    0    0 -0.35802486667E+03  0.24472013335E+03 -0.23640557647E+03  0.50043815288E+03  0.80504654813E+02 0.  0.
        254    2    1    2    0    0  0.35802486667E+03 -0.24472013335E+03 -0.33385723627E+03  0.10312449943E+04  0.87403422997E+03 0.  0.
         23    2    4    4    0    0 -0.16646969330E+03 -0.11102527695E+03 -0.42185338953E+03  0.47578793827E+03  0.91515621808E+02 0.  0.
         23    2    4    4    0    0  0.52449455997E+03 -0.13369485639E+03  0.87996153261E+02  0.55545705599E+03  0.88432799328E+02 0.  0.
          4    1    3    3  502    0 -0.59717412344E+02  0.16987378010E+02 -0.57720196214E+02  0.84772409425E+02  0.00000000000E+00 0. -1.
         -3    1    3    3    0  502 -0.29830745433E+03  0.22773275534E+03 -0.17868538026E+03  0.41566574345E+03  0.00000000000E+00 0.  1.
         13    1    5    5    0    0 -0.12745560120E+02 -0.29632175437E+02 -0.14715737628E+03  0.15065128117E+03  0.00000000000E+00 0. -1.
        -13    1    5    5    0    0 -0.15372413318E+03 -0.81393101517E+02 -0.27469601325E+03  0.32513665710E+03  0.00000000000E+00 0.  1.
          1    1    6    6  503    0  0.17871008428E+02  0.57083820461E+01  0.16836563781E+02  0.25207706119E+02  0.00000000000E+00 0. -1.
         -1    1    6    6    0  503  0.50662355154E+03 -0.13940323844E+03  0.71159589480E+02  0.53024934987E+03  0.00000000000E+00 0.  1.
<mgrwt>
<rscale>  0 0.14215673E+04</rscale>
<asrwt>0</asrwt>
<pdfrwt beam="1">  1        2 0.73955411E-01 0.14215673E+04</pdfrwt>
<pdfrwt beam="2">  1       -1 0.16168815E+00 0.14215673E+04</pdfrwt>
<totfact> 0.20326421E+01</totfact>
</mgrwt>
</event>
<event>
12    7  0.1741211E-007  0.1921972E+04  0.7818608E-02  0.8643996E-01
          2   -1    0    0  501    0  0.00000000000E+00  0.00000000000E+00  0.19487742810E+04  0.19487742810E+04  0.00000000000E+00 0. -1.
         -1   -1    0    0    0  501 -0.00000000000E+00 -0.00000000000E+00 -0.47388461507E+03  0.47388461507E+03  0.00000000000E+00 0.  1.
         24    2    1    2    0    0  0.71245975553E+03 -0.20966505380E+03  0.68354129015E+03  0.10125530345E+04  0.80477415290E+02 0.  0.
        254    2    1    2    0    0 -0.71245975553E+03  0.20966505380E+03  0.79134837580E+03  0.14101058616E+04  0.90033768713E+03 0.  0.
         23    2    4    4    0    0 -0.55232207443E+03 -0.36493308791E+02 -0.58080419488E-01  0.56113125612E+03  0.92069798135E+02 0.  0.
         23    2    4    4    0    0 -0.16013768110E+03  0.24615836259E+03  0.79140645622E+03  0.84897460543E+03  0.90530024495E+02 0.  0.
          4    1    3    3  502    0  0.23972030662E+02 -0.23772100404E+02  0.34683423143E+02  0.48401558369E+02  0.00000000000E+00 0. -1.
         -3    1    3    3    0  502  0.68848772487E+03 -0.18589295340E+03  0.64885786700E+03  0.96415147616E+03  0.00000000000E+00 0.  1.
         13    1    5    5    0    0 -0.21404955651E+03  0.11000176523E+02  0.37123782656E+02  0.21752331315E+03  0.00000000000E+00 0.  1.
        -13    1    5    5    0    0 -0.33827251792E+03 -0.47493485314E+02 -0.37181863075E+02  0.34360794297E+03  0.00000000000E+00 0. -1.
          1    1    6    6  503    0 -0.12957198418E+03  0.21400775467E+03  0.55981806066E+03  0.61317573271E+03  0.00000000000E+00 0. -1.
         -1    1    6    6    0  503 -0.30565696914E+02  0.32150607927E+02  0.23158839556E+03  0.23579887272E+03  0.00000000000E+00 0.  1.
<mgrwt>
<rscale>  0 0.19219721E+04</rscale>
<asrwt>0</asrwt>
<pdfrwt beam="1">  1        2 0.29981142E+00 0.19219721E+04</pdfrwt>
<pdfrwt beam="2">  1       -1 0.72905326E-01 0.19219721E+04</pdfrwt>
<totfact> 0.14405591E+01</totfact>
</mgrwt>
</event>
<event>
12    7  0.1741211E-007  0.1819984E+04  0.7818608E-02  0.8695744E-01
         -1   -1    0    0    0  501 -0.00000000000E+00  0.00000000000E+00  0.20399619791E+04  0.20399619791E+04  0.00000000000E+00 0.  1.
          2   -1    0    0  501    0  0.00000000000E+00 -0.00000000000E+00 -0.40593178147E+03  0.40593178147E+03  0.00000000000E+00 0. -1.
         24    2    1    2    0    0 -0.66592658362E+03 -0.13326031943E+03  0.70577001838E+03  0.98269092276E+03  0.79709493374E+02 0.  0.
        254    2    1    2    0    0  0.66592658362E+03  0.13326031943E+03  0.92826017926E+03  0.14632028378E+04  0.90447722838E+03 0.  0.
         23    2    4    4    0    0  0.67690101266E+03 -0.25078181709E+03  0.68077857885E+03  0.99647610495E+03  0.91753221100E+02 0.  0.
         23    2    4    4    0    0 -0.10974429037E+02  0.38404213651E+03  0.24748160041E+03  0.46672673286E+03  0.94751780537E+02 0.  0.
          4    1    3    3  502    0 -0.28202084941E+02 -0.23353240132E+02  0.40489121410E+02  0.54590295586E+02  0.00000000000E+00 0. -1.
         -3    1    3    3    0  502 -0.63772449868E+03 -0.10990707929E+03  0.66528089697E+03  0.92810062718E+03  0.00000000000E+00 0.  1.
         13    1    5    5    0    0  0.62499695120E+03 -0.25449998837E+03  0.64352703249E+03  0.93247974489E+03  0.00000000000E+00 0. -1.
        -13    1    5    5    0    0  0.51904061463E+02  0.37181712794E+01  0.37251546360E+02  0.63996360054E+02  0.00000000000E+00 0.  1.
          3    1    6    6  503    0 -0.51364011656E+02  0.26371258266E+03  0.16279919363E+03  0.31414354265E+03  0.00000000000E+00 0. -1.
         -3    1    6    6    0  503  0.40389582619E+02  0.12032955385E+03  0.84682406781E+02  0.15258319020E+03  0.00000000000E+00 0.  1.
<mgrwt>
<rscale>  0 0.18199840E+04</rscale>
<asrwt>0</asrwt>
<pdfrwt beam="1">  1        2 0.62451044E-01 0.18199840E+04</pdfrwt>
<pdfrwt beam="2">  1       -1 0.31384030E+00 0.18199840E+04</pdfrwt>
<totfact> 0.22658054E+00</totfact>
</mgrwt>
</event>
<event>
12    7  0.1741211E-007  0.4092779E+04  0.7818608E-02  0.7986087E-01
         -1   -1    0    0    0  501 -0.00000000000E+00  0.00000000000E+00  0.18032177888E+04  0.18032177888E+04  0.00000000000E+00 0.  1.
          2   -1    0    0  501    0  0.00000000000E+00 -0.00000000000E+00 -0.23223542354E+04  0.23223542354E+04  0.00000000000E+00 0. -1.
         24    2    1    2    0    0 -0.12432846658E+04  0.15771692294E+03  0.12541552291E+04  0.17748477434E+04  0.80918388044E+02 0.  0.
        254    2    1    2    0    0  0.12432846658E+04 -0.15771692294E+03 -0.17732916757E+04  0.23507242809E+04  0.90039429677E+03 0.  0.
         23    2    4    4    0    0  0.62254532962E+03 -0.55024043955E+01 -0.15421512883E+04  0.16651790832E+04  0.83652968143E+02 0.  0.
         23    2    4    4    0    0  0.62073933613E+03 -0.15221451854E+03 -0.23114038742E+03  0.68554519771E+03  0.89776145724E+02 0.  0.
          2    1    3    3  502    0 -0.36101536906E+03  0.45027533969E+02  0.41708576868E+03  0.55346193541E+03  0.00000000000E+00 0. -1.
         -1    1    3    3    0  502 -0.88226929669E+03  0.11268938897E+03  0.83706946043E+03  0.12213858079E+04  0.00000000000E+00 0.  1.
         13    1    5    5    0    0  0.16002027868E+03  0.12137096909E+02 -0.31248753250E+03  0.35128657344E+03  0.00000000000E+00 0. -1.
        -13    1    5    5    0    0  0.46252505094E+03 -0.17639501304E+02 -0.12296637558E+04  0.13138925097E+04  0.00000000000E+00 0.  1.
          1    1    6    6  503    0  0.62948936673E+02 -0.13026482931E+02 -0.54071267910E+02  0.83999761305E+02  0.00000000000E+00 0. -1.
         -1    1    6    6    0  503  0.55779039946E+03 -0.13918803561E+03 -0.17706911951E+03  0.60154543641E+03  0.00000000000E+00 0.  1.
<mgrwt>
<rscale>  0 0.40927792E+04</rscale>
<asrwt>0</asrwt>
<pdfrwt beam="1">  1        2 0.35728527E+00 0.40927792E+04</pdfrwt>
<pdfrwt beam="2">  1       -1 0.27741812E+00 0.40927792E+04</pdfrwt>
<totfact> 0.18132414E-01</totfact>
</mgrwt>
</event>
<event>
12    7  0.1741211E-007  0.1524071E+04  0.7818608E-02  0.8868602E-01
          2   -1    0    0  501    0  0.00000000000E+00  0.00000000000E+00  0.53422234894E+03  0.53422234894E+03  0.00000000000E+00 0. -1.
         -1   -1    0    0    0  501 -0.00000000000E+00 -0.00000000000E+00 -0.10869968758E+04  0.10869968758E+04  0.00000000000E+00 0.  1.
         24    2    1    2    0    0  0.41681218406E+03 -0.25604841251E+03 -0.21261558171E+03  0.53921736358E+03  0.79099894271E+02 0.  0.
        254    2    1    2    0    0 -0.41681218406E+03  0.25604841251E+03 -0.34015894513E+03  0.10820018611E+04  0.90317591489E+03 0.  0.
         23    2    4    4    0    0 -0.55061518721E+03 -0.93430712217E+02 -0.39935580329E+03  0.69224782762E+03  0.88405966224E+02 0.  0.
         23    2    4    4    0    0  0.13380300315E+03  0.34947912472E+03  0.59196858163E+02  0.38975403352E+03  0.91460572695E+02 0.  0.
          2    1    3    3  502    0  0.23560575598E+03 -0.18208640003E+03 -0.10417850396E+03  0.31546583018E+03  0.00000000000E+00 0. -1.
         -1    1    3    3    0  502  0.18120642808E+03 -0.73962012482E+02 -0.10843707775E+03  0.22375153340E+03  0.00000000000E+00 0.  1.
         13    1    5    5    0    0 -0.54451978472E+03 -0.97120577513E+02 -0.40289286390E+03  0.68429296527E+03  0.00000000000E+00 0. -1.
        -13    1    5    5    0    0 -0.60954024826E+01  0.36898652962E+01  0.35370606141E+01  0.79548623569E+01  0.00000000000E+00 0.  1.
          2    1    6    6  503    0  0.10520773114E+03  0.33186635413E+03  0.38406925190E+02  0.35025567175E+03  0.00000000000E+00 0. -1.
         -2    1    6    6    0  503  0.28595272001E+02  0.17612770599E+02  0.20789932972E+02  0.39498361763E+02  0.00000000000E+00 0.  1.
<mgrwt>
<rscale>  0 0.15240709E+04</rscale>
<asrwt>0</asrwt>
<pdfrwt beam="1">  1        2 0.82188055E-01 0.15240709E+04</pdfrwt>
<pdfrwt beam="2">  1       -1 0.16723029E+00 0.15240709E+04</pdfrwt>
<totfact> 0.16201264E+01</totfact>
</mgrwt>
</event>
<event>
12    7  0.1741211E-007  0.2230391E+04  0.7818608E-02  0.8505884E-01
         -1   -1    0    0    0  501 -0.00000000000E+00  0.00000000000E+00  0.11009742377E+04  0.11009742377E+04  0.00000000000E+00 0.  1.
          2   -1    0    0  501    0  0.00000000000E+00 -0.00000000000E+00 -0.11296002329E+04  0.11296002329E+04  0.00000000000E+00 0. -1.
         24    2    1    2    0    0 -0.42118831507E+03 -0.11544888583E+03  0.80969335384E+03  0.92344413688E+03  0.80110577930E+02 0.  0.
        254    2    1    2    0    0  0.42118831507E+03  0.11544888583E+03 -0.83831934905E+03  0.13071303338E+04  0.90281910505E+03 0.  0.
         23    2    4    4    0    0 -0.38192483080E+02 -0.28686577224E+02 -0.81016088118E+03  0.81667087712E+03  0.91154169728E+02 0.  0.
         23    2    4    4    0    0  0.45938079815E+03  0.14413546305E+03 -0.28158467867E+02  0.49045945664E+03  0.89173033331E+02 0.  0.
          4    1    3    3  502    0 -0.18441397890E+03 -0.34868595934E+02  0.27247905782E+03  0.33086125725E+03  0.00000000000E+00 0. -1.
         -3    1    3    3    0  502 -0.23677433617E+03 -0.80580289896E+02  0.53721429601E+03  0.59258287963E+03  0.00000000000E+00 0.  1.
         13    1    5    5    0    0 -0.63073351157E+02 -0.40620693822E+02 -0.61860815692E+03  0.62314070658E+03  0.00000000000E+00 0.  1.
        -13    1    5    5    0    0  0.24880868077E+02  0.11934116598E+02 -0.19155272426E+03  0.19353017054E+03  0.00000000000E+00 0. -1.
          1    1    6    6  503    0  0.25760321634E+02 -0.75736240327E+01  0.11804868273E+02  0.29331022256E+02  0.00000000000E+00 0. -1.
         -1    1    6    6    0  503  0.43362047651E+03  0.15170908709E+03 -0.39963336141E+02  0.46112843438E+03  0.00000000000E+00 0.  1.
<mgrwt>
<rscale>  0 0.22303908E+04</rscale>
<asrwt>0</asrwt>
<pdfrwt beam="1">  1        2 0.17378465E+00 0.22303908E+04</pdfrwt>
<pdfrwt beam="2">  1       -1 0.16938065E+00 0.22303908E+04</pdfrwt>
<totfact> 0.54006146E+00</totfact>
</mgrwt>
</event>
<event>
12    7  0.1741211E-007  0.1624233E+04  0.7818608E-02  0.8805797E-01
         -3   -1    0    0    0  501 -0.00000000000E+00  0.00000000000E+00  0.25644089548E+03  0.25644089548E+03  0.00000000000E+00 0.  1.
          4   -1    0    0  501    0  0.00000000000E+00 -0.00000000000E+00 -0.25718737300E+04  0.25718737300E+04  0.00000000000E+00 0. -1.
         24    2    1    2    0    0 -0.10388073424E+03 -0.45820046628E+03 -0.27037781244E+03  0.54799963783E+03  0.80377654585E+02 0.  0.
        254    2    1    2    0    0  0.10388073424E+03  0.45820046628E+03 -0.20450550221E+04  0.22803149877E+04  0.89266316454E+03 0.  0.
         23    2    4    4    0    0  0.12434440590E+03  0.84195479482E+01 -0.16961669254E+04  0.17034095448E+04  0.95338440548E+02 0.  0.
         23    2    4    4    0    0 -0.20463671659E+02  0.44978091833E+03 -0.34888809670E+03  0.57690544292E+03  0.91516936695E+02 0.  0.
          2    1    3    3  502    0  0.13525077419E+02 -0.42148498363E+02 -0.22080661330E+02  0.49466950970E+02  0.00000000000E+00 0. -1.
         -1    1    3    3    0  502 -0.11740581166E+03 -0.41605196791E+03 -0.24829715111E+03  0.49853268686E+03  0.00000000000E+00 0.  1.
         13    1    5    5    0    0  0.76074641923E+02  0.51220383038E+02 -0.91586117289E+03  0.92044150645E+03  0.00000000000E+00 0.  1.
        -13    1    5    5    0    0  0.48269763977E+02 -0.42800835090E+02 -0.78030575253E+03  0.78296803832E+03  0.00000000000E+00 0. -1.
          1    1    6    6  503    0 -0.10654433046E+01  0.27289130995E+03 -0.26419613084E+03  0.37982943246E+03  0.00000000000E+00 0. -1.
         -1    1    6    6    0  503 -0.19398228355E+02  0.17688960838E+03 -0.84691965859E+02  0.19707601046E+03  0.00000000000E+00 0.  1.
<mgrwt>
<rscale>  0 0.16242335E+04</rscale>
<asrwt>0</asrwt>
<pdfrwt beam="1">  1        4 0.39567287E+00 0.16242335E+04</pdfrwt>
<pdfrwt beam="2">  1       -3 0.39452447E-01 0.16242335E+04</pdfrwt>
<totfact> 0.10324267E-01</totfact>
</mgrwt>
</event>
<event>
12    7  0.1741211E-007  0.1345991E+04  0.7818608E-02  0.8993869E-01
          2   -1    0    0  501    0  0.00000000000E+00  0.00000000000E+00  0.10181042079E+04  0.10181042079E+04  0.00000000000E+00 0. -1.
         -1   -1    0    0    0  501 -0.00000000000E+00 -0.00000000000E+00 -0.44486872301E+03  0.44486872301E+03  0.00000000000E+00 0.  1.
         24    2    1    2    0    0 -0.52258155410E+02  0.19122070987E+03  0.50111922330E+03  0.54454228426E+03  0.78163602106E+02 0.  0.
        254    2    1    2    0    0  0.52258155410E+02 -0.19122070987E+03  0.72116261549E+02  0.91843064661E+03  0.89387796861E+03 0.  0.
         23    2    4    4    0    0  0.16880448867E+03 -0.20493643886E+03  0.43963789276E+03  0.52243708068E+03  0.95734670604E+02 0.  0.
         23    2    4    4    0    0 -0.11654633326E+03  0.13715728985E+02 -0.36752163121E+03  0.39599356593E+03  0.89261334462E+02 0.  0.
          2    1    3    3  502    0 -0.52826974921E+02  0.19816827264E+03  0.47256548297E+03  0.51514996773E+03  0.00000000000E+00 0. -1.
         -1    1    3    3    0  502  0.56881951067E+00 -0.69475627646E+01  0.28553740331E+02  0.29392316529E+02  0.00000000000E+00 0.  1.
         13    1    5    5    0    0  0.64549119834E+02 -0.14778761904E+03  0.28386719177E+03  0.32647871566E+03  0.00000000000E+00 0.  1.
        -13    1    5    5    0    0  0.10425536883E+03 -0.57148819820E+02  0.15577070099E+03  0.19595836503E+03  0.00000000000E+00 0. -1.
          2    1    6    6  503    0 -0.24517934991E+02 -0.14179882381E+02 -0.18174420135E+02  0.33652752455E+02  0.00000000000E+00 0. -1.
         -2    1    6    6    0  503 -0.92028398267E+02  0.27895611366E+02 -0.34934721108E+03  0.36234081347E+03  0.00000000000E+00 0.  1.
<mgrwt>
<rscale>  0 0.13459907E+04</rscale>
<asrwt>0</asrwt>
<pdfrwt beam="1">  1        2 0.15663142E+00 0.13459907E+04</pdfrwt>
<pdfrwt beam="2">  1       -1 0.68441342E-01 0.13459907E+04</pdfrwt>
<totfact> 0.59073593E+01</totfact>
</mgrwt>
</event>
<event>
12    7  0.1741211E-007  0.2432014E+04  0.7818608E-02  0.8427614E-01
          2   -1    0    0  501    0  0.00000000000E+00  0.00000000000E+00  0.23267786585E+04  0.23267786585E+04  0.00000000000E+00 0. -1.
         -1   -1    0    0    0  501 -0.00000000000E+00 -0.00000000000E+00 -0.63550221603E+03  0.63550221603E+03  0.00000000000E+00 0.  1.
         24    2    1    2    0    0 -0.76354487604E+03 -0.65063232318E+03  0.10958749760E+04  0.14885258522E+04  0.91891522979E+02 0.  0.
        254    2    1    2    0    0  0.76354487604E+03  0.65063232318E+03  0.59540146643E+03  0.14737550223E+04  0.90062631637E+03 0.  0.
         23    2    4    4    0    0  0.87888856046E+01  0.20315551053E+03  0.54635241686E+03  0.59010290859E+03  0.91493570015E+02 0.  0.
         23    2    4    4    0    0  0.75475599044E+03  0.44747681266E+03  0.49049049567E+02  0.88365211368E+03  0.92429139167E+02 0.  0.
          2    1    3    3  502    0 -0.51024712148E+03 -0.48426839346E+03  0.79348167426E+03  0.10604155644E+04  0.00000000000E+00 0. -1.
         -1    1    3    3    0  502 -0.25329775456E+03 -0.16636392972E+03  0.30239330177E+03  0.42811028781E+03  0.00000000000E+00 0.  1.
         13    1    5    5    0    0 -0.39982692712E+02  0.94085670160E+02  0.28357198629E+03  0.30143622950E+03  0.00000000000E+00 0.  1.
        -13    1    5    5    0    0  0.48771578316E+02  0.10906984037E+03  0.26278043057E+03  0.28866667909E+03  0.00000000000E+00 0. -1.
          3    1    6    6  503    0  0.42353133255E+02  0.65448743127E+01  0.14062404519E+02  0.45104040807E+02  0.00000000000E+00 0. -1.
         -3    1    6    6    0  503  0.71240285718E+03  0.44093193835E+03  0.34986645048E+02  0.83854807287E+03  0.00000000000E+00 0.  1.
<mgrwt>
<rscale>  0 0.24320140E+04</rscale>
<asrwt>0</asrwt>
<pdfrwt beam="1">  1        2 0.35796594E+00 0.24320140E+04</pdfrwt>
<pdfrwt beam="2">  1       -1 0.97769573E-01 0.24320140E+04</pdfrwt>
<totfact> 0.44808565E+00</totfact>
</mgrwt>
</event>
<event>
12    7  0.1741211E-007  0.2272396E+04  0.7818608E-02  0.8488885E-01
          2   -1    0    0  501    0  0.00000000000E+00  0.00000000000E+00  0.30560722162E+04  0.30560722162E+04  0.00000000000E+00 0. -1.
         -1   -1    0    0    0  501 -0.00000000000E+00 -0.00000000000E+00 -0.42241985569E+03  0.42241985569E+03  0.00000000000E+00 0.  1.
         24    2    1    2    0    0 -0.68657194159E+03 -0.37976512826E+03  0.19472868992E+04  0.21009476314E+04  0.80324953031E+02 0.  0.
        254    2    1    2    0    0  0.68657194159E+03  0.37976512826E+03  0.68636546131E+03  0.13775444406E+04  0.90051571652E+03 0.  0.
         23    2    4    4    0    0  0.19326307749E+03  0.60711027864E+03  0.36430281846E+03  0.73947088433E+03  0.90372217414E+02 0.  0.
         23    2    4    4    0    0  0.49330886409E+03 -0.22734515038E+03  0.32206264284E+03  0.63807355626E+03  0.91509914703E+02 0.  0.
          4    1    3    3  502    0 -0.30483470054E+03 -0.13794479996E+03  0.90723620988E+03  0.96696975289E+03  0.00000000000E+00 0. -1.
         -3    1    3    3    0  502 -0.38173724105E+03 -0.24182032830E+03  0.10400506894E+04  0.11339778785E+04  0.00000000000E+00 0.  1.
         13    1    5    5    0    0  0.44517221353E+02  0.13953421234E+03  0.12955915574E+03  0.19554322859E+03  0.00000000000E+00 0. -1.
        -13    1    5    5    0    0  0.14874585614E+03  0.46757606629E+03  0.23474366273E+03  0.54392765574E+03  0.00000000000E+00 0.  1.
          2    1    6    6  503    0  0.32735493362E+03 -0.13153300827E+03  0.16118715844E+03  0.38787044857E+03  0.00000000000E+00 0. -1.
         -2    1    6    6    0  503  0.16595393048E+03 -0.95812142106E+02  0.16087548440E+03  0.25020310769E+03  0.00000000000E+00 0.  1.
<mgrwt>
<rscale>  0 0.22723957E+04</rscale>
<asrwt>0</asrwt>
<pdfrwt beam="1">  1        2 0.47016494E+00 0.22723957E+04</pdfrwt>
<pdfrwt beam="2">  1       -1 0.64987672E-01 0.22723957E+04</pdfrwt>
<totfact> 0.39874695E+00</totfact>
</mgrwt>
</event>
<event>
12    7  0.1741211E-007  0.2573694E+04  0.7818608E-02  0.8377192E-01
          2   -1    0    0  501    0  0.00000000000E+00  0.00000000000E+00  0.12295539200E+04  0.12295539200E+04  0.00000000000E+00 0. -1.
         -1   -1    0    0    0  501 -0.00000000000E+00 -0.00000000000E+00 -0.13468099093E+04  0.13468099093E+04  0.00000000000E+00 0.  1.
         24    2    1    2    0    0 -0.24531294770E+03 -0.45203319838E+03  0.94116851846E+03  0.10752337587E+04  0.76269266193E+02 0.  0.
        254    2    1    2    0    0  0.24531294770E+03  0.45203319838E+03 -0.10584245077E+04  0.15011300706E+04  0.93199602771E+03 0.  0.
         23    2    4    4    0    0  0.24226643064E+03 -0.21332544124E+03 -0.13943911484E+03  0.36301410410E+03  0.90195375356E+02 0.  0.
         23    2    4    4    0    0  0.30465170639E+01  0.66535863962E+03 -0.91898539290E+03  0.11381159665E+04  0.89790870183E+02 0.  0.
          2    1    3    3  502    0 -0.57013881141E+02 -0.56121051253E+02  0.17691726351E+03  0.19416455177E+03  0.00000000000E+00 0. -1.
         -1    1    3    3    0  502 -0.18829906656E+03 -0.39591214712E+03  0.76425125495E+03  0.88106920693E+03  0.00000000000E+00 0.  1.
         13    1    5    5    0    0  0.12003810926E+03 -0.68530337167E+02 -0.21670258279E+02  0.13991123929E+03  0.00000000000E+00 0.  1.
        -13    1    5    5    0    0  0.12222832138E+03 -0.14479510407E+03 -0.11776885656E+03  0.22310286481E+03  0.00000000000E+00 0. -1.
          1    1    6    6  503    0  0.41910156301E+02  0.48555355273E+03 -0.67498541341E+03  0.83254070296E+03  0.00000000000E+00 0. -1.
         -1    1    6    6    0  503 -0.38863639237E+02  0.17980508688E+03 -0.24399997948E+03  0.30557526358E+03  0.00000000000E+00 0.  1.
<mgrwt>
<rscale>  0 0.25736942E+04</rscale>
<asrwt>0</asrwt>
<pdfrwt beam="1">  1        2 0.18916214E+00 0.25736942E+04</pdfrwt>
<pdfrwt beam="2">  1       -1 0.20720152E+00 0.25736942E+04</pdfrwt>
<totfact> 0.24679113E+00</totfact>
</mgrwt>
</event>
<event>
12    7  0.1741211E-007  0.1975902E+04  0.7818608E-02  0.8617971E-01
         -1   -1    0    0    0  501 -0.00000000000E+00  0.00000000000E+00  0.57022966203E+03  0.57022966203E+03  0.00000000000E+00 0.  1.
          2   -1    0    0  501    0  0.00000000000E+00 -0.00000000000E+00 -0.17116735683E+04  0.17116735683E+04  0.00000000000E+00 0. -1.
         24    2    1    2    0    0  0.29893904563E+02 -0.77149911278E+02  0.44312128324E+03  0.45790145822E+03  0.80445754638E+02 0.  0.
        254    2    1    2    0    0 -0.29893904563E+02  0.77149911278E+02 -0.15845651895E+04  0.18240017721E+04  0.89960539710E+03 0.  0.
         23    2    4    4    0    0 -0.27736401821E+03 -0.30871427733E+03 -0.89726366785E+03  0.99272897307E+03  0.90517515909E+02 0.  0.
         23    2    4    4    0    0  0.24747011365E+03  0.38586418861E+03 -0.68730152168E+03  0.83127279906E+03  0.92187068198E+02 0.  0.
          2    1    3    3  502    0  0.38689366408E+02 -0.61335625723E+02  0.17858972910E+03  0.19275169881E+03  0.00000000000E+00 0. -1.
         -1    1    3    3    0  502 -0.87954618450E+01 -0.15814285554E+02  0.26453155415E+03  0.26514975941E+03  0.00000000000E+00 0.  1.
         13    1    5    5    0    0 -0.66246145897E+02 -0.11723002020E+03 -0.22003581868E+03  0.25796742234E+03  0.00000000000E+00 0.  1.
        -13    1    5    5    0    0 -0.21111787232E+03 -0.19148425713E+03 -0.67722784917E+03  0.73476155073E+03  0.00000000000E+00 0. -1.
          4    1    6    6  503    0  0.25113547608E+03  0.35198412769E+03 -0.65069853716E+03  0.78126208135E+03  0.00000000000E+00 0. -1.
         -4    1    6    6    0  503 -0.36653624285E+01  0.33880060923E+02 -0.36602984522E+02  0.50010717709E+02  0.00000000000E+00 0.  1.
<mgrwt>
<rscale>  0 0.19759019E+04</rscale>
<asrwt>0</asrwt>
<pdfrwt beam="1">  1        2 0.26333439E+00 0.19759019E+04</pdfrwt>
<pdfrwt beam="2">  1       -1 0.87727641E-01 0.19759019E+04</pdfrwt>
<totfact> 0.13089096E+01</totfact>
</mgrwt>
</event>
<event>
12    7  0.1741211E-007  0.2521786E+04  0.7818608E-02  0.8395265E-01
          2   -1    0    0  501    0  0.00000000000E+00  0.00000000000E+00  0.14088983530E+04  0.14088983530E+04  0.00000000000E+00 0. -1.
         -1   -1    0    0    0  501 -0.00000000000E+00 -0.00000000000E+00 -0.11284357375E+04  0.11284357375E+04  0.00000000000E+00 0.  1.
         24    2    1    2    0    0  0.61922927914E+03  0.90210449850E+03  0.46035140093E+02  0.10980949163E+04  0.80347897434E+02 0.  0.
        254    2    1    2    0    0 -0.61922927914E+03 -0.90210449850E+03  0.23442747537E+03  0.14392391742E+04  0.90510537119E+03 0.  0.
         23    2    4    4    0    0 -0.49252868825E+02 -0.26546725461E+03  0.46701961139E+03  0.54880678823E+03  0.10091018295E+03 0.  0.
         23    2    4    4    0    0 -0.56997641031E+03 -0.63663724389E+03 -0.23259213602E+03  0.89043238596E+03  0.92685724966E+02 0.  0.
          2    1    3    3  502    0  0.41848021723E+03  0.56096747674E+03  0.23341448055E+01  0.69986830933E+03  0.00000000000E+00 0. -1.
         -1    1    3    3    0  502  0.20074906191E+03  0.34113702176E+03  0.43700995287E+02  0.39822660692E+03  0.00000000000E+00 0.  1.
         13    1    5    5    0    0 -0.54737168305E+01 -0.16784237293E+03  0.20002301847E+03  0.26117088590E+03  0.00000000000E+00 0. -1.
        -13    1    5    5    0    0 -0.43779151994E+02 -0.97624881678E+02  0.26699659293E+03  0.28763590232E+03  0.00000000000E+00 0.  1.
          3    1    6    6  503    0 -0.20002445754E+03 -0.16159024721E+03 -0.79841891074E+02  0.26925066235E+03  0.00000000000E+00 0.  1.
         -3    1    6    6    0  503 -0.36995195277E+03 -0.47504699668E+03 -0.15275024495E+03  0.62118172361E+03  0.00000000000E+00 0. -1.
<mgrwt>
<rscale>  0 0.25217861E+04</rscale>
<asrwt>0</asrwt>
<pdfrwt beam="1">  1        2 0.21675359E+00 0.25217861E+04</pdfrwt>
<pdfrwt beam="2">  1       -1 0.17360550E+00 0.25217861E+04</pdfrwt>
<totfact> 0.33587463E+00</totfact>
</mgrwt>
</event>
<event>
12    7  0.1741211E-007  0.2232443E+04  0.7818608E-02  0.8505045E-01
         -1   -1    0    0    0  501 -0.00000000000E+00  0.00000000000E+00  0.81803749609E+03  0.81803749609E+03  0.00000000000E+00 0.  1.
          2   -1    0    0  501    0  0.00000000000E+00 -0.00000000000E+00 -0.15230972673E+04  0.15230972673E+04  0.00000000000E+00 0. -1.
         24    2    1    2    0    0  0.47523891272E+03  0.55340428392E+03  0.31346733389E+03  0.79852056542E+03  0.85234959698E+02 0.  0.
        254    2    1    2    0    0 -0.47523891272E+03 -0.55340428392E+03 -0.10185271051E+04  0.15426141980E+04  0.90008487065E+03 0.  0.
         23    2    4    4    0    0 -0.36156299892E+03 -0.23859176299E+03 -0.11005456391E+04  0.11862442649E+04  0.91219081300E+02 0.  0.
         23    2    4    4    0    0 -0.11367591379E+03 -0.31481252093E+03  0.82018533978E+02  0.35636993306E+03  0.90792910290E+02 0.  0.
          2    1    3    3  502    0  0.75778338767E+02  0.13000675920E+03  0.87743716656E+02  0.17419263439E+03  0.00000000000E+00 0. -1.
         -1    1    3    3    0  502  0.39946057395E+03  0.42339752473E+03  0.22572361724E+03  0.62432793103E+03  0.00000000000E+00 0.  1.
         13    1    5    5    0    0 -0.28577349571E+03 -0.22419565310E+03 -0.85768865998E+03  0.93142901994E+03  0.00000000000E+00 0.  1.
        -13    1    5    5    0    0 -0.75789503213E+02 -0.14396109891E+02 -0.24285697913E+03  0.25481524501E+03  0.00000000000E+00 0. -1.
          1    1    6    6  503    0  0.38837832674E+01 -0.11357767895E+03  0.30945858161E+02  0.11778208296E+03  0.00000000000E+00 0. -1.
         -1    1    6    6    0  503 -0.11755969706E+03 -0.20123484198E+03  0.51072675816E+02  0.23858785010E+03  0.00000000000E+00 0.  1.
<mgrwt>
<rscale>  0 0.22324432E+04</rscale>
<asrwt>0</asrwt>
<pdfrwt beam="1">  1        2 0.23432265E+00 0.22324432E+04</pdfrwt>
<pdfrwt beam="2">  1       -1 0.12585193E+00 0.22324432E+04</pdfrwt>
<totfact> 0.70387158E+00</totfact>
</mgrwt>
</event>
<event>
12    7  0.1741211E-007  0.2132040E+04  0.7818608E-02  0.8547259E-01
         -1   -1    0    0    0  501 -0.00000000000E+00  0.00000000000E+00  0.53451310034E+03  0.53451310034E+03  0.00000000000E+00 0.  1.
          2   -1    0    0  501    0  0.00000000000E+00 -0.00000000000E+00 -0.21260439342E+04  0.21260439342E+04  0.00000000000E+00 0. -1.
         24    2    1    2    0    0 -0.33941331968E+03  0.79065469185E+03 -0.81088235669E+03  0.11850118639E+04  0.79916693836E+02 0.  0.
        254    2    1    2    0    0  0.33941331968E+03 -0.79065469185E+03 -0.78064847712E+03  0.14755451706E+04  0.90966216927E+03 0.  0.
         23    2    4    4    0    0  0.59968425728E+03 -0.76011543592E+03 -0.64087482594E+03  0.11647354328E+04  0.92148801588E+02 0.  0.
         23    2    4    4    0    0 -0.26027093760E+03 -0.30539255929E+02 -0.13977365118E+03  0.31080973771E+03  0.91610110688E+02 0.  0.
          4    1    3    3  502    0 -0.30265496339E+02  0.38826448245E+02 -0.66789120966E+02  0.82971561582E+02  0.00000000000E+00 0. -1.
         -3    1    3    3    0  502 -0.30914782334E+03  0.75182824361E+03 -0.74409323573E+03  0.11020403024E+04  0.00000000000E+00 0.  1.
         13    1    5    5    0    0  0.35927025501E+03 -0.48396166437E+03 -0.44723590980E+03  0.75054244898E+03  0.00000000000E+00 0.  1.
        -13    1    5    5    0    0  0.24041400228E+03 -0.27615377156E+03 -0.19363891614E+03  0.41419298386E+03  0.00000000000E+00 0. -1.
          3    1    6    6  503    0 -0.26115179298E+03 -0.27886077489E+02 -0.14845465288E+03  0.30168970194E+03  0.00000000000E+00 0. -1.
         -3    1    6    6    0  503  0.88085538254E+00 -0.26531784395E+01  0.86810016960E+01  0.91200357720E+01  0.00000000000E+00 0.  1.
<mgrwt>
<rscale>  0 0.21320397E+04</rscale>
<asrwt>0</asrwt>
<pdfrwt beam="1">  1        2 0.32708368E+00 0.21320397E+04</pdfrwt>
<pdfrwt beam="2">  1       -1 0.82232785E-01 0.21320397E+04</pdfrwt>
<totfact> 0.87414181E+00</totfact>
</mgrwt>
</event>
<event>
12    7  0.1741211E-007  0.1894668E+04  0.7818608E-02  0.8657515E-01
         -1   -1    0    0    0  501 -0.00000000000E+00  0.00000000000E+00  0.49235097021E+03  0.49235097021E+03  0.00000000000E+00 0.  1.
          2   -1    0    0  501    0  0.00000000000E+00 -0.00000000000E+00 -0.18227680949E+04  0.18227680949E+04  0.00000000000E+00 0. -1.
         24    2    1    2    0    0 -0.40330960918E+03  0.19565053874E+03  0.18253167625E+03  0.49021527198E+03  0.77816616961E+02 0.  0.
        254    2    1    2    0    0  0.40330960918E+03 -0.19565053874E+03 -0.15129488009E+04  0.18249037931E+04  0.91669079070E+03 0.  0.
         23    2    4    4    0    0  0.66530100200E+03 -0.28640753727E+02 -0.82284243676E+03  0.10625101844E+04  0.91719682510E+02 0.  0.
         23    2    4    4    0    0 -0.26199139281E+03 -0.16700978501E+03 -0.69010636413E+03  0.76239360870E+03  0.92007948451E+02 0.  0.
          2    1    3    3  502    0 -0.27006616220E+01 -0.42251465210E+01 -0.27133570664E+01  0.57015561815E+01  0.00000000000E+00 0. -1.
         -1    1    3    3    0  502 -0.40060894756E+03  0.19987568526E+03  0.18524503332E+03  0.48451371580E+03  0.00000000000E+00 0.  1.
         13    1    5    5    0    0  0.39718366019E+02 -0.20022746174E+02 -0.77820130030E+02  0.89634990944E+02  0.00000000000E+00 0.  1.
        -13    1    5    5    0    0  0.62558263598E+03 -0.86180075527E+01 -0.74502230673E+03  0.97287519345E+03  0.00000000000E+00 0. -1.
          4    1    6    6  503    0 -0.16286206282E+03 -0.66769588424E+02 -0.46010625083E+03  0.49262560987E+03  0.00000000000E+00 0. -1.
         -4    1    6    6    0  503 -0.99129329992E+02 -0.10024019659E+03 -0.23000011330E+03  0.26976799883E+03  0.00000000000E+00 0.  1.
<mgrwt>
<rscale>  0 0.18946679E+04</rscale>
<asrwt>0</asrwt>
<pdfrwt beam="1">  1        2 0.28042586E+00 0.18946679E+04</pdfrwt>
<pdfrwt beam="2">  1       -1 0.75746303E-01 0.18946679E+04</pdfrwt>
<totfact> 0.15660394E+01</totfact>
</mgrwt>
</event>
<event>
12    7  0.1741211E-007  0.2103667E+04  0.7818608E-02  0.8559630E-01
          2   -1    0    0  501    0  0.00000000000E+00  0.00000000000E+00  0.18909485489E+04  0.18909485489E+04  0.00000000000E+00 0. -1.
         -1   -1    0    0    0  501 -0.00000000000E+00 -0.00000000000E+00 -0.58507864680E+03  0.58507864680E+03  0.00000000000E+00 0.  1.
         24    2    1    2    0    0  0.70100958651E+03  0.41922935255E+03  0.82614358594E+03  0.11644042240E+04  0.78461976893E+02 0.  0.
        254    2    1    2    0    0 -0.70100958651E+03 -0.41922935255E+03  0.47972631614E+03  0.13116229717E+04  0.90722091636E+03 0.  0.
         23    2    4    4    0    0 -0.62236830431E+03  0.14392138080E+03  0.25971368036E+03  0.69522623004E+03  0.88502232225E+02 0.  0.
         23    2    4    4    0    0 -0.78641282199E+02 -0.56315073335E+03  0.22001263577E+03  0.61639674166E+03  0.90643165695E+02 0.  0.
          4    1    3    3  502    0  0.67776178902E+03  0.41199730799E+03  0.81619771143E+03  0.11381043575E+04  0.00000000000E+00 0. -1.
         -3    1    3    3    0  502  0.23247797487E+02  0.72320445626E+01  0.99458745160E+01  0.26299866472E+02  0.00000000000E+00 0.  1.
         13    1    5    5    0    0 -0.38049135373E+03  0.12697244680E+03  0.14030612143E+03  0.42494879717E+03  0.00000000000E+00 0. -1.
        -13    1    5    5    0    0 -0.24187695058E+03  0.16948933994E+02  0.11940755894E+03  0.27027743287E+03  0.00000000000E+00 0.  1.
          1    1    6    6  503    0 -0.61043151811E+02 -0.54554102391E+03  0.19927829363E+03  0.58399752865E+03  0.00000000000E+00 0. -1.
         -1    1    6    6    0  503 -0.17598130389E+02 -0.17609709441E+02  0.20734342142E+02  0.32399213013E+02  0.00000000000E+00 0.  1.
<mgrwt>
<rscale>  0 0.21036669E+04</rscale>
<asrwt>0</asrwt>
<pdfrwt beam="1">  1        2 0.29091516E+00 0.21036669E+04</pdfrwt>
<pdfrwt beam="2">  1       -1 0.90012100E-01 0.21036669E+04</pdfrwt>
<totfact> 0.97295095E+00</totfact>
</mgrwt>
</event>
<event>
12    7  0.1741211E-007  0.1487393E+04  0.7818608E-02  0.8892880E-01
          2   -1    0    0  501    0  0.00000000000E+00  0.00000000000E+00  0.21338386726E+04  0.21338386726E+04  0.00000000000E+00 0. -1.
         -1   -1    0    0    0  501 -0.00000000000E+00 -0.00000000000E+00 -0.25919687168E+03  0.25919687168E+03  0.00000000000E+00 0.  1.
         24    2    1    2    0    0  0.10568496587E+03  0.43321791548E+02  0.13751442609E+04  0.13822409943E+04  0.80760994464E+02 0.  0.
        254    2    1    2    0    0 -0.10568496587E+03 -0.43321791548E+02  0.49949753997E+03  0.10107945500E+04  0.87129888112E+03 0.  0.
         23    2    4    4    0    0  0.25481592480E+03 -0.25299660082E+03  0.25042863317E+02  0.37197346692E+03  0.93801276785E+02 0.  0.
         23    2    4    4    0    0 -0.36050089068E+03  0.20967480927E+03  0.47445467666E+03  0.63882108309E+03  0.95187804757E+02 0.  0.
          2    1    3    3  502    0  0.10629154186E+03  0.60674588316E+02  0.11833371547E+04  0.11896495783E+04  0.00000000000E+00 0. -1.
         -1    1    3    3    0  502 -0.60657598852E+00 -0.17352796768E+02  0.19180710627E+03  0.19259141597E+03  0.00000000000E+00 0.  1.
         13    1    5    5    0    0  0.24990852096E+03 -0.25795260092E+03  0.14648123255E+02  0.35945567277E+03  0.00000000000E+00 0. -1.
        -13    1    5    5    0    0  0.49074038432E+01  0.49560000973E+01  0.10394740061E+02  0.12517794150E+02  0.00000000000E+00 0.  1.
          4    1    6    6  503    0 -0.29051440427E+03  0.14019527758E+03  0.40705293472E+03  0.51937022115E+03  0.00000000000E+00 0. -1.
         -4    1    6    6    0  503 -0.69986486403E+02  0.69479531689E+02  0.67401741932E+02  0.11945086194E+03  0.00000000000E+00 0.  1.
<mgrwt>
<rscale>  0 0.14873928E+04</rscale>
<asrwt>0</asrwt>
<pdfrwt beam="1">  1        2 0.32828286E+00 0.14873928E+04</pdfrwt>
<pdfrwt beam="2">  1       -1 0.39876443E-01 0.14873928E+04</pdfrwt>
<totfact> 0.37988376E+01</totfact>
</mgrwt>
</event>
<event>
12    7  0.1741211E-007  0.1866387E+04  0.7818608E-02  0.8671771E-01
          2   -1    0    0  501    0  0.00000000000E+00  0.00000000000E+00  0.20279947148E+04  0.20279947148E+04  0.00000000000E+00 0. -1.
         -1   -1    0    0    0  501 -0.00000000000E+00 -0.00000000000E+00 -0.42941423819E+03  0.42941423819E+03  0.00000000000E+00 0.  1.
         24    2    1    2    0    0  0.31614162457E+03  0.42480613139E+03  0.12453410276E+04  0.13555990167E+04  0.79803778402E+02 0.  0.
        254    2    1    2    0    0 -0.31614162457E+03 -0.42480613139E+03  0.35323944896E+03  0.11018099362E+04  0.89933378187E+03 0.  0.
         23    2    4    4    0    0 -0.29009346463E+03  0.17221021900E+03  0.35360872554E+03  0.49720169674E+03  0.91432044235E+02 0.  0.
         23    2    4    4    0    0 -0.26048159939E+02 -0.59701635039E+03 -0.36927657879E+00  0.60460823948E+03  0.91891009478E+02 0.  0.
          4    1    3    3  502    0  0.11596807806E+03  0.18469000873E+03  0.60308005787E+03  0.64129911169E+03  0.00000000000E+00 0. -1.
         -3    1    3    3    0  502  0.20017354651E+03  0.24011612266E+03  0.64226096974E+03  0.71429990503E+03  0.00000000000E+00 0.  1.
         13    1    5    5    0    0 -0.26186913803E+03  0.11899863296E+03  0.30964678655E+03  0.42263134352E+03  0.00000000000E+00 0. -1.
        -13    1    5    5    0    0 -0.28224326605E+02  0.53211586034E+02  0.43961938987E+02  0.74570353224E+02  0.00000000000E+00 0.  1.
          4    1    6    6  503    0  0.22929632834E+02 -0.19675581783E+03  0.29434574925E+02  0.20026236319E+03  0.00000000000E+00 0. -1.
         -4    1    6    6    0  503 -0.48977792773E+02 -0.40026053256E+03 -0.29803851504E+02  0.40434587629E+03  0.00000000000E+00 0.  1.
<mgrwt>
<rscale>  0 0.18663867E+04</rscale>
<asrwt>0</asrwt>
<pdfrwt beam="1">  1        2 0.31199918E+00 0.18663867E+04</pdfrwt>
<pdfrwt beam="2">  1       -1 0.66063730E-01 0.18663867E+04</pdfrwt>
<totfact> 0.16005634E+01</totfact>
</mgrwt>
</event>
<event>
12    7  0.1741211E-007  0.2105090E+04  0.7818608E-02  0.8559005E-01
         -1   -1    0    0    0  501 -0.00000000000E+00  0.00000000000E+00  0.89902903174E+03  0.89902903174E+03  0.00000000000E+00 0.  1.
          2   -1    0    0  501    0  0.00000000000E+00 -0.00000000000E+00 -0.12322747925E+04  0.12322747925E+04  0.00000000000E+00 0. -1.
         24    2    1    2    0    0  0.43303021670E+03 -0.12254792777E+03  0.60405011490E+03  0.75805460432E+03  0.85071021188E+02 0.  0.
        254    2    1    2    0    0 -0.43303021670E+03  0.12254792777E+03 -0.93729587566E+03  0.13732492199E+04  0.89708232528E+03 0.  0.
         23    2    4    4    0    0 -0.37888907622E+02  0.30455937270E+03 -0.86570540184E+03  0.92285435321E+03  0.89567480982E+02 0.  0.
         23    2    4    4    0    0 -0.39514130908E+03 -0.18201144493E+03 -0.71590473822E+02  0.45039486672E+03  0.92008259399E+02 0.  0.
          4    1    3    3  502    0  0.35131520026E+02 -0.19220668842E+02  0.99337325001E+02  0.10710537778E+03  0.00000000000E+00 0. -1.
         -3    1    3    3    0  502  0.39789869668E+03 -0.10332725893E+03  0.50471278989E+03  0.65094922654E+03  0.00000000000E+00 0.  1.
         13    1    5    5    0    0  0.73603849468E+01  0.57322305521E+02 -0.27314011192E+03  0.27918728967E+03  0.00000000000E+00 0. -1.
        -13    1    5    5    0    0 -0.45249292569E+02  0.24723706718E+03 -0.59256528992E+03  0.64366706354E+03  0.00000000000E+00 0.  1.
          2    1    6    6  503    0 -0.20150753630E+03 -0.45494399308E+02 -0.49645075722E+02  0.21246096371E+03  0.00000000000E+00 0. -1.
         -2    1    6    6    0  503 -0.19363377278E+03 -0.13651704562E+03 -0.21945398101E+02  0.23793390301E+03  0.00000000000E+00 0.  1.
<mgrwt>
<rscale>  0 0.21050898E+04</rscale>
<asrwt>0</asrwt>
<pdfrwt beam="1">  1        2 0.18958074E+00 0.21050898E+04</pdfrwt>
<pdfrwt beam="2">  1       -1 0.13831216E+00 0.21050898E+04</pdfrwt>
<totfact> 0.82333786E+00</totfact>
</mgrwt>
</event>
<event>
12    7  0.1741211E-007  0.1262620E+04  0.7818608E-02  0.9059745E-01
         -1   -1    0    0    0  501 -0.00000000000E+00  0.00000000000E+00  0.23679723500E+03  0.23679723500E+03  0.00000000000E+00 0.  1.
          2   -1    0    0  501    0  0.00000000000E+00 -0.00000000000E+00 -0.16830951763E+04  0.16830951763E+04  0.00000000000E+00 0. -1.
         24    2    1    2    0    0 -0.24028351440E+03  0.14597863427E+03 -0.17836179721E+03  0.34152157538E+03  0.76013990781E+02 0.  0.
        254    2    1    2    0    0  0.24028351440E+03 -0.14597863427E+03 -0.12679361441E+04  0.15783708359E+04  0.89696516166E+03 0.  0.
         23    2    4    4    0    0 -0.29226144289E+03  0.38802879862E+01 -0.18046758407E+03  0.35494126046E+03  0.89347310181E+02 0.  0.
         23    2    4    4    0    0  0.53254495729E+03 -0.14985892225E+03 -0.10874685600E+04  0.12234295755E+04  0.90167782347E+02 0.  0.
          2    1    3    3  502    0 -0.41258970802E+02  0.58601132408E+02 -0.26701606833E+02  0.76481181990E+02  0.00000000000E+00 0. -1.
         -1    1    3    3    0  502 -0.19902454360E+03  0.87377501859E+02 -0.15166019038E+03  0.26504039339E+03  0.00000000000E+00 0.  1.
         13    1    5    5    0    0 -0.24368597145E+03  0.10984939845E+02 -0.18425729849E+03  0.30570291728E+03  0.00000000000E+00 0. -1.
        -13    1    5    5    0    0 -0.48575471443E+02 -0.71046518584E+01  0.37897144132E+01  0.49238343182E+02  0.00000000000E+00 0.  1.
          1    1    6    6  503    0  0.16163821538E+03 -0.54850391580E+02 -0.25153730149E+03  0.30398436172E+03  0.00000000000E+00 0. -1.
         -1    1    6    6    0  503  0.37090674191E+03 -0.95008530674E+02 -0.83593125852E+03  0.91944521374E+03  0.00000000000E+00 0.  1.
<mgrwt>
<rscale>  0 0.12626199E+04</rscale>
<asrwt>0</asrwt>
<pdfrwt beam="1">  1        2 0.25893771E+00 0.12626199E+04</pdfrwt>
<pdfrwt beam="2">  1       -1 0.36430345E-01 0.12626199E+04</pdfrwt>
<totfact> 0.80992947E+01</totfact>
</mgrwt>
</event>
<event>
12    7  0.1741211E-007  0.1907704E+04  0.7818608E-02  0.8651031E-01
          2   -1    0    0  501    0  0.00000000000E+00  0.00000000000E+00  0.52359057138E+03  0.52359057138E+03  0.00000000000E+00 0. -1.
         -1   -1    0    0    0  501 -0.00000000000E+00 -0.00000000000E+00 -0.17376815511E+04  0.17376815511E+04  0.00000000000E+00 0.  1.
         24    2    1    2    0    0  0.18379681211E+03 -0.36569085257E+02  0.36994415683E+03  0.42220618665E+03  0.79251616568E+02 0.  0.
        254    2    1    2    0    0 -0.18379681211E+03  0.36569085257E+02 -0.15840351365E+04  0.18390659358E+04  0.91535656242E+03 0.  0.
         23    2    4    4    0    0 -0.10162713307E+03 -0.32000227746E+03 -0.13533244413E+04  0.13973240246E+04  0.91092560181E+02 0.  0.
         23    2    4    4    0    0 -0.82169679041E+02  0.35657136271E+03 -0.23071069517E+03  0.44174191116E+03  0.89518145383E+02 0.  0.
          4    1    3    3  502    0  0.16380191285E+03 -0.48843989402E+02  0.35601169640E+03  0.39491914353E+03  0.00000000000E+00 0. -1.
         -3    1    3    3    0  502  0.19994899265E+02  0.12274904144E+02  0.13932460435E+02  0.27287043119E+02  0.00000000000E+00 0.  1.
         13    1    5    5    0    0 -0.22996981164E+02 -0.18246118639E+03 -0.60140298842E+03  0.62889307530E+03  0.00000000000E+00 0. -1.
        -13    1    5    5    0    0 -0.78630151909E+02 -0.13754109106E+03 -0.75192145293E+03  0.76843094934E+03  0.00000000000E+00 0.  1.
          1    1    6    6  503    0 -0.68721047295E+02  0.28309788547E+03 -0.13705771417E+03  0.32195001493E+03  0.00000000000E+00 0. -1.
         -1    1    6    6    0  503 -0.13448631746E+02  0.73473477244E+02 -0.93652980996E+02  0.11979189624E+03  0.00000000000E+00 0.  1.
<mgrwt>
<rscale>  0 0.19077040E+04</rscale>
<asrwt>0</asrwt>
<pdfrwt beam="1">  1        2 0.80552396E-01 0.19077040E+04</pdfrwt>
<pdfrwt beam="2">  1       -1 0.26733562E+00 0.19077040E+04</pdfrwt>
<totfact> 0.33554592E+00</totfact>
</mgrwt>
</event>
<event>
12    7  0.1741211E-007  0.1334078E+04  0.7818608E-02  0.9002969E-01
          2   -1    0    0  501    0  0.00000000000E+00  0.00000000000E+00  0.10190122078E+04  0.10190122078E+04  0.00000000000E+00 0. -1.
         -3   -1    0    0    0  501 -0.00000000000E+00 -0.00000000000E+00 -0.43663961105E+03  0.43663961105E+03  0.00000000000E+00 0.  1.
         24    2    1    2    0    0  0.29570885574E+03  0.50838463129E+02 -0.49015145125E+02  0.31537666176E+03  0.83855099051E+02 0.  0.
        254    2    1    2    0    0 -0.29570885574E+03 -0.50838463129E+02  0.63138774187E+03  0.11402751571E+04  0.90085996503E+03 0.  0.
         23    2    4    4    0    0  0.10439855571E+03  0.31341175756E+03  0.60224565476E+02  0.34811051148E+03  0.91803821844E+02 0.  0.
         23    2    4    4    0    0 -0.40010741145E+03 -0.36425022069E+03  0.57116317639E+03  0.79216464561E+03  0.92375796203E+02 0.  0.
          4    1    3    3  502    0  0.19878238603E+03  0.50870164557E+02  0.33372084832E+01  0.20521536881E+03  0.00000000000E+00 0. -1.
         -3    1    3    3    0  502  0.96926469708E+02 -0.31701427412E-01 -0.52352353609E+02  0.11016129295E+03  0.00000000000E+00 0.  1.
         13    1    5    5    0    0  0.22229034771E+02  0.99861427892E+02 -0.22592964440E+02  0.10477059134E+03  0.00000000000E+00 0. -1.
        -13    1    5    5    0    0  0.82169520943E+02  0.21355032966E+03  0.82817529916E+02  0.24333992014E+03  0.00000000000E+00 0.  1.
          3    1    6    6  503    0 -0.16687088435E+03 -0.13012168911E+03  0.28527530012E+03  0.35518944646E+03  0.00000000000E+00 0. -1.
         -3    1    6    6    0  503 -0.23323652710E+03 -0.23412853157E+03  0.28588787627E+03  0.43697519915E+03  0.00000000000E+00 0.  1.
<mgrwt>
<rscale>  0 0.13340781E+04</rscale>
<asrwt>0</asrwt>
<pdfrwt beam="1">  1        2 0.15677111E+00 0.13340781E+04</pdfrwt>
<pdfrwt beam="2">  1       -3 0.67175325E-01 0.13340781E+04</pdfrwt>
<totfact> 0.32500647E+01</totfact>
</mgrwt>
</event>
<event>
12    7  0.1741211E-007  0.1218643E+04  0.7818608E-02  0.9096693E-01
          2   -1    0    0  501    0  0.00000000000E+00  0.00000000000E+00  0.10974391512E+04  0.10974391512E+04  0.00000000000E+00 0. -1.
         -1   -1    0    0    0  501 -0.00000000000E+00 -0.00000000000E+00 -0.33830836272E+03  0.33830836272E+03  0.00000000000E+00 0.  1.
         24    2    1    2    0    0 -0.48975877609E+02  0.26100831929E+03  0.23081385544E+03  0.36091079804E+03  0.80359124886E+02 0.  0.
        254    2    1    2    0    0  0.48975877609E+02 -0.26100831929E+03  0.52831693302E+03  0.10748367158E+04  0.89756960994E+03 0.  0.
         23    2    4    4    0    0  0.13882508991E+03 -0.41725381128E+02 -0.22316138737E+03  0.28151413412E+03  0.91846556151E+02 0.  0.
         23    2    4    4    0    0 -0.89849212304E+02 -0.21928293816E+03  0.75147832039E+03  0.79332258173E+03  0.92104097347E+02 0.  0.
          4    1    3    3  502    0 -0.10302392562E+02  0.34275036711E+01  0.30347161566E+02  0.32230998883E+02  0.00000000000E+00 0. -1.
         -3    1    3    3    0  502 -0.38673485047E+02  0.25758081562E+03  0.20046669387E+03  0.32867979916E+03  0.00000000000E+00 0.  1.
         13    1    5    5    0    0  0.44224784247E+01 -0.13426845111E+02  0.51729612508E+01  0.15053172860E+02  0.00000000000E+00 0.  1.
        -13    1    5    5    0    0  0.13440261149E+03 -0.28298536018E+02 -0.22833434862E+03  0.26646096126E+03  0.00000000000E+00 0. -1.
          1    1    6    6  503    0 -0.39411074621E+02 -0.13715070412E+03  0.57278140738E+03  0.59028983481E+03  0.00000000000E+00 0. -1.
         -1    1    6    6    0  503 -0.50438137683E+02 -0.82132234046E+02  0.17869691301E+03  0.20303274692E+03  0.00000000000E+00 0.  1.
<mgrwt>
<rscale>  0 0.12186432E+04</rscale>
<asrwt>0</asrwt>
<pdfrwt beam="1">  1        2 0.16883679E+00 0.12186432E+04</pdfrwt>
<pdfrwt beam="2">  1       -1 0.52047441E-01 0.12186432E+04</pdfrwt>
<totfact> 0.91322704E+01</totfact>
</mgrwt>
</event>
<event>
12    7  0.1741211E-007  0.1191724E+04  0.7818608E-02  0.9120132E-01
         -1   -1    0    0    0  501 -0.00000000000E+00  0.00000000000E+00  0.16636055858E+03  0.16636055858E+03  0.00000000000E+00 0.  1.
          2   -1    0    0  501    0  0.00000000000E+00 -0.00000000000E+00 -0.21342281409E+04  0.21342281409E+04  0.00000000000E+00 0. -1.
         24    2    1    2    0    0 -0.16702948111E+03  0.33663517966E+02 -0.84597246558E+02  0.20682992084E+03  0.81177841970E+02 0.  0.
        254    2    1    2    0    0  0.16702948111E+03 -0.33663517966E+02 -0.18832703357E+04  0.20937587786E+04  0.89893636347E+03 0.  0.
         23    2    4    4    0    0  0.45599265618E+03  0.21800646574E+03 -0.11936133246E+04  0.12994795390E+04  0.92077044725E+02 0.  0.
         23    2    4    4    0    0 -0.28896317508E+03 -0.25166998371E+03 -0.68965701116E+03  0.79427923958E+03  0.91734509007E+02 0.  0.
          4    1    3    3  502    0 -0.35030260754E+02  0.37743726031E+02 -0.29769462426E+01  0.51580715700E+02  0.00000000000E+00 0. -1.
         -3    1    3    3    0  502 -0.13199922035E+03 -0.40802080645E+01 -0.81620300316E+02  0.15524920514E+03  0.00000000000E+00 0.  1.
         13    1    5    5    0    0  0.45984128919E+03  0.21153186028E+03 -0.11737805171E+04  0.12782646211E+04  0.00000000000E+00 0.  1.
        -13    1    5    5    0    0 -0.38486330045E+01  0.64746054616E+01 -0.19832807435E+02  0.21214917927E+02  0.00000000000E+00 0. -1.
          4    1    6    6  503    0 -0.26933794668E+03 -0.24913437350E+03 -0.67904631251E+03  0.77182560214E+03  0.00000000000E+00 0.  1.
         -4    1    6    6    0  503 -0.19625228391E+02 -0.25356102074E+01 -0.10610698642E+02  0.22453637438E+02  0.00000000000E+00 0. -1.
<mgrwt>
<rscale>  0 0.11917238E+04</rscale>
<asrwt>0</asrwt>
<pdfrwt beam="1">  1        2 0.32834278E+00 0.11917238E+04</pdfrwt>
<pdfrwt beam="2">  1       -1 0.25593933E-01 0.11917238E+04</pdfrwt>
<totfact> 0.85269382E+01</totfact>
</mgrwt>
</event>
<event>
12    7  0.1741211E-007  0.1552504E+04  0.7818608E-02  0.8850270E-01
          2   -1    0    0  501    0  0.00000000000E+00  0.00000000000E+00  0.59872750297E+04  0.59872750297E+04  0.00000000000E+00 0. -1.
         -1   -1    0    0    0  501 -0.00000000000E+00 -0.00000000000E+00 -0.10064136183E+03  0.10064136183E+03  0.00000000000E+00 0.  1.
         24    2    1    2    0    0 -0.26599074625E+03 -0.48842617002E+03  0.14051874515E+04  0.15142374290E+04  0.95142087466E+02 0.  0.
        254    2    1    2    0    0  0.26599074625E+03  0.48842617002E+03  0.44814462164E+04  0.45736789625E+04  0.72516747142E+03 0.  0.
         23    2    4    4    0    0  0.16600843756E+03  0.83049714997E+02  0.34667035035E+04  0.34727155211E+04  0.85228239474E+02 0.  0.
         23    2    4    4    0    0  0.99982308695E+02  0.40537645503E+03  0.10147427128E+04  0.11009634414E+04  0.89951063036E+02 0.  0.
          4    1    3    3  502    0 -0.11625893423E+03 -0.17786220498E+03  0.42453981195E+03  0.47474746517E+03  0.00000000000E+00 0. -1.
         -3    1    3    3    0  502 -0.14973181202E+03 -0.31056396504E+03  0.98064763955E+03  0.10394899638E+04  0.00000000000E+00 0.  1.
         13    1    5    5    0    0  0.34561824228E+02  0.36337929604E+02  0.16091445223E+04  0.16099257929E+04  0.00000000000E+00 0. -1.
        -13    1    5    5    0    0  0.13144661333E+03  0.46711785393E+02  0.18575589812E+04  0.18627897283E+04  0.00000000000E+00 0.  1.
          4    1    6    6  503    0  0.83948950331E+02  0.17373398627E+03  0.40859161649E+03  0.45186063483E+03  0.00000000000E+00 0. -1.
         -4    1    6    6    0  503  0.16033358364E+02  0.23164246875E+03  0.60615109634E+03  0.64910280658E+03  0.00000000000E+00 0.  1.
<mgrwt>
<rscale>  0 0.15525044E+04</rscale>
<asrwt>0</asrwt>
<pdfrwt beam="1">  1        2 0.92111896E+00 0.15525044E+04</pdfrwt>
<pdfrwt beam="2">  1       -1 0.15483291E-01 0.15525044E+04</pdfrwt>
<totfact> 0.14003271E-02</totfact>
</mgrwt>
</event>
<event>
12    7  0.1741211E-007  0.1517582E+04  0.7818608E-02  0.8872845E-01
         -1   -1    0    0    0  501 -0.00000000000E+00  0.00000000000E+00  0.21628041435E+03  0.21628041435E+03  0.00000000000E+00 0.  1.
          2   -1    0    0  501    0  0.00000000000E+00 -0.00000000000E+00 -0.26621168183E+04  0.26621168183E+04  0.00000000000E+00 0. -1.
         24    2    1    2    0    0  0.34632658009E+03  0.13772144092E+03 -0.13897227321E+04  0.14410350019E+04  0.79644895092E+02 0.  0.
        254    2    1    2    0    0 -0.34632658009E+03 -0.13772144092E+03 -0.10561136718E+04  0.14373622307E+04  0.90095771215E+03 0.  0.
         23    2    4    4    0    0 -0.22981390256E+03  0.18679603715E+03 -0.10344765455E+04  0.10799164467E+04  0.91491088768E+02 0.  0.
         23    2    4    4    0    0 -0.11651267752E+03 -0.32451747807E+03 -0.21637126347E+02  0.35744578404E+03  0.91719821692E+02 0.  0.
          2    1    3    3  502    0  0.31436687072E+03  0.14079654024E+03 -0.13211801139E+04  0.13653450438E+04  0.00000000000E+00 0. -1.
         -1    1    3    3    0  502  0.31959709362E+02 -0.30750993167E+01 -0.68542618173E+02  0.75689958147E+02  0.00000000000E+00 0.  1.
         13    1    5    5    0    0 -0.27276682335E+02  0.47933423344E+02 -0.31223928691E+03  0.31707255126E+03  0.00000000000E+00 0. -1.
        -13    1    5    5    0    0 -0.20253722023E+03  0.13886261381E+03 -0.72223725859E+03  0.76284389543E+03  0.00000000000E+00 0.  1.
          2    1    6    6  503    0 -0.65443397639E+02 -0.19276491411E+03 -0.57742783375E+02  0.21160193628E+03  0.00000000000E+00 0.  1.
         -2    1    6    6    0  503 -0.51069279885E+02 -0.13175256396E+03  0.36105657028E+02  0.14584384775E+03  0.00000000000E+00 0. -1.
<mgrwt>
<rscale>  0 0.15175819E+04</rscale>
<asrwt>0</asrwt>
<pdfrwt beam="1">  1        2 0.40955643E+00 0.15175819E+04</pdfrwt>
<pdfrwt beam="2">  1       -1 0.33273910E-01 0.15175819E+04</pdfrwt>
<totfact> 0.26207464E+01</totfact>
</mgrwt>
</event>
<event>
12    7  0.1741211E-007  0.2026688E+04  0.7818608E-02  0.8594244E-01
         -1   -1    0    0    0  501 -0.00000000000E+00  0.00000000000E+00  0.11918888960E+04  0.11918888960E+04  0.00000000000E+00 0.  1.
          2   -1    0    0  501    0  0.00000000000E+00 -0.00000000000E+00 -0.86154540722E+03  0.86154540722E+03  0.00000000000E+00 0. -1.
         24    2    1    2    0    0 -0.40561514081E+03  0.65713261394E+03  0.38332845362E+03  0.86598458358E+03  0.81496508433E+02 0.  0.
        254    2    1    2    0    0  0.40561514081E+03 -0.65713261394E+03 -0.52984964868E+02  0.11874497196E+04  0.90049015284E+03 0.  0.
         23    2    4    4    0    0  0.33183683774E+03  0.14576686687E+03 -0.42666168796E+02  0.37604939841E+03  0.90714286220E+02 0.  0.
         23    2    4    4    0    0  0.73778303066E+02 -0.80289948081E+03 -0.10318796072E+02  0.81140032121E+03  0.90405693514E+02 0.  0.
          2    1    3    3  502    0 -0.31576735606E+03  0.47928224455E+03  0.31875708069E+03  0.65652613777E+03  0.00000000000E+00 0. -1.
         -1    1    3    3    0  502 -0.89847784752E+02  0.17785036939E+03  0.64571372929E+02  0.20945844580E+03  0.00000000000E+00 0.  1.
         13    1    5    5    0    0  0.11588691253E+03  0.99039785754E+02 -0.23927521265E+02  0.15430872280E+03  0.00000000000E+00 0.  1.
        -13    1    5    5    0    0  0.21594992521E+03  0.46727081117E+02 -0.18738647531E+02  0.22174067561E+03  0.00000000000E+00 0. -1.
          1    1    6    6  503    0  0.83977549769E+01 -0.47026963546E+03  0.22070014871E+02  0.47086212194E+03  0.00000000000E+00 0. -1.
         -1    1    6    6    0  503  0.65380548089E+02 -0.33262984535E+03 -0.32388810943E+02  0.34053819926E+03  0.00000000000E+00 0.  1.
<mgrwt>
<rscale>  0 0.20266883E+04</rscale>
<asrwt>0</asrwt>
<pdfrwt beam="1">  1        2 0.13254545E+00 0.20266883E+04</pdfrwt>
<pdfrwt beam="2">  1       -1 0.18336752E+00 0.20266883E+04</pdfrwt>
<totfact> 0.64880978E+00</totfact>
</mgrwt>
</event>
<event>
12    7  0.1741211E-007  0.1516530E+04  0.7818608E-02  0.8873535E-01
          2   -1    0    0  501    0  0.00000000000E+00  0.00000000000E+00  0.54016435462E+03  0.54016435462E+03  0.00000000000E+00 0. -1.
         -1   -1    0    0    0  501 -0.00000000000E+00 -0.00000000000E+00 -0.10644271959E+04  0.10644271959E+04  0.00000000000E+00 0.  1.
         24    2    1    2    0    0  0.24016801778E+03  0.16404257964E+03  0.22842505141E+03  0.37855991560E+03  0.80863841702E+02 0.  0.
        254    2    1    2    0    0 -0.24016801778E+03 -0.16404257964E+03 -0.75268789265E+03  0.12260316349E+04  0.92305138605E+03 0.  0.
         23    2    4    4    0    0 -0.22482982808E+03 -0.36706427497E+02  0.16426541911E+03  0.29563382091E+03  0.92306092628E+02 0.  0.
         23    2    4    4    0    0 -0.15338189693E+02 -0.12733615214E+03 -0.91695331176E+03  0.93039781397E+03  0.91580350411E+02 0.  0.
          2    1    3    3  502    0  0.10205646524E+03  0.92322500820E+02  0.15246261627E+03  0.20538698989E+03  0.00000000000E+00 0. -1.
         -3    1    3    3    0  502  0.13811155253E+03  0.71720078821E+02  0.75962435137E+02  0.17317292572E+03  0.00000000000E+00 0.  1.
         13    1    5    5    0    0 -0.23383277618E+03 -0.37169505094E+02  0.15764414753E+03  0.28444861851E+03  0.00000000000E+00 0. -1.
        -13    1    5    5    0    0  0.90029480973E+01  0.46307759655E+00  0.66212715844E+01  0.11185202399E+02  0.00000000000E+00 0.  1.
          1    1    6    6  503    0 -0.13323608046E+02 -0.33342174196E+02 -0.56387079473E+03  0.56501282486E+03  0.00000000000E+00 0. -1.
         -1    1    6    6    0  503 -0.20145816473E+01 -0.93993977948E+02 -0.35308251703E+03  0.36538498911E+03  0.00000000000E+00 0.  1.
<mgrwt>
<rscale>  0 0.15165298E+04</rscale>
<asrwt>0</asrwt>
<pdfrwt beam="1">  1        2 0.83102210E-01 0.15165298E+04</pdfrwt>
<pdfrwt beam="2">  1       -1 0.16375803E+00 0.15165298E+04</pdfrwt>
<totfact> 0.16983009E+01</totfact>
</mgrwt>
</event>
<event>
12    7  0.1741211E-007  0.1500578E+04  0.7818608E-02  0.8884069E-01
         -1   -1    0    0    0  501 -0.00000000000E+00  0.00000000000E+00  0.23958479280E+03  0.23958479280E+03  0.00000000000E+00 0.  1.
          2   -1    0    0  501    0  0.00000000000E+00 -0.00000000000E+00 -0.23496212900E+04  0.23496212900E+04  0.00000000000E+00 0. -1.
         24    2    1    2    0    0  0.13136744495E+02  0.13682664021E+02 -0.11674364952E+04  0.11702320438E+04  0.78582928922E+02 0.  0.
        254    2    1    2    0    0 -0.13136744495E+02 -0.13682664021E+02 -0.94260000200E+03  0.14189740390E+04  0.10604870439E+04 0.  0.
         23    2    4    4    0    0  0.20461644580E+03  0.14072120568E+03 -0.10752979574E+04  0.11072596705E+04  0.89932937338E+02 0.  0.
         23    2    4    4    0    0 -0.21775319029E+03 -0.15440386970E+03  0.13269795535E+03  0.31171436848E+03  0.91104847835E+02 0.  0.
          2    1    3    3  502    0 -0.19099433135E+02 -0.12324224638E+01 -0.92590476780E+03  0.92610255709E+03  0.00000000000E+00 0. -1.
         -1    1    3    3    0  502  0.32236177631E+02  0.14915086484E+02 -0.24153172740E+03  0.24412948673E+03  0.00000000000E+00 0.  1.
         13    1    5    5    0    0  0.79730410307E+02  0.44363762013E+02 -0.23125786396E+03  0.24860668002E+03  0.00000000000E+00 0.  1.
        -13    1    5    5    0    0  0.12488603549E+03  0.96357443670E+02 -0.84404009340E+03  0.85865299049E+03  0.00000000000E+00 0. -1.
          3    1    6    6  503    0 -0.11321312762E+03 -0.59911897815E+02  0.11028907491E+03  0.16902759482E+03  0.00000000000E+00 0. -1.
         -3    1    6    6    0  503 -0.10454006267E+03 -0.94491971889E+02  0.22408880441E+02  0.14268677366E+03  0.00000000000E+00 0.  1.
<mgrwt>
<rscale>  0 0.15005779E+04</rscale>
<asrwt>0</asrwt>
<pdfrwt beam="1">  1        2 0.36148020E+00 0.15005779E+04</pdfrwt>
<pdfrwt beam="2">  1       -1 0.36859198E-01 0.15005779E+04</pdfrwt>
<totfact> 0.33104027E+01</totfact>
</mgrwt>
</event>
<event>
12    7  0.1741211E-007  0.1305925E+04  0.7818608E-02  0.9024880E-01
          2   -1    0    0  501    0  0.00000000000E+00  0.00000000000E+00  0.41863129296E+03  0.41863129296E+03  0.00000000000E+00 0. -1.
         -1   -1    0    0    0  501 -0.00000000000E+00 -0.00000000000E+00 -0.10184614576E+04  0.10184614576E+04  0.00000000000E+00 0.  1.
         24    2    1    2    0    0 -0.25077801002E+03 -0.81503860323E+02 -0.39056196464E+03  0.47810313578E+03  0.80693684160E+02 0.  0.
        254    2    1    2    0    0  0.25077801002E+03  0.81503860323E+02 -0.20926820002E+03  0.95898961479E+03  0.89796180998E+03 0.  0.
         23    2    4    4    0    0 -0.21751230886E+03 -0.25821988929E+03 -0.56600930063E+02  0.35382903072E+03  0.89455027638E+02 0.  0.
         23    2    4    4    0    0  0.46829031888E+03  0.33972374961E+03 -0.15266726996E+03  0.60516058407E+03  0.90575870879E+02 0.  0.
          4    1    3    3  502    0 -0.18057576517E+03 -0.19168501561E+02 -0.24698534477E+03  0.30655635526E+03  0.00000000000E+00 0. -1.
         -3    1    3    3    0  502 -0.70202244848E+02 -0.62335358762E+02 -0.14357661987E+03  0.17154678052E+03  0.00000000000E+00 0.  1.
         13    1    5    5    0    0 -0.18877693784E+03 -0.19095221365E+03 -0.13337716145E+02  0.26884451795E+03  0.00000000000E+00 0. -1.
        -13    1    5    5    0    0 -0.28735371018E+02 -0.67267675633E+02 -0.43263213918E+02  0.84984512773E+02  0.00000000000E+00 0.  1.
          4    1    6    6  503    0  0.28678662612E+03  0.20149721890E+03 -0.13753233531E+03  0.37651406534E+03  0.00000000000E+00 0. -1.
         -4    1    6    6    0  503  0.18150369276E+03  0.13822653071E+03 -0.15134934651E+02  0.22864651872E+03  0.00000000000E+00 0.  1.
<mgrwt>
<rscale>  0 0.13059247E+04</rscale>
<asrwt>0</asrwt>
<pdfrwt beam="1">  1        2 0.64404815E-01 0.13059247E+04</pdfrwt>
<pdfrwt beam="2">  1       -1 0.15668638E+00 0.13059247E+04</pdfrwt>
<totfact> 0.26225315E+01</totfact>
</mgrwt>
</event>
<event>
12    7  0.1741211E-007  0.1295247E+04  0.7818608E-02  0.9033343E-01
          2   -1    0    0  501    0  0.00000000000E+00  0.00000000000E+00  0.94708476980E+03  0.94708476980E+03  0.00000000000E+00 0. -1.
         -1   -1    0    0    0  501 -0.00000000000E+00 -0.00000000000E+00 -0.44284936485E+03  0.44284936485E+03  0.00000000000E+00 0.  1.
         24    2    1    2    0    0  0.39319001616E+02 -0.14542159091E+03  0.45129508823E+03  0.48249013006E+03  0.80224970878E+02 0.  0.
        254    2    1    2    0    0 -0.39319001616E+02  0.14542159091E+03  0.52940316718E+02  0.90744400459E+03  0.89328524075E+03 0.  0.
         23    2    4    4    0    0  0.51030258774E+02 -0.35752454139E+03 -0.54041883008E+02  0.37705919597E+03  0.93942680071E+02 0.  0.
         23    2    4    4    0    0 -0.90349260391E+02  0.50294613230E+03  0.10698219973E+03  0.53038480862E+03  0.93514989713E+02 0.  0.
          2    1    3    3  502    0 -0.18846889247E+02 -0.81200432310E+02  0.24263806414E+03  0.25655787965E+03  0.00000000000E+00 0. -1.
         -1    1    3    3    0  502  0.58165890864E+02 -0.64221158601E+02  0.20865702409E+03  0.22593225041E+03  0.00000000000E+00 0.  1.
         13    1    5    5    0    0  0.28596810844E+02 -0.29803343453E+03 -0.97290051441E+01  0.29956027645E+03  0.00000000000E+00 0. -1.
        -13    1    5    5    0    0  0.22433447930E+02 -0.59491106864E+02 -0.44312877864E+02  0.77498919518E+02  0.00000000000E+00 0.  1.
          1    1    6    6  503    0 -0.66133144208E+02  0.35994623263E+03  0.11905012210E+03  0.38484778124E+03  0.00000000000E+00 0. -1.
         -1    1    6    6    0  503 -0.24216116183E+02  0.14299989967E+03 -0.12067922373E+02  0.14553702738E+03  0.00000000000E+00 0.  1.
<mgrwt>
<rscale>  0 0.12952465E+04</rscale>
<asrwt>0</asrwt>
<pdfrwt beam="1">  1        2 0.14570535E+00 0.12952465E+04</pdfrwt>
<pdfrwt beam="2">  1       -1 0.68130672E-01 0.12952465E+04</pdfrwt>
<totfact> 0.66552467E+01</totfact>
</mgrwt>
</event>
<event>
12    7  0.1741211E-007  0.1056158E+04  0.7818608E-02  0.9249009E-01
         -1   -1    0    0    0  501 -0.00000000000E+00  0.00000000000E+00  0.10583012664E+03  0.10583012664E+03  0.00000000000E+00 0.  1.
          2   -1    0    0  501    0  0.00000000000E+00 -0.00000000000E+00 -0.26350469388E+04  0.26350469388E+04  0.00000000000E+00 0. -1.
         24    2    1    2    0    0 -0.10162125016E+03 -0.92347470298E+02 -0.28300579136E+03  0.32459827044E+03  0.80105090215E+02 0.  0.
        254    2    1    2    0    0  0.10162125016E+03  0.92347470298E+02 -0.22462110208E+04  0.24162787950E+04  0.87982062455E+03 0.  0.
         23    2    4    4    0    0  0.44543867600E+03  0.22429488248E+03 -0.13978677888E+04  0.14869899707E+04  0.91547852888E+02 0.  0.
         23    2    4    4    0    0 -0.34381742585E+03 -0.13194741218E+03 -0.84834323196E+03  0.92928882433E+03  0.90944697035E+02 0.  0.
          2    1    3    3  502    0 -0.76199483902E+02 -0.74122556964E+02 -0.27098216923E+03  0.29108735946E+03  0.00000000000E+00 0. -1.
         -1    1    3    3    0  502 -0.25421766256E+02 -0.18224913335E+02 -0.12023622125E+02  0.33510910979E+02  0.00000000000E+00 0.  1.
         13    1    5    5    0    0  0.20029599681E+03  0.93743655504E+02 -0.75427535154E+03  0.78602650415E+03  0.00000000000E+00 0. -1.
        -13    1    5    5    0    0  0.24514267919E+03  0.13055122698E+03 -0.64359243730E+03  0.70096346651E+03  0.00000000000E+00 0.  1.
          2    1    6    6  503    0 -0.27789644489E+03 -0.70978521822E+02 -0.59544721225E+03  0.66092493312E+03  0.00000000000E+00 0. -1.
         -2    1    6    6    0  503 -0.65920980960E+02 -0.60968890359E+02 -0.25289601971E+03  0.26836389121E+03  0.00000000000E+00 0.  1.
<mgrwt>
<rscale>  0 0.10561579E+04</rscale>
<asrwt>0</asrwt>
<pdfrwt beam="1">  1        2 0.40539183E+00 0.10561579E+04</pdfrwt>
<pdfrwt beam="2">  1       -1 0.16281558E-01 0.10561579E+04</pdfrwt>
<totfact> 0.95886611E+01</totfact>
</mgrwt>
</event>
<event>
12    7  0.1741211E-007  0.1192055E+04  0.7818608E-02  0.9119839E-01
         -1   -1    0    0    0  501 -0.00000000000E+00  0.00000000000E+00  0.24182190195E+03  0.24182190195E+03  0.00000000000E+00 0.  1.
          2   -1    0    0  501    0  0.00000000000E+00 -0.00000000000E+00 -0.14690521461E+04  0.14690521461E+04  0.00000000000E+00 0. -1.
         24    2    1    2    0    0  0.18925300372E+03  0.43896748529E+02 -0.48577500502E+03  0.52950882237E+03  0.81600327937E+02 0.  0.
        254    2    1    2    0    0 -0.18925300372E+03 -0.43896748529E+02 -0.74145523911E+03  0.11813652257E+04  0.89895734096E+03 0.  0.
         23    2    4    4    0    0 -0.44852373913E+03 -0.20002735861E+03 -0.70424618647E+03  0.86370296515E+03  0.93998042988E+02 0.  0.
         23    2    4    4    0    0  0.25927073541E+03  0.15613061009E+03 -0.37209052639E+02  0.31766226052E+03  0.89032109456E+02 0.  0.
          2    1    3    3  502    0  0.11611004529E+03 -0.34122491824E+01 -0.20608403779E+03  0.23656672778E+03  0.00000000000E+00 0. -1.
         -1    1    3    3    0  502  0.73142958425E+02  0.47308997712E+02 -0.27969096723E+03  0.29294209459E+03  0.00000000000E+00 0.  1.
         13    1    5    5    0    0 -0.34665195741E+03 -0.16898372395E+03 -0.48226268407E+03  0.61749524288E+03  0.00000000000E+00 0. -1.
        -13    1    5    5    0    0 -0.10187178172E+03 -0.31043634670E+02 -0.22198350240E+03  0.24620772226E+03  0.00000000000E+00 0.  1.
          2    1    6    6  503    0  0.25825060333E+03  0.14626525373E+03 -0.50519224260E+02  0.30106326676E+03  0.00000000000E+00 0. -1.
         -2    1    6    6    0  503  0.10201320820E+01  0.98653563561E+01  0.13310171621E+02  0.16598993767E+02  0.00000000000E+00 0.  1.
<mgrwt>
<rscale>  0 0.11920553E+04</rscale>
<asrwt>0</asrwt>
<pdfrwt beam="1">  1        2 0.22600802E+00 0.11920553E+04</pdfrwt>
<pdfrwt beam="2">  1       -1 0.37203370E-01 0.11920553E+04</pdfrwt>
<totfact> 0.10328720E+02</totfact>
</mgrwt>
</event>
<event>
12    7  0.1741211E-007  0.1309777E+04  0.7818608E-02  0.9021848E-01
          2   -1    0    0  501    0  0.00000000000E+00  0.00000000000E+00  0.12065678698E+04  0.12065678698E+04  0.00000000000E+00 0. -1.
         -1   -1    0    0    0  501 -0.00000000000E+00 -0.00000000000E+00 -0.35545339664E+03  0.35545339664E+03  0.00000000000E+00 0.  1.
         24    2    1    2    0    0  0.20365919273E+03 -0.24822643216E+03  0.10320298636E+03  0.34659602291E+03  0.79903180783E+02 0.  0.
        254    2    1    2    0    0 -0.20365919273E+03  0.24822643216E+03  0.74791148684E+03  0.12154252436E+04  0.90265912845E+03 0.  0.
         23    2    4    4    0    0  0.31995177629E+03  0.24305303134E+03  0.43221484622E+03  0.59708457008E+03  0.90864709021E+02 0.  0.
         23    2    4    4    0    0 -0.52361096901E+03  0.51734008220E+01  0.31569664062E+03  0.61834067349E+03  0.92117363473E+02 0.  0.
          2    1    3    3  502    0  0.55297138756E+02 -0.27732510364E+02  0.39202877139E+02  0.73237499013E+02  0.00000000000E+00 0. -1.
         -1    1    3    3    0  502  0.14836205397E+03 -0.22049392179E+03  0.64000109220E+02  0.27335852390E+03  0.00000000000E+00 0.  1.
         13    1    5    5    0    0  0.26468033736E+03  0.23439175401E+03  0.34879812372E+03  0.49664404401E+03  0.00000000000E+00 0.  1.
        -13    1    5    5    0    0  0.55271438923E+02  0.86612773218E+01  0.83416722500E+02  0.10044052607E+03  0.00000000000E+00 0. -1.
          3    1    6    6  503    0 -0.42941657857E+02  0.25886368510E+02  0.22792756467E+02  0.55078124528E+02  0.00000000000E+00 0. -1.
         -3    1    6    6    0  503 -0.48066931116E+03 -0.20712967688E+02  0.29290388415E+03  0.56326254897E+03  0.00000000000E+00 0.  1.
<mgrwt>
<rscale>  0 0.13097765E+04</rscale>
<asrwt>0</asrwt>
<pdfrwt beam="1">  1        2 0.18562582E+00 0.13097765E+04</pdfrwt>
<pdfrwt beam="2">  1       -1 0.54685138E-01 0.13097765E+04</pdfrwt>
<totfact> 0.70811092E+01</totfact>
</mgrwt>
</event>
<event>
12    7  0.1741211E-007  0.1790265E+04  0.7818608E-02  0.8711493E-01
         -1   -1    0    0    0  501 -0.00000000000E+00  0.00000000000E+00  0.65586491200E+03  0.65586491200E+03  0.00000000000E+00 0.  1.
          2   -1    0    0  501    0  0.00000000000E+00 -0.00000000000E+00 -0.12216884732E+04  0.12216884732E+04  0.00000000000E+00 0. -1.
         24    2    1    2    0    0 -0.88428887691E+02  0.66598321578E+03 -0.43461893997E+02  0.67760615212E+03  0.76862534987E+02 0.  0.
        254    2    1    2    0    0  0.88428887691E+02 -0.66598321578E+03 -0.52236166722E+03  0.11999472331E+04  0.84596592069E+03 0.  0.
         23    2    4    4    0    0  0.53680338059E+01 -0.25616594744E+03 -0.68908060902E+03  0.74080866292E+03  0.91189807153E+02 0.  0.
         23    2    4    4    0    0  0.83060853886E+02 -0.40981726834E+03  0.16671894179E+03  0.45913857018E+03  0.90353318685E+02 0.  0.
          4    1    3    3  502    0 -0.28066858671E+02  0.64435407001E+02 -0.17756848142E+02  0.72491212481E+02  0.00000000000E+00 0. -1.
         -3    1    3    3    0  502 -0.60362029021E+02  0.60154780877E+03 -0.25705045856E+02  0.60511493964E+03  0.00000000000E+00 0.  1.
         13    1    5    5    0    0  0.37099686461E+01 -0.26264878263E+03 -0.68298929693E+03  0.73175988316E+03  0.00000000000E+00 0. -1.
        -13    1    5    5    0    0  0.16580651598E+01  0.64828351950E+01 -0.60913120855E+01  0.90487797610E+01  0.00000000000E+00 0.  1.
          1    1    6    6  503    0  0.93516980357E+02 -0.24501484521E+03  0.92463346818E+02  0.27807763393E+03  0.00000000000E+00 0. -1.
         -1    1    6    6    0  503 -0.10456126471E+02 -0.16480242313E+03  0.74255594975E+02  0.18106093625E+03  0.00000000000E+00 0.  1.
<mgrwt>
<rscale>  0 0.17902655E+04</rscale>
<asrwt>0</asrwt>
<pdfrwt beam="1">  1        2 0.18795207E+00 0.17902655E+04</pdfrwt>
<pdfrwt beam="2">  1       -1 0.10090230E+00 0.17902655E+04</pdfrwt>
<totfact> 0.18492810E+01</totfact>
</mgrwt>
</event>
<event>
12    7  0.1741211E-007  0.2566351E+04  0.7818608E-02  0.8379722E-01
          2   -1    0    0  501    0  0.00000000000E+00  0.00000000000E+00  0.19666282987E+04  0.19666282987E+04  0.00000000000E+00 0. -1.
         -1   -1    0    0    0  501 -0.00000000000E+00 -0.00000000000E+00 -0.83723943639E+03  0.83723943639E+03  0.00000000000E+00 0.  1.
         24    2    1    2    0    0  0.64149754492E+03  0.88468594066E+03  0.52944594256E+03  0.12169072381E+04  0.79761558791E+02 0.  0.
        254    2    1    2    0    0 -0.64149754492E+03 -0.88468594066E+03  0.59994291978E+03  0.15869604970E+04  0.98199989735E+03 0.  0.
         23    2    4    4    0    0 -0.33456992246E+03  0.10101016627E+02  0.53073564648E+03  0.63399707938E+03  0.90735366109E+02 0.  0.
         23    2    4    4    0    0 -0.30692762247E+03 -0.89478695729E+03  0.69207273300E+02  0.95296341765E+03  0.92202843428E+02 0.  0.
          2    1    3    3  502    0  0.58737916246E+02  0.64545718404E+02  0.64780365319E+02  0.10868665189E+03  0.00000000000E+00 0. -1.
         -1    1    3    3    0  502  0.58275962868E+03  0.82014022226E+03  0.46466557724E+03  0.11082205862E+04  0.00000000000E+00 0.  1.
         13    1    5    5    0    0 -0.18076979073E+03  0.48485627386E+02  0.31264476968E+03  0.36438348661E+03  0.00000000000E+00 0.  1.
        -13    1    5    5    0    0 -0.15380013173E+03 -0.38384610759E+02  0.21809087680E+03  0.26961359277E+03  0.00000000000E+00 0. -1.
          1    1    6    6  503    0 -0.86589227170E+02 -0.19235360719E+03  0.48721526305E+02  0.21649801751E+03  0.00000000000E+00 0. -1.
         -1    1    6    6    0  503 -0.22033839530E+03 -0.70243335010E+03  0.20485746995E+02  0.73646540014E+03  0.00000000000E+00 0.  1.
<mgrwt>
<rscale>  0 0.25663505E+04</rscale>
<asrwt>0</asrwt>
<pdfrwt beam="1">  1        2 0.30255820E+00 0.25663505E+04</pdfrwt>
<pdfrwt beam="2">  1       -1 0.12880607E+00 0.25663505E+04</pdfrwt>
<totfact> 0.36532878E+00</totfact>
</mgrwt>
</event>
<event>
12    7  0.1741211E-007  0.1268652E+04  0.7818608E-02  0.9054800E-01
          2   -1    0    0  501    0  0.00000000000E+00  0.00000000000E+00  0.73663008241E+03  0.73663008241E+03  0.00000000000E+00 0. -1.
         -1   -1    0    0    0  501 -0.00000000000E+00 -0.00000000000E+00 -0.54623032695E+03  0.54623032695E+03  0.00000000000E+00 0.  1.
         24    2    1    2    0    0 -0.66820491433E+02 -0.51250615600E+02  0.34651802162E+03  0.36518174860E+03  0.78685237056E+02 0.  0.
        254    2    1    2    0    0  0.66820491433E+02  0.51250615600E+02 -0.15611826616E+03  0.91767866076E+03  0.90037192743E+03 0.  0.
         23    2    4    4    0    0  0.31204380180E+03  0.22913540534E+03 -0.36420964401E+03  0.53898408537E+03  0.89335386458E+02 0.  0.
         23    2    4    4    0    0 -0.24522331036E+03 -0.17788478974E+03  0.20809137784E+03  0.37869457539E+03  0.91269324159E+02 0.  0.
          2    1    3    3  502    0 -0.16969023092E+02  0.12451367972E+02  0.16650260358E+03  0.16782759400E+03  0.00000000000E+00 0. -1.
         -1    1    3    3    0  502 -0.49851468341E+02 -0.63701983572E+02  0.18001541804E+03  0.19735415460E+03  0.00000000000E+00 0.  1.
         13    1    5    5    0    0  0.30800021725E+03  0.20017760554E+03 -0.34539335670E+03  0.50421402046E+03  0.00000000000E+00 0. -1.
        -13    1    5    5    0    0  0.40435845490E+01  0.28957799799E+02 -0.18816287311E+02  0.34770064903E+02  0.00000000000E+00 0.  1.
          1    1    6    6  503    0 -0.21585077955E+03 -0.18698001365E+03  0.19025655197E+03  0.34314813143E+03  0.00000000000E+00 0. -1.
         -1    1    6    6    0  503 -0.29372530813E+02  0.90952239108E+01  0.17834825872E+02  0.35546443960E+02  0.00000000000E+00 0.  1.
<mgrwt>
<rscale>  0 0.12686523E+04</rscale>
<asrwt>0</asrwt>
<pdfrwt beam="1">  1        2 0.11332770E+00 0.12686523E+04</pdfrwt>
<pdfrwt beam="2">  1       -1 0.84035435E-01 0.12686523E+04</pdfrwt>
<totfact> 0.60455342E+01</totfact>
</mgrwt>
</event>
<event>
12    7  0.1741211E-007  0.2135513E+04  0.7818608E-02  0.8545759E-01
         -1   -1    0    0    0  501 -0.00000000000E+00  0.00000000000E+00  0.36153609222E+03  0.36153609222E+03  0.00000000000E+00 0.  1.
          2   -1    0    0  501    0  0.00000000000E+00 -0.00000000000E+00 -0.31535006802E+04  0.31535006802E+04  0.00000000000E+00 0. -1.
         24    2    1    2    0    0 -0.63909607861E+03  0.59104581875E+03 -0.12622569295E+04  0.15354091585E+04  0.80061041686E+02 0.  0.
        254    2    1    2    0    0  0.63909607861E+03 -0.59104581875E+03 -0.15297076585E+04  0.19796276139E+04  0.90616831317E+03 0.  0.
         23    2    4    4    0    0  0.74217629905E+03 -0.70019739228E+03 -0.10434960869E+04  0.14617963076E+04  0.82839087856E+02 0.  0.
         23    2    4    4    0    0 -0.10308022043E+03  0.10915157353E+03 -0.48621157152E+03  0.51783130628E+03  0.95958176508E+02 0.  0.
          2    1    3    3  502    0 -0.37938478923E+03  0.35570202852E+03 -0.82173598629E+03  0.97247456653E+03  0.00000000000E+00 0. -1.
         -1    1    3    3    0  502 -0.25971128939E+03  0.23534379024E+03 -0.44052094322E+03  0.56293459199E+03  0.00000000000E+00 0.  1.
         13    1    5    5    0    0  0.82388025752E+02 -0.94101159336E+02 -0.16488108028E+03  0.20695068401E+03  0.00000000000E+00 0.  1.
        -13    1    5    5    0    0  0.65978827330E+03 -0.60609623294E+03 -0.87861500666E+03  0.12548456236E+04  0.00000000000E+00 0. -1.
          2    1    6    6  503    0 -0.87541336264E+02  0.10019713742E+03 -0.48113379662E+03  0.49919202934E+03  0.00000000000E+00 0. -1.
         -2    1    6    6    0  503 -0.15538884170E+02  0.89544361003E+01 -0.50777748992E+01  0.18639276946E+02  0.00000000000E+00 0.  1.
<mgrwt>
<rscale>  0 0.21355133E+04</rscale>
<asrwt>0</asrwt>
<pdfrwt beam="1">  1        2 0.48515395E+00 0.21355133E+04</pdfrwt>
<pdfrwt beam="2">  1       -1 0.55620937E-01 0.21355133E+04</pdfrwt>
<totfact> 0.47626169E+00</totfact>
</mgrwt>
</event>
<event>
12    7  0.1741211E-007  0.3810591E+04  0.7818608E-02  0.8043886E-01
         -1   -1    0    0    0  501 -0.00000000000E+00  0.00000000000E+00  0.16322889030E+04  0.16322889030E+04  0.00000000000E+00 0.  1.
          2   -1    0    0  501    0  0.00000000000E+00 -0.00000000000E+00 -0.22239637888E+04  0.22239637888E+04  0.00000000000E+00 0. -1.
         24    2    1    2    0    0 -0.15535233982E+04 -0.62106469537E+03 -0.95090144503E+03  0.19260271424E+04  0.78807933348E+02 0.  0.
        254    2    1    2    0    0  0.15535233982E+04  0.62106469537E+03  0.35922655925E+03  0.19302255495E+04  0.89306810842E+03 0.  0.
         23    2    4    4    0    0  0.12503376286E+04  0.64391210247E+02  0.26702898775E+03  0.12834496890E+04  0.91914146630E+02 0.  0.
         23    2    4    4    0    0  0.30318576960E+03  0.55667348512E+03  0.92197571501E+02  0.64677586048E+03  0.89507773890E+02 0.  0.
          4    1    3    3  502    0 -0.64911503646E+03 -0.23159176225E+03 -0.42479827029E+03  0.80959165345E+03  0.00000000000E+00 0. -1.
         -3    1    3    3    0  502 -0.90440836177E+03 -0.38947293312E+03 -0.52610317474E+03  0.11164354889E+04  0.00000000000E+00 0.  1.
         13    1    5    5    0    0  0.85165351925E+03  0.39813174414E+02  0.22520250229E+03  0.88182479708E+03  0.00000000000E+00 0. -1.
        -13    1    5    5    0    0  0.39868410937E+03  0.24578035833E+02  0.41826485459E+02  0.40162489190E+03  0.00000000000E+00 0.  1.
          1    1    6    6  503    0  0.19812559484E+03  0.43222273522E+03  0.47189829083E+02  0.47780448318E+03  0.00000000000E+00 0. -1.
         -1    1    6    6    0  503  0.10506017476E+03  0.12445074989E+03  0.45007742418E+02  0.16897137730E+03  0.00000000000E+00 0.  1.
<mgrwt>
<rscale>  0 0.38105912E+04</rscale>
<asrwt>0</asrwt>
<pdfrwt beam="1">  1        2 0.34214827E+00 0.38105912E+04</pdfrwt>
<pdfrwt beam="2">  1       -1 0.25112137E+00 0.38105912E+04</pdfrwt>
<totfact> 0.31260851E-01</totfact>
</mgrwt>
</event>
<event>
12    7  0.1741211E-007  0.1347973E+04  0.7818608E-02  0.8992364E-01
          2   -1    0    0  501    0  0.00000000000E+00  0.00000000000E+00  0.29915795813E+04  0.29915795813E+04  0.00000000000E+00 0. -1.
         -1   -1    0    0    0  501 -0.00000000000E+00 -0.00000000000E+00 -0.15184537221E+03  0.15184537221E+03  0.00000000000E+00 0.  1.
         24    2    1    2    0    0  0.13543192759E+03 -0.30689121844E+03  0.11937127702E+04  0.12424868662E+04  0.79368809681E+02 0.  0.
        254    2    1    2    0    0 -0.13543192759E+03  0.30689121844E+03  0.16460214389E+04  0.19009380873E+04  0.88974996915E+03 0.  0.
         23    2    4    4    0    0  0.35233242006E+03  0.44247592902E+02  0.45145412553E+03  0.58093524265E+03  0.87057136346E+02 0.  0.
         23    2    4    4    0    0 -0.48776434766E+03  0.26264362554E+03  0.11945673134E+04  0.13200028447E+04  0.92307697032E+02 0.  0.
          2    1    3    3  502    0  0.86657086661E+02 -0.17776141009E+03  0.83584089234E+03  0.85891708965E+03  0.00000000000E+00 0. -1.
         -1    1    3    3    0  502  0.48774840933E+02 -0.12912980835E+03  0.35787187788E+03  0.38356977656E+03  0.00000000000E+00 0.  1.
         13    1    5    5    0    0  0.14360291484E+03 -0.11482817903E+02  0.13268858889E+03  0.19585687090E+03  0.00000000000E+00 0.  1.
        -13    1    5    5    0    0  0.20872950522E+03  0.55730410805E+02  0.31876553664E+03  0.38507837175E+03  0.00000000000E+00 0. -1.
          3    1    6    6  503    0 -0.39881095403E+03  0.24844548961E+03  0.10374843898E+04  0.11389245793E+04  0.00000000000E+00 0. -1.
         -3    1    6    6    0  503 -0.88953393625E+02  0.14198135923E+02  0.15708292358E+03  0.18107826535E+03  0.00000000000E+00 0.  1.
<mgrwt>
<rscale>  0 0.13479726E+04</rscale>
<asrwt>0</asrwt>
<pdfrwt beam="1">  1        2 0.46024297E+00 0.13479726E+04</pdfrwt>
<pdfrwt beam="2">  1       -1 0.23360829E-01 0.13479726E+04</pdfrwt>
<totfact> 0.31160677E+01</totfact>
</mgrwt>
</event>
<event>
12    7  0.1947094E-007  0.1870799E+04  0.7818608E-02  0.8669530E-01
         -1   -1    0    0    0  501 -0.00000000000E+00  0.00000000000E+00  0.48388310834E+03  0.48388310834E+03  0.00000000000E+00 0.  1.
          2   -1    0    0  501    0  0.00000000000E+00 -0.00000000000E+00 -0.18082307581E+04  0.18082307581E+04  0.00000000000E+00 0. -1.
         24    2    1    2    0    0  0.12387665905E+03 -0.52917651503E+03 -0.10990579984E+04  0.12285447608E+04  0.77592104389E+02 0.  0.
        254    2    1    2    0    0 -0.12387665905E+03  0.52917651503E+03 -0.22528965132E+03  0.10635691056E+04  0.88603081478E+03 0.  0.
         23    2    4    4    0    0 -0.31598384001E+03 -0.14649363285E+02  0.15824789007E+03  0.36505240711E+03  0.90335343214E+02 0.  0.
         23    2    4    4    0    0  0.19210718095E+03  0.54382587832E+03 -0.38353754139E+03  0.69851669853E+03  0.90403415667E+02 0.  0.
          2    1    3    3  502    0  0.12385619477E+03 -0.51319557675E+03 -0.10271197797E+04  0.11548528473E+04  0.00000000000E+00 0. -1.
         -1    1    3    3    0  502  0.20464281121E-01 -0.15980938281E+02 -0.71938218731E+02  0.73691913541E+02  0.00000000000E+00 0.  1.
         13    1    5    5    0    0 -0.10065081611E+02  0.18134041113E+02  0.50259925612E+01  0.21340335427E+02  0.00000000000E+00 0. -1.
        -13    1    5    5    0    0 -0.30591875839E+03 -0.32783404398E+02  0.15322189751E+03  0.34371207168E+03  0.00000000000E+00 0.  1.
          3    1    6    6  503    0  0.36470795254E+02  0.32064564938E+02 -0.25552845317E+02  0.54874430612E+02  0.00000000000E+00 0. -1.
         -3    1    6    6    0  503  0.15563638570E+03  0.51176131338E+03 -0.35798469608E+03  0.64364226792E+03  0.00000000000E+00 0.  1.
<mgrwt>
<rscale>  0 0.18707991E+04</rscale>
<asrwt>0</asrwt>
<pdfrwt beam="1">  1        2 0.27818935E+00 0.18707991E+04</pdfrwt>
<pdfrwt beam="2">  1       -1 0.74443556E-01 0.18707991E+04</pdfrwt>
<totfact> 0.16576979E+01</totfact>
</mgrwt>
</event>
<event>
12    7  0.1741211E-007  0.1727194E+04  0.7818608E-02  0.8746005E-01
          2   -1    0    0  501    0  0.00000000000E+00  0.00000000000E+00  0.18616092989E+04  0.18616092989E+04  0.00000000000E+00 0. -1.
         -1   -1    0    0    0  501 -0.00000000000E+00 -0.00000000000E+00 -0.40062077408E+03  0.40062077408E+03  0.00000000000E+00 0.  1.
         24    2    1    2    0    0  0.30420022784E+03  0.98478772719E+02 -0.17064004199E+03  0.37072301286E+03  0.77985133457E+02 0.  0.
        254    2    1    2    0    0 -0.30420022784E+03 -0.98478772719E+02  0.16316285668E+04  0.18915070601E+04  0.90185992877E+03 0.  0.
         23    2    4    4    0    0 -0.24314882934E+03  0.29000502292E+03  0.27622244706E+03  0.47714450316E+03  0.90242839650E+02 0.  0.
         23    2    4    4    0    0 -0.61051398493E+02 -0.38848379564E+03  0.13554061197E+04  0.14143625569E+04  0.92998711349E+02 0.  0.
          4    1    3    3  502    0  0.14406885132E+03  0.60885747728E+01 -0.71705311809E+02  0.16104209514E+03  0.00000000000E+00 0. -1.
         -3    1    3    3    0  502  0.16013137651E+03  0.92390197946E+02 -0.98934730183E+02  0.20968091772E+03  0.00000000000E+00 0.  1.
         13    1    5    5    0    0 -0.22109211547E+03  0.27282643872E+03  0.22008683326E+03  0.41443238696E+03  0.00000000000E+00 0. -1.
        -13    1    5    5    0    0 -0.22056713870E+02  0.17178584207E+02  0.56135613799E+02  0.62712116203E+02  0.00000000000E+00 0.  1.
          4    1    6    6  503    0 -0.47754942943E+02 -0.38261113464E+03  0.12546039321E+04  0.13125177490E+04  0.00000000000E+00 0. -1.
         -4    1    6    6    0  503 -0.13296455550E+02 -0.58726610060E+01  0.10080218762E+03  0.10184480795E+03  0.00000000000E+00 0.  1.
<mgrwt>
<rscale>  0 0.17271935E+04</rscale>
<asrwt>0</asrwt>
<pdfrwt beam="1">  1        2 0.28640143E+00 0.17271935E+04</pdfrwt>
<pdfrwt beam="2">  1       -1 0.61633966E-01 0.17271935E+04</pdfrwt>
<totfact> 0.23029331E+01</totfact>
</mgrwt>
</event>
<event>
12    7  0.1741211E-007  0.1456372E+04  0.7818608E-02  0.8913995E-01
         -1   -1    0    0    0  501 -0.00000000000E+00  0.00000000000E+00  0.25833724387E+03  0.25833724387E+03  0.00000000000E+00 0.  1.
          2   -1    0    0  501    0  0.00000000000E+00 -0.00000000000E+00 -0.20525678937E+04  0.20525678937E+04  0.00000000000E+00 0. -1.
         24    2    1    2    0    0  0.32284114805E+03 -0.18133426947E+02 -0.10536663513E+04  0.11049355072E+04  0.78195059535E+02 0.  0.
        254    2    1    2    0    0 -0.32284114805E+03  0.18133426947E+02 -0.74056429852E+03  0.12059696303E+04  0.89519385657E+03 0.  0.
         23    2    4    4    0    0 -0.45950172884E+03 -0.99530644354E+02 -0.44156559760E+02  0.48090984422E+03  0.90974109116E+02 0.  0.
         23    2    4    4    0    0  0.13666058078E+03  0.11766407130E+03 -0.69640773876E+03  0.72505978605E+03  0.90592531286E+02 0.  0.
          2    1    3    3  502    0  0.27460067324E+03 -0.25335968917E+02 -0.96625892209E+03  0.10048401592E+04  0.00000000000E+00 0. -1.
         -1    1    3    3    0  502  0.48240474817E+02  0.72025419696E+01 -0.87407429170E+02  0.10009534802E+03  0.00000000000E+00 0.  1.
         13    1    5    5    0    0 -0.11916619446E+03 -0.23545781694E+02  0.28355417741E+02  0.12473578257E+03  0.00000000000E+00 0.  1.
        -13    1    5    5    0    0 -0.34033553438E+03 -0.75984862660E+02 -0.72511977502E+02  0.35617406165E+03  0.00000000000E+00 0. -1.
          3    1    6    6  503    0  0.19111741462E+02  0.10436676354E+02 -0.18024747110E+02  0.28267903768E+02  0.00000000000E+00 0. -1.
         -3    1    6    6    0  503  0.11754883932E+03  0.10722739495E+03 -0.67838299165E+03  0.69679188228E+03  0.00000000000E+00 0.  1.
<mgrwt>
<rscale>  0 0.14563718E+04</rscale>
<asrwt>0</asrwt>
<pdfrwt beam="1">  1        2 0.31577968E+00 0.14563718E+04</pdfrwt>
<pdfrwt beam="2">  1       -1 0.39744191E-01 0.14563718E+04</pdfrwt>
<totfact> 0.42526234E+01</totfact>
</mgrwt>
</event>
<event>
12    7  0.1741211E-007  0.2000644E+04  0.7818608E-02  0.8606320E-01
         -1   -1    0    0    0  501 -0.00000000000E+00  0.00000000000E+00  0.89571115605E+03  0.89571115605E+03  0.00000000000E+00 0.  1.
          2   -1    0    0  501    0  0.00000000000E+00 -0.00000000000E+00 -0.11171501935E+04  0.11171501935E+04  0.00000000000E+00 0. -1.
         24    2    1    2    0    0 -0.25425042028E+03 -0.69063273139E+03  0.21222177848E+03  0.77011666906E+03  0.80154568312E+02 0.  0.
        254    2    1    2    0    0  0.25425042028E+03  0.69063273139E+03 -0.43366081592E+03  0.12427446805E+04  0.90262716096E+03 0.  0.
         23    2    4    4    0    0  0.49378622251E+03  0.59661446316E+03 -0.63744734877E+02  0.78221209203E+03  0.89547275241E+02 0.  0.
         23    2    4    4    0    0 -0.23953580223E+03  0.94018268225E+02 -0.36991608105E+03  0.46053258844E+03  0.95055366459E+02 0.  0.
          2    1    3    3  502    0 -0.16855129869E+02 -0.13381283608E+03  0.33467664262E+02  0.13896062411E+03  0.00000000000E+00 0. -1.
         -1    1    3    3    0  502 -0.23739529041E+03 -0.55681989531E+03  0.17875411422E+03  0.63115604495E+03  0.00000000000E+00 0.  1.
         13    1    5    5    0    0  0.46725109114E+03  0.57540090421E+03 -0.43132862537E+02  0.74247574140E+03  0.00000000000E+00 0. -1.
        -13    1    5    5    0    0  0.26535131370E+02  0.21213558953E+02 -0.20611872340E+02  0.39736350633E+02  0.00000000000E+00 0.  1.
          4    1    6    6  503    0 -0.73453158748E+02 -0.92091470257E+01 -0.14267037331E+03  0.16073272953E+03  0.00000000000E+00 0. -1.
         -4    1    6    6    0  503 -0.16608264348E+03  0.10322741525E+03 -0.22724570773E+03  0.29979985892E+03  0.00000000000E+00 0.  1.
<mgrwt>
<rscale>  0 0.20006438E+04</rscale>
<asrwt>0</asrwt>
<pdfrwt beam="1">  1        2 0.17186926E+00 0.20006438E+04</pdfrwt>
<pdfrwt beam="2">  1       -1 0.13780172E+00 0.20006438E+04</pdfrwt>
<totfact> 0.98411165E+00</totfact>
</mgrwt>
</event>
<event>
12    7  0.1741211E-007  0.1736460E+04  0.7818608E-02  0.8740839E-01
         -1   -1    0    0    0  501 -0.00000000000E+00  0.00000000000E+00  0.27008537034E+03  0.27008537034E+03  0.00000000000E+00 0.  1.
          2   -1    0    0  501    0  0.00000000000E+00 -0.00000000000E+00 -0.27910559473E+04  0.27910559473E+04  0.00000000000E+00 0. -1.
         24    2    1    2    0    0  0.63596130163E+03 -0.70510845003E+02 -0.96431106589E+03  0.11600893601E+04  0.80578750952E+02 0.  0.
        254    2    1    2    0    0 -0.63596130163E+03  0.70510845003E+02 -0.15566595111E+04  0.19010519576E+04  0.88396332254E+03 0.  0.
         23    2    4    4    0    0 -0.45356587456E+03 -0.36819960726E+03 -0.10172345529E+04  0.11765909166E+04  0.91143272700E+02 0.  0.
         23    2    4    4    0    0 -0.18239542706E+03  0.43871045227E+03 -0.53942495824E+03  0.72446104099E+03  0.90164081580E+02 0.  0.
          4    1    3    3  502    0  0.37649455248E+03 -0.45681766134E+02 -0.64102787110E+03  0.74481655683E+03  0.00000000000E+00 0. -1.
         -3    1    3    3    0  502  0.25946674915E+03 -0.24829078870E+02 -0.32328319480E+03  0.41527280324E+03  0.00000000000E+00 0.  1.
         13    1    5    5    0    0 -0.40329911970E+03 -0.28706923441E+03 -0.82941045463E+03  0.96590922325E+03  0.00000000000E+00 0. -1.
        -13    1    5    5    0    0 -0.50266754860E+02 -0.81130372851E+02 -0.18782409823E+03  0.21068169337E+03  0.00000000000E+00 0.  1.
          1    1    6    6  503    0 -0.38362980344E+02  0.17983894741E+03 -0.24961174405E+03  0.31003191454E+03  0.00000000000E+00 0. -1.
         -1    1    6    6    0  503 -0.14403244672E+03  0.25887150486E+03 -0.28981321419E+03  0.41442912645E+03  0.00000000000E+00 0.  1.
<mgrwt>
<rscale>  0 0.17364601E+04</rscale>
<asrwt>0</asrwt>
<pdfrwt beam="1">  1        2 0.42939324E+00 0.17364601E+04</pdfrwt>
<pdfrwt beam="2">  1       -1 0.41551594E-01 0.17364601E+04</pdfrwt>
<totfact> 0.14408818E+01</totfact>
</mgrwt>
</event>
<event>
12    7  0.1741211E-007  0.1462399E+04  0.7818608E-02  0.8909850E-01
          2   -1    0    0  501    0  0.00000000000E+00  0.00000000000E+00  0.17739764353E+04  0.17739764353E+04  0.00000000000E+00 0. -1.
         -1   -1    0    0    0  501 -0.00000000000E+00 -0.00000000000E+00 -0.30138652832E+03  0.30138652832E+03  0.00000000000E+00 0.  1.
         24    2    1    2    0    0 -0.42217137933E+03  0.60411127583E+02  0.27115719385E+03  0.51157578680E+03  0.79406448134E+02 0.  0.
        254    2    1    2    0    0  0.42217137933E+03 -0.60411127583E+02  0.12014327132E+04  0.15637871769E+04  0.90560012830E+03 0.  0.
         23    2    4    4    0    0 -0.16174163104E+03  0.95198471051E+02  0.81258264155E+03  0.83907546684E+03  0.92379573536E+02 0.  0.
         23    2    4    4    0    0  0.58391301037E+03 -0.15560959863E+03  0.38885007161E+03  0.72471171001E+03  0.93989007698E+02 0.  0.
          4    1    3    3  502    0 -0.23160172500E+03  0.17686037447E+02  0.18998888385E+03  0.30007987425E+03  0.00000000000E+00 0. -1.
         -3    1    3    3    0  502 -0.19056965433E+03  0.42725090135E+02  0.81168310004E+02  0.21149591256E+03  0.00000000000E+00 0.  1.
         13    1    5    5    0    0 -0.90195551096E+02  0.28771150471E+02  0.56610323158E+03  0.57396505586E+03  0.00000000000E+00 0. -1.
        -13    1    5    5    0    0 -0.71546079946E+02  0.66427320580E+02  0.24647940997E+03  0.26511041098E+03  0.00000000000E+00 0.  1.
          2    1    6    6  503    0  0.19048668347E+03 -0.58863109085E+01  0.11802869656E+03  0.22416645255E+03  0.00000000000E+00 0. -1.
         -2    1    6    6    0  503  0.39342632690E+03 -0.14972328773E+03  0.27082137505E+03  0.50054525747E+03  0.00000000000E+00 0.  1.
<mgrwt>
<rscale>  0 0.14623989E+04</rscale>
<asrwt>0</asrwt>
<pdfrwt beam="1">  1        2 0.27291945E+00 0.14623989E+04</pdfrwt>
<pdfrwt beam="2">  1       -1 0.46367159E-01 0.14623989E+04</pdfrwt>
<totfact> 0.45591347E+01</totfact>
</mgrwt>
</event>
<event>
12    7  0.1741211E-007  0.2648083E+04  0.7818608E-02  0.8352049E-01
         -3   -1    0    0    0  501 -0.00000000000E+00  0.00000000000E+00  0.84333651924E+03  0.84333651924E+03  0.00000000000E+00 0.  1.
          2   -1    0    0  501    0  0.00000000000E+00 -0.00000000000E+00 -0.20787506352E+04  0.20787506352E+04  0.00000000000E+00 0. -1.
         24    2    1    2    0    0  0.10616814781E+04  0.10483981223E+00 -0.86464968698E+01  0.10644717454E+04  0.76536024456E+02 0.  0.
        254    2    1    2    0    0 -0.10616814781E+04 -0.10483981223E+00 -0.12267676191E+04  0.18576154090E+04  0.90476994012E+03 0.  0.
         23    2    4    4    0    0 -0.20487596018E+03  0.30366433788E+03 -0.72229615062E+03  0.81410804446E+03  0.82909527087E+02 0.  0.
         23    2    4    4    0    0 -0.85680551791E+03 -0.30376917769E+03 -0.50447146845E+03  0.10435073645E+04  0.89580960571E+02 0.  0.
          2    1    3    3  502    0  0.60103455821E+03  0.70656495033E+01 -0.42174271572E+02  0.60255384220E+03  0.00000000000E+00 0. -1.
         -1    1    3    3    0  502  0.46064691988E+03 -0.69608096910E+01  0.33527774702E+02  0.46191790325E+03  0.00000000000E+00 0.  1.
         13    1    5    5    0    0 -0.96908764226E+02  0.21203514966E+03 -0.42256143118E+03  0.48260581885E+03  0.00000000000E+00 0.  1.
        -13    1    5    5    0    0 -0.10796719595E+03  0.91629188221E+02 -0.29973471945E+03  0.33150222560E+03  0.00000000000E+00 0. -1.
          3    1    6    6  503    0 -0.82004857024E+03 -0.30897089174E+03 -0.48522717716E+03  0.10016926090E+04  0.00000000000E+00 0. -1.
         -3    1    6    6    0  503 -0.36756947662E+02  0.52017140522E+01 -0.19244291291E+02  0.41814755503E+02  0.00000000000E+00 0.  1.
<mgrwt>
<rscale>  0 0.26480833E+04</rscale>
<asrwt>0</asrwt>
<pdfrwt beam="1">  1        2 0.31980779E+00 0.26480833E+04</pdfrwt>
<pdfrwt beam="2">  1       -3 0.12974408E+00 0.26480833E+04</pdfrwt>
<totfact> 0.15785416E+00</totfact>
</mgrwt>
</event>
<event>
12    7  0.1741211E-007  0.1664905E+04  0.7818608E-02  0.8781638E-01
         -1   -1    0    0    0  501 -0.00000000000E+00  0.00000000000E+00  0.34960451708E+03  0.34960451708E+03  0.00000000000E+00 0.  1.
          2   -1    0    0  501    0  0.00000000000E+00 -0.00000000000E+00 -0.19821736864E+04  0.19821736864E+04  0.00000000000E+00 0. -1.
         24    2    1    2    0    0  0.35330171603E+03  0.97897487760E+02 -0.11875795828E+04  0.12454149153E+04  0.79416782010E+02 0.  0.
        254    2    1    2    0    0 -0.35330171603E+03 -0.97897487760E+02 -0.44498958656E+03  0.10863632882E+04  0.92074070240E+03 0.  0.
         23    2    4    4    0    0 -0.41395215488E+03 -0.44308019242E+02  0.17090574768E+03  0.45888519244E+03  0.89706511173E+02 0.  0.
         23    2    4    4    0    0  0.60650438852E+02 -0.53589468518E+02 -0.61589533424E+03  0.62747809572E+03  0.88608075259E+02 0.  0.
          4    1    3    3  502    0  0.24721621450E+03  0.29717836530E+02 -0.78289781216E+03  0.82154001169E+03  0.00000000000E+00 0. -1.
         -1    1    3    3    0  502  0.10608550153E+03  0.68179651230E+02 -0.40468177061E+03  0.42387490364E+03  0.00000000000E+00 0.  1.
         13    1    5    5    0    0 -0.11013763423E+03 -0.48698206641E+02  0.30842089021E+02  0.12431029024E+03  0.00000000000E+00 0. -1.
        -13    1    5    5    0    0 -0.30381452065E+03  0.43901873985E+01  0.14006365866E+03  0.33457490220E+03  0.00000000000E+00 0.  1.
          1    1    6    6  503    0  0.19455250167E+02  0.24435546939E+02 -0.13618078928E+03  0.13971689262E+03  0.00000000000E+00 0. -1.
         -1    1    6    6    0  503  0.41195188685E+02 -0.78025015457E+02 -0.47971454496E+03  0.48776120310E+03  0.00000000000E+00 0.  1.
<mgrwt>
<rscale>  0 0.16649047E+04</rscale>
<asrwt>0</asrwt>
<pdfrwt beam="1">  1        2 0.30494980E+00 0.16649047E+04</pdfrwt>
<pdfrwt beam="2">  1       -1 0.53785309E-01 0.16649047E+04</pdfrwt>
<totfact> 0.25921649E+01</totfact>
</mgrwt>
</event>
<event>
12    7  0.1741211E-007  0.1571450E+04  0.7818608E-02  0.8838282E-01
          2   -1    0    0  501    0  0.00000000000E+00  0.00000000000E+00  0.74713978809E+03  0.74713978809E+03  0.00000000000E+00 0. -1.
         -1   -1    0    0    0  501 -0.00000000000E+00 -0.00000000000E+00 -0.82630300900E+03  0.82630300900E+03  0.00000000000E+00 0.  1.
         24    2    1    2    0    0  0.40700139766E+03  0.32297869376E+03 -0.31798447743E+02  0.52947959200E+03  0.96809724443E+02 0.  0.
        254    2    1    2    0    0 -0.40700139766E+03 -0.32297869376E+03 -0.47364773168E+02  0.10439632051E+04  0.90424022115E+03 0.  0.
         23    2    4    4    0    0  0.26284733591E+02  0.24871971638E+03  0.13494683845E+03  0.29866710294E+03  0.91864055191E+02 0.  0.
         23    2    4    4    0    0 -0.43328613125E+03 -0.57169841013E+03 -0.18231161162E+03  0.74529610216E+03  0.87480354839E+02 0.  0.
          2    1    3    3  502    0  0.24763574119E+03  0.23142180854E+03 -0.57877886450E+02  0.34384497018E+03  0.00000000000E+00 0. -1.
         -1    1    3    3    0  502  0.15936565647E+03  0.91556885223E+02  0.26079438707E+02  0.18563462181E+03  0.00000000000E+00 0.  1.
         13    1    5    5    0    0 -0.19668572548E+02  0.34303437686E+02  0.49422095461E+02  0.63293934171E+02  0.00000000000E+00 0. -1.
        -13    1    5    5    0    0  0.45953306139E+02  0.21441627869E+03  0.85524742990E+02  0.23537316877E+03  0.00000000000E+00 0.  1.
          4    1    6    6  503    0 -0.27384086400E+02 -0.38309753898E+02  0.96743365918E+01  0.48074090945E+02  0.00000000000E+00 0. -1.
         -4    1    6    6    0  503 -0.40590204485E+03 -0.53338865624E+03 -0.19198594821E+03  0.69722201121E+03  0.00000000000E+00 0.  1.
<mgrwt>
<rscale>  0 0.15714501E+04</rscale>
<asrwt>0</asrwt>
<pdfrwt beam="1">  1        2 0.11494458E+00 0.15714501E+04</pdfrwt>
<pdfrwt beam="2">  1       -1 0.12712354E+00 0.15714501E+04</pdfrwt>
<totfact> 0.22194977E+01</totfact>
</mgrwt>
</event>
<event>
12    7  0.1741211E-007  0.4278864E+04  0.7818608E-02  0.7950538E-01
          2   -1    0    0  501    0  0.00000000000E+00  0.00000000000E+00  0.30166369710E+04  0.30166369710E+04  0.00000000000E+00 0. -1.
         -1   -1    0    0    0  501 -0.00000000000E+00 -0.00000000000E+00 -0.15173086421E+04  0.15173086421E+04  0.00000000000E+00 0.  1.
         24    2    1    2    0    0 -0.10676498104E+04  0.63961396249E+03 -0.10011729625E+04  0.15993080463E+04  0.80354137969E+02 0.  0.
        254    2    1    2    0    0  0.10676498104E+04 -0.63961396249E+03  0.25005012913E+04  0.29346375669E+04  0.90033816017E+03 0.  0.
         23    2    4    4    0    0  0.87336439837E+03 -0.19062674258E+03  0.21370132914E+04  0.23181516178E+04  0.88866124970E+02 0.  0.
         23    2    4    4    0    0  0.19428541199E+03 -0.44898721991E+03  0.36348799993E+03  0.61648594912E+03  0.92709516298E+02 0.  0.
          2    1    3    3  502    0 -0.22864020486E+03  0.10375055621E+03 -0.22114218612E+03  0.33458091349E+03  0.00000000000E+00 0. -1.
         -3    1    3    3    0  502 -0.83900960551E+03  0.53586340628E+03 -0.78003077633E+03  0.12647271328E+04  0.00000000000E+00 0.  1.
         13    1    5    5    0    0  0.25880436075E+03 -0.44742588984E+02  0.53134197268E+03  0.59271062783E+03  0.00000000000E+00 0. -1.
        -13    1    5    5    0    0  0.61456003762E+03 -0.14588415360E+03  0.16056713187E+04  0.17254409900E+04  0.00000000000E+00 0.  1.
          3    1    6    6  503    0  0.11169240789E+03 -0.14653071657E+03  0.14189276807E+03  0.23255107506E+03  0.00000000000E+00 0. -1.
         -3    1    6    6    0  503  0.82593004102E+02 -0.30245650333E+03  0.22159523186E+03  0.38393487406E+03  0.00000000000E+00 0.  1.
<mgrwt>
<rscale>  0 0.42788640E+04</rscale>
<asrwt>0</asrwt>
<pdfrwt beam="1">  1        2 0.46409799E+00 0.42788640E+04</pdfrwt>
<pdfrwt beam="2">  1       -1 0.23343210E+00 0.42788640E+04</pdfrwt>
<totfact> 0.13331541E-01</totfact>
</mgrwt>
</event>
<event>
12    7  0.1741211E-007  0.1767833E+04  0.7818608E-02  0.8723595E-01
          2   -1    0    0  501    0  0.00000000000E+00  0.00000000000E+00  0.76302925012E+03  0.76302925012E+03  0.00000000000E+00 0. -1.
         -1   -1    0    0    0  501 -0.00000000000E+00 -0.00000000000E+00 -0.10239559460E+04  0.10239559460E+04  0.00000000000E+00 0.  1.
         24    2    1    2    0    0  0.46523280132E+03 -0.18124814974E+02 -0.56437594277E+03  0.73608306100E+03  0.80796036822E+02 0.  0.
        254    2    1    2    0    0 -0.46523280132E+03  0.18124814974E+02  0.30344924685E+03  0.10509021352E+04  0.89193261177E+03 0.  0.
         23    2    4    4    0    0 -0.59737401818E+03  0.93396841819E+02  0.49728520032E+03  0.78851718357E+03  0.94276670855E+02 0.  0.
         23    2    4    4    0    0  0.13214121686E+03 -0.75272026846E+02 -0.19383595347E+03  0.26238495160E+03  0.90256893091E+02 0.  0.
          4    1    3    3  502    0  0.32413551273E+03 -0.17916158695E+01 -0.44501882402E+03  0.55055317112E+03  0.00000000000E+00 0. -1.
         -1    1    3    3    0  502  0.14109728859E+03 -0.16333199104E+02 -0.11935711875E+03  0.18552988988E+03  0.00000000000E+00 0.  1.
         13    1    5    5    0    0 -0.12701918927E+03  0.44960295646E+02  0.73115606514E+02  0.15330099329E+03  0.00000000000E+00 0.  1.
        -13    1    5    5    0    0 -0.47035482891E+03  0.48436546173E+02  0.42416959380E+03  0.63521619028E+03  0.00000000000E+00 0. -1.
          1    1    6    6  503    0  0.11057765637E+03 -0.33810784609E+02 -0.17946692755E+03  0.21349230743E+03  0.00000000000E+00 0. -1.
         -1    1    6    6    0  503  0.21563560483E+02 -0.41461242236E+02 -0.14369025918E+02  0.48892644174E+02  0.00000000000E+00 0.  1.
<mgrwt>
<rscale>  0 0.17678330E+04</rscale>
<asrwt>0</asrwt>
<pdfrwt beam="1">  1        2 0.11738912E+00 0.17678330E+04</pdfrwt>
<pdfrwt beam="2">  1       -1 0.15753168E+00 0.17678330E+04</pdfrwt>
<totfact> 0.12091255E+01</totfact>
</mgrwt>
</event>
<event>
12    7  0.1741211E-007  0.2105260E+04  0.7818608E-02  0.8558930E-01
         -1   -1    0    0    0  501 -0.00000000000E+00  0.00000000000E+00  0.56881541333E+03  0.56881541333E+03  0.00000000000E+00 0.  1.
          2   -1    0    0  501    0  0.00000000000E+00 -0.00000000000E+00 -0.19479602444E+04  0.19479602444E+04  0.00000000000E+00 0. -1.
         24    2    1    2    0    0 -0.26699564598E+03  0.58476786702E+03  0.11318231718E+03  0.65729156568E+03  0.77342304892E+02 0.  0.
        254    2    1    2    0    0  0.26699564598E+03 -0.58476786702E+03 -0.14923271483E+04  0.18594840921E+04  0.90410211698E+03 0.  0.
         23    2    4    4    0    0  0.11884479997E+03 -0.56630180888E+03 -0.15641160115E+04  0.16703012208E+04  0.92873276189E+02 0.  0.
         23    2    4    4    0    0  0.14815084601E+03 -0.18466058131E+02  0.71788863219E+02  0.18918287131E+03  0.91361093696E+02 0.  0.
          4    1    3    3  502    0 -0.13449538047E+03  0.20434691684E+03  0.41922048010E+02  0.24820178867E+03  0.00000000000E+00 0. -1.
         -1    1    3    3    0  502 -0.13250026551E+03  0.38042095017E+03  0.71260269169E+02  0.40908977701E+03  0.00000000000E+00 0.  1.
         13    1    5    5    0    0  0.42102600860E+02 -0.12568228056E+03 -0.26399665300E+03  0.29540294082E+03  0.00000000000E+00 0. -1.
        -13    1    5    5    0    0  0.76742199114E+02 -0.44061952832E+03 -0.13001193585E+04  0.13748982800E+04  0.00000000000E+00 0.  1.
          2    1    6    6  503    0 -0.16851032551E+01  0.16591977538E+02  0.21669215430E+02  0.27343887598E+02  0.00000000000E+00 0. -1.
         -2    1    6    6    0  503  0.14983594926E+03 -0.35058035670E+02  0.50119647789E+02  0.16183898372E+03  0.00000000000E+00 0.  1.
<mgrwt>
<rscale>  0 0.21052599E+04</rscale>
<asrwt>0</asrwt>
<pdfrwt beam="1">  1        2 0.29968620E+00 0.21052599E+04</pdfrwt>
<pdfrwt beam="2">  1       -1 0.87510062E-01 0.21052599E+04</pdfrwt>
<totfact> 0.96223318E+00</totfact>
</mgrwt>
</event>
<event>
12    7  0.1741211E-007  0.1770819E+04  0.7818608E-02  0.8721973E-01
         -1   -1    0    0    0  501 -0.00000000000E+00  0.00000000000E+00  0.29644660804E+03  0.29644660804E+03  0.00000000000E+00 0.  1.
          2   -1    0    0  501    0  0.00000000000E+00 -0.00000000000E+00 -0.26444906958E+04  0.26444906958E+04  0.00000000000E+00 0. -1.
         24    2    1    2    0    0 -0.79234603923E+02 -0.51481174209E+03 -0.10415257581E+04  0.11672760746E+04  0.80301166034E+02 0.  0.
        254    2    1    2    0    0  0.79234603923E+02  0.51481174209E+03 -0.13065183297E+04  0.17736612292E+04  0.10805437326E+04 0.  0.
         23    2    4    4    0    0 -0.79349686508E+02  0.61612097227E+03 -0.21794294569E+03  0.66524872026E+03  0.95683368540E+02 0.  0.
         23    2    4    4    0    0  0.15858429043E+03 -0.10130923018E+03 -0.10885753840E+04  0.11084125090E+04  0.90384656966E+02 0.  0.
          2    1    3    3  502    0 -0.85401848696E+02 -0.49137379032E+03 -0.95459122872E+03  0.10770265046E+04  0.00000000000E+00 0. -1.
         -1    1    3    3    0  502  0.61672447722E+01 -0.23437951763E+02 -0.86934529403E+02  0.90249570045E+02  0.00000000000E+00 0.  1.
         13    1    5    5    0    0 -0.98683539207E+02  0.56845534681E+03 -0.20392009777E+03  0.61193408837E+03  0.00000000000E+00 0. -1.
        -13    1    5    5    0    0  0.19333852699E+02  0.47665625458E+02 -0.14022847920E+02  0.53314631896E+02  0.00000000000E+00 0.  1.
          4    1    6    6  503    0  0.15150492783E+03 -0.94838148255E+02 -0.10822787563E+04  0.10969390703E+04  0.00000000000E+00 0. -1.
         -4    1    6    6    0  503  0.70793625994E+01 -0.64710819261E+01 -0.62966276438E+01  0.11473438708E+02  0.00000000000E+00 0.  1.
<mgrwt>
<rscale>  0 0.17708194E+04</rscale>
<asrwt>0</asrwt>
<pdfrwt beam="1">  1        2 0.40684473E+00 0.17708194E+04</pdfrwt>
<pdfrwt beam="2">  1       -1 0.45607170E-01 0.17708194E+04</pdfrwt>
<totfact> 0.14770859E+01</totfact>
</mgrwt>
</event>
<event>
12    7  0.1741211E-007  0.3110478E+04  0.7818608E-02  0.8212868E-01
         -1   -1    0    0    0  501 -0.00000000000E+00  0.00000000000E+00  0.11875673353E+04  0.11875673353E+04  0.00000000000E+00 0.  1.
          2   -1    0    0  501    0  0.00000000000E+00 -0.00000000000E+00 -0.20367426647E+04  0.20367426647E+04  0.00000000000E+00 0. -1.
         24    2    1    2    0    0 -0.65409000831E+03  0.58007695589E+03  0.77533834843E+03  0.11711882803E+04  0.78799870204E+02 0.  0.
        254    2    1    2    0    0  0.65409000831E+03 -0.58007695589E+03 -0.16245136778E+04  0.20531217198E+04  0.90107773975E+03 0.  0.
         23    2    4    4    0    0 -0.96219574619E+02 -0.30345027605E+03 -0.12826402625E+03  0.35407696829E+03  0.87054939364E+02 0.  0.
         23    2    4    4    0    0  0.75030958293E+03 -0.27662667984E+03 -0.14962496516E+04  0.16990447515E+04  0.92213109169E+02 0.  0.
          2    1    3    3  502    0 -0.16097765786E+03  0.12254645894E+03  0.14108954203E+03  0.24665299471E+03  0.00000000000E+00 0. -1.
         -1    1    3    3    0  502 -0.49311235045E+03  0.45753049695E+03  0.63424880641E+03  0.92453528555E+03  0.00000000000E+00 0.  1.
         13    1    5    5    0    0 -0.32894876441E+02 -0.22412126799E+03 -0.10629748627E+03  0.25022304300E+03  0.00000000000E+00 0. -1.
        -13    1    5    5    0    0 -0.63324698178E+02 -0.79329008067E+02 -0.21966539985E+02  0.10385392529E+03  0.00000000000E+00 0.  1.
          3    1    6    6  503    0  0.53764910172E+03 -0.15574508185E+03 -0.10712065761E+04  0.12086383312E+04  0.00000000000E+00 0. -1.
         -3    1    6    6    0  503  0.21266048121E+03 -0.12088159799E+03 -0.42504307549E+03  0.49040642025E+03  0.00000000000E+00 0.  1.
<mgrwt>
<rscale>  0 0.31104785E+04</rscale>
<asrwt>0</asrwt>
<pdfrwt beam="1">  1        2 0.31334502E+00 0.31104785E+04</pdfrwt>
<pdfrwt beam="2">  1       -1 0.18270267E+00 0.31104785E+04</pdfrwt>
<totfact> 0.12239743E+00</totfact>
</mgrwt>
</event>
<event>
12    7  0.1741211E-007  0.4648790E+04  0.7818608E-02  0.7885094E-01
         -1   -1    0    0    0  501 -0.00000000000E+00  0.00000000000E+00  0.25651227584E+04  0.25651227584E+04  0.00000000000E+00 0.  1.
          2   -1    0    0  501    0  0.00000000000E+00 -0.00000000000E+00 -0.21062586998E+04  0.21062586998E+04  0.00000000000E+00 0. -1.
         24    2    1    2    0    0 -0.54082036763E+03 -0.88041351098E+03  0.22139660259E+04  0.24445250794E+04  0.80266302029E+02 0.  0.
        254    2    1    2    0    0  0.54082036763E+03  0.88041351098E+03 -0.17551019674E+04  0.22268563789E+04  0.90049530586E+03 0.  0.
         23    2    4    4    0    0  0.30877763475E+03  0.71263897612E+03 -0.17616720353E+04  0.19274946310E+04  0.92462177425E+02 0.  0.
         23    2    4    4    0    0  0.23204273288E+03  0.16777453486E+03  0.65700679706E+01  0.29936174791E+03  0.87075633164E+02 0.  0.
          2    1    3    3  502    0 -0.15945257215E+03 -0.20087882752E+03  0.58661925394E+03  0.64023400035E+03  0.00000000000E+00 0. -1.
         -1    1    3    3    0  502 -0.38136779548E+03 -0.67953468346E+03  0.16273467720E+04  0.18042910790E+04  0.00000000000E+00 0.  1.
         13    1    5    5    0    0  0.17589230677E+03  0.46044290169E+03 -0.12096088399E+04  0.13061773673E+04  0.00000000000E+00 0. -1.
        -13    1    5    5    0    0  0.13288532798E+03  0.25219607443E+03 -0.55206319547E+03  0.62131726367E+03  0.00000000000E+00 0.  1.
          2    1    6    6  503    0  0.10443190224E+03  0.51496533166E+02  0.40761510188E+02  0.12336699658E+03  0.00000000000E+00 0. -1.
         -2    1    6    6    0  503  0.12761083064E+03  0.11627800169E+03 -0.34191442218E+02  0.17599475133E+03  0.00000000000E+00 0.  1.
<mgrwt>
<rscale>  0 0.46487900E+04</rscale>
<asrwt>0</asrwt>
<pdfrwt beam="1">  1        2 0.32403980E+00 0.46487900E+04</pdfrwt>
<pdfrwt beam="2">  1       -1 0.39463427E+00 0.46487900E+04</pdfrwt>
<totfact> 0.38661218E-02</totfact>
</mgrwt>
</event>
<event>
12    7  0.1741211E-007  0.1897185E+04  0.7818608E-02  0.8656259E-01
          2   -1    0    0  501    0  0.00000000000E+00  0.00000000000E+00  0.34542091815E+04  0.34542091815E+04  0.00000000000E+00 0. -1.
         -1   -1    0    0    0  501 -0.00000000000E+00 -0.00000000000E+00 -0.26050175187E+03  0.26050175187E+03  0.00000000000E+00 0.  1.
         24    2    1    2    0    0  0.95663510329E+02  0.72193028473E+03  0.14077772401E+04  0.15877079965E+04  0.92978929170E+02 0.  0.
        254    2    1    2    0    0 -0.95663510329E+02 -0.72193028473E+03  0.17859301896E+04  0.21270029369E+04  0.89680544619E+03 0.  0.
         23    2    4    4    0    0  0.28315283861E+03 -0.70526171707E+03  0.12232589232E+04  0.14425115546E+04  0.83111807781E+02 0.  0.
         23    2    4    4    0    0 -0.37881634894E+03 -0.16668567659E+02  0.56267126643E+03  0.68449138227E+03  0.90276414215E+02 0.  0.
          2    1    3    3  502    0  0.40310167157E+02  0.29082796825E+03  0.66835060350E+03  0.72999886705E+03  0.00000000000E+00 0. -1.
         -1    1    3    3    0  502  0.55353343172E+02  0.43110231648E+03  0.73942663657E+03  0.85770912945E+03  0.00000000000E+00 0.  1.
         13    1    5    5    0    0  0.13477134555E+03 -0.43035480075E+03  0.68340276779E+03  0.81878441187E+03  0.00000000000E+00 0. -1.
        -13    1    5    5    0    0  0.14838149307E+03 -0.27490691632E+03  0.53985615538E+03  0.62372714277E+03  0.00000000000E+00 0.  1.
          1    1    6    6  503    0 -0.13585559420E+03  0.83939337986E+01  0.27701078307E+03  0.30864571038E+03  0.00000000000E+00 0. -1.
         -1    1    6    6    0  503 -0.24296075474E+03 -0.25062501457E+02  0.28566048336E+03  0.37584567189E+03  0.00000000000E+00 0.  1.
<mgrwt>
<rscale>  0 0.18971848E+04</rscale>
<asrwt>0</asrwt>
<pdfrwt beam="1">  1        2 0.53141676E+00 0.18971848E+04</pdfrwt>
<pdfrwt beam="2">  1       -1 0.40077195E-01 0.18971848E+04</pdfrwt>
<totfact> 0.56994526E+00</totfact>
</mgrwt>
</event>
<event>
12    7  0.1741211E-007  0.1576670E+04  0.7818608E-02  0.8835010E-01
          4   -1    0    0  501    0  0.00000000000E+00  0.00000000000E+00  0.43023589894E+03  0.43023589894E+03  0.00000000000E+00 0. -1.
         -3   -1    0    0    0  501 -0.00000000000E+00 -0.00000000000E+00 -0.14444911436E+04  0.14444911436E+04  0.00000000000E+00 0.  1.
         24    2    1    2    0    0  0.39781998619E+03 -0.35306210344E+03 -0.40278511928E+03  0.67182479091E+03  0.78734408410E+02 0.  0.
        254    2    1    2    0    0 -0.39781998619E+03  0.35306210344E+03 -0.61147012540E+03  0.12029022517E+04  0.88891198803E+03 0.  0.
         23    2    4    4    0    0 -0.58750053248E+03 -0.23500740661E+01 -0.21982962008E+03  0.63366774889E+03  0.89707054387E+02 0.  0.
         23    2    4    4    0    0  0.18968054629E+03  0.35541217751E+03 -0.39164050532E+03  0.56923450276E+03  0.91373454370E+02 0.  0.
          2    1    3    3  502    0  0.30766098615E+03 -0.28449119055E+03 -0.27576326064E+03  0.50163322839E+03  0.00000000000E+00 0. -1.
         -1    1    3    3    0  502  0.90159000043E+02 -0.68570912894E+02 -0.12702185864E+03  0.17019156253E+03  0.00000000000E+00 0.  1.
         13    1    5    5    0    0 -0.31093127527E+02 -0.10801317297E+02 -0.33155636184E+02  0.46719880624E+02  0.00000000000E+00 0. -1.
        -13    1    5    5    0    0 -0.55640740495E+03  0.84512432312E+01 -0.18667398390E+03  0.58694786827E+03  0.00000000000E+00 0.  1.
          3    1    6    6  503    0  0.64455595402E+02  0.21669608809E+03 -0.20713734451E+03  0.30662289194E+03  0.00000000000E+00 0. -1.
         -3    1    6    6    0  503  0.12522495088E+03  0.13871608942E+03 -0.18450316081E+03  0.26261161082E+03  0.00000000000E+00 0.  1.
<mgrwt>
<rscale>  0 0.15766698E+04</rscale>
<asrwt>0</asrwt>
<pdfrwt beam="1">  1        4 0.66190139E-01 0.15766698E+04</pdfrwt>
<pdfrwt beam="2">  1       -3 0.22222941E+00 0.15766698E+04</pdfrwt>
<totfact> 0.49767163E-01</totfact>
</mgrwt>
</event>
<event>
12    7  0.1741211E-007  0.1999384E+04  0.7818608E-02  0.8606909E-01
          2   -1    0    0  501    0  0.00000000000E+00  0.00000000000E+00  0.11553531484E+04  0.11553531484E+04  0.00000000000E+00 0. -1.
         -1   -1    0    0    0  501 -0.00000000000E+00 -0.00000000000E+00 -0.86500352203E+03  0.86500352203E+03  0.00000000000E+00 0.  1.
         24    2    1    2    0    0  0.12569150057E+03 -0.37253527439E+03 -0.58170140398E+03  0.70665679646E+03  0.80040118717E+02 0.  0.
        254    2    1    2    0    0 -0.12569150057E+03  0.37253527439E+03  0.87205103031E+03  0.13136998739E+04  0.90041850009E+03 0.  0.
         23    2    4    4    0    0  0.35040620899E+03  0.24887048694E+03  0.59920905984E+03  0.74315358807E+03  0.92221079463E+02 0.  0.
         23    2    4    4    0    0 -0.47609770956E+03  0.12366478745E+03  0.27284197047E+03  0.57054628586E+03  0.95489867257E+02 0.  0.
          2    1    3    3  502    0  0.46985553283E+02 -0.10227729329E+03 -0.11017467937E+03  0.15750157750E+03  0.00000000000E+00 0. -1.
         -1    1    3    3    0  502  0.78705947290E+02 -0.27025798110E+03 -0.47152672461E+03  0.54915521896E+03  0.00000000000E+00 0.  1.
         13    1    5    5    0    0  0.31195853221E+03  0.20341521725E+03  0.46077490384E+03  0.59246045306E+03  0.00000000000E+00 0. -1.
        -13    1    5    5    0    0  0.38447676777E+02  0.45455269696E+02  0.13843415600E+03  0.15069313501E+03  0.00000000000E+00 0.  1.
          3    1    6    6  503    0 -0.45410192188E+03  0.13764724386E+03  0.25264595809E+03  0.53757352923E+03  0.00000000000E+00 0. -1.
         -3    1    6    6    0  503 -0.21995787682E+02 -0.13982456408E+02  0.20196012387E+02  0.32972756623E+02  0.00000000000E+00 0.  1.
<mgrwt>
<rscale>  0 0.19993844E+04</rscale>
<asrwt>0</asrwt>
<pdfrwt beam="1">  1        2 0.17774664E+00 0.19993844E+04</pdfrwt>
<pdfrwt beam="2">  1       -1 0.13307746E+00 0.19993844E+04</pdfrwt>
<totfact> 0.10202890E+01</totfact>
</mgrwt>
</event>
<event>
12    7  0.1741211E-007  0.1847371E+04  0.7818608E-02  0.8681506E-01
          2   -1    0    0  501    0  0.00000000000E+00  0.00000000000E+00  0.36730976114E+04  0.36730976114E+04  0.00000000000E+00 0. -1.
         -1   -1    0    0    0  501 -0.00000000000E+00 -0.00000000000E+00 -0.23228215713E+03  0.23228215713E+03  0.00000000000E+00 0.  1.
         24    2    1    2    0    0  0.52120998759E+03  0.34886021661E+03  0.20106430511E+04  0.21072745061E+04  0.67506024095E+02 0.  0.
        254    2    1    2    0    0 -0.52120998759E+03 -0.34886021661E+03  0.14301724032E+04  0.17981052625E+04  0.89130585665E+03 0.  0.
         23    2    4    4    0    0 -0.45355601879E+03  0.16676754803E+03  0.37582486199E+03  0.61875815654E+03  0.89960280893E+02 0.  0.
         23    2    4    4    0    0 -0.67653968795E+02 -0.51562776464E+03  0.10543475412E+04  0.11793471059E+04  0.93604526576E+02 0.  0.
          2    1    3    3  502    0  0.51816716052E+03  0.34547249984E+03  0.20071166176E+04  0.21015150656E+04  0.00000000000E+00 0. -1.
         -1    1    3    3    0  502  0.30428270648E+01  0.33877167758E+01  0.35264334825E+01  0.57594404768E+01  0.00000000000E+00 0.  1.
         13    1    5    5    0    0 -0.10083455939E+03  0.28828488300E+02  0.38927376326E+02  0.11186612862E+03  0.00000000000E+00 0. -1.
        -13    1    5    5    0    0 -0.35272145940E+03  0.13793905973E+03  0.33689748566E+03  0.50689202792E+03  0.00000000000E+00 0.  1.
          3    1    6    6  503    0  0.10065729412E+02 -0.39714575433E+01  0.19230594964E+02  0.22065973042E+02  0.00000000000E+00 0. -1.
         -3    1    6    6    0  503 -0.77719698207E+02 -0.51165630710E+03  0.10351169463E+04  0.11572811329E+04  0.00000000000E+00 0.  1.
<mgrwt>
<rscale>  0 0.18473711E+04</rscale>
<asrwt>0</asrwt>
<pdfrwt beam="1">  1        2 0.56509190E+00 0.18473711E+04</pdfrwt>
<pdfrwt beam="2">  1       -1 0.35735719E-01 0.18473711E+04</pdfrwt>
<totfact> 0.49354055E+00</totfact>
</mgrwt>
</event>
<event>
12    7  0.1741211E-007  0.1484819E+04  0.7818608E-02  0.8894612E-01
          2   -1    0    0  501    0  0.00000000000E+00  0.00000000000E+00  0.27723652004E+04  0.27723652004E+04  0.00000000000E+00 0. -1.
         -1   -1    0    0    0  501 -0.00000000000E+00 -0.00000000000E+00 -0.19880915172E+03  0.19880915172E+03  0.00000000000E+00 0.  1.
         24    2    1    2    0    0 -0.30154497089E+02 -0.30638389450E+03  0.14958425269E+04  0.15291439576E+04  0.77175081971E+02 0.  0.
        254    2    1    2    0    0  0.30154497089E+02  0.30638389450E+03  0.10777135218E+04  0.14420303945E+04  0.90730636457E+03 0.  0.
         23    2    4    4    0    0  0.21586148766E+03 -0.25749657037E+03  0.31152347314E+03  0.46841556443E+03  0.97291320669E+02 0.  0.
         23    2    4    4    0    0 -0.18570699057E+03  0.56388046486E+03  0.76619004867E+03  0.97361483012E+03  0.91817110270E+02 0.  0.
          2    1    3    3  502    0 -0.42992208928E+02 -0.14015426565E+03  0.57937001265E+03  0.59762961754E+03  0.00000000000E+00 0. -1.
         -1    1    3    3    0  502  0.12837711839E+02 -0.16622962885E+03  0.91647251426E+03  0.93151434007E+03  0.00000000000E+00 0.  1.
         13    1    5    5    0    0  0.15191543699E+03 -0.11228929677E+03  0.14281327856E+03  0.23681811311E+03  0.00000000000E+00 0. -1.
        -13    1    5    5    0    0  0.63946050668E+02 -0.14520727359E+03  0.16871019458E+03  0.23159745132E+03  0.00000000000E+00 0.  1.
          2    1    6    6  503    0 -0.13558079257E+03  0.27814846913E+03  0.36462102554E+03  0.47822297567E+03  0.00000000000E+00 0. -1.
         -2    1    6    6    0  503 -0.50126197993E+02  0.28573199574E+03  0.40156902313E+03  0.49539185445E+03  0.00000000000E+00 0.  1.
<mgrwt>
<rscale>  0 0.14848186E+04</rscale>
<asrwt>0</asrwt>
<pdfrwt beam="1">  1        2 0.42651769E+00 0.14848186E+04</pdfrwt>
<pdfrwt beam="2">  1       -1 0.30586025E-01 0.14848186E+04</pdfrwt>
<totfact> 0.26242069E+01</totfact>
</mgrwt>
</event>
<event>
12    7  0.1741211E-007  0.1383404E+04  0.7818608E-02  0.8965920E-01
         -3   -1    0    0    0  501 -0.00000000000E+00  0.00000000000E+00  0.43892813606E+03  0.43892813606E+03  0.00000000000E+00 0.  1.
          4   -1    0    0  501    0  0.00000000000E+00 -0.00000000000E+00 -0.10900458936E+04  0.10900458936E+04  0.00000000000E+00 0. -1.
         24    2    1    2    0    0  0.41730315763E+03  0.12082757387E+03 -0.28255393935E+03  0.52439121613E+03  0.80051176968E+02 0.  0.
        254    2    1    2    0    0 -0.41730315763E+03 -0.12082757387E+03 -0.36856381817E+03  0.10045828135E+04  0.82740927789E+03 0.  0.
         23    2    4    4    0    0 -0.56871880748E+03 -0.27067931357E+03 -0.42524903391E+03  0.76536431613E+03  0.90760248890E+02 0.  0.
         23    2    4    4    0    0  0.15141564985E+03  0.14985173970E+03  0.56685215742E+02  0.23921849738E+03  0.92897970341E+02 0.  0.
          2    1    3    3  502    0  0.26389034804E+03  0.80694477908E+02 -0.13265801311E+03  0.30618272811E+03  0.00000000000E+00 0. -1.
         -1    1    3    3    0  502  0.15341280960E+03  0.40133095963E+02 -0.14989592624E+03  0.21820848802E+03  0.00000000000E+00 0.  1.
         13    1    5    5    0    0 -0.10247028045E+03 -0.89389375210E+02 -0.97016970222E+02  0.16704164536E+03  0.00000000000E+00 0. -1.
        -13    1    5    5    0    0 -0.46624852704E+03 -0.18128993836E+03 -0.32823206369E+03  0.59832267076E+03  0.00000000000E+00 0.  1.
          4    1    6    6  503    0  0.69413323502E+02  0.11593805464E+02  0.58175178697E+01  0.70614936939E+02  0.00000000000E+00 0. -1.
         -4    1    6    6    0  503  0.82002326344E+02  0.13825793424E+03  0.50867697872E+02  0.16860356044E+03  0.00000000000E+00 0.  1.
<mgrwt>
<rscale>  0 0.13834042E+04</rscale>
<asrwt>0</asrwt>
<pdfrwt beam="1">  1        4 0.16769937E+00 0.13834042E+04</pdfrwt>
<pdfrwt beam="2">  1       -3 0.67527405E-01 0.13834042E+04</pdfrwt>
<totfact> 0.10322065E+00</totfact>
</mgrwt>
</event>
<event>
12    7  0.1741211E-007  0.1693404E+04  0.7818608E-02  0.8765135E-01
         -3   -1    0    0    0  501 -0.00000000000E+00  0.00000000000E+00  0.97477534707E+03  0.97477534707E+03  0.00000000000E+00 0.  1.
          2   -1    0    0  501    0  0.00000000000E+00 -0.00000000000E+00 -0.73545601150E+03  0.73545601150E+03  0.00000000000E+00 0. -1.
         24    2    1    2    0    0  0.10888908737E+03 -0.45528299811E+03 -0.30420680645E+03  0.56401922106E+03  0.80227544681E+02 0.  0.
        254    2    1    2    0    0 -0.10888908737E+03  0.45528299811E+03  0.54352614201E+03  0.11462121375E+04  0.89400344261E+03 0.  0.
         23    2    4    4    0    0 -0.23867587977E+03  0.51498012818E+03  0.70678803057E+03  0.91103583601E+03  0.90919009730E+02 0.  0.
         23    2    4    4    0    0  0.12978679240E+03 -0.59697130073E+02 -0.16326188856E+03  0.23517630150E+03  0.90802476363E+02 0.  0.
          2    1    3    3  502    0  0.92887794896E+02 -0.29226385527E+03 -0.23426261702E+03  0.38590837938E+03  0.00000000000E+00 0. -1.
         -1    1    3    3    0  502  0.16001292473E+02 -0.16301914284E+03 -0.69944189424E+02  0.17811084169E+03  0.00000000000E+00 0.  1.
         13    1    5    5    0    0 -0.24500293530E+03  0.50848981901E+03  0.70203745009E+03  0.90080237326E+03  0.00000000000E+00 0.  1.
        -13    1    5    5    0    0  0.63270555349E+01  0.64903091743E+01  0.47505804762E+01  0.10233462746E+02  0.00000000000E+00 0. -1.
          4    1    6    6  503    0  0.91788351129E+02 -0.45307069897E+02 -0.16537334754E+03  0.19448952687E+03  0.00000000000E+00 0. -1.
         -4    1    6    6    0  503  0.37998441269E+02 -0.14390060176E+02  0.21114589868E+01  0.40686774630E+02  0.00000000000E+00 0.  1.
<mgrwt>
<rscale>  0 0.16934041E+04</rscale>
<asrwt>0</asrwt>
<pdfrwt beam="1">  1        2 0.11314708E+00 0.16934041E+04</pdfrwt>
<pdfrwt beam="2">  1       -3 0.14996544E+00 0.16934041E+04</pdfrwt>
<totfact> 0.74408706E+00</totfact>
</mgrwt>
</event>
<event>
12    7  0.1741211E-007  0.2840693E+04  0.7818608E-02  0.8290745E-01
          2   -1    0    0  501    0  0.00000000000E+00  0.00000000000E+00  0.11483625932E+04  0.11483625932E+04  0.00000000000E+00 0. -1.
         -1   -1    0    0    0  501 -0.00000000000E+00 -0.00000000000E+00 -0.17567489636E+04  0.17567489636E+04  0.00000000000E+00 0.  1.
         24    2    1    2    0    0 -0.14051861022E+03  0.12699452274E+04 -0.32427098829E+03  0.13213062777E+04  0.90511022720E+02 0.  0.
        254    2    1    2    0    0  0.14051861022E+03 -0.12699452274E+04 -0.28411538221E+03  0.15838052791E+04  0.89174618098E+03 0.  0.
         23    2    4    4    0    0 -0.46348488047E+02 -0.88533274874E+03 -0.57101539063E+03  0.10586938949E+04  0.93871872048E+02 0.  0.
         23    2    4    4    0    0  0.18686709827E+03 -0.38461247866E+03  0.28690000842E+03  0.52511138423E+03  0.10287992937E+03 0.  0.
          2    1    3    3  502    0 -0.13655470529E+03  0.12104393038E+04 -0.28868567157E+03  0.12518585833E+04  0.00000000000E+00 0. -1.
         -1    1    3    3    0  502 -0.39639049282E+01  0.59505923603E+02 -0.35585316717E+02  0.69447694361E+02  0.00000000000E+00 0.  1.
         13    1    5    5    0    0  0.21878303625E+02 -0.22661183393E+03 -0.11898086056E+03  0.25688135126E+03  0.00000000000E+00 0.  1.
        -13    1    5    5    0    0 -0.68226791672E+02 -0.65872091481E+03 -0.45203453007E+03  0.80181254361E+03  0.00000000000E+00 0. -1.
          3    1    6    6  503    0  0.10305955300E+03 -0.13894605729E+03  0.69149951861E+02  0.18630350008E+03  0.00000000000E+00 0. -1.
         -3    1    6    6    0  503  0.83807545265E+02 -0.24566642137E+03  0.21775005655E+03  0.33880788415E+03  0.00000000000E+00 0.  1.
<mgrwt>
<rscale>  0 0.28406934E+04</rscale>
<asrwt>0</asrwt>
<pdfrwt beam="1">  1        2 0.17667117E+00 0.28406934E+04</pdfrwt>
<pdfrwt beam="2">  1       -1 0.27026907E+00 0.28406934E+04</pdfrwt>
<totfact> 0.10348099E+00</totfact>
</mgrwt>
</event>
<event>
12    7  0.1741211E-007  0.1140423E+04  0.7818608E-02  0.9166664E-01
         -1   -1    0    0    0  501 -0.00000000000E+00  0.00000000000E+00  0.21302912503E+03  0.21302912503E+03  0.00000000000E+00 0.  1.
          2   -1    0    0  501    0  0.00000000000E+00 -0.00000000000E+00 -0.15262765671E+04  0.15262765671E+04  0.00000000000E+00 0. -1.
         24    2    1    2    0    0  0.19359427488E+03  0.43281663686E+02 -0.19018557301E+03  0.28649587540E+03  0.80977087891E+02 0.  0.
        254    2    1    2    0    0 -0.19359427488E+03 -0.43281663686E+02 -0.11230618691E+04  0.14528098168E+04  0.90002019765E+03 0.  0.
         23    2    4    4    0    0 -0.36836376871E+03  0.12219731508E+03 -0.11827195763E+03  0.41565456050E+03  0.90312832936E+02 0.  0.
         23    2    4    4    0    0  0.17476949383E+03 -0.16547897877E+03 -0.10047899115E+04  0.10371552563E+04  0.90335989589E+02 0.  0.
          4    1    3    3  502    0  0.10330120635E+03  0.40754029676E+02 -0.15243558531E+03  0.18859649476E+03  0.00000000000E+00 0. -1.
         -3    1    3    3    0  502  0.90293068528E+02  0.25276340099E+01 -0.37749987701E+02  0.97899380638E+02  0.00000000000E+00 0.  1.
         13    1    5    5    0    0 -0.16584112001E+03  0.98569423570E+02 -0.76420720836E+02  0.20750743342E+03  0.00000000000E+00 0. -1.
        -13    1    5    5    0    0 -0.20252264869E+03  0.23627891510E+02 -0.41851236791E+02  0.20814712708E+03  0.00000000000E+00 0.  1.
          4    1    6    6  503    0  0.17604067220E+03 -0.17271742369E+03 -0.93495041201E+03  0.96693014207E+03  0.00000000000E+00 0. -1.
         -4    1    6    6    0  503 -0.12711783733E+01  0.72384449224E+01 -0.69839499463E+02  0.70225114201E+02  0.00000000000E+00 0.  1.
<mgrwt>
<rscale>  0 0.11404234E+04</rscale>
<asrwt>0</asrwt>
<pdfrwt beam="1">  1        2 0.23481179E+00 0.11404234E+04</pdfrwt>
<pdfrwt beam="2">  1       -1 0.32773710E-01 0.11404234E+04</pdfrwt>
<totfact> 0.12074442E+02</totfact>
</mgrwt>
</event>
<event>
12    7  0.1741211E-007  0.2211423E+04  0.7818608E-02  0.8513689E-01
          2   -1    0    0  501    0  0.00000000000E+00  0.00000000000E+00  0.97734651492E+03  0.97734651492E+03  0.00000000000E+00 0. -1.
         -1   -1    0    0    0  501 -0.00000000000E+00 -0.00000000000E+00 -0.12509357286E+04  0.12509357286E+04  0.00000000000E+00 0.  1.
         24    2    1    2    0    0 -0.63136977348E+03  0.58024878023E+03  0.21332201206E+03  0.88711531091E+03  0.78427394417E+02 0.  0.
        254    2    1    2    0    0  0.63136977348E+03 -0.58024878023E+03 -0.48691122577E+03  0.13411669326E+04  0.90902682116E+03 0.  0.
         23    2    4    4    0    0 -0.76393182229E+02 -0.70354367049E+02 -0.44170739900E+03  0.46287355847E+03  0.91437681195E+02 0.  0.
         23    2    4    4    0    0  0.70776295571E+03 -0.50989441318E+03 -0.45203826765E+02  0.87829337417E+03  0.91843078599E+02 0.  0.
          4    1    3    3  502    0 -0.63055492656E+03  0.57061914837E+03  0.21531194416E+03  0.87724851735E+03  0.00000000000E+00 0. -1.
         -3    1    3    3    0  502 -0.81484691592E+00  0.96296318583E+01 -0.19899321044E+01  0.98667935523E+01  0.00000000000E+00 0.  1.
         13    1    5    5    0    0 -0.63498238271E+02 -0.76969863242E+02 -0.43604129850E+03  0.44731241891E+03  0.00000000000E+00 0. -1.
        -13    1    5    5    0    0 -0.12894943958E+02  0.66154961936E+01 -0.56661005028E+01  0.15561139562E+02  0.00000000000E+00 0.  1.
          1    1    6    6  503    0  0.58807638748E+03 -0.44451840115E+03 -0.66874969820E+02  0.74020450422E+03  0.00000000000E+00 0. -1.
         -1    1    6    6    0  503  0.11968656823E+03 -0.65376012030E+02  0.21671143054E+02  0.13808886995E+03  0.00000000000E+00 0.  1.
<mgrwt>
<rscale>  0 0.22114228E+04</rscale>
<asrwt>0</asrwt>
<pdfrwt beam="1">  1        2 0.15036100E+00 0.22114228E+04</pdfrwt>
<pdfrwt beam="2">  1       -1 0.19245165E+00 0.22114228E+04</pdfrwt>
<totfact> 0.46083234E+00</totfact>
</mgrwt>
</event>
<event>
12    7  0.1741211E-007  0.1543685E+04  0.7818608E-02  0.8855912E-01
          2   -1    0    0  501    0  0.00000000000E+00  0.00000000000E+00  0.76129633650E+03  0.76129633650E+03  0.00000000000E+00 0. -1.
         -3   -1    0    0    0  501 -0.00000000000E+00 -0.00000000000E+00 -0.78253475530E+03  0.78253475530E+03  0.00000000000E+00 0.  1.
         24    2    1    2    0    0  0.16664418070E+03  0.66344525649E+02  0.46328582510E+03  0.50299667073E+03  0.78740180199E+02 0.  0.
        254    2    1    2    0    0 -0.16664418070E+03 -0.66344525649E+02 -0.48452424390E+03  0.10408344211E+04  0.90354893067E+03 0.  0.
         23    2    4    4    0    0  0.12420218704E+03 -0.15487306022E+03 -0.64807266754E+03  0.68557091778E+03  0.10294393058E+03 0.  0.
         23    2    4    4    0    0 -0.29084636774E+03  0.88528534573E+02  0.16354842364E+03  0.35526350329E+03  0.83875853684E+02 0.  0.
          2    1    3    3  502    0  0.21346932732E+02 -0.79930636962E+01  0.12897399283E+03  0.13097278889E+03  0.00000000000E+00 0. -1.
         -1    1    3    3    0  502  0.14529724797E+03  0.74337589345E+02  0.33431183227E+03  0.37202388183E+03  0.00000000000E+00 0.  1.
         13    1    5    5    0    0  0.48143603762E+01 -0.63926933150E+02 -0.11375896943E+03  0.13057922489E+03  0.00000000000E+00 0. -1.
        -13    1    5    5    0    0  0.11938782666E+03 -0.90946127072E+02 -0.53431369811E+03  0.55499169289E+03  0.00000000000E+00 0.  1.
          1    1    6    6  503    0  0.56013752453E+01  0.42866959362E+01  0.21516029310E+01  0.73743177217E+01  0.00000000000E+00 0. -1.
         -1    1    6    6    0  503 -0.29644774299E+03  0.84241838637E+02  0.16139682071E+03  0.34788918557E+03  0.00000000000E+00 0.  1.
<mgrwt>
<rscale>  0 0.15436850E+04</rscale>
<asrwt>0</asrwt>
<pdfrwt beam="1">  1        2 0.11712251E+00 0.15436850E+04</pdfrwt>
<pdfrwt beam="2">  1       -3 0.12038996E+00 0.15436850E+04</pdfrwt>
<totfact> 0.12540691E+01</totfact>
</mgrwt>
</event>
<event>
12    7  0.1741211E-007  0.1374456E+04  0.7818608E-02  0.8972519E-01
         -1   -1    0    0    0  501 -0.00000000000E+00  0.00000000000E+00  0.26442215528E+03  0.26442215528E+03  0.00000000000E+00 0.  1.
          2   -1    0    0  501    0  0.00000000000E+00 -0.00000000000E+00 -0.17860912941E+04  0.17860912941E+04  0.00000000000E+00 0. -1.
         24    2    1    2    0    0  0.26485993006E+03 -0.23080096112E+03 -0.16785952346E+03  0.39756405242E+03  0.80377173111E+02 0.  0.
        254    2    1    2    0    0 -0.26485993006E+03  0.23080096112E+03 -0.13538096154E+04  0.16529493970E+04  0.88092075017E+03 0.  0.
         23    2    4    4    0    0  0.31236045269E+03  0.22737339550E+02 -0.41798379084E+03  0.52996529863E+03  0.89814972819E+02 0.  0.
         23    2    4    4    0    0 -0.57722038274E+03  0.20806362157E+03 -0.93582582457E+03  0.11229840984E+04  0.94071623650E+02 0.  0.
          4    1    3    3  502    0  0.26524296157E+03 -0.20668569847E+03 -0.15596599069E+03  0.37067262762E+03  0.00000000000E+00 0. -1.
         -3    1    3    3    0  502 -0.38303151866E+00 -0.24115262653E+02 -0.11893532777E+02  0.26891424802E+02  0.00000000000E+00 0.  1.
         13    1    5    5    0    0  0.22118455402E+03 -0.57952193048E+01 -0.23030076050E+03  0.31936598409E+03  0.00000000000E+00 0. -1.
        -13    1    5    5    0    0  0.91175898664E+02  0.28532558855E+02 -0.18768303033E+03  0.21059931454E+03  0.00000000000E+00 0.  1.
          1    1    6    6  503    0 -0.52485596445E+03  0.16413118338E+03 -0.86105026323E+03  0.10216752833E+04  0.00000000000E+00 0. -1.
         -1    1    6    6    0  503 -0.52364418288E+02  0.43932438190E+02 -0.74775561335E+02  0.10130881502E+03  0.00000000000E+00 0.  1.
<mgrwt>
<rscale>  0 0.13744557E+04</rscale>
<asrwt>0</asrwt>
<pdfrwt beam="1">  1        2 0.27478328E+00 0.13744557E+04</pdfrwt>
<pdfrwt beam="2">  1       -1 0.40680331E-01 0.13744557E+04</pdfrwt>
<totfact> 0.57622166E+01</totfact>
</mgrwt>
</event>
<event>
12    7  0.1741211E-007  0.2163979E+04  0.7818608E-02  0.8533572E-01
         -1   -1    0    0    0  501 -0.00000000000E+00  0.00000000000E+00  0.10740231402E+04  0.10740231402E+04  0.00000000000E+00 0.  1.
          2   -1    0    0  501    0  0.00000000000E+00 -0.00000000000E+00 -0.10900152034E+04  0.10900152034E+04  0.00000000000E+00 0. -1.
         24    2    1    2    0    0 -0.69751254933E+03 -0.55959945339E+03 -0.52392496699E+02  0.89940307445E+03  0.80657373623E+02 0.  0.
        254    2    1    2    0    0  0.69751254933E+03  0.55959945339E+03  0.36400433513E+02  0.12646352692E+04  0.89347751392E+03 0.  0.
         23    2    4    4    0    0  0.68882116757E+03  0.25462054551E+03 -0.30327301457E+03  0.79963187707E+03  0.90168699490E+02 0.  0.
         23    2    4    4    0    0  0.86913817518E+01  0.30497890788E+03  0.33967344808E+03  0.46500339215E+03  0.88104648060E+02 0.  0.
          4    1    3    3  502    0 -0.93937552825E+02 -0.79848126631E+02 -0.35127191327E+02  0.12819479992E+03  0.00000000000E+00 0. -1.
         -3    1    3    3    0  502 -0.60357499650E+03 -0.47975132676E+03 -0.17265305372E+02  0.77120827452E+03  0.00000000000E+00 0.  1.
         13    1    5    5    0    0  0.61694000960E+03  0.21533884390E+03 -0.29611639363E+03  0.71740554202E+03  0.00000000000E+00 0.  1.
        -13    1    5    5    0    0  0.71881157971E+02  0.39281701615E+02 -0.71566209350E+01  0.82226335053E+02  0.00000000000E+00 0. -1.
          4    1    6    6  503    0  0.39976883204E+02  0.11509933248E+03  0.99951210423E+02  0.15759521564E+03  0.00000000000E+00 0. -1.
         -4    1    6    6    0  503 -0.31285501452E+02  0.18987957539E+03  0.23972223766E+03  0.30740817650E+03  0.00000000000E+00 0.  1.
<mgrwt>
<rscale>  0 0.21639793E+04</rscale>
<asrwt>0</asrwt>
<pdfrwt beam="1">  1        2 0.16769465E+00 0.21639793E+04</pdfrwt>
<pdfrwt beam="2">  1       -1 0.16523433E+00 0.21639793E+04</pdfrwt>
<totfact> 0.61660341E+00</totfact>
</mgrwt>
</event>
<event>
12    7  0.1741211E-007  0.2144105E+04  0.7818608E-02  0.8542060E-01
          2   -1    0    0  501    0  0.00000000000E+00  0.00000000000E+00  0.20823607381E+04  0.20823607381E+04  0.00000000000E+00 0. -1.
         -1   -1    0    0    0  501 -0.00000000000E+00 -0.00000000000E+00 -0.55192005762E+03  0.55192005762E+03  0.00000000000E+00 0.  1.
         24    2    1    2    0    0  0.47952834158E+03 -0.10365905577E+03 -0.27019182839E+03  0.56447629589E+03  0.70265455732E+02 0.  0.
        254    2    1    2    0    0 -0.47952834158E+03  0.10365905577E+03  0.18006325088E+04  0.20698044998E+04  0.89505340917E+03 0.  0.
         23    2    4    4    0    0 -0.92130175642E+02  0.29750632840E+02  0.16189762645E+04  0.16244903527E+04  0.92258828841E+02 0.  0.
         23    2    4    4    0    0 -0.38739816594E+03  0.73908422926E+02  0.18165624430E+03  0.44531414709E+03  0.98822591295E+02 0.  0.
          4    1    3    3  502    0  0.26417187001E+03 -0.85017449265E+02 -0.17646941404E+03  0.32887109584E+03  0.00000000000E+00 0. -1.
         -3    1    3    3    0  502  0.21535647157E+03 -0.18641606501E+02 -0.93722414346E+02  0.23560520005E+03  0.00000000000E+00 0.  1.
         13    1    5    5    0    0 -0.10604799937E+03  0.10312310662E+02  0.14379837292E+04  0.14419257011E+04  0.00000000000E+00 0.  1.
        -13    1    5    5    0    0  0.13917823724E+02  0.19438322178E+02  0.18099253530E+03  0.18256465162E+03  0.00000000000E+00 0. -1.
          1    1    6    6  503    0 -0.99951605456E+02  0.40345728438E+02  0.86245677183E+01  0.10813179183E+03  0.00000000000E+00 0. -1.
         -1    1    6    6    0  503 -0.28744656048E+03  0.33562694488E+02  0.17303167658E+03  0.33718235526E+03  0.00000000000E+00 0.  1.
<mgrwt>
<rscale>  0 0.21441051E+04</rscale>
<asrwt>0</asrwt>
<pdfrwt beam="1">  1        2 0.32036319E+00 0.21441051E+04</pdfrwt>
<pdfrwt beam="2">  1       -1 0.84910779E-01 0.21441051E+04</pdfrwt>
<totfact> 0.86202133E+00</totfact>
</mgrwt>
</event>
<event>
12    7  0.1741211E-007  0.2176351E+04  0.7818608E-02  0.8528336E-01
         -1   -1    0    0    0  501 -0.00000000000E+00  0.00000000000E+00  0.99143383207E+03  0.99143383207E+03  0.00000000000E+00 0.  1.
          2   -1    0    0  501    0  0.00000000000E+00 -0.00000000000E+00 -0.11943568357E+04  0.11943568357E+04  0.00000000000E+00 0. -1.
         24    2    1    2    0    0 -0.61928101747E+03 -0.12492031273E+03 -0.72952524233E+03  0.96883457439E+03  0.85552850312E+02 0.  0.
        254    2    1    2    0    0  0.61928101747E+03  0.12492031273E+03  0.52660223875E+03  0.12169560933E+04  0.89697165625E+03 0.  0.
         23    2    4    4    0    0  0.25474050388E+03  0.13702979429E+03 -0.22454738130E+03  0.37723838526E+03  0.90649787774E+02 0.  0.
         23    2    4    4    0    0  0.36454051359E+03 -0.12109481566E+02  0.75114962006E+03  0.83971770807E+03  0.88677234690E+02 0.  0.
          4    1    3    3  502    0 -0.20710788106E+03 -0.13615198003E+02 -0.19555346813E+03  0.28516698075E+03  0.00000000000E+00 0. -1.
         -3    1    3    3    0  502 -0.41217313641E+03 -0.11130511472E+03 -0.53397177420E+03  0.68366759363E+03  0.00000000000E+00 0.  1.
         13    1    5    5    0    0  0.13089829858E+03  0.22890332337E+02 -0.11972269499E+03  0.17886267241E+03  0.00000000000E+00 0.  1.
        -13    1    5    5    0    0  0.12384220530E+03  0.11413946195E+03 -0.10482468632E+03  0.19837571285E+03  0.00000000000E+00 0. -1.
          1    1    6    6  503    0  0.15095805596E+03 -0.48745250011E+02  0.31207696500E+03  0.35008065662E+03  0.00000000000E+00 0. -1.
         -1    1    6    6    0  503  0.21358245763E+03  0.36635768445E+02  0.43907265506E+03  0.48963705145E+03  0.00000000000E+00 0.  1.
<mgrwt>
<rscale>  0 0.21763509E+04</rscale>
<asrwt>0</asrwt>
<pdfrwt beam="1">  1        2 0.18374720E+00 0.21763509E+04</pdfrwt>
<pdfrwt beam="2">  1       -1 0.15252828E+00 0.21763509E+04</pdfrwt>
<totfact> 0.66459230E+00</totfact>
</mgrwt>
</event>
<event>
12    7  0.1741211E-007  0.1621725E+04  0.7818608E-02  0.8807312E-01
          2   -1    0    0  501    0  0.00000000000E+00  0.00000000000E+00  0.47576788157E+03  0.47576788157E+03  0.00000000000E+00 0. -1.
         -1   -1    0    0    0  501 -0.00000000000E+00 -0.00000000000E+00 -0.13819717153E+04  0.13819717153E+04  0.00000000000E+00 0.  1.
         24    2    1    2    0    0 -0.33416179277E+03 -0.54427358514E+02  0.18365399316E+03  0.39293337346E+03  0.77726479895E+02 0.  0.
        254    2    1    2    0    0  0.33416179277E+03  0.54427358514E+02 -0.10898578268E+04  0.14648062234E+04  0.91828141011E+03 0.  0.
         23    2    4    4    0    0  0.55881044327E+03  0.23783242804E+03 -0.46645354227E+03  0.77119234902E+03  0.91243392957E+02 0.  0.
         23    2    4    4    0    0 -0.22464865051E+03 -0.18340506953E+03 -0.62340428458E+03  0.69361387434E+03  0.91448723001E+02 0.  0.
          2    1    3    3  502    0 -0.27094716988E+03 -0.38352777243E+02  0.18012819624E+03  0.32761176943E+03  0.00000000000E+00 0. -1.
         -1    1    3    3    0  502 -0.63214622891E+02 -0.16074581271E+02  0.35257969260E+01  0.65321604039E+02  0.00000000000E+00 0.  1.
         13    1    5    5    0    0  0.39385677630E+03  0.16687888884E+03 -0.37882887947E+03  0.57138694744E+03  0.00000000000E+00 0.  1.
        -13    1    5    5    0    0  0.16495366697E+03  0.70953539201E+02 -0.87624662792E+02  0.19980540158E+03  0.00000000000E+00 0. -1.
          1    1    6    6  503    0 -0.18215674698E+03 -0.15835998023E+03 -0.57880747463E+03  0.62711805627E+03  0.00000000000E+00 0. -1.
         -1    1    6    6    0  503 -0.42491903523E+02 -0.25045089303E+02 -0.44596809950E+02  0.66495818071E+02  0.00000000000E+00 0.  1.
<mgrwt>
<rscale>  0 0.16217247E+04</rscale>
<asrwt>0</asrwt>
<pdfrwt beam="1">  1        2 0.73195060E-01 0.16217247E+04</pdfrwt>
<pdfrwt beam="2">  1       -1 0.21261103E+00 0.16217247E+04</pdfrwt>
<totfact> 0.88103921E+00</totfact>
</mgrwt>
</event>
<event>
12    7  0.1741211E-007  0.1583080E+04  0.7818608E-02  0.8831011E-01
          2   -1    0    0  501    0  0.00000000000E+00  0.00000000000E+00  0.20728153135E+04  0.20728153135E+04  0.00000000000E+00 0. -1.
         -1   -1    0    0    0  501 -0.00000000000E+00 -0.00000000000E+00 -0.30226309361E+03  0.30226309361E+03  0.00000000000E+00 0.  1.
         24    2    1    2    0    0  0.22999898002E+03 -0.26275146783E+02  0.13175212636E+04  0.13401434305E+04  0.80822151114E+02 0.  0.
        254    2    1    2    0    0 -0.22999898002E+03  0.26275146783E+02  0.45303095626E+03  0.10349349766E+04  0.90125659181E+03 0.  0.
         23    2    4    4    0    0  0.12179921123E+03 -0.36491166047E+03  0.18522648488E+03  0.43669593071E+03  0.91645607602E+02 0.  0.
         23    2    4    4    0    0 -0.35179819125E+03  0.39118680726E+03  0.26780447138E+03  0.59823904587E+03  0.96858843543E+02 0.  0.
          2    1    3    3  502    0  0.91929995085E+02 -0.38513025640E+02  0.71312021031E+03  0.72005195055E+03  0.00000000000E+00 0. -1.
         -1    1    3    3    0  502  0.13806898494E+03  0.12237878856E+02  0.60440105328E+03  0.62009147994E+03  0.00000000000E+00 0.  1.
         13    1    5    5    0    0  0.13410228806E+03 -0.30154031010E+03  0.14374056948E+03  0.35996018334E+03  0.00000000000E+00 0. -1.
        -13    1    5    5    0    0 -0.12303076829E+02 -0.63371350378E+02  0.41485915397E+02  0.76735747370E+02  0.00000000000E+00 0.  1.
          2    1    6    6  503    0 -0.28240968281E+03  0.29862430785E+03  0.16304456142E+03  0.44217104744E+03  0.00000000000E+00 0. -1.
         -2    1    6    6    0  503 -0.69388508442E+02  0.92562499406E+02  0.10475990995E+03  0.15606799843E+03  0.00000000000E+00 0.  1.
<mgrwt>
<rscale>  0 0.15830800E+04</rscale>
<asrwt>0</asrwt>
<pdfrwt beam="1">  1        2 0.31889465E+00 0.15830800E+04</pdfrwt>
<pdfrwt beam="2">  1       -1 0.46502016E-01 0.15830800E+04</pdfrwt>
<totfact> 0.30657521E+01</totfact>
</mgrwt>
</event>
<event>
12    7  0.1741211E-007  0.2443473E+04  0.7818608E-02  0.8423405E-01
          2   -1    0    0  501    0  0.00000000000E+00  0.00000000000E+00  0.31050392549E+04  0.31050392549E+04  0.00000000000E+00 0. -1.
         -1   -1    0    0    0  501 -0.00000000000E+00 -0.00000000000E+00 -0.48071550274E+03  0.48071550274E+03  0.00000000000E+00 0.  1.
         24    2    1    2    0    0 -0.50844069439E+03 -0.15561637462E+03 -0.20060001808E+03  0.57452370630E+03  0.84313261636E+02 0.  0.
        254    2    1    2    0    0  0.50844069439E+03  0.15561637462E+03  0.28249237702E+04  0.30112310513E+04  0.89698926478E+03 0.  0.
         23    2    4    4    0    0  0.14360332236E+03  0.49886483206E+03  0.12727889309E+04  0.13776174975E+04  0.91379821207E+02 0.  0.
         23    2    4    4    0    0  0.36483737203E+03 -0.34324845745E+03  0.15521348393E+04  0.16336135538E+04  0.92977806387E+02 0.  0.
          2    1    3    3  502    0 -0.51367802112E+02  0.83952459680E+01 -0.10903618727E+02  0.53179132656E+02  0.00000000000E+00 0. -1.
         -1    1    3    3    0  502 -0.45707289228E+03 -0.16401162058E+03 -0.18969639935E+03  0.52134457365E+03  0.00000000000E+00 0.  1.
         13    1    5    5    0    0  0.25958914297E+02  0.24962454158E+03  0.57603483172E+03  0.62833303617E+03  0.00000000000E+00 0. -1.
        -13    1    5    5    0    0  0.11764440806E+03  0.24924029048E+03  0.69675409922E+03  0.74928446129E+03  0.00000000000E+00 0.  1.
          2    1    6    6  503    0  0.20316825756E+03 -0.14521618282E+03  0.87063021992E+03  0.90573840621E+03  0.00000000000E+00 0. -1.
         -2    1    6    6    0  503  0.16166911448E+03 -0.19803227463E+03  0.68150461933E+03  0.72787514763E+03  0.00000000000E+00 0.  1.
<mgrwt>
<rscale>  0 0.24434734E+04</rscale>
<asrwt>0</asrwt>
<pdfrwt beam="1">  1        2 0.47769833E+00 0.24434734E+04</pdfrwt>
<pdfrwt beam="2">  1       -1 0.73956233E-01 0.24434734E+04</pdfrwt>
<totfact> 0.28040763E+00</totfact>
</mgrwt>
</event>
<event>
12    7  0.1741211E-007  0.1352330E+04  0.7818608E-02  0.8989066E-01
         -1   -1    0    0    0  501 -0.00000000000E+00  0.00000000000E+00  0.10603980725E+04  0.10603980725E+04  0.00000000000E+00 0.  1.
          2   -1    0    0  501    0  0.00000000000E+00 -0.00000000000E+00 -0.43115798176E+03  0.43115798176E+03  0.00000000000E+00 0. -1.
         24    2    1    2    0    0  0.18484188702E+03 -0.14256675674E+03 -0.14899128831E+03  0.28814808725E+03  0.79618545995E+02 0.  0.
        254    2    1    2    0    0 -0.18484188702E+03  0.14256675674E+03  0.77823137903E+03  0.12034079670E+04  0.88772453631E+03 0.  0.
         23    2    4    4    0    0 -0.42058055743E+03  0.10876633491E+03  0.83021436579E+03  0.94136385519E+03  0.90509081361E+02 0.  0.
         23    2    4    4    0    0  0.23573867041E+03  0.33800421829E+02 -0.51982986752E+02  0.26204411180E+03  0.96175341817E+02 0.  0.
          4    1    3    3  502    0  0.17139808340E+03 -0.11465244483E+03 -0.97602727715E+02  0.22814201401E+03  0.00000000000E+00 0. -1.
         -3    1    3    3    0  502  0.13443803620E+02 -0.27914311913E+02 -0.51388560596E+02  0.60006073238E+02  0.00000000000E+00 0.  1.
         13    1    5    5    0    0 -0.38781651379E+02  0.35463496224E+02  0.70253897986E+02  0.87734179374E+02  0.00000000000E+00 0.  1.
        -13    1    5    5    0    0 -0.38179890605E+03  0.73302838690E+02  0.75996046780E+03  0.85362967582E+03  0.00000000000E+00 0. -1.
          1    1    6    6  503    0  0.21357995032E+03  0.46766322675E+02 -0.71237431492E+02  0.22995272505E+03  0.00000000000E+00 0. -1.
         -1    1    6    6    0  503  0.22158720092E+02 -0.12965900846E+02  0.19254444740E+02  0.32091386743E+02  0.00000000000E+00 0.  1.
<mgrwt>
<rscale>  0 0.13523300E+04</rscale>
<asrwt>0</asrwt>
<pdfrwt beam="1">  1        2 0.66331997E-01 0.13523300E+04</pdfrwt>
<pdfrwt beam="2">  1       -1 0.16313816E+00 0.13523300E+04</pdfrwt>
<totfact> 0.22579647E+01</totfact>
</mgrwt>
</event>
<event>
12    7  0.1741211E-007  0.1677130E+04  0.7818608E-02  0.8774517E-01
          2   -1    0    0  501    0  0.00000000000E+00  0.00000000000E+00  0.59762725168E+03  0.59762725168E+03  0.00000000000E+00 0. -1.
         -1   -1    0    0    0  501 -0.00000000000E+00 -0.00000000000E+00 -0.11766381131E+04  0.11766381131E+04  0.00000000000E+00 0.  1.
         24    2    1    2    0    0 -0.14752761237E+03  0.93256872609E+02 -0.80407845020E+03  0.82646239169E+03  0.77696139643E+02 0.  0.
        254    2    1    2    0    0  0.14752761237E+03 -0.93256872609E+02  0.22506758881E+03  0.94780297305E+03  0.90399879175E+03 0.  0.
         23    2    4    4    0    0 -0.22368829664E+03  0.12904681195E+03 -0.19679576498E+03  0.33688538202E+03  0.89853512871E+02 0.  0.
         23    2    4    4    0    0  0.37121590900E+03 -0.22230368456E+03  0.42186335379E+03  0.61091759103E+03  0.89618271018E+02 0.  0.
          4    1    3    3  502    0 -0.33388767159E+02  0.64075749549E+02 -0.26604073713E+03  0.27567768366E+03  0.00000000000E+00 0. -1.
         -3    1    3    3    0  502 -0.11413884521E+03  0.29181123060E+02 -0.53803771307E+03  0.55078470804E+03  0.00000000000E+00 0.  1.
         13    1    5    5    0    0 -0.18615919052E+03  0.13329394124E+03 -0.13902075813E+03  0.26786057974E+03  0.00000000000E+00 0. -1.
        -13    1    5    5    0    0 -0.37529106112E+02 -0.42471292880E+01 -0.57775006850E+02  0.69024802276E+02  0.00000000000E+00 0.  1.
          1    1    6    6  503    0  0.12008343616E+03 -0.82686270269E+02  0.87432905692E+02  0.17000459972E+03  0.00000000000E+00 0. -1.
         -1    1    6    6    0  503  0.25113247285E+03 -0.13961741429E+03  0.33443044810E+03  0.44091299131E+03  0.00000000000E+00 0.  1.
<mgrwt>
<rscale>  0 0.16771297E+04</rscale>
<asrwt>0</asrwt>
<pdfrwt beam="1">  1        2 0.91942655E-01 0.16771297E+04</pdfrwt>
<pdfrwt beam="2">  1       -1 0.18102125E+00 0.16771297E+04</pdfrwt>
<totfact> 0.11104179E+01</totfact>
</mgrwt>
</event>
<event>
12    7  0.1741211E-007  0.1244745E+04  0.7818608E-02  0.9074568E-01
          2   -1    0    0  501    0  0.00000000000E+00  0.00000000000E+00  0.17545786039E+04  0.17545786039E+04  0.00000000000E+00 0. -1.
         -3   -1    0    0    0  501 -0.00000000000E+00 -0.00000000000E+00 -0.22076397246E+03  0.22076397246E+03  0.00000000000E+00 0.  1.
         24    2    1    2    0    0  0.24257714230E+03 -0.14196387390E+03  0.21228389556E+03  0.35870999151E+03  0.67904302059E+02 0.  0.
        254    2    1    2    0    0 -0.24257714230E+03  0.14196387390E+03  0.13215307359E+04  0.16166325849E+04  0.88772744525E+03 0.  0.
         23    2    4    4    0    0 -0.42763769712E+03 -0.10230539894E+03  0.11893049716E+04  0.12713221150E+04  0.92050041067E+02 0.  0.
         23    2    4    4    0    0  0.18506055482E+03  0.24426927285E+03  0.13222576431E+03  0.34531046983E+03  0.88548185876E+02 0.  0.
          2    1    3    3  502    0  0.42256807818E+02  0.22090123016E+01  0.32877843916E+02  0.53586100463E+02  0.00000000000E+00 0. -1.
         -1    1    3    3    0  502  0.20032033448E+03 -0.14417288620E+03  0.17940605164E+03  0.30512389105E+03  0.00000000000E+00 0.  1.
         13    1    5    5    0    0 -0.70609435596E+01  0.95238110944E+01  0.16037009812E+02  0.19943559999E+02  0.00000000000E+00 0. -1.
        -13    1    5    5    0    0 -0.42057675356E+03 -0.11182921004E+03  0.11732679618E+04  0.12513785550E+04  0.00000000000E+00 0.  1.
          1    1    6    6  503    0  0.34920168249E+01  0.22761796901E+01  0.23444495053E+02  0.23812171756E+02  0.00000000000E+00 0. -1.
         -1    1    6    6    0  503  0.18156853799E+03  0.24199309316E+03  0.10878126926E+03  0.32149829808E+03  0.00000000000E+00 0.  1.
<mgrwt>
<rscale>  0 0.12447453E+04</rscale>
<asrwt>0</asrwt>
<pdfrwt beam="1">  1        2 0.26993516E+00 0.12447453E+04</pdfrwt>
<pdfrwt beam="2">  1       -3 0.33963689E-01 0.12447453E+04</pdfrwt>
<totfact> 0.49613826E+01</totfact>
</mgrwt>
</event>
<event>
12    7  0.1741211E-007  0.2336171E+04  0.7818608E-02  0.8463795E-01
         -1   -1    0    0    0  501 -0.00000000000E+00  0.00000000000E+00  0.11473489955E+04  0.11473489955E+04  0.00000000000E+00 0.  1.
          2   -1    0    0  501    0  0.00000000000E+00 -0.00000000000E+00 -0.11891964439E+04  0.11891964439E+04  0.00000000000E+00 0. -1.
         24    2    1    2    0    0 -0.32549025974E+03 -0.56232520804E+03  0.73226856793E+03  0.98237087844E+03  0.81741901415E+02 0.  0.
        254    2    1    2    0    0  0.32549025974E+03  0.56232520804E+03 -0.77411601640E+03  0.13541745610E+04  0.90132102269E+03 0.  0.
         23    2    4    4    0    0  0.10345999058E+03 -0.12794673193E+03 -0.56193761565E+03  0.59253017572E+03  0.90795315913E+02 0.  0.
         23    2    4    4    0    0  0.22203026916E+03  0.69027193998E+03 -0.21217840075E+03  0.76164438525E+03  0.96486808924E+02 0.  0.
          2    1    3    3  502    0  0.34067221039E+01 -0.94209723025E+00  0.12646349940E+01  0.37540117678E+01  0.00000000000E+00 0. -1.
         -1    1    3    3    0  502 -0.32889698185E+03 -0.56138311081E+03  0.73100393294E+03  0.97861686668E+03  0.00000000000E+00 0.  1.
         13    1    5    5    0    0  0.77500996902E+00 -0.69680858947E+02 -0.22130431806E+03  0.23201643032E+03  0.00000000000E+00 0.  1.
        -13    1    5    5    0    0  0.10268498061E+03 -0.58265872986E+02 -0.34063329759E+03  0.36051374541E+03  0.00000000000E+00 0. -1.
          2    1    6    6  503    0  0.10711041008E+03  0.43104392488E+03 -0.91529794456E+02  0.45348562094E+03  0.00000000000E+00 0. -1.
         -2    1    6    6    0  503  0.11491985909E+03  0.25922801510E+03 -0.12064860630E+03  0.30815876432E+03  0.00000000000E+00 0.  1.
<mgrwt>
<rscale>  0 0.23361707E+04</rscale>
<asrwt>0</asrwt>
<pdfrwt beam="1">  1        2 0.18295330E+00 0.23361707E+04</pdfrwt>
<pdfrwt beam="2">  1       -1 0.17651523E+00 0.23361707E+04</pdfrwt>
<totfact> 0.43686345E+00</totfact>
</mgrwt>
</event>
<event>
12    7  0.1741211E-007  0.1179441E+04  0.7818608E-02  0.9131044E-01
          2   -1    0    0  501    0  0.00000000000E+00  0.00000000000E+00  0.17382272884E+04  0.17382272884E+04  0.00000000000E+00 0. -1.
         -1   -1    0    0    0  501 -0.00000000000E+00 -0.00000000000E+00 -0.20007190200E+03  0.20007190200E+03  0.00000000000E+00 0.  1.
         24    2    1    2    0    0 -0.97063019807E+02  0.91530924536E+02  0.13937557963E+01  0.15570075901E+03  0.80259851977E+02 0.  0.
        254    2    1    2    0    0  0.97063019807E+02 -0.91530924536E+02  0.15367616306E+04  0.17825984314E+04  0.89343254830E+03 0.  0.
         23    2    4    4    0    0 -0.33384994485E+03 -0.17814735479E+03  0.38740648340E+03  0.54878249347E+03  0.88804144377E+02 0.  0.
         23    2    4    4    0    0  0.43091296466E+03  0.86616430251E+02  0.11493551472E+04  0.12338159379E+04  0.89978470727E+02 0.  0.
          2    1    3    3  502    0 -0.16359231609E+02  0.27435370382E+02 -0.34077312862E+02  0.46707464700E+02  0.00000000000E+00 0. -1.
         -1    1    3    3    0  502 -0.80703788198E+02  0.64095554154E+02  0.35471068659E+02  0.10899329431E+03  0.00000000000E+00 0.  1.
         13    1    5    5    0    0 -0.62604298446E+02 -0.52253097813E+02  0.13377406582E+03  0.15666903045E+03  0.00000000000E+00 0.  1.
        -13    1    5    5    0    0 -0.27124564640E+03 -0.12589425697E+03  0.25363241758E+03  0.39211346302E+03  0.00000000000E+00 0. -1.
          1    1    6    6  503    0  0.40766392059E+03  0.59785617599E+02  0.10320693757E+04  0.11112746683E+04  0.00000000000E+00 0. -1.
         -1    1    6    6    0  503  0.23249044064E+02  0.26830812651E+02  0.11728577151E+03  0.12254126960E+03  0.00000000000E+00 0.  1.
<mgrwt>
<rscale>  0 0.11794413E+04</rscale>
<asrwt>0</asrwt>
<pdfrwt beam="1">  1        2 0.26741957E+00 0.11794413E+04</pdfrwt>
<pdfrwt beam="2">  1       -1 0.30780294E-01 0.11794413E+04</pdfrwt>
<totfact> 0.10251941E+02</totfact>
</mgrwt>
</event>
<event>
12    7  0.1741211E-007  0.1121418E+04  0.7818608E-02  0.9184564E-01
         -1   -1    0    0    0  501 -0.00000000000E+00  0.00000000000E+00  0.11354392112E+04  0.11354392112E+04  0.00000000000E+00 0.  1.
          2   -1    0    0  501    0  0.00000000000E+00 -0.00000000000E+00 -0.27689259201E+03  0.27689259201E+03  0.00000000000E+00 0. -1.
         24    2    1    2    0    0  0.13224483424E+01 -0.17381264293E+03  0.27446096991E+03  0.33434060735E+03  0.79007809810E+02 0.  0.
        254    2    1    2    0    0 -0.13224483424E+01  0.17381264293E+03  0.58408564933E+03  0.10779911959E+04  0.88921110484E+03 0.  0.
         23    2    4    4    0    0  0.57355107350E+02  0.97082622793E+02  0.80647605299E+03  0.81923966446E+03  0.89640168406E+02 0.  0.
         23    2    4    4    0    0 -0.58677555693E+02  0.76730020138E+02 -0.22239040365E+03  0.25875153144E+03  0.90356581683E+02 0.  0.
          4    1    3    3  502    0  0.16616400441E+02 -0.15787162286E+03  0.19279149055E+03  0.24973608649E+03  0.00000000000E+00 0. -1.
         -3    1    3    3    0  502 -0.15293952098E+02 -0.15941020069E+02  0.81669479354E+02  0.84604520858E+02  0.00000000000E+00 0.  1.
         13    1    5    5    0    0  0.26112924511E+02  0.10785917970E+03  0.61493939787E+03  0.62487274746E+03  0.00000000000E+00 0.  1.
        -13    1    5    5    0    0  0.31242182840E+02 -0.10776556912E+02  0.19153665512E+03  0.19436691699E+03  0.00000000000E+00 0. -1.
          4    1    6    6  503    0 -0.27239974908E+02  0.91868611280E+02 -0.17936341772E+03  0.20335460060E+03  0.00000000000E+00 0. -1.
         -4    1    6    6    0  503 -0.31437580785E+02 -0.15138591143E+02 -0.43026985935E+02  0.55396930836E+02  0.00000000000E+00 0.  1.
<mgrwt>
<rscale>  0 0.11214182E+04</rscale>
<asrwt>0</asrwt>
<pdfrwt beam="1">  1        2 0.42598861E-01 0.11214182E+04</pdfrwt>
<pdfrwt beam="2">  1       -1 0.17468295E+00 0.11214182E+04</pdfrwt>
<totfact> 0.31038834E+01</totfact>
</mgrwt>
</event>
<event>
12    7  0.1741211E-007  0.1188116E+04  0.7818608E-02  0.9123323E-01
          2   -1    0    0  501    0  0.00000000000E+00  0.00000000000E+00  0.84859475958E+03  0.84859475958E+03  0.00000000000E+00 0. -1.
         -1   -1    0    0    0  501 -0.00000000000E+00 -0.00000000000E+00 -0.41586944189E+03  0.41586944189E+03  0.00000000000E+00 0.  1.
         24    2    1    2    0    0  0.16323968423E+03  0.48270909887E+01 -0.91965111443E+02  0.20355754060E+03  0.79420370787E+02 0.  0.
        254    2    1    2    0    0 -0.16323968423E+03 -0.48270909887E+01  0.52469042913E+03  0.10609066609E+04  0.90749787954E+03 0.  0.
         23    2    4    4    0    0 -0.34227703718E+03 -0.10773074240E+03 -0.11091869922E+03  0.38639078789E+03  0.90749105179E+02 0.  0.
         23    2    4    4    0    0  0.17903735295E+03  0.10290365141E+03  0.63560912835E+03  0.67451587299E+03  0.91264251745E+02 0.  0.
          2    1    3    3  502    0  0.85268539587E+02 -0.92012231680E+01 -0.49880551939E+01  0.85908480639E+02  0.00000000000E+00 0. -1.
         -1    1    3    3    0  502  0.77971144643E+02  0.14028314157E+02 -0.86977056250E+02  0.11764905996E+03  0.00000000000E+00 0.  1.
         13    1    5    5    0    0 -0.23965454114E+02 -0.33654384325E+02 -0.25660682637E+02  0.48635698910E+02  0.00000000000E+00 0.  1.
        -13    1    5    5    0    0 -0.31831158307E+03 -0.74076358076E+02 -0.85258016585E+02  0.33775508898E+03  0.00000000000E+00 0. -1.
          1    1    6    6  503    0  0.12710830169E+03  0.28817721205E+02  0.44191097443E+03  0.46073017129E+03  0.00000000000E+00 0. -1.
         -1    1    6    6    0  503  0.51929051261E+02  0.74085930206E+02  0.19369815392E+03  0.21378570170E+03  0.00000000000E+00 0.  1.
<mgrwt>
<rscale>  0 0.11881155E+04</rscale>
<asrwt>0</asrwt>
<pdfrwt beam="1">  1        2 0.13055304E+00 0.11881155E+04</pdfrwt>
<pdfrwt beam="2">  1       -1 0.63979914E-01 0.11881155E+04</pdfrwt>
<totfact> 0.88839920E+01</totfact>
</mgrwt>
</event>
<event>
12    7  0.1741211E-007  0.1245194E+04  0.7818608E-02  0.9074193E-01
          2   -1    0    0  501    0  0.00000000000E+00  0.00000000000E+00  0.13535080954E+04  0.13535080954E+04  0.00000000000E+00 0. -1.
         -1   -1    0    0    0  501 -0.00000000000E+00 -0.00000000000E+00 -0.28638684934E+03  0.28638684934E+03  0.00000000000E+00 0.  1.
         24    2    1    2    0    0  0.71497561134E+02  0.26789761721E+03  0.14086855780E+03  0.32084688757E+03  0.78852648212E+02 0.  0.
        254    2    1    2    0    0 -0.71497561134E+02 -0.26789761721E+03  0.92625268826E+03  0.13190480572E+04  0.89725286295E+03 0.  0.
         23    2    4    4    0    0  0.86989641688E+02 -0.11741219059E+02  0.99108535024E+03  0.99906846988E+03  0.90457625769E+02 0.  0.
         23    2    4    4    0    0 -0.15848720282E+03 -0.25615639815E+03 -0.64832661987E+02  0.31997958729E+03  0.86309723947E+02 0.  0.
          4    1    3    3  502    0  0.43701471658E+02  0.15393834578E+03  0.12378208654E+03  0.20230876865E+03  0.00000000000E+00 0. -1.
         -3    1    3    3    0  502  0.27796089476E+02  0.11395927143E+03  0.17086471259E+02  0.11853811892E+03  0.00000000000E+00 0.  1.
         13    1    5    5    0    0  0.89530485552E+01 -0.39389032921E+02  0.23295842376E+03  0.23643451565E+03  0.00000000000E+00 0.  1.
        -13    1    5    5    0    0  0.78036593133E+02  0.27647813862E+02  0.75812692649E+03  0.76263395423E+03  0.00000000000E+00 0. -1.
          1    1    6    6  503    0 -0.14246241722E+03 -0.26034788721E+03 -0.61653075832E+02  0.30311328650E+03  0.00000000000E+00 0. -1.
         -1    1    6    6    0  503 -0.16024785598E+02  0.41914890580E+01 -0.31795861552E+01  0.16866300783E+02  0.00000000000E+00 0.  1.
<mgrwt>
<rscale>  0 0.12451938E+04</rscale>
<asrwt>0</asrwt>
<pdfrwt beam="1">  1        2 0.20823201E+00 0.12451938E+04</pdfrwt>
<pdfrwt beam="2">  1       -1 0.44059516E-01 0.12451938E+04</pdfrwt>
<totfact> 0.87871704E+01</totfact>
</mgrwt>
</event>
<event>
12    7  0.1741211E-007  0.1702177E+04  0.7818608E-02  0.8760124E-01
          2   -1    0    0  501    0  0.00000000000E+00  0.00000000000E+00  0.61140656052E+03  0.61140656052E+03  0.00000000000E+00 0. -1.
         -1   -1    0    0    0  501 -0.00000000000E+00 -0.00000000000E+00 -0.11847303141E+04  0.11847303141E+04  0.00000000000E+00 0.  1.
         24    2    1    2    0    0  0.15482548590E+03  0.21337017150E+02 -0.82395231852E+03  0.84243488447E+03  0.79830520474E+02 0.  0.
        254    2    1    2    0    0 -0.15482548590E+03 -0.21337017150E+02  0.25062856495E+03  0.95370199013E+03  0.90681123120E+03 0.  0.
         23    2    4    4    0    0  0.12987285904E+03  0.36957339890E+03  0.22617561542E+03  0.46145770383E+03  0.91303596427E+02 0.  0.
         23    2    4    4    0    0 -0.28469834494E+03 -0.39091041605E+03  0.24452949530E+02  0.49224428631E+03  0.88557267763E+02 0.  0.
          2    1    3    3  502    0 -0.48704842815E+01 -0.10273938915E+02 -0.85393844585E+02  0.86147455743E+02  0.00000000000E+00 0. -1.
         -1    1    3    3    0  502  0.15969597018E+03  0.31610956065E+02 -0.73855847393E+03  0.75628742873E+03  0.00000000000E+00 0.  1.
         13    1    5    5    0    0  0.12667249639E+03  0.26230328851E+03  0.13687155886E+03  0.32184275684E+03  0.00000000000E+00 0. -1.
        -13    1    5    5    0    0  0.32003626492E+01  0.10727011039E+03  0.89304056562E+02  0.13961494699E+03  0.00000000000E+00 0.  1.
          4    1    6    6  503    0 -0.19062339533E+03 -0.29864848044E+03  0.50642126023E+02  0.35790057089E+03  0.00000000000E+00 0. -1.
         -4    1    6    6    0  503 -0.94074949605E+02 -0.92261935612E+02 -0.26189176494E+02  0.13434371541E+03  0.00000000000E+00 0.  1.
<mgrwt>
<rscale>  0 0.17021773E+04</rscale>
<asrwt>0</asrwt>
<pdfrwt beam="1">  1        2 0.94062549E-01 0.17021773E+04</pdfrwt>
<pdfrwt beam="2">  1       -1 0.18226620E+00 0.17021773E+04</pdfrwt>
<totfact> 0.10559884E+01</totfact>
</mgrwt>
</event>
<event>
12    7  0.1741211E-007  0.2304151E+04  0.7818608E-02  0.8476286E-01
         -1   -1    0    0    0  501 -0.00000000000E+00  0.00000000000E+00  0.39165228702E+03  0.39165228702E+03  0.00000000000E+00 0.  1.
          2   -1    0    0  501    0  0.00000000000E+00 -0.00000000000E+00 -0.33889204414E+04  0.33889204414E+04  0.00000000000E+00 0. -1.
         24    2    1    2    0    0 -0.17044804197E+03 -0.80393312091E+03 -0.44987195005E+03  0.94151651802E+03  0.93314438076E+02 0.  0.
        254    2    1    2    0    0  0.17044804197E+03  0.80393312091E+03 -0.25473962043E+04  0.28390562104E+04  0.94638879225E+03 0.  0.
         23    2    4    4    0    0  0.46721134342E+03  0.78189619239E+03 -0.21296644505E+04  0.23180563449E+04  0.90920027455E+02 0.  0.
         23    2    4    4    0    0 -0.29676330145E+03  0.22036928523E+02 -0.41773175385E+03  0.52099986550E+03  0.91580338375E+02 0.  0.
          2    1    3    3  502    0 -0.14465037536E+03 -0.62372413106E+03 -0.39082821709E+03  0.75013479991E+03  0.00000000000E+00 0. -1.
         -1    1    3    3    0  502 -0.25797666611E+02 -0.18020898985E+03 -0.59043732954E+02  0.19138171811E+03  0.00000000000E+00 0.  1.
         13    1    5    5    0    0  0.44400324235E+03  0.69352585326E+03 -0.18922862505E+04  0.20637015875E+04  0.00000000000E+00 0.  1.
        -13    1    5    5    0    0  0.23208101070E+02  0.88370339125E+02 -0.23737819997E+03  0.25435475740E+03  0.00000000000E+00 0. -1.
          1    1    6    6  503    0 -0.41601274199E+02 -0.29394745040E+02 -0.73861619878E+02  0.89723218522E+02  0.00000000000E+00 0. -1.
         -1    1    6    6    0  503 -0.25516202725E+03  0.51431673562E+02 -0.34387013397E+03  0.43127664698E+03  0.00000000000E+00 0.  1.
<mgrwt>
<rscale>  0 0.23041514E+04</rscale>
<asrwt>0</asrwt>
<pdfrwt beam="1">  1        2 0.52137237E+00 0.23041514E+04</pdfrwt>
<pdfrwt beam="2">  1       -1 0.60254199E-01 0.23041514E+04</pdfrwt>
<totfact> 0.27997920E+00</totfact>
</mgrwt>
</event>
