<event>
12    7  0.1909736E-007  0.1292920E+04  0.7818608E-02  0.9035198E-01
          2   -1    0    0  501    0  0.00000000000E+00  0.00000000000E+00  0.57977047344E+03  0.57977047344E+03  0.00000000000E+00 0. -1.
         -1   -1    0    0    0  501 -0.00000000000E+00 -0.00000000000E+00 -0.72082088081E+03  0.72082088081E+03  0.00000000000E+00 0.  1.
         24    2    1    2    0    0  0.11744647995E+03 -0.70938127493E+02  0.26855229081E+03  0.31184035083E+03  0.79361060499E+02 0.  0.
        254    2    1    2    0    0 -0.11744647995E+03  0.70938127493E+02 -0.40960269818E+03  0.98875100341E+03  0.88939770789E+03 0.  0.
         23    2    4    4    0    0  0.35189907407E+03 -0.10959710763E+03 -0.11063824199E+03  0.39611601253E+03  0.93928645576E+02 0.  0.
         23    2    4    4    0    0 -0.46934555403E+03  0.18053523512E+03 -0.29896445619E+03  0.59263499088E+03  0.94648117468E+02 0.  0.
          4    1    3    3  502    0  0.97982462104E+02 -0.28249021660E+02  0.22823699661E+03  0.24998139276E+03  0.00000000000E+00 0. -1.
         -1    1    3    3    0  502  0.19464017851E+02 -0.42689105834E+02  0.40315294202E+02  0.61858958077E+02  0.00000000000E+00 0.  1.
         13    1    5    5    0    0  0.29660432737E+03 -0.88421771426E+02 -0.12721536024E+03  0.33462857702E+03  0.00000000000E+00 0. -1.
        -13    1    5    5    0    0  0.55294746705E+02 -0.21175336205E+02  0.16577118253E+02  0.61487435515E+02  0.00000000000E+00 0.  1.
          4    1    6    6  503    0 -0.44935778984E+03  0.14800831679E+03 -0.27013524548E+03  0.54479531567E+03  0.00000000000E+00 0. -1.
         -4    1    6    6    0  503 -0.19987764189E+02  0.32526918332E+02 -0.28829210715E+02  0.47839675207E+02  0.00000000000E+00 0.  1.
<mgrwt>
<rscale>  0 0.12929202E+04</rscale>
<asrwt>0</asrwt>
<pdfrwt beam="1">  1        2 0.89195458E-01 0.12929202E+04</pdfrwt>
<pdfrwt beam="2">  1       -1 0.11089552E+00 0.12929202E+04</pdfrwt>
<totfact> 0.43396477E+01</totfact>
</mgrwt>
</event>
<event>
12    7  0.1909736E-007  0.1975499E+04  0.7818608E-02  0.8618162E-01
         -1   -1    0    0    0  501 -0.00000000000E+00  0.00000000000E+00  0.61031663598E+03  0.61031663598E+03  0.00000000000E+00 0.  1.
          2   -1    0    0  501    0  0.00000000000E+00 -0.00000000000E+00 -0.15985956721E+04  0.15985956721E+04  0.00000000000E+00 0. -1.
         24    2    1    2    0    0  0.47441398394E+03  0.62312721116E+03 -0.43257659060E+03  0.89835517140E+03  0.81014553032E+02 0.  0.
        254    2    1    2    0    0 -0.47441398394E+03 -0.62312721116E+03 -0.55570244548E+03  0.13105571366E+04  0.89185124939E+03 0.  0.
         23    2    4    4    0    0 -0.36093022987E+03  0.81632185698E+02 -0.43762453784E+03  0.58110875631E+03  0.96112985425E+02 0.  0.
         23    2    4    4    0    0 -0.11348375407E+03 -0.70475939685E+03 -0.11807790764E+03  0.72944838033E+03  0.92672419865E+02 0.  0.
          4    1    3    3  502    0  0.39233703707E+03  0.53636469416E+03 -0.33541342319E+03  0.74439075778E+03  0.00000000000E+00 0. -1.
         -3    1    3    3    0  502  0.82076946866E+02  0.86762516995E+02 -0.97163167405E+02  0.15396441362E+03  0.00000000000E+00 0.  1.
         13    1    5    5    0    0  0.61224901934E+01  0.34430537249E+01 -0.74290091421E+01  0.10223975839E+02  0.00000000000E+00 0.  1.
        -13    1    5    5    0    0 -0.36705272006E+03  0.78189131973E+02 -0.43019552869E+03  0.57088478047E+03  0.00000000000E+00 0. -1.
          3    1    6    6  503    0 -0.54149591542E+02 -0.53332776796E+03 -0.11365283654E+03  0.54798508519E+03  0.00000000000E+00 0. -1.
         -3    1    6    6    0  503 -0.59334162532E+02 -0.17143162890E+03 -0.44250711076E+01  0.18146329514E+03  0.00000000000E+00 0.  1.
<mgrwt>
<rscale>  0 0.19754995E+04</rscale>
<asrwt>0</asrwt>
<pdfrwt beam="1">  1        2 0.24593779E+00 0.19754995E+04</pdfrwt>
<pdfrwt beam="2">  1       -1 0.93894868E-01 0.19754995E+04</pdfrwt>
<totfact> 0.13023323E+01</totfact>
</mgrwt>
</event>
<event>
12    7  0.1909736E-007  0.1100536E+04  0.7818608E-02  0.9204669E-01
         -1   -1    0    0    0  501 -0.00000000000E+00  0.00000000000E+00  0.13724481980E+03  0.13724481980E+03  0.00000000000E+00 0.  1.
          2   -1    0    0  501    0  0.00000000000E+00 -0.00000000000E+00 -0.22062404616E+04  0.22062404616E+04  0.00000000000E+00 0. -1.
         24    2    1    2    0    0 -0.84333566891E+02 -0.12921996866E+03 -0.22325510550E+03  0.28338443467E+03  0.81571716182E+02 0.  0.
        254    2    1    2    0    0  0.84333566891E+02  0.12921996866E+03 -0.18457405363E+04  0.20601008467E+04  0.90191320008E+03 0.  0.
         23    2    4    4    0    0 -0.14107873388E+03 -0.18634554519E+03 -0.10117244217E+03  0.27065593799E+03  0.91601868675E+02 0.  0.
         23    2    4    4    0    0  0.22541230077E+03  0.31556551385E+03 -0.17445680941E+04  0.17894449087E+04  0.90570124534E+02 0.  0.
          4    1    3    3  502    0 -0.32701482323E+01 -0.13392399326E+02 -0.83361402871E+02  0.84493631226E+02  0.00000000000E+00 0. -1.
         -3    1    3    3    0  502 -0.81063418658E+02 -0.11582756933E+03 -0.13989370263E+03  0.19889080345E+03  0.00000000000E+00 0.  1.
         13    1    5    5    0    0  0.39005386035E+01 -0.55620309175E+02 -0.19919596256E+02  0.59208304393E+02  0.00000000000E+00 0.  1.
        -13    1    5    5    0    0 -0.14497927249E+03 -0.13072523602E+03 -0.81252845918E+02  0.21144763359E+03  0.00000000000E+00 0. -1.
          3    1    6    6  503    0  0.16467077186E+03  0.28348429663E+03 -0.15002924486E+04  0.15356943839E+04  0.00000000000E+00 0. -1.
         -3    1    6    6    0  503  0.60741528911E+02  0.32081217222E+02 -0.24427564556E+03  0.25375052482E+03  0.00000000000E+00 0.  1.
<mgrwt>
<rscale>  0 0.11005364E+04</rscale>
<asrwt>0</asrwt>
<pdfrwt beam="1">  1        2 0.33942158E+00 0.11005364E+04</pdfrwt>
<pdfrwt beam="2">  1       -1 0.21114589E-01 0.11005364E+04</pdfrwt>
<totfact> 0.10865067E+02</totfact>
</mgrwt>
</event>
<event>
12    7  0.1909736E-007  0.2367846E+04  0.7818608E-02  0.8451641E-01
         -1   -1    0    0    0  501 -0.00000000000E+00  0.00000000000E+00  0.12202096815E+04  0.12202096815E+04  0.00000000000E+00 0.  1.
          2   -1    0    0  501    0  0.00000000000E+00 -0.00000000000E+00 -0.11487150020E+04  0.11487150020E+04  0.00000000000E+00 0. -1.
         24    2    1    2    0    0  0.78288824389E+03 -0.58496224287E+03 -0.22481997307E+03  0.10059656099E+04  0.79548475811E+02 0.  0.
        254    2    1    2    0    0 -0.78288824389E+03  0.58496224287E+03  0.29631465265E+03  0.13629590736E+04  0.90264070089E+03 0.  0.
         23    2    4    4    0    0 -0.61027770716E+03  0.29850774484E+03 -0.23852836667E+03  0.72573330752E+03  0.90814637298E+02 0.  0.
         23    2    4    4    0    0 -0.17261053673E+03  0.28645449803E+03  0.53484301931E+03  0.63722576608E+03  0.90272059958E+02 0.  0.
          2    1    3    3  502    0  0.76616417685E+03 -0.55561225007E+03 -0.21230315729E+03  0.96994079661E+03  0.00000000000E+00 0. -1.
         -1    1    3    3    0  502  0.16724067036E+02 -0.29349992802E+02 -0.12516815786E+02  0.36024813297E+02  0.00000000000E+00 0.  1.
         13    1    5    5    0    0 -0.91836569986E+02  0.65126099977E+02 -0.70651550272E+02  0.13291729023E+03  0.00000000000E+00 0.  1.
        -13    1    5    5    0    0 -0.51844113718E+03  0.23338164486E+03 -0.16787681639E+03  0.59281601729E+03  0.00000000000E+00 0. -1.
          3    1    6    6  503    0 -0.37045617095E+02  0.13313301960E+03  0.26134760488E+03  0.29563380935E+03  0.00000000000E+00 0. -1.
         -3    1    6    6    0  503 -0.13556491963E+03  0.15332147843E+03  0.27349541444E+03  0.34159195673E+03  0.00000000000E+00 0.  1.
<mgrwt>
<rscale>  0 0.23678456E+04</rscale>
<asrwt>0</asrwt>
<pdfrwt beam="1">  1        2 0.17672538E+00 0.23678456E+04</pdfrwt>
<pdfrwt beam="2">  1       -1 0.18772457E+00 0.23678456E+04</pdfrwt>
<totfact> 0.38325685E+00</totfact>
</mgrwt>
</event>
<event>
12    7  0.1909736E-007  0.1252952E+04  0.7818608E-02  0.9067730E-01
          2   -1    0    0  501    0  0.00000000000E+00  0.00000000000E+00  0.96333307535E+03  0.96333307535E+03  0.00000000000E+00 0. -1.
         -1   -1    0    0    0  501 -0.00000000000E+00 -0.00000000000E+00 -0.40741065963E+03  0.40741065963E+03  0.00000000000E+00 0.  1.
         24    2    1    2    0    0 -0.96081315682E+02  0.92531312033E+02  0.49595005946E+03  0.51965136566E+03  0.79230154790E+02 0.  0.
        254    2    1    2    0    0  0.96081315682E+02 -0.92531312033E+02  0.59972356262E+02  0.85109236932E+03  0.83843179488E+03 0.  0.
         23    2    4    4    0    0 -0.27138266169E+03 -0.22414017207E+03  0.21412343834E+03  0.42189740927E+03  0.90891205819E+02 0.  0.
         23    2    4    4    0    0  0.36746397737E+03  0.13160886004E+03 -0.15415108208E+03  0.42919496006E+03  0.89972723235E+02 0.  0.
          2    1    3    3  502    0 -0.84736306941E+02  0.67261062590E+02  0.46784231771E+03  0.48018821986E+03  0.00000000000E+00 0. -1.
         -1    1    3    3    0  502 -0.11345008741E+02  0.25270249443E+02  0.28107741752E+02  0.39463145803E+02  0.00000000000E+00 0.  1.
         13    1    5    5    0    0 -0.15537605794E+03 -0.16627992292E+03  0.97715387328E+02  0.24766717399E+03  0.00000000000E+00 0. -1.
        -13    1    5    5    0    0 -0.11600660375E+03 -0.57860249145E+02  0.11640805102E+03  0.17423023528E+03  0.00000000000E+00 0.  1.
          2    1    6    6  503    0  0.21693550406E+03  0.12022527095E+03 -0.77227889434E+02  0.25976773395E+03  0.00000000000E+00 0. -1.
         -2    1    6    6    0  503  0.15052847331E+03  0.11383589084E+02 -0.76923192648E+02  0.16942722611E+03  0.00000000000E+00 0.  1.
<mgrwt>
<rscale>  0 0.12529520E+04</rscale>
<asrwt>0</asrwt>
<pdfrwt beam="1">  1        2 0.14820509E+00 0.12529520E+04</pdfrwt>
<pdfrwt beam="2">  1       -1 0.62678563E-01 0.12529520E+04</pdfrwt>
<totfact> 0.77073139E+01</totfact>
</mgrwt>
</event>
<event>
12    7  0.4434637E-007  0.1398025E+04  0.7818608E-02  0.8955249E-01
         -1   -1    0    0    0  501 -0.00000000000E+00  0.00000000000E+00  0.28137740986E+03  0.28137740986E+03  0.00000000000E+00 0.  1.
          2   -1    0    0  501    0  0.00000000000E+00 -0.00000000000E+00 -0.17365238764E+04  0.17365238764E+04  0.00000000000E+00 0. -1.
         24    2    1    2    0    0  0.99190493207E+02  0.12610575007E+03 -0.97139708130E+03  0.98684722539E+03  0.67184392191E+02 0.  0.
        254    2    1    2    0    0 -0.99190493207E+02 -0.12610575007E+03 -0.48374938527E+03  0.10310540609E+04  0.89627986400E+03 0.  0.
         23    2    4    4    0    0 -0.22241293216E+03  0.27823459641E+03 -0.47185092279E+03  0.59921994793E+03  0.97669082232E+02 0.  0.
         23    2    4    4    0    0  0.12322243895E+03 -0.40434034648E+03 -0.11898462471E+02  0.43183411297E+03  0.87545659315E+02 0.  0.
          4    1    3    3  502    0  0.85580406434E+02  0.10181009864E+03 -0.60762685521E+03  0.62201261829E+03  0.00000000000E+00 0. -1.
         -3    1    3    3    0  502  0.13610086773E+02  0.24295651432E+02 -0.36377022610E+03  0.36483460710E+03  0.00000000000E+00 0.  1.
         13    1    5    5    0    0 -0.15081486738E+03  0.21670557341E+03 -0.40532679880E+03  0.48373158218E+03  0.00000000000E+00 0. -1.
        -13    1    5    5    0    0 -0.71598064776E+02  0.61529023000E+02 -0.66524123997E+02  0.11548836575E+03  0.00000000000E+00 0.  1.
          3    1    6    6  503    0  0.11052899872E+03 -0.34398004989E+03  0.21032103680E+02  0.36191336486E+03  0.00000000000E+00 0. -1.
         -3    1    6    6    0  503  0.12693440232E+02 -0.60360296592E+02 -0.32930566151E+02  0.69920748113E+02  0.00000000000E+00 0.  1.
<mgrwt>
<rscale>  0 0.13980252E+04</rscale>
<asrwt>0</asrwt>
<pdfrwt beam="1">  1        2 0.26715752E+00 0.13980252E+04</pdfrwt>
<pdfrwt beam="2">  1       -1 0.43288832E-01 0.13980252E+04</pdfrwt>
<totfact> 0.54637343E+01</totfact>
</mgrwt>
</event>
<event>
12    7  0.1909736E-007  0.2663049E+04  0.7818608E-02  0.8347095E-01
         -1   -1    0    0    0  501 -0.00000000000E+00  0.00000000000E+00  0.75151834061E+03  0.75151834061E+03  0.00000000000E+00 0.  1.
          2   -1    0    0  501    0  0.00000000000E+00 -0.00000000000E+00 -0.23591680543E+04  0.23591680543E+04  0.00000000000E+00 0. -1.
         24    2    1    2    0    0 -0.43789490374E+03  0.74962114826E+03  0.21841875968E+03  0.89873488479E+03  0.79585337367E+02 0.  0.
        254    2    1    2    0    0  0.43789490374E+03 -0.74962114826E+03 -0.18260684734E+04  0.22119515101E+04  0.89695016642E+03 0.  0.
         23    2    4    4    0    0 -0.30348726408E+01 -0.35517645968E+03 -0.93050967713E+02  0.37833094249E+03  0.91193703142E+02 0.  0.
         23    2    4    4    0    0  0.44092977638E+03 -0.39444468858E+03 -0.17330175056E+04  0.18336205676E+04  0.93856438590E+02 0.  0.
          2    1    3    3  502    0 -0.83209760510E+02  0.17189274883E+03  0.78784566246E+02  0.20658651752E+03  0.00000000000E+00 0. -1.
         -1    1    3    3    0  502 -0.35468514323E+03  0.57772839943E+03  0.13963419343E+03  0.69214836727E+03  0.00000000000E+00 0.  1.
         13    1    5    5    0    0 -0.11355231083E+01  0.49684035413E+01 -0.58808285968E+01  0.77819400835E+01  0.00000000000E+00 0. -1.
        -13    1    5    5    0    0 -0.18993495325E+01 -0.36014486322E+03 -0.87170139117E+02  0.37054900241E+03  0.00000000000E+00 0.  1.
          3    1    6    6  503    0  0.10493233995E+03 -0.44986453090E+02 -0.34051504479E+03  0.35914491874E+03  0.00000000000E+00 0. -1.
         -3    1    6    6    0  503  0.33599743643E+03 -0.34945823549E+03 -0.13925024609E+04  0.14744756489E+04  0.00000000000E+00 0.  1.
<mgrwt>
<rscale>  0 0.26630494E+04</rscale>
<asrwt>0</asrwt>
<pdfrwt beam="1">  1        2 0.36294893E+00 0.26630494E+04</pdfrwt>
<pdfrwt beam="2">  1       -1 0.11561821E+00 0.26630494E+04</pdfrwt>
<totfact> 0.28441463E+00</totfact>
</mgrwt>
</event>
<event>
12    7  0.1909736E-007  0.4607007E+04  0.7818608E-02  0.7892166E-01
         -1   -1    0    0    0  501 -0.00000000000E+00  0.00000000000E+00  0.20274125532E+04  0.20274125532E+04  0.00000000000E+00 0.  1.
          2   -1    0    0  501    0  0.00000000000E+00 -0.00000000000E+00 -0.26171918430E+04  0.26171918430E+04  0.00000000000E+00 0. -1.
         24    2    1    2    0    0 -0.19119775155E+04 -0.88120109962E+03  0.40971314815E+03  0.21461722214E+04  0.77568949958E+02 0.  0.
        254    2    1    2    0    0  0.19119775155E+04  0.88120109962E+03 -0.99949243798E+03  0.24984321748E+04  0.90055804956E+03 0.  0.
         23    2    4    4    0    0  0.98479677197E+03  0.46791455658E+03 -0.99528439907E+03  0.14792092499E+04  0.93275160430E+02 0.  0.
         23    2    4    4    0    0  0.92718074358E+03  0.41328654304E+03 -0.42080389023E+01  0.10192229249E+04  0.91256589850E+02 0.  0.
          2    1    3    3  502    0 -0.69227836448E+03 -0.33106206931E+03  0.18577642021E+03  0.78953423356E+03  0.00000000000E+00 0. -1.
         -1    1    3    3    0  502 -0.12196991511E+04 -0.55013903032E+03  0.22393672794E+03  0.13566379878E+04  0.00000000000E+00 0.  1.
         13    1    5    5    0    0  0.75019543408E+03  0.33096115858E+03 -0.79116800895E+03  0.11394188414E+04  0.00000000000E+00 0. -1.
        -13    1    5    5    0    0  0.23460133790E+03  0.13695339800E+03 -0.20411639013E+03  0.33979040846E+03  0.00000000000E+00 0.  1.
          4    1    6    6  503    0  0.69727271746E+03  0.27538899747E+03  0.20740721299E+02  0.74997234613E+03  0.00000000000E+00 0.  1.
         -4    1    6    6    0  503  0.22990802612E+03  0.13789754557E+03 -0.24948760202E+02  0.26925057880E+03  0.00000000000E+00 0. -1.
<mgrwt>
<rscale>  0 0.46070067E+04</rscale>
<asrwt>0</asrwt>
<pdfrwt beam="1">  1        2 0.40264490E+00 0.46070067E+04</pdfrwt>
<pdfrwt beam="2">  1       -1 0.31190962E+00 0.46070067E+04</pdfrwt>
<totfact> 0.70169927E-02</totfact>
</mgrwt>
</event>
<event>
12    7  0.1909736E-007  0.1725577E+04  0.7818608E-02  0.8746910E-01
         -1   -1    0    0    0  501 -0.00000000000E+00  0.00000000000E+00  0.90912318369E+03  0.90912318369E+03  0.00000000000E+00 0.  1.
          2   -1    0    0  501    0  0.00000000000E+00 -0.00000000000E+00 -0.81881498253E+03  0.81881498253E+03  0.00000000000E+00 0. -1.
         24    2    1    2    0    0  0.13192671202E+03 -0.59201834358E+03  0.20322072439E+03  0.64471056252E+03  0.80390734064E+02 0.  0.
        254    2    1    2    0    0 -0.13192671202E+03  0.59201834358E+03 -0.11291252322E+03  0.10832276037E+04  0.89036084092E+03 0.  0.
         23    2    4    4    0    0  0.29834178987E+03  0.91260196375E+02  0.15866184542E+03  0.36345699778E+03  0.97934473077E+02 0.  0.
         23    2    4    4    0    0 -0.43026850189E+03  0.50075814721E+03 -0.27157436864E+03  0.71977060592E+03  0.91800771934E+02 0.  0.
          4    1    3    3  502    0 -0.10084557450E+02 -0.19819612828E+02  0.89186040328E+01  0.23959483498E+02  0.00000000000E+00 0. -1.
         -3    1    3    3    0  502  0.14201126947E+03 -0.57219873075E+03  0.19430212035E+03  0.62075107902E+03  0.00000000000E+00 0.  1.
         13    1    5    5    0    0  0.11671378172E+03  0.14326919423E+02  0.13109414223E+02  0.11831831729E+03  0.00000000000E+00 0.  1.
        -13    1    5    5    0    0  0.18162800815E+03  0.76933276951E+02  0.14555243120E+03  0.24513868049E+03  0.00000000000E+00 0. -1.
          1    1    6    6  503    0 -0.24727384363E+03  0.28727264873E+03 -0.20455699147E+03  0.43071277113E+03  0.00000000000E+00 0. -1.
         -1    1    6    6    0  503 -0.18299465826E+03  0.21348549848E+03 -0.67017377172E+02  0.28905783480E+03  0.00000000000E+00 0.  1.
<mgrwt>
<rscale>  0 0.17255766E+04</rscale>
<asrwt>0</asrwt>
<pdfrwt beam="1">  1        2 0.12597154E+00 0.17255766E+04</pdfrwt>
<pdfrwt beam="2">  1       -1 0.13986511E+00 0.17255766E+04</pdfrwt>
<totfact> 0.15211879E+01</totfact>
</mgrwt>
</event>
<event>
12    7  0.1909736E-007  0.1956675E+04  0.7818608E-02  0.8627149E-01
         -1   -1    0    0    0  501 -0.00000000000E+00  0.00000000000E+00  0.28714298716E+04  0.28714298716E+04  0.00000000000E+00 0.  1.
          2   -1    0    0  501    0  0.00000000000E+00 -0.00000000000E+00 -0.33333357374E+03  0.33333357374E+03  0.00000000000E+00 0. -1.
         24    2    1    2    0    0  0.55046787575E+03 -0.25525727500E+02  0.12024615777E+03  0.56984012892E+03  0.81192296822E+02 0.  0.
        254    2    1    2    0    0 -0.55046787575E+03  0.25525727500E+02  0.24178501401E+04  0.26349233165E+04  0.89059257719E+03 0.  0.
         23    2    4    4    0    0 -0.47553942024E+03  0.88705728616E+02  0.46401224925E+03  0.67650021739E+03  0.91316647931E+02 0.  0.
         23    2    4    4    0    0 -0.74928455517E+02 -0.63180001116E+02  0.19538378909E+04  0.19584230991E+04  0.91282775927E+02 0.  0.
          2    1    3    3  502    0  0.41365798946E+03 -0.49649742418E+02  0.10789767650E+03  0.43037185987E+03  0.00000000000E+00 0. -1.
         -1    1    3    3    0  502  0.13680988629E+03  0.24124014918E+02  0.12348481270E+02  0.13946826905E+03  0.00000000000E+00 0.  1.
         13    1    5    5    0    0 -0.24912637938E+03  0.31716871328E+02  0.29965127997E+03  0.39097417104E+03  0.00000000000E+00 0. -1.
        -13    1    5    5    0    0 -0.22641304086E+03  0.56988857288E+02  0.16436096928E+03  0.28552604635E+03  0.00000000000E+00 0.  1.
          1    1    6    6  503    0  0.79645020251E+01 -0.12406598143E+02  0.89773127558E+03  0.89785232645E+03  0.00000000000E+00 0. -1.
         -1    1    6    6    0  503 -0.82892957542E+02 -0.50773402973E+02  0.10561066153E+04  0.10605707726E+04  0.00000000000E+00 0.  1.
<mgrwt>
<rscale>  0 0.19566747E+04</rscale>
<asrwt>0</asrwt>
<pdfrwt beam="1">  1        2 0.51282090E-01 0.19566747E+04</pdfrwt>
<pdfrwt beam="2">  1       -1 0.44175843E+00 0.19566747E+04</pdfrwt>
<totfact> 0.38429192E-01</totfact>
</mgrwt>
</event>
<event>
12    7  0.1909736E-007  0.1597632E+04  0.7818608E-02  0.8822004E-01
          2   -1    0    0  501    0  0.00000000000E+00  0.00000000000E+00  0.28078740932E+04  0.28078740932E+04  0.00000000000E+00 0. -1.
         -1   -1    0    0    0  501 -0.00000000000E+00 -0.00000000000E+00 -0.22725634948E+03  0.22725634948E+03  0.00000000000E+00 0.  1.
         24    2    1    2    0    0  0.16148308777E+03  0.25014892611E+03  0.17464817462E+04  0.17739411205E+04  0.89539578366E+02 0.  0.
        254    2    1    2    0    0 -0.16148308777E+03 -0.25014892611E+03  0.83413599748E+03  0.12611893222E+04  0.89786656652E+03 0.  0.
         23    2    4    4    0    0 -0.21657566307E+03 -0.42423279364E+03  0.94413333219E+02  0.49412037621E+03  0.91447185115E+02 0.  0.
         23    2    4    4    0    0  0.55092575298E+02  0.17408386753E+03  0.73972266426E+03  0.76706894599E+03  0.88683499571E+02 0.  0.
          2    1    3    3  502    0  0.17086498658E+03  0.24648757979E+03  0.17096409857E+04  0.17357486196E+04  0.00000000000E+00 0. -1.
         -1    1    3    3    0  502 -0.93818988108E+01  0.36613463207E+01  0.36840760546E+02  0.38192500832E+02  0.00000000000E+00 0.  1.
         13    1    5    5    0    0 -0.10120772495E+03 -0.12063904751E+03  0.55770781550E+02  0.16705437273E+03  0.00000000000E+00 0.  1.
        -13    1    5    5    0    0 -0.11536793812E+03 -0.30359374612E+03  0.38642551668E+02  0.32706600348E+03  0.00000000000E+00 0. -1.
          1    1    6    6  503    0  0.44583591643E+02  0.14365228912E+03  0.69980112977E+03  0.71578299647E+03  0.00000000000E+00 0. -1.
         -1    1    6    6    0  503  0.10508983655E+02  0.30431578410E+02  0.39921534498E+02  0.51285949525E+02  0.00000000000E+00 0.  1.
<mgrwt>
<rscale>  0 0.15976323E+04</rscale>
<asrwt>0</asrwt>
<pdfrwt beam="1">  1        2 0.43198060E+00 0.15976323E+04</pdfrwt>
<pdfrwt beam="2">  1       -1 0.34962517E-01 0.15976323E+04</pdfrwt>
<totfact> 0.19504114E+01</totfact>
</mgrwt>
</event>
<event>
12    7  0.1909736E-007  0.1224069E+04  0.7818608E-02  0.9092046E-01
          2   -1    0    0  501    0  0.00000000000E+00  0.00000000000E+00  0.32083567536E+04  0.32083567536E+04  0.00000000000E+00 0. -1.
         -1   -1    0    0    0  501 -0.00000000000E+00 -0.00000000000E+00 -0.11675322405E+03  0.11675322405E+03  0.00000000000E+00 0.  1.
         24    2    1    2    0    0 -0.13663850158E+03 -0.85708091815E+01  0.76380052922E+02  0.17500028277E+03  0.77766622664E+02 0.  0.
        254    2    1    2    0    0  0.13663850158E+03  0.85708091815E+01  0.30152234766E+04  0.31501096949E+04  0.90159577242E+03 0.  0.
         23    2    4    4    0    0 -0.51499236230E+02  0.42861565995E+03  0.13644179796E+04  0.14339100076E+04  0.89988507892E+02 0.  0.
         23    2    4    4    0    0  0.18813773781E+03 -0.42004485077E+03  0.16508054970E+04  0.17161996873E+04  0.91373368887E+02 0.  0.
          4    1    3    3  502    0 -0.24196806418E+02  0.18707567678E+02  0.46232729671E+02  0.55433959105E+02  0.00000000000E+00 0. -1.
         -3    1    3    3    0  502 -0.11244169517E+03 -0.27278376859E+02  0.30147323251E+02  0.11956632367E+03  0.00000000000E+00 0.  1.
         13    1    5    5    0    0 -0.51479348029E+02  0.10150901094E+03  0.36216534657E+03  0.37962868810E+03  0.00000000000E+00 0. -1.
        -13    1    5    5    0    0 -0.19888201477E-01  0.32710664901E+03  0.10022526330E+04  0.10542813195E+04  0.00000000000E+00 0.  1.
          3    1    6    6  503    0 -0.58732318888E+01  0.69235673619E+00  0.21955823765E+02  0.22738346639E+02  0.00000000000E+00 0. -1.
         -3    1    6    6    0  503  0.19401096970E+03 -0.42073720750E+03  0.16288496733E+04  0.16934613407E+04  0.00000000000E+00 0.  1.
<mgrwt>
<rscale>  0 0.12240686E+04</rscale>
<asrwt>0</asrwt>
<pdfrwt beam="1">  1        2 0.49359328E+00 0.12240686E+04</pdfrwt>
<pdfrwt beam="2">  1       -1 0.17962037E-01 0.12240686E+04</pdfrwt>
<totfact> 0.35789815E+01</totfact>
</mgrwt>
</event>
<event>
12    7  0.1909736E-007  0.2158470E+04  0.7818608E-02  0.8535915E-01
          2   -1    0    0  501    0  0.00000000000E+00  0.00000000000E+00  0.14705526874E+04  0.14705526874E+04  0.00000000000E+00 0. -1.
         -1   -1    0    0    0  501 -0.00000000000E+00 -0.00000000000E+00 -0.79204827025E+03  0.79204827025E+03  0.00000000000E+00 0.  1.
         24    2    1    2    0    0  0.21409714866E+02  0.61364584570E+03  0.95255700511E+03  0.11360535118E+04  0.78950198510E+02 0.  0.
        254    2    1    2    0    0 -0.21409714866E+02 -0.61364584570E+03 -0.27405258795E+03  0.11265474459E+04  0.90387207445E+03 0.  0.
         23    2    4    4    0    0 -0.38451646723E+02  0.82162565442E+02 -0.39341654611E+03  0.41412246491E+03  0.92149991277E+02 0.  0.
         23    2    4    4    0    0  0.17041931857E+02 -0.69580841114E+03  0.11936395815E+03  0.71242498095E+03  0.94137274890E+02 0.  0.
          4    1    3    3  502    0 -0.19912390843E+02  0.44471300527E+03  0.68357860663E+03  0.81574865725E+03  0.00000000000E+00 0. -1.
         -3    1    3    3    0  502  0.41322105709E+02  0.16893284042E+03  0.26897839848E+03  0.32030485454E+03  0.00000000000E+00 0.  1.
         13    1    5    5    0    0 -0.47540082266E+02  0.21757502153E+01 -0.11969744436E+03  0.12881099137E+03  0.00000000000E+00 0.  1.
        -13    1    5    5    0    0  0.90884355422E+01  0.79986815227E+02 -0.27371910175E+03  0.28531147354E+03  0.00000000000E+00 0. -1.
          3    1    6    6  503    0 -0.22491718672E+02 -0.35310465953E+03  0.24625087617E+02  0.35467615219E+03  0.00000000000E+00 0. -1.
         -3    1    6    6    0  503  0.39533650529E+02 -0.34270375161E+03  0.94738870536E+02  0.35774882876E+03  0.00000000000E+00 0.  1.
<mgrwt>
<rscale>  0 0.21584705E+04</rscale>
<asrwt>0</asrwt>
<pdfrwt beam="1">  1        2 0.22623887E+00 0.21584705E+04</pdfrwt>
<pdfrwt beam="2">  1       -1 0.12185358E+00 0.21584705E+04</pdfrwt>
<totfact> 0.82175208E+00</totfact>
</mgrwt>
</event>
<event>
12    7  0.1909736E-007  0.1652480E+04  0.7818608E-02  0.8788941E-01
         -1   -1    0    0    0  501 -0.00000000000E+00  0.00000000000E+00  0.63723501017E+03  0.63723501017E+03  0.00000000000E+00 0.  1.
          2   -1    0    0  501    0  0.00000000000E+00 -0.00000000000E+00 -0.10713041306E+04  0.10713041306E+04  0.00000000000E+00 0. -1.
         24    2    1    2    0    0 -0.19518767928E+02 -0.27602004759E+03 -0.67726226155E+03  0.73605877995E+03  0.80810318971E+02 0.  0.
        254    2    1    2    0    0  0.19518767928E+02  0.27602004759E+03  0.24319314111E+03  0.97248036083E+03  0.90000394407E+03 0.  0.
         23    2    4    4    0    0  0.35175179757E+03 -0.10635456149E+03 -0.46607568472E+02  0.38166971521E+03  0.91972203552E+02 0.  0.
         23    2    4    4    0    0 -0.33223302965E+03  0.38237460908E+03  0.28980070959E+03  0.59081064561E+03  0.92106677462E+02 0.  0.
          2    1    3    3  502    0  0.23001991798E+02 -0.19699157964E+03 -0.45351791703E+03  0.49498815657E+03  0.00000000000E+00 0. -1.
         -1    1    3    3    0  502 -0.42520759726E+02 -0.79028467952E+02 -0.22374434452E+03  0.24107062339E+03  0.00000000000E+00 0.  1.
         13    1    5    5    0    0  0.17298418647E+03 -0.26668900473E+02 -0.61160594029E+02  0.18540597963E+03  0.00000000000E+00 0. -1.
        -13    1    5    5    0    0  0.17876761110E+03 -0.79685661021E+02  0.14553025557E+02  0.19626373558E+03  0.00000000000E+00 0.  1.
          1    1    6    6  503    0 -0.21463829730E+03  0.22169850884E+03  0.22326425396E+03  0.38087629827E+03  0.00000000000E+00 0. -1.
         -1    1    6    6    0  503 -0.11759473235E+03  0.16067610024E+03  0.66536455620E+02  0.20993434734E+03  0.00000000000E+00 0.  1.
<mgrwt>
<rscale>  0 0.16524800E+04</rscale>
<asrwt>0</asrwt>
<pdfrwt beam="1">  1        2 0.16481602E+00 0.16524800E+04</pdfrwt>
<pdfrwt beam="2">  1       -1 0.98036156E-01 0.16524800E+04</pdfrwt>
<totfact> 0.24665298E+01</totfact>
</mgrwt>
</event>
<event>
12    7  0.1909736E-007  0.1373489E+04  0.7818608E-02  0.8973235E-01
         -3   -1    0    0    0  501 -0.00000000000E+00  0.00000000000E+00  0.15360723188E+03  0.15360723188E+03  0.00000000000E+00 0.  1.
          4   -1    0    0  501    0  0.00000000000E+00 -0.00000000000E+00 -0.30702844075E+04  0.30702844075E+04  0.00000000000E+00 0. -1.
         24    2    1    2    0    0  0.20753103810E+02 -0.60121591969E+02  0.54363469192E+02  0.11684513019E+03  0.81560410293E+02 0.  0.
        254    2    1    2    0    0 -0.20753103810E+02  0.60121591969E+02 -0.29710406448E+04  0.31070465092E+04  0.90697861059E+03 0.  0.
         23    2    4    4    0    0 -0.44836262916E+03  0.10190000006E+03 -0.14566050020E+04  0.15300820596E+04  0.89667831376E+02 0.  0.
         23    2    4    4    0    0  0.42760952535E+03 -0.41778408092E+02 -0.15144356428E+04  0.15769644496E+04  0.93307114197E+02 0.  0.
          4    1    3    3  502    0  0.22202187090E+02 -0.67856173718E+02  0.10360258723E+02  0.72143831226E+02  0.00000000000E+00 0. -1.
         -1    1    3    3    0  502 -0.14490832800E+01  0.77345817492E+01  0.44003210469E+02  0.44701298961E+02  0.00000000000E+00 0.  1.
         13    1    5    5    0    0 -0.33394745194E+03  0.51643875368E+02 -0.95061877167E+03  0.10088924817E+04  0.00000000000E+00 0.  1.
        -13    1    5    5    0    0 -0.11441517722E+03  0.50256124693E+02 -0.50598623030E+03  0.52118957789E+03  0.00000000000E+00 0. -1.
          1    1    6    6  503    0  0.15317413960E+03 -0.12360257827E+01 -0.39484529973E+03  0.42351700736E+03  0.00000000000E+00 0. -1.
         -1    1    6    6    0  503  0.27443538575E+03 -0.40542382309E+02 -0.11195903431E+04  0.11534474423E+04  0.00000000000E+00 0.  1.
<mgrwt>
<rscale>  0 0.13734888E+04</rscale>
<asrwt>0</asrwt>
<pdfrwt beam="1">  1        4 0.47235142E+00 0.13734888E+04</pdfrwt>
<pdfrwt beam="2">  1       -3 0.23631883E-01 0.13734888E+04</pdfrwt>
<totfact> 0.77587936E-02</totfact>
</mgrwt>
</event>
<event>
12    7  0.1909736E-007  0.1795632E+04  0.7818608E-02  0.8708626E-01
         -1   -1    0    0    0  501 -0.00000000000E+00  0.00000000000E+00  0.67534116617E+03  0.67534116617E+03  0.00000000000E+00 0.  1.
          2   -1    0    0  501    0  0.00000000000E+00 -0.00000000000E+00 -0.11935802916E+04  0.11935802916E+04  0.00000000000E+00 0. -1.
         24    2    1    2    0    0 -0.46555574312E+03 -0.52212669661E+02 -0.78486866030E+03  0.91741403601E+03  0.78494501312E+02 0.  0.
        254    2    1    2    0    0  0.46555574312E+03  0.52212669661E+02  0.26662953485E+03  0.95150742177E+03  0.78409613696E+03 0.  0.
         23    2    4    4    0    0 -0.29127357021E+02  0.27068351928E+03 -0.85358128911E+02  0.29996963144E+03  0.92616408232E+02 0.  0.
         23    2    4    4    0    0  0.49468310014E+03 -0.21847084962E+03  0.35198766376E+03  0.65153779033E+03  0.90362022380E+02 0.  0.
          2    1    3    3  502    0 -0.46236531200E+03 -0.55289387550E+02 -0.78527864606E+03  0.91296284156E+03  0.00000000000E+00 0. -1.
         -1    1    3    3    0  502 -0.31904311196E+01  0.30767178889E+01  0.40998576648E+00  0.44511944493E+01  0.00000000000E+00 0.  1.
         13    1    5    5    0    0 -0.55885408953E+02  0.10359077835E+03 -0.44912786010E+02  0.12598169169E+03  0.00000000000E+00 0. -1.
        -13    1    5    5    0    0  0.26758051932E+02  0.16709274093E+03 -0.40445342902E+02  0.17398793975E+03  0.00000000000E+00 0.  1.
          2    1    6    6  503    0  0.13223421867E+03 -0.22827949621E+02  0.11238314008E+03  0.17503420822E+03  0.00000000000E+00 0. -1.
         -2    1    6    6    0  503  0.36244888147E+03 -0.19564290000E+03  0.23960452368E+03  0.47650358211E+03  0.00000000000E+00 0.  1.
<mgrwt>
<rscale>  0 0.17956324E+04</rscale>
<asrwt>0</asrwt>
<pdfrwt beam="1">  1        2 0.18362774E+00 0.17956324E+04</pdfrwt>
<pdfrwt beam="2">  1       -1 0.10389864E+00 0.17956324E+04</pdfrwt>
<totfact> 0.17957103E+01</totfact>
</mgrwt>
</event>
<event>
12    7  0.1909736E-007  0.1813063E+04  0.7818608E-02  0.8699383E-01
         -3   -1    0    0    0  501 -0.00000000000E+00  0.00000000000E+00  0.13279361182E+04  0.13279361182E+04  0.00000000000E+00 0.  1.
          2   -1    0    0  501    0  0.00000000000E+00 -0.00000000000E+00 -0.61885475740E+03  0.61885475740E+03  0.00000000000E+00 0. -1.
         24    2    1    2    0    0 -0.33451557150E+03  0.41674724519E+03 -0.17765148430E+03  0.56891374747E+03  0.80770466401E+02 0.  0.
        254    2    1    2    0    0  0.33451557150E+03 -0.41674724519E+03  0.88673284507E+03  0.13778771281E+04  0.90921466534E+03 0.  0.
         23    2    4    4    0    0  0.96332069434E+02 -0.56583543899E+03  0.91241473597E+03  0.10816074755E+04  0.89019486181E+02 0.  0.
         23    2    4    4    0    0  0.23818350206E+03  0.14908819380E+03 -0.25681890894E+02  0.29626965265E+03  0.90318754280E+02 0.  0.
          4    1    3    3  502    0 -0.28780614349E+03  0.37471028960E+03 -0.18104599881E+03  0.50598204617E+03  0.00000000000E+00 0. -1.
         -3    1    3    3    0  502 -0.46709428010E+02  0.42036955588E+02  0.33945145078E+01  0.62931701303E+02  0.00000000000E+00 0.  1.
         13    1    5    5    0    0  0.19083394542E+02 -0.35904273007E+03  0.54249363295E+03  0.65082655121E+03  0.00000000000E+00 0. -1.
        -13    1    5    5    0    0  0.77248674892E+02 -0.20679270892E+03  0.36992110301E+03  0.43078092424E+03  0.00000000000E+00 0.  1.
          1    1    6    6  503    0  0.25026480856E+02  0.57821012676E+02 -0.10750038599E+02  0.63915237470E+02  0.00000000000E+00 0.  1.
         -1    1    6    6    0  503  0.21315702121E+03  0.91267181126E+02 -0.14931852295E+02  0.23235441518E+03  0.00000000000E+00 0. -1.
<mgrwt>
<rscale>  0 0.18130632E+04</rscale>
<asrwt>0</asrwt>
<pdfrwt beam="1">  1        2 0.95208425E-01 0.18130632E+04</pdfrwt>
<pdfrwt beam="2">  1       -3 0.20429786E+00 0.18130632E+04</pdfrwt>
<totfact> 0.38837582E+00</totfact>
</mgrwt>
</event>
<event>
12    7  0.1909736E-007  0.2148357E+04  0.7818608E-02  0.8540236E-01
         -1   -1    0    0    0  501 -0.00000000000E+00  0.00000000000E+00  0.76682715882E+03  0.76682715882E+03  0.00000000000E+00 0.  1.
          2   -1    0    0  501    0  0.00000000000E+00 -0.00000000000E+00 -0.15047185862E+04  0.15047185862E+04  0.00000000000E+00 0. -1.
         24    2    1    2    0    0 -0.25072797837E+03 -0.19255765978E+03  0.56546150790E+03  0.65274373509E+03  0.79904288386E+02 0.  0.
        254    2    1    2    0    0  0.25072797837E+03  0.19255765978E+03 -0.13033529353E+04  0.16188020100E+04  0.90655838311E+03 0.  0.
         23    2    4    4    0    0  0.46292435601E+03  0.16118790156E+03 -0.12927903017E+04  0.13856544288E+04  0.91928956130E+02 0.  0.
         23    2    4    4    0    0 -0.21219637763E+03  0.31369758219E+02 -0.10562633615E+02  0.23314758113E+03  0.90746134616E+02 0.  0.
          2    1    3    3  502    0 -0.60474024563E+01  0.27447936730E+01  0.44179291131E+02  0.44675661535E+02  0.00000000000E+00 0. -1.
         -1    1    3    3    0  502 -0.24468057592E+03 -0.19530245346E+03  0.52128221677E+03  0.60806807355E+03  0.00000000000E+00 0.  1.
         13    1    5    5    0    0  0.10624941117E+03  0.13246581164E+02 -0.20351924807E+03  0.22996628801E+03  0.00000000000E+00 0.  1.
        -13    1    5    5    0    0  0.35667494484E+03  0.14794132040E+03 -0.10892710536E+04  0.11556881408E+04  0.00000000000E+00 0. -1.
          3    1    6    6  503    0 -0.11906075559E+03  0.49775363199E+02  0.25591052794E+02  0.13155969096E+03  0.00000000000E+00 0. -1.
         -3    1    6    6    0  503 -0.93135622048E+02 -0.18405604980E+02 -0.36153686409E+02  0.10158789017E+03  0.00000000000E+00 0.  1.
<mgrwt>
<rscale>  0 0.21483567E+04</rscale>
<asrwt>0</asrwt>
<pdfrwt beam="1">  1        2 0.23149516E+00 0.21483567E+04</pdfrwt>
<pdfrwt beam="2">  1       -1 0.11797341E+00 0.21483567E+04</pdfrwt>
<totfact> 0.85150388E+00</totfact>
</mgrwt>
</event>
<event>
12    7  0.1909736E-007  0.3815209E+04  0.7818608E-02  0.8042899E-01
         -1   -1    0    0    0  501 -0.00000000000E+00  0.00000000000E+00  0.20058525834E+04  0.20058525834E+04  0.00000000000E+00 0.  1.
          2   -1    0    0  501    0  0.00000000000E+00 -0.00000000000E+00 -0.18141690302E+04  0.18141690302E+04  0.00000000000E+00 0. -1.
         24    2    1    2    0    0 -0.11569022392E+04 -0.99506528005E+03 -0.86978730880E+03  0.17581968940E+04  0.78413345719E+02 0.  0.
        254    2    1    2    0    0  0.11569022392E+04  0.99506528005E+03  0.10614708620E+04  0.20618247196E+04  0.89208916644E+03 0.  0.
         23    2    4    4    0    0 -0.77627146982E+01  0.44525593142E+03  0.13858794239E+03  0.47473976664E+03  0.88646060512E+02 0.  0.
         23    2    4    4    0    0  0.11646649539E+04  0.54980934862E+03  0.92288291957E+03  0.15870849530E+04  0.91602346810E+02 0.  0.
          2    1    3    3  502    0 -0.87021297800E+03 -0.71920692673E+03 -0.61254163597E+03  0.12844206812E+04  0.00000000000E+00 0. -1.
         -1    1    3    3    0  502 -0.28668926123E+03 -0.27585835332E+03 -0.25724567283E+03  0.47377621277E+03  0.00000000000E+00 0.  1.
         13    1    5    5    0    0 -0.27661974881E+02  0.16944740692E+03  0.16562910857E+02  0.17248750268E+03  0.00000000000E+00 0.  1.
        -13    1    5    5    0    0  0.19899260182E+02  0.27580852451E+03  0.12202503153E+03  0.30225226396E+03  0.00000000000E+00 0. -1.
          1    1    6    6  503    0  0.18388595834E+03  0.53650598500E+02  0.15264754748E+03  0.24493612666E+03  0.00000000000E+00 0. -1.
         -1    1    6    6    0  503  0.98077899560E+03  0.49615875012E+03  0.77023537209E+03  0.13421488263E+04  0.00000000000E+00 0.  1.
<mgrwt>
<rscale>  0 0.38152094E+04</rscale>
<asrwt>0</asrwt>
<pdfrwt beam="1">  1        2 0.27910293E+00 0.38152094E+04</pdfrwt>
<pdfrwt beam="2">  1       -1 0.30859270E+00 0.38152094E+04</pdfrwt>
<totfact> 0.22426041E-01</totfact>
</mgrwt>
</event>
<event>
12    7  0.1909736E-007  0.2395219E+04  0.7818608E-02  0.8441296E-01
          2   -1    0    0  501    0  0.00000000000E+00  0.00000000000E+00  0.20993546912E+04  0.20993546912E+04  0.00000000000E+00 0. -1.
         -1   -1    0    0    0  501 -0.00000000000E+00 -0.00000000000E+00 -0.68319507330E+03  0.68319507330E+03  0.00000000000E+00 0.  1.
         24    2    1    2    0    0 -0.54858050755E+03  0.25712491077E+03  0.15700457714E+04  0.16846908789E+04  0.78011793917E+02 0.  0.
        254    2    1    2    0    0  0.54858050755E+03 -0.25712491077E+03 -0.15388615356E+03  0.10978588856E+04  0.90252944074E+03 0.  0.
         23    2    4    4    0    0 -0.16163441762E+03 -0.31391297113E+03 -0.93593029756E+02  0.37697329831E+03  0.93178184223E+02 0.  0.
         23    2    4    4    0    0  0.71021492518E+03  0.56788060365E+02 -0.60293123803E+02  0.72088558728E+03  0.91709571048E+02 0.  0.
          4    1    3    3  502    0 -0.39676527313E+03  0.21823386320E+03  0.12129841844E+04  0.12947506836E+04  0.00000000000E+00 0. -1.
         -3    1    3    3    0  502 -0.15181523442E+03  0.38891047568E+02  0.35706158707E+03  0.38994019534E+03  0.00000000000E+00 0.  1.
         13    1    5    5    0    0 -0.61051425221E+02 -0.13853057782E+03  0.61880992306E+01  0.15151333302E+03  0.00000000000E+00 0.  1.
        -13    1    5    5    0    0 -0.10058299240E+03 -0.17538239332E+03 -0.99781128987E+02  0.22545996529E+03  0.00000000000E+00 0. -1.
          3    1    6    6  503    0  0.52012274857E+03  0.21146604800E+02 -0.79264717459E+02  0.52655270193E+03  0.00000000000E+00 0.  1.
         -3    1    6    6    0  503  0.19009217660E+03  0.35641455565E+02  0.18971593656E+02  0.19433288534E+03  0.00000000000E+00 0. -1.
<mgrwt>
<rscale>  0 0.23952192E+04</rscale>
<asrwt>0</asrwt>
<pdfrwt beam="1">  1        2 0.32297764E+00 0.23952192E+04</pdfrwt>
<pdfrwt beam="2">  1       -1 0.10510694E+00 0.23952192E+04</pdfrwt>
<totfact> 0.51121367E+00</totfact>
</mgrwt>
</event>
<event>
12    7  0.1909736E-007  0.2003999E+04  0.7818608E-02  0.8604753E-01
         -1   -1    0    0    0  501 -0.00000000000E+00  0.00000000000E+00  0.70566367572E+03  0.70566367572E+03  0.00000000000E+00 0.  1.
          2   -1    0    0  501    0  0.00000000000E+00 -0.00000000000E+00 -0.14227787371E+04  0.14227787371E+04  0.00000000000E+00 0. -1.
         24    2    1    2    0    0  0.33307762217E+03  0.11927925727E+03 -0.10477617712E+04  0.11087393052E+04  0.79560505926E+02 0.  0.
        254    2    1    2    0    0 -0.33307762217E+03 -0.11927925727E+03  0.33064670982E+03  0.10197031076E+04  0.89738449807E+03 0.  0.
         23    2    4    4    0    0  0.93089514706E+02 -0.21092665146E+03  0.48861837735E+03  0.54707149257E+03  0.85927814237E+02 0.  0.
         23    2    4    4    0    0 -0.42616713688E+03  0.91647394181E+02 -0.15797166753E+03  0.47263161505E+03  0.91694723896E+02 0.  0.
          4    1    3    3  502    0  0.95174632465E+02  0.68814356307E+01 -0.35792007712E+03  0.37042184929E+03  0.00000000000E+00 0. -1.
         -3    1    3    3    0  502  0.23790298971E+03  0.11239782164E+03 -0.68984169408E+03  0.73831745592E+03  0.00000000000E+00 0.  1.
         13    1    5    5    0    0  0.83581816451E+01 -0.54680607317E+02  0.53090744447E+02  0.76671084269E+02  0.00000000000E+00 0. -1.
        -13    1    5    5    0    0  0.84731333060E+02 -0.15624604414E+03  0.43552763290E+03  0.47040040830E+03  0.00000000000E+00 0.  1.
          2    1    6    6  503    0 -0.44083071611E+02  0.82906695019E+01 -0.49490224449E+02  0.66793223605E+02  0.00000000000E+00 0. -1.
         -2    1    6    6    0  503 -0.38208406527E+03  0.83356724679E+02 -0.10848144308E+03  0.40583839145E+03  0.00000000000E+00 0.  1.
<mgrwt>
<rscale>  0 0.20039993E+04</rscale>
<asrwt>0</asrwt>
<pdfrwt beam="1">  1        2 0.21888903E+00 0.20039993E+04</pdfrwt>
<pdfrwt beam="2">  1       -1 0.10856364E+00 0.20039993E+04</pdfrwt>
<totfact> 0.11701227E+01</totfact>
</mgrwt>
</event>
<event>
12    7  0.1909736E-007  0.1429005E+04  0.7818608E-02  0.8933087E-01
         -1   -1    0    0    0  501 -0.00000000000E+00  0.00000000000E+00  0.55387251598E+03  0.55387251598E+03  0.00000000000E+00 0.  1.
          2   -1    0    0  501    0  0.00000000000E+00 -0.00000000000E+00 -0.92171691210E+03  0.92171691210E+03  0.00000000000E+00 0. -1.
         24    2    1    2    0    0 -0.19896951174E+03 -0.13417837533E+03 -0.49236762759E+03  0.55331071355E+03  0.78320891356E+02 0.  0.
        254    2    1    2    0    0  0.19896951174E+03  0.13417837533E+03  0.12452323147E+03  0.92227871453E+03  0.88175920131E+03 0.  0.
         23    2    4    4    0    0  0.50025993253E+03  0.12934547810E+03  0.25253294605E+03  0.58282655911E+03  0.94465106607E+02 0.  0.
         23    2    4    4    0    0 -0.30129042079E+03  0.48328972264E+01 -0.12800971458E+03  0.33945215542E+03  0.89677222498E+02 0.  0.
          4    1    3    3  502    0 -0.17557717293E+03 -0.80490812411E+02 -0.35924741400E+03  0.40787843655E+03  0.00000000000E+00 0. -1.
         -3    1    3    3    0  502 -0.23392338810E+02 -0.53687562921E+02 -0.13312021359E+03  0.14543227700E+03  0.00000000000E+00 0.  1.
         13    1    5    5    0    0  0.15795573182E+03  0.21172715342E+02  0.35313059735E+02  0.16323390970E+03  0.00000000000E+00 0.  1.
        -13    1    5    5    0    0  0.34230420071E+03  0.10817276276E+03  0.21721988632E+03  0.41959264941E+03  0.00000000000E+00 0. -1.
          2    1    6    6  503    0 -0.17177086479E+03 -0.26984924851E+02 -0.36391852975E+02  0.17764510442E+03  0.00000000000E+00 0. -1.
         -2    1    6    6    0  503 -0.12951955600E+03  0.31817822078E+02 -0.91617861608E+02  0.16180705100E+03  0.00000000000E+00 0.  1.
<mgrwt>
<rscale>  0 0.14290048E+04</rscale>
<asrwt>0</asrwt>
<pdfrwt beam="1">  1        2 0.14180260E+00 0.14290048E+04</pdfrwt>
<pdfrwt beam="2">  1       -1 0.85211157E-01 0.14290048E+04</pdfrwt>
<totfact> 0.42804400E+01</totfact>
</mgrwt>
</event>
<event>
12    7  0.1909736E-007  0.1643025E+04  0.7818608E-02  0.8794543E-01
         -1   -1    0    0    0  501 -0.00000000000E+00  0.00000000000E+00  0.80586898724E+03  0.80586898724E+03  0.00000000000E+00 0.  1.
          2   -1    0    0  501    0  0.00000000000E+00 -0.00000000000E+00 -0.83745976160E+03  0.83745976160E+03  0.00000000000E+00 0. -1.
         24    2    1    2    0    0  0.27114031304E+03  0.50179122872E+03 -0.35434534325E+02  0.57718496741E+03  0.81088678702E+02 0.  0.
        254    2    1    2    0    0 -0.27114031304E+03 -0.50179122872E+03  0.38437599655E+01  0.10661437814E+04  0.90074207274E+03 0.  0.
         23    2    4    4    0    0 -0.13386710304E+03 -0.50485653301E+03 -0.37730530482E+03  0.65067312317E+03  0.90640498517E+02 0.  0.
         23    2    4    4    0    0 -0.13727321000E+03  0.30653042958E+01  0.38114906478E+03  0.41547065826E+03  0.92129951762E+02 0.  0.
          2    1    3    3  502    0  0.70914037883E+02  0.16082426724E+03  0.23778821399E+02  0.17736594388E+03  0.00000000000E+00 0. -1.
         -1    1    3    3    0  502  0.20022627515E+03  0.34096696148E+03 -0.59213355724E+02  0.39981902353E+03  0.00000000000E+00 0.  1.
         13    1    5    5    0    0 -0.12242755909E+03 -0.48970528504E+03 -0.33937168397E+03  0.60825398749E+03  0.00000000000E+00 0. -1.
        -13    1    5    5    0    0 -0.11439543950E+02 -0.15151247974E+02 -0.37933620853E+02  0.42419135681E+02  0.00000000000E+00 0.  1.
          3    1    6    6  503    0 -0.75779171491E+02 -0.22020293246E+01  0.31899011857E+03  0.32787501812E+03  0.00000000000E+00 0. -1.
         -3    1    6    6    0  503 -0.61494038510E+02  0.52673336205E+01  0.62158946216E+02  0.87595640134E+02  0.00000000000E+00 0.  1.
<mgrwt>
<rscale>  0 0.16430251E+04</rscale>
<asrwt>0</asrwt>
<pdfrwt beam="1">  1        2 0.12883996E+00 0.16430251E+04</pdfrwt>
<pdfrwt beam="2">  1       -1 0.12397984E+00 0.16430251E+04</pdfrwt>
<totfact> 0.20186793E+01</totfact>
</mgrwt>
</event>
<event>
12    7  0.1909736E-007  0.1446873E+04  0.7818608E-02  0.8920571E-01
         -1   -1    0    0    0  501 -0.00000000000E+00  0.00000000000E+00  0.89309745905E+03  0.89309745905E+03  0.00000000000E+00 0.  1.
          2   -1    0    0  501    0  0.00000000000E+00 -0.00000000000E+00 -0.58600577816E+03  0.58600577816E+03  0.00000000000E+00 0. -1.
         24    2    1    2    0    0  0.40036471159E+03 -0.67701331423E+02 -0.71267635408E+02  0.41997172731E+03  0.80136154888E+02 0.  0.
        254    2    1    2    0    0 -0.40036471159E+03  0.67701331423E+02  0.37835931630E+03  0.10591315099E+04  0.90206896104E+03 0.  0.
         23    2    4    4    0    0 -0.25452720489E+03 -0.14245276665E+03 -0.23692473691E+03  0.38666423680E+03  0.91098914946E+02 0.  0.
         23    2    4    4    0    0 -0.14583750670E+03  0.21015409807E+03  0.61528405321E+03  0.67246727311E+03  0.90578385771E+02 0.  0.
          4    1    3    3  502    0  0.26460063658E+03 -0.30799534999E+02 -0.10150948239E+02  0.26658047563E+03  0.00000000000E+00 0. -1.
         -3    1    3    3    0  502  0.13576407501E+03 -0.36901796425E+02 -0.61116687169E+02  0.15339125168E+03  0.00000000000E+00 0.  1.
         13    1    5    5    0    0 -0.80793693072E+02 -0.61776872604E+02 -0.13697228071E+03  0.17060307299E+03  0.00000000000E+00 0.  1.
        -13    1    5    5    0    0 -0.17373351181E+03 -0.80675894044E+02 -0.99952456200E+02  0.21606116381E+03  0.00000000000E+00 0. -1.
          3    1    6    6  503    0 -0.16732645514E+02  0.29975228917E+02  0.18802187266E+03  0.19113011373E+03  0.00000000000E+00 0. -1.
         -3    1    6    6    0  503 -0.12910486119E+03  0.18017886915E+03  0.42726218054E+03  0.48133715938E+03  0.00000000000E+00 0.  1.
<mgrwt>
<rscale>  0 0.14468729E+04</rscale>
<asrwt>0</asrwt>
<pdfrwt beam="1">  1        2 0.90154735E-01 0.14468729E+04</pdfrwt>
<pdfrwt beam="2">  1       -1 0.13739961E+00 0.14468729E+04</pdfrwt>
<totfact> 0.24904964E+01</totfact>
</mgrwt>
</event>
<event>
12    7  0.1909736E-007  0.1298353E+04  0.7818608E-02  0.9030872E-01
         -1   -1    0    0    0  501 -0.00000000000E+00  0.00000000000E+00  0.62830871817E+03  0.62830871817E+03  0.00000000000E+00 0.  1.
          2   -1    0    0  501    0  0.00000000000E+00 -0.00000000000E+00 -0.67073715187E+03  0.67073715187E+03  0.00000000000E+00 0. -1.
         24    2    1    2    0    0  0.14025246445E+03 -0.26901798619E+03  0.51532552764E+02  0.31773582362E+03  0.79113961708E+02 0.  0.
        254    2    1    2    0    0 -0.14025246445E+03  0.26901798619E+03 -0.93960986467E+02  0.98131004643E+03  0.92849303151E+03 0.  0.
         23    2    4    4    0    0  0.31826328423E+03  0.22851377510E+03  0.17642388818E+03  0.43942429148E+03  0.91968777989E+02 0.  0.
         23    2    4    4    0    0 -0.45851574868E+03  0.40504211090E+02 -0.27038487464E+03  0.54188575494E+03  0.93031758404E+02 0.  0.
          4    1    3    3  502    0  0.11364515018E+03 -0.16585162352E+03  0.62719288302E+02  0.21060790657E+03  0.00000000000E+00 0. -1.
         -3    1    3    3    0  502  0.26607314270E+02 -0.10316636267E+03 -0.11186735538E+02  0.10712791705E+03  0.00000000000E+00 0.  1.
         13    1    5    5    0    0  0.11008064807E+03  0.92159892277E+02  0.11274312910E+03  0.18254371527E+03  0.00000000000E+00 0. -1.
        -13    1    5    5    0    0  0.20818263616E+03  0.13635388283E+03  0.63680759075E+02  0.25688057622E+03  0.00000000000E+00 0.  1.
          4    1    6    6  503    0 -0.32956888344E+03  0.44199992505E+02 -0.14764749811E+03  0.36382560653E+03  0.00000000000E+00 0.  1.
         -4    1    6    6    0  503 -0.12894686525E+03 -0.36957814156E+01 -0.12273737653E+03  0.17806014842E+03  0.00000000000E+00 0. -1.
<mgrwt>
<rscale>  0 0.12983528E+04</rscale>
<asrwt>0</asrwt>
<pdfrwt beam="1">  1        2 0.10319033E+00 0.12983528E+04</pdfrwt>
<pdfrwt beam="2">  1       -1 0.96662880E-01 0.12983528E+04</pdfrwt>
<totfact> 0.49882030E+01</totfact>
</mgrwt>
</event>
<event>
12    7  0.1909736E-007  0.1763855E+04  0.7818608E-02  0.8725761E-01
          2   -1    0    0  501    0  0.00000000000E+00  0.00000000000E+00  0.75640464091E+03  0.75640464091E+03  0.00000000000E+00 0. -1.
         -1   -1    0    0    0  501 -0.00000000000E+00 -0.00000000000E+00 -0.10282805592E+04  0.10282805592E+04  0.00000000000E+00 0.  1.
         24    2    1    2    0    0 -0.60121124742E+03 -0.51805723978E+02  0.16896592082E+03  0.63189145894E+03  0.81231375852E+02 0.  0.
        254    2    1    2    0    0  0.60121124742E+03  0.51805723978E+02 -0.44084183916E+03  0.11527937412E+04  0.87775457022E+03 0.  0.
         23    2    4    4    0    0  0.73565449069E+03  0.68758258168E+02 -0.57547144709E+03  0.94104993255E+03  0.92154009103E+02 0.  0.
         23    2    4    4    0    0 -0.13444324326E+03 -0.16952534189E+02  0.13462960793E+03  0.21174380866E+03  0.91367035085E+02 0.  0.
          2    1    3    3  502    0 -0.57021749633E+03 -0.64533985125E+02  0.14899122323E+03  0.59288364201E+03  0.00000000000E+00 0. -1.
         -1    1    3    3    0  502 -0.30993751091E+02  0.12728261147E+02  0.19974697585E+02  0.39007816936E+02  0.00000000000E+00 0.  1.
         13    1    5    5    0    0  0.18314855776E+03 -0.15202753762E+02 -0.11371729738E+03  0.21611603748E+03  0.00000000000E+00 0.  1.
        -13    1    5    5    0    0  0.55250593292E+03  0.83961011930E+02 -0.46175414971E+03  0.72493389507E+03  0.00000000000E+00 0. -1.
          3    1    6    6  503    0 -0.43563256395E+02 -0.11339424742E+01  0.10686644108E+03  0.11541004879E+03  0.00000000000E+00 0. -1.
         -3    1    6    6    0  503 -0.90879986867E+02 -0.15818591715E+02  0.27763166852E+02  0.96333759869E+02  0.00000000000E+00 0.  1.
<mgrwt>
<rscale>  0 0.17638551E+04</rscale>
<asrwt>0</asrwt>
<pdfrwt beam="1">  1        2 0.11636994E+00 0.17638551E+04</pdfrwt>
<pdfrwt beam="2">  1       -1 0.15819701E+00 0.17638551E+04</pdfrwt>
<totfact> 0.12091563E+01</totfact>
</mgrwt>
</event>
<event>
12    7  0.1909736E-007  0.3081919E+04  0.7818608E-02  0.8220718E-01
          2   -1    0    0  501    0  0.00000000000E+00  0.00000000000E+00  0.30255272445E+04  0.30255272445E+04  0.00000000000E+00 0. -1.
         -1   -1    0    0    0  501 -0.00000000000E+00 -0.00000000000E+00 -0.78484031403E+03  0.78484031403E+03  0.00000000000E+00 0.  1.
         24    2    1    2    0    0  0.62221788925E+03  0.44312405361E+03 -0.43679450277E+03  0.88353853597E+03  0.79604511884E+02 0.  0.
        254    2    1    2    0    0 -0.62221788925E+03 -0.44312405361E+03  0.26774814332E+04  0.29268290226E+04  0.90216809595E+03 0.  0.
         23    2    4    4    0    0  0.52614322383E+02 -0.44633801960E+03  0.14792791925E+04  0.15486319840E+04  0.89488533608E+02 0.  0.
         23    2    4    4    0    0 -0.67483221163E+03  0.32139659910E+01  0.11982022407E+04  0.13781970386E+04  0.91266774395E+02 0.  0.
          4    1    3    3  502    0  0.63574058081E+02  0.77564415142E+02 -0.62089089594E+02  0.11795318734E+03  0.00000000000E+00 0. -1.
         -3    1    3    3    0  502  0.55864383117E+03  0.36555963846E+03 -0.37470541317E+03  0.76558534863E+03  0.00000000000E+00 0.  1.
         13    1    5    5    0    0  0.21930311612E+02 -0.27701049363E+03  0.10499501885E+04  0.10860990519E+04  0.00000000000E+00 0.  1.
        -13    1    5    5    0    0  0.30684010771E+02 -0.16932752597E+03  0.42932900401E+03  0.46253293208E+03  0.00000000000E+00 0. -1.
          4    1    6    6  503    0 -0.93345899552E+02  0.31943244637E+02  0.16438971764E+03  0.19172325656E+03  0.00000000000E+00 0. -1.
         -4    1    6    6    0  503 -0.58148631208E+03 -0.28729278646E+02  0.10338125231E+04  0.11864737820E+04  0.00000000000E+00 0.  1.
<mgrwt>
<rscale>  0 0.30819187E+04</rscale>
<asrwt>0</asrwt>
<pdfrwt beam="1">  1        2 0.46546572E+00 0.30819187E+04</pdfrwt>
<pdfrwt beam="2">  1       -1 0.12074467E+00 0.30819187E+04</pdfrwt>
<totfact> 0.98761768E-01</totfact>
</mgrwt>
</event>
<event>
12    7  0.1909736E-007  0.1413430E+04  0.7818608E-02  0.8944154E-01
          2   -1    0    0  501    0  0.00000000000E+00  0.00000000000E+00  0.36744699758E+04  0.36744699758E+04  0.00000000000E+00 0. -1.
         -1   -1    0    0    0  501 -0.00000000000E+00 -0.00000000000E+00 -0.13592325664E+03  0.13592325664E+03  0.00000000000E+00 0.  1.
         24    2    1    2    0    0 -0.11393797021E+03 -0.12432787996E+03  0.21228759952E+04  0.21311460898E+04  0.82108968042E+02 0.  0.
        254    2    1    2    0    0  0.11393797021E+03  0.12432787996E+03  0.14156707240E+04  0.16792471426E+04  0.88730382867E+03 0.  0.
         23    2    4    4    0    0  0.48818524300E+03 -0.25106715091E+01  0.79788079140E+03  0.93972451141E+03  0.90206790722E+02 0.  0.
         23    2    4    4    0    0 -0.37424727279E+03  0.12683855146E+03  0.61778993261E+03  0.73952263121E+03  0.95290513227E+02 0.  0.
          2    1    3    3  502    0 -0.65763103480E+02 -0.86266202618E+02  0.17400725541E+04  0.17434503541E+04  0.00000000000E+00 0. -1.
         -1    1    3    3    0  502 -0.48174866731E+02 -0.38061677337E+02  0.38280344102E+03  0.38769573576E+03  0.00000000000E+00 0.  1.
         13    1    5    5    0    0  0.20162915738E+03 -0.26536781890E+02  0.26313803432E+03  0.33256599797E+03  0.00000000000E+00 0. -1.
        -13    1    5    5    0    0  0.28655608562E+03  0.24026110381E+02  0.53474275709E+03  0.60715851344E+03  0.00000000000E+00 0.  1.
          4    1    6    6  503    0 -0.36553132992E+02 -0.14366735241E+02  0.78067190847E+02  0.87390050348E+02  0.00000000000E+00 0. -1.
         -4    1    6    6    0  503 -0.33769413980E+03  0.14120528671E+03  0.53972274177E+03  0.65213258087E+03  0.00000000000E+00 0.  1.
<mgrwt>
<rscale>  0 0.14134298E+04</rscale>
<asrwt>0</asrwt>
<pdfrwt beam="1">  1        2 0.56530300E+00 0.14134298E+04</pdfrwt>
<pdfrwt beam="2">  1       -1 0.20911273E-01 0.14134298E+04</pdfrwt>
<totfact> 0.13071405E+01</totfact>
</mgrwt>
</event>
<event>
12    7  0.1909736E-007  0.2079715E+04  0.7818608E-02  0.8570232E-01
          2   -1    0    0  501    0  0.00000000000E+00  0.00000000000E+00  0.22479655985E+04  0.22479655985E+04  0.00000000000E+00 0. -1.
         -1   -1    0    0    0  501 -0.00000000000E+00 -0.00000000000E+00 -0.48101439292E+03  0.48101439292E+03  0.00000000000E+00 0.  1.
         24    2    1    2    0    0  0.35906875163E+03  0.15478369769E+03 -0.25917725245E+03  0.47651677631E+03  0.83707995158E+02 0.  0.
        254    2    1    2    0    0 -0.35906875163E+03 -0.15478369769E+03  0.20261284580E+04  0.22524632151E+04  0.90305351198E+03 0.  0.
         23    2    4    4    0    0 -0.29007119636E+03  0.11671928056E+03  0.19086455471E+04  0.19364583764E+04  0.95804642537E+02 0.  0.
         23    2    4    4    0    0 -0.68997555266E+02 -0.27150297825E+03  0.11748291087E+03  0.31600483868E+03  0.87076368177E+02 0.  0.
          4    1    3    3  502    0  0.10994220760E+03  0.39718622707E+02 -0.34571349012E+02  0.12190174804E+03  0.00000000000E+00 0. -1.
         -3    1    3    3    0  502  0.24912654403E+03  0.11506507498E+03 -0.22460590344E+03  0.35461502828E+03  0.00000000000E+00 0.  1.
         13    1    5    5    0    0 -0.62684429249E+02 -0.12763587694E+02  0.45067246721E+03  0.45518998181E+03  0.00000000000E+00 0.  1.
        -13    1    5    5    0    0 -0.22738676711E+03  0.12948286825E+03  0.14579730799E+04  0.14812683946E+04  0.00000000000E+00 0. -1.
          1    1    6    6  503    0 -0.58601748678E+02 -0.22025671648E+03  0.12979342613E+03  0.26228518748E+03  0.00000000000E+00 0. -1.
         -1    1    6    6    0  503 -0.10395806588E+02 -0.51246261764E+02 -0.12310515262E+02  0.53719651203E+02  0.00000000000E+00 0.  1.
<mgrwt>
<rscale>  0 0.20797152E+04</rscale>
<asrwt>0</asrwt>
<pdfrwt beam="1">  1        2 0.34584085E+00 0.20797152E+04</pdfrwt>
<pdfrwt beam="2">  1       -1 0.74002216E-01 0.20797152E+04</pdfrwt>
<totfact> 0.93738323E+00</totfact>
</mgrwt>
</event>
<event>
12    7  0.3565791E-007  0.1519161E+04  0.7818608E-02  0.8871810E-01
         -1   -1    0    0    0  501 -0.00000000000E+00  0.00000000000E+00  0.37582059743E+03  0.37582059743E+03  0.00000000000E+00 0.  1.
          2   -1    0    0  501    0  0.00000000000E+00 -0.00000000000E+00 -0.15352080630E+04  0.15352080630E+04  0.00000000000E+00 0. -1.
         24    2    1    2    0    0  0.20708566584E+03  0.23681860471E+02 -0.93708930274E+03  0.96332921472E+03  0.80134331592E+02 0.  0.
        254    2    1    2    0    0 -0.20708566584E+03 -0.23681860471E+02 -0.22229816286E+03  0.94769944575E+03  0.89736974695E+03 0.  0.
         23    2    4    4    0    0  0.22377907203E+03 -0.78014563286E+02  0.20918828197E+03  0.32876180455E+03  0.90339590740E+02 0.  0.
         23    2    4    4    0    0 -0.43086473787E+03  0.54332702815E+02 -0.43148644483E+03  0.61893764120E+03  0.91141574925E+02 0.  0.
          2    1    3    3  502    0  0.16755110931E+03  0.34388687819E+02 -0.60467372929E+03  0.62839977321E+03  0.00000000000E+00 0. -1.
         -1    1    3    3    0  502  0.39534556532E+02 -0.10706827348E+02 -0.33241557345E+03  0.33492944150E+03  0.00000000000E+00 0.  1.
         13    1    5    5    0    0  0.55014341516E+02  0.16613221561E+02  0.29008771804E+02  0.64374573744E+02  0.00000000000E+00 0. -1.
        -13    1    5    5    0    0  0.16876473051E+03 -0.94627784847E+02  0.18017951017E+03  0.26438723081E+03  0.00000000000E+00 0.  1.
          2    1    6    6  503    0 -0.16600719874E+03 -0.21141156069E+02 -0.14330005662E+03  0.22031850749E+03  0.00000000000E+00 0. -1.
         -2    1    6    6    0  503 -0.26485753913E+03  0.75473858884E+02 -0.28818638821E+03  0.39861913371E+03  0.00000000000E+00 0.  1.
<mgrwt>
<rscale>  0 0.15191614E+04</rscale>
<asrwt>0</asrwt>
<pdfrwt beam="1">  1        2 0.23618586E+00 0.15191614E+04</pdfrwt>
<pdfrwt beam="2">  1       -1 0.57818552E-01 0.15191614E+04</pdfrwt>
<totfact> 0.40392874E+01</totfact>
</mgrwt>
</event>
<event>
12    7  0.1909736E-007  0.1866996E+04  0.7818608E-02  0.8671461E-01
         -1   -1    0    0    0  501 -0.00000000000E+00  0.00000000000E+00  0.11369285235E+04  0.11369285235E+04  0.00000000000E+00 0.  1.
          2   -1    0    0  501    0  0.00000000000E+00 -0.00000000000E+00 -0.76646745764E+03  0.76646745764E+03  0.00000000000E+00 0. -1.
         24    2    1    2    0    0  0.23326760284E+03  0.37576782095E+03  0.71526211651E+03  0.84463773911E+03  0.78726013656E+02 0.  0.
        254    2    1    2    0    0 -0.23326760284E+03 -0.37576782095E+03 -0.34480105063E+03  0.10587582420E+04  0.89803453207E+03 0.  0.
         23    2    4    4    0    0 -0.54848507058E+03 -0.28554448486E+03 -0.35262620479E+03  0.71776212103E+03  0.92009220160E+02 0.  0.
         23    2    4    4    0    0  0.31521746774E+03 -0.90223336096E+02  0.78251541606E+01  0.34099612102E+03  0.93353195817E+02 0.  0.
          4    1    3    3  502    0  0.56102815172E+02  0.57803220797E+02  0.87110152987E+02  0.11864618392E+03  0.00000000000E+00 0. -1.
         -3    1    3    3    0  502  0.17716478766E+03  0.31796460015E+03  0.62815196352E+03  0.72599155519E+03  0.00000000000E+00 0.  1.
         13    1    5    5    0    0 -0.45477426073E+03 -0.26485990347E+03 -0.32225188431E+03  0.61710345456E+03  0.00000000000E+00 0. -1.
        -13    1    5    5    0    0 -0.93710809849E+02 -0.20684581384E+02 -0.30374320476E+02  0.10065866646E+03  0.00000000000E+00 0.  1.
          4    1    6    6  503    0  0.16314237220E+03 -0.64636283644E+02 -0.39136697341E+02  0.17979144543E+03  0.00000000000E+00 0.  1.
         -4    1    6    6    0  503  0.15207509555E+03 -0.25587052452E+02  0.46961851501E+02  0.16120467560E+03  0.00000000000E+00 0. -1.
<mgrwt>
<rscale>  0 0.18669962E+04</rscale>
<asrwt>0</asrwt>
<pdfrwt beam="1">  1        2 0.11791807E+00 0.18669962E+04</pdfrwt>
<pdfrwt beam="2">  1       -1 0.17491208E+00 0.18669962E+04</pdfrwt>
<totfact> 0.88506709E+00</totfact>
</mgrwt>
</event>
<event>
12    7  0.1909736E-007  0.2467811E+04  0.7818608E-02  0.8414544E-01
         -1   -1    0    0    0  501 -0.00000000000E+00  0.00000000000E+00  0.67359777947E+03  0.67359777947E+03  0.00000000000E+00 0.  1.
          2   -1    0    0  501    0  0.00000000000E+00 -0.00000000000E+00 -0.22602849399E+04  0.22602849399E+04  0.00000000000E+00 0. -1.
         24    2    1    2    0    0 -0.65148808608E+03  0.25104975564E+01  0.31591257323E+03  0.72859215602E+03  0.81257288812E+02 0.  0.
        254    2    1    2    0    0  0.65148808608E+03 -0.25104975564E+01 -0.19025997337E+04  0.22052905634E+04  0.90497386335E+03 0.  0.
         23    2    4    4    0    0  0.11352791422E+03 -0.31274166265E+03 -0.21895050071E+03  0.40839680271E+03  0.90292257945E+02 0.  0.
         23    2    4    4    0    0  0.53796017186E+03  0.31023116509E+03 -0.16836492330E+04  0.17968937607E+04  0.92238414213E+02 0.  0.
          2    1    3    3  502    0 -0.82672733910E+02  0.13288596565E+02  0.68593210879E+02  0.10824230370E+03  0.00000000000E+00 0. -1.
         -1    1    3    3    0  502 -0.56881535217E+03 -0.10778099008E+02  0.24731936235E+03  0.62034985233E+03  0.00000000000E+00 0.  1.
         13    1    5    5    0    0  0.72292902735E+02 -0.77906805670E+02 -0.64818202373E+02  0.12448748336E+03  0.00000000000E+00 0.  1.
        -13    1    5    5    0    0  0.41235011484E+02 -0.23483485698E+03 -0.15413229834E+03  0.28390931935E+03  0.00000000000E+00 0. -1.
          2    1    6    6  503    0  0.42055500860E+03  0.27311816980E+03 -0.12739127290E+04  0.13690557662E+04  0.00000000000E+00 0. -1.
         -2    1    6    6    0  503  0.11740516327E+03  0.37112995290E+02 -0.40973650399E+03  0.42783799444E+03  0.00000000000E+00 0.  1.
<mgrwt>
<rscale>  0 0.24678111E+04</rscale>
<asrwt>0</asrwt>
<pdfrwt beam="1">  1        2 0.34773615E+00 0.24678111E+04</pdfrwt>
<pdfrwt beam="2">  1       -1 0.10363043E+00 0.24678111E+04</pdfrwt>
<totfact> 0.42629852E+00</totfact>
</mgrwt>
</event>
<event>
12    7  0.1909736E-007  0.2483027E+04  0.7818608E-02  0.8409057E-01
          2   -1    0    0  501    0  0.00000000000E+00  0.00000000000E+00  0.19588091715E+04  0.19588091715E+04  0.00000000000E+00 0. -1.
         -1   -1    0    0    0  501 -0.00000000000E+00 -0.00000000000E+00 -0.78688389303E+03  0.78688389303E+03  0.00000000000E+00 0.  1.
         24    2    1    2    0    0  0.33436371579E+02 -0.27577543485E+02 -0.67967923265E+03  0.68540844649E+03  0.77086752351E+02 0.  0.
        254    2    1    2    0    0 -0.33436371579E+02  0.27577543485E+02  0.18516045111E+04  0.20602846181E+04  0.90247156737E+03 0.  0.
         23    2    4    4    0    0 -0.32524072701E+03 -0.28811921728E+03  0.71383246824E+03  0.84056624910E+03  0.90557233521E+02 0.  0.
         23    2    4    4    0    0  0.29180435543E+03  0.31569676076E+03  0.11377720429E+04  0.12197183690E+04  0.91506564764E+02 0.  0.
          2    1    3    3  502    0  0.51971474012E+02 -0.77885675879E+01 -0.28539447843E+03  0.29019252956E+03  0.00000000000E+00 0. -1.
         -1    1    3    3    0  502 -0.18535102433E+02 -0.19788975897E+02 -0.39428475422E+03  0.39521591693E+03  0.00000000000E+00 0.  1.
         13    1    5    5    0    0 -0.20999994191E+03 -0.20703901389E+03  0.40383610146E+03  0.50004872334E+03  0.00000000000E+00 0. -1.
        -13    1    5    5    0    0 -0.11524078510E+03 -0.81080203390E+02  0.30999636678E+03  0.34051752576E+03  0.00000000000E+00 0.  1.
          4    1    6    6  503    0 -0.39556945498E+01  0.68470570695E+01  0.62207134915E+01  0.10061162270E+02  0.00000000000E+00 0.  1.
         -4    1    6    6    0  503  0.29576004998E+03  0.30884970369E+03  0.11315513294E+04  0.12096572067E+04  0.00000000000E+00 0. -1.
<mgrwt>
<rscale>  0 0.24830267E+04</rscale>
<asrwt>0</asrwt>
<pdfrwt beam="1">  1        2 0.30135526E+00 0.24830267E+04</pdfrwt>
<pdfrwt beam="2">  1       -1 0.12105906E+00 0.24830267E+04</pdfrwt>
<totfact> 0.43367289E+00</totfact>
</mgrwt>
</event>
<event>
12    7  0.1909736E-007  0.1584081E+04  0.7818608E-02  0.8830388E-01
          2   -1    0    0  501    0  0.00000000000E+00  0.00000000000E+00  0.28028241258E+04  0.28028241258E+04  0.00000000000E+00 0. -1.
         -1   -1    0    0    0  501 -0.00000000000E+00 -0.00000000000E+00 -0.22382006664E+03  0.22382006664E+03  0.00000000000E+00 0.  1.
         24    2    1    2    0    0  0.37528879912E+03  0.26886074230E+03  0.13721299792E+04  0.14499162954E+04  0.79929983640E+02 0.  0.
        254    2    1    2    0    0 -0.37528879912E+03 -0.26886074230E+03  0.12068740799E+04  0.15767278971E+04  0.90354747248E+03 0.  0.
         23    2    4    4    0    0 -0.26904020177E+03 -0.47487070505E+03  0.28588012009E+03  0.62287987573E+03  0.91471743413E+02 0.  0.
         23    2    4    4    0    0 -0.10624859735E+03  0.20600996275E+03  0.92099395985E+03  0.95384802132E+03  0.88697826941E+02 0.  0.
          2    1    3    3  502    0  0.27873265345E+03  0.21654578745E+03  0.11344762942E+04  0.11881163379E+04  0.00000000000E+00 0. -1.
         -1    1    3    3    0  502  0.96556145666E+02  0.52314954847E+02  0.23765368499E+03  0.26179995752E+03  0.00000000000E+00 0.  1.
         13    1    5    5    0    0 -0.13714349304E+03 -0.28576266396E+03  0.12033164912E+03  0.33904032736E+03  0.00000000000E+00 0.  1.
        -13    1    5    5    0    0 -0.13189670873E+03 -0.18910804109E+03  0.16554847096E+03  0.28383954836E+03  0.00000000000E+00 0. -1.
          1    1    6    6  503    0 -0.64103313329E+02  0.15220633921E+03  0.48067112776E+03  0.50825263161E+03  0.00000000000E+00 0. -1.
         -1    1    6    6    0  503 -0.42145284020E+02  0.53803623539E+02  0.44032283209E+03  0.44559538971E+03  0.00000000000E+00 0.  1.
<mgrwt>
<rscale>  0 0.15840812E+04</rscale>
<asrwt>0</asrwt>
<pdfrwt beam="1">  1        2 0.43120369E+00 0.15840812E+04</pdfrwt>
<pdfrwt beam="2">  1       -1 0.34433858E-01 0.15840812E+04</pdfrwt>
<totfact> 0.20208874E+01</totfact>
</mgrwt>
</event>
<event>
12    7  0.1909736E-007  0.1159710E+04  0.7818608E-02  0.9148872E-01
         -1   -1    0    0    0  501 -0.00000000000E+00  0.00000000000E+00  0.26117295885E+03  0.26117295885E+03  0.00000000000E+00 0.  1.
          2   -1    0    0  501    0  0.00000000000E+00 -0.00000000000E+00 -0.12873913043E+04  0.12873913043E+04  0.00000000000E+00 0. -1.
         24    2    1    2    0    0  0.12097125742E+03 -0.12563971795E+03  0.21137338328E+02  0.19339014379E+03  0.80830543709E+02 0.  0.
        254    2    1    2    0    0 -0.12097125742E+03  0.12563971795E+03 -0.10473556838E+04  0.13551741194E+04  0.84209475809E+03 0.  0.
         23    2    4    4    0    0  0.11123532546E+03 -0.31290929894E+03 -0.52775005941E+03  0.63017438933E+03  0.91181734871E+02 0.  0.
         23    2    4    4    0    0 -0.23220658287E+03  0.43854901689E+03 -0.51960562441E+03  0.72499973006E+03  0.96899258650E+02 0.  0.
          4    1    3    3  502    0  0.35541245813E+02 -0.94900419425E+02  0.80017686433E+01  0.10165283106E+03  0.00000000000E+00 0. -1.
         -3    1    3    3    0  502  0.85430011604E+02 -0.30739298529E+02  0.13135569685E+02  0.91737312734E+02  0.00000000000E+00 0.  1.
         13    1    5    5    0    0 -0.67888283639E+01 -0.78860098886E+02 -0.16072248862E+03  0.17915557969E+03  0.00000000000E+00 0.  1.
        -13    1    5    5    0    0  0.11802415382E+03 -0.23404920005E+03 -0.36702757078E+03  0.45101880964E+03  0.00000000000E+00 0. -1.
          3    1    6    6  503    0 -0.23026995796E+03  0.43090680819E+03 -0.52361524060E+03  0.71615490717E+03  0.00000000000E+00 0. -1.
         -3    1    6    6    0  503 -0.19366249174E+01  0.76422086995E+01  0.40096161920E+01  0.88448228860E+01  0.00000000000E+00 0.  1.
<mgrwt>
<rscale>  0 0.11597100E+04</rscale>
<asrwt>0</asrwt>
<pdfrwt beam="1">  1        2 0.19806020E+00 0.11597100E+04</pdfrwt>
<pdfrwt beam="2">  1       -1 0.40180456E-01 0.11597100E+04</pdfrwt>
<totfact> 0.11445024E+02</totfact>
</mgrwt>
</event>
<event>
12    7  0.1909736E-007  0.2215157E+04  0.7818608E-02  0.8512146E-01
          2   -1    0    0  501    0  0.00000000000E+00  0.00000000000E+00  0.70549369176E+03  0.70549369176E+03  0.00000000000E+00 0. -1.
         -1   -1    0    0    0  501 -0.00000000000E+00 -0.00000000000E+00 -0.17388245675E+04  0.17388245675E+04  0.00000000000E+00 0.  1.
         24    2    1    2    0    0 -0.78727174123E+03 -0.15253807567E+03  0.72167018897E+02  0.80914279256E+03  0.80245380345E+02 0.  0.
        254    2    1    2    0    0  0.78727174123E+03  0.15253807567E+03 -0.11054978947E+04  0.16351754667E+04  0.89922664151E+03 0.  0.
         23    2    4    4    0    0  0.88505773888E+03 -0.11502995850E+03 -0.90812754506E+03  0.12766708827E+04  0.92918309526E+02 0.  0.
         23    2    4    4    0    0 -0.97785997650E+02  0.26756803417E+03 -0.19737034959E+03  0.35850458397E+03  0.91737274784E+02 0.  0.
          2    1    3    3  502    0 -0.42746244946E+03 -0.73563118684E+02 -0.10260391911E+00  0.43374611083E+03  0.00000000000E+00 0. -1.
         -1    1    3    3    0  502 -0.35980929176E+03 -0.78974956989E+02  0.72269622816E+02  0.37539668173E+03  0.00000000000E+00 0.  1.
         13    1    5    5    0    0  0.79405227732E+03 -0.12889658466E+03 -0.79759023112E+03  0.11328210474E+04  0.00000000000E+00 0.  1.
        -13    1    5    5    0    0  0.91005461552E+02  0.13866626165E+02 -0.11053731395E+03  0.14384983534E+03  0.00000000000E+00 0. -1.
          4    1    6    6  503    0 -0.48883921413E+02  0.43584660730E+02 -0.19493433968E+02  0.68331942688E+02  0.00000000000E+00 0. -1.
         -4    1    6    6    0  503 -0.48902076238E+02  0.22398337344E+03 -0.17787691562E+03  0.29017264129E+03  0.00000000000E+00 0.  1.
<mgrwt>
<rscale>  0 0.22151567E+04</rscale>
<asrwt>0</asrwt>
<pdfrwt beam="1">  1        2 0.10853749E+00 0.22151567E+04</pdfrwt>
<pdfrwt beam="2">  1       -1 0.26751147E+00 0.22151567E+04</pdfrwt>
<totfact> 0.22666031E+00</totfact>
</mgrwt>
</event>
<event>
12    7  0.1909736E-007  0.1468109E+04  0.7818608E-02  0.8905942E-01
         -1   -1    0    0    0  501 -0.00000000000E+00  0.00000000000E+00  0.15913837841E+03  0.15913837841E+03  0.00000000000E+00 0.  1.
          2   -1    0    0  501    0  0.00000000000E+00 -0.00000000000E+00 -0.33859584138E+04  0.33859584138E+04  0.00000000000E+00 0. -1.
         24    2    1    2    0    0  0.32812130664E+03 -0.23514657881E+03 -0.15078357555E+04  0.15629559446E+04  0.79404747282E+02 0.  0.
        254    2    1    2    0    0 -0.32812130664E+03  0.23514657881E+03 -0.17189842799E+04  0.19821408476E+04  0.90056531120E+03 0.  0.
         23    2    4    4    0    0 -0.27575169152E+03 -0.77328922430E+02 -0.16059027228E+04  0.16338447780E+04  0.92230395173E+02 0.  0.
         23    2    4    4    0    0 -0.52369615129E+02  0.31247550124E+03 -0.11308155705E+03  0.34829606957E+03  0.90217504220E+02 0.  0.
          4    1    3    3  502    0  0.22509873203E+03 -0.13840611115E+03 -0.11012496512E+04  0.11325089337E+04  0.00000000000E+00 0. -1.
         -3    1    3    3    0  502  0.10302257461E+03 -0.96740467659E+02 -0.40658610433E+03  0.43044701090E+03  0.00000000000E+00 0.  1.
         13    1    5    5    0    0 -0.26036264135E+03 -0.67746082390E+02 -0.13074633222E+04  0.13348552639E+04  0.00000000000E+00 0. -1.
        -13    1    5    5    0    0 -0.15389050165E+02 -0.95828400400E+01 -0.29843940066E+03  0.29898951412E+03  0.00000000000E+00 0.  1.
          2    1    6    6  503    0 -0.14364777055E+02  0.27718985440E+03 -0.96055381201E+02  0.29371278226E+03  0.00000000000E+00 0. -1.
         -2    1    6    6    0  503 -0.38004838073E+02  0.35285646842E+02 -0.17026175851E+02  0.54583287315E+02  0.00000000000E+00 0.  1.
<mgrwt>
<rscale>  0 0.14681089E+04</rscale>
<asrwt>0</asrwt>
<pdfrwt beam="1">  1        2 0.52091669E+00 0.14681089E+04</pdfrwt>
<pdfrwt beam="2">  1       -1 0.24482827E-01 0.14681089E+04</pdfrwt>
<totfact> 0.15814662E+01</totfact>
</mgrwt>
</event>
<event>
12    7  0.2394874E-007  0.3037638E+04  0.7818608E-02  0.8233064E-01
          2   -1    0    0  501    0  0.00000000000E+00  0.00000000000E+00  0.14773387545E+04  0.14773387545E+04  0.00000000000E+00 0. -1.
         -1   -1    0    0    0  501 -0.00000000000E+00 -0.00000000000E+00 -0.15614636123E+04  0.15614636123E+04  0.00000000000E+00 0.  1.
         24    2    1    2    0    0  0.12263817605E+04 -0.56406900439E+03  0.25293016665E+03  0.13758945326E+04  0.83222782764E+02 0.  0.
        254    2    1    2    0    0 -0.12263817605E+04  0.56406900439E+03 -0.33705502444E+03  0.16629078343E+04  0.91075260726E+03 0.  0.
         23    2    4    4    0    0 -0.74006502511E+02  0.45602848938E+02  0.24006242735E+03  0.27105930185E+03  0.91030730263E+02 0.  0.
         23    2    4    4    0    0 -0.11523752579E+04  0.51846615545E+03 -0.57711745179E+03  0.13918485324E+04  0.86034263611E+02 0.  0.
          4    1    3    3  502    0  0.10946235403E+04 -0.50345246857E+03  0.19908075563E+03  0.12211872217E+04  0.00000000000E+00 0. -1.
         -3    1    3    3    0  502  0.13175822012E+03 -0.60616535823E+02  0.53849411012E+02  0.15470731092E+03  0.00000000000E+00 0.  1.
         13    1    5    5    0    0 -0.31240763068E+01  0.46272943190E+02  0.14656878495E+03  0.15373143415E+03  0.00000000000E+00 0.  1.
        -13    1    5    5    0    0 -0.70882426204E+02 -0.67009425178E+00  0.93493642393E+02  0.11732786770E+03  0.00000000000E+00 0. -1.
          3    1    6    6  503    0 -0.26605602688E+03  0.15692332630E+03 -0.15688245238E+03  0.34644313190E+03  0.00000000000E+00 0. -1.
         -3    1    6    6    0  503 -0.88631923106E+03  0.36154282915E+03 -0.42023499940E+03  0.10454054005E+04  0.00000000000E+00 0.  1.
<mgrwt>
<rscale>  0 0.30376377E+04</rscale>
<asrwt>0</asrwt>
<pdfrwt beam="1">  1        2 0.22728288E+00 0.30376377E+04</pdfrwt>
<pdfrwt beam="2">  1       -1 0.24022517E+00 0.30376377E+04</pdfrwt>
<totfact> 0.10264987E+00</totfact>
</mgrwt>
</event>
<event>
12    7  0.1909736E-007  0.2866894E+04  0.7818608E-02  0.8282796E-01
          2   -1    0    0  501    0  0.00000000000E+00  0.00000000000E+00  0.21210382589E+04  0.21210382589E+04  0.00000000000E+00 0. -1.
         -1   -1    0    0    0  501 -0.00000000000E+00 -0.00000000000E+00 -0.96875650141E+03  0.96875650141E+03  0.00000000000E+00 0.  1.
         24    2    1    2    0    0 -0.81235870390E+03  0.82162214632E+03 -0.98380647701E+02  0.11623387048E+04  0.79767773081E+02 0.  0.
        254    2    1    2    0    0  0.81235870390E+03 -0.82162214632E+03  0.12506624052E+04  0.19274560555E+04  0.90329440338E+03 0.  0.
         23    2    4    4    0    0 -0.59154064429E+02 -0.46036698660E+03  0.65261844343E+03  0.80589885615E+03  0.90139713565E+02 0.  0.
         23    2    4    4    0    0  0.87151276833E+03 -0.36125515971E+03  0.59804396174E+03  0.11215571994E+04  0.10096620975E+03 0.  0.
          2    1    3    3  502    0 -0.60533610760E+02  0.93113915232E+02 -0.27280838059E+01  0.11109438187E+03  0.00000000000E+00 0. -1.
         -1    1    3    3    0  502 -0.75182509314E+03  0.72850823108E+03 -0.95652563895E+02  0.10512443229E+04  0.00000000000E+00 0.  1.
         13    1    5    5    0    0 -0.13781270126E+02 -0.24779618928E+03  0.41756387167E+03  0.48574938163E+03  0.00000000000E+00 0.  1.
        -13    1    5    5    0    0 -0.45372794303E+02 -0.21257079732E+03  0.23505457176E+03  0.32014947453E+03  0.00000000000E+00 0. -1.
          2    1    6    6  503    0  0.57839935157E+03 -0.27111892798E+03  0.44748148055E+03  0.77993009843E+03  0.00000000000E+00 0. -1.
         -2    1    6    6    0  503  0.29311341676E+03 -0.90136231733E+02  0.15056248119E+03  0.34162710094E+03  0.00000000000E+00 0.  1.
<mgrwt>
<rscale>  0 0.28668935E+04</rscale>
<asrwt>0</asrwt>
<pdfrwt beam="1">  1        2 0.32631358E+00 0.28668935E+04</pdfrwt>
<pdfrwt beam="2">  1       -1 0.14903946E+00 0.28668935E+04</pdfrwt>
<totfact> 0.19980806E+00</totfact>
</mgrwt>
</event>
<event>
12    7  0.1909736E-007  0.2317155E+04  0.7818608E-02  0.8471188E-01
         -1   -1    0    0    0  501 -0.00000000000E+00  0.00000000000E+00  0.57877015742E+03  0.57877015742E+03  0.00000000000E+00 0.  1.
          2   -1    0    0  501    0  0.00000000000E+00 -0.00000000000E+00 -0.23192318248E+04  0.23192318248E+04  0.00000000000E+00 0. -1.
         24    2    1    2    0    0  0.50461101443E+03  0.51945116491E+03 -0.15733059390E+04  0.17338574987E+04  0.80675024541E+02 0.  0.
        254    2    1    2    0    0 -0.50461101443E+03 -0.51945116491E+03 -0.16715572843E+03  0.11641444835E+04  0.89600756270E+03 0.  0.
         23    2    4    4    0    0  0.64073411793E+01  0.22431903588E+03 -0.22674438173E+01  0.24227754413E+03  0.91286270643E+02 0.  0.
         23    2    4    4    0    0 -0.51101835561E+03 -0.74377020079E+03 -0.16488828461E+03  0.92186693942E+03  0.91195593280E+02 0.  0.
          4    1    3    3  502    0  0.47837968802E+03  0.47572960355E+03 -0.14979928779E+04  0.16429085318E+04  0.00000000000E+00 0. -1.
         -3    1    3    3    0  502  0.26231326407E+02  0.43721561358E+02 -0.75313061052E+02  0.90948966886E+02  0.00000000000E+00 0.  1.
         13    1    5    5    0    0 -0.39585453251E+01 -0.41784081910E+01  0.11783304617E+02  0.13113940818E+02  0.00000000000E+00 0. -1.
        -13    1    5    5    0    0  0.10365886504E+02  0.22849744407E+03 -0.14050748434E+02  0.22916360331E+03  0.00000000000E+00 0.  1.
          2    1    6    6  503    0 -0.43632124328E+03 -0.57437541162E+03 -0.14422547920E+03  0.73558434571E+03  0.00000000000E+00 0.  1.
         -2    1    6    6    0  503 -0.74697112331E+02 -0.16939478918E+03 -0.20662805410E+02  0.18628259371E+03  0.00000000000E+00 0. -1.
<mgrwt>
<rscale>  0 0.23171553E+04</rscale>
<asrwt>0</asrwt>
<pdfrwt beam="1">  1        2 0.35680489E+00 0.23171553E+04</pdfrwt>
<pdfrwt beam="2">  1       -1 0.89041565E-01 0.23171553E+04</pdfrwt>
<totfact> 0.56318890E+00</totfact>
</mgrwt>
</event>
<event>
12    7  0.1909736E-007  0.3711137E+04  0.7818608E-02  0.8065498E-01
         -1   -1    0    0    0  501 -0.00000000000E+00  0.00000000000E+00  0.15022556393E+04  0.15022556393E+04  0.00000000000E+00 0.  1.
          2   -1    0    0  501    0  0.00000000000E+00 -0.00000000000E+00 -0.22919765701E+04  0.22919765701E+04  0.00000000000E+00 0. -1.
         24    2    1    2    0    0 -0.54613686213E+03  0.13066025129E+04  0.68300395222E+03  0.15742638611E+04  0.79603434803E+02 0.  0.
        254    2    1    2    0    0  0.54613686213E+03 -0.13066025129E+04 -0.14727248831E+04  0.22199683483E+04  0.86825416051E+03 0.  0.
         23    2    4    4    0    0 -0.27355975220E+02  0.77034002875E+02 -0.23661768474E+02  0.13391881823E+03  0.10340108128E+03 0.  0.
         23    2    4    4    0    0  0.57349283735E+03 -0.13836365158E+04 -0.14490631146E+04  0.20860495300E+04  0.92058076499E+02 0.  0.
          4    1    3    3  502    0 -0.53803287599E+03  0.12604240176E+04  0.67079627223E+03  0.15258164105E+04  0.00000000000E+00 0. -1.
         -3    1    3    3    0  502 -0.81039861399E+01  0.46178495314E+02  0.12207679982E+02  0.48447450617E+02  0.00000000000E+00 0.  1.
         13    1    5    5    0    0  0.39226653325E+02  0.23510762187E+02 -0.14623026213E+02  0.48013739339E+02  0.00000000000E+00 0. -1.
        -13    1    5    5    0    0 -0.66582628545E+02  0.53523240688E+02 -0.90387422608E+01  0.85905078891E+02  0.00000000000E+00 0.  1.
          4    1    6    6  503    0  0.71620758477E+02 -0.10781384456E+03 -0.13439316671E+03  0.18658746309E+03  0.00000000000E+00 0. -1.
         -4    1    6    6    0  503  0.50187207887E+03 -0.12758226712E+04 -0.13146699479E+04  0.18994620669E+04  0.00000000000E+00 0.  1.
<mgrwt>
<rscale>  0 0.37111371E+04</rscale>
<asrwt>0</asrwt>
<pdfrwt beam="1">  1        2 0.35261178E+00 0.37111371E+04</pdfrwt>
<pdfrwt beam="2">  1       -1 0.23111625E+00 0.37111371E+04</pdfrwt>
<totfact> 0.39038129E-01</totfact>
</mgrwt>
</event>
<event>
12    7  0.1909736E-007  0.2438266E+04  0.7818608E-02  0.8425315E-01
          2   -1    0    0  501    0  0.00000000000E+00  0.00000000000E+00  0.16354971486E+04  0.16354971486E+04  0.00000000000E+00 0. -1.
         -1   -1    0    0    0  501 -0.00000000000E+00 -0.00000000000E+00 -0.90876665262E+03  0.90876665262E+03  0.00000000000E+00 0.  1.
         24    2    1    2    0    0  0.83086130209E+03  0.34711696607E+03 -0.25331030337E+03  0.93902201288E+03  0.82313664993E+02 0.  0.
        254    2    1    2    0    0 -0.83086130209E+03 -0.34711696607E+03  0.98004079935E+03  0.16052417883E+04  0.89749681848E+03 0.  0.
         23    2    4    4    0    0 -0.32839154193E+03  0.22078077453E+03  0.62879637266E+02  0.41167129534E+03  0.94521169096E+02 0.  0.
         23    2    4    4    0    0 -0.50246976015E+03 -0.56789774060E+03  0.91716116208E+03  0.11935704930E+04  0.91881558900E+02 0.  0.
          2    1    3    3  502    0  0.22038545628E+03  0.56663120504E+02 -0.48943780215E+02  0.23275728171E+03  0.00000000000E+00 0. -1.
         -1    1    3    3    0  502  0.61047584580E+03  0.29045384556E+03 -0.20436652316E+03  0.70626473117E+03  0.00000000000E+00 0.  1.
         13    1    5    5    0    0 -0.26446514826E+03  0.19492935979E+03  0.84812263148E+02  0.33931164131E+03  0.00000000000E+00 0. -1.
        -13    1    5    5    0    0 -0.63926393677E+02  0.25851414741E+02 -0.21932625881E+02  0.72359654026E+02  0.00000000000E+00 0.  1.
          3    1    6    6  503    0 -0.28573303951E+03 -0.38736712700E+03  0.59679465431E+03  0.76672062732E+03  0.00000000000E+00 0. -1.
         -3    1    6    6    0  503 -0.21673672064E+03 -0.18053061360E+03  0.32036650777E+03  0.42684986567E+03  0.00000000000E+00 0.  1.
<mgrwt>
<rscale>  0 0.24382660E+04</rscale>
<asrwt>0</asrwt>
<pdfrwt beam="1">  1        2 0.25161495E+00 0.24382660E+04</pdfrwt>
<pdfrwt beam="2">  1       -1 0.13981025E+00 0.24382660E+04</pdfrwt>
<totfact> 0.45746200E+00</totfact>
</mgrwt>
</event>
<event>
12    7  0.1909736E-007  0.2009735E+04  0.7818608E-02  0.8602083E-01
         -1   -1    0    0    0  501 -0.00000000000E+00  0.00000000000E+00  0.98216127011E+03  0.98216127011E+03  0.00000000000E+00 0.  1.
          2   -1    0    0  501    0  0.00000000000E+00 -0.00000000000E+00 -0.10280986108E+04  0.10280986108E+04  0.00000000000E+00 0. -1.
         24    2    1    2    0    0  0.15934915505E+03 -0.73580467993E+03 -0.28795985047E+03  0.80997455825E+03  0.79606716530E+02 0.  0.
        254    2    1    2    0    0 -0.15934915505E+03  0.73580467993E+03  0.24202250981E+03  0.12002853226E+04  0.90294478249E+03 0.  0.
         23    2    4    4    0    0  0.32481063643E+03  0.10476174929E+03  0.17897701442E+03  0.39706866908E+03  0.95675402366E+02 0.  0.
         23    2    4    4    0    0 -0.48415979148E+03  0.63104293064E+03  0.63045495387E+02  0.80321665354E+03  0.92500670477E+02 0.  0.
          4    1    3    3  502    0  0.54571994306E+02 -0.26851257873E+03 -0.64402057748E+02  0.28146888379E+03  0.00000000000E+00 0. -1.
         -3    1    3    3    0  502  0.10477716074E+03 -0.46729210120E+03 -0.22355779273E+03  0.52850567447E+03  0.00000000000E+00 0.  1.
         13    1    5    5    0    0  0.48049519863E+02  0.55291462603E+02  0.34464925243E+02  0.80955131201E+02  0.00000000000E+00 0.  1.
        -13    1    5    5    0    0  0.27676111657E+03  0.49470286684E+02  0.14451208918E+03  0.31611353788E+03  0.00000000000E+00 0. -1.
          2    1    6    6  503    0 -0.37126403769E+03  0.49482383176E+03  0.86912017099E+02  0.62469297169E+03  0.00000000000E+00 0. -1.
         -2    1    6    6    0  503 -0.11289575379E+03  0.13621909888E+03 -0.23866521712E+02  0.17852368185E+03  0.00000000000E+00 0.  1.
<mgrwt>
<rscale>  0 0.20097349E+04</rscale>
<asrwt>0</asrwt>
<pdfrwt beam="1">  1        2 0.15816902E+00 0.20097349E+04</pdfrwt>
<pdfrwt beam="2">  1       -1 0.15110173E+00 0.20097349E+04</pdfrwt>
<totfact> 0.87539222E+00</totfact>
</mgrwt>
</event>
<event>
12    7  0.1909736E-007  0.1479990E+04  0.7818608E-02  0.8897869E-01
          2   -1    0    0  501    0  0.00000000000E+00  0.00000000000E+00  0.10916304712E+04  0.10916304712E+04  0.00000000000E+00 0. -1.
         -1   -1    0    0    0  501 -0.00000000000E+00 -0.00000000000E+00 -0.50162826123E+03  0.50162826123E+03  0.00000000000E+00 0.  1.
         24    2    1    2    0    0  0.11913149989E+03 -0.21259513465E+03 -0.23797729381E+03  0.35017895957E+03  0.81259496757E+02 0.  0.
        254    2    1    2    0    0 -0.11913149989E+03  0.21259513465E+03  0.82797950374E+03  0.12430797728E+04  0.89459949554E+03 0.  0.
         23    2    4    4    0    0  0.38006543798E+03  0.13528354471E+03  0.38906077491E+03  0.56769703366E+03  0.90334162116E+02 0.  0.
         23    2    4    4    0    0 -0.49919693787E+03  0.77311589946E+02  0.43891872883E+03  0.67538273915E+03  0.91200488540E+02 0.  0.
          4    1    3    3  502    0  0.31940219779E+02 -0.14471053757E+02 -0.11522030808E+02  0.36909974672E+02  0.00000000000E+00 0. -1.
         -3    1    3    3    0  502  0.87191280112E+02 -0.19812408090E+03 -0.22645526300E+03  0.31326898490E+03  0.00000000000E+00 0.  1.
         13    1    5    5    0    0  0.21713266055E+03  0.12177273090E+03  0.25370336298E+03  0.35544421033E+03  0.00000000000E+00 0.  1.
        -13    1    5    5    0    0  0.16293277742E+03  0.13510813804E+02  0.13535741192E+03  0.21225282333E+03  0.00000000000E+00 0. -1.
          2    1    6    6  503    0 -0.18811682200E+03  0.70585317445E+02  0.19534461574E+03  0.28023159112E+03  0.00000000000E+00 0. -1.
         -2    1    6    6    0  503 -0.31108011586E+03  0.67262725008E+01  0.24357411309E+03  0.39515114804E+03  0.00000000000E+00 0.  1.
<mgrwt>
<rscale>  0 0.14799901E+04</rscale>
<asrwt>0</asrwt>
<pdfrwt beam="1">  1        2 0.16794315E+00 0.14799901E+04</pdfrwt>
<pdfrwt beam="2">  1       -1 0.77173579E-01 0.14799901E+04</pdfrwt>
<totfact> 0.40975382E+01</totfact>
</mgrwt>
</event>
<event>
12    7  0.1909736E-007  0.1557455E+04  0.7818608E-02  0.8847120E-01
         -1   -1    0    0    0  501 -0.00000000000E+00  0.00000000000E+00  0.44525580874E+03  0.44525580874E+03  0.00000000000E+00 0.  1.
          2   -1    0    0  501    0  0.00000000000E+00 -0.00000000000E+00 -0.13619500040E+04  0.13619500040E+04  0.00000000000E+00 0. -1.
         24    2    1    2    0    0  0.86622115551E+02 -0.25359409662E+03  0.20493712488E+03  0.34654509600E+03  0.79252265997E+02 0.  0.
        254    2    1    2    0    0 -0.86622115551E+02  0.25359409662E+03 -0.11216313202E+04  0.14606607168E+04  0.89647060987E+03 0.  0.
         23    2    4    4    0    0  0.13790569213E+03  0.51678969086E+03 -0.47202152161E+03  0.71906952486E+03  0.90372010191E+02 0.  0.
         23    2    4    4    0    0 -0.22452780768E+03 -0.26319559424E+03 -0.64960979857E+03  0.74159119190E+03  0.90994221029E+02 0.  0.
          2    1    3    3  502    0 -0.30341360512E+01 -0.48387879510E+02  0.96859517272E+01  0.49440980228E+02  0.00000000000E+00 0. -1.
         -1    1    3    3    0  502  0.89656251602E+02 -0.20520621711E+03  0.19525117316E+03  0.29710411577E+03  0.00000000000E+00 0.  1.
         13    1    5    5    0    0  0.10143646870E+02  0.20650987791E+03 -0.18795515926E+03  0.27942148296E+03  0.00000000000E+00 0.  1.
        -13    1    5    5    0    0  0.12776204526E+03  0.31027981295E+03 -0.28406636234E+03  0.43964804190E+03  0.00000000000E+00 0. -1.
          1    1    6    6  503    0 -0.13754460125E+03 -0.98656518603E+02 -0.26733485437E+03  0.31641673527E+03  0.00000000000E+00 0. -1.
         -1    1    6    6    0  503 -0.86983206432E+02 -0.16453907564E+03 -0.38227494420E+03  0.42517445664E+03  0.00000000000E+00 0.  1.
<mgrwt>
<rscale>  0 0.15574545E+04</rscale>
<asrwt>0</asrwt>
<pdfrwt beam="1">  1        2 0.20953076E+00 0.15574545E+04</pdfrwt>
<pdfrwt beam="2">  1       -1 0.68500896E-01 0.15574545E+04</pdfrwt>
<totfact> 0.35993943E+01</totfact>
</mgrwt>
</event>
<event>
12    7  0.1909736E-007  0.1561510E+04  0.7818608E-02  0.8844549E-01
          2   -1    0    0  501    0  0.00000000000E+00  0.00000000000E+00  0.10181678638E+04  0.10181678638E+04  0.00000000000E+00 0. -1.
         -1   -1    0    0    0  501 -0.00000000000E+00 -0.00000000000E+00 -0.59870115921E+03  0.59870115921E+03  0.00000000000E+00 0.  1.
         24    2    1    2    0    0  0.43766914168E+02  0.17030631623E+02  0.67811987397E+03  0.68409037191E+03  0.76990183030E+02 0.  0.
        254    2    1    2    0    0 -0.43766914168E+02 -0.17030631623E+02 -0.25865316938E+03  0.93277865109E+03  0.89496869483E+03 0.  0.
         23    2    4    4    0    0 -0.21960033437E+03  0.25146664489E+03 -0.43509732146E+03  0.55558241775E+03  0.88895238461E+02 0.  0.
         23    2    4    4    0    0  0.17583342020E+03 -0.26849727651E+03  0.17644415209E+03  0.37719623335E+03  0.90201333092E+02 0.  0.
          4    1    3    3  502    0  0.59812202171E+02  0.25793475152E+02  0.39094963460E+03  0.39633876884E+03  0.00000000000E+00 0. -1.
         -3    1    3    3    0  502 -0.16045288003E+02 -0.87628435288E+01  0.28717023937E+03  0.28775160308E+03  0.00000000000E+00 0.  1.
         13    1    5    5    0    0 -0.21958094826E+03  0.20954977564E+03 -0.38525723065E+03  0.49045900448E+03  0.00000000000E+00 0. -1.
        -13    1    5    5    0    0 -0.19386110393E-01  0.41916869246E+02 -0.49840090810E+02  0.65123413264E+02  0.00000000000E+00 0.  1.
          3    1    6    6  503    0  0.17324266866E+03 -0.23110686590E+03  0.12794067030E+03  0.31589906747E+03  0.00000000000E+00 0. -1.
         -3    1    6    6    0  503  0.25907515431E+01 -0.37390410610E+02  0.48503481790E+02  0.61297165879E+02  0.00000000000E+00 0.  1.
<mgrwt>
<rscale>  0 0.15615099E+04</rscale>
<asrwt>0</asrwt>
<pdfrwt beam="1">  1        2 0.15664121E+00 0.15615099E+04</pdfrwt>
<pdfrwt beam="2">  1       -1 0.92107870E-01 0.15615099E+04</pdfrwt>
<totfact> 0.30880561E+01</totfact>
</mgrwt>
</event>
<event>
12    7  0.1909736E-007  0.2540194E+04  0.7818608E-02  0.8388805E-01
          2   -1    0    0  501    0  0.00000000000E+00  0.00000000000E+00  0.31083711987E+04  0.31083711987E+04  0.00000000000E+00 0. -1.
         -1   -1    0    0    0  501 -0.00000000000E+00 -0.00000000000E+00 -0.51896835915E+03  0.51896835915E+03  0.00000000000E+00 0.  1.
         24    2    1    2    0    0 -0.94873639162E+03 -0.22269083701E+03  0.37854206438E+03  0.10488534246E+04  0.84305765550E+02 0.  0.
        254    2    1    2    0    0  0.94873639162E+03  0.22269083701E+03  0.22108607752E+04  0.25784861333E+04  0.90055173226E+03 0.  0.
         23    2    4    4    0    0 -0.76272030285E+02 -0.13135578949E+03  0.66345298784E+03  0.68673602963E+03  0.91458959578E+02 0.  0.
         23    2    4    4    0    0  0.10250084219E+04  0.35404662651E+03  0.15474077873E+04  0.18917501036E+04  0.90864269661E+02 0.  0.
          2    1    3    3  502    0 -0.12045052466E+03 -0.22532525758E+01  0.35015431277E+02  0.12545711006E+03  0.00000000000E+00 0. -1.
         -1    1    3    3    0  502 -0.82828586696E+03 -0.22043758444E+03  0.34352663310E+03  0.92339631453E+03  0.00000000000E+00 0.  1.
         13    1    5    5    0    0 -0.16332249916E+02 -0.96983765187E+02  0.27206197212E+03  0.28929277518E+03  0.00000000000E+00 0. -1.
        -13    1    5    5    0    0 -0.59939780369E+02 -0.34372024308E+02  0.39139101572E+03  0.39744325446E+03  0.00000000000E+00 0.  1.
          3    1    6    6  503    0  0.62980536645E+03  0.25404610365E+03  0.10138727269E+04  0.12203000159E+04  0.00000000000E+00 0. -1.
         -3    1    6    6    0  503  0.39520305546E+03  0.10000052286E+03  0.53353506043E+03  0.67145008774E+03  0.00000000000E+00 0.  1.
<mgrwt>
<rscale>  0 0.25401939E+04</rscale>
<asrwt>0</asrwt>
<pdfrwt beam="1">  1        2 0.47821094E+00 0.25401939E+04</pdfrwt>
<pdfrwt beam="2">  1       -1 0.79841288E-01 0.25401939E+04</pdfrwt>
<totfact> 0.23541779E+00</totfact>
</mgrwt>
</event>
<event>
12    7  0.1909736E-007  0.1946636E+04  0.7818608E-02  0.8631985E-01
          2   -1    0    0  501    0  0.00000000000E+00  0.00000000000E+00  0.28688702286E+04  0.28688702286E+04  0.00000000000E+00 0. -1.
         -1   -1    0    0    0  501 -0.00000000000E+00 -0.00000000000E+00 -0.33021647724E+03  0.33021647724E+03  0.00000000000E+00 0.  1.
         24    2    1    2    0    0 -0.45819972339E+02 -0.53117549091E+03  0.95438978147E+02  0.54671342750E+03  0.74431856449E+02 0.  0.
        254    2    1    2    0    0  0.45819972339E+02  0.53117549091E+03  0.24432147732E+04  0.26523732783E+04  0.88404677908E+03 0.  0.
         23    2    4    4    0    0  0.13248066762E+03  0.66828914743E+03  0.11061380911E+04  0.13024055860E+04  0.92505795074E+02 0.  0.
         23    2    4    4    0    0 -0.86660695286E+02 -0.13711365652E+03  0.13370766821E+04  0.13499676923E+04  0.91260536204E+02 0.  0.
          2    1    3    3  502    0 -0.56555939013E+02 -0.33103219182E+03  0.36558385045E+02  0.33781267261E+03  0.00000000000E+00 0. -1.
         -1    1    3    3    0  502  0.10735966675E+02 -0.20014329910E+03  0.58880593103E+02  0.20890075490E+03  0.00000000000E+00 0.  1.
         13    1    5    5    0    0  0.10615005941E+03  0.38000907616E+03  0.57222539212E+03  0.69506591951E+03  0.00000000000E+00 0. -1.
        -13    1    5    5    0    0  0.26330608217E+02  0.28828007127E+03  0.53391269898E+03  0.60733966654E+03  0.00000000000E+00 0.  1.
          3    1    6    6  503    0 -0.61647624835E+02 -0.25202738642E+02  0.64813014806E+03  0.65154301202E+03  0.00000000000E+00 0. -1.
         -3    1    6    6    0  503 -0.25013070451E+02 -0.11191091788E+03  0.68894653405E+03  0.69842468027E+03  0.00000000000E+00 0.  1.
<mgrwt>
<rscale>  0 0.19466363E+04</rscale>
<asrwt>0</asrwt>
<pdfrwt beam="1">  1        2 0.44136463E+00 0.19466363E+04</pdfrwt>
<pdfrwt beam="2">  1       -1 0.50802537E-01 0.19466363E+04</pdfrwt>
<totfact> 0.87006575E+00</totfact>
</mgrwt>
</event>
<event>
12    7  0.1909736E-007  0.2539996E+04  0.7818608E-02  0.8388874E-01
          2   -1    0    0  501    0  0.00000000000E+00  0.00000000000E+00  0.11774333036E+04  0.11774333036E+04  0.00000000000E+00 0. -1.
         -1   -1    0    0    0  501 -0.00000000000E+00 -0.00000000000E+00 -0.13698399351E+04  0.13698399351E+04  0.00000000000E+00 0.  1.
         24    2    1    2    0    0 -0.34303458741E+03  0.31274283576E+03 -0.10965174626E+04  0.11936912189E+04  0.84067655619E+02 0.  0.
        254    2    1    2    0    0  0.34303458741E+03 -0.31274283576E+03  0.90411083118E+03  0.13535820198E+04  0.89402856766E+03 0.  0.
         23    2    4    4    0    0 -0.99186411555E+02  0.15895465868E+03 -0.34695741399E+02  0.21038289144E+03  0.89177568855E+02 0.  0.
         23    2    4    4    0    0  0.44222099896E+03 -0.47169749444E+03  0.93880657258E+03  0.11431991284E+04  0.86536282483E+02 0.  0.
          4    1    3    3  502    0 -0.13630658213E+03  0.79226500472E+02 -0.42447709837E+03  0.45281025800E+03  0.00000000000E+00 0. -1.
         -1    1    3    3    0  502 -0.20672800527E+03  0.23351633529E+03 -0.67204036426E+03  0.74088096089E+03  0.00000000000E+00 0.  1.
         13    1    5    5    0    0 -0.50769695035E+02  0.85459410837E+02 -0.63294109656E+02  0.11784318882E+03  0.00000000000E+00 0.  1.
        -13    1    5    5    0    0 -0.48416716520E+02  0.73495247841E+02  0.28598368256E+02  0.92539702619E+02  0.00000000000E+00 0. -1.
          2    1    6    6  503    0  0.21582220475E+03 -0.25864266780E+03  0.42029673898E+03  0.53863215878E+03  0.00000000000E+00 0. -1.
         -2    1    6    6    0  503  0.22639879421E+03 -0.21305482664E+03  0.51850983360E+03  0.60456696958E+03  0.00000000000E+00 0.  1.
<mgrwt>
<rscale>  0 0.25399962E+04</rscale>
<asrwt>0</asrwt>
<pdfrwt beam="1">  1        2 0.18114359E+00 0.25399962E+04</pdfrwt>
<pdfrwt beam="2">  1       -1 0.21074460E+00 0.25399962E+04</pdfrwt>
<totfact> 0.25157090E+00</totfact>
</mgrwt>
</event>
<event>
12    7  0.2528878E-007  0.3206762E+04  0.7818608E-02  0.8187034E-01
         -1   -1    0    0    0  501 -0.00000000000E+00  0.00000000000E+00  0.15729880679E+04  0.15729880679E+04  0.00000000000E+00 0.  1.
          2   -1    0    0  501    0  0.00000000000E+00 -0.00000000000E+00 -0.16343607514E+04  0.16343607514E+04  0.00000000000E+00 0. -1.
         24    2    1    2    0    0  0.13161860057E+04 -0.52250965831E+03  0.38423352102E+03  0.14697555278E+04  0.84758292551E+02 0.  0.
        254    2    1    2    0    0 -0.13161860057E+04  0.52250965831E+03 -0.44560620450E+03  0.17375932915E+04  0.90294164398E+03 0.  0.
         23    2    4    4    0    0 -0.10887344127E+04  0.55742153509E+02 -0.82258121502E+02  0.10970074048E+04  0.90603744083E+02 0.  0.
         23    2    4    4    0    0 -0.22745159300E+03  0.46676750480E+03 -0.36334808299E+03  0.64058588670E+03  0.93393351657E+02 0.  0.
          2    1    3    3  502    0  0.54813732107E+03 -0.23096194224E+03  0.20285347053E+03  0.62844846409E+03  0.00000000000E+00 0. -1.
         -1    1    3    3    0  502  0.76804868467E+03 -0.29154771608E+03  0.18138005050E+03  0.84130706374E+03  0.00000000000E+00 0.  1.
         13    1    5    5    0    0 -0.50762101831E+03  0.15853764221E+02 -0.82505466401E+02  0.51452657080E+03  0.00000000000E+00 0. -1.
        -13    1    5    5    0    0 -0.58111339444E+03  0.39888389287E+02  0.24734489883E+00  0.58248083400E+03  0.00000000000E+00 0.  1.
          1    1    6    6  503    0 -0.46036107477E+02  0.13519350724E+03 -0.55880422350E+02  0.15335980306E+03  0.00000000000E+00 0. -1.
         -1    1    6    6    0  503 -0.18141548552E+03  0.33157399756E+03 -0.30746766064E+03  0.48722608365E+03  0.00000000000E+00 0.  1.
<mgrwt>
<rscale>  0 0.32067616E+04</rscale>
<asrwt>0</asrwt>
<pdfrwt beam="1">  1        2 0.25144012E+00 0.32067616E+04</pdfrwt>
<pdfrwt beam="2">  1       -1 0.24199816E+00 0.32067616E+04</pdfrwt>
<totfact> 0.80395817E-01</totfact>
</mgrwt>
</event>
<event>
12    7  0.1909736E-007  0.1830682E+04  0.7818608E-02  0.8690151E-01
         -1   -1    0    0    0  501 -0.00000000000E+00  0.00000000000E+00  0.12801201199E+04  0.12801201199E+04  0.00000000000E+00 0.  1.
          2   -1    0    0  501    0  0.00000000000E+00 -0.00000000000E+00 -0.65450806199E+03  0.65450806199E+03  0.00000000000E+00 0. -1.
         24    2    1    2    0    0  0.49411884798E+03  0.41348461996E+03  0.43999314005E+03  0.78451786097E+03  0.82166562630E+02 0.  0.
        254    2    1    2    0    0 -0.49411884798E+03 -0.41348461996E+03  0.18561891789E+03  0.11501103210E+04  0.93443908352E+03 0.  0.
         23    2    4    4    0    0 -0.35175941811E+03 -0.26215658684E+03  0.55624883782E+03  0.71457754232E+03  0.93528231914E+02 0.  0.
         23    2    4    4    0    0 -0.14235942987E+03 -0.15132803312E+03 -0.37062991993E+03  0.43553277863E+03  0.95686377480E+02 0.  0.
          4    1    3    3  502    0  0.23037170418E+03  0.17740882931E+03  0.24603686494E+03  0.38089257503E+03  0.00000000000E+00 0. -1.
         -3    1    3    3    0  502  0.26374714380E+03  0.23607579065E+03  0.19395627511E+03  0.40362528594E+03  0.00000000000E+00 0.  1.
         13    1    5    5    0    0 -0.33560516601E+03 -0.26890808926E+03  0.54272573608E+03  0.69245477291E+03  0.00000000000E+00 0.  1.
        -13    1    5    5    0    0 -0.16154252102E+02  0.67515024192E+01  0.13523101733E+02  0.22122769410E+02  0.00000000000E+00 0. -1.
          1    1    6    6  503    0 -0.89843788763E+02 -0.36409856476E+02 -0.11519501042E+03  0.15055721323E+03  0.00000000000E+00 0. -1.
         -1    1    6    6    0  503 -0.52515641106E+02 -0.11491817665E+03 -0.25543490951E+03  0.28497556541E+03  0.00000000000E+00 0.  1.
<mgrwt>
<rscale>  0 0.18306818E+04</rscale>
<asrwt>0</asrwt>
<pdfrwt beam="1">  1        2 0.10069355E+00 0.18306818E+04</pdfrwt>
<pdfrwt beam="2">  1       -1 0.19694156E+00 0.18306818E+04</pdfrwt>
<totfact> 0.75750010E+00</totfact>
</mgrwt>
</event>
<event>
12    7  0.1909736E-007  0.2472113E+04  0.7818608E-02  0.8412988E-01
         -1   -1    0    0    0  501 -0.00000000000E+00  0.00000000000E+00  0.88129471254E+03  0.88129471254E+03  0.00000000000E+00 0.  1.
          2   -1    0    0  501    0  0.00000000000E+00 -0.00000000000E+00 -0.17336260299E+04  0.17336260299E+04  0.00000000000E+00 0. -1.
         24    2    1    2    0    0  0.67185069102E+03 -0.23428947024E+02 -0.12474919053E+04  0.14193338622E+04  0.79625949940E+02 0.  0.
        254    2    1    2    0    0 -0.67185069102E+03  0.23428947024E+02  0.39516058789E+03  0.11955868803E+04  0.90628021693E+03 0.  0.
         23    2    4    4    0    0 -0.30411339009E+02  0.34024443811E+02  0.52293012873E+03  0.53465970405E+03  0.10160003584E+03 0.  0.
         23    2    4    4    0    0 -0.64143935201E+03 -0.10595496787E+02 -0.12776954084E+03  0.66092717628E+03  0.94567277189E+02 0.  0.
          2    1    3    3  502    0  0.62689330472E+03 -0.37331293787E+02 -0.11302750104E+04  0.12930237585E+04  0.00000000000E+00 0. -1.
         -1    1    3    3    0  502  0.44957386302E+02  0.13902346763E+02 -0.11721689488E+03  0.12631010361E+03  0.00000000000E+00 0.  1.
         13    1    5    5    0    0 -0.57606716081E+02 -0.10508938615E+02  0.24777616880E+03  0.25460165230E+03  0.00000000000E+00 0. -1.
        -13    1    5    5    0    0  0.27195377072E+02  0.44533382426E+02  0.27515395993E+03  0.28005805174E+03  0.00000000000E+00 0.  1.
          3    1    6    6  503    0 -0.51846978247E+03 -0.47045960584E+01 -0.14041741590E+03  0.53716859481E+03  0.00000000000E+00 0. -1.
         -3    1    6    6    0  503 -0.12296956954E+03 -0.58909007282E+01  0.12647875055E+02  0.12375858147E+03  0.00000000000E+00 0.  1.
<mgrwt>
<rscale>  0 0.24721128E+04</rscale>
<asrwt>0</asrwt>
<pdfrwt beam="1">  1        2 0.26671170E+00 0.24721128E+04</pdfrwt>
<pdfrwt beam="2">  1       -1 0.13558380E+00 0.24721128E+04</pdfrwt>
<totfact> 0.43550733E+00</totfact>
</mgrwt>
</event>
<event>
12    7  0.1909736E-007  0.1700470E+04  0.7818608E-02  0.8761096E-01
          2   -1    0    0  501    0  0.00000000000E+00  0.00000000000E+00  0.36135399824E+03  0.36135399824E+03  0.00000000000E+00 0. -1.
         -1   -1    0    0    0  501 -0.00000000000E+00 -0.00000000000E+00 -0.20005300884E+04  0.20005300884E+04  0.00000000000E+00 0.  1.
         24    2    1    2    0    0 -0.18571361021E+03 -0.36463511068E+03 -0.12139973016E+04  0.12835973582E+04  0.79902570929E+02 0.  0.
        254    2    1    2    0    0  0.18571361021E+03  0.36463511068E+03 -0.42517878862E+03  0.10782867285E+04  0.90248377133E+03 0.  0.
         23    2    4    4    0    0 -0.23355677652E+03 -0.10169621680E+03 -0.34826812610E+03  0.44116679440E+03  0.91905192762E+02 0.  0.
         23    2    4    4    0    0  0.41927038673E+03  0.46633132748E+03 -0.76910662529E+02  0.63711993405E+03  0.82182699997E+02 0.  0.
          4    1    3    3  502    0 -0.15072687200E+03 -0.21157764926E+03 -0.73982628809E+03  0.78410881143E+03  0.00000000000E+00 0. -1.
         -3    1    3    3    0  502 -0.34986738202E+02 -0.15305746143E+03 -0.47417101346E+03  0.49948854677E+03  0.00000000000E+00 0.  1.
         13    1    5    5    0    0 -0.64644794560E+02  0.13409413027E+02 -0.75171663676E+02  0.10004769283E+03  0.00000000000E+00 0. -1.
        -13    1    5    5    0    0 -0.16891198196E+03 -0.11510562982E+03 -0.27309646242E+03  0.34111910157E+03  0.00000000000E+00 0.  1.
          4    1    6    6  503    0  0.21737535544E+03  0.19759773787E+03 -0.72470174324E+01  0.29385273595E+03  0.00000000000E+00 0. -1.
         -4    1    6    6    0  503  0.20189503129E+03  0.26873358961E+03 -0.69663645096E+02  0.34326719810E+03  0.00000000000E+00 0.  1.
<mgrwt>
<rscale>  0 0.17004700E+04</rscale>
<asrwt>0</asrwt>
<pdfrwt beam="1">  1        2 0.55592922E-01 0.17004700E+04</pdfrwt>
<pdfrwt beam="2">  1       -1 0.30777387E+00 0.17004700E+04</pdfrwt>
<totfact> 0.28582761E+00</totfact>
</mgrwt>
</event>
<event>
12    7  0.1909736E-007  0.2713823E+04  0.7818608E-02  0.8330534E-01
         -1   -1    0    0    0  501 -0.00000000000E+00  0.00000000000E+00  0.14951452523E+04  0.14951452523E+04  0.00000000000E+00 0.  1.
          2   -1    0    0  501    0  0.00000000000E+00 -0.00000000000E+00 -0.12314583512E+04  0.12314583512E+04  0.00000000000E+00 0. -1.
         24    2    1    2    0    0  0.44629523266E+03  0.10616898889E+04  0.44988619854E+03  0.12391568813E+04  0.82142132890E+02 0.  0.
        254    2    1    2    0    0 -0.44629523266E+03 -0.10616898889E+04 -0.18619929735E+03  0.14874467222E+04  0.92274737511E+03 0.  0.
         23    2    4    4    0    0 -0.23660672835E+03 -0.27943390482E+03  0.34769580109E+03  0.51322389676E+03  0.91871361386E+02 0.  0.
         23    2    4    4    0    0 -0.20968850431E+03 -0.78225598404E+03 -0.53389509844E+03  0.97422282545E+03  0.90401571288E+02 0.  0.
          4    1    3    3  502    0  0.12277974649E+03  0.22188965315E+03  0.12103738471E+03  0.28099810110E+03  0.00000000000E+00 0. -1.
         -3    1    3    3    0  502  0.32351548617E+03  0.83980023572E+03  0.32884881382E+03  0.95815878019E+03  0.00000000000E+00 0.  1.
         13    1    5    5    0    0 -0.22684627453E+03 -0.22260011186E+03  0.31219647423E+03  0.44550721722E+03  0.00000000000E+00 0.  1.
        -13    1    5    5    0    0 -0.97604538232E+01 -0.56833792958E+02  0.35499326862E+02  0.67716679545E+02  0.00000000000E+00 0. -1.
          2    1    6    6  503    0 -0.47556700824E+02 -0.71408187363E+02 -0.55216402403E+02  0.10202754584E+03  0.00000000000E+00 0. -1.
         -2    1    6    6    0  503 -0.16213180348E+03 -0.71084779668E+03 -0.47867869603E+03  0.87219527961E+03  0.00000000000E+00 0.  1.
<mgrwt>
<rscale>  0 0.27138232E+04</rscale>
<asrwt>0</asrwt>
<pdfrwt beam="1">  1        2 0.18945513E+00 0.27138232E+04</pdfrwt>
<pdfrwt beam="2">  1       -1 0.23002235E+00 0.27138232E+04</pdfrwt>
<totfact> 0.17091157E+00</totfact>
</mgrwt>
</event>
<event>
12    7  0.1909736E-007  0.2436541E+04  0.7818608E-02  0.8425948E-01
          2   -1    0    0  501    0  0.00000000000E+00  0.00000000000E+00  0.16322925018E+04  0.16322925018E+04  0.00000000000E+00 0. -1.
         -1   -1    0    0    0  501 -0.00000000000E+00 -0.00000000000E+00 -0.90926309780E+03  0.90926309780E+03  0.00000000000E+00 0.  1.
         24    2    1    2    0    0 -0.15114891242E+03 -0.13017883122E+03  0.13903604854E+04  0.14067980339E+04  0.78650536431E+02 0.  0.
        254    2    1    2    0    0  0.15114891242E+03  0.13017883122E+03 -0.66733108146E+03  0.11347575657E+04  0.89585235323E+03 0.  0.
         23    2    4    4    0    0  0.23623068816E+03  0.13175480808E+02  0.15350851798E+03  0.29639248277E+03  0.91132362123E+02 0.  0.
         23    2    4    4    0    0 -0.85081775741E+02  0.11700335041E+03 -0.82083959944E+03  0.83836508292E+03  0.90275531969E+02 0.  0.
          2    1    3    3  502    0 -0.50818262931E+02 -0.68390840471E+01  0.47188778571E+03  0.47466551509E+03  0.00000000000E+00 0. -1.
         -1    1    3    3    0  502 -0.10033064949E+03 -0.12333974718E+03  0.91847269971E+03  0.93213251878E+03  0.00000000000E+00 0.  1.
         13    1    5    5    0    0  0.20402212707E+03  0.43271337464E+02  0.11687244571E+03  0.23907447699E+03  0.00000000000E+00 0. -1.
        -13    1    5    5    0    0  0.32208561091E+02 -0.30095856656E+02  0.36636072278E+02  0.57318005786E+02  0.00000000000E+00 0.  1.
          3    1    6    6  503    0 -0.60743850578E+02  0.80742994234E+02 -0.73641351760E+03  0.74331293236E+03  0.00000000000E+00 0. -1.
         -3    1    6    6    0  503 -0.24337925163E+02  0.36260356180E+02 -0.84426081841E+02  0.95052150563E+02  0.00000000000E+00 0.  1.
<mgrwt>
<rscale>  0 0.24365413E+04</rscale>
<asrwt>0</asrwt>
<pdfrwt beam="1">  1        2 0.25112192E+00 0.24365413E+04</pdfrwt>
<pdfrwt beam="2">  1       -1 0.13988663E+00 0.24365413E+04</pdfrwt>
<totfact> 0.45876395E+00</totfact>
</mgrwt>
</event>
<event>
12    7  0.1909736E-007  0.1731960E+04  0.7818608E-02  0.8743343E-01
          2   -1    0    0  501    0  0.00000000000E+00  0.00000000000E+00  0.15047813992E+04  0.15047813992E+04  0.00000000000E+00 0. -1.
         -1   -1    0    0    0  501 -0.00000000000E+00 -0.00000000000E+00 -0.49835924359E+03  0.49835924359E+03  0.00000000000E+00 0.  1.
         24    2    1    2    0    0  0.56603364671E+03  0.25574822982E+03  0.27472144852E+03  0.68393030495E+03  0.80545275966E+02 0.  0.
        254    2    1    2    0    0 -0.56603364671E+03 -0.25574822982E+03  0.73170070713E+03  0.13192103379E+04  0.90505731560E+03 0.  0.
         23    2    4    4    0    0 -0.42593720408E+03 -0.15147904658E+03 -0.93819133293E+02  0.47018733058E+03  0.88913962287E+02 0.  0.
         23    2    4    4    0    0 -0.14009644262E+03 -0.10426918325E+03  0.82551984043E+03  0.84902300731E+03  0.94116864577E+02 0.  0.
          4    1    3    3  502    0  0.63817637526E+02  0.27385050211E+01  0.24256565612E+02  0.68326943766E+02  0.00000000000E+00 0. -1.
         -3    1    3    3    0  502  0.50221600918E+03  0.25300972480E+03  0.25046488291E+03  0.61560336118E+03  0.00000000000E+00 0.  1.
         13    1    5    5    0    0 -0.37471871664E+03 -0.14914890776E+03 -0.10697145500E+03  0.41725580340E+03  0.00000000000E+00 0.  1.
        -13    1    5    5    0    0 -0.51218487445E+02 -0.23301388200E+01  0.13152321711E+02  0.52931527178E+02  0.00000000000E+00 0. -1.
          2    1    6    6  503    0 -0.13133438885E+03 -0.45591098205E+02  0.57124763140E+03  0.58792102047E+03  0.00000000000E+00 0.  1.
         -2    1    6    6    0  503 -0.87620537782E+01 -0.58678085042E+02  0.25427220903E+03  0.26110198684E+03  0.00000000000E+00 0. -1.
<mgrwt>
<rscale>  0 0.17319604E+04</rscale>
<asrwt>0</asrwt>
<pdfrwt beam="1">  1        2 0.23150483E+00 0.17319604E+04</pdfrwt>
<pdfrwt beam="2">  1       -1 0.76670654E-01 0.17319604E+04</pdfrwt>
<totfact> 0.23290364E+01</totfact>
</mgrwt>
</event>
<event>
12    7  0.1909736E-007  0.1896458E+04  0.7818608E-02  0.8656622E-01
          2   -1    0    0  501    0  0.00000000000E+00  0.00000000000E+00  0.16289098249E+04  0.16289098249E+04  0.00000000000E+00 0. -1.
         -1   -1    0    0    0  501 -0.00000000000E+00 -0.00000000000E+00 -0.55198764797E+03  0.55198764797E+03  0.00000000000E+00 0.  1.
         24    2    1    2    0    0 -0.63527701743E+03 -0.27860914920E+03  0.68968134177E+03  0.98401091038E+03  0.10685116597E+03 0.  0.
        254    2    1    2    0    0  0.63527701743E+03  0.27860914920E+03  0.38724083517E+03  0.11968865625E+04  0.89519943708E+03 0.  0.
         23    2    4    4    0    0 -0.10383121526E+03  0.59844553502E+02  0.39310560794E+03  0.42079954133E+03  0.90431980764E+02 0.  0.
         23    2    4    4    0    0  0.73910823269E+03  0.21876459570E+03 -0.58647727771E+01  0.77608702115E+03  0.90209427886E+02 0.  0.
          4    1    3    3  502    0 -0.20185182910E+03 -0.74326557195E+02  0.28346579257E+03  0.35583908382E+03  0.00000000000E+00 0. -1.
         -3    1    3    3    0  502 -0.43342518833E+03 -0.20428259200E+03  0.40621554920E+03  0.62817182656E+03  0.00000000000E+00 0.  1.
         13    1    5    5    0    0 -0.10782328978E+03  0.75705233813E+02  0.32350439996E+03  0.34930250648E+03  0.00000000000E+00 0. -1.
        -13    1    5    5    0    0  0.39920745230E+01 -0.15860680311E+02  0.69601207987E+02  0.71497034849E+02  0.00000000000E+00 0.  1.
          3    1    6    6  503    0  0.32321087301E+03  0.66037905979E+02 -0.36914661671E+02  0.33194723331E+03  0.00000000000E+00 0. -1.
         -3    1    6    6    0  503  0.41589735968E+03  0.15272668972E+03  0.31049888894E+02  0.44413978784E+03  0.00000000000E+00 0.  1.
<mgrwt>
<rscale>  0 0.18964579E+04</rscale>
<asrwt>0</asrwt>
<pdfrwt beam="1">  1        2 0.25060151E+00 0.18964579E+04</pdfrwt>
<pdfrwt beam="2">  1       -1 0.84921177E-01 0.18964579E+04</pdfrwt>
<totfact> 0.15729571E+01</totfact>
</mgrwt>
</event>
<event>
12    7  0.2599754E-007  0.2384877E+04  0.7818608E-02  0.8445187E-01
         -1   -1    0    0    0  501 -0.00000000000E+00  0.00000000000E+00  0.74791042979E+03  0.74791042979E+03  0.00000000000E+00 0.  1.
          2   -1    0    0  501    0  0.00000000000E+00 -0.00000000000E+00 -0.19011765151E+04  0.19011765151E+04  0.00000000000E+00 0. -1.
         24    2    1    2    0    0 -0.68251949370E+02 -0.68991639424E+03  0.33604276742E+03  0.77449687749E+03  0.79232014141E+02 0.  0.
        254    2    1    2    0    0  0.68251949370E+02  0.68991639424E+03 -0.14893088527E+04  0.18745900674E+04  0.90299728811E+03 0.  0.
         23    2    4    4    0    0 -0.23107168611E+03  0.48524222689E+03 -0.13820984122E+04  0.14856526834E+04  0.90076254214E+02 0.  0.
         23    2    4    4    0    0  0.29932363548E+03  0.20467416735E+03 -0.10721044050E+03  0.38893738405E+03  0.91060730403E+02 0.  0.
          2    1    3    3  502    0  0.12076042625E+02 -0.12562524734E+03  0.81718856721E+02  0.15035127242E+03  0.00000000000E+00 0. -1.
         -1    1    3    3    0  502 -0.80327991995E+02 -0.56429114690E+03  0.25432391070E+03  0.62414560507E+03  0.00000000000E+00 0.  1.
         13    1    5    5    0    0 -0.18287224436E+03  0.29205906740E+03 -0.82656534704E+03  0.89551718550E+03  0.00000000000E+00 0. -1.
        -13    1    5    5    0    0 -0.48199441752E+02  0.19318315948E+03 -0.55553306520E+03  0.59013549785E+03  0.00000000000E+00 0.  1.
          1    1    6    6  503    0  0.30258859969E+03  0.18786744679E+03 -0.97568030347E+02  0.36928790769E+03  0.00000000000E+00 0. -1.
         -1    1    6    6    0  503 -0.32649642092E+01  0.16806720568E+02 -0.96424101522E+01  0.19649476357E+02  0.00000000000E+00 0.  1.
<mgrwt>
<rscale>  0 0.23848771E+04</rscale>
<asrwt>0</asrwt>
<pdfrwt beam="1">  1        2 0.29248869E+00 0.23848771E+04</pdfrwt>
<pdfrwt beam="2">  1       -1 0.11506314E+00 0.23848771E+04</pdfrwt>
<totfact> 0.53259396E+00</totfact>
</mgrwt>
</event>
<event>
12    7  0.1909736E-007  0.1694901E+04  0.7818608E-02  0.8764278E-01
          2   -1    0    0  501    0  0.00000000000E+00  0.00000000000E+00  0.12354887736E+04  0.12354887736E+04  0.00000000000E+00 0. -1.
         -1   -1    0    0    0  501 -0.00000000000E+00 -0.00000000000E+00 -0.58128577390E+03  0.58128577390E+03  0.00000000000E+00 0.  1.
         24    2    1    2    0    0  0.11961575485E+03  0.49568656157E+03  0.46650623406E+03  0.69580881273E+03  0.80676770622E+02 0.  0.
        254    2    1    2    0    0 -0.11961575485E+03 -0.49568656157E+03  0.18769676563E+03  0.11209657348E+04  0.98046978871E+03 0.  0.
         23    2    4    4    0    0 -0.46447415195E+03 -0.54273685842E+03  0.23658331639E+03  0.75798489949E+03  0.90939028695E+02 0.  0.
         23    2    4    4    0    0  0.34485839710E+03  0.47050296855E+02 -0.48886550752E+02  0.36298083529E+03  0.90687085387E+02 0.  0.
          4    1    3    3  502    0  0.10252137491E+03  0.48132562624E+03  0.43270824837E+03  0.65530254005E+03  0.00000000000E+00 0. -1.
         -3    1    3    3    0  502  0.17094379939E+02  0.14360935326E+02  0.33797985692E+02  0.40506272672E+02  0.00000000000E+00 0.  1.
         13    1    5    5    0    0 -0.23573568691E+03 -0.21781012787E+03  0.13238025536E+03  0.34718453004E+03  0.00000000000E+00 0. -1.
        -13    1    5    5    0    0 -0.22873846504E+03 -0.32492673055E+03  0.10420306102E+03  0.41080036945E+03  0.00000000000E+00 0.  1.
          3    1    6    6  503    0  0.13984969131E+02  0.14741991080E+02 -0.21226839232E+02  0.29385104499E+02  0.00000000000E+00 0. -1.
         -3    1    6    6    0  503  0.33087342797E+03  0.32308305775E+02 -0.27659711520E+02  0.33359573079E+03  0.00000000000E+00 0.  1.
<mgrwt>
<rscale>  0 0.16949006E+04</rscale>
<asrwt>0</asrwt>
<pdfrwt beam="1">  1        2 0.19007520E+00 0.16949006E+04</pdfrwt>
<pdfrwt beam="2">  1       -1 0.89428581E-01 0.16949006E+04</pdfrwt>
<totfact> 0.23990181E+01</totfact>
</mgrwt>
</event>
<event>
12    7  0.1909736E-007  0.2947507E+04  0.7818608E-02  0.8258881E-01
         -1   -1    0    0    0  501 -0.00000000000E+00  0.00000000000E+00  0.25762387131E+04  0.25762387131E+04  0.00000000000E+00 0.  1.
          2   -1    0    0  501    0  0.00000000000E+00 -0.00000000000E+00 -0.84307002953E+03  0.84307002953E+03  0.00000000000E+00 0. -1.
         24    2    1    2    0    0  0.24812561954E+03  0.73702564150E+03  0.20332905456E+04  0.21784331176E+04  0.80791617924E+02 0.  0.
        254    2    1    2    0    0 -0.24812561954E+03 -0.73702564150E+03 -0.30012186205E+03  0.12408756251E+04  0.91919859959E+03 0.  0.
         23    2    4    4    0    0  0.18618755100E+03  0.57119381647E+02 -0.24939204207E+03  0.32976504293E+03  0.92844843598E+02 0.  0.
         23    2    4    4    0    0 -0.43431317054E+03 -0.79414502314E+03 -0.50729819979E+02  0.91111058212E+03  0.90855546509E+02 0.  0.
          2    1    3    3  502    0  0.54522708644E+02  0.24900354189E+03  0.59445669156E+03  0.64680309814E+03  0.00000000000E+00 0. -1.
         -1    1    3    3    0  502  0.19360291089E+03  0.48802209960E+03  0.14388338541E+04  0.15316300194E+04  0.00000000000E+00 0.  1.
         13    1    5    5    0    0  0.12725941159E+03  0.81826453789E+02 -0.18590356181E+03  0.23968867447E+03  0.00000000000E+00 0.  1.
        -13    1    5    5    0    0  0.58928139412E+02 -0.24707072142E+02 -0.63488480264E+02  0.90076368459E+02  0.00000000000E+00 0. -1.
          4    1    6    6  503    0 -0.23595611125E+03 -0.38772554393E+03  0.14945629305E+02  0.45412526431E+03  0.00000000000E+00 0.  1.
         -4    1    6    6    0  503 -0.19835705929E+03 -0.40641947922E+03 -0.65675449284E+02  0.45698531781E+03  0.00000000000E+00 0. -1.
<mgrwt>
<rscale>  0 0.29475072E+04</rscale>
<asrwt>0</asrwt>
<pdfrwt beam="1">  1        2 0.12970308E+00 0.29475072E+04</pdfrwt>
<pdfrwt beam="2">  1       -1 0.39634441E+00 0.29475072E+04</pdfrwt>
<totfact> 0.23819632E-01</totfact>
</mgrwt>
</event>
<event>
12    7  0.1909736E-007  0.2186161E+04  0.7818608E-02  0.8524210E-01
         -3   -1    0    0    0  501 -0.00000000000E+00  0.00000000000E+00  0.42447882126E+03  0.42447882126E+03  0.00000000000E+00 0.  1.
          2   -1    0    0  501    0  0.00000000000E+00 -0.00000000000E+00 -0.28148046566E+04  0.28148046566E+04  0.00000000000E+00 0. -1.
         24    2    1    2    0    0  0.32812741971E+03  0.52698105152E+03 -0.16980207459E+02  0.62602628848E+03  0.79018695198E+02 0.  0.
        254    2    1    2    0    0 -0.32812741971E+03 -0.52698105152E+03 -0.23733456279E+04  0.26132571894E+04  0.90053708209E+03 0.  0.
         23    2    4    4    0    0  0.15491317836E+03 -0.89375090218E+02 -0.61033338834E+02  0.20905594651E+03  0.89405373113E+02 0.  0.
         23    2    4    4    0    0 -0.48304059807E+03 -0.43760596131E+03 -0.23123122891E+04  0.24042012429E+04  0.92565097865E+02 0.  0.
          2    1    3    3  502    0  0.22381370928E+02  0.16263290143E+02  0.11825291650E+02  0.30087503942E+02  0.00000000000E+00 0. -1.
         -3    1    3    3    0  502  0.30574604878E+03  0.51071776138E+03 -0.28805499109E+02  0.59593878454E+03  0.00000000000E+00 0.  1.
         13    1    5    5    0    0  0.20124572935E+02  0.11684593995E+02 -0.29649153083E+02  0.37690853680E+02  0.00000000000E+00 0.  1.
        -13    1    5    5    0    0  0.13478860543E+03 -0.10105968421E+03 -0.31384185752E+02  0.17136509283E+03  0.00000000000E+00 0. -1.
          1    1    6    6  503    0 -0.47978333186E+03 -0.44045582130E+03 -0.23078211851E+04  0.23979641362E+04  0.00000000000E+00 0. -1.
         -1    1    6    6    0  503 -0.32572662096E+01  0.28498599893E+01 -0.44911039869E+01  0.62371067123E+01  0.00000000000E+00 0.  1.
<mgrwt>
<rscale>  0 0.21861610E+04</rscale>
<asrwt>0</asrwt>
<pdfrwt beam="1">  1        2 0.43304687E+00 0.21861610E+04</pdfrwt>
<pdfrwt beam="2">  1       -3 0.65304434E-01 0.21861610E+04</pdfrwt>
<totfact> 0.30232566E+00</totfact>
</mgrwt>
</event>
<event>
12    7  0.1909736E-007  0.1395549E+04  0.7818608E-02  0.8957047E-01
          2   -1    0    0  501    0  0.00000000000E+00  0.00000000000E+00  0.33115015602E+03  0.33115015602E+03  0.00000000000E+00 0. -1.
         -1   -1    0    0    0  501 -0.00000000000E+00 -0.00000000000E+00 -0.14702975071E+04  0.14702975071E+04  0.00000000000E+00 0.  1.
         24    2    1    2    0    0  0.28681018260E+02  0.34739521781E+03 -0.46414372479E+03  0.58600398107E+03  0.80406656460E+02 0.  0.
        254    2    1    2    0    0 -0.28681018260E+02 -0.34739521781E+03 -0.67500362632E+03  0.12154436821E+04  0.94877152708E+03 0.  0.
         23    2    4    4    0    0  0.25991957362E+03 -0.87242014068E+02 -0.75474182773E+03  0.80796261516E+03  0.89437169027E+02 0.  0.
         23    2    4    4    0    0 -0.28860059188E+03 -0.26015320374E+03  0.79738201404E+02  0.40748106693E+03  0.93341566793E+02 0.  0.
          2    1    3    3  502    0 -0.48172858457E+01  0.11131330726E+03 -0.94350238421E+02  0.14599940447E+03  0.00000000000E+00 0. -1.
         -1    1    3    3    0  502  0.33498304105E+02  0.23608191055E+03 -0.36979348637E+03  0.44000457660E+03  0.00000000000E+00 0.  1.
         13    1    5    5    0    0  0.79055009797E+02  0.15001227151E+02 -0.19881339460E+03  0.21447959637E+03  0.00000000000E+00 0.  1.
        -13    1    5    5    0    0  0.18086456382E+03 -0.10224324122E+03 -0.55592843313E+03  0.59348301878E+03  0.00000000000E+00 0. -1.
          3    1    6    6  503    0 -0.28449523923E+03 -0.26289058716E+03  0.88575492615E+02  0.39735955991E+03  0.00000000000E+00 0. -1.
         -3    1    6    6    0  503 -0.41053526442E+01  0.27373834145E+01 -0.88372912110E+01  0.10121507014E+02  0.00000000000E+00 0.  1.
<mgrwt>
<rscale>  0 0.13955490E+04</rscale>
<asrwt>0</asrwt>
<pdfrwt beam="1">  1        2 0.50946178E-01 0.13955490E+04</pdfrwt>
<pdfrwt beam="2">  1       -1 0.22619962E+00 0.13955490E+04</pdfrwt>
<totfact> 0.10968593E+01</totfact>
</mgrwt>
</event>
<event>
12    7  0.1909736E-007  0.1954359E+04  0.7818608E-02  0.8628262E-01
         -1   -1    0    0    0  501 -0.00000000000E+00  0.00000000000E+00  0.65944511599E+03  0.65944511599E+03  0.00000000000E+00 0.  1.
          2   -1    0    0  501    0  0.00000000000E+00 -0.00000000000E+00 -0.14480050176E+04  0.14480050176E+04  0.00000000000E+00 0. -1.
         24    2    1    2    0    0 -0.58930834797E+02 -0.40539731362E+03  0.38772889408E+03  0.57020664101E+03  0.83558919091E+02 0.  0.
        254    2    1    2    0    0  0.58930834797E+02  0.40539731362E+03 -0.11762887957E+04  0.15372434926E+04  0.90091198209E+03 0.  0.
         23    2    4    4    0    0 -0.88223837087E+02 -0.19579625456E+03 -0.35751948939E+02  0.23628140513E+03  0.91820922607E+02 0.  0.
         23    2    4    4    0    0  0.14715467188E+03  0.60119356818E+03 -0.11405368468E+04  0.13009620875E+04  0.92681445447E+02 0.  0.
          2    1    3    3  502    0  0.57422796288E+00 -0.37337667132E+02  0.74184503687E+02  0.83052824828E+02  0.00000000000E+00 0. -1.
         -1    1    3    3    0  502 -0.59505062760E+02 -0.36805964649E+03  0.31354439039E+03  0.48715381618E+03  0.00000000000E+00 0.  1.
         13    1    5    5    0    0 -0.13863579470E+02 -0.78924272994E+02 -0.53902217335E+02  0.96574783132E+02  0.00000000000E+00 0.  1.
        -13    1    5    5    0    0 -0.74360257617E+02 -0.11687198156E+03  0.18150268396E+02  0.13970662200E+03  0.00000000000E+00 0. -1.
          4    1    6    6  503    0  0.73375097709E+02  0.13716485543E+03 -0.30484776045E+03  0.34224298325E+03  0.00000000000E+00 0. -1.
         -4    1    6    6    0  503  0.73779574176E+02  0.46402871276E+03 -0.83568908633E+03  0.95871910424E+03  0.00000000000E+00 0.  1.
<mgrwt>
<rscale>  0 0.19543591E+04</rscale>
<asrwt>0</asrwt>
<pdfrwt beam="1">  1        2 0.22277000E+00 0.19543591E+04</pdfrwt>
<pdfrwt beam="2">  1       -1 0.10145309E+00 0.19543591E+04</pdfrwt>
<totfact> 0.13310428E+01</totfact>
</mgrwt>
</event>
<event>
12    7  0.1909736E-007  0.1252566E+04  0.7818608E-02  0.9068051E-01
         -1   -1    0    0    0  501 -0.00000000000E+00  0.00000000000E+00  0.31413603683E+03  0.31413603683E+03  0.00000000000E+00 0.  1.
          2   -1    0    0  501    0  0.00000000000E+00 -0.00000000000E+00 -0.12485998349E+04  0.12485998349E+04  0.00000000000E+00 0. -1.
         24    2    1    2    0    0 -0.10355165203E+03  0.17387778550E+03 -0.48808955335E+03  0.53453313193E+03  0.80856837106E+02 0.  0.
        254    2    1    2    0    0  0.10355165203E+03 -0.17387778550E+03 -0.44637424468E+03  0.10282027398E+04  0.90387746891E+03 0.  0.
         23    2    4    4    0    0  0.38131508902E+01 -0.35307061098E+03 -0.63686671810E+03  0.73376862220E+03  0.90242882500E+02 0.  0.
         23    2    4    4    0    0  0.99738501138E+02  0.17919282548E+03  0.19049247342E+03  0.29443411756E+03  0.91357702672E+02 0.  0.
          4    1    3    3  502    0 -0.72225462666E+02  0.14321125902E+03 -0.28755222723E+03  0.32926017912E+03  0.00000000000E+00 0. -1.
         -3    1    3    3    0  502 -0.31326189362E+02  0.30666526480E+02 -0.20053732612E+03  0.20527295281E+03  0.00000000000E+00 0.  1.
         13    1    5    5    0    0  0.67081660281E+01 -0.23359817651E+02 -0.11686966798E+02  0.26967865416E+02  0.00000000000E+00 0. -1.
        -13    1    5    5    0    0 -0.28950151379E+01 -0.32971079333E+03 -0.62517975130E+03  0.70680075679E+03  0.00000000000E+00 0.  1.
          3    1    6    6  503    0  0.50032412426E+01  0.76586934254E+02  0.31892193214E+02  0.83112591762E+02  0.00000000000E+00 0. -1.
         -3    1    6    6    0  503  0.94735259895E+02  0.10260589123E+03  0.15860028021E+03  0.21132152580E+03  0.00000000000E+00 0.  1.
<mgrwt>
<rscale>  0 0.12525657E+04</rscale>
<asrwt>0</asrwt>
<pdfrwt beam="1">  1        2 0.19209229E+00 0.12525657E+04</pdfrwt>
<pdfrwt beam="2">  1       -1 0.48328620E-01 0.12525657E+04</pdfrwt>
<totfact> 0.85029596E+01</totfact>
</mgrwt>
</event>
<event>
12    7  0.1909736E-007  0.1511924E+04  0.7818608E-02  0.8876562E-01
         -1   -1    0    0    0  501 -0.00000000000E+00  0.00000000000E+00  0.27627167671E+03  0.27627167671E+03  0.00000000000E+00 0.  1.
          2   -1    0    0  501    0  0.00000000000E+00 -0.00000000000E+00 -0.20685384554E+04  0.20685384554E+04  0.00000000000E+00 0. -1.
         24    2    1    2    0    0 -0.42057385936E+03 -0.53931906933E+02 -0.24943423870E+03  0.49913330449E+03  0.84413236257E+02 0.  0.
        254    2    1    2    0    0  0.42057385936E+03  0.53931906933E+02 -0.15428325400E+04  0.18456768277E+04  0.91999982817E+03 0.  0.
         23    2    4    4    0    0  0.11009614525E+03  0.56702136552E+02  0.93511137434E+02  0.17763600645E+03  0.86451862186E+02 0.  0.
         23    2    4    4    0    0  0.31047771411E+03 -0.27702296195E+01 -0.16363436775E+04  0.16680408212E+04  0.91298769498E+02 0.  0.
          2    1    3    3  502    0 -0.74187865459E+01 -0.22690931579E+01  0.67306167354E+01  0.10270753585E+02  0.00000000000E+00 0. -1.
         -1    1    3    3    0  502 -0.41315507282E+03 -0.51662813775E+02 -0.25616485543E+03  0.48886255091E+03  0.00000000000E+00 0.  1.
         13    1    5    5    0    0  0.11586648649E+03  0.52699872600E+02  0.10443606052E+03  0.16464874734E+03  0.00000000000E+00 0.  1.
        -13    1    5    5    0    0 -0.57703412379E+01  0.40022639520E+01 -0.10924923088E+02  0.12987259112E+02  0.00000000000E+00 0. -1.
          2    1    6    6  503    0  0.11520367417E+03  0.16743381998E+02 -0.41450093688E+03  0.43053833053E+03  0.00000000000E+00 0. -1.
         -2    1    6    6    0  503  0.19527403994E+03 -0.19513611617E+02 -0.12218427406E+04  0.12375024907E+04  0.00000000000E+00 0.  1.
<mgrwt>
<rscale>  0 0.15119241E+04</rscale>
<asrwt>0</asrwt>
<pdfrwt beam="1">  1        2 0.31823667E+00 0.15119241E+04</pdfrwt>
<pdfrwt beam="2">  1       -1 0.42503336E-01 0.15119241E+04</pdfrwt>
<totfact> 0.36661423E+01</totfact>
</mgrwt>
</event>
<event>
12    7  0.1909736E-007  0.3860521E+04  0.7818608E-02  0.8033291E-01
         -1   -1    0    0    0  501 -0.00000000000E+00  0.00000000000E+00  0.14203081486E+04  0.14203081486E+04  0.00000000000E+00 0.  1.
          2   -1    0    0  501    0  0.00000000000E+00 -0.00000000000E+00 -0.26233072991E+04  0.26233072991E+04  0.00000000000E+00 0. -1.
         24    2    1    2    0    0  0.15102047319E+04 -0.86280739135E+03 -0.11521242066E+04  0.20877326194E+04  0.77989588257E+02 0.  0.
        254    2    1    2    0    0 -0.15102047319E+04  0.86280739135E+03 -0.50874943824E+02  0.19558828282E+04  0.89315981267E+03 0.  0.
         23    2    4    4    0    0 -0.14166523962E+04  0.68719593133E+03  0.23645506869E+03  0.15946447395E+04  0.88535789822E+02 0.  0.
         23    2    4    4    0    0 -0.93552335679E+02  0.17561146002E+03 -0.28733001251E+03  0.36123808867E+03  0.91340003368E+02 0.  0.
          4    1    3    3  502    0  0.64675761890E+03 -0.41303076046E+03 -0.49774991910E+03  0.91468290060E+03  0.00000000000E+00 0. -1.
         -3    1    3    3    0  502  0.86344711299E+03 -0.44977663089E+03 -0.65437428755E+03  0.11730497188E+04  0.00000000000E+00 0.  1.
         13    1    5    5    0    0 -0.14136381788E+04  0.68623868520E+03  0.23092839073E+03  0.15882771657E+04  0.00000000000E+00 0.  1.
        -13    1    5    5    0    0 -0.30142174523E+01  0.95724613555E+00  0.55266779557E+01  0.63675738111E+01  0.00000000000E+00 0. -1.
          2    1    6    6  503    0 -0.18592888146E+02 -0.82820738931E+01 -0.27008868576E+02  0.33819627723E+02  0.00000000000E+00 0. -1.
         -2    1    6    6    0  503 -0.74959447533E+02  0.18389353391E+03 -0.26032114394E+03  0.32741846095E+03  0.00000000000E+00 0.  1.
<mgrwt>
<rscale>  0 0.38605206E+04</rscale>
<asrwt>0</asrwt>
<pdfrwt beam="1">  1        2 0.40358574E+00 0.38605206E+04</pdfrwt>
<pdfrwt beam="2">  1       -1 0.21850895E+00 0.38605206E+04</pdfrwt>
<totfact> 0.30100106E-01</totfact>
</mgrwt>
</event>
<event>
12    7  0.1909736E-007  0.1363557E+04  0.7818608E-02  0.8980629E-01
         -1   -1    0    0    0  501 -0.00000000000E+00  0.00000000000E+00  0.20934651726E+03  0.20934651726E+03  0.00000000000E+00 0.  1.
          2   -1    0    0  501    0  0.00000000000E+00 -0.00000000000E+00 -0.22203471269E+04  0.22203471269E+04  0.00000000000E+00 0. -1.
         24    2    1    2    0    0 -0.87467624824E+01  0.19292262747E+03 -0.11431705539E+04  0.11621334936E+04  0.80123002516E+02 0.  0.
        254    2    1    2    0    0  0.87467624824E+01 -0.19292262747E+03 -0.86783005575E+03  0.12675601506E+04  0.90348441253E+03 0.  0.
         23    2    4    4    0    0  0.22018998530E+03 -0.41656581377E+02  0.99882647448E+02  0.26167233743E+03  0.90977846299E+02 0.  0.
         23    2    4    4    0    0 -0.21144322282E+03 -0.15126604609E+03 -0.96771270320E+03  0.10058878132E+04  0.88049778972E+02 0.  0.
          4    1    3    3  502    0  0.22015575911E+02  0.11444954181E+03 -0.81595202381E+03  0.82423363700E+03  0.00000000000E+00 0. -1.
         -3    1    3    3    0  502 -0.30762338394E+02  0.78473085658E+02 -0.32721853009E+03  0.33789985657E+03  0.00000000000E+00 0.  1.
         13    1    5    5    0    0  0.14438279685E+03 -0.63124127703E+02  0.92052973840E+02  0.18249602055E+03  0.00000000000E+00 0.  1.
        -13    1    5    5    0    0  0.75807188444E+02  0.21467546326E+02  0.78296736078E+01  0.79176316875E+02  0.00000000000E+00 0. -1.
          4    1    6    6  503    0 -0.20266106462E+03 -0.13242415284E+03 -0.94307433465E+03  0.97365130516E+03  0.00000000000E+00 0.  1.
         -4    1    6    6    0  503 -0.87821581902E+01 -0.18841893251E+02 -0.24638368552E+02  0.32236508010E+02  0.00000000000E+00 0. -1.
<mgrwt>
<rscale>  0 0.13635570E+04</rscale>
<asrwt>0</asrwt>
<pdfrwt beam="1">  1        2 0.34159187E+00 0.13635570E+04</pdfrwt>
<pdfrwt beam="2">  1       -1 0.32207156E-01 0.13635570E+04</pdfrwt>
<totfact> 0.50412295E+01</totfact>
</mgrwt>
</event>
<event>
12    7  0.1909736E-007  0.1669185E+04  0.7818608E-02  0.8779137E-01
         -1   -1    0    0    0  501 -0.00000000000E+00  0.00000000000E+00  0.20762155251E+03  0.20762155251E+03  0.00000000000E+00 0.  1.
          2   -1    0    0  501    0  0.00000000000E+00 -0.00000000000E+00 -0.33548747903E+04  0.33548747903E+04  0.00000000000E+00 0. -1.
         24    2    1    2    0    0 -0.21116538579E+03  0.82935165580E+02  0.40639296401E+02  0.24386638397E+03  0.79688135690E+02 0.  0.
        254    2    1    2    0    0  0.21116538579E+03 -0.82935165580E+02 -0.31878925342E+04  0.33186299588E+04  0.89396696375E+03 0.  0.
         23    2    4    4    0    0 -0.11722806172E+03 -0.25109033434E+03 -0.35444592558E+03  0.45970375087E+03  0.94376108994E+02 0.  0.
         23    2    4    4    0    0  0.32839344751E+03  0.16815516876E+03 -0.28334466086E+04  0.28589262079E+04  0.94450842233E+02 0.  0.
          4    1    3    3  502    0 -0.63130664338E+02  0.40171409803E+02 -0.21292523652E+02  0.77798422277E+02  0.00000000000E+00 0. -1.
         -3    1    3    3    0  502 -0.14803472146E+03  0.42763755777E+02  0.61931820053E+02  0.16606796169E+03  0.00000000000E+00 0.  1.
         13    1    5    5    0    0 -0.95460340938E+02 -0.23610089574E+03 -0.35008721344E+03  0.43291727464E+03  0.00000000000E+00 0. -1.
        -13    1    5    5    0    0 -0.21767720783E+02 -0.14989438599E+02 -0.43587121396E+01  0.26786476235E+02  0.00000000000E+00 0.  1.
          4    1    6    6  503    0  0.15900660583E+03  0.29103447674E+02 -0.11821083875E+04  0.11931095302E+04  0.00000000000E+00 0.  1.
         -4    1    6    6    0  503  0.16938684169E+03  0.13905172109E+03 -0.16513382211E+04  0.16658166777E+04  0.00000000000E+00 0. -1.
<mgrwt>
<rscale>  0 0.16691846E+04</rscale>
<asrwt>0</asrwt>
<pdfrwt beam="1">  1        2 0.51613455E+00 0.16691846E+04</pdfrwt>
<pdfrwt beam="2">  1       -1 0.31941779E-01 0.16691846E+04</pdfrwt>
<totfact> 0.10239487E+01</totfact>
</mgrwt>
</event>
<event>
12    7  0.1909736E-007  0.1843224E+04  0.7818608E-02  0.8683645E-01
         -1   -1    0    0    0  501 -0.00000000000E+00  0.00000000000E+00  0.33629685262E+03  0.33629685262E+03  0.00000000000E+00 0.  1.
          2   -1    0    0  501    0  0.00000000000E+00 -0.00000000000E+00 -0.25256511599E+04  0.25256511599E+04  0.00000000000E+00 0. -1.
         24    2    1    2    0    0 -0.88215576423E+02 -0.23838760606E+03 -0.18412792877E+04  0.18604248548E+04  0.79123867486E+02 0.  0.
        254    2    1    2    0    0  0.88215576423E+02  0.23838760606E+03 -0.34807501960E+03  0.10015231577E+04  0.90403638067E+03 0.  0.
         23    2    4    4    0    0  0.25116355825E+02 -0.59319008632E+02 -0.59096609500E+03  0.60141818554E+03  0.91177477185E+02 0.  0.
         23    2    4    4    0    0  0.63099220597E+02  0.29770661469E+03  0.24289107540E+03  0.40010497220E+03  0.92071571094E+02 0.  0.
          4    1    3    3  502    0 -0.79732432440E+02 -0.21644547499E+03 -0.14309615869E+04  0.14494333264E+04  0.00000000000E+00 0. -1.
         -3    1    3    3    0  502 -0.84831439827E+01 -0.21942131065E+02 -0.41031770081E+03  0.41099152844E+03  0.00000000000E+00 0.  1.
         13    1    5    5    0    0 -0.21396510480E+01 -0.20463241073E-01  0.31062088928E+01  0.37718773890E+01  0.00000000000E+00 0. -1.
        -13    1    5    5    0    0  0.27256006873E+02 -0.59298545391E+02 -0.59407230389E+03  0.59764630815E+03  0.00000000000E+00 0.  1.
          2    1    6    6  503    0 -0.12123371464E+02  0.16998305029E+02 -0.72240007454E+00  0.20891155339E+02  0.00000000000E+00 0. -1.
         -2    1    6    6    0  503  0.75222592062E+02  0.28070830966E+03  0.24361347547E+03  0.37921381687E+03  0.00000000000E+00 0.  1.
<mgrwt>
<rscale>  0 0.18432238E+04</rscale>
<asrwt>0</asrwt>
<pdfrwt beam="1">  1        2 0.38856172E+00 0.18432238E+04</pdfrwt>
<pdfrwt beam="2">  1       -1 0.51737977E-01 0.18432238E+04</pdfrwt>
<totfact> 0.13561662E+01</totfact>
</mgrwt>
</event>
<event>
12    7  0.1909736E-007  0.1598718E+04  0.7818608E-02  0.8821336E-01
          2   -1    0    0  501    0  0.00000000000E+00  0.00000000000E+00  0.97161942692E+03  0.97161942692E+03  0.00000000000E+00 0. -1.
         -1   -1    0    0    0  501 -0.00000000000E+00 -0.00000000000E+00 -0.65763936631E+03  0.65763936631E+03  0.00000000000E+00 0.  1.
         24    2    1    2    0    0  0.25169238278E+03 -0.23607786283E+03 -0.31816037448E+03  0.47577128428E+03  0.77784819774E+02 0.  0.
        254    2    1    2    0    0 -0.25169238278E+03  0.23607786283E+03  0.63214043509E+03  0.11534875089E+04  0.90102724196E+03 0.  0.
         23    2    4    4    0    0  0.19214252556E+03 -0.12516024849E+03  0.50224158889E+03  0.55922495809E+03  0.88893769230E+02 0.  0.
         23    2    4    4    0    0 -0.44383490835E+03  0.36123811132E+03  0.12989884620E+03  0.59426255086E+03  0.93764973058E+02 0.  0.
          4    1    3    3  502    0  0.19841765222E+02 -0.53223820107E+02 -0.69330243649E+02  0.89627860391E+02  0.00000000000E+00 0. -1.
         -3    1    3    3    0  502  0.23185061756E+03 -0.18285404273E+03 -0.24883013084E+03  0.38614342389E+03  0.00000000000E+00 0.  1.
         13    1    5    5    0    0  0.21169426227E+02 -0.15151986528E+02  0.12334128512E+02  0.28807256528E+02  0.00000000000E+00 0.  1.
        -13    1    5    5    0    0  0.17097309934E+03 -0.11000826196E+03  0.48990746038E+03  0.53041770156E+03  0.00000000000E+00 0. -1.
          1    1    6    6  503    0 -0.43808496498E+03  0.33999219715E+03  0.13686036103E+03  0.57117763356E+03  0.00000000000E+00 0. -1.
         -1    1    6    6    0  503 -0.57499433686E+01  0.21245914175E+02 -0.69615148327E+01  0.23084917297E+02  0.00000000000E+00 0.  1.
<mgrwt>
<rscale>  0 0.15987185E+04</rscale>
<asrwt>0</asrwt>
<pdfrwt beam="1">  1        2 0.14947991E+00 0.15987185E+04</pdfrwt>
<pdfrwt beam="2">  1       -1 0.10117529E+00 0.15987185E+04</pdfrwt>
<totfact> 0.26686920E+01</totfact>
</mgrwt>
</event>
<event>
12    7  0.1909736E-007  0.2478609E+04  0.7818608E-02  0.8410646E-01
         -1   -1    0    0    0  501 -0.00000000000E+00  0.00000000000E+00  0.92016536188E+03  0.92016536188E+03  0.00000000000E+00 0.  1.
          2   -1    0    0  501    0  0.00000000000E+00 -0.00000000000E+00 -0.16691298426E+04  0.16691298426E+04  0.00000000000E+00 0. -1.
         24    2    1    2    0    0 -0.95931855971E+03 -0.12833916142E+03  0.17318663475E+03  0.98617939643E+03  0.76112759308E+02 0.  0.
        254    2    1    2    0    0  0.95931855971E+03  0.12833916142E+03 -0.92215111551E+03  0.16031158081E+04  0.88479069556E+03 0.  0.
         23    2    4    4    0    0  0.10164581802E+03 -0.11603253434E+03 -0.63909887493E+03  0.66365944236E+03  0.90559715940E+02 0.  0.
         23    2    4    4    0    0  0.85767274169E+03  0.24437169576E+03 -0.28305224058E+03  0.93945636573E+03  0.84496358994E+02 0.  0.
          4    1    3    3  502    0 -0.36916454137E+02 -0.16039681030E+02  0.18019893920E+02  0.44100028691E+02  0.00000000000E+00 0. -1.
         -3    1    3    3    0  502 -0.92240210558E+03 -0.11229948039E+03  0.15516674083E+03  0.94207936774E+03  0.00000000000E+00 0.  1.
         13    1    5    5    0    0  0.81547346504E+02 -0.12790952962E+03 -0.59153133031E+03  0.61067186953E+03  0.00000000000E+00 0.  1.
        -13    1    5    5    0    0  0.20098471518E+02  0.11876995273E+02 -0.47567544616E+02  0.52987572834E+02  0.00000000000E+00 0. -1.
          1    1    6    6  503    0  0.21752592535E+03  0.37698695142E+02 -0.99675827025E+02  0.24222714610E+03  0.00000000000E+00 0. -1.
         -1    1    6    6    0  503  0.64014681634E+03  0.20667300062E+03 -0.18337641356E+03  0.69722921963E+03  0.00000000000E+00 0.  1.
<mgrwt>
<rscale>  0 0.24786089E+04</rscale>
<asrwt>0</asrwt>
<pdfrwt beam="1">  1        2 0.25678921E+00 0.24786089E+04</pdfrwt>
<pdfrwt beam="2">  1       -1 0.14156390E+00 0.24786089E+04</pdfrwt>
<totfact> 0.42256653E+00</totfact>
</mgrwt>
</event>
<event>
12    7  0.1909736E-007  0.1195896E+04  0.7818608E-02  0.9116456E-01
         -1   -1    0    0    0  501 -0.00000000000E+00  0.00000000000E+00  0.23357302553E+03  0.23357302553E+03  0.00000000000E+00 0.  1.
          2   -1    0    0  501    0  0.00000000000E+00 -0.00000000000E+00 -0.15307507377E+04  0.15307507377E+04  0.00000000000E+00 0. -1.
         24    2    1    2    0    0  0.78199248499E+01  0.15007198872E+03 -0.58818013883E+03  0.61233457175E+03  0.80093688987E+02 0.  0.
        254    2    1    2    0    0 -0.78199248499E+01 -0.15007198872E+03 -0.70899757328E+03  0.11519891914E+04  0.89544334564E+03 0.  0.
         23    2    4    4    0    0 -0.34523807358E+02 -0.48219927159E+03 -0.62599694756E+03  0.79629450681E+03  0.92221106162E+02 0.  0.
         23    2    4    4    0    0  0.26703882508E+02  0.33212728287E+03 -0.83000625720E+02  0.35569468463E+03  0.92779175660E+02 0.  0.
          2    1    3    3  502    0  0.16107787160E+02  0.14160054600E+03 -0.58154415538E+03  0.59875185185E+03  0.00000000000E+00 0. -1.
         -1    1    3    3    0  502 -0.82878623097E+01  0.84714427181E+01 -0.66359834486E+01  0.13582719894E+02  0.00000000000E+00 0.  1.
         13    1    5    5    0    0 -0.30314953397E+02 -0.46100621239E+03 -0.62118988556E+03  0.77415928476E+03  0.00000000000E+00 0. -1.
        -13    1    5    5    0    0 -0.42088539613E+01 -0.21193059202E+02 -0.48070620009E+01  0.22135222048E+02  0.00000000000E+00 0.  1.
          1    1    6    6  503    0  0.54724786278E+01  0.24332982766E+03 -0.99448415265E+02  0.26292459061E+03  0.00000000000E+00 0. -1.
         -1    1    6    6    0  503  0.21231403881E+02  0.88797455211E+02  0.16447789545E+02  0.92770094015E+02  0.00000000000E+00 0.  1.
<mgrwt>
<rscale>  0 0.11958965E+04</rscale>
<asrwt>0</asrwt>
<pdfrwt beam="1">  1        2 0.23550011E+00 0.11958965E+04</pdfrwt>
<pdfrwt beam="2">  1       -1 0.35934312E-01 0.11958965E+04</pdfrwt>
<totfact> 0.10146102E+02</totfact>
</mgrwt>
</event>
<event>
12    7  0.1909736E-007  0.3862090E+04  0.7818608E-02  0.8032960E-01
         -1   -1    0    0    0  501 -0.00000000000E+00  0.00000000000E+00  0.32610883523E+04  0.32610883523E+04  0.00000000000E+00 0.  1.
          2   -1    0    0  501    0  0.00000000000E+00 -0.00000000000E+00 -0.11434629970E+04  0.11434629970E+04  0.00000000000E+00 0. -1.
         24    2    1    2    0    0 -0.53225879372E+03  0.25183787182E+03 -0.96677099323E+03  0.11346520940E+04  0.77894055483E+02 0.  0.
        254    2    1    2    0    0  0.53225879372E+03 -0.25183787182E+03  0.30843963485E+04  0.32698992552E+04  0.91215051787E+03 0.  0.
         23    2    4    4    0    0 -0.95246454373E+02  0.24454969141E+03  0.89501082955E+03  0.93708136260E+03  0.90557476067E+02 0.  0.
         23    2    4    4    0    0  0.62750524809E+03 -0.49638756322E+03  0.21893855190E+04  0.23328178926E+04  0.92015868756E+02 0.  0.
          4    1    3    3  502    0 -0.43654771047E+03  0.19827346621E+03 -0.72546776231E+03  0.86959171171E+03  0.00000000000E+00 0. -1.
         -3    1    3    3    0  502 -0.95711083249E+02  0.53564405604E+02 -0.24130323092E+03  0.26506038229E+03  0.00000000000E+00 0.  1.
         13    1    5    5    0    0 -0.77629378797E+02  0.12703886581E+03  0.37079808356E+03  0.39957028499E+03  0.00000000000E+00 0. -1.
        -13    1    5    5    0    0 -0.17617075577E+02  0.11751082560E+03  0.52421274600E+03  0.53751107761E+03  0.00000000000E+00 0.  1.
          2    1    6    6  503    0  0.58630772024E+03 -0.48873696748E+03  0.20641095587E+04  0.22007200723E+04  0.00000000000E+00 0. -1.
         -2    1    6    6    0  503  0.41197527850E+02 -0.76505957480E+01  0.12527596023E+03  0.13209782030E+03  0.00000000000E+00 0.  1.
<mgrwt>
<rscale>  0 0.38620895E+04</rscale>
<asrwt>0</asrwt>
<pdfrwt beam="1">  1        2 0.17591739E+00 0.38620895E+04</pdfrwt>
<pdfrwt beam="2">  1       -1 0.50170590E+00 0.38620895E+04</pdfrwt>
<totfact> 0.27074457E-02</totfact>
</mgrwt>
</event>
<event>
12    7  0.1909736E-007  0.2131170E+04  0.7818608E-02  0.8547636E-01
         -1   -1    0    0    0  501 -0.00000000000E+00  0.00000000000E+00  0.44002906650E+03  0.44002906650E+03  0.00000000000E+00 0.  1.
          2   -1    0    0  501    0  0.00000000000E+00 -0.00000000000E+00 -0.25804468343E+04  0.25804468343E+04  0.00000000000E+00 0. -1.
         24    2    1    2    0    0  0.56821804843E+03  0.88556682996E+02  0.38798697179E+02  0.58174932506E+03  0.78821961645E+02 0.  0.
        254    2    1    2    0    0 -0.56821804843E+03 -0.88556682996E+02 -0.21792164650E+04  0.24387265758E+04  0.93149818754E+03 0.  0.
         23    2    4    4    0    0  0.72467889054E+02  0.15761465812E+03 -0.13225455031E+04  0.13372160512E+04  0.94478486299E+02 0.  0.
         23    2    4    4    0    0 -0.64068593748E+03 -0.24617134112E+03 -0.85667096186E+03  0.11015105245E+04  0.91441233166E+02 0.  0.
          4    1    3    3  502    0  0.59209359442E+02  0.26160190617E+02  0.22971839233E+02  0.68686310255E+02  0.00000000000E+00 0. -1.
         -3    1    3    3    0  502  0.50900868899E+03  0.62396492379E+02  0.15826857946E+02  0.51306301480E+03  0.00000000000E+00 0.  1.
         13    1    5    5    0    0  0.90867840266E+02  0.15369303430E+03 -0.12121400895E+04  0.12252192089E+04  0.00000000000E+00 0. -1.
        -13    1    5    5    0    0 -0.18399951212E+02  0.39216238153E+01 -0.11040541360E+03  0.11199684232E+03  0.00000000000E+00 0.  1.
          3    1    6    6  503    0 -0.57451418405E+03 -0.18852528421E+03 -0.74746697600E+03  0.96141313215E+03  0.00000000000E+00 0. -1.
         -3    1    6    6    0  503 -0.66171753431E+02 -0.57646056904E+02 -0.10920398586E+03  0.14009739240E+03  0.00000000000E+00 0.  1.
<mgrwt>
<rscale>  0 0.21311702E+04</rscale>
<asrwt>0</asrwt>
<pdfrwt beam="1">  1        2 0.39699181E+00 0.21311702E+04</pdfrwt>
<pdfrwt beam="2">  1       -1 0.67696781E-01 0.21311702E+04</pdfrwt>
<totfact> 0.72256921E+00</totfact>
</mgrwt>
</event>
<event>
12    7  0.1909736E-007  0.1924771E+04  0.7818608E-02  0.8642624E-01
          2   -1    0    0  501    0  0.00000000000E+00  0.00000000000E+00  0.25381400277E+04  0.25381400277E+04  0.00000000000E+00 0. -1.
         -1   -1    0    0    0  501 -0.00000000000E+00 -0.00000000000E+00 -0.36490717850E+03  0.36490717850E+03  0.00000000000E+00 0.  1.
         24    2    1    2    0    0 -0.45030903350E+03  0.45352780855E+03  0.14492824588E+04  0.15858893711E+04  0.78484094024E+02 0.  0.
        254    2    1    2    0    0  0.45030903350E+03 -0.45352780855E+03  0.72395039033E+03  0.13171578351E+04  0.89573148661E+03 0.  0.
         23    2    4    4    0    0  0.39945370330E+03 -0.74117900299E+02  0.81312884139E+03  0.91356851991E+03  0.91499746716E+02 0.  0.
         23    2    4    4    0    0  0.50855330206E+02 -0.37940990825E+03 -0.89178451065E+02  0.40358931518E+03  0.91615479586E+02 0.  0.
          4    1    3    3  502    0 -0.91686395482E+02  0.81021898362E+02  0.20975542319E+03  0.24283385408E+03  0.00000000000E+00 0. -1.
         -3    1    3    3    0  502 -0.35862263802E+03  0.37250591019E+03  0.12395270357E+04  0.13430555170E+04  0.00000000000E+00 0.  1.
         13    1    5    5    0    0  0.16695129899E+03 -0.74562804065E+02  0.32527148273E+03  0.37314057065E+03  0.00000000000E+00 0. -1.
        -13    1    5    5    0    0  0.23250240430E+03  0.44490376520E+00  0.48785735867E+03  0.54042794927E+03  0.00000000000E+00 0.  1.
          2    1    6    6  503    0  0.12871008145E+02 -0.59244606656E+00 -0.23668725227E+01  0.13100226279E+02  0.00000000000E+00 0. -1.
         -2    1    6    6    0  503  0.37984322061E+02 -0.37881746218E+03 -0.86811578543E+02  0.39048908890E+03  0.00000000000E+00 0.  1.
<mgrwt>
<rscale>  0 0.19247707E+04</rscale>
<asrwt>0</asrwt>
<pdfrwt beam="1">  1        2 0.39048307E+00 0.19247707E+04</pdfrwt>
<pdfrwt beam="2">  1       -1 0.56139567E-01 0.19247707E+04</pdfrwt>
<totfact> 0.11309388E+01</totfact>
</mgrwt>
</event>
<event>
12    7  0.1909736E-007  0.1199168E+04  0.7818608E-02  0.9113585E-01
          2   -1    0    0  501    0  0.00000000000E+00  0.00000000000E+00  0.14787831617E+04  0.14787831617E+04  0.00000000000E+00 0. -1.
         -1   -1    0    0    0  501 -0.00000000000E+00 -0.00000000000E+00 -0.24310581150E+03  0.24310581150E+03  0.00000000000E+00 0.  1.
         24    2    1    2    0    0  0.13138298151E+03  0.10963037561E+03  0.53785565210E+03  0.56995501625E+03  0.79244627338E+02 0.  0.
        254    2    1    2    0    0 -0.13138298151E+03 -0.10963037561E+03  0.69782169807E+03  0.11519339569E+04  0.90039791856E+03 0.  0.
         23    2    4    4    0    0  0.25745727663E+03  0.24890934649E+03  0.36677994045E+03  0.52126514477E+03  0.94602930073E+02 0.  0.
         23    2    4    4    0    0 -0.38884025814E+03 -0.35853972210E+03  0.33104175762E+03  0.63066881216E+03  0.91689839499E+02 0.  0.
          2    1    3    3  502    0  0.11876295739E+03  0.55155811139E+02  0.41009185618E+03  0.43049057371E+03  0.00000000000E+00 0. -1.
         -1    1    3    3    0  502  0.12620024116E+02  0.54474564473E+02  0.12776379592E+03  0.13946444254E+03  0.00000000000E+00 0.  1.
         13    1    5    5    0    0  0.47440893530E+02  0.81109572360E+02  0.14492169296E+03  0.17271855198E+03  0.00000000000E+00 0. -1.
        -13    1    5    5    0    0  0.21001638310E+03  0.16779977413E+03  0.22185824749E+03  0.34854659279E+03  0.00000000000E+00 0.  1.
          2    1    6    6  503    0 -0.24420119101E+03 -0.27793812894E+03  0.20858448715E+03  0.42472498571E+03  0.00000000000E+00 0. -1.
         -2    1    6    6    0  503 -0.14463906713E+03 -0.80601593160E+02  0.12245727047E+03  0.20594382645E+03  0.00000000000E+00 0.  1.
<mgrwt>
<rscale>  0 0.11991677E+04</rscale>
<asrwt>0</asrwt>
<pdfrwt beam="1">  1        2 0.22750510E+00 0.11991677E+04</pdfrwt>
<pdfrwt beam="2">  1       -1 0.37400895E-01 0.11991677E+04</pdfrwt>
<totfact> 0.10096455E+02</totfact>
</mgrwt>
</event>
<event>
12    7  0.1909736E-007  0.1182970E+04  0.7818608E-02  0.9127895E-01
         -1   -1    0    0    0  501 -0.00000000000E+00  0.00000000000E+00  0.14274489880E+03  0.14274489880E+03  0.00000000000E+00 0.  1.
          2   -1    0    0  501    0  0.00000000000E+00 -0.00000000000E+00 -0.24509082549E+04  0.24509082549E+04  0.00000000000E+00 0. -1.
         24    2    1    2    0    0  0.12954478609E+03 -0.71079631159E+02 -0.89941652829E+03  0.91491935569E+03  0.79329505707E+02 0.  0.
        254    2    1    2    0    0 -0.12954478609E+03  0.71079631159E+02 -0.14087468279E+04  0.16787337981E+04  0.90096913053E+03 0.  0.
         23    2    4    4    0    0  0.14735519103E+03  0.34123132215E+03 -0.26001840970E+03  0.46310829200E+03  0.93313178053E+02 0.  0.
         23    2    4    4    0    0 -0.27689997712E+03 -0.27015169099E+03 -0.11487284182E+04  0.12156255061E+04  0.92265154979E+02 0.  0.
          4    1    3    3  502    0  0.80358052415E+02 -0.53870136451E+02 -0.35278520076E+03  0.36580979493E+03  0.00000000000E+00 0. -1.
         -3    1    3    3    0  502  0.49186733673E+02 -0.17209494708E+02 -0.54663132754E+03  0.54910956076E+03  0.00000000000E+00 0.  1.
         13    1    5    5    0    0  0.90723218572E+02  0.20666631823E+03 -0.10111160022E+03  0.24731604311E+03  0.00000000000E+00 0.  1.
        -13    1    5    5    0    0  0.56631972456E+02  0.13456500392E+03 -0.15890680948E+03  0.21579224889E+03  0.00000000000E+00 0. -1.
          1    1    6    6  503    0 -0.82392823007E+01 -0.35603011066E+02 -0.63104265470E+02  0.72921934219E+02  0.00000000000E+00 0. -1.
         -1    1    6    6    0  503 -0.26866069482E+03 -0.23454867992E+03 -0.10856241527E+04  0.11427035718E+04  0.00000000000E+00 0.  1.
<mgrwt>
<rscale>  0 0.11829702E+04</rscale>
<asrwt>0</asrwt>
<pdfrwt beam="1">  1        2 0.37706278E+00 0.11829702E+04</pdfrwt>
<pdfrwt beam="2">  1       -1 0.21960755E-01 0.11829702E+04</pdfrwt>
<totfact> 0.73508158E+01</totfact>
</mgrwt>
</event>
<event>
12    7  0.1909736E-007  0.1584481E+04  0.7818608E-02  0.8830139E-01
         -1   -1    0    0    0  501 -0.00000000000E+00  0.00000000000E+00  0.71846517857E+03  0.71846517857E+03  0.00000000000E+00 0.  1.
          2   -1    0    0  501    0  0.00000000000E+00 -0.00000000000E+00 -0.87359171945E+03  0.87359171945E+03  0.00000000000E+00 0. -1.
         24    2    1    2    0    0  0.65739156923E+02 -0.49554181644E+03 -0.19518091609E+03  0.54250347772E+03  0.79568239513E+02 0.  0.
        254    2    1    2    0    0 -0.65739156923E+02  0.49554181644E+03  0.40054375214E+02  0.10495534203E+04  0.92199495686E+03 0.  0.
         23    2    4    4    0    0  0.87885586179E+02  0.39859365915E+02 -0.38081255023E+03  0.40409345026E+03  0.94660830456E+02 0.  0.
         23    2    4    4    0    0 -0.15362474310E+03  0.45568245053E+03  0.42086692544E+03  0.64545997004E+03  0.90788471605E+02 0.  0.
          2    1    3    3  502    0  0.83888227926E+01 -0.34095867258E+03 -0.12378396021E+03  0.36283006705E+03  0.00000000000E+00 0. -1.
         -1    1    3    3    0  502  0.57350334130E+02 -0.15458314387E+03 -0.71396955884E+02  0.17967341067E+03  0.00000000000E+00 0.  1.
         13    1    5    5    0    0  0.64774614154E+02 -0.78144933549E+01 -0.30307906436E+03  0.31002215437E+03  0.00000000000E+00 0.  1.
        -13    1    5    5    0    0  0.23110972025E+02  0.47673859270E+02 -0.77733485863E+02  0.94071295888E+02  0.00000000000E+00 0. -1.
          4    1    6    6  503    0 -0.12432563003E+03  0.32183341310E+03  0.34895566496E+03  0.49071749936E+03  0.00000000000E+00 0. -1.
         -4    1    6    6    0  503 -0.29299113075E+02  0.13384903742E+03  0.71911260478E+02  0.15474247067E+03  0.00000000000E+00 0.  1.
<mgrwt>
<rscale>  0 0.15844813E+04</rscale>
<asrwt>0</asrwt>
<pdfrwt beam="1">  1        2 0.13439873E+00 0.15844813E+04</pdfrwt>
<pdfrwt beam="2">  1       -1 0.11053310E+00 0.15844813E+04</pdfrwt>
<totfact> 0.25277150E+01</totfact>
</mgrwt>
</event>
<event>
12    7  0.1909736E-007  0.2754969E+04  0.7818608E-02  0.8317386E-01
         -1   -1    0    0    0  501 -0.00000000000E+00  0.00000000000E+00  0.61331573298E+03  0.61331573298E+03  0.00000000000E+00 0.  1.
          2   -1    0    0  501    0  0.00000000000E+00 -0.00000000000E+00 -0.30937801781E+04  0.30937801781E+04  0.00000000000E+00 0. -1.
         24    2    1    2    0    0  0.78812709084E+03 -0.92561609331E+03 -0.13406374303E+04  0.18115413619E+04  0.80398523891E+02 0.  0.
        254    2    1    2    0    0 -0.78812709084E+03  0.92561609331E+03 -0.11398270148E+04  0.18955545492E+04  0.90333380424E+03 0.  0.
         23    2    4    4    0    0 -0.51821657025E+03  0.54568141299E+03 -0.11542755500E+03  0.76661811016E+03  0.89795257150E+02 0.  0.
         23    2    4    4    0    0 -0.26991052059E+03  0.37993468032E+03 -0.10243994598E+04  0.11289364390E+04  0.88888580784E+02 0.  0.
          2    1    3    3  502    0  0.25506543462E+03 -0.31781188370E+03 -0.39653432334E+03  0.56859672787E+03  0.00000000000E+00 0. -1.
         -1    1    3    3    0  502  0.53306165622E+03 -0.60780420961E+03 -0.94410310700E+03  0.12429446340E+04  0.00000000000E+00 0.  1.
         13    1    5    5    0    0 -0.16687219094E+03  0.14216531938E+03 -0.67786777606E+02  0.22946100619E+03  0.00000000000E+00 0.  1.
        -13    1    5    5    0    0 -0.35134437931E+03  0.40351609360E+03 -0.47640777395E+02  0.53715710397E+03  0.00000000000E+00 0. -1.
          4    1    6    6  503    0 -0.27290719288E+03  0.34959042550E+03 -0.96985517128E+03  0.10664477741E+04  0.00000000000E+00 0. -1.
         -4    1    6    6    0  503  0.29966722928E+01  0.30344254822E+02 -0.54544288480E+02  0.62488664983E+02  0.00000000000E+00 0.  1.
<mgrwt>
<rscale>  0 0.27549694E+04</rscale>
<asrwt>0</asrwt>
<pdfrwt beam="1">  1        2 0.47596617E+00 0.27549694E+04</pdfrwt>
<pdfrwt beam="2">  1       -1 0.94356268E-01 0.27549694E+04</pdfrwt>
<totfact> 0.16385825E+00</totfact>
</mgrwt>
</event>
<event>
12    7  0.1909736E-007  0.1641396E+04  0.7818608E-02  0.8795513E-01
         -1   -1    0    0    0  501 -0.00000000000E+00  0.00000000000E+00  0.14621282344E+04  0.14621282344E+04  0.00000000000E+00 0.  1.
          2   -1    0    0  501    0  0.00000000000E+00 -0.00000000000E+00 -0.46066098078E+03  0.46066098078E+03  0.00000000000E+00 0. -1.
         24    2    1    2    0    0 -0.20310006509E+03 -0.18028194620E+03  0.96491301271E+03  0.10055790273E+04  0.79880169784E+02 0.  0.
        254    2    1    2    0    0  0.20310006509E+03  0.18028194620E+03  0.36554240914E+02  0.91721018785E+03  0.87532114084E+03 0.  0.
         23    2    4    4    0    0 -0.18850569069E+03  0.39709696436E+03 -0.50225057131E+02  0.45158884097E+03  0.90496024204E+02 0.  0.
         23    2    4    4    0    0  0.39160575578E+03 -0.21681501815E+03  0.86779298044E+02  0.46562134689E+03  0.94386291642E+02 0.  0.
          2    1    3    3  502    0 -0.14441423916E+03 -0.12014274853E+03  0.78264238691E+03  0.80487195148E+03  0.00000000000E+00 0. -1.
         -1    1    3    3    0  502 -0.58685825925E+02 -0.60139197676E+02  0.18227062580E+03  0.20070707584E+03  0.00000000000E+00 0.  1.
         13    1    5    5    0    0 -0.16633450488E+03  0.25161182997E+03 -0.33410140595E+02  0.30346650226E+03  0.00000000000E+00 0. -1.
        -13    1    5    5    0    0 -0.22171185810E+02  0.14548513438E+03 -0.16814916535E+02  0.14812233871E+03  0.00000000000E+00 0.  1.
          1    1    6    6  503    0  0.35923306354E+03 -0.17211669360E+03  0.95809611325E+02  0.40969748813E+03  0.00000000000E+00 0. -1.
         -1    1    6    6    0  503  0.32372692245E+02 -0.44698324550E+02 -0.90303132802E+01  0.55923858761E+02  0.00000000000E+00 0.  1.
<mgrwt>
<rscale>  0 0.16413963E+04</rscale>
<asrwt>0</asrwt>
<pdfrwt beam="1">  1        2 0.70870921E-01 0.16413963E+04</pdfrwt>
<pdfrwt beam="2">  1       -1 0.22494280E+00 0.16413963E+04</pdfrwt>
<totfact> 0.75460129E+00</totfact>
</mgrwt>
</event>
<event>
12    7  0.1909736E-007  0.1950439E+04  0.7818608E-02  0.8630149E-01
         -1   -1    0    0    0  501 -0.00000000000E+00  0.00000000000E+00  0.18466856526E+04  0.18466856526E+04  0.00000000000E+00 0.  1.
          2   -1    0    0  501    0  0.00000000000E+00 -0.00000000000E+00 -0.51500553620E+03  0.51500553620E+03  0.00000000000E+00 0. -1.
         24    2    1    2    0    0  0.20461723987E+03  0.13441130311E+03 -0.35288083016E+03  0.43653539605E+03  0.78125914098E+02 0.  0.
        254    2    1    2    0    0 -0.20461723987E+03 -0.13441130311E+03  0.16845609465E+04  0.19251557927E+04  0.89919109780E+03 0.  0.
         23    2    4    4    0    0  0.58921272180E+02 -0.21551533690E+03  0.16073652656E+04  0.16250457129E+04  0.85040550376E+02 0.  0.
         23    2    4    4    0    0 -0.26353851205E+03  0.81104033797E+02  0.77195680939E+02  0.30011007981E+03  0.89869211726E+02 0.  0.
          4    1    3    3  502    0  0.13595316334E+03  0.94377639119E+02 -0.17063508372E+03  0.23771144942E+03  0.00000000000E+00 0. -1.
         -1    1    3    3    0  502  0.68664076530E+02  0.40033663989E+02 -0.18224574645E+03  0.19882394664E+03  0.00000000000E+00 0.  1.
         13    1    5    5    0    0 -0.81342466213E+01 -0.10707019835E+03  0.58645886377E+03  0.59620817861E+03  0.00000000000E+00 0.  1.
        -13    1    5    5    0    0  0.67055518802E+02 -0.10844513855E+03  0.10209064018E+04  0.10288375343E+04  0.00000000000E+00 0. -1.
          4    1    6    6  503    0 -0.12736229905E+03 -0.62005990862E+01  0.23417809848E+02  0.12964565734E+03  0.00000000000E+00 0. -1.
         -4    1    6    6    0  503 -0.13617621300E+03  0.87304632884E+02  0.53777871091E+02  0.17046442247E+03  0.00000000000E+00 0.  1.
<mgrwt>
<rscale>  0 0.19504393E+04</rscale>
<asrwt>0</asrwt>
<pdfrwt beam="1">  1        2 0.79231622E-01 0.19504393E+04</pdfrwt>
<pdfrwt beam="2">  1       -1 0.28410548E+00 0.19504393E+04</pdfrwt>
<totfact> 0.26552092E+00</totfact>
</mgrwt>
</event>
<event>
12    7  0.1909736E-007  0.1691932E+04  0.7818608E-02  0.8765979E-01
         -1   -1    0    0    0  501 -0.00000000000E+00  0.00000000000E+00  0.12143008136E+04  0.12143008136E+04  0.00000000000E+00 0.  1.
          2   -1    0    0  501    0  0.00000000000E+00 -0.00000000000E+00 -0.58935819778E+03  0.58935819778E+03  0.00000000000E+00 0. -1.
         24    2    1    2    0    0  0.34023229760E+03 -0.24296853765E+03 -0.23889292111E+03  0.48820905416E+03  0.80538973070E+02 0.  0.
        254    2    1    2    0    0 -0.34023229760E+03  0.24296853765E+03  0.86383553693E+03  0.13154499572E+04  0.89966939954E+03 0.  0.
         23    2    4    4    0    0 -0.26572154176E+03 -0.16180528519E+03 -0.31429291585E+02  0.32608645298E+03  0.92496953323E+02 0.  0.
         23    2    4    4    0    0 -0.74510755837E+02  0.40477382284E+03  0.89526482852E+03  0.98936350424E+03  0.89147798374E+02 0.  0.
          2    1    3    3  502    0  0.23620072420E+03 -0.12223185768E+03 -0.13856755282E+03  0.29988727188E+03  0.00000000000E+00 0. -1.
         -1    1    3    3    0  502  0.10403157340E+03 -0.12073667997E+03 -0.10032536830E+03  0.18832178227E+03  0.00000000000E+00 0.  1.
         13    1    5    5    0    0 -0.22325217252E+03 -0.12721162916E+03  0.10405260573E+02  0.25716259560E+03  0.00000000000E+00 0.  1.
        -13    1    5    5    0    0 -0.42469369240E+02 -0.34593656030E+02 -0.41834552158E+02  0.68923857375E+02  0.00000000000E+00 0. -1.
          2    1    6    6  503    0 -0.28327867493E+01  0.54076391843E+02  0.20215180338E+03  0.20927883898E+03  0.00000000000E+00 0. -1.
         -2    1    6    6    0  503 -0.71677969088E+02  0.35069743100E+03  0.69311302514E+03  0.78008466526E+03  0.00000000000E+00 0.  1.
<mgrwt>
<rscale>  0 0.16919316E+04</rscale>
<asrwt>0</asrwt>
<pdfrwt beam="1">  1        2 0.90670492E-01 0.16919316E+04</pdfrwt>
<pdfrwt beam="2">  1       -1 0.18681551E+00 0.16919316E+04</pdfrwt>
<totfact> 0.10257087E+01</totfact>
</mgrwt>
</event>
<event>
12    7  0.1909736E-007  0.1735259E+04  0.7818608E-02  0.8741506E-01
         -1   -1    0    0    0  501 -0.00000000000E+00  0.00000000000E+00  0.58046371834E+03  0.58046371834E+03  0.00000000000E+00 0.  1.
          2   -1    0    0  501    0  0.00000000000E+00 -0.00000000000E+00 -0.12968614228E+04  0.12968614228E+04  0.00000000000E+00 0. -1.
         24    2    1    2    0    0  0.28206066469E+02  0.42639150630E+03  0.23846429071E+03  0.49575584892E+03  0.79393607794E+02 0.  0.
        254    2    1    2    0    0 -0.28206066469E+02 -0.42639150630E+03 -0.95486199520E+03  0.13815692923E+04  0.90242283912E+03 0.  0.
         23    2    4    4    0    0  0.92934445024E+02 -0.50102006920E+03 -0.12194211896E+03  0.53171152853E+03  0.90495018523E+02 0.  0.
         23    2    4    4    0    0 -0.12114051149E+03  0.74628562896E+02 -0.83291987624E+03  0.84985776373E+03  0.90874927226E+02 0.  0.
          2    1    3    3  502    0  0.94198504471E+01  0.10677034897E+03  0.10116002520E+03  0.14738382441E+03  0.00000000000E+00 0. -1.
         -1    1    3    3    0  502  0.18786216022E+02  0.31962115733E+03  0.13730426552E+03  0.34837202450E+03  0.00000000000E+00 0.  1.
         13    1    5    5    0    0  0.56724064452E+02 -0.12438167164E+03 -0.97456551179E+01  0.13705253563E+03  0.00000000000E+00 0.  1.
        -13    1    5    5    0    0  0.36210380572E+02 -0.37663839756E+03 -0.11219646384E+03  0.39465899290E+03  0.00000000000E+00 0. -1.
          3    1    6    6  503    0  0.10794374822E+02  0.24911874883E+02 -0.10851867108E+03  0.11186340783E+03  0.00000000000E+00 0. -1.
         -3    1    6    6    0  503 -0.13193488631E+03  0.49716688013E+02 -0.72440120516E+03  0.73799435589E+03  0.00000000000E+00 0.  1.
<mgrwt>
<rscale>  0 0.17352591E+04</rscale>
<asrwt>0</asrwt>
<pdfrwt beam="1">  1        2 0.19951714E+00 0.17352591E+04</pdfrwt>
<pdfrwt beam="2">  1       -1 0.89302111E-01 0.17352591E+04</pdfrwt>
<totfact> 0.22070848E+01</totfact>
</mgrwt>
</event>
<event>
12    7  0.1909736E-007  0.2525093E+04  0.7818608E-02  0.8394100E-01
         -1   -1    0    0    0  501 -0.00000000000E+00  0.00000000000E+00  0.52545839816E+03  0.52545839816E+03  0.00000000000E+00 0.  1.
          2   -1    0    0  501    0  0.00000000000E+00 -0.00000000000E+00 -0.30335857626E+04  0.30335857626E+04  0.00000000000E+00 0. -1.
         24    2    1    2    0    0  0.17609607002E+03 -0.89537869447E+03 -0.23053530744E+03  0.94463572645E+03  0.80481645912E+02 0.  0.
        254    2    1    2    0    0 -0.17609607002E+03  0.89537869447E+03 -0.22775920570E+04  0.26144084343E+04  0.90276965548E+03 0.  0.
         23    2    4    4    0    0  0.15867795351E+03 -0.72288116459E+02 -0.73232418985E+03  0.75832350788E+03  0.91386863646E+02 0.  0.
         23    2    4    4    0    0 -0.33477402353E+03  0.96766681093E+03 -0.15452678672E+04  0.18560849264E+04  0.93518816608E+02 0.  0.
          2    1    3    3  502    0  0.36427488680E+00 -0.28692473438E+02 -0.21734513831E+02  0.35996941809E+02  0.00000000000E+00 0. -1.
         -1    1    3    3    0  502  0.17573179513E+03 -0.86668622103E+03 -0.20880079361E+03  0.90863878464E+03  0.00000000000E+00 0.  1.
         13    1    5    5    0    0  0.10274178816E+03  0.24350857622E+01 -0.41675114329E+03  0.42923573956E+03  0.00000000000E+00 0. -1.
        -13    1    5    5    0    0  0.55936165352E+02 -0.74723202222E+02 -0.31557304656E+03  0.32908776832E+03  0.00000000000E+00 0.  1.
          4    1    6    6  503    0 -0.29120335871E+03  0.79049143674E+03 -0.12097768095E+04  0.14741899594E+04  0.00000000000E+00 0. -1.
         -4    1    6    6    0  503 -0.43570664818E+02  0.17717537419E+03 -0.33549105769E+03  0.38189496703E+03  0.00000000000E+00 0.  1.
<mgrwt>
<rscale>  0 0.25250926E+04</rscale>
<asrwt>0</asrwt>
<pdfrwt beam="1">  1        2 0.46670550E+00 0.25250926E+04</pdfrwt>
<pdfrwt beam="2">  1       -1 0.80839755E-01 0.25250926E+04</pdfrwt>
<totfact> 0.25609786E+00</totfact>
</mgrwt>
</event>
<event>
12    7  0.1909736E-007  0.1955634E+04  0.7818608E-02  0.8627649E-01
          2   -1    0    0  501    0  0.00000000000E+00  0.00000000000E+00  0.50939923971E+03  0.50939923971E+03  0.00000000000E+00 0. -1.
         -1   -1    0    0    0  501 -0.00000000000E+00 -0.00000000000E+00 -0.18769686424E+04  0.18769686424E+04  0.00000000000E+00 0.  1.
         24    2    1    2    0    0  0.13772638813E+03 -0.11670756230E+03  0.35084421214E+03  0.40242481951E+03  0.79150875420E+02 0.  0.
        254    2    1    2    0    0 -0.13772638813E+03  0.11670756230E+03 -0.17184136149E+04  0.19839430626E+04  0.97493359309E+03 0.  0.
         23    2    4    4    0    0  0.10368414600E+03  0.35428015312E+03 -0.20811503381E+03  0.43331351622E+03  0.90464949062E+02 0.  0.
         23    2    4    4    0    0 -0.24141053413E+03 -0.23757259083E+03 -0.15102985811E+04  0.15506295464E+04  0.93436633009E+02 0.  0.
          2    1    3    3  502    0  0.11142646854E+03 -0.12676497055E+03  0.30649767540E+03  0.34989432787E+03  0.00000000000E+00 0. -1.
         -1    1    3    3    0  502  0.26299919592E+02  0.10057408249E+02  0.44346536742E+02  0.52530491643E+02  0.00000000000E+00 0.  1.
         13    1    5    5    0    0 -0.12027150285E+02  0.79143483153E+01 -0.39318642819E+01  0.14924771689E+02  0.00000000000E+00 0.  1.
        -13    1    5    5    0    0  0.11571129628E+03  0.34636580481E+03 -0.20418316953E+03  0.41838874453E+03  0.00000000000E+00 0. -1.
          3    1    6    6  503    0 -0.18045176018E+03 -0.13926959051E+03 -0.83778292324E+03  0.86823907022E+03  0.00000000000E+00 0. -1.
         -3    1    6    6    0  503 -0.60958773949E+02 -0.98303000321E+02 -0.67251565782E+03  0.68239047620E+03  0.00000000000E+00 0.  1.
<mgrwt>
<rscale>  0 0.19556343E+04</rscale>
<asrwt>0</asrwt>
<pdfrwt beam="1">  1        2 0.78369114E-01 0.19556343E+04</pdfrwt>
<pdfrwt beam="2">  1       -1 0.28876441E+00 0.19556343E+04</pdfrwt>
<totfact> 0.25080279E+00</totfact>
</mgrwt>
</event>
<event>
12    7  0.1909736E-007  0.2930384E+04  0.7818608E-02  0.8263894E-01
         -1   -1    0    0    0  501 -0.00000000000E+00  0.00000000000E+00  0.15659936763E+04  0.15659936763E+04  0.00000000000E+00 0.  1.
          2   -1    0    0  501    0  0.00000000000E+00 -0.00000000000E+00 -0.13708787956E+04  0.13708787956E+04  0.00000000000E+00 0. -1.
         24    2    1    2    0    0 -0.11717730410E+04 -0.34376906854E+03  0.60730640984E+03  0.13666415044E+04  0.87513963966E+02 0.  0.
        254    2    1    2    0    0  0.11717730410E+04  0.34376906854E+03 -0.41219152908E+03  0.15702309675E+04  0.89693600808E+03 0.  0.
         23    2    4    4    0    0  0.10581912131E+04  0.42896096206E+03 -0.22684783550E+02  0.11457566250E+04  0.92018986209E+02 0.  0.
         23    2    4    4    0    0  0.11358182793E+03 -0.85191893511E+02 -0.38950674553E+03  0.42447434256E+03  0.91128877550E+02 0.  0.
          2    1    3    3  502    0 -0.71233943788E+03 -0.18749067813E+03  0.40775793969E+03  0.84193038105E+03  0.00000000000E+00 0. -1.
         -1    1    3    3    0  502 -0.45943360314E+03 -0.15627839042E+03  0.19954847016E+03  0.52471112333E+03  0.00000000000E+00 0.  1.
         13    1    5    5    0    0  0.55351843551E+01 -0.25125200925E+01 -0.51525203049E+01  0.79686566341E+01  0.00000000000E+00 0. -1.
        -13    1    5    5    0    0  0.10526560287E+04  0.43147348215E+03 -0.17532263245E+02  0.11377879683E+04  0.00000000000E+00 0.  1.
          2    1    6    6  503    0  0.60233167179E+01  0.94797454510E+01 -0.10815438353E+03  0.10873599494E+03  0.00000000000E+00 0. -1.
         -2    1    6    6    0  503  0.10755851121E+03 -0.94671638962E+02 -0.28135236200E+03  0.31573834762E+03  0.00000000000E+00 0.  1.
<mgrwt>
<rscale>  0 0.29303840E+04</rscale>
<asrwt>0</asrwt>
<pdfrwt beam="1">  1        2 0.21090443E+00 0.29303840E+04</pdfrwt>
<pdfrwt beam="2">  1       -1 0.24092211E+00 0.29303840E+04</pdfrwt>
<totfact> 0.11789698E+00</totfact>
</mgrwt>
</event>
<event>
12    7  0.1909736E-007  0.1448826E+04  0.7818608E-02  0.8919215E-01
         -1   -1    0    0    0  501 -0.00000000000E+00  0.00000000000E+00  0.31500878381E+03  0.31500878381E+03  0.00000000000E+00 0.  1.
          2   -1    0    0  501    0  0.00000000000E+00 -0.00000000000E+00 -0.16659032333E+04  0.16659032333E+04  0.00000000000E+00 0. -1.
         24    2    1    2    0    0  0.44050473938E+03  0.39359825944E+02 -0.36219923151E+03  0.57701086476E+03  0.78483332135E+02 0.  0.
        254    2    1    2    0    0 -0.44050473938E+03 -0.39359825944E+02 -0.98869521796E+03  0.14039011523E+04  0.89321139166E+03 0.  0.
         23    2    4    4    0    0 -0.11416570702E+03 -0.22171293191E+03  0.71666086836E+02  0.27578281867E+03  0.93432875542E+02 0.  0.
         23    2    4    4    0    0 -0.32633903236E+03  0.18235310597E+03 -0.10603613048E+04  0.11281183337E+04  0.92385381713E+02 0.  0.
          2    1    3    3  502    0  0.28905694990E+03  0.24197246077E+02 -0.18789904464E+03  0.34560885113E+03  0.00000000000E+00 0. -1.
         -1    1    3    3    0  502  0.15144778949E+03  0.15162579867E+02 -0.17430018687E+03  0.23140201363E+03  0.00000000000E+00 0.  1.
         13    1    5    5    0    0 -0.36368081048E+02 -0.10163505345E+02  0.25878824594E+02  0.45778245078E+02  0.00000000000E+00 0. -1.
        -13    1    5    5    0    0 -0.77797625975E+02 -0.21154942657E+03  0.45787262242E+02  0.23000457359E+03  0.00000000000E+00 0.  1.
          4    1    6    6  503    0 -0.23194395955E+03  0.11089496406E+03 -0.83311629702E+03  0.87188213526E+03  0.00000000000E+00 0. -1.
         -4    1    6    6    0  503 -0.94395072815E+02  0.71458141909E+02 -0.22724500778E+03  0.25623619841E+03  0.00000000000E+00 0.  1.
<mgrwt>
<rscale>  0 0.14488259E+04</rscale>
<asrwt>0</asrwt>
<pdfrwt beam="1">  1        2 0.25629281E+00 0.14488259E+04</pdfrwt>
<pdfrwt beam="2">  1       -1 0.48462889E-01 0.14488259E+04</pdfrwt>
<totfact> 0.48216081E+01</totfact>
</mgrwt>
</event>
<event>
12    7  0.1909736E-007  0.1823955E+04  0.7818608E-02  0.8693663E-01
          2   -1    0    0  501    0  0.00000000000E+00  0.00000000000E+00  0.84147437609E+03  0.84147437609E+03  0.00000000000E+00 0. -1.
         -1   -1    0    0    0  501 -0.00000000000E+00 -0.00000000000E+00 -0.98838762655E+03  0.98838762655E+03  0.00000000000E+00 0.  1.
         24    2    1    2    0    0 -0.19969707006E+03  0.32969804850E+03  0.51032765223E+03  0.64444947932E+03  0.79379441833E+02 0.  0.
        254    2    1    2    0    0  0.19969707006E+03 -0.32969804850E+03 -0.65724090270E+03  0.11854125233E+04  0.90810655943E+03 0.  0.
         23    2    4    4    0    0  0.38978303781E+03 -0.31025046139E+03 -0.78797782304E+03  0.93664157532E+03  0.90566139787E+02 0.  0.
         23    2    4    4    0    0 -0.19008596774E+03 -0.19447587110E+02  0.13073692034E+03  0.24877094800E+03  0.91016253769E+02 0.  0.
          4    1    3    3  502    0 -0.11564549318E+03  0.18359861542E+03  0.22172826495E+03  0.31023499989E+03  0.00000000000E+00 0. -1.
         -3    1    3    3    0  502 -0.84051576886E+02  0.14609943308E+03  0.28859938728E+03  0.33421447943E+03  0.00000000000E+00 0.  1.
         13    1    5    5    0    0  0.14846833753E+03 -0.82236986068E+02 -0.32871174560E+03  0.36994213172E+03  0.00000000000E+00 0. -1.
        -13    1    5    5    0    0  0.24131470027E+03 -0.22801347532E+03 -0.45926607744E+03  0.56669944360E+03  0.00000000000E+00 0.  1.
          1    1    6    6  503    0 -0.32613531940E+02 -0.26408011494E+02  0.66338196643E+02  0.78497018227E+02  0.00000000000E+00 0. -1.
         -1    1    6    6    0  503 -0.15747243580E+03  0.69604243836E+01  0.64398723694E+02  0.17027392977E+03  0.00000000000E+00 0.  1.
<mgrwt>
<rscale>  0 0.18239549E+04</rscale>
<asrwt>0</asrwt>
<pdfrwt beam="1">  1        2 0.12945760E+00 0.18239549E+04</pdfrwt>
<pdfrwt beam="2">  1       -1 0.15205963E+00 0.18239549E+04</pdfrwt>
<totfact> 0.11636832E+01</totfact>
</mgrwt>
</event>
<event>
12    7  0.1909736E-007  0.1642327E+04  0.7818608E-02  0.8794959E-01
          4   -1    0    0  501    0  0.00000000000E+00  0.00000000000E+00  0.10012475205E+04  0.10012475205E+04  0.00000000000E+00 0. -1.
         -3   -1    0    0    0  501 -0.00000000000E+00 -0.00000000000E+00 -0.67346894950E+03  0.67346894950E+03  0.00000000000E+00 0.  1.
         24    2    1    2    0    0 -0.12620034583E+03  0.16555569121E+03 -0.43888028933E+03  0.49220347216E+03  0.79455241893E+02 0.  0.
        254    2    1    2    0    0  0.12620034583E+03 -0.16555569121E+03  0.76665886029E+03  0.11825129978E+04  0.87592006924E+03 0.  0.
         23    2    4    4    0    0 -0.31532627032E+03 -0.20077552289E+03  0.13942657170E+03  0.40939938648E+03  0.91796630732E+02 0.  0.
         23    2    4    4    0    0  0.44152661615E+03  0.35219831672E+02  0.62723228859E+03  0.77311361130E+03  0.89989570640E+02 0.  0.
          2    1    3    3  502    0  0.81890150826E+01  0.32564368354E+02 -0.73341244588E+02  0.80662483300E+02  0.00000000000E+00 0. -1.
         -1    1    3    3    0  502 -0.13438936091E+03  0.13299132286E+03 -0.36553904474E+03  0.41154098886E+03  0.00000000000E+00 0.  1.
         13    1    5    5    0    0 -0.22549806382E+03 -0.18196343635E+03  0.82004924821E+02  0.30113929775E+03  0.00000000000E+00 0.  1.
        -13    1    5    5    0    0 -0.89828206500E+02 -0.18812086541E+02  0.57421646879E+02  0.10826008874E+03  0.00000000000E+00 0. -1.
          1    1    6    6  503    0  0.80005727652E+02  0.11344601568E+02  0.62519261950E+02  0.10216787439E+03  0.00000000000E+00 0. -1.
         -1    1    6    6    0  503  0.36152088850E+03  0.23875230104E+02  0.56471302664E+03  0.67094573692E+03  0.00000000000E+00 0.  1.
<mgrwt>
<rscale>  0 0.16423265E+04</rscale>
<asrwt>0</asrwt>
<pdfrwt beam="1">  1        4 0.15403808E+00 0.16423265E+04</pdfrwt>
<pdfrwt beam="2">  1       -3 0.10361061E+00 0.16423265E+04</pdfrwt>
<totfact> 0.48729270E-01</totfact>
</mgrwt>
</event>
<event>
12    7  0.1909736E-007  0.1229408E+04  0.7818608E-02  0.9087498E-01
         -1   -1    0    0    0  501 -0.00000000000E+00  0.00000000000E+00  0.31083729778E+03  0.31083729778E+03  0.00000000000E+00 0.  1.
          2   -1    0    0  501    0  0.00000000000E+00 -0.00000000000E+00 -0.12156236968E+04  0.12156236968E+04  0.00000000000E+00 0. -1.
         24    2    1    2    0    0  0.65960253945E-01  0.27463077886E+03 -0.13023368393E+03  0.31424765668E+03  0.79804186887E+02 0.  0.
        254    2    1    2    0    0 -0.65960253944E-01 -0.27463077886E+03 -0.77455271510E+03  0.12122133379E+04  0.89112692649E+03 0.  0.
         23    2    4    4    0    0  0.29724360351E+03 -0.43866478504E+02  0.33027553318E+02  0.31662843564E+03  0.94258788514E+02 0.  0.
         23    2    4    4    0    0 -0.29730956376E+03 -0.23076430036E+03 -0.80758026841E+03  0.89558490229E+03  0.90781541329E+02 0.  0.
          4    1    3    3  502    0 -0.21181788595E+02  0.16464686955E+02 -0.95712637680E+01  0.28484437413E+02  0.00000000000E+00 0. -1.
         -3    1    3    3    0  502  0.21247748849E+02  0.25816609191E+03 -0.12066242016E+03  0.28576321926E+03  0.00000000000E+00 0.  1.
         13    1    5    5    0    0  0.18381802383E+03  0.90383928793E+01  0.49012619433E+02  0.19045470668E+03  0.00000000000E+00 0. -1.
        -13    1    5    5    0    0  0.11342557967E+03 -0.52904871384E+02 -0.15985066114E+02  0.12617372896E+03  0.00000000000E+00 0.  1.
          2    1    6    6  503    0 -0.14664116310E+03 -0.16914066194E+03 -0.44469923180E+03  0.49786504296E+03  0.00000000000E+00 0. -1.
         -2    1    6    6    0  503 -0.15066840066E+03 -0.61623638424E+02 -0.36288103661E+03  0.39771985933E+03  0.00000000000E+00 0.  1.
<mgrwt>
<rscale>  0 0.12294083E+04</rscale>
<asrwt>0</asrwt>
<pdfrwt beam="1">  1        2 0.18701903E+00 0.12294083E+04</pdfrwt>
<pdfrwt beam="2">  1       -1 0.47821123E-01 0.12294083E+04</pdfrwt>
<totfact> 0.90885854E+01</totfact>
</mgrwt>
</event>
<event>
12    7  0.1909736E-007  0.1499932E+04  0.7818608E-02  0.8884498E-01
         -1   -1    0    0    0  501 -0.00000000000E+00  0.00000000000E+00  0.52711530600E+03  0.52711530600E+03  0.00000000000E+00 0.  1.
          2   -1    0    0  501    0  0.00000000000E+00 -0.00000000000E+00 -0.10670315778E+04  0.10670315778E+04  0.00000000000E+00 0. -1.
         24    2    1    2    0    0  0.23148934555E+03 -0.26490892325E+03  0.16722973141E+03  0.39777706446E+03  0.80602451689E+02 0.  0.
        254    2    1    2    0    0 -0.23148934555E+03  0.26490892325E+03 -0.70714600325E+03  0.11963698194E+04  0.89859958830E+03 0.  0.
         23    2    4    4    0    0  0.98918033832E+02  0.47485227779E+03 -0.60486796928E+03  0.78130912271E+03  0.96484308766E+02 0.  0.
         23    2    4    4    0    0 -0.33040737938E+03 -0.20994335454E+03 -0.10227803397E+03  0.41506069667E+03  0.92570714717E+02 0.  0.
          4    1    3    3  502    0  0.45659566279E+02 -0.26960529129E+02  0.80395821847E+00  0.53031240534E+02  0.00000000000E+00 0. -1.
         -3    1    3    3    0  502  0.18582977927E+03 -0.23794839412E+03  0.16642577320E+03  0.34474582392E+03  0.00000000000E+00 0.  1.
         13    1    5    5    0    0  0.23406316745E+02  0.33024799343E+03 -0.41867779213E+03  0.53376276233E+03  0.00000000000E+00 0. -1.
        -13    1    5    5    0    0  0.75511717087E+02  0.14460428436E+03 -0.18619017715E+03  0.24754636039E+03  0.00000000000E+00 0.  1.
          3    1    6    6  503    0 -0.10834742328E+03 -0.12266935265E+03 -0.41463720947E+02  0.16883771607E+03  0.00000000000E+00 0. -1.
         -3    1    6    6    0  503 -0.22205995610E+03 -0.87274001882E+02 -0.60814313020E+02  0.24622298060E+03  0.00000000000E+00 0.  1.
<mgrwt>
<rscale>  0 0.14999316E+04</rscale>
<asrwt>0</asrwt>
<pdfrwt beam="1">  1        2 0.16415870E+00 0.14999316E+04</pdfrwt>
<pdfrwt beam="2">  1       -1 0.81094664E-01 0.14999316E+04</pdfrwt>
<totfact> 0.38148339E+01</totfact>
</mgrwt>
</event>
<event>
12    7  0.1909736E-007  0.1789012E+04  0.7818608E-02  0.8712164E-01
         -1   -1    0    0    0  501 -0.00000000000E+00  0.00000000000E+00  0.42566033404E+03  0.42566033404E+03  0.00000000000E+00 0.  1.
          2   -1    0    0  501    0  0.00000000000E+00 -0.00000000000E+00 -0.18797650131E+04  0.18797650131E+04  0.00000000000E+00 0. -1.
         24    2    1    2    0    0 -0.52912621923E+03  0.27852972635E+03 -0.15475201436E+03  0.62267456509E+03  0.78880059137E+02 0.  0.
        254    2    1    2    0    0  0.52912621923E+03 -0.27852972635E+03 -0.12993526647E+04  0.16827507821E+04  0.88644203583E+03 0.  0.
         23    2    4    4    0    0  0.22499084831E+03 -0.34217401820E+03 -0.87601412313E+02  0.42858081463E+03  0.91123908379E+02 0.  0.
         23    2    4    4    0    0  0.30413537092E+03  0.63644291847E+02 -0.12117512524E+04  0.12541699675E+04  0.89734551678E+02 0.  0.
          2    1    3    3  502    0 -0.14664214322E+03  0.43123285951E+02 -0.22594125089E+02  0.15451223397E+03  0.00000000000E+00 0. -1.
         -1    1    3    3    0  502 -0.38248407601E+03  0.23540644040E+03 -0.13215788927E+03  0.46816233112E+03  0.00000000000E+00 0.  1.
         13    1    5    5    0    0 -0.21434008359E+01 -0.28314030002E+02 -0.21363913240E+02  0.35534423466E+02  0.00000000000E+00 0.  1.
        -13    1    5    5    0    0  0.22713424914E+03 -0.31385998819E+03 -0.66237499073E+02  0.39304639116E+03  0.00000000000E+00 0. -1.
          1    1    6    6  503    0  0.24377331419E+03  0.19612220529E+02 -0.83481466273E+03  0.86989975802E+03  0.00000000000E+00 0. -1.
         -1    1    6    6    0  503  0.60362056724E+02  0.44032071319E+02 -0.37693658970E+03  0.38427020943E+03  0.00000000000E+00 0.  1.
<mgrwt>
<rscale>  0 0.17890125E+04</rscale>
<asrwt>0</asrwt>
<pdfrwt beam="1">  1        2 0.28919462E+00 0.17890125E+04</pdfrwt>
<pdfrwt beam="2">  1       -1 0.65486206E-01 0.17890125E+04</pdfrwt>
<totfact> 0.19821924E+01</totfact>
</mgrwt>
</event>
<event>
12    7  0.1909736E-007  0.2075694E+04  0.7818608E-02  0.8572026E-01
         -1   -1    0    0    0  501 -0.00000000000E+00  0.00000000000E+00  0.59558348740E+03  0.59558348740E+03  0.00000000000E+00 0.  1.
          2   -1    0    0  501    0  0.00000000000E+00 -0.00000000000E+00 -0.18085234575E+04  0.18085234575E+04  0.00000000000E+00 0. -1.
         24    2    1    2    0    0 -0.16351270438E+03  0.33449901381E+03  0.37898081027E+03  0.53718889568E+03  0.79495033503E+02 0.  0.
        254    2    1    2    0    0  0.16351270438E+03 -0.33449901381E+03 -0.15919207804E+04  0.18669180493E+04  0.90141291140E+03 0.  0.
         23    2    4    4    0    0 -0.35007211182E+03 -0.23510962369E+02 -0.69257998140E+03  0.78178629077E+03  0.91757969552E+02 0.  0.
         23    2    4    4    0    0  0.51358481621E+03 -0.31098805144E+03 -0.89934079900E+03  0.10851317585E+04  0.90631831857E+02 0.  0.
          4    1    3    3  502    0 -0.19748552432E+02  0.64568339652E+02  0.32164672485E+02  0.74790654260E+02  0.00000000000E+00 0. -1.
         -3    1    3    3    0  502 -0.14376415195E+03  0.26993067416E+03  0.34681613779E+03  0.46239824142E+03  0.00000000000E+00 0.  1.
         13    1    5    5    0    0 -0.60436909504E+02  0.25796485023E+02 -0.17032996160E+03  0.18256608253E+03  0.00000000000E+00 0. -1.
        -13    1    5    5    0    0 -0.28963520232E+03 -0.49307447392E+02 -0.52225001979E+03  0.59922020824E+03  0.00000000000E+00 0.  1.
          2    1    6    6  503    0  0.18434894512E+03 -0.14455738331E+03 -0.28980145919E+03  0.37264763033E+03  0.00000000000E+00 0. -1.
         -2    1    6    6    0  503  0.32923587108E+03 -0.16643066813E+03 -0.60953933981E+03  0.71248412816E+03  0.00000000000E+00 0.  1.
<mgrwt>
<rscale>  0 0.20756943E+04</rscale>
<asrwt>0</asrwt>
<pdfrwt beam="1">  1        2 0.27823438E+00 0.20756943E+04</pdfrwt>
<pdfrwt beam="2">  1       -1 0.91628230E-01 0.20756943E+04</pdfrwt>
<totfact> 0.10417575E+01</totfact>
</mgrwt>
</event>
<event>
12    7  0.1909736E-007  0.2477139E+04  0.7818608E-02  0.8411176E-01
         -1   -1    0    0    0  501 -0.00000000000E+00  0.00000000000E+00  0.11711549390E+04  0.11711549390E+04  0.00000000000E+00 0.  1.
          2   -1    0    0  501    0  0.00000000000E+00 -0.00000000000E+00 -0.13098642988E+04  0.13098642988E+04  0.00000000000E+00 0. -1.
         24    2    1    2    0    0  0.87082346320E+02  0.28386869697E+03  0.97145578049E+03  0.10191229393E+04  0.81978410088E+02 0.  0.
        254    2    1    2    0    0 -0.87082346320E+02 -0.28386869697E+03 -0.11101651404E+04  0.14618962985E+04  0.90360908395E+03 0.  0.
         23    2    4    4    0    0  0.25243637420E+03 -0.46432479307E+03 -0.78072401087E+03  0.94762638678E+03  0.95625055803E+02 0.  0.
         23    2    4    4    0    0 -0.33951872052E+03  0.18045609610E+03 -0.32944112950E+03  0.51426991175E+03  0.90026219068E+02 0.  0.
          4    1    3    3  502    0 -0.13686836485E+02  0.69695815791E+02  0.20540867260E+03  0.21734203231E+03  0.00000000000E+00 0. -1.
         -3    1    3    3    0  502  0.10076918280E+03  0.21417288117E+03  0.76604710789E+03  0.80178090694E+03  0.00000000000E+00 0.  1.
         13    1    5    5    0    0  0.25521271688E+03 -0.43060228686E+03 -0.75135794395E+03  0.90282369277E+03  0.00000000000E+00 0. -1.
        -13    1    5    5    0    0 -0.27763426765E+01 -0.33722506210E+02 -0.29366066926E+02  0.44802694009E+02  0.00000000000E+00 0.  1.
          2    1    6    6  503    0 -0.18320095174E+02  0.26545780273E+02 -0.58339274222E+02  0.66661647551E+02  0.00000000000E+00 0.  1.
         -2    1    6    6    0  503 -0.32119862535E+03  0.15391031583E+03 -0.27110185528E+03  0.44760826420E+03  0.00000000000E+00 0. -1.
<mgrwt>
<rscale>  0 0.24771387E+04</rscale>
<asrwt>0</asrwt>
<pdfrwt beam="1">  1        2 0.20151758E+00 0.24771387E+04</pdfrwt>
<pdfrwt beam="2">  1       -1 0.18017768E+00 0.24771387E+04</pdfrwt>
<totfact> 0.34467646E+00</totfact>
</mgrwt>
</event>
<event>
12    7  0.1909736E-007  0.1521332E+04  0.7818608E-02  0.8870390E-01
          4   -1    0    0  501    0  0.00000000000E+00  0.00000000000E+00  0.57956587425E+03  0.57956587425E+03  0.00000000000E+00 0. -1.
         -3   -1    0    0    0  501 -0.00000000000E+00 -0.00000000000E+00 -0.99835565619E+03  0.99835565619E+03  0.00000000000E+00 0.  1.
         24    2    1    2    0    0  0.17587383455E+03  0.76187136980E+02 -0.59951614143E+03  0.63428267448E+03  0.78478161213E+02 0.  0.
        254    2    1    2    0    0 -0.17587383455E+03 -0.76187136980E+02  0.18072635949E+03  0.94363885596E+03  0.90612150837E+03 0.  0.
         23    2    4    4    0    0 -0.52243879317E+03  0.13799658051E+02  0.21534315014E+03  0.57229967996E+03  0.89562984515E+02 0.  0.
         23    2    4    4    0    0  0.34656495862E+03 -0.89986795030E+02 -0.34616790649E+02  0.37133917600E+03  0.92138849636E+02 0.  0.
          2    1    3    3  502    0  0.77787394157E+02  0.68965069303E+02 -0.37555290326E+03  0.38967556072E+03  0.00000000000E+00 0. -1.
         -1    1    3    3    0  502  0.98086440392E+02  0.72220676770E+01 -0.22396323817E+03  0.24460711376E+03  0.00000000000E+00 0.  1.
         13    1    5    5    0    0 -0.38635872529E+02 -0.22904048063E+02  0.21847379302E+02  0.49946311637E+02  0.00000000000E+00 0. -1.
        -13    1    5    5    0    0 -0.48380292064E+03  0.36703706113E+02  0.19349577084E+03  0.52235336832E+03  0.00000000000E+00 0.  1.
          2    1    6    6  503    0  0.35120311314E+03 -0.93994139376E+02 -0.33446158492E+02  0.36509885023E+03  0.00000000000E+00 0.  1.
         -2    1    6    6    0  503 -0.46381545231E+01  0.40073443455E+01 -0.11706321567E+01  0.62403257712E+01  0.00000000000E+00 0. -1.
<mgrwt>
<rscale>  0 0.15213321E+04</rscale>
<asrwt>0</asrwt>
<pdfrwt beam="1">  1        4 0.89163982E-01 0.15213321E+04</pdfrwt>
<pdfrwt beam="2">  1       -3 0.15359318E+00 0.15213321E+04</pdfrwt>
<totfact> 0.72407500E-01</totfact>
</mgrwt>
</event>
<event>
12    7  0.1909736E-007  0.2571008E+04  0.7818608E-02  0.8378116E-01
         -1   -1    0    0    0  501 -0.00000000000E+00  0.00000000000E+00  0.77856128858E+03  0.77856128858E+03  0.00000000000E+00 0.  1.
          2   -1    0    0  501    0  0.00000000000E+00 -0.00000000000E+00 -0.21225313114E+04  0.21225313114E+04  0.00000000000E+00 0. -1.
         24    2    1    2    0    0 -0.98283378560E+03 -0.48958355636E+03 -0.89592418635E+03  0.14194004776E+04  0.79770041244E+02 0.  0.
        254    2    1    2    0    0  0.98283378560E+03  0.48958355636E+03 -0.44804583643E+03  0.14816921223E+04  0.88826356726E+03 0.  0.
         23    2    4    4    0    0  0.10007885028E+04  0.25993900630E+03 -0.59206878423E+03  0.11949959555E+04  0.91235815460E+02 0.  0.
         23    2    4    4    0    0 -0.17954717187E+02  0.22964455006E+03  0.14402294780E+03  0.28669616681E+03  0.91613816272E+02 0.  0.
          2    1    3    3  502    0 -0.42512708095E+03 -0.18118845153E+03 -0.34029175170E+03  0.57389961335E+03  0.00000000000E+00 0. -1.
         -3    1    3    3    0  502 -0.55770670465E+03 -0.30839510483E+03 -0.55563243465E+03  0.84550086430E+03  0.00000000000E+00 0.  1.
         13    1    5    5    0    0  0.12459540506E+03  0.59904865135E+02 -0.61275178767E+02  0.15121922947E+03  0.00000000000E+00 0.  1.
        -13    1    5    5    0    0  0.87619309774E+03  0.20003414117E+03 -0.53079360546E+03  0.10437767260E+04  0.00000000000E+00 0. -1.
          1    1    6    6  503    0 -0.48959648716E+02  0.10338090808E+03  0.43606334100E+02  0.12241802045E+03  0.00000000000E+00 0.  1.
         -1    1    6    6    0  503  0.31004931529E+02  0.12626364197E+03  0.10041661370E+03  0.16427814636E+03  0.00000000000E+00 0. -1.
<mgrwt>
<rscale>  0 0.25710081E+04</rscale>
<asrwt>0</asrwt>
<pdfrwt beam="1">  1        2 0.32654328E+00 0.25710081E+04</pdfrwt>
<pdfrwt beam="2">  1       -1 0.11977866E+00 0.25710081E+04</pdfrwt>
<totfact> 0.35801294E+00</totfact>
</mgrwt>
</event>
<event>
12    7  0.1909736E-007  0.3531201E+04  0.7818608E-02  0.8106435E-01
         -1   -1    0    0    0  501 -0.00000000000E+00  0.00000000000E+00  0.22605615304E+04  0.22605615304E+04  0.00000000000E+00 0.  1.
          2   -1    0    0  501    0  0.00000000000E+00 -0.00000000000E+00 -0.13790139217E+04  0.13790139217E+04  0.00000000000E+00 0. -1.
         24    2    1    2    0    0  0.15999661305E+04  0.83713823491E+02  0.82602850024E+03  0.18044047372E+04  0.81570518762E+02 0.  0.
        254    2    1    2    0    0 -0.15999661305E+04 -0.83713823491E+02  0.55519108450E+02  0.18351707149E+04  0.89323544408E+03 0.  0.
         23    2    4    4    0    0 -0.10192513802E+04 -0.47333771227E+03 -0.30027429417E+01  0.11273845541E+04  0.89805068630E+02 0.  0.
         23    2    4    4    0    0 -0.58071475022E+03  0.38962388878E+03  0.58521851392E+02  0.70778616081E+03  0.92195696872E+02 0.  0.
          4    1    3    3  502    0  0.15234666831E+04  0.96840785735E+02  0.78966691743E+03  0.17186921518E+04  0.00000000000E+00 0. -1.
         -3    1    3    3    0  502  0.76499447342E+02 -0.13126962244E+02  0.36361582812E+02  0.85712585342E+02  0.00000000000E+00 0.  1.
         13    1    5    5    0    0 -0.70995317630E+03 -0.29756698318E+03 -0.31952951440E+02  0.77045480927E+03  0.00000000000E+00 0. -1.
        -13    1    5    5    0    0 -0.30929820394E+03 -0.17577072909E+03  0.28950208499E+02  0.35692974482E+03  0.00000000000E+00 0.  1.
          4    1    6    6  503    0 -0.33491853194E+03  0.21639368738E+03 -0.11986167099E+02  0.39892395162E+03  0.00000000000E+00 0. -1.
         -4    1    6    6    0  503 -0.24579621828E+03  0.17323020139E+03  0.70508018491E+02  0.30886220919E+03  0.00000000000E+00 0.  1.
<mgrwt>
<rscale>  0 0.35312014E+04</rscale>
<asrwt>0</asrwt>
<pdfrwt beam="1">  1        2 0.21215599E+00 0.35312014E+04</pdfrwt>
<pdfrwt beam="2">  1       -1 0.34777870E+00 0.35312014E+04</pdfrwt>
<totfact> 0.22311823E-01</totfact>
</mgrwt>
</event>
<event>
12    7  0.2047881E-007  0.1455124E+04  0.7818608E-02  0.8914856E-01
          2   -1    0    0  501    0  0.00000000000E+00  0.00000000000E+00  0.16334078014E+04  0.16334078014E+04  0.00000000000E+00 0. -1.
         -3   -1    0    0    0  501 -0.00000000000E+00 -0.00000000000E+00 -0.32407504417E+03  0.32407504417E+03  0.00000000000E+00 0.  1.
         24    2    1    2    0    0  0.24915662618E+03  0.44202562409E+02  0.91516647277E+03  0.95262870851E+03  0.77064210326E+02 0.  0.
        254    2    1    2    0    0 -0.24915662618E+03 -0.44202562409E+02  0.39416628449E+03  0.10048541371E+04  0.88900612265E+03 0.  0.
         23    2    4    4    0    0 -0.40660321284E+03  0.10188758210E+03 -0.11547900966E+03  0.44422372242E+03  0.91060758881E+02 0.  0.
         23    2    4    4    0    0  0.15744658666E+03 -0.14609014451E+03  0.50964529415E+03  0.56063041467E+03  0.91849757919E+02 0.  0.
          4    1    3    3  502    0  0.25356061812E+03  0.44651358715E+02  0.87139981004E+03  0.90863874000E+03  0.00000000000E+00 0. -1.
         -3    1    3    3    0  502 -0.44039919433E+01 -0.44879630589E+00  0.43766662728E+02  0.43989968510E+02  0.00000000000E+00 0.  1.
         13    1    5    5    0    0 -0.49507395121E+00  0.13095858979E+02 -0.55562665246E+01  0.14234420196E+02  0.00000000000E+00 0. -1.
        -13    1    5    5    0    0 -0.40610813889E+03  0.88791723125E+02 -0.10992274313E+03  0.42998930222E+03  0.00000000000E+00 0.  1.
          3    1    6    6  503    0  0.57376372526E-01  0.10347651954E+02  0.12649218101E+02  0.16342579710E+02  0.00000000000E+00 0. -1.
         -3    1    6    6    0  503  0.15738921029E+03 -0.15643779647E+03  0.49699607605E+03  0.54428783496E+03  0.00000000000E+00 0.  1.
<mgrwt>
<rscale>  0 0.14551243E+04</rscale>
<asrwt>0</asrwt>
<pdfrwt beam="1">  1        2 0.25129350E+00 0.14551243E+04</pdfrwt>
<pdfrwt beam="2">  1       -3 0.49857700E-01 0.14551243E+04</pdfrwt>
<totfact> 0.26491343E+01</totfact>
</mgrwt>
</event>
<event>
12    7  0.1909736E-007  0.1825504E+04  0.7818608E-02  0.8692853E-01
         -1   -1    0    0    0  501 -0.00000000000E+00  0.00000000000E+00  0.53587457447E+03  0.53587457447E+03  0.00000000000E+00 0.  1.
          2   -1    0    0  501    0  0.00000000000E+00 -0.00000000000E+00 -0.15546851456E+04  0.15546851456E+04  0.00000000000E+00 0. -1.
         24    2    1    2    0    0  0.32157593033E+03 -0.34048771194E+03  0.18527622093E+03  0.51343367709E+03  0.99719114364E+02 0.  0.
        254    2    1    2    0    0 -0.32157593033E+03  0.34048771194E+03 -0.12040867921E+04  0.15771260430E+04  0.90452119472E+03 0.  0.
         23    2    4    4    0    0 -0.24828778672E+03  0.52653757368E+03 -0.32898196634E+03  0.67486811582E+03  0.91264440176E+02 0.  0.
         23    2    4    4    0    0 -0.73288143608E+02 -0.18604986173E+03 -0.87510482572E+03  0.90225792717E+03  0.90968170800E+02 0.  0.
          2    1    3    3  502    0  0.36479572695E+02 -0.84298363257E+01 -0.17715733173E+01  0.37482793873E+02  0.00000000000E+00 0. -1.
         -1    1    3    3    0  502  0.28509635763E+03 -0.33205787562E+03  0.18704779425E+03  0.47595088321E+03  0.00000000000E+00 0.  1.
         13    1    5    5    0    0 -0.13980349692E+03  0.19195078276E+03 -0.13696710450E+03  0.27413520107E+03  0.00000000000E+00 0. -1.
        -13    1    5    5    0    0 -0.10848428980E+03  0.33458679092E+03 -0.19201486184E+03  0.40073291475E+03  0.00000000000E+00 0.  1.
          4    1    6    6  503    0 -0.31981100463E+02 -0.17358400879E+03 -0.70915962293E+03  0.73079516261E+03  0.00000000000E+00 0. -1.
         -4    1    6    6    0  503 -0.41307043145E+02 -0.12465852944E+02 -0.16594520279E+03  0.17146276457E+03  0.00000000000E+00 0.  1.
<mgrwt>
<rscale>  0 0.18255040E+04</rscale>
<asrwt>0</asrwt>
<pdfrwt beam="1">  1        2 0.23918233E+00 0.18255040E+04</pdfrwt>
<pdfrwt beam="2">  1       -1 0.82442243E-01 0.18255040E+04</pdfrwt>
<totfact> 0.18563239E+01</totfact>
</mgrwt>
</event>
<event>
12    7  0.1909736E-007  0.1807162E+04  0.7818608E-02  0.8702500E-01
         -1   -1    0    0    0  501 -0.00000000000E+00  0.00000000000E+00  0.77271514553E+03  0.77271514553E+03  0.00000000000E+00 0.  1.
          2   -1    0    0  501    0  0.00000000000E+00 -0.00000000000E+00 -0.10566104030E+04  0.10566104030E+04  0.00000000000E+00 0. -1.
         24    2    1    2    0    0 -0.61916418436E+03 -0.12219204054E+03 -0.34161494722E+03  0.72213025595E+03  0.80474545240E+02 0.  0.
        254    2    1    2    0    0  0.61916418436E+03  0.12219204054E+03  0.57719689707E+02  0.11071952926E+04  0.90788472367E+03 0.  0.
         23    2    4    4    0    0  0.53024993601E+03 -0.27048479890E+02 -0.35837970711E+03  0.64695307646E+03  0.90640243601E+02 0.  0.
         23    2    4    4    0    0  0.88914248346E+02  0.14924052043E+03  0.41609939682E+03  0.46024221617E+03  0.92226422584E+02 0.  0.
          2    1    3    3  502    0 -0.53158415916E+03 -0.13300655326E+03 -0.29425392877E+03  0.62197896755E+03  0.00000000000E+00 0. -1.
         -1    1    3    3    0  502 -0.87580025202E+02  0.10814512724E+02 -0.47361018450E+02  0.10015128840E+03  0.00000000000E+00 0.  1.
         13    1    5    5    0    0  0.45846595345E+03 -0.41639167607E+02 -0.27614788300E+03  0.53682632577E+03  0.00000000000E+00 0. -1.
        -13    1    5    5    0    0  0.71783982562E+02  0.14590687717E+02 -0.82231824105E+02  0.11012675068E+03  0.00000000000E+00 0.  1.
          2    1    6    6  503    0  0.43959649438E+02  0.91464120851E+02  0.12996099248E+03  0.16488782777E+03  0.00000000000E+00 0. -1.
         -2    1    6    6    0  503  0.44954598907E+02  0.57776399575E+02  0.28613840434E+03  0.29535438840E+03  0.00000000000E+00 0.  1.
<mgrwt>
<rscale>  0 0.18071623E+04</rscale>
<asrwt>0</asrwt>
<pdfrwt beam="1">  1        2 0.16255545E+00 0.18071623E+04</pdfrwt>
<pdfrwt beam="2">  1       -1 0.11887925E+00 0.18071623E+04</pdfrwt>
<totfact> 0.15809643E+01</totfact>
</mgrwt>
</event>
<event>
12    7  0.1909736E-007  0.2562346E+04  0.7818608E-02  0.8381105E-01
          2   -1    0    0  501    0  0.00000000000E+00  0.00000000000E+00  0.23327439752E+04  0.23327439752E+04  0.00000000000E+00 0. -1.
         -1   -1    0    0    0  501 -0.00000000000E+00 -0.00000000000E+00 -0.70363659658E+03  0.70363659658E+03  0.00000000000E+00 0.  1.
         24    2    1    2    0    0  0.85298397443E+03 -0.76068376478E+03  0.82115557501E+03  0.14095832977E+04  0.80044638891E+02 0.  0.
        254    2    1    2    0    0 -0.85298397443E+03  0.76068376478E+03  0.80795180362E+03  0.16267972741E+04  0.82913316381E+03 0.  0.
         23    2    4    4    0    0 -0.50468063481E+03  0.21585651076E+02  0.63063731797E+02  0.51737216398E+03  0.92349544202E+02 0.  0.
         23    2    4    4    0    0 -0.34830333963E+03  0.73909811370E+03  0.74488807183E+03  0.11094251101E+04  0.91567446671E+02 0.  0.
          4    1    3    3  502    0  0.12890675558E+03 -0.10099181705E+03  0.86754244714E+02  0.18531755913E+03  0.00000000000E+00 0. -1.
         -3    1    3    3    0  502  0.72407721885E+03 -0.65969194773E+03  0.73440133029E+03  0.12242657386E+04  0.00000000000E+00 0.  1.
         13    1    5    5    0    0 -0.90753617900E+02  0.37208424489E+02 -0.18058342235E+01  0.98101717886E+02  0.00000000000E+00 0.  1.
        -13    1    5    5    0    0 -0.41392701691E+03 -0.15622773413E+02  0.64869566021E+02  0.41927044610E+03  0.00000000000E+00 0. -1.
          4    1    6    6  503    0 -0.32767694481E+03  0.67322607953E+03  0.71098065709E+03  0.10325207161E+04  0.00000000000E+00 0. -1.
         -4    1    6    6    0  503 -0.20626394816E+02  0.65872034173E+02  0.33907414733E+02  0.76904394043E+02  0.00000000000E+00 0.  1.
<mgrwt>
<rscale>  0 0.25623458E+04</rscale>
<asrwt>0</asrwt>
<pdfrwt beam="1">  1        2 0.35888369E+00 0.25623458E+04</pdfrwt>
<pdfrwt beam="2">  1       -1 0.10825178E+00 0.25623458E+04</pdfrwt>
<totfact> 0.34736468E+00</totfact>
</mgrwt>
</event>
<event>
12    7  0.1909736E-007  0.1370767E+04  0.7818608E-02  0.8975255E-01
         -1   -1    0    0    0  501 -0.00000000000E+00  0.00000000000E+00  0.40988691908E+03  0.40988691908E+03  0.00000000000E+00 0.  1.
          2   -1    0    0  501    0  0.00000000000E+00 -0.00000000000E+00 -0.11460486124E+04  0.11460486124E+04  0.00000000000E+00 0. -1.
         24    2    1    2    0    0  0.16705093429E+03 -0.13496135969E+03 -0.58608733490E+03  0.62935487903E+03  0.80427709005E+02 0.  0.
        254    2    1    2    0    0 -0.16705093429E+03  0.13496135969E+03 -0.15007435844E+03  0.92658065247E+03  0.88876814143E+03 0.  0.
         23    2    4    4    0    0  0.15500412763E+03 -0.58573279914E+02  0.28548537110E+03  0.34483334036E+03  0.99754833498E+02 0.  0.
         23    2    4    4    0    0 -0.32205506192E+03  0.19353463960E+03 -0.43555972954E+03  0.58174731211E+03  0.86847783634E+02 0.  0.
          4    1    3    3  502    0  0.11151608313E+03 -0.13291638228E+03 -0.45617047075E+03  0.48805132913E+03  0.00000000000E+00 0. -1.
         -3    1    3    3    0  502  0.55534851158E+02 -0.20449774033E+01 -0.12991686414E+03  0.14130354990E+03  0.00000000000E+00 0.  1.
         13    1    5    5    0    0  0.88748616612E+02 -0.68124820306E+01  0.69086376724E+02  0.11267499417E+03  0.00000000000E+00 0. -1.
        -13    1    5    5    0    0  0.66255511023E+02 -0.51760797883E+02  0.21639899437E+03  0.23215834619E+03  0.00000000000E+00 0.  1.
          2    1    6    6  503    0 -0.23665160596E+03  0.11834637501E+03 -0.24963834663E+03  0.36377073987E+03  0.00000000000E+00 0. -1.
         -2    1    6    6    0  503 -0.85403455962E+02  0.75188264593E+02 -0.18592138291E+03  0.21797657224E+03  0.00000000000E+00 0.  1.
<mgrwt>
<rscale>  0 0.13707667E+04</rscale>
<asrwt>0</asrwt>
<pdfrwt beam="1">  1        2 0.17631517E+00 0.13707667E+04</pdfrwt>
<pdfrwt beam="2">  1       -1 0.63059527E-01 0.13707667E+04</pdfrwt>
<totfact> 0.57916873E+01</totfact>
</mgrwt>
</event>
<event>
12    7  0.1909736E-007  0.1596349E+04  0.7818608E-02  0.8822794E-01
          2   -1    0    0  501    0  0.00000000000E+00  0.00000000000E+00  0.24438298389E+04  0.24438298389E+04  0.00000000000E+00 0. -1.
         -1   -1    0    0    0  501 -0.00000000000E+00 -0.00000000000E+00 -0.26069032144E+03  0.26069032144E+03  0.00000000000E+00 0.  1.
         24    2    1    2    0    0 -0.47182995594E+02  0.75990265521E+02 -0.15488004549E+03  0.19595790596E+03  0.80068201489E+02 0.  0.
        254    2    1    2    0    0  0.47182995594E+02 -0.75990265521E+02  0.23380195630E+04  0.25085622544E+04  0.90473662017E+03 0.  0.
         23    2    4    4    0    0 -0.15693620334E+03  0.30794778277E+03  0.16649870541E+04  0.17028957660E+04  0.90616172362E+02 0.  0.
         23    2    4    4    0    0  0.20411919894E+03 -0.38393804829E+03  0.67303250888E+03  0.80566648842E+03  0.83980118213E+02 0.  0.
          4    1    3    3  502    0 -0.47109253398E+01 -0.17093581702E+02 -0.22458820706E+02  0.28614366679E+02  0.00000000000E+00 0. -1.
         -3    1    3    3    0  502 -0.42472070254E+02  0.93083847223E+02 -0.13242122479E+03  0.16734353928E+03  0.00000000000E+00 0.  1.
         13    1    5    5    0    0  0.10218031521E+02  0.41508741399E+02  0.20678797698E+03  0.21116025006E+03  0.00000000000E+00 0. -1.
        -13    1    5    5    0    0 -0.16715423486E+03  0.26643904137E+03  0.14581990771E+04  0.14917355159E+04  0.00000000000E+00 0.  1.
          2    1    6    6  503    0  0.32611639366E+02 -0.18136362923E+02  0.40060348021E+02  0.54747403279E+02  0.00000000000E+00 0. -1.
         -2    1    6    6    0  503  0.17150755957E+03 -0.36580168537E+03  0.63297216085E+03  0.75091908514E+03  0.00000000000E+00 0.  1.
<mgrwt>
<rscale>  0 0.15963493E+04</rscale>
<asrwt>0</asrwt>
<pdfrwt beam="1">  1        2 0.37597381E+00 0.15963493E+04</pdfrwt>
<pdfrwt beam="2">  1       -1 0.40106205E-01 0.15963493E+04</pdfrwt>
<totfact> 0.24884910E+01</totfact>
</mgrwt>
</event>
<event>
12    7  0.1909736E-007  0.1710501E+04  0.7818608E-02  0.8755398E-01
          2   -1    0    0  501    0  0.00000000000E+00  0.00000000000E+00  0.40967704695E+03  0.40967704695E+03  0.00000000000E+00 0. -1.
         -1   -1    0    0    0  501 -0.00000000000E+00 -0.00000000000E+00 -0.17854392077E+04  0.17854392077E+04  0.00000000000E+00 0.  1.
         24    2    1    2    0    0  0.14551138963E+03 -0.58479320119E+03 -0.42766425645E+03  0.74331771116E+03  0.80422949544E+02 0.  0.
        254    2    1    2    0    0 -0.14551138963E+03  0.58479320119E+03 -0.94809790428E+03  0.14517985435E+04  0.91960465530E+03 0.  0.
         23    2    4    4    0    0 -0.46059502420E+03  0.48690458663E+03 -0.86759771934E+03  0.11002141885E+04  0.92312540142E+02 0.  0.
         23    2    4    4    0    0  0.31508363457E+03  0.97888614559E+02 -0.80500184933E+02  0.35158435502E+03  0.90947244505E+02 0.  0.
          2    1    3    3  502    0  0.76976078890E+02 -0.17336234362E+03 -0.15550259570E+03  0.24527714157E+03  0.00000000000E+00 0. -1.
         -1    1    3    3    0  502  0.68535310735E+02 -0.41143085757E+03 -0.27216166075E+03  0.49804056959E+03  0.00000000000E+00 0.  1.
         13    1    5    5    0    0 -0.37264759639E+03  0.39178714593E+03 -0.75452211877E+03  0.92826021487E+03  0.00000000000E+00 0.  1.
        -13    1    5    5    0    0 -0.87947427809E+02  0.95117440705E+02 -0.11307560057E+03  0.17195397358E+03  0.00000000000E+00 0. -1.
          2    1    6    6  503    0  0.29235035024E+02  0.13205114030E+02  0.19007698918E+02  0.37287463410E+02  0.00000000000E+00 0. -1.
         -2    1    6    6    0  503  0.28584859955E+03  0.84683500529E+02 -0.99507883851E+02  0.31429689161E+03  0.00000000000E+00 0.  1.
<mgrwt>
<rscale>  0 0.17105011E+04</rscale>
<asrwt>0</asrwt>
<pdfrwt beam="1">  1        2 0.63027237E-01 0.17105011E+04</pdfrwt>
<pdfrwt beam="2">  1       -1 0.27468296E+00 0.17105011E+04</pdfrwt>
<totfact> 0.40572997E+00</totfact>
</mgrwt>
</event>
<event>
12    7  0.1909736E-007  0.2247148E+04  0.7818608E-02  0.8499056E-01
          2   -1    0    0  501    0  0.00000000000E+00  0.00000000000E+00  0.10506892832E+04  0.10506892832E+04  0.00000000000E+00 0. -1.
         -1   -1    0    0    0  501 -0.00000000000E+00 -0.00000000000E+00 -0.12015143721E+04  0.12015143721E+04  0.00000000000E+00 0.  1.
         24    2    1    2    0    0 -0.27927426123E+03  0.46967408474E+03 -0.83495663845E+03  0.10010460962E+04  0.79704704028E+02 0.  0.
        254    2    1    2    0    0  0.27927426123E+03 -0.46967408474E+03  0.68413154959E+03  0.12511575591E+04  0.89374011975E+03 0.  0.
         23    2    4    4    0    0  0.39611211370E+03 -0.28109521334E+03 -0.31673245130E+02  0.49499113408E+03  0.89965008643E+02 0.  0.
         23    2    4    4    0    0 -0.11683785247E+03 -0.18857887140E+03  0.71580479472E+03  0.75616642501E+03  0.10098556160E+03 0.  0.
          2    1    3    3  502    0 -0.15302393756E+01  0.10055066285E+02 -0.42977021825E+02  0.44164130191E+02  0.00000000000E+00 0. -1.
         -1    1    3    3    0  502 -0.27774402185E+03  0.45961901846E+03 -0.79197961662E+03  0.95688196605E+03  0.00000000000E+00 0.  1.
         13    1    5    5    0    0  0.36274618729E+03 -0.27794482009E+03 -0.44403957907E+02  0.45914031721E+03  0.00000000000E+00 0. -1.
        -13    1    5    5    0    0  0.33365926406E+02 -0.31503932531E+01  0.12730712778E+02  0.35850816872E+02  0.00000000000E+00 0.  1.
          4    1    6    6  503    0 -0.48836609791E+02 -0.15158219038E+03  0.55976828747E+03  0.58198170981E+03  0.00000000000E+00 0. -1.
         -4    1    6    6    0  503 -0.68001242680E+02 -0.36996681020E+02  0.15603650725E+03  0.17418471520E+03  0.00000000000E+00 0.  1.
<mgrwt>
<rscale>  0 0.22471478E+04</rscale>
<asrwt>0</asrwt>
<pdfrwt beam="1">  1        2 0.16164451E+00 0.22471478E+04</pdfrwt>
<pdfrwt beam="2">  1       -1 0.18484837E+00 0.22471478E+04</pdfrwt>
<totfact> 0.46652978E+00</totfact>
</mgrwt>
</event>
<event>
12    7  0.1909736E-007  0.1831166E+04  0.7818608E-02  0.8689899E-01
         -1   -1    0    0    0  501 -0.00000000000E+00  0.00000000000E+00  0.18422721449E+03  0.18422721449E+03  0.00000000000E+00 0.  1.
          2   -1    0    0  501    0  0.00000000000E+00 -0.00000000000E+00 -0.45503190630E+04  0.45503190630E+04  0.00000000000E+00 0. -1.
         24    2    1    2    0    0  0.80473878966E+02  0.19141419367E+03  0.46612705075E+02  0.22736824521E+03  0.80050833368E+02 0.  0.
        254    2    1    2    0    0 -0.80473878966E+02 -0.19141419367E+03 -0.44127045536E+04  0.45071780323E+04  0.89419063886E+03 0.  0.
         23    2    4    4    0    0  0.88325965605E+02 -0.51475150853E+03 -0.22194463665E+04  0.22819013465E+04  0.91438447031E+02 0.  0.
         23    2    4    4    0    0 -0.16879984457E+03  0.32333731486E+03 -0.21932581871E+04  0.22252766858E+04  0.91839242020E+02 0.  0.
          4    1    3    3  502    0  0.47438786828E+02  0.95544326501E+02 -0.16482431483E+02  0.10793899837E+03  0.00000000000E+00 0. -1.
         -3    1    3    3    0  502  0.33035092137E+02  0.95869867166E+02  0.63095136558E+02  0.11942924684E+03  0.00000000000E+00 0.  1.
         13    1    5    5    0    0  0.35667044625E+02 -0.90527501292E+02 -0.29822835830E+03  0.31369972945E+03  0.00000000000E+00 0. -1.
        -13    1    5    5    0    0  0.52658920980E+02 -0.42422400724E+03 -0.19212180082E+04  0.19682016171E+04  0.00000000000E+00 0.  1.
          3    1    6    6  503    0 -0.86998564892E+02  0.16225872192E+03 -0.13777806308E+04  0.13900273774E+04  0.00000000000E+00 0. -1.
         -3    1    6    6    0  503 -0.81801279679E+02  0.16107859294E+03 -0.81547755624E+03  0.83524930840E+03  0.00000000000E+00 0.  1.
<mgrwt>
<rscale>  0 0.18311664E+04</rscale>
<asrwt>0</asrwt>
<pdfrwt beam="1">  1        2 0.70004906E+00 0.18311664E+04</pdfrwt>
<pdfrwt beam="2">  1       -1 0.28342650E-01 0.18311664E+04</pdfrwt>
<totfact> 0.13561274E+00</totfact>
</mgrwt>
</event>
<event>
12    7  0.1909736E-007  0.1145723E+04  0.7818608E-02  0.9161738E-01
         -1   -1    0    0    0  501 -0.00000000000E+00  0.00000000000E+00  0.61539539114E+03  0.61539539114E+03  0.00000000000E+00 0.  1.
          2   -1    0    0  501    0  0.00000000000E+00 -0.00000000000E+00 -0.53326774456E+03  0.53326774456E+03  0.00000000000E+00 0. -1.
         24    2    1    2    0    0  0.81815700366E+02  0.66124513530E+02  0.19160277188E+03  0.23247809787E+03  0.79171861659E+02 0.  0.
        254    2    1    2    0    0 -0.81815700366E+02 -0.66124513530E+02 -0.10947512530E+03  0.91618503783E+03  0.90351754846E+03 0.  0.
         23    2    4    4    0    0 -0.24452579897E+03  0.24353896098E+03  0.22681147818E+03  0.42288229630E+03  0.91004933976E+02 0.  0.
         23    2    4    4    0    0  0.16271009860E+03 -0.30966347451E+03 -0.33628660349E+03  0.49330274154E+03  0.88841834116E+02 0.  0.
          4    1    3    3  502    0  0.29565691860E+02 -0.86650601969E+01  0.16299398735E+02  0.34855183294E+02  0.00000000000E+00 0. -1.
         -1    1    3    3    0  502  0.52250008507E+02  0.74789573726E+02  0.17530337315E+03  0.19762291457E+03  0.00000000000E+00 0.  1.
         13    1    5    5    0    0 -0.23607149330E+03  0.23483267793E+03  0.18836723846E+03  0.38256810256E+03  0.00000000000E+00 0. -1.
        -13    1    5    5    0    0 -0.84543056752E+01  0.87062830518E+01  0.38444239720E+02  0.40314193737E+02  0.00000000000E+00 0.  1.
          4    1    6    6  503    0 -0.42096510790E+01 -0.79303839021E+01 -0.32598154974E+02  0.33812007612E+02  0.00000000000E+00 0.  1.
         -4    1    6    6    0  503  0.16691974968E+03 -0.30173309061E+03 -0.30368844851E+03  0.45949073392E+03  0.00000000000E+00 0. -1.
<mgrwt>
<rscale>  0 0.11457234E+04</rscale>
<asrwt>0</asrwt>
<pdfrwt beam="1">  1        2 0.82041192E-01 0.11457234E+04</pdfrwt>
<pdfrwt beam="2">  1       -1 0.94676214E-01 0.11457234E+04</pdfrwt>
<totfact> 0.69790203E+01</totfact>
</mgrwt>
</event>
<event>
12    7  0.1909736E-007  0.1651870E+04  0.7818608E-02  0.8789301E-01
         -1   -1    0    0    0  501 -0.00000000000E+00  0.00000000000E+00  0.35200289247E+03  0.35200289247E+03  0.00000000000E+00 0.  1.
          2   -1    0    0  501    0  0.00000000000E+00 -0.00000000000E+00 -0.19379640948E+04  0.19379640948E+04  0.00000000000E+00 0. -1.
         24    2    1    2    0    0 -0.32805427741E+03 -0.25639479035E+03 -0.11059018996E+04  0.11843848358E+04  0.79940793100E+02 0.  0.
        254    2    1    2    0    0  0.32805427741E+03  0.25639479035E+03 -0.48005930273E+03  0.11055821514E+04  0.90470827450E+03 0.  0.
         23    2    4    4    0    0  0.47208355914E+03  0.15229952540E+03 -0.66382971828E+03  0.83378757344E+03  0.92053193898E+02 0.  0.
         23    2    4    4    0    0 -0.14402928173E+03  0.10409526495E+03  0.18377041555E+03  0.27179457798E+03  0.92306385501E+02 0.  0.
          4    1    3    3  502    0 -0.30119346869E+03 -0.21132518872E+03 -0.90972635478E+03  0.98131436428E+03  0.00000000000E+00 0. -1.
         -3    1    3    3    0  502 -0.26860808722E+02 -0.45069601628E+02 -0.19617554479E+03  0.20307047153E+03  0.00000000000E+00 0.  1.
         13    1    5    5    0    0  0.79319243094E+02  0.54448412098E+02 -0.16929948950E+03  0.19472670348E+03  0.00000000000E+00 0.  1.
        -13    1    5    5    0    0  0.39276431605E+03  0.97851113299E+02 -0.49453022879E+03  0.63906086996E+03  0.00000000000E+00 0. -1.
          1    1    6    6  503    0 -0.83189262450E+02  0.88826686286E+02  0.66203797645E+02  0.13854088352E+03  0.00000000000E+00 0. -1.
         -1    1    6    6    0  503 -0.60840019280E+02  0.15268578663E+02  0.11756661791E+03  0.13325369446E+03  0.00000000000E+00 0.  1.
<mgrwt>
<rscale>  0 0.16518704E+04</rscale>
<asrwt>0</asrwt>
<pdfrwt beam="1">  1        2 0.29814832E+00 0.16518704E+04</pdfrwt>
<pdfrwt beam="2">  1       -1 0.54154291E-01 0.16518704E+04</pdfrwt>
<totfact> 0.27097217E+01</totfact>
</mgrwt>
</event>
<event>
12    7  0.1909736E-007  0.1379266E+04  0.7818608E-02  0.8968965E-01
          2   -1    0    0  501    0  0.00000000000E+00  0.00000000000E+00  0.22419047667E+04  0.22419047667E+04  0.00000000000E+00 0. -1.
         -1   -1    0    0    0  501 -0.00000000000E+00 -0.00000000000E+00 -0.21213808795E+03  0.21213808795E+03  0.00000000000E+00 0.  1.
         24    2    1    2    0    0 -0.74129244408E+02 -0.10915660065E+03  0.12296186157E+04  0.12392717534E+04  0.80138819946E+02 0.  0.
        254    2    1    2    0    0  0.74129244408E+02  0.10915660065E+03  0.80014806307E+03  0.12147711012E+04  0.90444546391E+03 0.  0.
         23    2    4    4    0    0  0.28660666606E+03  0.25593453535E+03  0.84865131190E+03  0.93599823425E+03  0.90762205228E+02 0.  0.
         23    2    4    4    0    0 -0.21247742165E+03 -0.14677793470E+03 -0.48503248838E+02  0.27877286697E+03  0.93119973085E+02 0.  0.
          2    1    3    3  502    0 -0.83173900569E+02 -0.11215285241E+03  0.12014273348E+04  0.12095138697E+04  0.00000000000E+00 0. -1.
         -1    1    3    3    0  502  0.90446561607E+01  0.29962517586E+01  0.28191280849E+02  0.29757883755E+02  0.00000000000E+00 0.  1.
         13    1    5    5    0    0  0.85321120796E+02  0.13294487003E+03  0.30871061519E+03  0.34677986685E+03  0.00000000000E+00 0.  1.
        -13    1    5    5    0    0  0.20128554526E+03  0.12298966532E+03  0.53994069671E+03  0.58921836739E+03  0.00000000000E+00 0. -1.
          3    1    6    6  503    0 -0.11561623247E+03 -0.23909026103E+02 -0.20447375179E+02  0.11982007299E+03  0.00000000000E+00 0. -1.
         -3    1    6    6    0  503 -0.96861189186E+02 -0.12286890860E+03 -0.28055873659E+02  0.15895279399E+03  0.00000000000E+00 0.  1.
<mgrwt>
<rscale>  0 0.13792656E+04</rscale>
<asrwt>0</asrwt>
<pdfrwt beam="1">  1        2 0.34490841E+00 0.13792656E+04</pdfrwt>
<pdfrwt beam="2">  1       -1 0.32636630E-01 0.13792656E+04</pdfrwt>
<totfact> 0.47828036E+01</totfact>
</mgrwt>
</event>
<event>
12    7  0.1909736E-007  0.3224750E+04  0.7818608E-02  0.8182311E-01
         -1   -1    0    0    0  501 -0.00000000000E+00  0.00000000000E+00  0.15672740541E+04  0.15672740541E+04  0.00000000000E+00 0.  1.
          2   -1    0    0  501    0  0.00000000000E+00 -0.00000000000E+00 -0.16587737232E+04  0.16587737232E+04  0.00000000000E+00 0. -1.
         24    2    1    2    0    0 -0.22810176816E+02  0.68328259706E+03 -0.13606510505E+04  0.15248685891E+04  0.80358704077E+02 0.  0.
        254    2    1    2    0    0  0.22810176816E+02 -0.68328259706E+03  0.12691513813E+04  0.17011791882E+04  0.90325521863E+03 0.  0.
         23    2    4    4    0    0 -0.20089727728E+03 -0.81694138554E+02 -0.41955808065E+02  0.23853895211E+03  0.90038289368E+02 0.  0.
         23    2    4    4    0    0  0.22370745409E+03 -0.60158845851E+03  0.13111071894E+04  0.14626402361E+04  0.91436861751E+02 0.  0.
          4    1    3    3  502    0 -0.11966227945E+02  0.67362270029E+03 -0.13276473233E+04  0.14888109847E+04  0.00000000000E+00 0. -1.
         -3    1    3    3    0  502 -0.10843948872E+02  0.96598967706E+01 -0.33003727105E+02  0.36057604407E+02  0.00000000000E+00 0.  1.
         13    1    5    5    0    0 -0.48859639683E+02 -0.39988568923E+02 -0.50210822162E+02  0.80668932661E+02  0.00000000000E+00 0. -1.
        -13    1    5    5    0    0 -0.15203763760E+03 -0.41705569631E+02  0.82550140964E+01  0.15787001945E+03  0.00000000000E+00 0.  1.
          1    1    6    6  503    0  0.13722478109E+03 -0.40866678528E+03  0.96757235528E+03  0.10592617451E+04  0.00000000000E+00 0. -1.
         -1    1    6    6    0  503  0.86482673001E+02 -0.19292167323E+03  0.34353483409E+03  0.40337849095E+03  0.00000000000E+00 0.  1.
<mgrwt>
<rscale>  0 0.32247499E+04</rscale>
<asrwt>0</asrwt>
<pdfrwt beam="1">  1        2 0.25519596E+00 0.32247499E+04</pdfrwt>
<pdfrwt beam="2">  1       -1 0.24111908E+00 0.32247499E+04</pdfrwt>
<totfact> 0.78834157E-01</totfact>
</mgrwt>
</event>
<event>
12    7  0.1909736E-007  0.1973892E+04  0.7818608E-02  0.8618925E-01
         -1   -1    0    0    0  501 -0.00000000000E+00  0.00000000000E+00  0.13196318233E+04  0.13196318233E+04  0.00000000000E+00 0.  1.
          2   -1    0    0  501    0  0.00000000000E+00 -0.00000000000E+00 -0.73813219923E+03  0.73813219923E+03  0.00000000000E+00 0. -1.
         24    2    1    2    0    0  0.23935164039E+03 -0.56539784260E+03 -0.26875818528E+03  0.67510697949E+03  0.81083558298E+02 0.  0.
        254    2    1    2    0    0 -0.23935164039E+03  0.56539784260E+03  0.85025780934E+03  0.13826570430E+04  0.90102065909E+03 0.  0.
         23    2    4    4    0    0  0.30936425982E+03  0.36077611428E+03  0.27337665066E+03  0.55565042462E+03  0.90260464007E+02 0.  0.
         23    2    4    4    0    0 -0.54871590021E+03  0.20462172832E+03  0.57688115868E+03  0.82700661841E+03  0.90492457154E+02 0.  0.
          2    1    3    3  502    0  0.16161666431E+03 -0.42861339031E+03 -0.16614530109E+03  0.48727163431E+03  0.00000000000E+00 0. -1.
         -1    1    3    3    0  502  0.77734976084E+02 -0.13678445230E+03 -0.10261288419E+03  0.18783534518E+03  0.00000000000E+00 0.  1.
         13    1    5    5    0    0  0.10679426668E+03  0.77765891255E+02  0.10642036072E+03  0.16964033251E+03  0.00000000000E+00 0. -1.
        -13    1    5    5    0    0  0.20256999314E+03  0.28301022303E+03  0.16695628994E+03  0.38601009211E+03  0.00000000000E+00 0.  1.
          1    1    6    6  503    0 -0.47316710837E+03  0.18446576241E+03  0.45310618967E+03  0.68060263669E+03  0.00000000000E+00 0. -1.
         -1    1    6    6    0  503 -0.75548791844E+02  0.20155965906E+02  0.12377496901E+03  0.14640398172E+03  0.00000000000E+00 0.  1.
<mgrwt>
<rscale>  0 0.19738923E+04</rscale>
<asrwt>0</asrwt>
<pdfrwt beam="1">  1        2 0.11355880E+00 0.19738923E+04</pdfrwt>
<pdfrwt beam="2">  1       -1 0.20302028E+00 0.19738923E+04</pdfrwt>
<totfact> 0.58362574E+00</totfact>
</mgrwt>
</event>
<event>
12    7  0.2340581E-007  0.2734158E+04  0.7818608E-02  0.8324006E-01
         -1   -1    0    0    0  501 -0.00000000000E+00  0.00000000000E+00  0.83289203873E+03  0.83289203873E+03  0.00000000000E+00 0.  1.
          2   -1    0    0  501    0  0.00000000000E+00 -0.00000000000E+00 -0.22438749565E+04  0.22438749565E+04  0.00000000000E+00 0. -1.
         24    2    1    2    0    0 -0.18685527405E+03 -0.63043287760E+03 -0.17789336079E+04  0.18981991285E+04  0.78706057979E+02 0.  0.
        254    2    1    2    0    0  0.18685527405E+03  0.63043287760E+03  0.36795069011E+03  0.11785678667E+04  0.90624168939E+03 0.  0.
         23    2    4    4    0    0  0.49062848264E+03  0.11187032907E+03  0.18579639782E+03  0.54393695438E+03  0.90087903742E+02 0.  0.
         23    2    4    4    0    0 -0.30377320859E+03  0.51856254853E+03  0.18215429229E+03  0.63463091236E+03  0.91602018199E+02 0.  0.
          2    1    3    3  502    0 -0.13407889699E+03 -0.43867222300E+03 -0.11328339458E+04  0.12221796998E+04  0.00000000000E+00 0. -1.
         -1    1    3    3    0  502 -0.52776377064E+02 -0.19176065460E+03 -0.64609966204E+03  0.67601942866E+03  0.00000000000E+00 0.  1.
         13    1    5    5    0    0  0.41983080514E+03  0.63293881727E+02  0.16564480771E+03  0.45574359319E+03  0.00000000000E+00 0. -1.
        -13    1    5    5    0    0  0.70797677494E+02  0.48576447341E+02  0.20151590107E+02  0.88193361194E+02  0.00000000000E+00 0.  1.
          1    1    6    6  503    0 -0.23233130805E+03  0.45904657780E+03  0.16299271962E+03  0.53969271252E+03  0.00000000000E+00 0. -1.
         -1    1    6    6    0  503 -0.71441900533E+02  0.59515970723E+02  0.19161572671E+02  0.94938199847E+02  0.00000000000E+00 0.  1.
<mgrwt>
<rscale>  0 0.27341584E+04</rscale>
<asrwt>0</asrwt>
<pdfrwt beam="1">  1        2 0.34521153E+00 0.27341584E+04</pdfrwt>
<pdfrwt beam="2">  1       -1 0.12813724E+00 0.27341584E+04</pdfrwt>
<totfact> 0.25521346E+00</totfact>
</mgrwt>
</event>
<event>
12    7  0.1909736E-007  0.1935107E+04  0.7818608E-02  0.8637576E-01
         -3   -1    0    0    0  501 -0.00000000000E+00  0.00000000000E+00  0.99417923171E+03  0.99417923171E+03  0.00000000000E+00 0.  1.
          2   -1    0    0  501    0  0.00000000000E+00 -0.00000000000E+00 -0.94164109457E+03  0.94164109457E+03  0.00000000000E+00 0. -1.
         24    2    1    2    0    0  0.64348794677E+03  0.23087857271E+03 -0.31090084324E+03  0.75583742028E+03  0.85142343129E+02 0.  0.
        254    2    1    2    0    0 -0.64348794677E+03 -0.23087857271E+03  0.36343898038E+03  0.11799829060E+04  0.89044377307E+03 0.  0.
         23    2    4    4    0    0 -0.58509556525E+02 -0.45307344331E+03  0.35568566375E+02  0.46718977693E+03  0.91116691769E+02 0.  0.
         23    2    4    4    0    0 -0.58497839024E+03  0.22219487060E+03  0.32787041401E+03  0.71279312906E+03  0.94893408015E+02 0.  0.
          4    1    3    3  502    0  0.10861459527E+03  0.43644732165E+02 -0.19705287776E+02  0.11870253291E+03  0.00000000000E+00 0. -1.
         -3    1    3    3    0  502  0.53487335150E+03  0.18723384055E+03 -0.29119555546E+03  0.63713488738E+03  0.00000000000E+00 0.  1.
         13    1    5    5    0    0 -0.79581121494E+02 -0.40716065922E+03  0.25273179703E+02  0.41563408297E+03  0.00000000000E+00 0.  1.
        -13    1    5    5    0    0  0.21071564969E+02 -0.45912784087E+02  0.10295386673E+02  0.51555693959E+02  0.00000000000E+00 0. -1.
          3    1    6    6  503    0 -0.81925139296E+02 -0.17062889284E+01  0.50407098204E+02  0.96205589339E+02  0.00000000000E+00 0. -1.
         -3    1    6    6    0  503 -0.50305325095E+03  0.22390115952E+03  0.27746331580E+03  0.61658753972E+03  0.00000000000E+00 0.  1.
<mgrwt>
<rscale>  0 0.19351073E+04</rscale>
<asrwt>0</asrwt>
<pdfrwt beam="1">  1        2 0.14486786E+00 0.19351073E+04</pdfrwt>
<pdfrwt beam="2">  1       -3 0.15295065E+00 0.19351073E+04</pdfrwt>
<totfact> 0.49679313E+00</totfact>
</mgrwt>
</event>
<event>
12    7  0.1909736E-007  0.1936338E+04  0.7818608E-02  0.8636977E-01
          2   -1    0    0  501    0  0.00000000000E+00  0.00000000000E+00  0.76661570377E+03  0.76661570377E+03  0.00000000000E+00 0. -1.
         -1   -1    0    0    0  501 -0.00000000000E+00 -0.00000000000E+00 -0.12227128070E+04  0.12227128070E+04  0.00000000000E+00 0.  1.
         24    2    1    2    0    0 -0.41228001156E+02  0.16251875148E+03  0.58063437195E+03  0.60943492784E+03  0.78502004548E+02 0.  0.
        254    2    1    2    0    0  0.41228001156E+02 -0.16251875148E+03 -0.10367314752E+04  0.13798935829E+04  0.89508773643E+03 0.  0.
         23    2    4    4    0    0 -0.22444750486E+03 -0.15038903556E+03  0.20831442674E+02  0.28541862810E+03  0.89645411555E+02 0.  0.
         23    2    4    4    0    0  0.26567550601E+03 -0.12129715924E+02 -0.10575629179E+04  0.10944749548E+04  0.93303252908E+02 0.  0.
          4    1    3    3  502    0 -0.44781620752E+02  0.16540016790E+03  0.58003999236E+03  0.60482146277E+03  0.00000000000E+00 0. -1.
         -3    1    3    3    0  502  0.35536195963E+01 -0.28814164197E+01  0.59437959508E+00  0.46134650668E+01  0.00000000000E+00 0.  1.
         13    1    5    5    0    0 -0.12185072612E+03 -0.31263450369E+02  0.24492377518E+02  0.12815958545E+03  0.00000000000E+00 0. -1.
        -13    1    5    5    0    0 -0.10259677873E+03 -0.11912558519E+03 -0.36609348438E+01  0.15725904266E+03  0.00000000000E+00 0.  1.
          3    1    6    6  503    0  0.25669089708E+03  0.54674938780E+01 -0.90762518893E+03  0.94324100510E+03  0.00000000000E+00 0. -1.
         -3    1    6    6    0  503  0.89846089271E+01 -0.17597209802E+02 -0.14993772894E+03  0.15123394973E+03  0.00000000000E+00 0.  1.
<mgrwt>
<rscale>  0 0.19363376E+04</rscale>
<asrwt>0</asrwt>
<pdfrwt beam="1">  1        2 0.11794088E+00 0.19363376E+04</pdfrwt>
<pdfrwt beam="2">  1       -1 0.18810966E+00 0.19363376E+04</pdfrwt>
<totfact> 0.70768696E+00</totfact>
</mgrwt>
</event>
<event>
12    7  0.1909736E-007  0.1551254E+04  0.7818608E-02  0.8851067E-01
          2   -1    0    0  501    0  0.00000000000E+00  0.00000000000E+00  0.63895429060E+03  0.63895429060E+03  0.00000000000E+00 0. -1.
         -1   -1    0    0    0  501 -0.00000000000E+00 -0.00000000000E+00 -0.94153412937E+03  0.94153412937E+03  0.00000000000E+00 0.  1.
         24    2    1    2    0    0  0.46284586406E+01 -0.12413177529E+03 -0.62684740285E+03  0.64423980728E+03  0.81713784395E+02 0.  0.
        254    2    1    2    0    0 -0.46284586406E+01  0.12413177529E+03  0.32426756407E+03  0.93624861269E+03  0.86947219127E+03 0.  0.
         23    2    4    4    0    0 -0.18483585883E+03  0.15674178425E+03  0.56437536822E+03  0.62073670024E+03  0.89789827558E+02 0.  0.
         23    2    4    4    0    0  0.18020740019E+03 -0.32610008960E+02 -0.24010780415E+03  0.31551191245E+03  0.91421493710E+02 0.  0.
          2    1    3    3  502    0  0.25962556980E+02 -0.38021895120E+01 -0.97497307797E+02  0.10096650949E+03  0.00000000000E+00 0. -1.
         -1    1    3    3    0  502 -0.21334098339E+02 -0.12032958578E+03 -0.52935009505E+03  0.54327329779E+03  0.00000000000E+00 0.  1.
         13    1    5    5    0    0 -0.23126254041E+02  0.12576694661E+02  0.15841499892E+03  0.16058738667E+03  0.00000000000E+00 0.  1.
        -13    1    5    5    0    0 -0.16170960479E+03  0.14416508959E+03  0.40596036930E+03  0.46014931357E+03  0.00000000000E+00 0. -1.
          1    1    6    6  503    0  0.77313212847E+02 -0.51100391470E+02 -0.71193415445E+02  0.11686353277E+03  0.00000000000E+00 0. -1.
         -1    1    6    6    0  503  0.10289418735E+03  0.18490382510E+02 -0.16891438871E+03  0.19864837968E+03  0.00000000000E+00 0.  1.
<mgrwt>
<rscale>  0 0.15512540E+04</rscale>
<asrwt>0</asrwt>
<pdfrwt beam="1">  1        2 0.98300661E-01 0.15512540E+04</pdfrwt>
<pdfrwt beam="2">  1       -1 0.14485140E+00 0.15512540E+04</pdfrwt>
<totfact> 0.19348971E+01</totfact>
</mgrwt>
</event>
<event>
12    7  0.1909736E-007  0.1924833E+04  0.7818608E-02  0.8642593E-01
         -1   -1    0    0    0  501 -0.00000000000E+00  0.00000000000E+00  0.35167291093E+03  0.35167291093E+03  0.00000000000E+00 0.  1.
          2   -1    0    0  501    0  0.00000000000E+00 -0.00000000000E+00 -0.26338267371E+04  0.26338267371E+04  0.00000000000E+00 0. -1.
         24    2    1    2    0    0 -0.25157873787E+03 -0.22016958290E+03  0.13818802165E+03  0.36992458857E+03  0.77341872991E+02 0.  0.
        254    2    1    2    0    0  0.25157873787E+03  0.22016958290E+03 -0.24203418478E+04  0.26155750595E+04  0.93349436250E+03 0.  0.
         23    2    4    4    0    0  0.55617419416E+03  0.22651735504E+03 -0.19892691409E+04  0.20799690255E+04  0.91867219022E+02 0.  0.
         23    2    4    4    0    0 -0.30459545629E+03 -0.63477721422E+01 -0.43107270692E+03  0.53560603392E+03  0.90727386800E+02 0.  0.
          4    1    3    3  502    0 -0.12403509257E+03 -0.74642537859E+02  0.90165929006E+02  0.17054649630E+03  0.00000000000E+00 0. -1.
         -3    1    3    3    0  502 -0.12754364530E+03 -0.14552704504E+03  0.48022092643E+02  0.19937809227E+03  0.00000000000E+00 0.  1.
         13    1    5    5    0    0  0.18569059855E+03  0.10890693664E+03 -0.81985526660E+03  0.84764637522E+03  0.00000000000E+00 0.  1.
        -13    1    5    5    0    0  0.37048359561E+03  0.11761041840E+03 -0.11694138743E+04  0.12323226503E+04  0.00000000000E+00 0. -1.
          4    1    6    6  503    0 -0.36808132905E+02  0.30096331644E+02 -0.60231563796E+02  0.76736361027E+02  0.00000000000E+00 0. -1.
         -4    1    6    6    0  503 -0.26778732338E+03 -0.36444103786E+02 -0.37084114313E+03  0.45886967289E+03  0.00000000000E+00 0.  1.
<mgrwt>
<rscale>  0 0.19248330E+04</rscale>
<asrwt>0</asrwt>
<pdfrwt beam="1">  1        2 0.40520412E+00 0.19248330E+04</pdfrwt>
<pdfrwt beam="2">  1       -1 0.54103523E-01 0.19248330E+04</pdfrwt>
<totfact> 0.10681458E+01</totfact>
</mgrwt>
</event>
<event>
12    7  0.1909736E-007  0.2049646E+04  0.7818608E-02  0.8583755E-01
          2   -1    0    0  501    0  0.00000000000E+00  0.00000000000E+00  0.20658124825E+04  0.20658124825E+04  0.00000000000E+00 0. -1.
         -1   -1    0    0    0  501 -0.00000000000E+00 -0.00000000000E+00 -0.50840163821E+03  0.50840163821E+03  0.00000000000E+00 0.  1.
         24    2    1    2    0    0  0.61388087897E+03  0.30432127304E+03  0.45519511080E+02  0.69113925627E+03  0.78359906057E+02 0.  0.
        254    2    1    2    0    0 -0.61388087897E+03 -0.30432127304E+03  0.15118913332E+04  0.18830748644E+04  0.88920997004E+03 0.  0.
         23    2    4    4    0    0 -0.23833724610E+03 -0.58815955244E+03  0.91941826992E+03  0.11208254323E+04  0.90462105557E+02 0.  0.
         23    2    4    4    0    0 -0.37554363288E+03  0.28383827940E+03  0.59247306324E+03  0.76224943213E+03  0.91666117317E+02 0.  0.
          4    1    3    3  502    0  0.21045555952E+03  0.10396174646E+03 -0.21606594624E+02  0.23572533210E+03  0.00000000000E+00 0. -1.
         -3    1    3    3    0  502  0.40342531945E+03  0.20035952659E+03  0.67126105704E+02  0.45541392418E+03  0.00000000000E+00 0.  1.
         13    1    5    5    0    0  0.22216158363E+01 -0.12884186248E+02  0.49077452221E+01  0.13965092028E+02  0.00000000000E+00 0. -1.
        -13    1    5    5    0    0 -0.24055886193E+03 -0.57527536620E+03  0.91451052470E+03  0.11068603402E+04  0.00000000000E+00 0.  1.
          2    1    6    6  503    0  0.86939014766E+00  0.12767396915E+02  0.50366609351E+01  0.13752462201E+02  0.00000000000E+00 0. -1.
         -2    1    6    6    0  503 -0.37641302302E+03  0.27107088249E+03  0.58743640231E+03  0.74849696993E+03  0.00000000000E+00 0.  1.
<mgrwt>
<rscale>  0 0.20496463E+04</rscale>
<asrwt>0</asrwt>
<pdfrwt beam="1">  1        2 0.31781730E+00 0.20496463E+04</pdfrwt>
<pdfrwt beam="2">  1       -1 0.78215638E-01 0.20496463E+04</pdfrwt>
<totfact> 0.10584779E+01</totfact>
</mgrwt>
</event>
<event>
12    7  0.1909736E-007  0.1786264E+04  0.7818608E-02  0.8713638E-01
         -3   -1    0    0    0  501 -0.00000000000E+00  0.00000000000E+00  0.18094383306E+04  0.18094383306E+04  0.00000000000E+00 0.  1.
          2   -1    0    0  501    0  0.00000000000E+00 -0.00000000000E+00 -0.44084683152E+03  0.44084683152E+03  0.00000000000E+00 0. -1.
         24    2    1    2    0    0  0.89975686026E+02 -0.25856982356E+03  0.12742664353E+04  0.13058753797E+04  0.81250117190E+02 0.  0.
        254    2    1    2    0    0 -0.89975686026E+02  0.25856982356E+03  0.94325063818E+02  0.94440978243E+03  0.89892082062E+03 0.  0.
         23    2    4    4    0    0 -0.24053003251E+03  0.53308358456E+03 -0.36417427148E+02  0.59306620422E+03  0.91479445326E+02 0.  0.
         23    2    4    4    0    0  0.15055434648E+03 -0.27451376100E+03  0.13074249097E+03  0.35134357821E+03  0.91237573304E+02 0.  0.
          4    1    3    3  502    0 -0.95999169900E+01 -0.61108189844E+02  0.35755030723E+03  0.36286166989E+03  0.00000000000E+00 0. -1.
         -3    1    3    3    0  502  0.99575603016E+02 -0.19746163372E+03  0.91671612805E+03  0.94301370983E+03  0.00000000000E+00 0.  1.
         13    1    5    5    0    0 -0.72621959381E+02  0.12542336417E+03  0.27665713743E+02  0.14754782608E+03  0.00000000000E+00 0.  1.
        -13    1    5    5    0    0 -0.16790807312E+03  0.40766022040E+03 -0.64083140892E+02  0.44551837814E+03  0.00000000000E+00 0. -1.
          3    1    6    6  503    0  0.11884462547E+03 -0.23780940877E+03  0.14221517460E+03  0.30150044078E+03  0.00000000000E+00 0. -1.
         -3    1    6    6    0  503  0.31709721014E+02 -0.36704352228E+02 -0.11472683634E+02  0.49843137431E+02  0.00000000000E+00 0.  1.
<mgrwt>
<rscale>  0 0.17862644E+04</rscale>
<asrwt>0</asrwt>
<pdfrwt beam="1">  1        2 0.67822591E-01 0.17862644E+04</pdfrwt>
<pdfrwt beam="2">  1       -3 0.27837512E+00 0.17862644E+04</pdfrwt>
<totfact> 0.21112818E+00</totfact>
</mgrwt>
</event>
<event>
12    7  0.2074287E-007  0.1985466E+04  0.7818608E-02  0.8613446E-01
          2   -1    0    0  501    0  0.00000000000E+00  0.00000000000E+00  0.13014096819E+04  0.13014096819E+04  0.00000000000E+00 0. -1.
         -1   -1    0    0    0  501 -0.00000000000E+00 -0.00000000000E+00 -0.75727039402E+03  0.75727039402E+03  0.00000000000E+00 0.  1.
         24    2    1    2    0    0 -0.56515398616E+03  0.41340405569E+03  0.59964333877E+03  0.92492921012E+03  0.74966450166E+02 0.  0.
        254    2    1    2    0    0  0.56515398616E+03 -0.41340405569E+03 -0.55504050928E+02  0.11337508658E+04  0.88994852920E+03 0.  0.
         23    2    4    4    0    0  0.29997748224E+03  0.44425353714E+02 -0.38871413126E+03  0.50199039656E+03  0.94528199460E+02 0.  0.
         23    2    4    4    0    0  0.26517650392E+03 -0.45782940941E+03  0.33321008034E+03  0.63176046921E+03  0.90365847915E+02 0.  0.
          2    1    3    3  502    0 -0.48887748986E+03  0.33634136767E+03  0.47802108722E+03  0.76199138809E+03  0.00000000000E+00 0. -1.
         -1    1    3    3    0  502 -0.76276496309E+02  0.77062688018E+02  0.12162225155E+03  0.16293782203E+03  0.00000000000E+00 0.  1.
         13    1    5    5    0    0  0.24687375977E+03  0.60737444205E+02 -0.26964553234E+03  0.37060005869E+03  0.00000000000E+00 0.  1.
        -13    1    5    5    0    0  0.53103722472E+02 -0.16312090490E+02 -0.11906859892E+03  0.13139033787E+03  0.00000000000E+00 0. -1.
          3    1    6    6  503    0  0.54402645394E+02 -0.36972973387E+02  0.34306325233E+02  0.74186067006E+02  0.00000000000E+00 0. -1.
         -3    1    6    6    0  503  0.21077385853E+03 -0.42085643602E+03  0.29890375510E+03  0.55757440221E+03  0.00000000000E+00 0.  1.
<mgrwt>
<rscale>  0 0.19854662E+04</rscale>
<asrwt>0</asrwt>
<pdfrwt beam="1">  1        2 0.20021687E+00 0.19854662E+04</pdfrwt>
<pdfrwt beam="2">  1       -1 0.11650314E+00 0.19854662E+04</pdfrwt>
<totfact> 0.11639487E+01</totfact>
</mgrwt>
</event>
<event>
12    7  0.1909736E-007  0.2687922E+04  0.7818608E-02  0.8338935E-01
         -1   -1    0    0    0  501 -0.00000000000E+00  0.00000000000E+00  0.10609605567E+04  0.10609605567E+04  0.00000000000E+00 0.  1.
          2   -1    0    0  501    0  0.00000000000E+00 -0.00000000000E+00 -0.17024487268E+04  0.17024487268E+04  0.00000000000E+00 0. -1.
         24    2    1    2    0    0 -0.92293752867E+03 -0.65187537063E+03  0.10570202514E+03  0.11376065981E+04  0.78871245167E+02 0.  0.
        254    2    1    2    0    0  0.92293752867E+03  0.65187537063E+03 -0.74719019524E+03  0.16258026854E+04  0.89899165928E+03 0.  0.
         23    2    4    4    0    0  0.34464428210E+03  0.76242748045E+03 -0.51356354977E+03  0.98577404941E+03  0.89037142324E+02 0.  0.
         23    2    4    4    0    0  0.57829324657E+03 -0.11055210982E+03 -0.23362664546E+03  0.64002863602E+03  0.91708219059E+02 0.  0.
          4    1    3    3  502    0 -0.45528651631E+03 -0.35647266958E+03  0.81373548146E+02  0.58393512519E+03  0.00000000000E+00 0. -1.
         -3    1    3    3    0  502 -0.46765101236E+03 -0.29540270104E+03  0.24328476995E+02  0.55367147293E+03  0.00000000000E+00 0.  1.
         13    1    5    5    0    0  0.23636975055E+03  0.53852589965E+03 -0.40691697847E+03  0.71516587652E+03  0.00000000000E+00 0. -1.
        -13    1    5    5    0    0  0.10827453155E+03  0.22390158080E+03 -0.10664657130E+03  0.27060817289E+03  0.00000000000E+00 0.  1.
          3    1    6    6  503    0  0.48994167033E+03 -0.61441379997E+02 -0.17971220130E+03  0.52546584932E+03  0.00000000000E+00 0. -1.
         -3    1    6    6    0  503  0.88351576238E+02 -0.49110729826E+02 -0.53914444168E+02  0.11456278671E+03  0.00000000000E+00 0.  1.
<mgrwt>
<rscale>  0 0.26879218E+04</rscale>
<asrwt>0</asrwt>
<pdfrwt beam="1">  1        2 0.26191519E+00 0.26879218E+04</pdfrwt>
<pdfrwt beam="2">  1       -1 0.16322470E+00 0.26879218E+04</pdfrwt>
<totfact> 0.27005342E+00</totfact>
</mgrwt>
</event>
<event>
12    7  0.1909736E-007  0.1425506E+04  0.7818608E-02  0.8935560E-01
         -1   -1    0    0    0  501 -0.00000000000E+00  0.00000000000E+00  0.50218885907E+03  0.50218885907E+03  0.00000000000E+00 0.  1.
          2   -1    0    0  501    0  0.00000000000E+00 -0.00000000000E+00 -0.10116054917E+04  0.10116054917E+04  0.00000000000E+00 0. -1.
         24    2    1    2    0    0  0.28247100963E+03  0.27260218387E+03  0.10200788476E+02  0.40042815266E+03  0.78337905417E+02 0.  0.
        254    2    1    2    0    0 -0.28247100963E+03 -0.27260218387E+03 -0.51961742106E+03  0.11133661981E+04  0.90303942595E+03 0.  0.
         23    2    4    4    0    0 -0.36069933328E+03  0.24918478987E+03 -0.20955896443E+03  0.49459835934E+03  0.92279515402E+02 0.  0.
         23    2    4    4    0    0  0.78228323651E+02 -0.52178697374E+03 -0.31005845664E+03  0.61876783873E+03  0.91411570032E+02 0.  0.
          2    1    3    3  502    0  0.24144650492E+03  0.26134533846E+03  0.21365010220E+02  0.35644672019E+03  0.00000000000E+00 0. -1.
         -1    1    3    3    0  502  0.41024504705E+02  0.11256845416E+02 -0.11164221744E+02  0.43981432470E+02  0.00000000000E+00 0.  1.
         13    1    5    5    0    0 -0.23441682047E+03  0.11060106404E+03 -0.14022977293E+03  0.29470023804E+03  0.00000000000E+00 0. -1.
        -13    1    5    5    0    0 -0.12628251281E+03  0.13858372583E+03 -0.69329191499E+02  0.19989812130E+03  0.00000000000E+00 0.  1.
          3    1    6    6  503    0 -0.19158429804E+02 -0.68337960053E+02 -0.30577990689E+02  0.77279594534E+02  0.00000000000E+00 0. -1.
         -3    1    6    6    0  503  0.97386753456E+02 -0.45344901369E+03 -0.27948046595E+03  0.54148824420E+03  0.00000000000E+00 0.  1.
<mgrwt>
<rscale>  0 0.14255062E+04</rscale>
<asrwt>0</asrwt>
<pdfrwt beam="1">  1        2 0.15563161E+00 0.14255062E+04</pdfrwt>
<pdfrwt beam="2">  1       -1 0.77259826E-01 0.14255062E+04</pdfrwt>
<totfact> 0.46105333E+01</totfact>
</mgrwt>
</event>
<event>
12    7  0.1909736E-007  0.2920437E+04  0.7818608E-02  0.8266823E-01
         -1   -1    0    0    0  501 -0.00000000000E+00  0.00000000000E+00  0.10961724303E+04  0.10961724303E+04  0.00000000000E+00 0.  1.
          2   -1    0    0  501    0  0.00000000000E+00 -0.00000000000E+00 -0.19451660513E+04  0.19451660513E+04  0.00000000000E+00 0. -1.
         24    2    1    2    0    0  0.12642387057E+04  0.18090581852E+03 -0.36080619485E+02  0.12799681474E+04  0.77396557711E+02 0.  0.
        254    2    1    2    0    0 -0.12642387057E+04 -0.18090581852E+03 -0.81291300150E+03  0.17613703342E+04  0.90031743612E+03 0.  0.
         23    2    4    4    0    0 -0.15833393669E+03 -0.31951868920E+03 -0.45846320293E+03  0.58793313863E+03  0.91186834635E+02 0.  0.
         23    2    4    4    0    0 -0.11059047690E+04  0.13861287067E+03 -0.35444979858E+03  0.11734371955E+04  0.95295886713E+02 0.  0.
          2    1    3    3  502    0  0.96294599539E+02  0.29339838827E+02 -0.16903477598E+02  0.10207450023E+03  0.00000000000E+00 0. -1.
         -1    1    3    3    0  502  0.11679441062E+04  0.15156597970E+03 -0.19177141887E+02  0.11778936472E+04  0.00000000000E+00 0.  1.
         13    1    5    5    0    0  0.72031870030E+01 -0.37204081131E+02 -0.27641524037E+02  0.46905046710E+02  0.00000000000E+00 0.  1.
        -13    1    5    5    0    0 -0.16553712369E+03 -0.28231460807E+03 -0.43082167889E+03  0.54102809192E+03  0.00000000000E+00 0. -1.
          4    1    6    6  503    0 -0.77920773232E+03  0.13649605596E+03 -0.27151654070E+03  0.83637138597E+03  0.00000000000E+00 0. -1.
         -4    1    6    6    0  503 -0.32669703672E+03  0.21168147150E+01 -0.82933257876E+02  0.33706580955E+03  0.00000000000E+00 0.  1.
<mgrwt>
<rscale>  0 0.29204365E+04</rscale>
<asrwt>0</asrwt>
<pdfrwt beam="1">  1        2 0.29925631E+00 0.29204365E+04</pdfrwt>
<pdfrwt beam="2">  1       -1 0.16864191E+00 0.29204365E+04</pdfrwt>
<totfact> 0.17691129E+00</totfact>
</mgrwt>
</event>
<event>
12    7  0.1909736E-007  0.1472588E+04  0.7818608E-02  0.8902889E-01
          2   -1    0    0  501    0  0.00000000000E+00  0.00000000000E+00  0.22523559122E+04  0.22523559122E+04  0.00000000000E+00 0. -1.
         -1   -1    0    0    0  501 -0.00000000000E+00 -0.00000000000E+00 -0.24069427481E+03  0.24069427481E+03  0.00000000000E+00 0.  1.
         24    2    1    2    0    0  0.29196828140E+03 -0.24143492338E+03  0.20335739906E+03  0.43731425231E+03  0.79707113534E+02 0.  0.
        254    2    1    2    0    0 -0.29196828140E+03  0.24143492338E+03  0.18083042384E+04  0.20557359347E+04  0.90141539554E+03 0.  0.
         23    2    4    4    0    0  0.10882242976E+03  0.12516573849E+03 -0.96905808895E+01  0.18829775093E+03  0.88619142047E+02 0.  0.
         23    2    4    4    0    0 -0.40079071116E+03  0.11626918489E+03  0.18179948192E+04  0.18674381838E+04  0.89824773860E+02 0.  0.
          4    1    3    3  502    0  0.19904005208E+03 -0.13989482936E+03  0.16655136812E+03  0.29483362060E+03  0.00000000000E+00 0. -1.
         -3    1    3    3    0  502  0.92928229323E+02 -0.10154009403E+03  0.36806030943E+02  0.14248063171E+03  0.00000000000E+00 0.  1.
         13    1    5    5    0    0  0.17875129218E+02  0.86580591957E+02 -0.13495340643E+02  0.89430662344E+02  0.00000000000E+00 0. -1.
        -13    1    5    5    0    0  0.90947300545E+02  0.38585146535E+02  0.38047597539E+01  0.98867088590E+02  0.00000000000E+00 0.  1.
          1    1    6    6  503    0 -0.77148689035E+02  0.47123772603E+01  0.48854462624E+03  0.49462104539E+03  0.00000000000E+00 0. -1.
         -1    1    6    6    0  503 -0.32364202213E+03  0.11155680763E+03  0.13294501930E+04  0.13728171384E+04  0.00000000000E+00 0.  1.
<mgrwt>
<rscale>  0 0.14725884E+04</rscale>
<asrwt>0</asrwt>
<pdfrwt beam="1">  1        2 0.34651628E+00 0.14725884E+04</pdfrwt>
<pdfrwt beam="2">  1       -1 0.37029890E-01 0.14725884E+04</pdfrwt>
<totfact> 0.37345785E+01</totfact>
</mgrwt>
</event>
<event>
12    7  0.1909736E-007  0.1499328E+04  0.7818608E-02  0.8884900E-01
          2   -1    0    0  501    0  0.00000000000E+00  0.00000000000E+00  0.16024900643E+04  0.16024900643E+04  0.00000000000E+00 0. -1.
         -1   -1    0    0    0  501 -0.00000000000E+00 -0.00000000000E+00 -0.35070182506E+03  0.35070182506E+03  0.00000000000E+00 0.  1.
         24    2    1    2    0    0 -0.11282199240E+03  0.45886141003E+03  0.42364153800E+03  0.63941845263E+03  0.78110237863E+02 0.  0.
        254    2    1    2    0    0  0.11282199240E+03 -0.45886141003E+03  0.82814670123E+03  0.13137734367E+04  0.90382027455E+03 0.  0.
         23    2    4    4    0    0  0.11640850007E+03 -0.60623559049E+03  0.92716218102E+03  0.11178731649E+04  0.94541910036E+02 0.  0.
         23    2    4    4    0    0 -0.35865076733E+01  0.14737418046E+03 -0.99015479791E+02  0.19590027185E+03  0.82709365678E+02 0.  0.
          4    1    3    3  502    0 -0.76143132647E+02  0.21696827657E+03  0.16244472464E+03  0.28153383145E+03  0.00000000000E+00 0. -1.
         -3    1    3    3    0  502 -0.36678859751E+02  0.24189313347E+03  0.26119681336E+03  0.35788462118E+03  0.00000000000E+00 0.  1.
         13    1    5    5    0    0  0.10474664951E+03 -0.60126766132E+03  0.91741727147E+03  0.11018843456E+04  0.00000000000E+00 0. -1.
        -13    1    5    5    0    0  0.11661850565E+02 -0.49679291669E+01  0.97449095584E+01  0.15988819253E+02  0.00000000000E+00 0.  1.
          4    1    6    6  503    0 -0.22748714214E+02  0.58746682444E+02 -0.82387396427E+02  0.10371287185E+03  0.00000000000E+00 0. -1.
         -4    1    6    6    0  503  0.19162206541E+02  0.88627498012E+02 -0.16628083364E+02  0.92187400006E+02  0.00000000000E+00 0.  1.
<mgrwt>
<rscale>  0 0.14993281E+04</rscale>
<asrwt>0</asrwt>
<pdfrwt beam="1">  1        2 0.24653693E+00 0.14993281E+04</pdfrwt>
<pdfrwt beam="2">  1       -1 0.53954128E-01 0.14993281E+04</pdfrwt>
<totfact> 0.42435303E+01</totfact>
</mgrwt>
</event>
<event>
12    7  0.1909736E-007  0.1323232E+04  0.7818608E-02  0.9011343E-01
          2   -1    0    0  501    0  0.00000000000E+00  0.00000000000E+00  0.13544620333E+04  0.13544620333E+04  0.00000000000E+00 0. -1.
         -1   -1    0    0    0  501 -0.00000000000E+00 -0.00000000000E+00 -0.32318029196E+03  0.32318029196E+03  0.00000000000E+00 0.  1.
         24    2    1    2    0    0  0.32042430814E+03  0.81195738745E+02  0.48470353131E+03  0.59186113626E+03  0.78087169972E+02 0.  0.
        254    2    1    2    0    0 -0.32042430814E+03 -0.81195738745E+02  0.54657821008E+03  0.10857811890E+04  0.87801398935E+03 0.  0.
         23    2    4    4    0    0 -0.20700089361E+01  0.15140725741E+03 -0.18038438224E+03  0.25377810134E+03  0.94532305755E+02 0.  0.
         23    2    4    4    0    0 -0.31835429921E+03 -0.23260299615E+03  0.72696259232E+03  0.83200308769E+03  0.91109349970E+02 0.  0.
          2    1    3    3  502    0  0.23064880602E+03  0.33603158875E+02  0.28835255629E+03  0.37077653745E+03  0.00000000000E+00 0. -1.
         -1    1    3    3    0  502  0.89775502120E+02  0.47592579870E+02  0.19635097502E+03  0.22108459881E+03  0.00000000000E+00 0.  1.
         13    1    5    5    0    0  0.88362081956E-01 -0.13496372096E+02 -0.11559571502E+02  0.17770299967E+02  0.00000000000E+00 0. -1.
        -13    1    5    5    0    0 -0.21583710181E+01  0.16490362950E+03 -0.16882481074E+03  0.23600780138E+03  0.00000000000E+00 0.  1.
          1    1    6    6  503    0 -0.23447762605E+03 -0.12313213569E+03  0.43858277981E+03  0.51234376614E+03  0.00000000000E+00 0. -1.
         -1    1    6    6    0  503 -0.83876673157E+02 -0.10947086046E+03  0.28837981252E+03  0.31965932156E+03  0.00000000000E+00 0.  1.
<mgrwt>
<rscale>  0 0.13232316E+04</rscale>
<asrwt>0</asrwt>
<pdfrwt beam="1">  1        2 0.20837877E+00 0.13232316E+04</pdfrwt>
<pdfrwt beam="2">  1       -1 0.49720046E-01 0.13232316E+04</pdfrwt>
<totfact> 0.69536664E+01</totfact>
</mgrwt>
</event>
<event>
12    7  0.1909736E-007  0.2838144E+04  0.7818608E-02  0.8291523E-01
         -1   -1    0    0    0  501 -0.00000000000E+00  0.00000000000E+00  0.15109811084E+04  0.15109811084E+04  0.00000000000E+00 0.  1.
          2   -1    0    0  501    0  0.00000000000E+00 -0.00000000000E+00 -0.13327537841E+04  0.13327537841E+04  0.00000000000E+00 0. -1.
         24    2    1    2    0    0  0.84785753239E+03 -0.50813908739E+03  0.87906710914E+03  0.13252352127E+04  0.80135255292E+02 0.  0.
        254    2    1    2    0    0 -0.84785753239E+03  0.50813908739E+03 -0.70083978478E+03  0.15184996799E+04  0.91520333612E+03 0.  0.
         23    2    4    4    0    0  0.86902248603E+01  0.42014944971E+03 -0.43662889678E+03  0.61278756878E+03  0.90899564571E+02 0.  0.
         23    2    4    4    0    0 -0.85654775725E+03  0.87989637679E+02 -0.26421088799E+03  0.90571211108E+03  0.95345676529E+02 0.  0.
          4    1    3    3  502    0  0.29581752307E+03 -0.14792728626E+03  0.25657098249E+03  0.41859187526E+03  0.00000000000E+00 0. -1.
         -3    1    3    3    0  502  0.55204000932E+03 -0.36021180113E+03  0.62249612665E+03  0.90664333740E+03  0.00000000000E+00 0.  1.
         13    1    5    5    0    0  0.48359595773E+02  0.26733085674E+03 -0.28885356292E+03  0.39653602394E+03  0.00000000000E+00 0. -1.
        -13    1    5    5    0    0 -0.39669370913E+02  0.15281859298E+03 -0.14777533386E+03  0.21625154484E+03  0.00000000000E+00 0.  1.
          4    1    6    6  503    0 -0.74951035205E+03  0.10365937960E+03 -0.24845486635E+03  0.79639240041E+03  0.00000000000E+00 0. -1.
         -4    1    6    6    0  503 -0.10703740520E+03 -0.15669741923E+02 -0.15756021642E+02  0.10931971068E+03  0.00000000000E+00 0.  1.
<mgrwt>
<rscale>  0 0.28381443E+04</rscale>
<asrwt>0</asrwt>
<pdfrwt beam="1">  1        2 0.20503904E+00 0.28381443E+04</pdfrwt>
<pdfrwt beam="2">  1       -1 0.23245863E+00 0.28381443E+04</pdfrwt>
<totfact> 0.14213195E+00</totfact>
</mgrwt>
</event>
<event>
12    7  0.1909736E-007  0.1357030E+04  0.7818608E-02  0.8985524E-01
         -1   -1    0    0    0  501 -0.00000000000E+00  0.00000000000E+00  0.58565098967E+03  0.58565098967E+03  0.00000000000E+00 0.  1.
          2   -1    0    0  501    0  0.00000000000E+00 -0.00000000000E+00 -0.78610350261E+03  0.78610350261E+03  0.00000000000E+00 0. -1.
         24    2    1    2    0    0 -0.36724782676E+03 -0.31017106795E+02 -0.39969688989E+01  0.37719240416E+03  0.80156764037E+02 0.  0.
        254    2    1    2    0    0  0.36724782676E+03  0.31017106795E+02 -0.19645554404E+03  0.99456208812E+03  0.90262170324E+03 0.  0.
         23    2    4    4    0    0  0.44549858312E+03  0.93407292585E+01 -0.49506641628E+03  0.67181387076E+03  0.87674874636E+02 0.  0.
         23    2    4    4    0    0 -0.78250756359E+02  0.21676377537E+02  0.29861087223E+03  0.32274821736E+03  0.91678310298E+02 0.  0.
          2    1    3    3  502    0 -0.15447454782E+03  0.12973593366E+02  0.28151027581E+02  0.15755373814E+03  0.00000000000E+00 0. -1.
         -1    1    3    3    0  502 -0.21277327894E+03 -0.43990700161E+02 -0.32147996480E+02  0.21963866601E+03  0.00000000000E+00 0.  1.
         13    1    5    5    0    0  0.91222056519E+01 -0.66057709090E+01  0.54593543152E+00  0.11276031693E+02  0.00000000000E+00 0. -1.
        -13    1    5    5    0    0  0.43637637746E+03  0.15946500168E+02 -0.49561235171E+03  0.66053783907E+03  0.00000000000E+00 0.  1.
          4    1    6    6  503    0 -0.70149128694E+02  0.52561209175E+02  0.18466408090E+03  0.20441233755E+03  0.00000000000E+00 0. -1.
         -4    1    6    6    0  503 -0.81016276648E+01 -0.30884831638E+02  0.11394679133E+03  0.11833587981E+03  0.00000000000E+00 0.  1.
<mgrwt>
<rscale>  0 0.13570295E+04</rscale>
<asrwt>0</asrwt>
<pdfrwt beam="1">  1        2 0.12093900E+00 0.13570295E+04</pdfrwt>
<pdfrwt beam="2">  1       -1 0.90100153E-01 0.13570295E+04</pdfrwt>
<totfact> 0.47378635E+01</totfact>
</mgrwt>
</event>
<event>
12    7  0.1909736E-007  0.2151724E+04  0.7818608E-02  0.8538795E-01
          2   -1    0    0  501    0  0.00000000000E+00  0.00000000000E+00  0.35768392989E+04  0.35768392989E+04  0.00000000000E+00 0. -1.
         -1   -1    0    0    0  501 -0.00000000000E+00 -0.00000000000E+00 -0.32360380655E+03  0.32360380655E+03  0.00000000000E+00 0.  1.
         24    2    1    2    0    0  0.69569105800E+03 -0.25306204250E+03  0.46326950645E+03  0.87690807017E+03  0.79515296527E+02 0.  0.
        254    2    1    2    0    0 -0.69569105800E+03  0.25306204250E+03  0.27899659859E+04  0.30235350353E+04  0.89990414020E+03 0.  0.
         23    2    4    4    0    0 -0.55733316882E+03  0.45733788098E+03  0.25970890240E+04  0.26968664869E+04  0.91865395690E+02 0.  0.
         23    2    4    4    0    0 -0.13835788918E+03 -0.20427583848E+03  0.19287696188E+03  0.32666854840E+03  0.92947804732E+02 0.  0.
          4    1    3    3  502    0  0.23198627181E+03 -0.80248203658E+02  0.11060541806E+03  0.26924145855E+03  0.00000000000E+00 0. -1.
         -3    1    3    3    0  502  0.46370478619E+03 -0.17281383884E+03  0.35266408839E+03  0.60766661161E+03  0.00000000000E+00 0.  1.
         13    1    5    5    0    0 -0.26081783620E+03  0.19938750394E+03  0.13482835785E+04  0.13876778907E+04  0.00000000000E+00 0.  1.
        -13    1    5    5    0    0 -0.29651533262E+03  0.25795037704E+03  0.12488054456E+04  0.13091885962E+04  0.00000000000E+00 0. -1.
          4    1    6    6  503    0 -0.12708400640E+03 -0.11100887639E+03  0.11032414587E+03  0.20160538803E+03  0.00000000000E+00 0.  1.
         -4    1    6    6    0  503 -0.11273882774E+02 -0.93266962088E+02  0.82552816013E+02  0.12506316037E+03  0.00000000000E+00 0. -1.
<mgrwt>
<rscale>  0 0.21517238E+04</rscale>
<asrwt>0</asrwt>
<pdfrwt beam="1">  1        2 0.55028294E+00 0.21517238E+04</pdfrwt>
<pdfrwt beam="2">  1       -1 0.49785204E-01 0.21517238E+04</pdfrwt>
<totfact> 0.30450427E+00</totfact>
</mgrwt>
</event>
<event>
12    7  0.1909736E-007  0.1206954E+04  0.7818608E-02  0.9106792E-01
         -1   -1    0    0    0  501 -0.00000000000E+00  0.00000000000E+00  0.21504492143E+03  0.21504492143E+03  0.00000000000E+00 0.  1.
          2   -1    0    0  501    0  0.00000000000E+00 -0.00000000000E+00 -0.16935269731E+04  0.16935269731E+04  0.00000000000E+00 0. -1.
         24    2    1    2    0    0 -0.25449372785E+02 -0.22541273443E+03 -0.48274343952E+03  0.53928461193E+03  0.79549310807E+02 0.  0.
        254    2    1    2    0    0  0.25449372785E+02  0.22541273443E+03 -0.99573861216E+03  0.13692872826E+04  0.91213689059E+03 0.  0.
         23    2    4    4    0    0  0.92001232435E+02 -0.30647186141E+03 -0.63353348945E+03  0.71558817910E+03  0.91173083761E+02 0.  0.
         23    2    4    4    0    0 -0.66551859649E+02  0.53188459584E+03 -0.36220512271E+03  0.65369910351E+03  0.93806149622E+02 0.  0.
          2    1    3    3  502    0  0.11760445936E+02 -0.19749956466E+02 -0.10587930107E+03  0.10834572102E+03  0.00000000000E+00 0. -1.
         -1    1    3    3    0  502 -0.37209818721E+02 -0.20566277796E+03 -0.37686413845E+03  0.43093889091E+03  0.00000000000E+00 0.  1.
         13    1    5    5    0    0  0.28644427061E+02 -0.11432565730E+02 -0.64303841981E+02  0.71317535392E+02  0.00000000000E+00 0.  1.
        -13    1    5    5    0    0  0.63356805374E+02 -0.29503929568E+03 -0.56922964747E+03  0.64427064371E+03  0.00000000000E+00 0. -1.
          4    1    6    6  503    0  0.11469394299E+01  0.24436548273E+03 -0.12283379052E+03  0.27350309818E+03  0.00000000000E+00 0. -1.
         -4    1    6    6    0  503 -0.67698799079E+02  0.28751911311E+03 -0.23937133219E+03  0.38019600534E+03  0.00000000000E+00 0.  1.
<mgrwt>
<rscale>  0 0.12069538E+04</rscale>
<asrwt>0</asrwt>
<pdfrwt beam="1">  1        2 0.26054261E+00 0.12069538E+04</pdfrwt>
<pdfrwt beam="2">  1       -1 0.33083835E-01 0.12069538E+04</pdfrwt>
<totfact> 0.95343712E+01</totfact>
</mgrwt>
</event>
<event>
12    7  0.1909736E-007  0.2268467E+04  0.7818608E-02  0.8490459E-01
         -1   -1    0    0    0  501 -0.00000000000E+00  0.00000000000E+00  0.54762152391E+03  0.54762152391E+03  0.00000000000E+00 0.  1.
          2   -1    0    0  501    0  0.00000000000E+00 -0.00000000000E+00 -0.23492235941E+04  0.23492235941E+04  0.00000000000E+00 0. -1.
         24    2    1    2    0    0  0.22943962246E+03 -0.20215650035E+03  0.39435522293E+03  0.50429525362E+03  0.72717741923E+02 0.  0.
        254    2    1    2    0    0 -0.22943962246E+03  0.20215650035E+03 -0.21959572932E+04  0.23925498644E+04  0.89919776992E+03 0.  0.
         23    2    4    4    0    0 -0.46613552635E+03  0.21636573672E+03 -0.20128613170E+04  0.20794257258E+04  0.91127421511E+02 0.  0.
         23    2    4    4    0    0  0.23669590389E+03 -0.14209236369E+02 -0.18309597618E+03  0.31312413859E+03  0.91080933017E+02 0.  0.
          4    1    3    3  502    0  0.43772596941E+02 -0.82573738723E+02  0.11974721769E+03  0.15190081868E+03  0.00000000000E+00 0. -1.
         -3    1    3    3    0  502  0.18566702552E+03 -0.11958276163E+03  0.27460800523E+03  0.35239443495E+03  0.00000000000E+00 0.  1.
         13    1    5    5    0    0 -0.49554212921E+02  0.43051607110E+02 -0.36774255671E+03  0.37355541611E+03  0.00000000000E+00 0. -1.
        -13    1    5    5    0    0 -0.41658131343E+03  0.17331412961E+03 -0.16451187603E+04  0.17058703097E+04  0.00000000000E+00 0.  1.
          2    1    6    6  503    0  0.18711566880E+03  0.15226513747E+02 -0.17157030514E+03  0.25432359276E+03  0.00000000000E+00 0.  1.
         -2    1    6    6    0  503  0.49580235090E+02 -0.29435750117E+02 -0.11525671038E+02  0.58800545825E+02  0.00000000000E+00 0. -1.
<mgrwt>
<rscale>  0 0.22684668E+04</rscale>
<asrwt>0</asrwt>
<pdfrwt beam="1">  1        2 0.36141901E+00 0.22684668E+04</pdfrwt>
<pdfrwt beam="2">  1       -1 0.84249466E-01 0.22684668E+04</pdfrwt>
<totfact> 0.61350377E+00</totfact>
</mgrwt>
</event>
<event>
12    7  0.1909736E-007  0.1542957E+04  0.7818608E-02  0.8856379E-01
          2   -1    0    0  501    0  0.00000000000E+00  0.00000000000E+00  0.28771969482E+04  0.28771969482E+04  0.00000000000E+00 0. -1.
         -1   -1    0    0    0  501 -0.00000000000E+00 -0.00000000000E+00 -0.20686076590E+03  0.20686076590E+03  0.00000000000E+00 0.  1.
         24    2    1    2    0    0 -0.37286860838E+03  0.32548037552E+03  0.78258239592E+03  0.92961156936E+03  0.82304249703E+02 0.  0.
        254    2    1    2    0    0  0.37286860838E+03 -0.32548037552E+03  0.18877537864E+04  0.21544461447E+04  0.91271866345E+03 0.  0.
         23    2    4    4    0    0  0.12958656566E+03  0.28603508697E+03  0.95300642443E+03  0.10076137596E+04  0.91953762949E+02 0.  0.
         23    2    4    4    0    0  0.24328204272E+03 -0.61151546250E+03  0.93474736196E+03  0.11468323852E+04  0.91293897848E+02 0.  0.
          2    1    3    3  502    0 -0.18961116184E+03  0.16933964449E+03  0.47768186629E+03  0.54111761500E+03  0.00000000000E+00 0. -1.
         -1    1    3    3    0  502 -0.18325744653E+03  0.15614073104E+03  0.30490052963E+03  0.38849395435E+03  0.00000000000E+00 0.  1.
         13    1    5    5    0    0 -0.13764339718E+02  0.35155085837E+02  0.93309793961E+02  0.10065810825E+03  0.00000000000E+00 0.  1.
        -13    1    5    5    0    0  0.14335090538E+03  0.25088000114E+03  0.85969663047E+03  0.90695565133E+03  0.00000000000E+00 0. -1.
          3    1    6    6  503    0  0.10249746714E+03 -0.17251421406E+03  0.33288886417E+03  0.38869252722E+03  0.00000000000E+00 0. -1.
         -3    1    6    6    0  503  0.14078457558E+03 -0.43900124843E+03  0.60185849779E+03  0.75813985795E+03  0.00000000000E+00 0.  1.
<mgrwt>
<rscale>  0 0.15429571E+04</rscale>
<asrwt>0</asrwt>
<pdfrwt beam="1">  1        2 0.44264566E+00 0.15429571E+04</pdfrwt>
<pdfrwt beam="2">  1       -1 0.31824735E-01 0.15429571E+04</pdfrwt>
<totfact> 0.21037110E+01</totfact>
</mgrwt>
</event>
<event>
12    7  0.1909736E-007  0.2856750E+04  0.7818608E-02  0.8285863E-01
          2   -1    0    0  501    0  0.00000000000E+00  0.00000000000E+00  0.13302363156E+04  0.13302363156E+04  0.00000000000E+00 0. -1.
         -1   -1    0    0    0  501 -0.00000000000E+00 -0.00000000000E+00 -0.15337537702E+04  0.15337537702E+04  0.00000000000E+00 0.  1.
         24    2    1    2    0    0  0.31172947423E+03  0.10151697585E+04  0.56978122764E+03  0.12076806294E+04  0.78082978887E+02 0.  0.
        254    2    1    2    0    0 -0.31172947423E+03 -0.10151697585E+04 -0.77329868232E+03  0.16563094564E+04  0.10087741371E+04 0.  0.
         23    2    4    4    0    0  0.36049798048E+03 -0.40625916372E+03 -0.33733250336E+03  0.64581123751E+03  0.90959521989E+02 0.  0.
         23    2    4    4    0    0 -0.67222745471E+03 -0.60891059479E+03 -0.43596617896E+03  0.10104982189E+04  0.91532933218E+02 0.  0.
          2    1    3    3  502    0  0.25319372289E+03  0.72448819076E+03  0.43237803676E+03  0.88087511403E+03  0.00000000000E+00 0. -1.
         -1    1    3    3    0  502  0.58535751338E+02  0.29068156776E+03  0.13740319089E+03  0.32680551538E+03  0.00000000000E+00 0.  1.
         13    1    5    5    0    0  0.34031798956E+03 -0.38159033109E+03 -0.33968800069E+03  0.61385295683E+03  0.00000000000E+00 0. -1.
        -13    1    5    5    0    0  0.20179990916E+02 -0.24668832627E+02  0.23554973214E+01  0.31958280683E+02  0.00000000000E+00 0.  1.
          4    1    6    6  503    0 -0.57730345635E+03 -0.55604553471E+03 -0.40173947547E+03  0.89658269197E+03  0.00000000000E+00 0. -1.
         -4    1    6    6    0  503 -0.94923998354E+02 -0.52865060087E+02 -0.34226703485E+02  0.11391552692E+03  0.00000000000E+00 0.  1.
<mgrwt>
<rscale>  0 0.28567499E+04</rscale>
<asrwt>0</asrwt>
<pdfrwt beam="1">  1        2 0.20465174E+00 0.28567499E+04</pdfrwt>
<pdfrwt beam="2">  1       -1 0.23596212E+00 0.28567499E+04</pdfrwt>
<totfact> 0.13499805E+00</totfact>
</mgrwt>
</event>
<event>
12    7  0.1909736E-007  0.1519524E+04  0.7818608E-02  0.8871573E-01
          2   -1    0    0  501    0  0.00000000000E+00  0.00000000000E+00  0.97150170299E+03  0.97150170299E+03  0.00000000000E+00 0. -1.
         -1   -1    0    0    0  501 -0.00000000000E+00 -0.00000000000E+00 -0.59417098420E+03  0.59417098420E+03  0.00000000000E+00 0.  1.
         24    2    1    2    0    0 -0.46182710580E+03 -0.11617971682E+03  0.28890285948E+03  0.56259993216E+03  0.79194817988E+02 0.  0.
        254    2    1    2    0    0  0.46182710580E+03  0.11617971682E+03  0.88427859321E+02  0.10030727550E+04  0.87838116062E+03 0.  0.
         23    2    4    4    0    0 -0.48468815888E+02  0.60670721309E+02 -0.31947603060E+03  0.34110831145E+03  0.90883350917E+02 0.  0.
         23    2    4    4    0    0  0.51029592169E+03  0.55508995507E+02  0.40790388992E+03  0.66196444358E+03  0.91258779723E+02 0.  0.
          4    1    3    3  502    0 -0.44405668803E+03 -0.12606324878E+03  0.28290578043E+03  0.54140000506E+03  0.00000000000E+00 0. -1.
         -3    1    3    3    0  502 -0.17770417774E+02  0.98835319620E+01  0.59970790424E+01  0.21199927098E+02  0.00000000000E+00 0.  1.
         13    1    5    5    0    0 -0.75363407209E+02  0.39248669356E+02 -0.21861663904E+03  0.23454921884E+03  0.00000000000E+00 0.  1.
        -13    1    5    5    0    0  0.26894591321E+02  0.21422051953E+02 -0.10085939156E+03  0.10655909261E+03  0.00000000000E+00 0. -1.
          2    1    6    6  503    0  0.49496036223E+03  0.67175581534E+02  0.37805969178E+03  0.62644030001E+03  0.00000000000E+00 0.  1.
         -2    1    6    6    0  503  0.15335559465E+02 -0.11666586027E+02  0.29844198146E+02  0.35524143574E+02  0.00000000000E+00 0. -1.
<mgrwt>
<rscale>  0 0.15195238E+04</rscale>
<asrwt>0</asrwt>
<pdfrwt beam="1">  1        2 0.14946180E+00 0.15195238E+04</pdfrwt>
<pdfrwt beam="2">  1       -1 0.91410920E-01 0.15195238E+04</pdfrwt>
<totfact> 0.33773912E+01</totfact>
</mgrwt>
</event>
<event>
12    7  0.1909736E-007  0.1483710E+04  0.7818608E-02  0.8895358E-01
         -1   -1    0    0    0  501 -0.00000000000E+00  0.00000000000E+00  0.73793881756E+03  0.73793881756E+03  0.00000000000E+00 0.  1.
          2   -1    0    0  501    0  0.00000000000E+00 -0.00000000000E+00 -0.74579190728E+03  0.74579190728E+03  0.00000000000E+00 0. -1.
         24    2    1    2    0    0  0.13284931240E+03  0.39370410350E+03 -0.21671834510E+03  0.47576505179E+03  0.82059018293E+02 0.  0.
        254    2    1    2    0    0 -0.13284931240E+03 -0.39370410350E+03  0.20886525538E+03  0.10079656731E+04  0.89426966975E+03 0.  0.
         23    2    4    4    0    0  0.84341988702E+02 -0.43339241722E+03 -0.23203710130E+03  0.50722533218E+03  0.92161612707E+02 0.  0.
         23    2    4    4    0    0 -0.21719130110E+03  0.39688313729E+02  0.44090235668E+03  0.50074034088E+03  0.87170966122E+02 0.  0.
          4    1    3    3  502    0  0.42174321532E+02  0.19992970674E+03 -0.68533183464E+02  0.21551649187E+03  0.00000000000E+00 0. -1.
         -3    1    3    3    0  502  0.90674990870E+02  0.19377439676E+03 -0.14818516164E+03  0.26024855991E+03  0.00000000000E+00 0.  1.
         13    1    5    5    0    0  0.57675640366E+02 -0.20200714982E+03 -0.62629593936E+02  0.21921640930E+03  0.00000000000E+00 0. -1.
        -13    1    5    5    0    0  0.26666348336E+02 -0.23138526740E+03 -0.16940750736E+03  0.28800892287E+03  0.00000000000E+00 0.  1.
          1    1    6    6  503    0 -0.45624212842E+02 -0.12603625761E+02  0.16506646442E+03  0.17171883372E+03  0.00000000000E+00 0. -1.
         -1    1    6    6    0  503 -0.17156708826E+03  0.52291939490E+02  0.27583589226E+03  0.32902150715E+03  0.00000000000E+00 0.  1.
<mgrwt>
<rscale>  0 0.14837099E+04</rscale>
<asrwt>0</asrwt>
<pdfrwt beam="1">  1        2 0.11473722E+00 0.14837099E+04</pdfrwt>
<pdfrwt beam="2">  1       -1 0.11352905E+00 0.14837099E+04</pdfrwt>
<totfact> 0.29551418E+01</totfact>
</mgrwt>
</event>
<event>
12    7  0.1909736E-007  0.4579780E+04  0.7818608E-02  0.7896817E-01
         -1   -1    0    0    0  501 -0.00000000000E+00  0.00000000000E+00  0.15069548615E+04  0.15069548615E+04  0.00000000000E+00 0.  1.
          2   -1    0    0  501    0  0.00000000000E+00 -0.00000000000E+00 -0.34795981035E+04  0.34795981035E+04  0.00000000000E+00 0. -1.
         24    2    1    2    0    0  0.17147373812E+04 -0.37630105374E+03 -0.23834340906E+04  0.29612865067E+04  0.80826609029E+02 0.  0.
        254    2    1    2    0    0 -0.17147373812E+04  0.37630105374E+03  0.41079084864E+03  0.20252664583E+04  0.92251197092E+03 0.  0.
         23    2    4    4    0    0 -0.17433094755E+04  0.30449562845E+03  0.53719098467E+03  0.18517059953E+04  0.91626545865E+02 0.  0.
         23    2    4    4    0    0  0.28572094307E+02  0.71805425291E+02 -0.12640013603E+03  0.17356046305E+03  0.90409381541E+02 0.  0.
          4    1    3    3  502    0  0.11660548439E+04 -0.29392406691E+03 -0.16402934385E+04  0.20338726166E+04  0.00000000000E+00 0. -1.
         -3    1    3    3    0  502  0.54868253730E+03 -0.82376986830E+02 -0.74314065214E+03  0.92741389010E+03  0.00000000000E+00 0.  1.
         13    1    5    5    0    0 -0.71466565083E+02 -0.41033217012E+01  0.29596173301E+02  0.77461220283E+02  0.00000000000E+00 0.  1.
        -13    1    5    5    0    0 -0.16718429104E+04  0.30859895015E+03  0.50759481137E+03  0.17742447750E+04  0.00000000000E+00 0. -1.
          1    1    6    6  503    0  0.19137867994E+02  0.48168173565E+02 -0.13663022712E+03  0.14613093409E+03  0.00000000000E+00 0. -1.
         -1    1    6    6    0  503  0.94342263128E+01  0.23637251725E+02  0.10230091086E+02  0.27429528958E+02  0.00000000000E+00 0.  1.
<mgrwt>
<rscale>  0 0.45797805E+04</rscale>
<asrwt>0</asrwt>
<pdfrwt beam="1">  1        2 0.53532278E+00 0.45797805E+04</pdfrwt>
<pdfrwt beam="2">  1       -1 0.23183921E+00 0.45797805E+04</pdfrwt>
<totfact> 0.65776934E-02</totfact>
</mgrwt>
</event>
<event>
12    7  0.1909736E-007  0.2677687E+04  0.7818608E-02  0.8342281E-01
          2   -1    0    0  501    0  0.00000000000E+00  0.00000000000E+00  0.13111279854E+04  0.13111279854E+04  0.00000000000E+00 0. -1.
         -1   -1    0    0    0  501 -0.00000000000E+00 -0.00000000000E+00 -0.13671447254E+04  0.13671447254E+04  0.00000000000E+00 0.  1.
         24    2    1    2    0    0  0.42588924912E+03 -0.95370998872E+03 -0.58628829631E+03  0.12003475996E+04  0.78460171145E+02 0.  0.
        254    2    1    2    0    0 -0.42588924912E+03  0.95370998872E+03  0.53027155634E+03  0.14779251111E+04  0.90118273146E+03 0.  0.
         23    2    4    4    0    0 -0.30366531505E+03  0.37299273548E+03  0.69939071856E+03  0.85397376662E+03  0.93742266819E+02 0.  0.
         23    2    4    4    0    0 -0.12222393408E+03  0.58071725324E+03 -0.16911916221E+03  0.62395134449E+03  0.92427111785E+02 0.  0.
          4    1    3    3  502    0  0.13690936349E+03 -0.39983263169E+03 -0.24343711174E+03  0.48772116475E+03  0.00000000000E+00 0. -1.
         -3    1    3    3    0  502  0.28897988564E+03 -0.55387735703E+03 -0.34285118457E+03  0.71262643488E+03  0.00000000000E+00 0.  1.
         13    1    5    5    0    0 -0.16866748520E+02  0.73237283168E+02  0.10509237869E+03  0.12919982551E+03  0.00000000000E+00 0.  1.
        -13    1    5    5    0    0 -0.28679856653E+03  0.29975545231E+03  0.59429833986E+03  0.72477394111E+03  0.00000000000E+00 0. -1.
          2    1    6    6  503    0 -0.98636960063E+02  0.38257953810E+03 -0.15329787120E+03  0.42378837900E+03  0.00000000000E+00 0. -1.
         -2    1    6    6    0  503 -0.23586974014E+02  0.19813771514E+03 -0.15821291016E+02  0.20016296549E+03  0.00000000000E+00 0.  1.
<mgrwt>
<rscale>  0 0.26776868E+04</rscale>
<asrwt>0</asrwt>
<pdfrwt beam="1">  1        2 0.20171200E+00 0.26776868E+04</pdfrwt>
<pdfrwt beam="2">  1       -1 0.21032996E+00 0.26776868E+04</pdfrwt>
<totfact> 0.20857444E+00</totfact>
</mgrwt>
</event>
<event>
12    7  0.1909736E-007  0.1548267E+04  0.7818608E-02  0.8852975E-01
          2   -1    0    0  501    0  0.00000000000E+00  0.00000000000E+00  0.11234268415E+04  0.11234268415E+04  0.00000000000E+00 0. -1.
         -1   -1    0    0    0  501 -0.00000000000E+00 -0.00000000000E+00 -0.53344174518E+03  0.53344174518E+03  0.00000000000E+00 0.  1.
         24    2    1    2    0    0 -0.34649826162E+03 -0.24364553999E+03 -0.11990095399E+03  0.44741933229E+03  0.79897594957E+02 0.  0.
        254    2    1    2    0    0  0.34649826162E+03  0.24364553999E+03  0.70988605036E+03  0.12094492544E+04  0.88283922664E+03 0.  0.
         23    2    4    4    0    0  0.31258782800E+03 -0.19513066330E+03  0.65410121765E+03  0.75644147326E+03  0.92564429213E+02 0.  0.
         23    2    4    4    0    0  0.33910433620E+02  0.43877620329E+03  0.55784832701E+02  0.45300778117E+03  0.91813006499E+02 0.  0.
          2    1    3    3  502    0 -0.20188389795E+03 -0.11619749511E+03 -0.10048151651E+03  0.25368386090E+03  0.00000000000E+00 0. -1.
         -1    1    3    3    0  502 -0.14461436368E+03 -0.12744804488E+03 -0.19419437475E+02  0.19373547140E+03  0.00000000000E+00 0.  1.
         13    1    5    5    0    0  0.15942687110E+03 -0.11481087005E+03  0.43500412028E+03  0.47731231680E+03  0.00000000000E+00 0. -1.
        -13    1    5    5    0    0  0.15316095690E+03 -0.80319793248E+02  0.21909709737E+03  0.27912915645E+03  0.00000000000E+00 0.  1.
          2    1    6    6  503    0 -0.23299098644E+02  0.15668935060E+03 -0.63838005476E+01  0.15854069982E+03  0.00000000000E+00 0.  1.
         -2    1    6    6    0  503  0.57209532265E+02  0.28208685269E+03  0.62168633249E+02  0.29446708136E+03  0.00000000000E+00 0. -1.
<mgrwt>
<rscale>  0 0.15482671E+04</rscale>
<asrwt>0</asrwt>
<pdfrwt beam="1">  1        2 0.17283490E+00 0.15482671E+04</pdfrwt>
<pdfrwt beam="2">  1       -1 0.82067961E-01 0.15482671E+04</pdfrwt>
<totfact> 0.34181145E+01</totfact>
</mgrwt>
</event>
<event>
12    7  0.1909736E-007  0.1912927E+04  0.7818608E-02  0.8648448E-01
         -1   -1    0    0    0  501 -0.00000000000E+00  0.00000000000E+00  0.30816672138E+03  0.30816672138E+03  0.00000000000E+00 0.  1.
          2   -1    0    0  501    0  0.00000000000E+00 -0.00000000000E+00 -0.29685958622E+04  0.29685958622E+04  0.00000000000E+00 0. -1.
         24    2    1    2    0    0  0.35750569534E+03 -0.37221003570E+03 -0.12368727246E+03  0.53702561347E+03  0.82142165018E+02 0.  0.
        254    2    1    2    0    0 -0.35750569534E+03  0.37221003570E+03 -0.25367418684E+04  0.27397369702E+04  0.89707788171E+03 0.  0.
         23    2    4    4    0    0 -0.28917461948E+03  0.58276079065E+03 -0.23394622763E+04  0.24300375845E+04  0.93631299356E+02 0.  0.
         23    2    4    4    0    0 -0.68331075856E+02 -0.21055075495E+03 -0.19727959207E+03  0.30969938562E+03  0.89407581711E+02 0.  0.
          4    1    3    3  502    0  0.16186077058E+03 -0.12584255549E+03 -0.76861382179E+02  0.21895874017E+03  0.00000000000E+00 0. -1.
         -3    1    3    3    0  502  0.19564492476E+03 -0.24636748021E+03 -0.46825890277E+02  0.31806687330E+03  0.00000000000E+00 0.  1.
         13    1    5    5    0    0 -0.87475268234E+02  0.27777347566E+03 -0.99552170180E+03  0.10372432140E+04  0.00000000000E+00 0.  1.
        -13    1    5    5    0    0 -0.20169935125E+03  0.30498731499E+03 -0.13439405745E+04  0.13927943705E+04  0.00000000000E+00 0. -1.
          1    1    6    6  503    0  0.23860939047E+01  0.59179604006E+01  0.24097717728E+01  0.68207550478E+01  0.00000000000E+00 0. -1.
         -1    1    6    6    0  503 -0.70717169761E+02 -0.21646871535E+03 -0.19968936384E+03  0.30287863057E+03  0.00000000000E+00 0.  1.
<mgrwt>
<rscale>  0 0.19129270E+04</rscale>
<asrwt>0</asrwt>
<pdfrwt beam="1">  1        2 0.45670704E+00 0.19129270E+04</pdfrwt>
<pdfrwt beam="2">  1       -1 0.47410266E-01 0.19129270E+04</pdfrwt>
<totfact> 0.86386394E+00</totfact>
</mgrwt>
</event>
<event>
12    7  0.1909736E-007  0.1855873E+04  0.7818608E-02  0.8677138E-01
          2   -1    0    0  501    0  0.00000000000E+00  0.00000000000E+00  0.17862153532E+04  0.17862153532E+04  0.00000000000E+00 0. -1.
         -1   -1    0    0    0  501 -0.00000000000E+00 -0.00000000000E+00 -0.48206170927E+03  0.48206170927E+03  0.00000000000E+00 0.  1.
         24    2    1    2    0    0  0.55436187478E+03  0.25838085610E+03  0.10324078360E+04  0.12026163741E+04  0.79639489398E+02 0.  0.
        254    2    1    2    0    0 -0.55436187478E+03 -0.25838085610E+03  0.27174580788E+03  0.10656606884E+04  0.82928231843E+03 0.  0.
         23    2    4    4    0    0  0.23869788247E+02  0.13768788959E+03 -0.16528297495E+03  0.23462886322E+03  0.90578805014E+02 0.  0.
         23    2    4    4    0    0 -0.57823166302E+03 -0.39606874569E+03  0.43702878282E+03  0.83103182516E+03  0.91637492244E+02 0.  0.
          2    1    3    3  502    0  0.35001107365E+03  0.17837269562E+03  0.72972786818E+03  0.82875046414E+03  0.00000000000E+00 0. -1.
         -1    1    3    3    0  502  0.20435080113E+03  0.80008160478E+02  0.30267996785E+03  0.37386590992E+03  0.00000000000E+00 0.  1.
         13    1    5    5    0    0 -0.13619610994E+02  0.66400184687E+02 -0.23825468271E+02  0.71847973308E+02  0.00000000000E+00 0. -1.
        -13    1    5    5    0    0  0.37489399241E+02  0.71287704906E+02 -0.14145750668E+03  0.16278088991E+03  0.00000000000E+00 0.  1.
          3    1    6    6  503    0 -0.89830429205E+02 -0.39687821753E+02  0.31949668390E+02  0.10327347441E+03  0.00000000000E+00 0. -1.
         -3    1    6    6    0  503 -0.48840123382E+03 -0.35638092394E+03  0.40507911443E+03  0.72775835075E+03  0.00000000000E+00 0.  1.
<mgrwt>
<rscale>  0 0.18558729E+04</rscale>
<asrwt>0</asrwt>
<pdfrwt beam="1">  1        2 0.27480236E+00 0.18558729E+04</pdfrwt>
<pdfrwt beam="2">  1       -1 0.74163341E-01 0.18558729E+04</pdfrwt>
<totfact> 0.17206123E+01</totfact>
</mgrwt>
</event>
<event>
12    7  0.1909736E-007  0.1634590E+04  0.7818608E-02  0.8799576E-01
         -1   -1    0    0    0  501 -0.00000000000E+00  0.00000000000E+00  0.74145895539E+03  0.74145895539E+03  0.00000000000E+00 0.  1.
          2   -1    0    0  501    0  0.00000000000E+00 -0.00000000000E+00 -0.90088721336E+03  0.90088721336E+03  0.00000000000E+00 0. -1.
         24    2    1    2    0    0  0.13838318620E+03 -0.49551100154E+03  0.17470316778E+03  0.54919017244E+03  0.80047422172E+02 0.  0.
        254    2    1    2    0    0 -0.13838318620E+03  0.49551100154E+03 -0.33413142575E+03  0.10931559963E+04  0.90480117359E+03 0.  0.
         23    2    4    4    0    0  0.15129703831E+03  0.17492947729E+03  0.25533337583E+03  0.35650004832E+03  0.91684436031E+02 0.  0.
         23    2    4    4    0    0 -0.28968022451E+03  0.32058152425E+03 -0.58946480159E+03  0.73665594799E+03  0.92228451325E+02 0.  0.
          2    1    3    3  502    0  0.21111939863E+02 -0.10423897188E+03  0.70630832645E+02  0.12767220443E+03  0.00000000000E+00 0. -1.
         -1    1    3    3    0  502  0.11727124633E+03 -0.39127202966E+03  0.10407233514E+03  0.42151796801E+03  0.00000000000E+00 0.  1.
         13    1    5    5    0    0  0.11319508834E+03  0.75461754999E+02  0.18180830120E+03  0.22707237365E+03  0.00000000000E+00 0.  1.
        -13    1    5    5    0    0  0.38101949976E+02  0.99467722294E+02  0.73525074636E+02  0.12942767467E+03  0.00000000000E+00 0. -1.
          1    1    6    6  503    0 -0.11692590869E+02  0.58808495438E+02 -0.78631061945E+02  0.98883768737E+02  0.00000000000E+00 0. -1.
         -1    1    6    6    0  503 -0.27798763364E+03  0.26177302881E+03 -0.51083373964E+03  0.63777217925E+03  0.00000000000E+00 0.  1.
<mgrwt>
<rscale>  0 0.16345897E+04</rscale>
<asrwt>0</asrwt>
<pdfrwt beam="1">  1        2 0.13859803E+00 0.16345897E+04</pdfrwt>
<pdfrwt beam="2">  1       -1 0.11407061E+00 0.16345897E+04</pdfrwt>
<totfact> 0.22374124E+01</totfact>
</mgrwt>
</event>
<event>
12    7  0.1909736E-007  0.4293981E+04  0.7818608E-02  0.7947732E-01
         -1   -1    0    0    0  501 -0.00000000000E+00  0.00000000000E+00  0.11243319086E+04  0.11243319086E+04  0.00000000000E+00 0.  1.
          2   -1    0    0  501    0  0.00000000000E+00 -0.00000000000E+00 -0.40998277663E+04  0.40998277663E+04  0.00000000000E+00 0. -1.
         24    2    1    2    0    0  0.18361589516E+04  0.45367674642E+03 -0.45443841449E+03  0.19468319290E+04  0.79611564490E+02 0.  0.
        254    2    1    2    0    0 -0.18361589516E+04 -0.45367674642E+03 -0.25210574432E+04  0.32773277459E+04  0.89880155541E+03 0.  0.
         23    2    4    4    0    0 -0.16262898877E+04 -0.15434802984E+03 -0.23507501636E+04  0.28643232267E+04  0.98382427019E+02 0.  0.
         23    2    4    4    0    0 -0.20986906391E+03 -0.29932871658E+03 -0.17030727960E+03  0.41300451920E+03  0.89025046110E+02 0.  0.
          2    1    3    3  502    0  0.13915193517E+04  0.34210894902E+03 -0.30903321933E+03  0.14659011460E+04  0.00000000000E+00 0. -1.
         -1    1    3    3    0  502  0.44463959996E+03  0.11156779740E+03 -0.14540519516E+03  0.48093078301E+03  0.00000000000E+00 0.  1.
         13    1    5    5    0    0 -0.13024463898E+04 -0.10304377234E+03 -0.19362496478E+04  0.23358183397E+04  0.00000000000E+00 0. -1.
        -13    1    5    5    0    0 -0.32384349795E+03 -0.51304257496E+02 -0.41450051579E+03  0.52850488700E+03  0.00000000000E+00 0.  1.
          2    1    6    6  503    0 -0.30248054558E+02 -0.10786182427E+03 -0.33272723793E+02  0.11685971114E+03  0.00000000000E+00 0. -1.
         -2    1    6    6    0  503 -0.17962100936E+03 -0.19146689231E+03 -0.13703455581E+03  0.29614480805E+03  0.00000000000E+00 0.  1.
<mgrwt>
<rscale>  0 0.42939805E+04</rscale>
<asrwt>0</asrwt>
<pdfrwt beam="1">  1        2 0.63074272E+00 0.42939805E+04</pdfrwt>
<pdfrwt beam="2">  1       -1 0.17297414E+00 0.42939805E+04</pdfrwt>
<totfact> 0.57620395E-02</totfact>
</mgrwt>
</event>
<event>
12    7  0.1909736E-007  0.1219049E+04  0.7818608E-02  0.9096345E-01
          2   -1    0    0  501    0  0.00000000000E+00  0.00000000000E+00  0.11231599053E+04  0.11231599053E+04  0.00000000000E+00 0. -1.
         -3   -1    0    0    0  501 -0.00000000000E+00 -0.00000000000E+00 -0.33078106318E+03  0.33078106318E+03  0.00000000000E+00 0.  1.
         24    2    1    2    0    0  0.10822765093E+02  0.39110234186E+02 -0.14333718553E+03  0.17128623409E+03  0.84538053983E+02 0.  0.
        254    2    1    2    0    0 -0.10822765093E+02 -0.39110234186E+02  0.93571602763E+03  0.12826547344E+04  0.87635149373E+03 0.  0.
         23    2    4    4    0    0 -0.26740971857E+03  0.31856103201E+03  0.50088859472E+03  0.65748420187E+03  0.91689708717E+02 0.  0.
         23    2    4    4    0    0  0.25658695348E+03 -0.35767126619E+03  0.43482743291E+03  0.62517053250E+03  0.89429854854E+02 0.  0.
          2    1    3    3  502    0 -0.17512798795E+02  0.33354722034E+01  0.29281736236E+01  0.18066479934E+02  0.00000000000E+00 0. -1.
         -1    1    3    3    0  502  0.28335563888E+02  0.35774761983E+02 -0.14626535915E+03  0.15321975416E+03  0.00000000000E+00 0.  1.
         13    1    5    5    0    0 -0.49361911783E+01  0.50363351335E+02  0.62414109898E+02  0.80351442149E+02  0.00000000000E+00 0.  1.
        -13    1    5    5    0    0 -0.26247352740E+03  0.26819768067E+03  0.43847448482E+03  0.57713275972E+03  0.00000000000E+00 0. -1.
          1    1    6    6  503    0  0.22779239627E+03 -0.28391585427E+03  0.31405407779E+03  0.48075726919E+03  0.00000000000E+00 0. -1.
         -1    1    6    6    0  503  0.28794557215E+02 -0.73755411918E+02  0.12077335512E+03  0.14441326330E+03  0.00000000000E+00 0.  1.
<mgrwt>
<rscale>  0 0.12190489E+04</rscale>
<asrwt>0</asrwt>
<pdfrwt beam="1">  1        2 0.17279383E+00 0.12190489E+04</pdfrwt>
<pdfrwt beam="2">  1       -3 0.50889395E-01 0.12190489E+04</pdfrwt>
<totfact> 0.50735886E+01</totfact>
</mgrwt>
</event>
<event>
12    7  0.1909736E-007  0.2792353E+04  0.7818608E-02  0.8305646E-01
         -1   -1    0    0    0  501 -0.00000000000E+00  0.00000000000E+00  0.14969589465E+04  0.14969589465E+04  0.00000000000E+00 0.  1.
          2   -1    0    0  501    0  0.00000000000E+00 -0.00000000000E+00 -0.13021791516E+04  0.13021791516E+04  0.00000000000E+00 0. -1.
         24    2    1    2    0    0  0.60343440751E+02  0.50362177045E+02  0.13354287066E+04  0.13400418360E+04  0.78515043002E+02 0.  0.
        254    2    1    2    0    0 -0.60343440751E+02 -0.50362177045E+02 -0.11406489117E+04  0.14590962621E+04  0.90647905804E+03 0.  0.
         23    2    4    4    0    0 -0.70383164164E+02  0.17859753469E+03 -0.11888095269E+04  0.12076827443E+04  0.91534968611E+02 0.  0.
         23    2    4    4    0    0  0.10039723413E+02 -0.22895971174E+03  0.48160615222E+02  0.25141351778E+03  0.91465657049E+02 0.  0.
          4    1    3    3  502    0 -0.78725188279E+01 -0.11646630251E+02  0.35785577349E+03  0.35813178464E+03  0.00000000000E+00 0. -1.
         -3    1    3    3    0  502  0.68215959579E+02  0.62008807296E+02  0.97757293311E+03  0.98191005132E+03  0.00000000000E+00 0.  1.
         13    1    5    5    0    0 -0.48456349439E+02  0.34026617403E+02 -0.50200535268E+03  0.50548511612E+03  0.00000000000E+00 0.  1.
        -13    1    5    5    0    0 -0.21926814725E+02  0.14457091729E+03 -0.68680417425E+03  0.70219762823E+03  0.00000000000E+00 0. -1.
          4    1    6    6  503    0 -0.30800813036E+02 -0.18028280429E+03  0.41332625148E+02  0.18750724121E+03  0.00000000000E+00 0. -1.
         -4    1    6    6    0  503  0.40840536449E+02 -0.48676907448E+02  0.68279900737E+01  0.63906276567E+02  0.00000000000E+00 0.  1.
<mgrwt>
<rscale>  0 0.27923529E+04</rscale>
<asrwt>0</asrwt>
<pdfrwt beam="1">  1        2 0.20033525E+00 0.27923529E+04</pdfrwt>
<pdfrwt beam="2">  1       -1 0.23030138E+00 0.27923529E+04</pdfrwt>
<totfact> 0.15361852E+00</totfact>
</mgrwt>
</event>
<event>
12    7  0.1909736E-007  0.1209019E+04  0.7818608E-02  0.9104998E-01
         -1   -1    0    0    0  501 -0.00000000000E+00  0.00000000000E+00  0.36553552333E+03  0.36553552333E+03  0.00000000000E+00 0.  1.
          2   -1    0    0  501    0  0.00000000000E+00 -0.00000000000E+00 -0.99971681335E+03  0.99971681335E+03  0.00000000000E+00 0. -1.
         24    2    1    2    0    0 -0.14973895097E+03  0.13508161740E+03 -0.34723302982E+03  0.40938683110E+03  0.79737091007E+02 0.  0.
        254    2    1    2    0    0  0.14973895097E+03 -0.13508161740E+03 -0.28694826020E+03  0.95586550558E+03  0.88919669586E+03 0.  0.
         23    2    4    4    0    0  0.47015878873E+03 -0.16333556774E+03  0.12680193020E+02  0.50711823052E+03  0.96334407793E+02 0.  0.
         23    2    4    4    0    0 -0.32041983776E+03  0.28253950340E+02 -0.29962845322E+03  0.44874727506E+03  0.90165119398E+02 0.  0.
          2    1    3    3  502    0 -0.12330824249E+03  0.99897334872E+02 -0.32117986147E+03  0.35824698686E+03  0.00000000000E+00 0. -1.
         -1    1    3    3    0  502 -0.26430708485E+02  0.35184282527E+02 -0.26053168353E+02  0.51139844243E+02  0.00000000000E+00 0.  1.
         13    1    5    5    0    0  0.26582197066E+03 -0.74166348368E+02 -0.37738133045E+02  0.27854287642E+03  0.00000000000E+00 0. -1.
        -13    1    5    5    0    0  0.20433681806E+03 -0.89169219370E+02  0.50418326065E+02  0.22857535410E+03  0.00000000000E+00 0.  1.
          3    1    6    6  503    0 -0.67910370901E+02  0.44173607676E+02 -0.75562738314E+02  0.11078291165E+03  0.00000000000E+00 0. -1.
         -3    1    6    6    0  503 -0.25250946686E+03 -0.15919657336E+02 -0.22406571490E+03  0.33796436341E+03  0.00000000000E+00 0.  1.
<mgrwt>
<rscale>  0 0.12090195E+04</rscale>
<asrwt>0</asrwt>
<pdfrwt beam="1">  1        2 0.15380259E+00 0.12090195E+04</pdfrwt>
<pdfrwt beam="2">  1       -1 0.56236234E-01 0.12090195E+04</pdfrwt>
<totfact> 0.90687533E+01</totfact>
</mgrwt>
</event>
<event>
12    7  0.1909736E-007  0.1206295E+04  0.7818608E-02  0.9107364E-01
         -1   -1    0    0    0  501 -0.00000000000E+00  0.00000000000E+00  0.14336109609E+03  0.14336109609E+03  0.00000000000E+00 0.  1.
          2   -1    0    0  501    0  0.00000000000E+00 -0.00000000000E+00 -0.25375582007E+04  0.25375582007E+04  0.00000000000E+00 0. -1.
         24    2    1    2    0    0  0.29409898552E+02 -0.29200977844E+03 -0.67374447147E+03  0.73926533006E+03  0.80292979500E+02 0.  0.
        254    2    1    2    0    0 -0.29409898552E+02  0.29200977844E+03 -0.17204526332E+04  0.19416539668E+04  0.85083970923E+03 0.  0.
         23    2    4    4    0    0 -0.10129133907E+03 -0.40865100128E+02 -0.15362636015E+04  0.15427283660E+04  0.89303225707E+02 0.  0.
         23    2    4    4    0    0  0.71881440520E+02  0.33287487857E+03 -0.18418903163E+03  0.39892560074E+03  0.96142650672E+02 0.  0.
          2    1    3    3  502    0  0.37795601827E+02 -0.10625948621E+03 -0.32557860336E+03  0.34455915732E+03  0.00000000000E+00 0. -1.
         -1    1    3    3    0  502 -0.83857032754E+01 -0.18575029223E+03 -0.34816586811E+03  0.39470617274E+03  0.00000000000E+00 0.  1.
         13    1    5    5    0    0 -0.23762031202E+02 -0.26151948560E+02 -0.14555066139E+03  0.14977834814E+03  0.00000000000E+00 0. -1.
        -13    1    5    5    0    0 -0.77529307869E+02 -0.14713151568E+02 -0.13907129402E+04  0.13929500179E+04  0.00000000000E+00 0.  1.
          2    1    6    6  503    0  0.27462851496E+02  0.24118924613E+03 -0.16932428348E+03  0.29596819700E+03  0.00000000000E+00 0. -1.
         -2    1    6    6    0  503  0.44418589023E+02  0.91685632436E+02 -0.14864748150E+02  0.10295740373E+03  0.00000000000E+00 0.  1.
<mgrwt>
<rscale>  0 0.12062954E+04</rscale>
<asrwt>0</asrwt>
<pdfrwt beam="1">  1        2 0.39039352E+00 0.12062954E+04</pdfrwt>
<pdfrwt beam="2">  1       -1 0.22055556E-01 0.12062954E+04</pdfrwt>
<totfact> 0.64948755E+01</totfact>
</mgrwt>
</event>
<event>
12    7  0.1909736E-007  0.2290253E+04  0.7818608E-02  0.8481774E-01
          2   -1    0    0  501    0  0.00000000000E+00  0.00000000000E+00  0.14051404817E+04  0.14051404817E+04  0.00000000000E+00 0. -1.
         -1   -1    0    0    0  501 -0.00000000000E+00 -0.00000000000E+00 -0.93322680448E+03  0.93322680448E+03  0.00000000000E+00 0.  1.
         24    2    1    2    0    0  0.13430560946E+03  0.77295011305E+02 -0.77572271971E+03  0.79509835779E+03  0.80144526883E+02 0.  0.
        254    2    1    2    0    0 -0.13430560946E+03 -0.77295011305E+02  0.12476363969E+04  0.15432689284E+04  0.89502507835E+03 0.  0.
         23    2    4    4    0    0  0.20218377190E+03  0.31262715834E+03  0.57919888784E+03  0.69476139253E+03  0.92779432702E+02 0.  0.
         23    2    4    4    0    0 -0.33648938135E+03 -0.38992216965E+03  0.66843750910E+03  0.84850753586E+03  0.88836550406E+02 0.  0.
          4    1    3    3  502    0 -0.41886118919E+01  0.17958521057E+02 -0.39179660044E+02  0.43302409971E+02  0.00000000000E+00 0. -1.
         -3    1    3    3    0  502  0.13849422135E+03  0.59336490248E+02 -0.73654305967E+03  0.75179594782E+03  0.00000000000E+00 0.  1.
         13    1    5    5    0    0  0.15159984773E+03  0.15151847284E+03  0.34139489804E+03  0.40310152301E+03  0.00000000000E+00 0.  1.
        -13    1    5    5    0    0  0.50583924168E+02  0.16110868551E+03  0.23780398980E+03  0.29165986953E+03  0.00000000000E+00 0. -1.
          1    1    6    6  503    0 -0.85116933744E+02 -0.16344866056E+03  0.23864062183E+03  0.30151236033E+03  0.00000000000E+00 0. -1.
         -1    1    6    6    0  503 -0.25137244761E+03 -0.22647350909E+03  0.42979688727E+03  0.54699517552E+03  0.00000000000E+00 0.  1.
<mgrwt>
<rscale>  0 0.22902531E+04</rscale>
<asrwt>0</asrwt>
<pdfrwt beam="1">  1        2 0.21617546E+00 0.22902531E+04</pdfrwt>
<pdfrwt beam="2">  1       -1 0.14357335E+00 0.22902531E+04</pdfrwt>
<totfact> 0.58285080E+00</totfact>
</mgrwt>
</event>
<event>
12    7  0.1909736E-007  0.1981789E+04  0.7818608E-02  0.8615182E-01
         -1   -1    0    0    0  501 -0.00000000000E+00  0.00000000000E+00  0.53488370723E+03  0.53488370723E+03  0.00000000000E+00 0.  1.
          2   -1    0    0  501    0  0.00000000000E+00 -0.00000000000E+00 -0.18356741231E+04  0.18356741231E+04  0.00000000000E+00 0. -1.
         24    2    1    2    0    0  0.18079067943E+03 -0.62794237128E+03  0.12634231287E+01  0.65820114227E+03  0.78931970864E+02 0.  0.
        254    2    1    2    0    0 -0.18079067943E+03  0.62794237128E+03 -0.13020538390E+04  0.17123566881E+04  0.89990240362E+03 0.  0.
         23    2    4    4    0    0 -0.23994270992E+03  0.18609195279E+03 -0.12067846445E+04  0.12477580423E+04  0.91478056620E+02 0.  0.
         23    2    4    4    0    0  0.59152030487E+02  0.44185041849E+03 -0.95269194488E+02  0.46459864580E+03  0.89693518308E+02 0.  0.
          2    1    3    3  502    0  0.51614066246E+02 -0.81227656850E+02 -0.54439121934E+01  0.96392843364E+02  0.00000000000E+00 0. -1.
         -1    1    3    3    0  502  0.12917661319E+03 -0.54671471443E+03  0.67073353221E+01  0.56180829891E+03  0.00000000000E+00 0.  1.
         13    1    5    5    0    0 -0.90040515042E+01  0.33495679081E+02 -0.75242582237E+02  0.82852155327E+02  0.00000000000E+00 0.  1.
        -13    1    5    5    0    0 -0.23093865841E+03  0.15259627371E+03 -0.11315420623E+04  0.11649058869E+04  0.00000000000E+00 0. -1.
          4    1    6    6  503    0  0.82731082330E+02  0.34916082299E+03 -0.68833337287E+02  0.36537068932E+03  0.00000000000E+00 0. -1.
         -4    1    6    6    0  503 -0.23579051843E+02  0.92689595503E+02 -0.26435857201E+02  0.99227956475E+02  0.00000000000E+00 0.  1.
<mgrwt>
<rscale>  0 0.19817893E+04</rscale>
<asrwt>0</asrwt>
<pdfrwt beam="1">  1        2 0.28241141E+00 0.19817893E+04</pdfrwt>
<pdfrwt beam="2">  1       -1 0.82289800E-01 0.19817893E+04</pdfrwt>
<totfact> 0.12825772E+01</totfact>
</mgrwt>
</event>
<event>
12    7  0.1909736E-007  0.1320315E+04  0.7818608E-02  0.9013609E-01
          2   -1    0    0  501    0  0.00000000000E+00  0.00000000000E+00  0.19403120902E+04  0.19403120902E+04  0.00000000000E+00 0. -1.
         -1   -1    0    0    0  501 -0.00000000000E+00 -0.00000000000E+00 -0.22460708937E+03  0.22460708937E+03  0.00000000000E+00 0.  1.
         24    2    1    2    0    0  0.34128068852E+02  0.18797467395E+03  0.93609630588E+03  0.95878498872E+03  0.80580131378E+02 0.  0.
        254    2    1    2    0    0 -0.34128068852E+02 -0.18797467395E+03  0.77960869496E+03  0.12061341909E+04  0.90026149868E+03 0.  0.
         23    2    4    4    0    0 -0.29482673244E+03  0.24738255066E+03  0.25294868927E+03  0.46912436839E+03  0.89295605040E+02 0.  0.
         23    2    4    4    0    0  0.26069866359E+03 -0.43535722460E+03  0.52666000568E+03  0.73700982248E+03  0.91175713001E+02 0.  0.
          4    1    3    3  502    0  0.19523245994E+02  0.13260345669E+03  0.45614140789E+03  0.47542593309E+03  0.00000000000E+00 0. -1.
         -3    1    3    3    0  502  0.14604822858E+02  0.55371217254E+02  0.47995489799E+03  0.48335905563E+03  0.00000000000E+00 0.  1.
         13    1    5    5    0    0 -0.18364098260E+03  0.18416987673E+03  0.12628792444E+03  0.28912141713E+03  0.00000000000E+00 0. -1.
        -13    1    5    5    0    0 -0.11118574984E+03  0.63212673929E+02  0.12666076484E+03  0.18000295126E+03  0.00000000000E+00 0.  1.
          2    1    6    6  503    0  0.21538461704E+03 -0.41111092753E+03  0.47753574138E+03  0.66591524407E+03  0.00000000000E+00 0. -1.
         -2    1    6    6    0  503  0.45314046546E+02 -0.24246297073E+02  0.49124264302E+02  0.71094578411E+02  0.00000000000E+00 0.  1.
<mgrwt>
<rscale>  0 0.13203149E+04</rscale>
<asrwt>0</asrwt>
<pdfrwt beam="1">  1        2 0.29850954E+00 0.13203149E+04</pdfrwt>
<pdfrwt beam="2">  1       -1 0.34554938E-01 0.13203149E+04</pdfrwt>
<totfact> 0.63884394E+01</totfact>
</mgrwt>
</event>
<event>
12    7  0.1909736E-007  0.2478637E+04  0.7818608E-02  0.8410636E-01
         -1   -1    0    0    0  501 -0.00000000000E+00  0.00000000000E+00  0.13153614970E+04  0.13153614970E+04  0.00000000000E+00 0.  1.
          2   -1    0    0  501    0  0.00000000000E+00 -0.00000000000E+00 -0.11676713669E+04  0.11676713669E+04  0.00000000000E+00 0. -1.
         24    2    1    2    0    0  0.13331138662E+03  0.10105400142E+04  0.40021817649E+03  0.10979623210E+04  0.79897580978E+02 0.  0.
        254    2    1    2    0    0 -0.13331138662E+03 -0.10105400142E+04 -0.25252804630E+03  0.13850705429E+04  0.90315388982E+03 0.  0.
         23    2    4    4    0    0 -0.10632743223E+03  0.53059983070E+02  0.17829706710E+03  0.23357240295E+03  0.92980313150E+02 0.  0.
         23    2    4    4    0    0 -0.26983954394E+02 -0.10635999972E+04 -0.43082511340E+03  0.11514981400E+04  0.91458187854E+02 0.  0.
          2    1    3    3  502    0  0.37233156836E+02  0.45054129716E+03  0.21290007628E+03  0.49970012097E+03  0.00000000000E+00 0. -1.
         -1    1    3    3    0  502  0.96078229788E+02  0.55999871701E+03  0.18731810021E+03  0.59826220000E+03  0.00000000000E+00 0.  1.
         13    1    5    5    0    0 -0.52522604257E+02 -0.13460727113E+02  0.28975441871E+02  0.61476754664E+02  0.00000000000E+00 0.  1.
        -13    1    5    5    0    0 -0.53804827973E+02  0.66520710183E+02  0.14932162523E+03  0.17209564829E+03  0.00000000000E+00 0. -1.
          4    1    6    6  503    0 -0.59264766245E+02 -0.59463817487E+03 -0.22978756948E+03  0.64024151585E+03  0.00000000000E+00 0. -1.
         -4    1    6    6    0  503  0.32280811851E+02 -0.46896182236E+03 -0.20103754393E+03  0.51125662413E+03  0.00000000000E+00 0.  1.
<mgrwt>
<rscale>  0 0.24786367E+04</rscale>
<asrwt>0</asrwt>
<pdfrwt beam="1">  1        2 0.17964175E+00 0.24786367E+04</pdfrwt>
<pdfrwt beam="2">  1       -1 0.20236331E+00 0.24786367E+04</pdfrwt>
<totfact> 0.29241187E+00</totfact>
</mgrwt>
</event>
<event>
12    7  0.2206138E-007  0.2172291E+04  0.7818608E-02  0.8530051E-01
          2   -1    0    0  501    0  0.00000000000E+00  0.00000000000E+00  0.19960638341E+04  0.19960638341E+04  0.00000000000E+00 0. -1.
         -1   -1    0    0    0  501 -0.00000000000E+00 -0.00000000000E+00 -0.59101917351E+03  0.59101917351E+03  0.00000000000E+00 0.  1.
         24    2    1    2    0    0 -0.17057033406E+03  0.60273888594E+03  0.13226542987E+04  0.14662041837E+04  0.89173488956E+02 0.  0.
        254    2    1    2    0    0  0.17057033406E+03 -0.60273888594E+03  0.82390361911E+02  0.11208788239E+04  0.92584705139E+03 0.  0.
         23    2    4    4    0    0  0.12075075546E+03 -0.82487713679E+03 -0.53007228446E+02  0.84017630665E+03  0.89907865321E+02 0.  0.
         23    2    4    4    0    0  0.49819578599E+02  0.22213825084E+03  0.13539759036E+03  0.28070251722E+03  0.92919334895E+02 0.  0.
          4    1    3    3  502    0 -0.14251159381E+03  0.55193947774E+03  0.11404245664E+04  0.12749568358E+04  0.00000000000E+00 0. -1.
         -3    1    3    3    0  502 -0.28058740255E+02  0.50799408205E+02  0.18222973223E+03  0.19124734792E+03  0.00000000000E+00 0.  1.
         13    1    5    5    0    0  0.10170458669E+03 -0.77047099589E+03 -0.69399693154E+02  0.78024720177E+03  0.00000000000E+00 0.  1.
        -13    1    5    5    0    0  0.19046168771E+02 -0.54406140901E+02  0.16392464709E+02  0.59929104881E+02  0.00000000000E+00 0. -1.
          2    1    6    6  503    0  0.93088178065E+00  0.55048215721E+00 -0.10743617201E+02  0.10797911004E+02  0.00000000000E+00 0. -1.
         -2    1    6    6    0  503  0.48888696818E+02  0.22158776869E+03  0.14614120756E+03  0.26990460621E+03  0.00000000000E+00 0.  1.
<mgrwt>
<rscale>  0 0.21722910E+04</rscale>
<asrwt>0</asrwt>
<pdfrwt beam="1">  1        2 0.30708674E+00 0.21722910E+04</pdfrwt>
<pdfrwt beam="2">  1       -1 0.90926028E-01 0.21722910E+04</pdfrwt>
<totfact> 0.82685180E+00</totfact>
</mgrwt>
</event>
<event>
12    7  0.1909736E-007  0.1662723E+04  0.7818608E-02  0.8782915E-01
          2   -1    0    0  501    0  0.00000000000E+00  0.00000000000E+00  0.16426979026E+04  0.16426979026E+04  0.00000000000E+00 0. -1.
         -1   -1    0    0    0  501 -0.00000000000E+00 -0.00000000000E+00 -0.42074796085E+03  0.42074796085E+03  0.00000000000E+00 0.  1.
         24    2    1    2    0    0  0.45337393633E+03  0.23597137626E+03  0.79352306609E+03  0.94745593332E+03  0.82240334487E+02 0.  0.
        254    2    1    2    0    0 -0.45337393633E+03 -0.23597137626E+03  0.42842687570E+03  0.11159899302E+04  0.89479244512E+03 0.  0.
         23    2    4    4    0    0  0.16509997050E+03 -0.13943640186E+03 -0.13389348525E+03  0.26960911980E+03  0.89783638073E+02 0.  0.
         23    2    4    4    0    0 -0.61847390682E+03 -0.96534974399E+02  0.56232036095E+03  0.84638081036E+03  0.91254112849E+02 0.  0.
          4    1    3    3  502    0  0.32344557891E+03  0.17707169000E+03  0.50174321741E+03  0.62266980185E+03  0.00000000000E+00 0. -1.
         -3    1    3    3    0  502  0.12992835742E+03  0.58899686257E+02  0.29177984868E+03  0.32478613148E+03  0.00000000000E+00 0.  1.
         13    1    5    5    0    0  0.15755722021E+03 -0.13662672205E+03 -0.93718456727E+02  0.22863571014E+03  0.00000000000E+00 0.  1.
        -13    1    5    5    0    0  0.75427502874E+01 -0.28096798049E+01 -0.40175028523E+02  0.40973409662E+02  0.00000000000E+00 0. -1.
          2    1    6    6  503    0 -0.31120973577E+03 -0.59366416852E+02  0.34373432021E+03  0.46747101940E+03  0.00000000000E+00 0. -1.
         -2    1    6    6    0  503 -0.30726417105E+03 -0.37168557547E+02  0.21858604074E+03  0.37890979096E+03  0.00000000000E+00 0.  1.
<mgrwt>
<rscale>  0 0.16627228E+04</rscale>
<asrwt>0</asrwt>
<pdfrwt beam="1">  1        2 0.25272275E+00 0.16627228E+04</pdfrwt>
<pdfrwt beam="2">  1       -1 0.64730456E-01 0.16627228E+04</pdfrwt>
<totfact> 0.27769800E+01</totfact>
</mgrwt>
</event>
<event>
12    7  0.1909736E-007  0.1982910E+04  0.7818608E-02  0.8614653E-01
         -1   -1    0    0    0  501 -0.00000000000E+00  0.00000000000E+00  0.71255341947E+03  0.71255341947E+03  0.00000000000E+00 0.  1.
          2   -1    0    0  501    0  0.00000000000E+00 -0.00000000000E+00 -0.13795223963E+04  0.13795223963E+04  0.00000000000E+00 0. -1.
         24    2    1    2    0    0 -0.61624347180E+03 -0.33887770533E+03  0.10183552349E+03  0.71517912859E+03  0.80725438500E+02 0.  0.
        254    2    1    2    0    0  0.61624347180E+03  0.33887770533E+03 -0.76880450036E+03  0.13768966872E+04  0.90010555592E+03 0.  0.
         23    2    4    4    0    0 -0.14185947871E+03  0.90519853161E+02 -0.49213731224E+03  0.52754326357E+03  0.88231543834E+02 0.  0.
         23    2    4    4    0    0  0.75810295051E+03  0.24835785217E+03 -0.27666718812E+03  0.84935342365E+03  0.91949980809E+02 0.  0.
          2    1    3    3  502    0 -0.85663864351E+02 -0.62987125084E+02  0.41428482804E+02  0.11411395519E+03  0.00000000000E+00 0. -1.
         -1    1    3    3    0  502 -0.53057960744E+03 -0.27589058025E+03  0.60407040684E+02  0.60106517340E+03  0.00000000000E+00 0.  1.
         13    1    5    5    0    0  0.11716270175E+02  0.13450065724E+01 -0.42509636174E+02  0.44115181028E+02  0.00000000000E+00 0. -1.
        -13    1    5    5    0    0 -0.15357574889E+03  0.89174846589E+02 -0.44962767607E+03  0.48342808255E+03  0.00000000000E+00 0.  1.
          3    1    6    6  503    0  0.50995181536E+03  0.20617712863E+03 -0.21176558007E+03  0.58941031825E+03  0.00000000000E+00 0.  1.
         -3    1    6    6    0  503  0.24815113515E+03  0.42180723537E+02 -0.64901608053E+02  0.25994310539E+03  0.00000000000E+00 0. -1.
<mgrwt>
<rscale>  0 0.19829104E+04</rscale>
<asrwt>0</asrwt>
<pdfrwt beam="1">  1        2 0.21223421E+00 0.19829104E+04</pdfrwt>
<pdfrwt beam="2">  1       -1 0.10962360E+00 0.19829104E+04</pdfrwt>
<totfact> 0.12129501E+01</totfact>
</mgrwt>
</event>
<event>
12    7  0.1909736E-007  0.2167264E+04  0.7818608E-02  0.8532179E-01
          2   -1    0    0  501    0  0.00000000000E+00  0.00000000000E+00  0.51196650237E+03  0.51196650237E+03  0.00000000000E+00 0. -1.
         -1   -1    0    0    0  501 -0.00000000000E+00 -0.00000000000E+00 -0.22936224368E+04  0.22936224368E+04  0.00000000000E+00 0.  1.
         24    2    1    2    0    0  0.18024853878E+03 -0.84943414752E+03 -0.10558842037E+04  0.13694034069E+04  0.79663872857E+02 0.  0.
        254    2    1    2    0    0 -0.18024853878E+03  0.84943414752E+03 -0.72577173073E+03  0.14361855322E+04  0.88422642525E+03 0.  0.
         23    2    4    4    0    0 -0.51485480773E+03  0.37677547962E+03 -0.46792226767E+03  0.79594290475E+03  0.86825249527E+02 0.  0.
         23    2    4    4    0    0  0.33460626895E+03  0.47265866790E+03 -0.25784946306E+03  0.64024262746E+03  0.89759149140E+02 0.  0.
          4    1    3    3  502    0  0.16152096934E+02 -0.37989262690E+02 -0.77103912907E+02  0.87459062999E+02  0.00000000000E+00 0. -1.
         -3    1    3    3    0  502  0.16409644184E+03 -0.81144488483E+03 -0.97878029077E+03  0.12819443439E+04  0.00000000000E+00 0.  1.
         13    1    5    5    0    0 -0.16379204171E+03  0.14332711725E+03 -0.11519703052E+03  0.24625363207E+03  0.00000000000E+00 0. -1.
        -13    1    5    5    0    0 -0.35106276602E+03  0.23344836238E+03 -0.35272523714E+03  0.54968927268E+03  0.00000000000E+00 0.  1.
          4    1    6    6  503    0  0.11959825303E+03  0.18203799117E+03 -0.14448233360E+03  0.26137466801E+03  0.00000000000E+00 0. -1.
         -4    1    6    6    0  503  0.21500801592E+03  0.29062067673E+03 -0.11336712946E+03  0.37886795945E+03  0.00000000000E+00 0.  1.
<mgrwt>
<rscale>  0 0.21672636E+04</rscale>
<asrwt>0</asrwt>
<pdfrwt beam="1">  1        2 0.78764075E-01 0.21672636E+04</pdfrwt>
<pdfrwt beam="2">  1       -1 0.35286500E+00 0.21672636E+04</pdfrwt>
<totfact> 0.93335361E-01</totfact>
</mgrwt>
</event>
<event>
12    7  0.1909736E-007  0.1113566E+04  0.7818608E-02  0.9192069E-01
         -1   -1    0    0    0  501 -0.00000000000E+00  0.00000000000E+00  0.10619294732E+03  0.10619294732E+03  0.00000000000E+00 0.  1.
          2   -1    0    0  501    0  0.00000000000E+00 -0.00000000000E+00 -0.29192842805E+04  0.29192842805E+04  0.00000000000E+00 0. -1.
         24    2    1    2    0    0 -0.90896838041E+02  0.15373194417E+03 -0.57302169945E+03  0.60473283131E+03  0.73838901735E+02 0.  0.
        254    2    1    2    0    0  0.90896838041E+02 -0.15373194417E+03 -0.22400696337E+04  0.24207443965E+04  0.90010872865E+03 0.  0.
         23    2    4    4    0    0  0.38998966177E+03 -0.36429174534E+03 -0.12988587259E+04  0.14072038739E+04  0.91587885817E+02 0.  0.
         23    2    4    4    0    0 -0.29909282373E+03  0.21055980118E+03 -0.94121090782E+03  0.10135405226E+04  0.87146261373E+02 0.  0.
          4    1    3    3  502    0 -0.47127236380E+02  0.46248166551E+02 -0.31450080947E+03  0.32135747770E+03  0.00000000000E+00 0. -1.
         -1    1    3    3    0  502 -0.43769601660E+02  0.10748377762E+03 -0.25852088998E+03  0.28337535361E+03  0.00000000000E+00 0.  1.
         13    1    5    5    0    0  0.20878909985E+03 -0.25583560283E+03 -0.78104858104E+03  0.84798680994E+03  0.00000000000E+00 0. -1.
        -13    1    5    5    0    0  0.18120056192E+03 -0.10845614252E+03 -0.51781014486E+03  0.55921706395E+03  0.00000000000E+00 0.  1.
          2    1    6    6  503    0 -0.27731943761E+03  0.21812094467E+03 -0.87644727191E+03  0.94479767009E+03  0.00000000000E+00 0. -1.
         -2    1    6    6    0  503 -0.21773386124E+02 -0.75611434897E+01 -0.64763635911E+02  0.68742852506E+02  0.00000000000E+00 0.  1.
<mgrwt>
<rscale>  0 0.11135662E+04</rscale>
<asrwt>0</asrwt>
<pdfrwt beam="1">  1        2 0.44912061E+00 0.11135662E+04</pdfrwt>
<pdfrwt beam="2">  1       -1 0.16337378E-01 0.11135662E+04</pdfrwt>
<totfact> 0.64241027E+01</totfact>
</mgrwt>
</event>
<event>
12    7  0.3142746E-007  0.1739541E+04  0.7818608E-02  0.8739128E-01
         -1   -1    0    0    0  501 -0.00000000000E+00  0.00000000000E+00  0.39186654412E+03  0.39186654412E+03  0.00000000000E+00 0.  1.
          2   -1    0    0  501    0  0.00000000000E+00 -0.00000000000E+00 -0.19305068737E+04  0.19305068737E+04  0.00000000000E+00 0. -1.
         24    2    1    2    0    0 -0.50472949615E+03  0.37573488023E+03 -0.46770583588E+03  0.78813748527E+03  0.80519452742E+02 0.  0.
        254    2    1    2    0    0  0.50472949615E+03 -0.37573488023E+03 -0.10709344937E+04  0.15342359326E+04  0.90058350111E+03 0.  0.
         23    2    4    4    0    0  0.33244841001E+03 -0.51478460370E+03 -0.23326773246E+03  0.66282095974E+03  0.96915716728E+02 0.  0.
         23    2    4    4    0    0  0.17228108614E+03  0.13904972347E+03 -0.83766676127E+03  0.87141497284E+03  0.93074452542E+02 0.  0.
          2    1    3    3  502    0 -0.19768435503E+03  0.15558731903E+03 -0.13938554823E+03  0.28760189346E+03  0.00000000000E+00 0. -1.
         -1    1    3    3    0  502 -0.30704514111E+03  0.22014756120E+03 -0.32832028765E+03  0.50053559181E+03  0.00000000000E+00 0.  1.
         13    1    5    5    0    0  0.33721633650E+03 -0.48778752785E+03 -0.22280031750E+03  0.63347573861E+03  0.00000000000E+00 0.  1.
        -13    1    5    5    0    0 -0.47679264954E+01 -0.26997075853E+02 -0.10467414962E+02  0.29345221139E+02  0.00000000000E+00 0. -1.
          4    1    6    6  503    0  0.56684071248E+02  0.19234017694E+02 -0.11306503149E+03  0.12793253189E+03  0.00000000000E+00 0. -1.
         -4    1    6    6    0  503  0.11559701489E+03  0.11981570578E+03 -0.72460172978E+03  0.74348244095E+03  0.00000000000E+00 0.  1.
<mgrwt>
<rscale>  0 0.17395414E+04</rscale>
<asrwt>0</asrwt>
<pdfrwt beam="1">  1        2 0.29700105E+00 0.17395414E+04</pdfrwt>
<pdfrwt beam="2">  1       -1 0.60287162E-01 0.17395414E+04</pdfrwt>
<totfact> 0.22013491E+01</totfact>
</mgrwt>
</event>
<event>
12    7  0.1909736E-007  0.2293955E+04  0.7818608E-02  0.8480308E-01
          2   -1    0    0  501    0  0.00000000000E+00  0.00000000000E+00  0.14075823566E+04  0.14075823566E+04  0.00000000000E+00 0. -1.
         -1   -1    0    0    0  501 -0.00000000000E+00 -0.00000000000E+00 -0.93462214672E+03  0.93462214672E+03  0.00000000000E+00 0.  1.
         24    2    1    2    0    0 -0.34477555663E+03  0.62133406975E+03 -0.46452716431E+03  0.85340497199E+03  0.87111131005E+02 0.  0.
        254    2    1    2    0    0  0.34477555663E+03 -0.62133406975E+03  0.93748737420E+03  0.14887995314E+04  0.91253233208E+03 0.  0.
         23    2    4    4    0    0 -0.15945797886E+03  0.14583759108E+03  0.17950549599E+03  0.29490279757E+03  0.89721719375E+02 0.  0.
         23    2    4    4    0    0  0.50423353549E+03 -0.76717166083E+03  0.75798187820E+03  0.11938967338E+04  0.89716596914E+02 0.  0.
          4    1    3    3  502    0 -0.11435836244E+03  0.15242498403E+03 -0.15891045558E+03  0.24812042178E+03  0.00000000000E+00 0. -1.
         -3    1    3    3    0  502 -0.23041719419E+03  0.46890908573E+03 -0.30561670873E+03  0.60528455020E+03  0.00000000000E+00 0.  1.
         13    1    5    5    0    0 -0.70764561924E+02  0.25370008490E+02  0.10115688614E+03  0.12603164749E+03  0.00000000000E+00 0.  1.
        -13    1    5    5    0    0 -0.88693416934E+02  0.12046758259E+03  0.78348609848E+02  0.16887115008E+03  0.00000000000E+00 0. -1.
          3    1    6    6  503    0  0.32512040907E+03 -0.56866157321E+03  0.53975990256E+03  0.84877559911E+03  0.00000000000E+00 0. -1.
         -3    1    6    6    0  503  0.17911312641E+03 -0.19851008762E+03  0.21822197565E+03  0.34512113467E+03  0.00000000000E+00 0.  1.
<mgrwt>
<rscale>  0 0.22939552E+04</rscale>
<asrwt>0</asrwt>
<pdfrwt beam="1">  1        2 0.21655113E+00 0.22939552E+04</pdfrwt>
<pdfrwt beam="2">  1       -1 0.14378802E+00 0.22939552E+04</pdfrwt>
<totfact> 0.57850334E+00</totfact>
</mgrwt>
</event>
<event>
12    7  0.1909736E-007  0.2896426E+04  0.7818608E-02  0.8273942E-01
         -1   -1    0    0    0  501 -0.00000000000E+00  0.00000000000E+00  0.14529000073E+04  0.14529000073E+04  0.00000000000E+00 0.  1.
          2   -1    0    0  501    0  0.00000000000E+00 -0.00000000000E+00 -0.14435406246E+04  0.14435406246E+04  0.00000000000E+00 0. -1.
         24    2    1    2    0    0  0.10648539488E+04 -0.17443087991E+03 -0.73121076283E+03  0.13060018781E+04  0.81435016361E+02 0.  0.
        254    2    1    2    0    0 -0.10648539488E+04  0.17443087991E+03  0.74057014550E+03  0.15904387537E+04  0.90372076708E+03 0.  0.
         23    2    4    4    0    0 -0.11573896243E+04 -0.32920987606E+02  0.59264443374E+03  0.13040655853E+04  0.93408200289E+02 0.  0.
         23    2    4    4    0    0  0.92535675516E+02  0.20735186751E+03  0.14792571176E+03  0.28637316849E+03  0.92573901449E+02 0.  0.
          4    1    3    3  502    0  0.10623972468E+04 -0.17855034582E+03 -0.72740914626E+03  0.12998816108E+04  0.00000000000E+00 0. -1.
         -3    1    3    3    0  502  0.24567020439E+01  0.41194659163E+01 -0.38016165714E+01  0.61202673899E+01  0.00000000000E+00 0.  1.
         13    1    5    5    0    0 -0.18905056055E+03  0.20119217193E+02  0.71503604091E+02  0.20311982361E+03  0.00000000000E+00 0. -1.
        -13    1    5    5    0    0 -0.96833906377E+03 -0.53040204799E+02  0.52114082965E+03  0.11009457616E+04  0.00000000000E+00 0.  1.
          3    1    6    6  503    0  0.13464302519E+02  0.12632526455E+03  0.49458831889E+02  0.13632877891E+03  0.00000000000E+00 0.  1.
         -3    1    6    6    0  503  0.79071372997E+02  0.81026602959E+02  0.98466879867E+02  0.15004438958E+03  0.00000000000E+00 0. -1.
<mgrwt>
<rscale>  0 0.28964255E+04</rscale>
<asrwt>0</asrwt>
<pdfrwt beam="1">  1        2 0.22208317E+00 0.28964255E+04</pdfrwt>
<pdfrwt beam="2">  1       -1 0.22352308E+00 0.28964255E+04</pdfrwt>
<totfact> 0.14004785E+00</totfact>
</mgrwt>
</event>
<event>
12    7  0.1909736E-007  0.2089501E+04  0.7818608E-02  0.8565882E-01
         -3   -1    0    0    0  501 -0.00000000000E+00  0.00000000000E+00  0.43149801011E+03  0.43149801011E+03  0.00000000000E+00 0.  1.
          2   -1    0    0  501    0  0.00000000000E+00 -0.00000000000E+00 -0.25295692298E+04  0.25295692298E+04  0.00000000000E+00 0. -1.
         24    2    1    2    0    0 -0.73399343963E+01  0.77887657824E+03 -0.34085350457E+03  0.85401044362E+03  0.80312685560E+02 0.  0.
        254    2    1    2    0    0  0.73399343963E+01 -0.77887657824E+03 -0.17572177151E+04  0.21070567963E+04  0.86323325102E+03 0.  0.
         23    2    4    4    0    0 -0.36291780730E+03 -0.26143819931E+03 -0.10840191642E+04  0.11761675547E+04  0.90627266774E+02 0.  0.
         23    2    4    4    0    0  0.37025774170E+03 -0.51743837893E+03 -0.67319855093E+03  0.93088924158E+03  0.92332117084E+02 0.  0.
          2    1    3    3  502    0 -0.40492567560E+02  0.26317235253E+03 -0.11485435004E+03  0.28998423559E+03  0.00000000000E+00 0. -1.
         -1    1    3    3    0  502  0.33152633164E+02  0.51570422571E+03 -0.22599915453E+03  0.56402620803E+03  0.00000000000E+00 0.  1.
         13    1    5    5    0    0 -0.35529487550E+03 -0.23243772363E+03 -0.98248854287E+03  0.10703015840E+04  0.00000000000E+00 0.  1.
        -13    1    5    5    0    0 -0.76229318053E+01 -0.29000475688E+02 -0.10153062130E+03  0.10586597065E+03  0.00000000000E+00 0. -1.
          1    1    6    6  503    0  0.14972063433E+03 -0.13582124854E+03 -0.21535515139E+03  0.29536675699E+03  0.00000000000E+00 0. -1.
         -1    1    6    6    0  503  0.22053710737E+03 -0.38161713039E+03 -0.45784339954E+03  0.63552248460E+03  0.00000000000E+00 0.  1.
<mgrwt>
<rscale>  0 0.20895015E+04</rscale>
<asrwt>0</asrwt>
<pdfrwt beam="1">  1        2 0.38916449E+00 0.20895015E+04</pdfrwt>
<pdfrwt beam="2">  1       -3 0.66384310E-01 0.20895015E+04</pdfrwt>
<totfact> 0.43385432E+00</totfact>
</mgrwt>
</event>
<event>
12    7  0.1909736E-007  0.1283042E+04  0.7818608E-02  0.9043122E-01
          2   -1    0    0  501    0  0.00000000000E+00  0.00000000000E+00  0.13248278859E+04  0.13248278859E+04  0.00000000000E+00 0. -1.
         -1   -1    0    0    0  501 -0.00000000000E+00 -0.00000000000E+00 -0.31064347142E+03  0.31064347142E+03  0.00000000000E+00 0.  1.
         24    2    1    2    0    0  0.26149271214E+03 -0.10231680674E+03  0.76889343505E+02  0.30191859896E+03  0.79973131789E+02 0.  0.
        254    2    1    2    0    0 -0.26149271214E+03  0.10231680674E+03  0.93729507094E+03  0.13335527583E+04  0.90608704977E+03 0.  0.
         23    2    4    4    0    0 -0.26511469271E+03  0.15802811620E+03 -0.62790008576E+02  0.32787592847E+03  0.91111763760E+02 0.  0.
         23    2    4    4    0    0  0.36219805658E+01 -0.55711309465E+02  0.10000850795E+04  0.10056768298E+04  0.89993616816E+02 0.  0.
          4    1    3    3  502    0  0.15278317102E+03 -0.78547915681E+02  0.99962995865E+01  0.17208253371E+03  0.00000000000E+00 0. -1.
         -3    1    3    3    0  502  0.10870954113E+03 -0.23768891058E+02  0.66893043919E+02  0.12983606525E+03  0.00000000000E+00 0.  1.
         13    1    5    5    0    0 -0.11498977306E+03  0.18513054410E+02 -0.14985013154E+02  0.11743053995E+03  0.00000000000E+00 0.  1.
        -13    1    5    5    0    0 -0.15012491964E+03  0.13951506179E+03 -0.47804995422E+02  0.21044538853E+03  0.00000000000E+00 0. -1.
          1    1    6    6  503    0 -0.35446334430E+02 -0.34221760729E+02  0.75231418538E+03  0.75392586178E+03  0.00000000000E+00 0. -1.
         -1    1    6    6    0  503  0.39068314996E+02 -0.21489548736E+02  0.24777089414E+03  0.25175096807E+03  0.00000000000E+00 0.  1.
<mgrwt>
<rscale>  0 0.12830419E+04</rscale>
<asrwt>0</asrwt>
<pdfrwt beam="1">  1        2 0.20381967E+00 0.12830419E+04</pdfrwt>
<pdfrwt beam="2">  1       -1 0.47791304E-01 0.12830419E+04</pdfrwt>
<totfact> 0.78192994E+01</totfact>
</mgrwt>
</event>
<event>
12    7  0.1909736E-007  0.1408751E+04  0.7818608E-02  0.8947509E-01
         -1   -1    0    0    0  501 -0.00000000000E+00  0.00000000000E+00  0.11142529599E+04  0.11142529599E+04  0.00000000000E+00 0.  1.
          2   -1    0    0  501    0  0.00000000000E+00 -0.00000000000E+00 -0.44527116010E+03  0.44527116010E+03  0.00000000000E+00 0. -1.
         24    2    1    2    0    0 -0.24806591926E+03 -0.33246938018E+03  0.15962794856E+03  0.45175765913E+03  0.80816530264E+02 0.  0.
        254    2    1    2    0    0  0.24806591926E+03  0.33246938018E+03  0.50935385127E+03  0.11077664609E+04  0.89198239728E+03 0.  0.
         23    2    4    4    0    0  0.74143814463E+02  0.28612968547E+03  0.73953399860E+03  0.80153929653E+03  0.90483184424E+02 0.  0.
         23    2    4    4    0    0  0.17392210480E+03  0.46339694711E+02 -0.23018014733E+03  0.30622716438E+03  0.91629199155E+02 0.  0.
          4    1    3    3  502    0 -0.13243538027E+03 -0.21496410679E+03  0.13095475931E+03  0.28442546676E+03  0.00000000000E+00 0. -1.
         -3    1    3    3    0  502 -0.11563053899E+03 -0.11750527339E+03  0.28673189255E+02  0.16733219237E+03  0.00000000000E+00 0.  1.
         13    1    5    5    0    0  0.49192676702E+02  0.58917490571E+02  0.24485863739E+03  0.25660659080E+03  0.00000000000E+00 0. -1.
        -13    1    5    5    0    0  0.24951137761E+02  0.22721219490E+03  0.49467536121E+03  0.54493270573E+03  0.00000000000E+00 0.  1.
          1    1    6    6  503    0  0.50037470345E+02 -0.27797189053E+02 -0.73737848561E+02  0.93347214571E+02  0.00000000000E+00 0. -1.
         -1    1    6    6    0  503  0.12388463446E+03  0.74136883763E+02 -0.15644229877E+03  0.21287994981E+03  0.00000000000E+00 0.  1.
<mgrwt>
<rscale>  0 0.14087508E+04</rscale>
<asrwt>0</asrwt>
<pdfrwt beam="1">  1        2 0.68503256E-01 0.14087508E+04</pdfrwt>
<pdfrwt beam="2">  1       -1 0.17142353E+00 0.14087508E+04</pdfrwt>
<totfact> 0.18811813E+01</totfact>
</mgrwt>
</event>
<event>
12    7  0.1909736E-007  0.2384008E+04  0.7818608E-02  0.8445515E-01
         -1   -1    0    0    0  501 -0.00000000000E+00  0.00000000000E+00  0.79237289455E+03  0.79237289455E+03  0.00000000000E+00 0.  1.
          2   -1    0    0  501    0  0.00000000000E+00 -0.00000000000E+00 -0.17931874587E+04  0.17931874587E+04  0.00000000000E+00 0. -1.
         24    2    1    2    0    0 -0.31010336903E+02  0.53661222918E+03  0.51060069016E+03  0.74555067930E+03  0.78856991547E+02 0.  0.
        254    2    1    2    0    0  0.31010336903E+02 -0.53661222918E+03 -0.15114152543E+04  0.18400096739E+04  0.90130194928E+03 0.  0.
         23    2    4    4    0    0 -0.29035685223E+02  0.20196758407E+03 -0.71325373772E+03  0.74737358939E+03  0.90567166861E+02 0.  0.
         23    2    4    4    0    0  0.60046022127E+02 -0.73857981325E+03 -0.79816151657E+03  0.10926360845E+04  0.87670641623E+02 0.  0.
          4    1    3    3  502    0 -0.45705350625E+02  0.16359634553E+03  0.15324532229E+03  0.22877253364E+03  0.00000000000E+00 0. -1.
         -3    1    3    3    0  502  0.14695013722E+02  0.37301588365E+03  0.35735536787E+03  0.51677814566E+03  0.00000000000E+00 0.  1.
         13    1    5    5    0    0  0.51279217612E+01  0.18206864163E+03 -0.54887458979E+03  0.57830666706E+03  0.00000000000E+00 0. -1.
        -13    1    5    5    0    0 -0.34163606985E+02  0.19898942442E+02 -0.16437914792E+03  0.16906692232E+03  0.00000000000E+00 0.  1.
          1    1    6    6  503    0  0.67696401026E+02 -0.72132336363E+03 -0.75961991109E+03  0.10497202518E+04  0.00000000000E+00 0. -1.
         -1    1    6    6    0  503 -0.76503788989E+01 -0.17256449624E+02 -0.38541605478E+02  0.42915832786E+02  0.00000000000E+00 0.  1.
<mgrwt>
<rscale>  0 0.23840077E+04</rscale>
<asrwt>0</asrwt>
<pdfrwt beam="1">  1        2 0.27587499E+00 0.23840077E+04</pdfrwt>
<pdfrwt beam="2">  1       -1 0.12190352E+00 0.23840077E+04</pdfrwt>
<totfact> 0.53135643E+00</totfact>
</mgrwt>
</event>
<event>
12    7  0.1909736E-007  0.1927250E+04  0.7818608E-02  0.8641410E-01
         -1   -1    0    0    0  501 -0.00000000000E+00  0.00000000000E+00  0.50557611261E+03  0.50557611261E+03  0.00000000000E+00 0.  1.
          2   -1    0    0  501    0  0.00000000000E+00 -0.00000000000E+00 -0.18366626075E+04  0.18366626075E+04  0.00000000000E+00 0. -1.
         24    2    1    2    0    0  0.91816620282E+02 -0.71726206999E+03 -0.27287124900E+03  0.77693068169E+03  0.79166892118E+02 0.  0.
        254    2    1    2    0    0 -0.91816620282E+02  0.71726206999E+03 -0.10582152459E+04  0.15653080384E+04  0.89859589344E+03 0.  0.
         23    2    4    4    0    0 -0.30661038257E+02  0.81878875597E+03 -0.45399780517E+03  0.94184656281E+03  0.98009257803E+02 0.  0.
         23    2    4    4    0    0 -0.61155582026E+02 -0.10152668598E+03 -0.60421744076E+03  0.62346147563E+03  0.97866351254E+02 0.  0.
          2    1    3    3  502    0  0.58405981657E+02 -0.18271747195E+03 -0.69262233334E+02  0.20394653764E+03  0.00000000000E+00 0. -1.
         -3    1    3    3    0  502  0.33410638626E+02 -0.53454459804E+03 -0.20360901567E+03  0.57298414405E+03  0.00000000000E+00 0.  1.
         13    1    5    5    0    0 -0.62417855269E+02  0.52628013357E+03 -0.26947416704E+03  0.59454444270E+03  0.00000000000E+00 0.  1.
        -13    1    5    5    0    0  0.31756817013E+02  0.29250862240E+03 -0.18452363813E+03  0.34730212011E+03  0.00000000000E+00 0. -1.
          1    1    6    6  503    0 -0.45983201757E+01 -0.35733012983E+02 -0.45445385383E+02  0.57993756715E+02  0.00000000000E+00 0. -1.
         -1    1    6    6    0  503 -0.56557261850E+02 -0.65793672993E+02 -0.55877205537E+03  0.56546771892E+03  0.00000000000E+00 0.  1.
<mgrwt>
<rscale>  0 0.19272496E+04</rscale>
<asrwt>0</asrwt>
<pdfrwt beam="1">  1        2 0.28256348E+00 0.19272496E+04</pdfrwt>
<pdfrwt beam="2">  1       -1 0.77780941E-01 0.19272496E+04</pdfrwt>
<totfact> 0.14509979E+01</totfact>
</mgrwt>
</event>
<event>
12    7  0.1909736E-007  0.1669531E+04  0.7818608E-02  0.8778935E-01
          2   -1    0    0  501    0  0.00000000000E+00  0.00000000000E+00  0.17202270746E+04  0.17202270746E+04  0.00000000000E+00 0. -1.
         -1   -1    0    0    0  501 -0.00000000000E+00 -0.00000000000E+00 -0.40508213803E+03  0.40508213803E+03  0.00000000000E+00 0.  1.
         24    2    1    2    0    0  0.33509366676E+03 -0.47711444789E+03  0.57898943549E+03  0.82560235086E+03  0.80402198022E+02 0.  0.
        254    2    1    2    0    0 -0.33509366676E+03  0.47711444789E+03  0.73615550112E+03  0.12997068618E+04  0.89854718458E+03 0.  0.
         23    2    4    4    0    0 -0.63172443764E+03  0.34870504429E+03  0.57347769656E+03  0.92660494527E+03  0.95126668858E+02 0.  0.
         23    2    4    4    0    0  0.29663077087E+03  0.12840940360E+03  0.16267780456E+03  0.37310191654E+03  0.90896550363E+02 0.  0.
          2    1    3    3  502    0  0.28208661856E+03 -0.40873785474E+03  0.44933350103E+03  0.66973135615E+03  0.00000000000E+00 0. -1.
         -1    1    3    3    0  502  0.53007048201E+02 -0.68376593155E+02  0.12965593446E+03  0.15587099471E+03  0.00000000000E+00 0.  1.
         13    1    5    5    0    0 -0.27534855805E+01  0.12342734652E+02  0.20524564025E+02  0.24107727183E+02  0.00000000000E+00 0.  1.
        -13    1    5    5    0    0 -0.62897095206E+03  0.33636230963E+03  0.55295313253E+03  0.90249721809E+03  0.00000000000E+00 0. -1.
          1    1    6    6  503    0  0.22019304406E+03  0.54273280550E+02  0.89041762166E+02  0.24363702724E+03  0.00000000000E+00 0. -1.
         -1    1    6    6    0  503  0.76437726816E+02  0.74136123055E+02  0.73636042392E+02  0.12946488930E+03  0.00000000000E+00 0.  1.
<mgrwt>
<rscale>  0 0.16695308E+04</rscale>
<asrwt>0</asrwt>
<pdfrwt beam="1">  1        2 0.26465032E+00 0.16695308E+04</pdfrwt>
<pdfrwt beam="2">  1       -1 0.62320330E-01 0.16695308E+04</pdfrwt>
<totfact> 0.27115009E+01</totfact>
</mgrwt>
</event>
<event>
12    7  0.1909736E-007  0.1361309E+04  0.7818608E-02  0.8982311E-01
          2   -1    0    0  501    0  0.00000000000E+00  0.00000000000E+00  0.13912666754E+04  0.13912666754E+04  0.00000000000E+00 0. -1.
         -1   -1    0    0    0  501 -0.00000000000E+00 -0.00000000000E+00 -0.33299918085E+03  0.33299918085E+03  0.00000000000E+00 0.  1.
         24    2    1    2    0    0  0.71899031017E+02  0.20798268852E+03 -0.92988390593E+02  0.25195757640E+03  0.80059416272E+02 0.  0.
        254    2    1    2    0    0 -0.71899031017E+02 -0.20798268852E+03  0.11512558851E+04  0.14723082798E+04  0.89099679487E+03 0.  0.
         23    2    4    4    0    0  0.23738213792E+01  0.10367905373E+03  0.11285128253E+04  0.11371724304E+04  0.94153908308E+02 0.  0.
         23    2    4    4    0    0 -0.74272852396E+02 -0.31166174225E+03  0.22743059803E+02  0.33513584939E+03  0.95651934591E+02 0.  0.
          4    1    3    3  502    0  0.68135401488E+02  0.82799530737E+02 -0.58056443878E+02  0.12193746718E+03  0.00000000000E+00 0. -1.
         -3    1    3    3    0  502  0.37636295287E+01  0.12518315779E+03 -0.34931946715E+02  0.13002010922E+03  0.00000000000E+00 0.  1.
         13    1    5    5    0    0  0.12758286995E+02  0.57922192912E+01  0.56175984811E+03  0.56193456082E+03  0.00000000000E+00 0.  1.
        -13    1    5    5    0    0 -0.10384465615E+02  0.97886834435E+02  0.56675297721E+03  0.57523786963E+03  0.00000000000E+00 0. -1.
          4    1    6    6  503    0 -0.86531792520E+01 -0.69726431828E+02  0.45058654206E+02  0.83468168336E+02  0.00000000000E+00 0. -1.
         -4    1    6    6    0  503 -0.65619673144E+02 -0.24193531042E+03 -0.22315594403E+02  0.25166768105E+03  0.00000000000E+00 0.  1.
<mgrwt>
<rscale>  0 0.13613092E+04</rscale>
<asrwt>0</asrwt>
<pdfrwt beam="1">  1        2 0.21404102E+00 0.13613092E+04</pdfrwt>
<pdfrwt beam="2">  1       -1 0.51230644E-01 0.13613092E+04</pdfrwt>
<totfact> 0.62378695E+01</totfact>
</mgrwt>
</event>
<event>
12    7  0.1909736E-007  0.1363225E+04  0.7818608E-02  0.8980877E-01
         -1   -1    0    0    0  501 -0.00000000000E+00  0.00000000000E+00  0.16117119199E+03  0.16117119199E+03  0.00000000000E+00 0.  1.
          2   -1    0    0  501    0  0.00000000000E+00 -0.00000000000E+00 -0.28826234255E+04  0.28826234255E+04  0.00000000000E+00 0. -1.
         24    2    1    2    0    0  0.24249970253E+03 -0.27576242474E+03 -0.81965557556E+03  0.90175776129E+03  0.80503272541E+02 0.  0.
        254    2    1    2    0    0 -0.24249970253E+03  0.27576242474E+03 -0.19017966579E+04  0.21420368562E+04  0.91468046031E+03 0.  0.
         23    2    4    4    0    0  0.16549041082E+03  0.16643818894E+03 -0.71689428382E+02  0.26158312357E+03  0.90540651553E+02 0.  0.
         23    2    4    4    0    0 -0.40799011335E+03  0.10932423580E+03 -0.18301072296E+04  0.18804537326E+04  0.91684500858E+02 0.  0.
          4    1    3    3  502    0 -0.44851541850E+01  0.14006762774E+01 -0.10301256606E+02  0.11322296135E+02  0.00000000000E+00 0. -1.
         -3    1    3    3    0  502  0.24698485671E+03 -0.27716310102E+03 -0.80935431895E+03  0.89043546516E+03  0.00000000000E+00 0.  1.
         13    1    5    5    0    0  0.26638714978E+02 -0.68213454246E+01  0.21800361364E+01  0.27584496491E+02  0.00000000000E+00 0. -1.
        -13    1    5    5    0    0  0.13885169584E+03  0.17325953437E+03 -0.73869464518E+02  0.23399862708E+03  0.00000000000E+00 0.  1.
          1    1    6    6  503    0 -0.11864060234E+03  0.63536352471E+02 -0.45492132653E+03  0.47441108117E+03  0.00000000000E+00 0. -1.
         -1    1    6    6    0  503 -0.28934951101E+03  0.45787883328E+02 -0.13751859030E+04  0.14060426514E+04  0.00000000000E+00 0.  1.
<mgrwt>
<rscale>  0 0.13632254E+04</rscale>
<asrwt>0</asrwt>
<pdfrwt beam="1">  1        2 0.44348052E+00 0.13632254E+04</pdfrwt>
<pdfrwt beam="2">  1       -1 0.24795568E-01 0.13632254E+04</pdfrwt>
<totfact> 0.32781660E+01</totfact>
</mgrwt>
</event>
<event>
12    7  0.1909736E-007  0.1583524E+04  0.7818608E-02  0.8830734E-01
          2   -1    0    0  501    0  0.00000000000E+00  0.00000000000E+00  0.85649886264E+03  0.85649886264E+03  0.00000000000E+00 0. -1.
         -1   -1    0    0    0  501 -0.00000000000E+00 -0.00000000000E+00 -0.73191827826E+03  0.73191827826E+03  0.00000000000E+00 0.  1.
         24    2    1    2    0    0 -0.82844650494E+02  0.10654715916E+03  0.54587739126E+03  0.56808151166E+03  0.80739979929E+02 0.  0.
        254    2    1    2    0    0  0.82844650494E+02 -0.10654715916E+03 -0.42129680687E+03  0.10203356292E+04  0.91944454078E+03 0.  0.
         23    2    4    4    0    0  0.35852919082E+03  0.11018628609E+03  0.85406152320E+02  0.39739162817E+03  0.99708058742E+02 0.  0.
         23    2    4    4    0    0 -0.27568454032E+03 -0.21673344525E+03 -0.50670295919E+03  0.62294400107E+03  0.91301629483E+02 0.  0.
          2    1    3    3  502    0 -0.80091032747E+02  0.11124141945E+03  0.41420961025E+03  0.43630130432E+03  0.00000000000E+00 0. -1.
         -1    1    3    3    0  502 -0.27536177476E+01 -0.46942602867E+01  0.13166778101E+03  0.13178020734E+03  0.00000000000E+00 0.  1.
         13    1    5    5    0    0  0.22430098915E+03  0.25971306186E+02  0.77521150034E+02  0.23873619579E+03  0.00000000000E+00 0.  1.
        -13    1    5    5    0    0  0.13422820167E+03  0.84214979905E+02  0.78850022854E+01  0.15865543238E+03  0.00000000000E+00 0. -1.
          1    1    6    6  503    0 -0.23093069216E+03 -0.20845252957E+03 -0.39845791579E+03  0.50551968539E+03  0.00000000000E+00 0. -1.
         -1    1    6    6    0  503 -0.44753848164E+02 -0.82809156840E+01 -0.10824504340E+03  0.11742431567E+03  0.00000000000E+00 0.  1.
<mgrwt>
<rscale>  0 0.15835241E+04</rscale>
<asrwt>0</asrwt>
<pdfrwt beam="1">  1        2 0.13176906E+00 0.15835241E+04</pdfrwt>
<pdfrwt beam="2">  1       -1 0.11260281E+00 0.15835241E+04</pdfrwt>
<totfact> 0.24857087E+01</totfact>
</mgrwt>
</event>
<event>
12    7  0.1909736E-007  0.1449919E+04  0.7818608E-02  0.8918457E-01
         -1   -1    0    0    0  501 -0.00000000000E+00  0.00000000000E+00  0.90451594157E+03  0.90451594157E+03  0.00000000000E+00 0.  1.
          2   -1    0    0  501    0  0.00000000000E+00 -0.00000000000E+00 -0.58104695506E+03  0.58104695506E+03  0.00000000000E+00 0. -1.
         24    2    1    2    0    0  0.85993753560E+02  0.88334850952E+02 -0.33932041569E+03  0.36984227682E+03  0.80293173279E+02 0.  0.
        254    2    1    2    0    0 -0.85993753560E+02 -0.88334850952E+02  0.66278940220E+03  0.11157206198E+04  0.88901335100E+03 0.  0.
         23    2    4    4    0    0 -0.29266855601E+03 -0.19053350290E+03 -0.46991166850E+02  0.36380288102E+03  0.90479097466E+02 0.  0.
         23    2    4    4    0    0  0.20667480245E+03  0.10219865194E+03  0.70978056905E+03  0.75191773879E+03  0.91830230705E+02 0.  0.
          4    1    3    3  502    0  0.59207152003E+02  0.75396084073E+02 -0.32076016191E+03  0.33477923742E+03  0.00000000000E+00 0. -1.
         -3    1    3    3    0  502  0.26786601557E+02  0.12938766879E+02 -0.18560253782E+02  0.35063039398E+02  0.00000000000E+00 0.  1.
         13    1    5    5    0    0 -0.12794522095E+03 -0.34669060076E+02 -0.18205010890E+01  0.13257163164E+03  0.00000000000E+00 0. -1.
        -13    1    5    5    0    0 -0.16472333506E+03 -0.15586444282E+03 -0.45170665761E+02  0.23123124939E+03  0.00000000000E+00 0.  1.
          1    1    6    6  503    0  0.11028017227E+03  0.12557594146E+02  0.40482731370E+03  0.41976727300E+03  0.00000000000E+00 0. -1.
         -1    1    6    6    0  503  0.96394630180E+02  0.89641057797E+02  0.30495325535E+03  0.33215046578E+03  0.00000000000E+00 0.  1.
<mgrwt>
<rscale>  0 0.14499189E+04</rscale>
<asrwt>0</asrwt>
<pdfrwt beam="1">  1        2 0.89391840E-01 0.14499189E+04</pdfrwt>
<pdfrwt beam="2">  1       -1 0.13915630E+00 0.14499189E+04</pdfrwt>
<totfact> 0.24336646E+01</totfact>
</mgrwt>
</event>
<event>
12    7  0.1909736E-007  0.1408861E+04  0.7818608E-02  0.8947429E-01
          2   -1    0    0  501    0  0.00000000000E+00  0.00000000000E+00  0.16655556703E+04  0.16655556703E+04  0.00000000000E+00 0. -1.
         -1   -1    0    0    0  501 -0.00000000000E+00 -0.00000000000E+00 -0.29793215048E+03  0.29793215048E+03  0.00000000000E+00 0.  1.
         24    2    1    2    0    0  0.27321379101E+02  0.68900674107E+02 -0.15777559370E+03  0.19166755180E+03  0.79684074932E+02 0.  0.
        254    2    1    2    0    0 -0.27321379101E+02 -0.68900674107E+02  0.15253991135E+04  0.17718202689E+04  0.89833782584E+03 0.  0.
         23    2    4    4    0    0 -0.36076073253E+02 -0.18283333248E+03 -0.31299230897E+02  0.20835020487E+03  0.87753378763E+02 0.  0.
         23    2    4    4    0    0  0.87546941520E+01  0.11393265838E+03  0.15566983444E+04  0.15634700641E+04  0.89842142218E+02 0.  0.
          2    1    3    3  502    0  0.41245996764E+02  0.71722615760E+02 -0.89313377329E+02  0.12174664361E+03  0.00000000000E+00 0. -1.
         -1    1    3    3    0  502 -0.13924617663E+02 -0.28219416534E+01 -0.68462216374E+02  0.69920908193E+02  0.00000000000E+00 0.  1.
         13    1    5    5    0    0 -0.22895954673E+02 -0.10518947722E+03 -0.61526252815E+02  0.12399407503E+03  0.00000000000E+00 0. -1.
        -13    1    5    5    0    0 -0.13180118580E+02 -0.77643855264E+02  0.30227021918E+02  0.84356129831E+02  0.00000000000E+00 0.  1.
          3    1    6    6  503    0 -0.24854305110E+02  0.62116675396E+02  0.11662209868E+04  0.11681385225E+04  0.00000000000E+00 0. -1.
         -3    1    6    6    0  503  0.33608999262E+02  0.51815982980E+02  0.39047735763E+03  0.39533154155E+03  0.00000000000E+00 0.  1.
<mgrwt>
<rscale>  0 0.14088614E+04</rscale>
<asrwt>0</asrwt>
<pdfrwt beam="1">  1        2 0.25623933E+00 0.14088614E+04</pdfrwt>
<pdfrwt beam="2">  1       -1 0.45835716E-01 0.14088614E+04</pdfrwt>
<totfact> 0.53739759E+01</totfact>
</mgrwt>
</event>
<event>
12    7  0.1909736E-007  0.3195874E+04  0.7818608E-02  0.8189908E-01
          2   -1    0    0  501    0  0.00000000000E+00  0.00000000000E+00  0.35517717657E+04  0.35517717657E+04  0.00000000000E+00 0. -1.
         -1   -1    0    0    0  501 -0.00000000000E+00 -0.00000000000E+00 -0.71890937650E+03  0.71890937650E+03  0.00000000000E+00 0.  1.
         24    2    1    2    0    0  0.91473279620E+03 -0.79773580316E+03  0.20386931698E+03  0.12333231459E+04  0.80029892777E+02 0.  0.
        254    2    1    2    0    0 -0.91473279620E+03  0.79773580316E+03  0.26289930722E+04  0.30373579963E+04  0.91696266216E+03 0.  0.
         23    2    4    4    0    0 -0.25942642085E+03 -0.16099855880E+03  0.31825767476E+03  0.44946502934E+03  0.86650223801E+02 0.  0.
         23    2    4    4    0    0 -0.65530637535E+03  0.95873436196E+03  0.23107353975E+04  0.25878929670E+04  0.95361989065E+02 0.  0.
          4    1    3    3  502    0  0.80289323292E+03 -0.72822200765E+03  0.16844141895E+03  0.10969582251E+04  0.00000000000E+00 0. -1.
         -1    1    3    3    0  502  0.11183956328E+03 -0.69513795513E+02  0.35427898029E+02  0.13636492086E+03  0.00000000000E+00 0.  1.
         13    1    5    5    0    0  0.57091828969E+01 -0.10212296634E+02  0.17941677458E+02  0.21419373518E+02  0.00000000000E+00 0. -1.
        -13    1    5    5    0    0 -0.26513560375E+03 -0.15078626217E+03  0.30031599731E+03  0.42804565583E+03  0.00000000000E+00 0.  1.
          2    1    6    6  503    0 -0.20744790174E+03  0.31596853700E+03  0.65663668199E+03  0.75765591164E+03  0.00000000000E+00 0. -1.
         -2    1    6    6    0  503 -0.44785847361E+03  0.64276582496E+03  0.16540987155E+04  0.18302370553E+04  0.00000000000E+00 0.  1.
<mgrwt>
<rscale>  0 0.31958736E+04</rscale>
<asrwt>0</asrwt>
<pdfrwt beam="1">  1        2 0.54642642E+00 0.31958736E+04</pdfrwt>
<pdfrwt beam="2">  1       -1 0.11060144E+00 0.31958736E+04</pdfrwt>
<totfact> 0.53792443E-01</totfact>
</mgrwt>
</event>
<event>
12    7  0.1909736E-007  0.1822040E+04  0.7818608E-02  0.8694666E-01
         -1   -1    0    0    0  501 -0.00000000000E+00  0.00000000000E+00  0.11117260388E+04  0.11117260388E+04  0.00000000000E+00 0.  1.
          2   -1    0    0  501    0  0.00000000000E+00 -0.00000000000E+00 -0.74654838385E+03  0.74654838385E+03  0.00000000000E+00 0. -1.
         24    2    1    2    0    0  0.21144895307E+03 -0.38335600558E+03  0.66335804908E+03  0.79888414712E+03  0.80619429865E+02 0.  0.
        254    2    1    2    0    0 -0.21144895307E+03  0.38335600558E+03 -0.29818039413E+03  0.10593902755E+04  0.91745502434E+03 0.  0.
         23    2    4    4    0    0 -0.40320416132E+03  0.41875105028E+03 -0.49394981479E+03  0.76814646061E+03  0.90202702824E+02 0.  0.
         23    2    4    4    0    0  0.19175520826E+03 -0.35395044693E+02  0.19576942066E+03  0.29124381493E+03  0.92056637929E+02 0.  0.
          2    1    3    3  502    0  0.10478582172E+03 -0.19044543771E+03  0.40176909242E+03  0.45680185726E+03  0.00000000000E+00 0. -1.
         -1    1    3    3    0  502  0.10666313135E+03 -0.19291056787E+03  0.26158895666E+03  0.34208228985E+03  0.00000000000E+00 0.  1.
         13    1    5    5    0    0 -0.34937857198E+03  0.39884861866E+03 -0.45602391102E+03  0.69935928862E+03  0.00000000000E+00 0. -1.
        -13    1    5    5    0    0 -0.53825589347E+02  0.19902431620E+02 -0.37925903767E+02  0.68787171983E+02  0.00000000000E+00 0.  1.
          2    1    6    6  503    0 -0.95914246067E+01  0.39204211219E+01  0.11608332286E+02  0.15560157654E+02  0.00000000000E+00 0.  1.
         -2    1    6    6    0  503  0.20134663286E+03 -0.39315465815E+02  0.18416108837E+03  0.27568365728E+03  0.00000000000E+00 0. -1.
<mgrwt>
<rscale>  0 0.18220398E+04</rscale>
<asrwt>0</asrwt>
<pdfrwt beam="1">  1        2 0.11485360E+00 0.18220398E+04</pdfrwt>
<pdfrwt beam="2">  1       -1 0.17103478E+00 0.18220398E+04</pdfrwt>
<totfact> 0.98135917E+00</totfact>
</mgrwt>
</event>
<event>
12    7  0.1909736E-007  0.1326688E+04  0.7818608E-02  0.9008665E-01
         -1   -1    0    0    0  501 -0.00000000000E+00  0.00000000000E+00  0.48016348635E+03  0.48016348635E+03  0.00000000000E+00 0.  1.
          2   -1    0    0  501    0  0.00000000000E+00 -0.00000000000E+00 -0.91640694832E+03  0.91640694832E+03  0.00000000000E+00 0. -1.
         24    2    1    2    0    0  0.27821231316E+03 -0.16128008781E+03 -0.24494567020E+03  0.41413996246E+03  0.90000940226E+02 0.  0.
        254    2    1    2    0    0 -0.27821231316E+03  0.16128008781E+03 -0.19129779178E+03  0.98243047220E+03  0.90838396598E+03 0.  0.
         23    2    4    4    0    0  0.10343365131E+03 -0.21421041787E+03 -0.33582496222E+03  0.42048152087E+03  0.86265177203E+02 0.  0.
         23    2    4    4    0    0 -0.38164596448E+03  0.37549050568E+03  0.14452717044E+03  0.56194895133E+03  0.90839192274E+02 0.  0.
          2    1    3    3  502    0  0.10154719074E+03 -0.60071969664E+02 -0.38306259480E+02  0.12404774485E+03  0.00000000000E+00 0. -1.
         -1    1    3    3    0  502  0.17666512242E+03 -0.10120811814E+03 -0.20663941072E+03  0.29009221762E+03  0.00000000000E+00 0.  1.
         13    1    5    5    0    0  0.43170422709E+02 -0.17313703896E+02 -0.73709316515E+02  0.87157977722E+02  0.00000000000E+00 0.  1.
        -13    1    5    5    0    0  0.60263228605E+02 -0.19689671397E+03 -0.26211564570E+03  0.33332354315E+03  0.00000000000E+00 0. -1.
          3    1    6    6  503    0 -0.30677225131E+03  0.25981042170E+03  0.13398980768E+03  0.42374985305E+03  0.00000000000E+00 0. -1.
         -3    1    6    6    0  503 -0.74873713169E+02  0.11568008398E+03  0.10537362763E+02  0.13819909829E+03  0.00000000000E+00 0.  1.
<mgrwt>
<rscale>  0 0.13266878E+04</rscale>
<asrwt>0</asrwt>
<pdfrwt beam="1">  1        2 0.14098568E+00 0.13266878E+04</pdfrwt>
<pdfrwt beam="2">  1       -1 0.73871305E-01 0.13266878E+04</pdfrwt>
<totfact> 0.58912547E+01</totfact>
</mgrwt>
</event>
<event>
12    7  0.1909736E-007  0.1834649E+04  0.7818608E-02  0.8688087E-01
         -1   -1    0    0    0  501 -0.00000000000E+00  0.00000000000E+00  0.17904147577E+03  0.17904147577E+03  0.00000000000E+00 0.  1.
          2   -1    0    0  501    0  0.00000000000E+00 -0.00000000000E+00 -0.46999408490E+04  0.46999408490E+04  0.00000000000E+00 0. -1.
         24    2    1    2    0    0 -0.45477907385E+03  0.52623758610E+03 -0.16022544786E+04  0.17484491260E+04  0.78134043644E+02 0.  0.
        254    2    1    2    0    0  0.45477907385E+03 -0.52623758610E+03 -0.29186448946E+04  0.31305331988E+04  0.89330850497E+03 0.  0.
         23    2    4    4    0    0  0.41738395645E+03 -0.42416661332E+03 -0.76975345014E+03  0.97697045158E+03  0.88454543741E+02 0.  0.
         23    2    4    4    0    0  0.37395117400E+02 -0.10207097278E+03 -0.21488914445E+04  0.21535627472E+04  0.91001032361E+02 0.  0.
          4    1    3    3  502    0 -0.13404635255E+03  0.15122622795E+03 -0.38117262384E+03  0.43142828583E+03  0.00000000000E+00 0. -1.
         -3    1    3    3    0  502 -0.32073272129E+03  0.37501135815E+03 -0.12210818548E+04  0.13170208401E+04  0.00000000000E+00 0.  1.
         13    1    5    5    0    0  0.46680235411E+02 -0.82836896345E+02 -0.91023031061E+02  0.13162897841E+03  0.00000000000E+00 0.  1.
        -13    1    5    5    0    0  0.37070372103E+03 -0.34132971698E+03 -0.67873041908E+03  0.84534147317E+03  0.00000000000E+00 0. -1.
          1    1    6    6  503    0  0.42441921106E+02 -0.82616252682E+02 -0.20722279454E+04  0.20743084196E+04  0.00000000000E+00 0. -1.
         -1    1    6    6    0  503 -0.50468037057E+01 -0.19454720095E+02 -0.76663499018E+02  0.79254327600E+02  0.00000000000E+00 0.  1.
<mgrwt>
<rscale>  0 0.18346491E+04</rscale>
<asrwt>0</asrwt>
<pdfrwt beam="1">  1        2 0.72306772E+00 0.18346491E+04</pdfrwt>
<pdfrwt beam="2">  1       -1 0.27544846E-01 0.18346491E+04</pdfrwt>
<totfact> 0.99939986E-01</totfact>
</mgrwt>
</event>
<event>
12    7  0.1909736E-007  0.1751516E+04  0.7818608E-02  0.8732516E-01
         -1   -1    0    0    0  501 -0.00000000000E+00  0.00000000000E+00  0.23656985173E+03  0.23656985173E+03  0.00000000000E+00 0.  1.
          2   -1    0    0  501    0  0.00000000000E+00 -0.00000000000E+00 -0.32419690468E+04  0.32419690468E+04  0.00000000000E+00 0. -1.
         24    2    1    2    0    0  0.55119195450E+03 -0.31618385263E+03 -0.12549044924E+04  0.14088488012E+04  0.79277110652E+02 0.  0.
        254    2    1    2    0    0 -0.55119195450E+03  0.31618385263E+03 -0.17504947027E+04  0.20696900973E+04  0.90310608207E+03 0.  0.
         23    2    4    4    0    0  0.22246241704E+03  0.20789868663E+03 -0.47272797357E+03  0.56964630153E+03  0.91179937203E+02 0.  0.
         23    2    4    4    0    0 -0.77365437155E+03  0.10828516600E+03 -0.12777667291E+04  0.15000437958E+04  0.84716063956E+02 0.  0.
          4    1    3    3  502    0  0.46863958965E+03 -0.28698201883E+03 -0.10285264108E+04  0.11661253457E+04  0.00000000000E+00 0. -1.
         -3    1    3    3    0  502  0.82552364850E+02 -0.29201833808E+02 -0.22637808162E+03  0.24272345556E+03  0.00000000000E+00 0.  1.
         13    1    5    5    0    0  0.31855057953E+02  0.17441459292E+02 -0.16727298030E+02  0.39984393441E+02  0.00000000000E+00 0.  1.
        -13    1    5    5    0    0  0.19060735909E+03  0.19045722734E+03 -0.45600067554E+03  0.52966190808E+03  0.00000000000E+00 0. -1.
          1    1    6    6  503    0 -0.36802793323E+03  0.27254584120E+02 -0.66920037490E+03  0.76420973153E+03  0.00000000000E+00 0. -1.
         -1    1    6    6    0  503 -0.40562643831E+03  0.81030581885E+02 -0.60856635422E+03  0.73583406427E+03  0.00000000000E+00 0.  1.
<mgrwt>
<rscale>  0 0.17515161E+04</rscale>
<asrwt>0</asrwt>
<pdfrwt beam="1">  1        2 0.49876442E+00 0.17515161E+04</pdfrwt>
<pdfrwt beam="2">  1       -1 0.36395365E-01 0.17515161E+04</pdfrwt>
<totfact> 0.95584173E+00</totfact>
</mgrwt>
</event>
<event>
12    7  0.1909736E-007  0.1493703E+04  0.7818608E-02  0.8888651E-01
          2   -1    0    0  501    0  0.00000000000E+00  0.00000000000E+00  0.10530755058E+04  0.10530755058E+04  0.00000000000E+00 0. -1.
         -1   -1    0    0    0  501 -0.00000000000E+00 -0.00000000000E+00 -0.52967431995E+03  0.52967431995E+03  0.00000000000E+00 0.  1.
         24    2    1    2    0    0  0.36177112654E+03  0.29877307364E+03  0.49163440247E+01  0.47590112594E+03  0.79460768326E+02 0.  0.
        254    2    1    2    0    0 -0.36177112654E+03 -0.29877307364E+03  0.51848484178E+03  0.11068486998E+04  0.85798823737E+03 0.  0.
         23    2    4    4    0    0 -0.22914467630E+03  0.18062577230E+03 -0.87103639691E+02  0.31751561870E+03  0.89978729560E+02 0.  0.
         23    2    4    4    0    0 -0.13262645024E+03 -0.47939884594E+03  0.60558848147E+03  0.78933308106E+03  0.94320067708E+02 0.  0.
          2    1    3    3  502    0  0.65867473152E+02  0.85915554869E+02  0.24018181692E+02  0.11089129650E+03  0.00000000000E+00 0. -1.
         -1    1    3    3    0  502  0.29590365339E+03  0.21285751878E+03 -0.19101837667E+02  0.36500982944E+03  0.00000000000E+00 0.  1.
         13    1    5    5    0    0 -0.23162343681E+03  0.18406763173E+03 -0.93111517142E+02  0.31016135181E+03  0.00000000000E+00 0. -1.
        -13    1    5    5    0    0  0.24787605042E+01 -0.34418594362E+01  0.60078774516E+01  0.73542668900E+01  0.00000000000E+00 0.  1.
          4    1    6    6  503    0 -0.98694432943E+02 -0.43900827562E+03  0.56763362348E+03  0.72434576527E+03  0.00000000000E+00 0. -1.
         -4    1    6    6    0  503 -0.33932017297E+02 -0.40390570320E+02  0.37954857990E+02  0.64987315791E+02  0.00000000000E+00 0.  1.
<mgrwt>
<rscale>  0 0.14937029E+04</rscale>
<asrwt>0</asrwt>
<pdfrwt beam="1">  1        2 0.16201162E+00 0.14937029E+04</pdfrwt>
<pdfrwt beam="2">  1       -1 0.81488357E-01 0.14937029E+04</pdfrwt>
<totfact> 0.38543269E+01</totfact>
</mgrwt>
</event>
<event>
12    7  0.1909736E-007  0.1883181E+04  0.7818608E-02  0.8663274E-01
          2   -1    0    0  501    0  0.00000000000E+00  0.00000000000E+00  0.98521345727E+03  0.98521345727E+03  0.00000000000E+00 0. -1.
         -1   -1    0    0    0  501 -0.00000000000E+00 -0.00000000000E+00 -0.89989893764E+03  0.89989893764E+03  0.00000000000E+00 0.  1.
         24    2    1    2    0    0 -0.78366565747E+02 -0.68521296985E+03  0.24125717429E+03  0.73476712819E+03  0.77585925536E+02 0.  0.
        254    2    1    2    0    0  0.78366565747E+02  0.68521296985E+03 -0.15594265466E+03  0.11503452667E+04  0.90736871693E+03 0.  0.
         23    2    4    4    0    0  0.32234518628E+03  0.77174318423E+03 -0.18206340141E+02  0.84150632126E+03  0.91145248755E+02 0.  0.
         23    2    4    4    0    0 -0.24397862053E+03 -0.86530214387E+02 -0.13773631452E+03  0.30883894546E+03  0.96938932430E+02 0.  0.
          4    1    3    3  502    0 -0.14716453291E+02 -0.11422839390E+03  0.10550820711E+02  0.11565474390E+03  0.00000000000E+00 0. -1.
         -3    1    3    3    0  502 -0.63650112456E+02 -0.57098457595E+03  0.23070635358E+03  0.61911238428E+03  0.00000000000E+00 0.  1.
         13    1    5    5    0    0  0.27260536390E+03  0.70097242968E+03 -0.36856538186E+02  0.75301688959E+03  0.00000000000E+00 0.  1.
        -13    1    5    5    0    0  0.49739822378E+02  0.70770754551E+02  0.18650198045E+02  0.88489431669E+02  0.00000000000E+00 0. -1.
          1    1    6    6  503    0 -0.11699769711E+03 -0.85585156009E+02 -0.10090371353E+03  0.17662060883E+03  0.00000000000E+00 0. -1.
         -1    1    6    6    0  503 -0.12698092342E+03 -0.94505837814E+00 -0.36832600990E+02  0.13221833664E+03  0.00000000000E+00 0.  1.
<mgrwt>
<rscale>  0 0.18831809E+04</rscale>
<asrwt>0</asrwt>
<pdfrwt beam="1">  1        2 0.15157130E+00 0.18831809E+04</pdfrwt>
<pdfrwt beam="2">  1       -1 0.13844599E+00 0.18831809E+04</pdfrwt>
<totfact> 0.11890097E+01</totfact>
</mgrwt>
</event>
<event>
12    7  0.1909736E-007  0.1181514E+04  0.7818608E-02  0.9129193E-01
         -1   -1    0    0    0  501 -0.00000000000E+00  0.00000000000E+00  0.15155352987E+03  0.15155352987E+03  0.00000000000E+00 0.  1.
          2   -1    0    0  501    0  0.00000000000E+00 -0.00000000000E+00 -0.23027762235E+04  0.23027762235E+04  0.00000000000E+00 0. -1.
         24    2    1    2    0    0  0.23311688825E+03  0.63652521249E+01 -0.47041631008E+03  0.53136619495E+03  0.81697786522E+02 0.  0.
        254    2    1    2    0    0 -0.23311688825E+03 -0.63652521249E+01 -0.16808063835E+04  0.19229635584E+04  0.90459645590E+03 0.  0.
         23    2    4    4    0    0 -0.40834946656E+03  0.28934745446E+03 -0.60767751473E+03  0.79258756382E+03  0.91933933720E+02 0.  0.
         23    2    4    4    0    0  0.17523257831E+03 -0.29571270658E+03 -0.10731288688E+04  0.11303759946E+04  0.89397196595E+02 0.  0.
          4    1    3    3  502    0  0.22716307655E+03  0.24011935772E+02 -0.43763242750E+03  0.49366160273E+03  0.00000000000E+00 0. -1.
         -3    1    3    3    0  502  0.59538116960E+01 -0.17646683647E+02 -0.32783882583E+02  0.37704592222E+02  0.00000000000E+00 0.  1.
         13    1    5    5    0    0 -0.33213612661E+03  0.23052184385E+03 -0.54142519409E+03  0.67571885269E+03  0.00000000000E+00 0. -1.
        -13    1    5    5    0    0 -0.76213339947E+02  0.58825610609E+02 -0.66252320645E+02  0.11686871113E+03  0.00000000000E+00 0.  1.
          4    1    6    6  503    0  0.17630708627E+03 -0.28534956752E+03 -0.96277502413E+03  0.10195314176E+04  0.00000000000E+00 0. -1.
         -4    1    6    6    0  503 -0.10745079565E+01 -0.10363139059E+02 -0.11035384464E+03  0.11084457698E+03  0.00000000000E+00 0.  1.
<mgrwt>
<rscale>  0 0.11815141E+04</rscale>
<asrwt>0</asrwt>
<pdfrwt beam="1">  1        2 0.35427323E+00 0.11815141E+04</pdfrwt>
<pdfrwt beam="2">  1       -1 0.23315930E-01 0.11815141E+04</pdfrwt>
<totfact> 0.80571460E+01</totfact>
</mgrwt>
</event>
<event>
12    7  0.1909736E-007  0.1292797E+04  0.7818608E-02  0.9035296E-01
         -1   -1    0    0    0  501 -0.00000000000E+00  0.00000000000E+00  0.31817535013E+03  0.31817535013E+03  0.00000000000E+00 0.  1.
          2   -1    0    0  501    0  0.00000000000E+00 -0.00000000000E+00 -0.13132108934E+04  0.13132108934E+04  0.00000000000E+00 0. -1.
         24    2    1    2    0    0 -0.29067211576E+03  0.11318409287E+02 -0.70085718875E+02  0.30957939687E+03  0.79429274854E+02 0.  0.
        254    2    1    2    0    0  0.29067211576E+03 -0.11318409287E+02 -0.92494982439E+03  0.13218068467E+04  0.89834446454E+03 0.  0.
         23    2    4    4    0    0  0.31369171691E+02 -0.31672849653E+02 -0.10239254074E+04  0.10289893041E+04  0.91698166277E+02 0.  0.
         23    2    4    4    0    0  0.25930294407E+03  0.20354440366E+02  0.98975583043E+02  0.29281754253E+03  0.91069353387E+02 0.  0.
          2    1    3    3  502    0 -0.97544543629E+02  0.22113662980E+02 -0.58347360646E+02  0.11579450149E+03  0.00000000000E+00 0. -1.
         -1    1    3    3    0  502 -0.19312757213E+03 -0.10795253693E+02 -0.11738358230E+02  0.19378489537E+03  0.00000000000E+00 0.  1.
         13    1    5    5    0    0 -0.30044635115E+02 -0.18636226980E+02 -0.51381250387E+03  0.51502745382E+03  0.00000000000E+00 0. -1.
        -13    1    5    5    0    0  0.61413806806E+02 -0.13036622673E+02 -0.51011290356E+03  0.51396185031E+03  0.00000000000E+00 0.  1.
          4    1    6    6  503    0  0.91346721409E+02 -0.96253305107E+01  0.78792335967E+02  0.12101695215E+03  0.00000000000E+00 0.  1.
         -4    1    6    6    0  503  0.16795622266E+03  0.29979770877E+02  0.20183247076E+02  0.17180059038E+03  0.00000000000E+00 0. -1.
<mgrwt>
<rscale>  0 0.12927975E+04</rscale>
<asrwt>0</asrwt>
<pdfrwt beam="1">  1        2 0.20203244E+00 0.12927975E+04</pdfrwt>
<pdfrwt beam="2">  1       -1 0.48950054E-01 0.12927975E+04</pdfrwt>
<totfact> 0.75848503E+01</totfact>
</mgrwt>
</event>
<event>
12    7  0.1909736E-007  0.2891420E+04  0.7818608E-02  0.8275435E-01
          2   -1    0    0  501    0  0.00000000000E+00  0.00000000000E+00  0.22228516543E+04  0.22228516543E+04  0.00000000000E+00 0. -1.
         -1   -1    0    0    0  501 -0.00000000000E+00 -0.00000000000E+00 -0.94026855352E+03  0.94026855352E+03  0.00000000000E+00 0.  1.
         24    2    1    2    0    0 -0.92603624471E+03 -0.24907477494E+03 -0.38399807642E+03  0.10356743383E+04  0.74735817194E+02 0.  0.
        254    2    1    2    0    0  0.92603624471E+03  0.24907477494E+03  0.16665811772E+04  0.21274458695E+04  0.91046786729E+03 0.  0.
         23    2    4    4    0    0  0.12165187435E+03  0.44399410406E+03  0.43108939817E+03  0.63703211930E+03  0.89676690530E+02 0.  0.
         23    2    4    4    0    0  0.80438437036E+03 -0.19491932912E+03  0.12354917790E+04  0.14904137502E+04  0.99324974502E+02 0.  0.
          2    1    3    3  502    0 -0.24195465681E+03 -0.40316003251E+02 -0.12216299963E+03  0.27402779886E+03  0.00000000000E+00 0. -1.
         -1    1    3    3    0  502 -0.68408158790E+03 -0.20875877169E+03 -0.26183507679E+03  0.76164653948E+03  0.00000000000E+00 0.  1.
         13    1    5    5    0    0 -0.58602914245E+01  0.46543216899E+02  0.74550426963E+02  0.88081667873E+02  0.00000000000E+00 0. -1.
        -13    1    5    5    0    0  0.12751216578E+03  0.39745088716E+03  0.35653897121E+03  0.54895045142E+03  0.00000000000E+00 0.  1.
          1    1    6    6  503    0  0.15263428356E+03 -0.67729866733E+02  0.20358411117E+03  0.26330789902E+03  0.00000000000E+00 0. -1.
         -1    1    6    6    0  503  0.65175008680E+03 -0.12718946239E+03  0.10319076679E+04  0.12271058512E+04  0.00000000000E+00 0.  1.
<mgrwt>
<rscale>  0 0.28914201E+04</rscale>
<asrwt>0</asrwt>
<pdfrwt beam="1">  1        2 0.34197718E+00 0.28914201E+04</pdfrwt>
<pdfrwt beam="2">  1       -1 0.14465670E+00 0.28914201E+04</pdfrwt>
<totfact> 0.18928107E+00</totfact>
</mgrwt>
</event>
<event>
12    7  0.1909736E-007  0.1495199E+04  0.7818608E-02  0.8887652E-01
          2   -1    0    0  501    0  0.00000000000E+00  0.00000000000E+00  0.10009254488E+04  0.10009254488E+04  0.00000000000E+00 0. -1.
         -1   -1    0    0    0  501 -0.00000000000E+00 -0.00000000000E+00 -0.55838788700E+03  0.55838788700E+03  0.00000000000E+00 0.  1.
         24    2    1    2    0    0 -0.14051265940E+03 -0.42345819981E+03 -0.16745251593E+02  0.45329787245E+03  0.78344771891E+02 0.  0.
        254    2    1    2    0    0  0.14051265940E+03  0.42345819981E+03  0.45928281339E+03  0.11060154633E+04  0.90181419818E+03 0.  0.
         23    2    4    4    0    0 -0.23083108413E+03  0.48695469901E+03  0.46579164628E+03  0.71745935591E+03  0.85896457121E+02 0.  0.
         23    2    4    4    0    0  0.37134374354E+03 -0.63496499199E+02 -0.65088328945E+01  0.38855610743E+03  0.94897325804E+02 0.  0.
          4    1    3    3  502    0 -0.19752353180E+02 -0.80090384189E+02 -0.33250986443E+02  0.88939604199E+02  0.00000000000E+00 0. -1.
         -3    1    3    3    0  502 -0.12076030622E+03 -0.34336781562E+03  0.16505734850E+02  0.36435826825E+03  0.00000000000E+00 0.  1.
         13    1    5    5    0    0 -0.39370952936E+02  0.15469959460E+03  0.10594868490E+03  0.19159112802E+03  0.00000000000E+00 0. -1.
        -13    1    5    5    0    0 -0.19146013120E+03  0.33225510440E+03  0.35984296139E+03  0.52586822789E+03  0.00000000000E+00 0.  1.
          3    1    6    6  503    0  0.81426241006E+02  0.13350557891E+02 -0.29785598293E+02  0.87724865266E+02  0.00000000000E+00 0. -1.
         -3    1    6    6    0  503  0.28991750253E+03 -0.76847057090E+02  0.23276765399E+02  0.30083124217E+03  0.00000000000E+00 0.  1.
<mgrwt>
<rscale>  0 0.14951985E+04</rscale>
<asrwt>0</asrwt>
<pdfrwt beam="1">  1        2 0.15398853E+00 0.14951985E+04</pdfrwt>
<pdfrwt beam="2">  1       -1 0.85905829E-01 0.14951985E+04</pdfrwt>
<totfact> 0.37119584E+01</totfact>
</mgrwt>
</event>
<event>
12    7  0.1909736E-007  0.2036988E+04  0.7818608E-02  0.8589520E-01
         -1   -1    0    0    0  501 -0.00000000000E+00  0.00000000000E+00  0.82144647181E+03  0.82144647181E+03  0.00000000000E+00 0.  1.
          2   -1    0    0  501    0  0.00000000000E+00 -0.00000000000E+00 -0.12628093433E+04  0.12628093433E+04  0.00000000000E+00 0. -1.
         24    2    1    2    0    0  0.24442539505E+03 -0.91339313048E+02 -0.89315673076E+03  0.93398736208E+03  0.80726717812E+02 0.  0.
        254    2    1    2    0    0 -0.24442539505E+03  0.91339313048E+02  0.45179385924E+03  0.11502684531E+04  0.10251405655E+04 0.  0.
         23    2    4    4    0    0 -0.44973500780E+02  0.62821031703E+02  0.76161351240E+03  0.77017903887E+03  0.84566611901E+02 0.  0.
         23    2    4    4    0    0 -0.19945189427E+03  0.28518281346E+02 -0.30981965316E+03  0.38008941419E+03  0.88799745477E+02 0.  0.
          2    1    3    3  502    0  0.18810440653E+03 -0.96323711770E+02 -0.61962295614E+03  0.65467101126E+03  0.00000000000E+00 0. -1.
         -1    1    3    3    0  502  0.56320988517E+02  0.49843987221E+01 -0.27353377462E+03  0.27931635082E+03  0.00000000000E+00 0.  1.
         13    1    5    5    0    0  0.20316309396E+02  0.37238656967E+02  0.22076055401E+03  0.22479922643E+03  0.00000000000E+00 0.  1.
        -13    1    5    5    0    0 -0.65289810176E+02  0.25582374736E+02  0.54085295839E+03  0.54537981243E+03  0.00000000000E+00 0. -1.
          1    1    6    6  503    0 -0.11278609637E+03  0.44710487463E+02 -0.23493849413E+03  0.26441601171E+03  0.00000000000E+00 0. -1.
         -1    1    6    6    0  503 -0.86665797896E+02 -0.16192206117E+02 -0.74881159031E+02  0.11567340248E+03  0.00000000000E+00 0.  1.
<mgrwt>
<rscale>  0 0.20369882E+04</rscale>
<asrwt>0</asrwt>
<pdfrwt beam="1">  1        2 0.19427836E+00 0.20369882E+04</pdfrwt>
<pdfrwt beam="2">  1       -1 0.12637638E+00 0.20369882E+04</pdfrwt>
<totfact> 0.99955409E+00</totfact>
</mgrwt>
</event>
<event>
12    7  0.1909736E-007  0.1469983E+04  0.7818608E-02  0.8904663E-01
         -1   -1    0    0    0  501 -0.00000000000E+00  0.00000000000E+00  0.84109297357E+03  0.84109297357E+03  0.00000000000E+00 0.  1.
          2   -1    0    0  501    0  0.00000000000E+00 -0.00000000000E+00 -0.64227444703E+03  0.64227444703E+03  0.00000000000E+00 0. -1.
         24    2    1    2    0    0 -0.35046978075E+03  0.87507134259E+02 -0.23182000688E+03  0.43597326878E+03  0.76456587255E+02 0.  0.
        254    2    1    2    0    0  0.35046978075E+03 -0.87507134259E+02  0.43063853342E+03  0.10473941518E+04  0.88379771273E+03 0.  0.
         23    2    4    4    0    0  0.26962071068E+03 -0.21978523262E+02  0.69368826819E+03  0.75072810577E+03  0.95973393437E+02 0.  0.
         23    2    4    4    0    0  0.80849070067E+02 -0.65528610997E+02 -0.26304973477E+03  0.29666604605E+03  0.89358877163E+02 0.  0.
          2    1    3    3  502    0 -0.26530265324E+03  0.34233703770E+02 -0.18429868903E+03  0.32484373330E+03  0.00000000000E+00 0. -1.
         -1    1    3    3    0  502 -0.85167127515E+02  0.53273430488E+02 -0.47521317852E+02  0.11112953548E+03  0.00000000000E+00 0.  1.
         13    1    5    5    0    0  0.10614064664E+03 -0.41993515466E+02  0.19986989877E+03  0.23016791402E+03  0.00000000000E+00 0. -1.
        -13    1    5    5    0    0  0.16348006404E+03  0.20014992205E+02  0.49381836942E+03  0.52056019175E+03  0.00000000000E+00 0.  1.
          1    1    6    6  503    0  0.16140156963E+02 -0.68732461205E+02 -0.16082207272E+03  0.17563711158E+03  0.00000000000E+00 0. -1.
         -1    1    6    6    0  503  0.64708913104E+02  0.32038502086E+01 -0.10222766205E+03  0.12102893447E+03  0.00000000000E+00 0.  1.
<mgrwt>
<rscale>  0 0.14699830E+04</rscale>
<asrwt>0</asrwt>
<pdfrwt beam="1">  1        2 0.98811453E-01 0.14699830E+04</pdfrwt>
<pdfrwt beam="2">  1       -1 0.12939892E+00 0.14699830E+04</pdfrwt>
<totfact> 0.25911057E+01</totfact>
</mgrwt>
</event>
<event>
12    7  0.2528629E-007  0.1861707E+04  0.7818608E-02  0.8674156E-01
          2   -1    0    0  501    0  0.00000000000E+00  0.00000000000E+00  0.15714875223E+04  0.15714875223E+04  0.00000000000E+00 0. -1.
         -1   -1    0    0    0  501 -0.00000000000E+00 -0.00000000000E+00 -0.55138089502E+03  0.55138089502E+03  0.00000000000E+00 0.  1.
         24    2    1    2    0    0 -0.65774066096E+03 -0.23934450245E+03  0.49152172851E+03  0.85910497963E+03  0.80988817134E+02 0.  0.
        254    2    1    2    0    0  0.65774066096E+03  0.23934450245E+03  0.52858489879E+03  0.12637634377E+04  0.90982826036E+03 0.  0.
         23    2    4    4    0    0 -0.22048782472E+03  0.33619619734E+02  0.82465844182E+02  0.25339028666E+03  0.87526351657E+02 0.  0.
         23    2    4    4    0    0  0.87822848568E+03  0.20572488271E+03  0.44611905461E+03  0.10103731511E+04  0.90684580089E+02 0.  0.
          4    1    3    3  502    0 -0.62639840595E+03 -0.24097716476E+03  0.45447231608E+03  0.81054922305E+03  0.00000000000E+00 0. -1.
         -3    1    3    3    0  502 -0.31342255012E+02  0.16326623116E+01  0.37049412437E+02  0.48555756583E+02  0.00000000000E+00 0.  1.
         13    1    5    5    0    0 -0.16996537523E+03 -0.95540927186E+01  0.76604828277E+02  0.18667567914E+03  0.00000000000E+00 0. -1.
        -13    1    5    5    0    0 -0.50522449488E+02  0.43173712453E+02  0.58610159051E+01  0.66714607521E+02  0.00000000000E+00 0.  1.
          2    1    6    6  503    0  0.75924654352E+03  0.20744574891E+03  0.37626100022E+03  0.87238832688E+03  0.00000000000E+00 0. -1.
         -2    1    6    6    0  503  0.11898194216E+03 -0.17208661966E+01  0.69858054390E+02  0.13798482418E+03  0.00000000000E+00 0.  1.
<mgrwt>
<rscale>  0 0.18617070E+04</rscale>
<asrwt>0</asrwt>
<pdfrwt beam="1">  1        2 0.24176731E+00 0.18617070E+04</pdfrwt>
<pdfrwt beam="2">  1       -1 0.84827831E-01 0.18617070E+04</pdfrwt>
<totfact> 0.17028154E+01</totfact>
</mgrwt>
</event>
<event>
12    7  0.1909736E-007  0.1538885E+04  0.7818608E-02  0.8858999E-01
         -1   -1    0    0    0  501 -0.00000000000E+00  0.00000000000E+00  0.51073363188E+03  0.51073363188E+03  0.00000000000E+00 0.  1.
          2   -1    0    0  501    0  0.00000000000E+00 -0.00000000000E+00 -0.11591990724E+04  0.11591990724E+04  0.00000000000E+00 0. -1.
         24    2    1    2    0    0  0.25357045460E+03 -0.17351345677E+02 -0.68544826398E+03  0.73603723041E+03  0.85512790387E+02 0.  0.
        254    2    1    2    0    0 -0.25357045460E+03  0.17351345677E+02  0.36982823469E+02  0.93389547385E+03  0.89788305597E+03 0.  0.
         23    2    4    4    0    0 -0.45105860512E+03  0.27650918889E+03  0.18084643230E+03  0.56639432055E+03  0.90475949717E+02 0.  0.
         23    2    4    4    0    0  0.19748815052E+03 -0.25915784321E+03 -0.14386360883E+03  0.36750115330E+03  0.90531775849E+02 0.  0.
          2    1    3    3  502    0  0.22778575242E+03 -0.26075337472E+02 -0.66032079756E+03  0.69899200848E+03  0.00000000000E+00 0. -1.
         -1    1    3    3    0  502  0.25784702181E+02  0.87239917950E+01 -0.25127466418E+02  0.37045221932E+02  0.00000000000E+00 0.  1.
         13    1    5    5    0    0 -0.10656381487E+02  0.78898989742E+01 -0.97425667635E+01  0.16453770977E+02  0.00000000000E+00 0. -1.
        -13    1    5    5    0    0 -0.44040222364E+03  0.26861928991E+03  0.19058899907E+03  0.54994054957E+03  0.00000000000E+00 0.  1.
          3    1    6    6  503    0 -0.46747535715E+01 -0.21356015958E+02 -0.25751302796E+02  0.33779614182E+02  0.00000000000E+00 0. -1.
         -3    1    6    6    0  503  0.20216290409E+03 -0.23780182725E+03 -0.11811230604E+03  0.33372153912E+03  0.00000000000E+00 0.  1.
<mgrwt>
<rscale>  0 0.15388852E+04</rscale>
<asrwt>0</asrwt>
<pdfrwt beam="1">  1        2 0.17833832E+00 0.15388852E+04</pdfrwt>
<pdfrwt beam="2">  1       -1 0.78574405E-01 0.15388852E+04</pdfrwt>
<totfact> 0.35693001E+01</totfact>
</mgrwt>
</event>
<event>
12    7  0.1909736E-007  0.1486977E+04  0.7818608E-02  0.8893160E-01
         -3   -1    0    0    0  501 -0.00000000000E+00  0.00000000000E+00  0.54045860436E+03  0.54045860436E+03  0.00000000000E+00 0.  1.
          4   -1    0    0  501    0  0.00000000000E+00 -0.00000000000E+00 -0.10227889151E+04  0.10227889151E+04  0.00000000000E+00 0. -1.
         24    2    1    2    0    0 -0.37773779221E+03 -0.25541657922E+03 -0.49858067676E+02  0.46505465850E+03  0.76593340933E+02 0.  0.
        254    2    1    2    0    0  0.37773779221E+03  0.25541657922E+03 -0.43247224310E+03  0.10981928610E+04  0.90059527552E+03 0.  0.
         23    2    4    4    0    0  0.33194552456E+03  0.19654498699E+02  0.21186578642E+03  0.40446272080E+03  0.90160137862E+02 0.  0.
         23    2    4    4    0    0  0.45792267650E+02  0.23576208052E+03 -0.64433802952E+03  0.69373014020E+03  0.91702348647E+02 0.  0.
          2    1    3    3  502    0 -0.12608583852E+02 -0.75987169538E+01 -0.17086780612E+02  0.22553823573E+02  0.00000000000E+00 0. -1.
         -1    1    3    3    0  502 -0.36512920836E+03 -0.24781786226E+03 -0.32771287064E+02  0.44250083493E+03  0.00000000000E+00 0.  1.
         13    1    5    5    0    0  0.15429738081E+02 -0.14910650307E+02  0.32716957298E+02  0.39125485360E+02  0.00000000000E+00 0.  1.
        -13    1    5    5    0    0  0.31651578648E+03  0.34565149006E+02  0.17914882913E+03  0.36533723544E+03  0.00000000000E+00 0. -1.
          1    1    6    6  503    0  0.10745276828E+02  0.13227489688E+03 -0.46649978380E+03  0.48500944073E+03  0.00000000000E+00 0. -1.
         -1    1    6    6    0  503  0.35046990821E+02  0.10348718364E+03 -0.17783824572E+03  0.20872069947E+03  0.00000000000E+00 0.  1.
<mgrwt>
<rscale>  0 0.14869769E+04</rscale>
<asrwt>0</asrwt>
<pdfrwt beam="1">  1        4 0.15735214E+00 0.14869769E+04</pdfrwt>
<pdfrwt beam="2">  1       -3 0.83147478E-01 0.14869769E+04</pdfrwt>
<totfact> 0.77221515E-01</totfact>
</mgrwt>
</event>
<event>
12    7  0.1909736E-007  0.2435569E+04  0.7818608E-02  0.8426306E-01
          2   -1    0    0  501    0  0.00000000000E+00  0.00000000000E+00  0.16725131809E+04  0.16725131809E+04  0.00000000000E+00 0. -1.
         -1   -1    0    0    0  501 -0.00000000000E+00 -0.00000000000E+00 -0.88668867849E+03  0.88668867849E+03  0.00000000000E+00 0.  1.
         24    2    1    2    0    0  0.90205649715E+02  0.10295033609E+04  0.51117812878E+03  0.11557758684E+04  0.80625983742E+02 0.  0.
        254    2    1    2    0    0 -0.90205649715E+02 -0.10295033609E+04  0.27464637363E+03  0.14034259910E+04  0.90893324957E+03 0.  0.
         23    2    4    4    0    0 -0.23590498677E+03 -0.11302142434E+04  0.31718465689E+03  0.12008168741E+04  0.91212169255E+02 0.  0.
         23    2    4    4    0    0  0.14569933705E+03  0.10071088246E+03 -0.42538283262E+02  0.20260911687E+03  0.88712851549E+02 0.  0.
          4    1    3    3  502    0  0.72225543135E+02  0.97715096323E+03  0.49688662798E+03  0.10986067791E+04  0.00000000000E+00 0. -1.
         -3    1    3    3    0  502  0.17980106580E+02  0.52352397702E+02  0.14291500803E+02  0.57169089314E+02  0.00000000000E+00 0.  1.
         13    1    5    5    0    0  0.17745363993E+01 -0.57109788705E+02  0.31236743624E+02  0.65118438998E+02  0.00000000000E+00 0.  1.
        -13    1    5    5    0    0 -0.23767952317E+03 -0.10731044547E+04  0.28594791327E+03  0.11356984351E+04  0.00000000000E+00 0. -1.
          2    1    6    6  503    0  0.10142662410E+03  0.84262943756E+02  0.96600250684E+01  0.13221542970E+03  0.00000000000E+00 0. -1.
         -2    1    6    6    0  503  0.44272712956E+02  0.16447938705E+02 -0.52198308331E+02  0.70393687165E+02  0.00000000000E+00 0.  1.
<mgrwt>
<rscale>  0 0.24355685E+04</rscale>
<asrwt>0</asrwt>
<pdfrwt beam="1">  1        2 0.25730972E+00 0.24355685E+04</pdfrwt>
<pdfrwt beam="2">  1       -1 0.13641364E+00 0.24355685E+04</pdfrwt>
<totfact> 0.46511730E+00</totfact>
</mgrwt>
</event>
<event>
12    7  0.1909736E-007  0.4347587E+04  0.7818608E-02  0.7937877E-01
         -1   -1    0    0    0  501 -0.00000000000E+00  0.00000000000E+00  0.22612166186E+04  0.22612166186E+04  0.00000000000E+00 0.  1.
          2   -1    0    0  501    0  0.00000000000E+00 -0.00000000000E+00 -0.20897503906E+04  0.20897503906E+04  0.00000000000E+00 0. -1.
         24    2    1    2    0    0  0.30310881657E+03 -0.19273822467E+04  0.79385483212E+03  0.21079402647E+04  0.80804611646E+02 0.  0.
        254    2    1    2    0    0 -0.30310881657E+03  0.19273822467E+04 -0.62238860408E+03  0.22430267445E+04  0.91494487400E+03 0.  0.
         23    2    4    4    0    0 -0.14079543867E+03  0.15925447274E+04 -0.11290598073E+03  0.16055751070E+04  0.95402302431E+02 0.  0.
         23    2    4    4    0    0 -0.16231337790E+03  0.33483751930E+03 -0.50948262335E+03  0.63745163752E+03  0.91160571024E+02 0.  0.
          2    1    3    3  502    0  0.20594242342E+02 -0.27283796785E+03  0.13017488986E+03  0.30300194961E+03  0.00000000000E+00 0. -1.
         -1    1    3    3    0  502  0.28251457423E+03 -0.16545442789E+04  0.66367994226E+03  0.18049383151E+04  0.00000000000E+00 0.  1.
         13    1    5    5    0    0 -0.89352330891E+01  0.55357768896E+02 -0.21442885415E+02  0.60034309377E+02  0.00000000000E+00 0.  1.
        -13    1    5    5    0    0 -0.13186020558E+03  0.15371869585E+04 -0.91463095318E+02  0.15455407976E+04  0.00000000000E+00 0. -1.
          3    1    6    6  503    0 -0.10912715846E+03  0.13958228668E+03 -0.28140957543E+03  0.33254067512E+03  0.00000000000E+00 0. -1.
         -3    1    6    6    0  503 -0.53186219438E+02  0.19525523262E+03 -0.22807304792E+03  0.30491096240E+03  0.00000000000E+00 0.  1.
<mgrwt>
<rscale>  0 0.43475871E+04</rscale>
<asrwt>0</asrwt>
<pdfrwt beam="1">  1        2 0.32150006E+00 0.43475871E+04</pdfrwt>
<pdfrwt beam="2">  1       -1 0.34787948E+00 0.43475871E+04</pdfrwt>
<totfact> 0.83391395E-02</totfact>
</mgrwt>
</event>
<event>
12    7  0.1909736E-007  0.1622211E+04  0.7818608E-02  0.8807018E-01
         -1   -1    0    0    0  501 -0.00000000000E+00  0.00000000000E+00  0.84943719710E+03  0.84943719710E+03  0.00000000000E+00 0.  1.
          2   -1    0    0  501    0  0.00000000000E+00 -0.00000000000E+00 -0.77450371491E+03  0.77450371491E+03  0.00000000000E+00 0. -1.
         24    2    1    2    0    0  0.12896379262E+03  0.52597414010E+03  0.62519608684E+01  0.54720036333E+03  0.78158139411E+02 0.  0.
        254    2    1    2    0    0 -0.12896379262E+03 -0.52597414010E+03  0.68681521322E+02  0.10767405487E+04  0.92810161186E+03 0.  0.
         23    2    4    4    0    0 -0.42326161965E+03  0.15547134877E+02  0.11830325858E+03  0.45037839499E+03  0.97226157012E+02 0.  0.
         23    2    4    4    0    0  0.29429782703E+03 -0.54152127498E+03 -0.49621737262E+02  0.62636215369E+03  0.10005362822E+03 0.  0.
          2    1    3    3  502    0  0.84551388723E+02  0.34776080269E+03  0.41152023401E+02  0.36024991638E+03  0.00000000000E+00 0. -1.
         -1    1    3    3    0  502  0.44412403892E+02  0.17821333741E+03 -0.34900062533E+02  0.18695044695E+03  0.00000000000E+00 0.  1.
         13    1    5    5    0    0 -0.76596260110E+02 -0.31771533546E+02  0.69899938176E+01  0.83218251725E+02  0.00000000000E+00 0.  1.
        -13    1    5    5    0    0 -0.34666535954E+03  0.47318668424E+02  0.11131326477E+03  0.36716014326E+03  0.00000000000E+00 0. -1.
          3    1    6    6  503    0  0.14135646807E+03 -0.34385695346E+03 -0.58115834545E+02  0.37629337721E+03  0.00000000000E+00 0. -1.
         -3    1    6    6    0  503  0.15294135896E+03 -0.19766432152E+03  0.84940972834E+01  0.25006877648E+03  0.00000000000E+00 0.  1.
<mgrwt>
<rscale>  0 0.16222112E+04</rscale>
<asrwt>0</asrwt>
<pdfrwt beam="1">  1        2 0.11915442E+00 0.16222112E+04</pdfrwt>
<pdfrwt beam="2">  1       -1 0.13068265E+00 0.16222112E+04</pdfrwt>
<totfact> 0.19672087E+01</totfact>
</mgrwt>
</event>
<event>
12    7  0.1909736E-007  0.2390136E+04  0.7818608E-02  0.8443206E-01
          2   -1    0    0  501    0  0.00000000000E+00  0.00000000000E+00  0.16836078806E+04  0.16836078806E+04  0.00000000000E+00 0. -1.
         -1   -1    0    0    0  501 -0.00000000000E+00 -0.00000000000E+00 -0.84828964150E+03  0.84828964150E+03  0.00000000000E+00 0.  1.
         24    2    1    2    0    0  0.17239579292E+02 -0.10261027130E+04  0.31303645370E+03  0.10758642310E+04  0.79423179751E+02 0.  0.
        254    2    1    2    0    0 -0.17239579292E+02  0.10261027130E+04  0.52228178544E+03  0.14560332912E+04  0.89110644760E+03 0.  0.
         23    2    4    4    0    0  0.89381102450E+02  0.94158225093E+02 -0.20948593191E+03  0.26283504534E+03  0.91340859221E+02 0.  0.
         23    2    4    4    0    0 -0.10662068174E+03  0.93194448788E+03  0.73176771735E+03  0.11931982458E+04  0.91375945661E+02 0.  0.
          4    1    3    3  502    0 -0.98998786609E+01 -0.73560628198E+03  0.19456087394E+03  0.76096553362E+03  0.00000000000E+00 0. -1.
         -3    1    3    3    0  502  0.27139457953E+02 -0.29049643099E+03  0.11847557976E+03  0.31489869735E+03  0.00000000000E+00 0.  1.
         13    1    5    5    0    0  0.11948771335E+02 -0.17677222113E+02 -0.17783921405E+02  0.27776342066E+02  0.00000000000E+00 0. -1.
        -13    1    5    5    0    0  0.77432331115E+02  0.11183544721E+03 -0.19170201051E+03  0.23505870327E+03  0.00000000000E+00 0.  1.
          3    1    6    6  503    0 -0.10860680189E+03  0.92423950168E+03  0.71151420222E+03  0.11714378148E+04  0.00000000000E+00 0. -1.
         -3    1    6    6    0  503  0.19861201451E+01  0.77049862023E+01  0.20253515137E+02  0.21760431085E+02  0.00000000000E+00 0.  1.
<mgrwt>
<rscale>  0 0.23901357E+04</rscale>
<asrwt>0</asrwt>
<pdfrwt beam="1">  1        2 0.25901660E+00 0.23901357E+04</pdfrwt>
<pdfrwt beam="2">  1       -1 0.13050610E+00 0.23901357E+04</pdfrwt>
<totfact> 0.51538689E+00</totfact>
</mgrwt>
</event>
<event>
12    7  0.1909736E-007  0.1267803E+04  0.7818608E-02  0.9055495E-01
         -1   -1    0    0    0  501 -0.00000000000E+00  0.00000000000E+00  0.21132236124E+03  0.21132236124E+03  0.00000000000E+00 0.  1.
          2   -1    0    0  501    0  0.00000000000E+00 -0.00000000000E+00 -0.19015073316E+04  0.19015073316E+04  0.00000000000E+00 0. -1.
         24    2    1    2    0    0  0.26387556860E+03 -0.17065548212E+03 -0.40387430600E+03  0.51766932714E+03  0.78188668812E+02 0.  0.
        254    2    1    2    0    0 -0.26387556860E+03  0.17065548212E+03 -0.12863106643E+04  0.15951603657E+04  0.88948741292E+03 0.  0.
         23    2    4    4    0    0 -0.59520992790E+02 -0.33301288439E+03 -0.28368792296E+03  0.45104565027E+03  0.92320156246E+02 0.  0.
         23    2    4    4    0    0 -0.20435457581E+03  0.50366836651E+03 -0.10026227414E+04  0.11441147154E+04  0.91123566605E+02 0.  0.
          4    1    3    3  502    0  0.10593169209E+03 -0.65864258597E+02 -0.22384351219E+03  0.25625288662E+03  0.00000000000E+00 0. -1.
         -3    1    3    3    0  502  0.15794387652E+03 -0.10479122353E+03 -0.18003079381E+03  0.26141644052E+03  0.00000000000E+00 0.  1.
         13    1    5    5    0    0 -0.73092726033E+02 -0.29278291287E+03 -0.27376204125E+03  0.40744329164E+03  0.00000000000E+00 0.  1.
        -13    1    5    5    0    0  0.13571733242E+02 -0.40229971510E+02 -0.99258817053E+01  0.43602358635E+02  0.00000000000E+00 0. -1.
          2    1    6    6  503    0 -0.15862779040E+03  0.29443494713E+03 -0.66346648793E+03  0.74299562219E+03  0.00000000000E+00 0. -1.
         -2    1    6    6    0  503 -0.45726785409E+02  0.20923341938E+03 -0.33915625344E+03  0.40111909321E+03  0.00000000000E+00 0.  1.
<mgrwt>
<rscale>  0 0.12678029E+04</rscale>
<asrwt>0</asrwt>
<pdfrwt beam="1">  1        2 0.29253958E+00 0.12678029E+04</pdfrwt>
<pdfrwt beam="2">  1       -1 0.32511134E-01 0.12678029E+04</pdfrwt>
<totfact> 0.75117314E+01</totfact>
</mgrwt>
</event>
<event>
12    7  0.1909736E-007  0.3183993E+04  0.7818608E-02  0.8193057E-01
          2   -1    0    0  501    0  0.00000000000E+00  0.00000000000E+00  0.25954186922E+04  0.25954186922E+04  0.00000000000E+00 0. -1.
         -1   -1    0    0    0  501 -0.00000000000E+00 -0.00000000000E+00 -0.97651013784E+03  0.97651013784E+03  0.00000000000E+00 0.  1.
         24    2    1    2    0    0 -0.58187113594E+03 -0.58512975574E+03  0.20847723615E+04  0.22435746835E+04  0.80004447075E+02 0.  0.
        254    2    1    2    0    0  0.58187113594E+03  0.58512975574E+03 -0.46586380710E+03  0.13283541465E+04  0.93088388207E+03 0.  0.
         23    2    4    4    0    0 -0.18598825653E+03  0.37753246478E+02  0.90989146001E+02  0.22942942418E+03  0.91333984942E+02 0.  0.
         23    2    4    4    0    0  0.76785939247E+03  0.54737650927E+03 -0.55685295310E+03  0.10989247223E+04  0.91220855471E+02 0.  0.
          2    1    3    3  502    0 -0.25889846673E+03 -0.28195912678E+03  0.86724301587E+03  0.94796614593E+03  0.00000000000E+00 0. -1.
         -1    1    3    3    0  502 -0.32297266921E+03 -0.30317062896E+03  0.12175293456E+04  0.12956085376E+04  0.00000000000E+00 0.  1.
         13    1    5    5    0    0 -0.16756240386E+03  0.61615089742E+02  0.88264103126E+02  0.19915855586E+03  0.00000000000E+00 0.  1.
        -13    1    5    5    0    0 -0.18425852672E+02 -0.23861843264E+02  0.27250428752E+01  0.30270868328E+02  0.00000000000E+00 0. -1.
          3    1    6    6  503    0  0.40878408718E+02  0.27761852858E+02 -0.75059713039E+01  0.49981040192E+02  0.00000000000E+00 0. -1.
         -3    1    6    6    0  503  0.72698098375E+03  0.51961465641E+03 -0.54934698180E+03  0.10489436821E+04  0.00000000000E+00 0.  1.
<mgrwt>
<rscale>  0 0.31839929E+04</rscale>
<asrwt>0</asrwt>
<pdfrwt beam="1">  1        2 0.39929518E+00 0.31839929E+04</pdfrwt>
<pdfrwt beam="2">  1       -1 0.15023233E+00 0.31839929E+04</pdfrwt>
<totfact> 0.10190862E+00</totfact>
</mgrwt>
</event>
<event>
12    7  0.1909736E-007  0.1112936E+04  0.7818608E-02  0.9192674E-01
         -1   -1    0    0    0  501 -0.00000000000E+00  0.00000000000E+00  0.36660889272E+03  0.36660889272E+03  0.00000000000E+00 0.  1.
          2   -1    0    0  501    0  0.00000000000E+00 -0.00000000000E+00 -0.84465123532E+03  0.84465123532E+03  0.00000000000E+00 0. -1.
         24    2    1    2    0    0 -0.15095963154E+03  0.91846852712E+02 -0.81769937818E+02  0.21068425330E+03  0.80479047903E+02 0.  0.
        254    2    1    2    0    0  0.15095963154E+03 -0.91846852712E+02 -0.39627240478E+03  0.10005758747E+04  0.90160723578E+03 0.  0.
         23    2    4    4    0    0 -0.11599350543E+03  0.16314864263E+03 -0.54721852894E+03  0.59075689407E+03  0.97332505296E+02 0.  0.
         23    2    4    4    0    0  0.26695313697E+03 -0.25499549535E+03  0.15094612416E+03  0.40981898067E+03  0.94234731033E+02 0.  0.
          4    1    3    3  502    0 -0.20504265302E+01 -0.12205880435E+02 -0.71539363043E+01  0.14295683642E+02  0.00000000000E+00 0. -1.
         -3    1    3    3    0  502 -0.14890920501E+03  0.10405273315E+03 -0.74616001513E+02  0.19638856966E+03  0.00000000000E+00 0.  1.
         13    1    5    5    0    0 -0.71866999477E+02  0.61200868400E+02 -0.36790159918E+03  0.37981837579E+03  0.00000000000E+00 0. -1.
        -13    1    5    5    0    0 -0.44126505954E+02  0.10194777423E+03 -0.17931692976E+03  0.21093851828E+03  0.00000000000E+00 0.  1.
          3    1    6    6  503    0  0.17280534162E+03 -0.11202382744E+03  0.11134227392E+03  0.23411135378E+03  0.00000000000E+00 0. -1.
         -3    1    6    6    0  503  0.94147795342E+02 -0.14297166791E+03  0.39603850243E+02  0.17570762689E+03  0.00000000000E+00 0.  1.
<mgrwt>
<rscale>  0 0.11129360E+04</rscale>
<asrwt>0</asrwt>
<pdfrwt beam="1">  1        2 0.12994634E+00 0.11129360E+04</pdfrwt>
<pdfrwt beam="2">  1       -1 0.56401369E-01 0.11129360E+04</pdfrwt>
<totfact> 0.11530475E+02</totfact>
</mgrwt>
</event>
<event>
12    7  0.1909736E-007  0.1458939E+04  0.7818608E-02  0.8912227E-01
         -1   -1    0    0    0  501 -0.00000000000E+00  0.00000000000E+00  0.57293234692E+03  0.57293234692E+03  0.00000000000E+00 0.  1.
          2   -1    0    0  501    0  0.00000000000E+00 -0.00000000000E+00 -0.92877612305E+03  0.92877612305E+03  0.00000000000E+00 0. -1.
         24    2    1    2    0    0 -0.31986707622E+03 -0.29746365243E+02  0.20790601115E+03  0.39179935895E+03  0.84154830583E+02 0.  0.
        254    2    1    2    0    0  0.31986707622E+03  0.29746365243E+02 -0.56374978729E+03  0.11099091110E+04  0.90049132108E+03 0.  0.
         23    2    4    4    0    0  0.44651290743E+02 -0.40330815032E+03 -0.35922270137E+03  0.54942885850E+03  0.90442907392E+02 0.  0.
         23    2    4    4    0    0  0.27521578547E+03  0.43305451556E+03 -0.20452708592E+03  0.56048025251E+03  0.95009697191E+02 0.  0.
          4    1    3    3  502    0 -0.69580189468E+01  0.14419968377E+02  0.11731180207E+02  0.19848680175E+02  0.00000000000E+00 0. -1.
         -3    1    3    3    0  502 -0.31290905727E+03 -0.44166333620E+02  0.19617483095E+03  0.37195067878E+03  0.00000000000E+00 0.  1.
         13    1    5    5    0    0  0.24026112415E+02 -0.28110519446E+03 -0.30083995361E+03  0.41243431249E+03  0.00000000000E+00 0.  1.
        -13    1    5    5    0    0  0.20625178328E+02 -0.12220295585E+03 -0.58382747760E+02  0.13699454601E+03  0.00000000000E+00 0. -1.
          2    1    6    6  503    0  0.18022427936E+03  0.35728737961E+03 -0.15110020212E+03  0.42774564121E+03  0.00000000000E+00 0. -1.
         -2    1    6    6    0  503  0.94991506109E+02  0.75767135954E+02 -0.53426883799E+02  0.13273461130E+03  0.00000000000E+00 0.  1.
<mgrwt>
<rscale>  0 0.14589392E+04</rscale>
<asrwt>0</asrwt>
<pdfrwt beam="1">  1        2 0.14288863E+00 0.14589392E+04</pdfrwt>
<pdfrwt beam="2">  1       -1 0.88143440E-01 0.14589392E+04</pdfrwt>
<totfact> 0.39238098E+01</totfact>
</mgrwt>
</event>
<event>
12    7  0.1909736E-007  0.1884429E+04  0.7818608E-02  0.8662646E-01
          2   -1    0    0  501    0  0.00000000000E+00  0.00000000000E+00  0.34003317282E+04  0.34003317282E+04  0.00000000000E+00 0. -1.
         -1   -1    0    0    0  501 -0.00000000000E+00 -0.00000000000E+00 -0.26108279551E+03  0.26108279551E+03  0.00000000000E+00 0.  1.
         24    2    1    2    0    0 -0.20847069242E+03 -0.61692181956E+03  0.60835859388E+03  0.89477265554E+03  0.80407495299E+02 0.  0.
        254    2    1    2    0    0  0.20847069242E+03  0.61692181956E+03  0.25308903388E+04  0.27666418682E+04  0.90821184678E+03 0.  0.
         23    2    4    4    0    0  0.40338464216E+03  0.19412048826E+03  0.20115406400E+04  0.20631370124E+04  0.99179898689E+02 0.  0.
         23    2    4    4    0    0 -0.19491394974E+03  0.42280133131E+03  0.51934969884E+03  0.70350485576E+03  0.91883397994E+02 0.  0.
          4    1    3    3  502    0 -0.11534707311E+03 -0.22178764571E+03  0.22144109985E+03  0.33396237478E+03  0.00000000000E+00 0. -1.
         -3    1    3    3    0  502 -0.93123619314E+02 -0.39513417385E+03  0.38691749404E+03  0.56081028076E+03  0.00000000000E+00 0.  1.
         13    1    5    5    0    0  0.36268430648E+03  0.17310087945E+03  0.16279042788E+04  0.16767755250E+04  0.00000000000E+00 0.  1.
        -13    1    5    5    0    0  0.40700335683E+02  0.21019608810E+02  0.38363636121E+03  0.38636148736E+03  0.00000000000E+00 0. -1.
          4    1    6    6  503    0 -0.11642731317E+03  0.31482266916E+03  0.41689950051E+03  0.53523249695E+03  0.00000000000E+00 0. -1.
         -4    1    6    6    0  503 -0.78486636568E+02  0.10797866215E+03  0.10245019834E+03  0.16827235881E+03  0.00000000000E+00 0.  1.
<mgrwt>
<rscale>  0 0.18844289E+04</rscale>
<asrwt>0</asrwt>
<pdfrwt beam="1">  1        2 0.52312793E+00 0.18844289E+04</pdfrwt>
<pdfrwt beam="2">  1       -1 0.40166586E-01 0.18844289E+04</pdfrwt>
<totfact> 0.61863888E+00</totfact>
</mgrwt>
</event>
<event>
12    7  0.1909736E-007  0.1997324E+04  0.7818608E-02  0.8607873E-01
         -1   -1    0    0    0  501 -0.00000000000E+00  0.00000000000E+00  0.21060224054E+04  0.21060224054E+04  0.00000000000E+00 0.  1.
          2   -1    0    0  501    0  0.00000000000E+00 -0.00000000000E+00 -0.47355907358E+03  0.47355907358E+03  0.00000000000E+00 0. -1.
         24    2    1    2    0    0  0.73871012064E+03  0.26097861354E+03  0.78783679289E+03  0.11159328255E+04  0.10400374884E+03 0.  0.
        254    2    1    2    0    0 -0.73871012064E+03 -0.26097861354E+03  0.84462653893E+03  0.14636486535E+04  0.90281277763E+03 0.  0.
         23    2    4    4    0    0  0.19984036886E+03 -0.84930982119E+02  0.18572405109E+03  0.29982910959E+03  0.90854978176E+02 0.  0.
         23    2    4    4    0    0 -0.93855048949E+03 -0.17604763142E+03  0.65890248784E+03  0.11638195439E+04  0.91943745515E+02 0.  0.
          4    1    3    3  502    0  0.58477221959E+03  0.16841424325E+03  0.64176452874E+03  0.88441145203E+03  0.00000000000E+00 0. -1.
         -3    1    3    3    0  502  0.15393790104E+03  0.92564370289E+02  0.14607226415E+03  0.23152137348E+03  0.00000000000E+00 0.  1.
         13    1    5    5    0    0  0.15885721018E+03 -0.82309795432E+02  0.10045731482E+03  0.20518817644E+03  0.00000000000E+00 0. -1.
        -13    1    5    5    0    0  0.40983158679E+02 -0.26211866875E+01  0.85266736266E+02  0.94640933155E+02  0.00000000000E+00 0.  1.
          1    1    6    6  503    0 -0.79259982384E+03 -0.13761541093E+03  0.59158348425E+03  0.99856071468E+03  0.00000000000E+00 0. -1.
         -1    1    6    6    0  503 -0.14595066566E+03 -0.38432220491E+02  0.67319003588E+02  0.16525882918E+03  0.00000000000E+00 0.  1.
<mgrwt>
<rscale>  0 0.19973242E+04</rscale>
<asrwt>0</asrwt>
<pdfrwt beam="1">  1        2 0.72855243E-01 0.19973242E+04</pdfrwt>
<pdfrwt beam="2">  1       -1 0.32400344E+00 0.19973242E+04</pdfrwt>
<totfact> 0.16064034E+00</totfact>
</mgrwt>
</event>
<event>
12    7  0.1909736E-007  0.1369301E+04  0.7818608E-02  0.8976345E-01
         -1   -1    0    0    0  501 -0.00000000000E+00  0.00000000000E+00  0.72389403385E+03  0.72389403385E+03  0.00000000000E+00 0.  1.
          2   -1    0    0  501    0  0.00000000000E+00 -0.00000000000E+00 -0.64753436183E+03  0.64753436183E+03  0.00000000000E+00 0. -1.
         24    2    1    2    0    0 -0.67563260875E+02  0.65319427994E+02 -0.35135310382E+03  0.37250301835E+03  0.80486478533E+02 0.  0.
        254    2    1    2    0    0  0.67563260875E+02 -0.65319427994E+02  0.42771277583E+03  0.99892537733E+03  0.89782084459E+03 0.  0.
         23    2    4    4    0    0  0.32686138129E+03  0.26961733379E+03  0.35337695139E+03  0.55931338623E+03  0.91784121618E+02 0.  0.
         23    2    4    4    0    0 -0.25929812041E+03 -0.33493676179E+03  0.74335824442E+02  0.43961199110E+03  0.91185186738E+02 0.  0.
          2    1    3    3  502    0 -0.58004444771E+02  0.67285945913E+02 -0.35169169157E+03  0.36273814254E+03  0.00000000000E+00 0. -1.
         -1    1    3    3    0  502 -0.95588161040E+01 -0.19665179190E+01  0.33858775464E+00  0.97648758160E+01  0.00000000000E+00 0.  1.
         13    1    5    5    0    0  0.92071194150E+02  0.28585744708E+02  0.91704778129E+02  0.13305643887E+03  0.00000000000E+00 0. -1.
        -13    1    5    5    0    0  0.23479018714E+03  0.24103158908E+03  0.26167217326E+03  0.42625694736E+03  0.00000000000E+00 0.  1.
          2    1    6    6  503    0  0.57289901317E+01 -0.10153587288E+02  0.10297552621E+02  0.15554943032E+02  0.00000000000E+00 0.  1.
         -2    1    6    6    0  503 -0.26502711055E+03 -0.32478317450E+03  0.64038271821E+02  0.42405704807E+03  0.00000000000E+00 0. -1.
<mgrwt>
<rscale>  0 0.13693009E+04</rscale>
<asrwt>0</asrwt>
<pdfrwt beam="1">  1        2 0.99620671E-01 0.13693009E+04</pdfrwt>
<pdfrwt beam="2">  1       -1 0.11136831E+00 0.13693009E+04</pdfrwt>
<totfact> 0.37327875E+01</totfact>
</mgrwt>
</event>
<event>
12    7  0.2121266E-007  0.2133943E+04  0.7818608E-02  0.8546437E-01
         -1   -1    0    0    0  501 -0.00000000000E+00  0.00000000000E+00  0.43646988682E+03  0.43646988682E+03  0.00000000000E+00 0.  1.
          2   -1    0    0  501    0  0.00000000000E+00 -0.00000000000E+00 -0.26082624439E+04  0.26082624439E+04  0.00000000000E+00 0. -1.
         24    2    1    2    0    0  0.18593731855E+03 -0.42358088524E+03  0.16258080553E+03  0.49697544661E+03  0.80985328524E+02 0.  0.
        254    2    1    2    0    0 -0.18593731855E+03  0.42358088524E+03 -0.23343733626E+04  0.25477568841E+04  0.90982014246E+03 0.  0.
         23    2    4    4    0    0 -0.40788184864E+03  0.58195907605E+03 -0.18555800012E+04  0.19892120482E+04  0.93506488513E+02 0.  0.
         23    2    4    4    0    0  0.22194453009E+03 -0.15837819080E+03 -0.47879336138E+03  0.55854483582E+03  0.91576334095E+02 0.  0.
          4    1    3    3  502    0  0.43974226660E+02 -0.94667581212E+02  0.73977376888E+02  0.12793879722E+03  0.00000000000E+00 0. -1.
         -3    1    3    3    0  502  0.14196309189E+03 -0.32891330403E+03  0.88603428641E+02  0.36903664939E+03  0.00000000000E+00 0.  1.
         13    1    5    5    0    0 -0.12489744263E+03  0.25715763826E+03 -0.75813174798E+03  0.81024266080E+03  0.00000000000E+00 0. -1.
        -13    1    5    5    0    0 -0.28298440601E+03  0.32480143779E+03 -0.10974482532E+04  0.11789693874E+04  0.00000000000E+00 0.  1.
          3    1    6    6  503    0  0.15656173503E+02 -0.54364449890E+02 -0.97160744626E+02  0.11243139898E+03  0.00000000000E+00 0. -1.
         -3    1    6    6    0  503  0.20628835658E+03 -0.10401374091E+03 -0.38163261675E+03  0.44611343684E+03  0.00000000000E+00 0.  1.
<mgrwt>
<rscale>  0 0.21339428E+04</rscale>
<asrwt>0</asrwt>
<pdfrwt beam="1">  1        2 0.40127115E+00 0.21339428E+04</pdfrwt>
<pdfrwt beam="2">  1       -1 0.67149213E-01 0.21339428E+04</pdfrwt>
<totfact> 0.70737794E+00</totfact>
</mgrwt>
</event>
<event>
12    7  0.1909736E-007  0.1540245E+04  0.7818608E-02  0.8858123E-01
         -1   -1    0    0    0  501 -0.00000000000E+00  0.00000000000E+00  0.43013041133E+03  0.43013041133E+03  0.00000000000E+00 0.  1.
          2   -1    0    0  501    0  0.00000000000E+00 -0.00000000000E+00 -0.13788572594E+04  0.13788572594E+04  0.00000000000E+00 0. -1.
         24    2    1    2    0    0  0.18479469499E+03 -0.27200068694E+03  0.13424612870E+03  0.36423044092E+03  0.80674271150E+02 0.  0.
        254    2    1    2    0    0 -0.18479469499E+03  0.27200068694E+03 -0.10829729767E+04  0.14447572298E+04  0.89797524000E+03 0.  0.
         23    2    4    4    0    0 -0.15520743770E+03  0.12175429114E+03 -0.12073579362E+04  0.12266499633E+04  0.89685508297E+02 0.  0.
         23    2    4    4    0    0 -0.29587257285E+02  0.15024639580E+03  0.12438495942E+03  0.21810726645E+03  0.93004173583E+02 0.  0.
          4    1    3    3  502    0  0.79594078267E+02 -0.17438410612E+03  0.51154858192E+02  0.19839821894E+03  0.00000000000E+00 0. -1.
         -3    1    3    3    0  502  0.10520061672E+03 -0.97616580820E+02  0.83091270510E+02  0.16583222197E+03  0.00000000000E+00 0.  1.
         13    1    5    5    0    0 -0.15280318577E+02  0.61038112287E+02 -0.41516419169E+03  0.41990528140E+03  0.00000000000E+00 0.  1.
        -13    1    5    5    0    0 -0.13992711913E+03  0.60716178852E+02 -0.79219374447E+03  0.80674468192E+03  0.00000000000E+00 0. -1.
          1    1    6    6  503    0  0.31670901827E+02  0.40780027207E+02  0.51995271445E+02  0.73277315004E+02  0.00000000000E+00 0. -1.
         -1    1    6    6    0  503 -0.61258159112E+02  0.10946636860E+03  0.72389687972E+02  0.14482995145E+03  0.00000000000E+00 0.  1.
<mgrwt>
<rscale>  0 0.15402447E+04</rscale>
<asrwt>0</asrwt>
<pdfrwt beam="1">  1        2 0.21213188E+00 0.15402447E+04</pdfrwt>
<pdfrwt beam="2">  1       -1 0.66173910E-01 0.15402447E+04</pdfrwt>
<totfact> 0.37810289E+01</totfact>
</mgrwt>
</event>
<event>
12    7  0.1909736E-007  0.3296018E+04  0.7818608E-02  0.8163909E-01
         -1   -1    0    0    0  501 -0.00000000000E+00  0.00000000000E+00  0.12291242688E+04  0.12291242688E+04  0.00000000000E+00 0.  1.
          2   -1    0    0  501    0  0.00000000000E+00 -0.00000000000E+00 -0.22096498469E+04  0.22096498469E+04  0.00000000000E+00 0. -1.
         24    2    1    2    0    0  0.81503339877E+03 -0.53772504315E+03  0.76159705107E+03  0.12410326097E+04  0.81879222550E+02 0.  0.
        254    2    1    2    0    0 -0.81503339877E+03  0.53772504315E+03 -0.17421226292E+04  0.21977415059E+04  0.91741419682E+03 0.  0.
         23    2    4    4    0    0 -0.87522234821E+03  0.49409716721E+03 -0.18013748517E+04  0.20648954061E+04  0.93249732629E+02 0.  0.
         23    2    4    4    0    0  0.60188949438E+02  0.43627875945E+02  0.59252222506E+02  0.13284609975E+03  0.92796331567E+02 0.  0.
          2    1    3    3  502    0  0.45589703104E+02 -0.10054345787E+02  0.31310479499E+02  0.56212605568E+02  0.00000000000E+00 0. -1.
         -1    1    3    3    0  502  0.76944369566E+03 -0.52767069736E+03  0.73028657157E+03  0.11848200042E+04  0.00000000000E+00 0.  1.
         13    1    5    5    0    0 -0.76762051424E+03  0.41034972126E+03 -0.16049151500E+04  0.18257548538E+04  0.00000000000E+00 0. -1.
        -13    1    5    5    0    0 -0.10760183397E+03  0.83747445950E+02 -0.19645970169E+03  0.23914055232E+03  0.00000000000E+00 0.  1.
          4    1    6    6  503    0  0.14233884218E+02  0.65954599392E+02  0.28757017620E+02  0.73345611344E+02  0.00000000000E+00 0. -1.
         -4    1    6    6    0  503  0.45955065220E+02 -0.22326723448E+02  0.30495204885E+02  0.59500488404E+02  0.00000000000E+00 0.  1.
<mgrwt>
<rscale>  0 0.32960184E+04</rscale>
<asrwt>0</asrwt>
<pdfrwt beam="1">  1        2 0.33994613E+00 0.32960184E+04</pdfrwt>
<pdfrwt beam="2">  1       -1 0.18909604E+00 0.32960184E+04</pdfrwt>
<totfact> 0.86857472E-01</totfact>
</mgrwt>
</event>
<event>
12    7  0.1909736E-007  0.2960707E+04  0.7818608E-02  0.8255041E-01
          2   -1    0    0  501    0  0.00000000000E+00  0.00000000000E+00  0.24731721602E+04  0.24731721602E+04  0.00000000000E+00 0. -1.
         -1   -1    0    0    0  501 -0.00000000000E+00 -0.00000000000E+00 -0.88608741345E+03  0.88608741345E+03  0.00000000000E+00 0.  1.
         24    2    1    2    0    0 -0.80435365798E+03 -0.43289491766E+03 -0.39235617740E+03  0.99733613992E+03  0.79706895660E+02 0.  0.
        254    2    1    2    0    0  0.80435365798E+03  0.43289491766E+03  0.19794409241E+04  0.23619234337E+04  0.90890765082E+03 0.  0.
         23    2    4    4    0    0  0.88061035852E+02  0.35705540240E+03  0.17593369288E+03  0.41771362757E+03  0.91042319559E+02 0.  0.
         23    2    4    4    0    0  0.71629262213E+03  0.75839515262E+02  0.18035072312E+04  0.19442098061E+04  0.92123202928E+02 0.  0.
          2    1    3    3  502    0 -0.11089894773E+03 -0.41994924142E+02 -0.75335698517E+02  0.14049063219E+03  0.00000000000E+00 0. -1.
         -1    1    3    3    0  502 -0.69345471024E+03 -0.39089999352E+03 -0.31702047888E+03  0.85684550773E+03  0.00000000000E+00 0.  1.
         13    1    5    5    0    0  0.10101831000E+03  0.25373892347E+03  0.10975563943E+03  0.29433729058E+03  0.00000000000E+00 0. -1.
        -13    1    5    5    0    0 -0.12957274144E+02  0.10331647892E+03  0.66178053446E+02  0.12337633699E+03  0.00000000000E+00 0.  1.
          4    1    6    6  503    0  0.20546560627E+03 -0.16328208696E+02  0.55907543759E+03  0.59585910304E+03  0.00000000000E+00 0.  1.
         -4    1    6    6    0  503  0.51082701586E+03  0.92167723958E+02  0.12444317936E+04  0.13483507031E+04  0.00000000000E+00 0. -1.
<mgrwt>
<rscale>  0 0.29607072E+04</rscale>
<asrwt>0</asrwt>
<pdfrwt beam="1">  1        2 0.38048802E+00 0.29607072E+04</pdfrwt>
<pdfrwt beam="2">  1       -1 0.13632114E+00 0.29607072E+04</pdfrwt>
<totfact> 0.15818823E+00</totfact>
</mgrwt>
</event>
<event>
12    7  0.1909736E-007  0.2153713E+04  0.7818608E-02  0.8537945E-01
          2   -1    0    0  501    0  0.00000000000E+00  0.00000000000E+00  0.52829129054E+03  0.52829129054E+03  0.00000000000E+00 0. -1.
         -1   -1    0    0    0  501 -0.00000000000E+00 -0.00000000000E+00 -0.21950384525E+04  0.21950384525E+04  0.00000000000E+00 0.  1.
         24    2    1    2    0    0 -0.71246391610E+02 -0.83900322949E+03 -0.33070593944E+03  0.90807595856E+03  0.78949735398E+02 0.  0.
        254    2    1    2    0    0  0.71246391610E+02  0.83900322949E+03 -0.13360412225E+04  0.18152537844E+04  0.89506295106E+03 0.  0.
         23    2    4    4    0    0 -0.30956836869E+03  0.34416033870E+02 -0.45848778061E+03  0.56184453255E+03  0.91875978949E+02 0.  0.
         23    2    4    4    0    0  0.38081476030E+03  0.80458719562E+03 -0.87755344186E+03  0.12534092519E+04  0.92489309483E+02 0.  0.
          4    1    3    3  502    0 -0.40803862407E+02 -0.36396466154E+03 -0.18465018309E+03  0.41015962764E+03  0.00000000000E+00 0. -1.
         -3    1    3    3    0  502 -0.30442529203E+02 -0.47503856796E+03 -0.14605575635E+03  0.49791633092E+03  0.00000000000E+00 0.  1.
         13    1    5    5    0    0 -0.24204031185E+03  0.44558058198E+02 -0.29189847417E+03  0.38180315915E+03  0.00000000000E+00 0. -1.
        -13    1    5    5    0    0 -0.67528056845E+02 -0.10142024327E+02 -0.16658930644E+03  0.18004137341E+03  0.00000000000E+00 0.  1.
          2    1    6    6  503    0  0.13773932169E+03  0.26544186918E+03 -0.35542147229E+03  0.46449534940E+03  0.00000000000E+00 0. -1.
         -2    1    6    6    0  503  0.24307543861E+03  0.53914532645E+03 -0.52213196957E+03  0.78891390248E+03  0.00000000000E+00 0.  1.
<mgrwt>
<rscale>  0 0.21537128E+04</rscale>
<asrwt>0</asrwt>
<pdfrwt beam="1">  1        2 0.81275583E-01 0.21537128E+04</pdfrwt>
<pdfrwt beam="2">  1       -1 0.33769822E+00 0.21537128E+04</pdfrwt>
<totfact> 0.11344799E+00</totfact>
</mgrwt>
</event>
<event>
12    7  0.1909736E-007  0.2154491E+04  0.7818608E-02  0.8537612E-01
         -1   -1    0    0    0  501 -0.00000000000E+00  0.00000000000E+00  0.76665625676E+03  0.76665625676E+03  0.00000000000E+00 0.  1.
          2   -1    0    0  501    0  0.00000000000E+00 -0.00000000000E+00 -0.15136609546E+04  0.15136609546E+04  0.00000000000E+00 0. -1.
         24    2    1    2    0    0 -0.42558203769E+03  0.52330145516E+02  0.51516073821E+03  0.67482678237E+03  0.78371455704E+02 0.  0.
        254    2    1    2    0    0  0.42558203769E+03 -0.52330145516E+02 -0.12621654361E+04  0.16054904290E+04  0.89480691477E+03 0.  0.
         23    2    4    4    0    0  0.28710196066E+03 -0.22649506820E+03 -0.13084981291E+04  0.13618137146E+04  0.92960679286E+02 0.  0.
         23    2    4    4    0    0  0.13848007703E+03  0.17416492268E+03  0.46332692991E+02  0.24367671437E+03  0.87871899162E+02 0.  0.
          2    1    3    3  502    0 -0.19307679905E+02 -0.84620932024E+01  0.89455881440E+01  0.22900154408E+02  0.00000000000E+00 0. -1.
         -1    1    3    3    0  502 -0.40627435779E+03  0.60792238719E+02  0.50621515007E+03  0.65192662796E+03  0.00000000000E+00 0.  1.
         13    1    5    5    0    0  0.22773419172E+03 -0.13679014286E+03 -0.83461788812E+03  0.87587751680E+03  0.00000000000E+00 0. -1.
        -13    1    5    5    0    0  0.59367768937E+02 -0.89704925334E+02 -0.47388024095E+03  0.48593619785E+03  0.00000000000E+00 0.  1.
          2    1    6    6  503    0  0.95550899273E+02  0.12102297269E+03  0.72667277133E+02  0.17046133708E+03  0.00000000000E+00 0. -1.
         -2    1    6    6    0  503  0.42929177758E+02  0.53141949984E+02 -0.26334584142E+02  0.73215377299E+02  0.00000000000E+00 0.  1.
<mgrwt>
<rscale>  0 0.21544908E+04</rscale>
<asrwt>0</asrwt>
<pdfrwt beam="1">  1        2 0.23287091E+00 0.21544908E+04</pdfrwt>
<pdfrwt beam="2">  1       -1 0.11794712E+00 0.21544908E+04</pdfrwt>
<totfact> 0.84167184E+00</totfact>
</mgrwt>
</event>
<event>
12    7  0.1909736E-007  0.1592287E+04  0.7818608E-02  0.8825301E-01
          2   -1    0    0  501    0  0.00000000000E+00  0.00000000000E+00  0.81801058794E+03  0.81801058794E+03  0.00000000000E+00 0. -1.
         -1   -1    0    0    0  501 -0.00000000000E+00 -0.00000000000E+00 -0.77486053864E+03  0.77486053864E+03  0.00000000000E+00 0.  1.
         24    2    1    2    0    0  0.18943309618E+02 -0.83645863265E+02  0.55001254867E+03  0.56273200955E+03  0.82450175574E+02 0.  0.
        254    2    1    2    0    0 -0.18943309618E+02  0.83645863265E+02 -0.50686249937E+03  0.10301391170E+04  0.89270461394E+03 0.  0.
         23    2    4    4    0    0  0.26774426049E+03  0.36583460521E+03 -0.15469783610E+03  0.48771998953E+03  0.91746500208E+02 0.  0.
         23    2    4    4    0    0 -0.28668757011E+03 -0.28218874195E+03 -0.35216466328E+03  0.54241912750E+03  0.91533113570E+02 0.  0.
          4    1    3    3  502    0  0.25050016299E+02 -0.81603586600E+02  0.54969671182E+03  0.55628511003E+03  0.00000000000E+00 0. -1.
         -3    1    3    3    0  502 -0.61067066813E+01 -0.20422766655E+01  0.31583685853E+00  0.64468995177E+01  0.00000000000E+00 0.  1.
         13    1    5    5    0    0  0.24758691606E+03  0.27735985665E+03 -0.12514356454E+03  0.39228648056E+03  0.00000000000E+00 0. -1.
        -13    1    5    5    0    0  0.20157344431E+02  0.88474748560E+02 -0.29554271552E+02  0.95433508969E+02  0.00000000000E+00 0.  1.
          3    1    6    6  503    0 -0.15106670970E+03 -0.10695748942E+03 -0.11531870215E+03  0.21808131141E+03  0.00000000000E+00 0. -1.
         -3    1    6    6    0  503 -0.13562086041E+03 -0.17523125253E+03 -0.23684596113E+03  0.32433781609E+03  0.00000000000E+00 0.  1.
<mgrwt>
<rscale>  0 0.15922866E+04</rscale>
<asrwt>0</asrwt>
<pdfrwt beam="1">  1        2 0.12584778E+00 0.15922866E+04</pdfrwt>
<pdfrwt beam="2">  1       -1 0.11920931E+00 0.15922866E+04</pdfrwt>
<totfact> 0.23048467E+01</totfact>
</mgrwt>
</event>
<event>
12    7  0.1909736E-007  0.1599638E+04  0.7818608E-02  0.8820770E-01
          2   -1    0    0  501    0  0.00000000000E+00  0.00000000000E+00  0.16424404324E+04  0.16424404324E+04  0.00000000000E+00 0. -1.
         -1   -1    0    0    0  501 -0.00000000000E+00 -0.00000000000E+00 -0.38948779331E+03  0.38948779331E+03  0.00000000000E+00 0.  1.
         24    2    1    2    0    0 -0.38820266522E+03  0.27885545314E+03  0.77392376468E+03  0.91317854096E+03  0.80469752709E+02 0.  0.
        254    2    1    2    0    0  0.38820266522E+03 -0.27885545314E+03  0.47902887444E+03  0.11187496848E+04  0.89088187860E+03 0.  0.
         23    2    4    4    0    0  0.63093411895E+03 -0.10710814641E+02  0.27941970167E+03  0.69617140646E+03  0.91578782914E+02 0.  0.
         23    2    4    4    0    0 -0.24273145372E+03 -0.26814463850E+03  0.19960917276E+03  0.42257827832E+03  0.88929599560E+02 0.  0.
          2    1    3    3  502    0 -0.34714633765E+03  0.27597398743E+03  0.70383285331E+03  0.83189717326E+03  0.00000000000E+00 0. -1.
         -1    1    3    3    0  502 -0.41056327575E+02  0.28814657135E+01  0.70090911370E+02  0.81281367700E+02  0.00000000000E+00 0.  1.
         13    1    5    5    0    0 -0.38063194337E+00  0.28050954008E+01 -0.32680598533E+01  0.43236160895E+01  0.00000000000E+00 0.  1.
        -13    1    5    5    0    0  0.63131475089E+03 -0.13515910042E+02  0.28268776153E+03  0.69184779037E+03  0.00000000000E+00 0. -1.
          3    1    6    6  503    0 -0.13160528197E+03 -0.96275316503E+02  0.12217504105E+03  0.20375384037E+03  0.00000000000E+00 0. -1.
         -3    1    6    6    0  503 -0.11112617175E+03 -0.17186932200E+03  0.77434131713E+02  0.21882443795E+03  0.00000000000E+00 0.  1.
<mgrwt>
<rscale>  0 0.15996381E+04</rscale>
<asrwt>0</asrwt>
<pdfrwt beam="1">  1        2 0.25268314E+00 0.15996381E+04</pdfrwt>
<pdfrwt beam="2">  1       -1 0.59921200E-01 0.15996381E+04</pdfrwt>
<totfact> 0.32574473E+01</totfact>
</mgrwt>
</event>
<event>
12    7  0.1909736E-007  0.2573733E+04  0.7818608E-02  0.8377179E-01
         -1   -1    0    0    0  501 -0.00000000000E+00  0.00000000000E+00  0.29651284169E+03  0.29651284169E+03  0.00000000000E+00 0.  1.
          2   -1    0    0  501    0  0.00000000000E+00 -0.00000000000E+00 -0.55850020512E+04  0.55850020512E+04  0.00000000000E+00 0. -1.
         24    2    1    2    0    0 -0.35241083189E+03 -0.31504909008E+03 -0.46833973903E+04  0.47078905011E+04  0.81071150365E+02 0.  0.
        254    2    1    2    0    0  0.35241083189E+03  0.31504909008E+03 -0.60509181916E+03  0.11736243917E+04  0.88758592803E+03 0.  0.
         23    2    4    4    0    0  0.47268638117E+03 -0.49522855864E+02 -0.61027182903E+03  0.77914714568E+03  0.93560895270E+02 0.  0.
         23    2    4    4    0    0 -0.12027554929E+03  0.36457194594E+03  0.51800098675E+01  0.39447724604E+03  0.90590030432E+02 0.  0.
          2    1    3    3  502    0 -0.30845829353E+03 -0.27542663063E+03 -0.43150781454E+04  0.43348478346E+04  0.00000000000E+00 0. -1.
         -1    1    3    3    0  502 -0.43952538358E+02 -0.39622459450E+02 -0.36831924487E+03  0.37304266655E+03  0.00000000000E+00 0.  1.
         13    1    5    5    0    0  0.91331847412E+02 -0.22822657053E+02 -0.70046881145E+02  0.11734115043E+03  0.00000000000E+00 0.  1.
        -13    1    5    5    0    0  0.38135453376E+03 -0.26700198811E+02 -0.54022494788E+03  0.66180599525E+03  0.00000000000E+00 0. -1.
          1    1    6    6  503    0 -0.10726939876E+03  0.35719776201E+03  0.19911022356E+02  0.37348817104E+03  0.00000000000E+00 0. -1.
         -1    1    6    6    0  503 -0.13006150524E+02  0.73741839271E+01 -0.14731012488E+02  0.20989074991E+02  0.00000000000E+00 0.  1.
<mgrwt>
<rscale>  0 0.25737326E+04</rscale>
<asrwt>0</asrwt>
<pdfrwt beam="1">  1        2 0.85923100E+00 0.25737326E+04</pdfrwt>
<pdfrwt beam="2">  1       -1 0.45617365E-01 0.25737326E+04</pdfrwt>
<totfact> 0.20067349E-02</totfact>
</mgrwt>
</event>
<event>
12    7  0.1909736E-007  0.1526777E+04  0.7818608E-02  0.8866839E-01
         -1   -1    0    0    0  501 -0.00000000000E+00  0.00000000000E+00  0.21855644749E+03  0.21855644749E+03  0.00000000000E+00 0.  1.
          2   -1    0    0  501    0  0.00000000000E+00 -0.00000000000E+00 -0.26664129346E+04  0.26664129346E+04  0.00000000000E+00 0. -1.
         24    2    1    2    0    0  0.29618946791E+02  0.37690445165E+03 -0.13895167301E+04  0.14422422519E+04  0.79823068682E+02 0.  0.
        254    2    1    2    0    0 -0.29618946791E+02 -0.37690445165E+03 -0.10583397570E+04  0.14427271302E+04  0.90467910509E+03 0.  0.
         23    2    4    4    0    0  0.39515244833E+03 -0.35602583373E+03 -0.50681305000E+03  0.74026831010E+03  0.90762611183E+02 0.  0.
         23    2    4    4    0    0 -0.42477139512E+03 -0.20878617919E+02 -0.55152670699E+03  0.70245882005E+03  0.91651680588E+02 0.  0.
          2    1    3    3  502    0  0.43737302130E+02  0.12360292094E+03 -0.41321772242E+03  0.43351991856E+03  0.00000000000E+00 0. -1.
         -1    1    3    3    0  502 -0.14118355339E+02  0.25330153070E+03 -0.97629900770E+03  0.10087223334E+04  0.00000000000E+00 0.  1.
         13    1    5    5    0    0  0.26392355980E+03 -0.28834137209E+03 -0.34707591654E+03  0.52274093404E+03  0.00000000000E+00 0. -1.
        -13    1    5    5    0    0  0.13122888853E+03 -0.67684461641E+02 -0.15973713346E+03  0.21752737607E+03  0.00000000000E+00 0.  1.
          3    1    6    6  503    0 -0.21104104149E+03  0.35311514225E+02 -0.27804526290E+03  0.35084810453E+03  0.00000000000E+00 0. -1.
         -3    1    6    6    0  503 -0.21373035363E+03 -0.56190132144E+02 -0.27348144409E+03  0.35161071553E+03  0.00000000000E+00 0.  1.
<mgrwt>
<rscale>  0 0.15267767E+04</rscale>
<asrwt>0</asrwt>
<pdfrwt beam="1">  1        2 0.41021737E+00 0.15267767E+04</pdfrwt>
<pdfrwt beam="2">  1       -1 0.33624069E-01 0.15267767E+04</pdfrwt>
<totfact> 0.25552809E+01</totfact>
</mgrwt>
</event>
<event>
12    7  0.1909736E-007  0.2906563E+04  0.7818608E-02  0.8270928E-01
         -1   -1    0    0    0  501 -0.00000000000E+00  0.00000000000E+00  0.10705711824E+04  0.10705711824E+04  0.00000000000E+00 0.  1.
          2   -1    0    0  501    0  0.00000000000E+00 -0.00000000000E+00 -0.19728037275E+04  0.19728037275E+04  0.00000000000E+00 0. -1.
         24    2    1    2    0    0 -0.11647000743E+04 -0.17783932456E+03  0.21878917048E+03  0.12008772087E+04  0.78001800281E+02 0.  0.
        254    2    1    2    0    0  0.11647000743E+04  0.17783932456E+03 -0.11210217156E+04  0.18424977012E+04  0.86599942466E+03 0.  0.
         23    2    4    4    0    0  0.11889420836E+04  0.33382486386E+03 -0.80349145399E+03  0.14761617693E+04  0.91829922269E+02 0.  0.
         23    2    4    4    0    0 -0.24242009271E+02 -0.15598553930E+03 -0.31753026161E+03  0.36633593189E+03  0.91964038998E+02 0.  0.
          2    1    3    3  502    0 -0.92935740778E+03 -0.15875704371E+03  0.20163506303E+03  0.96413987003E+03  0.00000000000E+00 0. -1.
         -3    1    3    3    0  502 -0.23534266650E+03 -0.19082280855E+02  0.17154107446E+02  0.23673733867E+03  0.00000000000E+00 0.  1.
         13    1    5    5    0    0  0.11088127021E+04  0.33070776901E+03 -0.73575926310E+03  0.13711947090E+04  0.00000000000E+00 0. -1.
        -13    1    5    5    0    0  0.80129381454E+02  0.31170948559E+01 -0.67732190893E+02  0.10496706024E+03  0.00000000000E+00 0.  1.
          1    1    6    6  503    0 -0.22413123671E+01  0.66627394425E+01 -0.63552984347E+02  0.63940577080E+02  0.00000000000E+00 0.  1.
         -1    1    6    6    0  503 -0.22000696904E+02 -0.16264827874E+03 -0.25397727726E+03  0.30239535481E+03  0.00000000000E+00 0. -1.
<mgrwt>
<rscale>  0 0.29065628E+04</rscale>
<asrwt>0</asrwt>
<pdfrwt beam="1">  1        2 0.30350826E+00 0.29065628E+04</pdfrwt>
<pdfrwt beam="2">  1       -1 0.16470326E+00 0.29065628E+04</pdfrwt>
<totfact> 0.18286404E+00</totfact>
</mgrwt>
</event>
<event>
12    7  0.1909736E-007  0.2189850E+04  0.7818608E-02  0.8522665E-01
          2   -1    0    0  501    0  0.00000000000E+00  0.00000000000E+00  0.28667105155E+04  0.28667105155E+04  0.00000000000E+00 0. -1.
         -1   -1    0    0    0  501 -0.00000000000E+00 -0.00000000000E+00 -0.41820090093E+03  0.41820090093E+03  0.00000000000E+00 0.  1.
         24    2    1    2    0    0  0.73802447921E+03 -0.26160581285E+03  0.33086075749E+03  0.85396178344E+03  0.81634266710E+02 0.  0.
        254    2    1    2    0    0 -0.73802447921E+03  0.26160581285E+03  0.21176488571E+04  0.24309496330E+04  0.90108917592E+03 0.  0.
         23    2    4    4    0    0 -0.37747883733E+03 -0.19250268368E+02  0.16300897283E+03  0.42156427940E+03  0.91014674544E+02 0.  0.
         23    2    4    4    0    0 -0.36054564188E+03  0.28085608122E+03  0.19546398842E+04  0.20093853536E+04  0.90217092863E+02 0.  0.
          2    1    3    3  502    0  0.67891017512E+02 -0.29831513746E+02  0.72022436986E+01  0.74504911150E+02  0.00000000000E+00 0. -1.
         -1    1    3    3    0  502  0.67013346170E+03 -0.23177429911E+03  0.32365851379E+03  0.77945687229E+03  0.00000000000E+00 0.  1.
         13    1    5    5    0    0 -0.26750962962E+03 -0.53489148538E+02  0.10218946359E+03  0.29131628417E+03  0.00000000000E+00 0. -1.
        -13    1    5    5    0    0 -0.10996920771E+03  0.34238880171E+02  0.60819509239E+02  0.13024799524E+03  0.00000000000E+00 0.  1.
          4    1    6    6  503    0 -0.22795726775E+03  0.22956955620E+03  0.13332863325E+04  0.13719763634E+04  0.00000000000E+00 0. -1.
         -4    1    6    6    0  503 -0.13258837413E+03  0.51286525017E+02  0.62135355169E+03  0.63740899021E+03  0.00000000000E+00 0.  1.
<mgrwt>
<rscale>  0 0.21898502E+04</rscale>
<asrwt>0</asrwt>
<pdfrwt beam="1">  1        2 0.44103237E+00 0.21898502E+04</pdfrwt>
<pdfrwt beam="2">  1       -1 0.64338602E-01 0.21898502E+04</pdfrwt>
<totfact> 0.53748586E+00</totfact>
</mgrwt>
</event>
<event>
12    7  0.1909736E-007  0.1115639E+04  0.7818608E-02  0.9190082E-01
         -1   -1    0    0    0  501 -0.00000000000E+00  0.00000000000E+00  0.49851890692E+03  0.49851890692E+03  0.00000000000E+00 0.  1.
          2   -1    0    0  501    0  0.00000000000E+00 -0.00000000000E+00 -0.62417419227E+03  0.62417419227E+03  0.00000000000E+00 0. -1.
         24    2    1    2    0    0 -0.12553940364E+03 -0.44355519238E+02 -0.12938013968E+03  0.20172563860E+03  0.78907913230E+02 0.  0.
        254    2    1    2    0    0  0.12553940364E+03  0.44355519238E+02  0.37248543316E+01  0.92096746059E+03  0.91128460701E+03 0.  0.
         23    2    4    4    0    0  0.19992986235E+03 -0.41103721525E+01 -0.42349701569E+03  0.47740117925E+03  0.92592216890E+02 0.  0.
         23    2    4    4    0    0 -0.74390458709E+02  0.48465891391E+02  0.42722187003E+03  0.44356628134E+03  0.79684607901E+02 0.  0.
          2    1    3    3  502    0 -0.11041519067E+03 -0.60237140672E+02 -0.83780942841E+02  0.15112668140E+03  0.00000000000E+00 0. -1.
         -1    1    3    3    0  502 -0.15124212974E+02  0.15881621434E+02 -0.45599196839E+02  0.50598957201E+02  0.00000000000E+00 0.  1.
         13    1    5    5    0    0  0.27628234365E+02 -0.34443310511E+02 -0.10731859914E+03  0.11604715720E+03  0.00000000000E+00 0.  1.
        -13    1    5    5    0    0  0.17230162799E+03  0.30332938359E+02 -0.31617841656E+03  0.36135402205E+03  0.00000000000E+00 0. -1.
          1    1    6    6  503    0 -0.24016803689E+02 -0.19651366317E+02  0.16828399298E+03  0.17112125920E+03  0.00000000000E+00 0. -1.
         -1    1    6    6    0  503 -0.50373655020E+02  0.68117257708E+02  0.25893787705E+03  0.27244502214E+03  0.00000000000E+00 0.  1.
<mgrwt>
<rscale>  0 0.11156391E+04</rscale>
<asrwt>0</asrwt>
<pdfrwt beam="1">  1        2 0.96026798E-01 0.11156391E+04</pdfrwt>
<pdfrwt beam="2">  1       -1 0.76695217E-01 0.11156391E+04</pdfrwt>
<totfact> 0.91432796E+01</totfact>
</mgrwt>
</event>
<event>
12    7  0.1909736E-007  0.1472153E+04  0.7818608E-02  0.8903185E-01
          2   -1    0    0  501    0  0.00000000000E+00  0.00000000000E+00  0.25917771592E+04  0.25917771592E+04  0.00000000000E+00 0. -1.
         -1   -1    0    0    0  501 -0.00000000000E+00 -0.00000000000E+00 -0.20904904615E+03  0.20904904615E+03  0.00000000000E+00 0.  1.
         24    2    1    2    0    0  0.20633821561E+03  0.27505583545E+03  0.13100513571E+04  0.13568203514E+04  0.80596128241E+02 0.  0.
        254    2    1    2    0    0 -0.20633821561E+03 -0.27505583545E+03  0.10726767559E+04  0.14440058539E+04  0.90348564552E+03 0.  0.
         23    2    4    4    0    0 -0.34844624899E+03  0.11199557661E+03  0.91993697433E+03  0.99441931340E+03  0.92886686370E+02 0.  0.
         23    2    4    4    0    0  0.14210803338E+03 -0.38705141206E+03  0.15273978161E+03  0.44958654054E+03  0.93782342798E+02 0.  0.
          2    1    3    3  502    0  0.47959971727E+02  0.77345348263E+02  0.49542963170E+03  0.50371914968E+03  0.00000000000E+00 0. -1.
         -1    1    3    3    0  502  0.15837824388E+03  0.19771048719E+03  0.81462172539E+03  0.85310120171E+03  0.00000000000E+00 0.  1.
         13    1    5    5    0    0 -0.32045868682E+03  0.12620487544E+03  0.81231297975E+03  0.88231163293E+03  0.00000000000E+00 0. -1.
        -13    1    5    5    0    0 -0.27987562166E+02 -0.14209298826E+02  0.10762399459E+03  0.11210768047E+03  0.00000000000E+00 0.  1.
          2    1    6    6  503    0 -0.34895881484E+01 -0.13840827633E+02 -0.97450274448E+01  0.17283266326E+02  0.00000000000E+00 0.  1.
         -2    1    6    6    0  503  0.14559762153E+03 -0.37321058443E+03  0.16248480905E+03  0.43230327422E+03  0.00000000000E+00 0. -1.
<mgrwt>
<rscale>  0 0.14721529E+04</rscale>
<asrwt>0</asrwt>
<pdfrwt beam="1">  1        2 0.39873493E+00 0.14721529E+04</pdfrwt>
<pdfrwt beam="2">  1       -1 0.32161393E-01 0.14721529E+04</pdfrwt>
<totfact> 0.30734285E+01</totfact>
</mgrwt>
</event>
<event>
12    7  0.1909736E-007  0.2359594E+04  0.7818608E-02  0.8454788E-01
         -1   -1    0    0    0  501 -0.00000000000E+00  0.00000000000E+00  0.70313633121E+03  0.70313633121E+03  0.00000000000E+00 0.  1.
          2   -1    0    0  501    0  0.00000000000E+00 -0.00000000000E+00 -0.19795887786E+04  0.19795887786E+04  0.00000000000E+00 0. -1.
         24    2    1    2    0    0  0.11789928540E+03  0.97254930197E+02  0.58446079805E+03  0.60939712628E+03  0.80072905001E+02 0.  0.
        254    2    1    2    0    0 -0.11789928540E+03 -0.97254930197E+02 -0.18609132454E+04  0.20733279835E+04  0.90129465621E+03 0.  0.
         23    2    4    4    0    0 -0.10673371063E+03 -0.16375110435E+02  0.58399498805E+02  0.15010444407E+03  0.86374842643E+02 0.  0.
         23    2    4    4    0    0 -0.11165574775E+02 -0.80879819762E+02 -0.19193127442E+04  0.19232235395E+04  0.91439363720E+02 0.  0.
          4    1    3    3  502    0  0.18930169429E+02  0.17395701777E+02  0.25716411793E+02  0.36363382549E+02  0.00000000000E+00 0. -1.
         -3    1    3    3    0  502  0.98969115974E+02  0.79859228420E+02  0.55874438626E+03  0.57303374373E+03  0.00000000000E+00 0.  1.
         13    1    5    5    0    0 -0.29552819230E+02 -0.46302121818E+02  0.16682643912E+02  0.57407022368E+02  0.00000000000E+00 0.  1.
        -13    1    5    5    0    0 -0.77180891398E+02  0.29927011383E+02  0.41716854893E+02  0.92697421698E+02  0.00000000000E+00 0. -1.
          1    1    6    6  503    0  0.94440022572E+01 -0.94014562785E+02 -0.13002813014E+04  0.13037098565E+04  0.00000000000E+00 0. -1.
         -1    1    6    6    0  503 -0.20609577032E+02  0.13134743024E+02 -0.61903144282E+03  0.61951368294E+03  0.00000000000E+00 0.  1.
<mgrwt>
<rscale>  0 0.23595939E+04</rscale>
<asrwt>0</asrwt>
<pdfrwt beam="1">  1        2 0.30455211E+00 0.23595939E+04</pdfrwt>
<pdfrwt beam="2">  1       -1 0.10817482E+00 0.23595939E+04</pdfrwt>
<totfact> 0.55904980E+00</totfact>
</mgrwt>
</event>
<event>
12    7  0.1909736E-007  0.1297566E+04  0.7818608E-02  0.9031497E-01
          2   -1    0    0  501    0  0.00000000000E+00  0.00000000000E+00  0.51867825122E+03  0.51867825122E+03  0.00000000000E+00 0. -1.
         -1   -1    0    0    0  501 -0.00000000000E+00 -0.00000000000E+00 -0.81152330223E+03  0.81152330223E+03  0.00000000000E+00 0.  1.
         24    2    1    2    0    0 -0.17705174904E+03 -0.62427517464E+02 -0.35901229008E+03  0.41305231694E+03  0.80485249138E+02 0.  0.
        254    2    1    2    0    0  0.17705174904E+03  0.62427517464E+02  0.66167239069E+02  0.91714923651E+03  0.89528772008E+03 0.  0.
         23    2    4    4    0    0 -0.14643169351E+03  0.21210224330E+02 -0.34393149661E+03  0.38541038488E+03  0.91433997680E+02 0.  0.
         23    2    4    4    0    0  0.32348344255E+03  0.41217293133E+02  0.41009873568E+03  0.53173885163E+03  0.90690851106E+02 0.  0.
          4    1    3    3  502    0 -0.40732551548E+02  0.16633686513E+02 -0.10868348671E+03  0.11725152692E+03  0.00000000000E+00 0. -1.
         -3    1    3    3    0  502 -0.13631919749E+03 -0.79061203977E+02 -0.25032880337E+03  0.29580079002E+03  0.00000000000E+00 0.  1.
         13    1    5    5    0    0 -0.97661935310E+02  0.28279407807E+02 -0.12564251295E+03  0.16162802844E+03  0.00000000000E+00 0. -1.
        -13    1    5    5    0    0 -0.48769758198E+02 -0.70691834766E+01 -0.21828898365E+03  0.22378235644E+03  0.00000000000E+00 0.  1.
          2    1    6    6  503    0  0.20932292631E+03 -0.15567749073E+02  0.27529874801E+03  0.34619047206E+03  0.00000000000E+00 0. -1.
         -2    1    6    6    0  503  0.11416051624E+03  0.56785042206E+02  0.13479998767E+03  0.18554837958E+03  0.00000000000E+00 0.  1.
<mgrwt>
<rscale>  0 0.12975662E+04</rscale>
<asrwt>0</asrwt>
<pdfrwt beam="1">  1        2 0.79796655E-01 0.12975662E+04</pdfrwt>
<pdfrwt beam="2">  1       -1 0.12484974E+00 0.12975662E+04</pdfrwt>
<totfact> 0.37131262E+01</totfact>
</mgrwt>
</event>
<event>
12    7  0.1909736E-007  0.1577993E+04  0.7818608E-02  0.8834183E-01
          2   -1    0    0  501    0  0.00000000000E+00  0.00000000000E+00  0.57835482519E+03  0.57835482519E+03  0.00000000000E+00 0. -1.
         -1   -1    0    0    0  501 -0.00000000000E+00 -0.00000000000E+00 -0.10763556220E+04  0.10763556220E+04  0.00000000000E+00 0.  1.
         24    2    1    2    0    0  0.30098830127E+03  0.33887442652E+03 -0.45380378143E+03  0.64630691428E+03  0.79655012152E+02 0.  0.
        254    2    1    2    0    0 -0.30098830127E+03 -0.33887442652E+03 -0.44197015359E+02  0.10084035329E+04  0.89971910868E+03 0.  0.
         23    2    4    4    0    0 -0.10925294916E+03 -0.33482392023E+03  0.38487128671E+03  0.52988807547E+03  0.92801943589E+02 0.  0.
         23    2    4    4    0    0 -0.19173535211E+03 -0.40505062842E+01 -0.42906830207E+03  0.47851545742E+03  0.89992129105E+02 0.  0.
          2    1    3    3  502    0  0.17119621179E+03  0.18811995993E+03 -0.30918096739E+03  0.40036250180E+03  0.00000000000E+00 0. -1.
         -1    1    3    3    0  502  0.12979208948E+03  0.15075446659E+03 -0.14462281404E+03  0.24594441248E+03  0.00000000000E+00 0.  1.
         13    1    5    5    0    0 -0.24651256934E+02 -0.13934691419E+03  0.21525567008E+03  0.25760483393E+03  0.00000000000E+00 0.  1.
        -13    1    5    5    0    0 -0.84601692230E+02 -0.19547700605E+03  0.16961561663E+03  0.27228324154E+03  0.00000000000E+00 0. -1.
          1    1    6    6  503    0 -0.29741402399E+02  0.30554370371E+02 -0.56518176695E+02  0.70798480650E+02  0.00000000000E+00 0. -1.
         -1    1    6    6    0  503 -0.16199394971E+03 -0.34604876655E+02 -0.37255012537E+03  0.40771697677E+03  0.00000000000E+00 0.  1.
<mgrwt>
<rscale>  0 0.15779930E+04</rscale>
<asrwt>0</asrwt>
<pdfrwt beam="1">  1        2 0.88977667E-01 0.15779930E+04</pdfrwt>
<pdfrwt beam="2">  1       -1 0.16559317E+00 0.15779930E+04</pdfrwt>
<totfact> 0.15094333E+01</totfact>
</mgrwt>
</event>
<event>
12    7  0.1909736E-007  0.2292591E+04  0.7818608E-02  0.8480848E-01
         -1   -1    0    0    0  501 -0.00000000000E+00  0.00000000000E+00  0.84355842632E+03  0.84355842632E+03  0.00000000000E+00 0.  1.
          2   -1    0    0  501    0  0.00000000000E+00 -0.00000000000E+00 -0.15576790777E+04  0.15576790777E+04  0.00000000000E+00 0. -1.
         24    2    1    2    0    0  0.33241762857E+03  0.43698552603E+03 -0.11389174208E+04  0.12668620167E+04  0.79678404409E+02 0.  0.
        254    2    1    2    0    0 -0.33241762857E+03 -0.43698552603E+03  0.42479676947E+03  0.11343754873E+04  0.89716086689E+03 0.  0.
         23    2    4    4    0    0 -0.30396252633E+03 -0.66629609030E+03  0.13072317484E+03  0.74950878752E+03  0.91275280165E+02 0.  0.
         23    2    4    4    0    0 -0.28455102240E+02  0.22931056426E+03  0.29407359464E+03  0.38486669978E+03  0.90829894912E+02 0.  0.
          4    1    3    3  502    0  0.25964263180E+03  0.34977311884E+03 -0.82350653348E+03  0.93162145832E+03  0.00000000000E+00 0. -1.
         -3    1    3    3    0  502  0.72774996771E+02  0.87212407194E+02 -0.31541088736E+03  0.33524055839E+03  0.00000000000E+00 0.  1.
         13    1    5    5    0    0 -0.54876084194E+02 -0.21872823083E+03  0.49857736536E+02  0.23095284685E+03  0.00000000000E+00 0.  1.
        -13    1    5    5    0    0 -0.24908644214E+03 -0.44756785947E+03  0.80865438299E+02  0.51855594067E+03  0.00000000000E+00 0. -1.
          1    1    6    6  503    0 -0.17520856377E+02  0.20510281444E+03  0.19960179073E+03  0.28673161626E+03  0.00000000000E+00 0. -1.
         -1    1    6    6    0  503 -0.10934245862E+02  0.24207749822E+02  0.94471803906E+02  0.98135083519E+02  0.00000000000E+00 0.  1.
<mgrwt>
<rscale>  0 0.22925909E+04</rscale>
<asrwt>0</asrwt>
<pdfrwt beam="1">  1        2 0.23964294E+00 0.22925909E+04</pdfrwt>
<pdfrwt beam="2">  1       -1 0.12977822E+00 0.22925909E+04</pdfrwt>
<totfact> 0.61989637E+00</totfact>
</mgrwt>
</event>
<event>
12    7  0.1909736E-007  0.1346144E+04  0.7818608E-02  0.8993752E-01
         -1   -1    0    0    0  501 -0.00000000000E+00  0.00000000000E+00  0.27763135913E+03  0.27763135913E+03  0.00000000000E+00 0.  1.
          2   -1    0    0  501    0  0.00000000000E+00 -0.00000000000E+00 -0.16317534844E+04  0.16317534844E+04  0.00000000000E+00 0. -1.
         24    2    1    2    0    0 -0.74616769101E+02 -0.22380105896E+03  0.22598829238E+02  0.24992047282E+03  0.79340780352E+02 0.  0.
        254    2    1    2    0    0  0.74616769101E+02  0.22380105896E+03 -0.13767209545E+04  0.16594643707E+04  0.89599488550E+03 0.  0.
         23    2    4    4    0    0  0.32973845534E+02 -0.12946063630E+03 -0.12666919407E+04  0.12769824079E+04  0.91259337722E+02 0.  0.
         23    2    4    4    0    0  0.41642923567E+02  0.35326169526E+03 -0.11002901378E+03  0.38248196274E+03  0.87510625227E+02 0.  0.
          2    1    3    3  502    0 -0.69038830278E+02 -0.18158595365E+03 -0.12597586964E+02  0.19467541664E+03  0.00000000000E+00 0. -1.
         -1    1    3    3    0  502 -0.55779388234E+01 -0.42215105315E+02  0.35196416201E+02  0.55245056174E+02  0.00000000000E+00 0.  1.
         13    1    5    5    0    0  0.54919489377E+02 -0.68951412294E+02 -0.51038003357E+03  0.51793650792E+03  0.00000000000E+00 0.  1.
        -13    1    5    5    0    0 -0.21945643842E+02 -0.60509224005E+02 -0.75631190713E+03  0.75904590002E+03  0.00000000000E+00 0. -1.
          2    1    6    6  503    0  0.18389677482E+02  0.43548286833E+02  0.12021202340E+02  0.48776457741E+02  0.00000000000E+00 0. -1.
         -2    1    6    6    0  503  0.23253246084E+02  0.30971340843E+03 -0.12205021612E+03  0.33370550500E+03  0.00000000000E+00 0.  1.
<mgrwt>
<rscale>  0 0.13461440E+04</rscale>
<asrwt>0</asrwt>
<pdfrwt beam="1">  1        2 0.25103900E+00 0.13461440E+04</pdfrwt>
<pdfrwt beam="2">  1       -1 0.42712516E-01 0.13461440E+04</pdfrwt>
<totfact> 0.64304321E+01</totfact>
</mgrwt>
</event>
<event>
12    7  0.1909736E-007  0.1092624E+04  0.7818608E-02  0.9212411E-01
          2   -1    0    0  501    0  0.00000000000E+00  0.00000000000E+00  0.36631088885E+03  0.36631088885E+03  0.00000000000E+00 0. -1.
         -1   -1    0    0    0  501 -0.00000000000E+00 -0.00000000000E+00 -0.81476323454E+03  0.81476323454E+03  0.00000000000E+00 0.  1.
         24    2    1    2    0    0  0.87936775898E+02 -0.55386647419E+02  0.47364653882E+02  0.13781229175E+03  0.77124963881E+02 0.  0.
        254    2    1    2    0    0 -0.87936775898E+02  0.55386647419E+02 -0.49581699957E+03  0.10432618316E+04  0.91200887881E+03 0.  0.
         23    2    4    4    0    0 -0.22047878954E+03  0.34085373962E+03  0.36235871984E+02  0.41793808491E+03  0.92558284080E+02 0.  0.
         23    2    4    4    0    0  0.13254201365E+03 -0.28546709220E+03 -0.53205287156E+03  0.62532374673E+03  0.94290423578E+02 0.  0.
          4    1    3    3  502    0  0.89783663506E+02 -0.28289242840E+02  0.55727701090E+02  0.10939362030E+03  0.00000000000E+00 0. -1.
         -3    1    3    3    0  502 -0.18468876084E+01 -0.27097404579E+02 -0.83630472081E+01  0.28418671457E+02  0.00000000000E+00 0.  1.
         13    1    5    5    0    0 -0.43329598543E+02  0.65780556905E+02  0.44853287106E+02  0.90644101523E+02  0.00000000000E+00 0. -1.
        -13    1    5    5    0    0 -0.17714919100E+03  0.27507318272E+03 -0.86174151213E+01  0.32729398339E+03  0.00000000000E+00 0.  1.
          3    1    6    6  503    0  0.54081980610E+02 -0.20771157656E+03 -0.39239400373E+03  0.44726056592E+03  0.00000000000E+00 0. -1.
         -3    1    6    6    0  503  0.78460033036E+02 -0.77755515637E+02 -0.13965886783E+03  0.17806318080E+03  0.00000000000E+00 0.  1.
<mgrwt>
<rscale>  0 0.10926237E+04</rscale>
<asrwt>0</asrwt>
<pdfrwt beam="1">  1        2 0.56355522E-01 0.10926237E+04</pdfrwt>
<pdfrwt beam="2">  1       -1 0.12534819E+00 0.10926237E+04</pdfrwt>
<totfact> 0.55519337E+01</totfact>
</mgrwt>
</event>
<event>
12    7  0.1909736E-007  0.1945276E+04  0.7818608E-02  0.8632642E-01
          2   -1    0    0  501    0  0.00000000000E+00  0.00000000000E+00  0.33293257586E+04  0.33293257586E+04  0.00000000000E+00 0. -1.
         -1   -1    0    0    0  501 -0.00000000000E+00 -0.00000000000E+00 -0.28414902504E+03  0.28414902504E+03  0.00000000000E+00 0.  1.
         24    2    1    2    0    0 -0.36537771391E+03 -0.16385144066E+03 -0.62620803152E+01  0.40828966594E+03  0.79454825148E+02 0.  0.
        254    2    1    2    0    0  0.36537771391E+03  0.16385144066E+03  0.30514388139E+04  0.32051851177E+04  0.89531259089E+03 0.  0.
         23    2    4    4    0    0  0.15866197353E+02  0.18738210363E+03  0.26743465796E+04  0.26824940951E+04  0.91000844573E+02 0.  0.
         23    2    4    4    0    0  0.34951151655E+03 -0.23530662965E+02  0.37709223429E+03  0.52269102256E+03  0.91078864711E+02 0.  0.
          4    1    3    3  502    0  0.28714680924E+01 -0.30266225516E+01  0.47254043915E+01  0.63035878465E+01  0.00000000000E+00 0. -1.
         -3    1    3    3    0  502 -0.36824918200E+03 -0.16082481811E+03 -0.10987484707E+02  0.40198607810E+03  0.00000000000E+00 0.  1.
         13    1    5    5    0    0  0.31877886813E+02  0.18681221931E+03  0.25635094803E+04  0.25705049816E+04  0.00000000000E+00 0. -1.
        -13    1    5    5    0    0 -0.16011689460E+02  0.56988431788E+00  0.11083709928E+03  0.11198911350E+03  0.00000000000E+00 0.  1.
          3    1    6    6  503    0  0.34110054828E+03 -0.37124352705E+02  0.34360674985E+03  0.48558562597E+03  0.00000000000E+00 0. -1.
         -3    1    6    6    0  503  0.84109682713E+01  0.13593689740E+02  0.33485484442E+02  0.37105396593E+02  0.00000000000E+00 0.  1.
<mgrwt>
<rscale>  0 0.19452760E+04</rscale>
<asrwt>0</asrwt>
<pdfrwt beam="1">  1        2 0.51220394E+00 0.19452760E+04</pdfrwt>
<pdfrwt beam="2">  1       -1 0.43715237E-01 0.19452760E+04</pdfrwt>
<totfact> 0.58742346E+00</totfact>
</mgrwt>
</event>
<event>
12    7  0.1909736E-007  0.2057422E+04  0.7818608E-02  0.8580235E-01
         -1   -1    0    0    0  501 -0.00000000000E+00  0.00000000000E+00  0.10916381785E+04  0.10916381785E+04  0.00000000000E+00 0.  1.
          2   -1    0    0  501    0  0.00000000000E+00 -0.00000000000E+00 -0.96941109018E+03  0.96941109018E+03  0.00000000000E+00 0. -1.
         24    2    1    2    0    0  0.28976169861E+03 -0.11829554798E+03  0.81555510398E+03  0.87732448735E+03  0.81316971358E+02 0.  0.
        254    2    1    2    0    0 -0.28976169861E+03  0.11829554798E+03 -0.69332801570E+03  0.11837247813E+04  0.90694263424E+03 0.  0.
         23    2    4    4    0    0 -0.31518808688E+03 -0.11777047187E+03  0.90019587634E+02  0.36000895273E+03  0.91046722807E+02 0.  0.
         23    2    4    4    0    0  0.25426388268E+02  0.23606601984E+03 -0.78334760333E+03  0.82371582855E+03  0.92198869894E+02 0.  0.
          2    1    3    3  502    0  0.19920989180E+03 -0.47548006845E+02  0.58300315755E+03  0.61793047801E+03  0.00000000000E+00 0. -1.
         -1    1    3    3    0  502  0.90551806811E+02 -0.70747541133E+02  0.23255194643E+03  0.25939400934E+03  0.00000000000E+00 0.  1.
         13    1    5    5    0    0 -0.18272881745E+03 -0.94143751092E+02  0.15347493717E+02  0.20612717472E+03  0.00000000000E+00 0. -1.
        -13    1    5    5    0    0 -0.13245926943E+03 -0.23626720773E+02  0.74672093917E+02  0.15388177801E+03  0.00000000000E+00 0.  1.
          3    1    6    6  503    0  0.57133749214E+02  0.14116181512E+03 -0.41651661401E+03  0.44348282165E+03  0.00000000000E+00 0. -1.
         -3    1    6    6    0  503 -0.31707360946E+02  0.94904204724E+02 -0.36683098932E+03  0.38023300690E+03  0.00000000000E+00 0.  1.
<mgrwt>
<rscale>  0 0.20574218E+04</rscale>
<asrwt>0</asrwt>
<pdfrwt beam="1">  1        2 0.14914017E+00 0.20574218E+04</pdfrwt>
<pdfrwt beam="2">  1       -1 0.16794433E+00 0.20574218E+04</pdfrwt>
<totfact> 0.70869360E+00</totfact>
</mgrwt>
</event>
<event>
12    7  0.1909736E-007  0.1586148E+04  0.7818608E-02  0.8829103E-01
         -1   -1    0    0    0  501 -0.00000000000E+00  0.00000000000E+00  0.30130855605E+03  0.30130855605E+03  0.00000000000E+00 0.  1.
          2   -1    0    0  501    0  0.00000000000E+00 -0.00000000000E+00 -0.20874498916E+04  0.20874498916E+04  0.00000000000E+00 0. -1.
         24    2    1    2    0    0 -0.43867001858E+03  0.71360317967E+02 -0.10566003643E+04  0.11490321495E+04  0.79667249831E+02 0.  0.
        254    2    1    2    0    0  0.43867001858E+03 -0.71360317967E+02 -0.72954097129E+03  0.12397262981E+04  0.89842505826E+03 0.  0.
         23    2    4    4    0    0  0.37073052817E+03  0.74402772205E+02  0.89830378238E+02  0.39937253623E+03  0.91934916154E+02 0.  0.
         23    2    4    4    0    0  0.67939490404E+02 -0.14576309017E+03 -0.81937134952E+03  0.84035376190E+03  0.94669868018E+02 0.  0.
          4    1    3    3  502    0 -0.41362677937E+03  0.62887797530E+02 -0.10290480513E+04  0.11108473701E+04  0.00000000000E+00 0. -1.
         -3    1    3    3    0  502 -0.25043239204E+02  0.84725204372E+01 -0.27552312944E+02  0.38184779440E+02  0.00000000000E+00 0.  1.
         13    1    5    5    0    0  0.31025358593E+03  0.27642236341E+02  0.84500006341E+02  0.32274081223E+03  0.00000000000E+00 0. -1.
        -13    1    5    5    0    0  0.60476942246E+02  0.46760535864E+02  0.53303718968E+01  0.76631723994E+02  0.00000000000E+00 0.  1.
          1    1    6    6  503    0 -0.37481935756E+01 -0.33909083568E+02 -0.37496736742E+03  0.37651613715E+03  0.00000000000E+00 0. -1.
         -1    1    6    6    0  503  0.71687683980E+02 -0.11185400660E+03 -0.44440398211E+03  0.46383762476E+03  0.00000000000E+00 0.  1.
<mgrwt>
<rscale>  0 0.15861482E+04</rscale>
<asrwt>0</asrwt>
<pdfrwt beam="1">  1        2 0.32114614E+00 0.15861482E+04</pdfrwt>
<pdfrwt beam="2">  1       -1 0.46355162E-01 0.15861482E+04</pdfrwt>
<totfact> 0.30258988E+01</totfact>
</mgrwt>
</event>
<event>
12    7  0.1909736E-007  0.2906092E+04  0.7818608E-02  0.8271067E-01
          2   -1    0    0  501    0  0.00000000000E+00  0.00000000000E+00  0.99105854286E+03  0.99105854286E+03  0.00000000000E+00 0. -1.
         -1   -1    0    0    0  501 -0.00000000000E+00 -0.00000000000E+00 -0.21303914827E+04  0.21303914827E+04  0.00000000000E+00 0.  1.
         24    2    1    2    0    0  0.99600965444E+03  0.32907777983E+03 -0.13636545307E+04  0.17222544195E+04  0.79241337576E+02 0.  0.
        254    2    1    2    0    0 -0.99600965444E+03 -0.32907777983E+03  0.22432159087E+03  0.13991956060E+04  0.89838786219E+03 0.  0.
         23    2    4    4    0    0 -0.94364090669E+03 -0.19078908945E+03  0.48829916820E+03  0.10832819018E+04  0.90581254458E+02 0.  0.
         23    2    4    4    0    0 -0.52368747747E+02 -0.13828869038E+03 -0.26397757734E+03  0.31591370425E+03  0.90835343159E+02 0.  0.
          4    1    3    3  502    0  0.29944031974E+03  0.13461246421E+03 -0.44912342526E+03  0.55632443027E+03  0.00000000000E+00 0. -1.
         -3    1    3    3    0  502  0.69656933470E+03  0.19446531562E+03 -0.91453110547E+03  0.11659299893E+04  0.00000000000E+00 0.  1.
         13    1    5    5    0    0 -0.32905699975E+03 -0.27014384983E+02  0.14619704333E+03  0.36108428594E+03  0.00000000000E+00 0. -1.
        -13    1    5    5    0    0 -0.61458390694E+03 -0.16377470447E+03  0.34210212488E+03  0.72219761585E+03  0.00000000000E+00 0.  1.
          3    1    6    6  503    0 -0.33666048089E+01  0.14439940901E+01  0.65541358944E+01  0.75083849258E+01  0.00000000000E+00 0. -1.
         -3    1    6    6    0  503 -0.49002142938E+02 -0.13973268447E+03 -0.27053171323E+03  0.30840531932E+03  0.00000000000E+00 0.  1.
<mgrwt>
<rscale>  0 0.29060920E+04</rscale>
<asrwt>0</asrwt>
<pdfrwt beam="1">  1        2 0.15247055E+00 0.29060920E+04</pdfrwt>
<pdfrwt beam="2">  1       -1 0.32775253E+00 0.29060920E+04</pdfrwt>
<totfact> 0.54645155E-01</totfact>
</mgrwt>
</event>
<event>
12    7  0.1909736E-007  0.1407371E+04  0.7818608E-02  0.8948500E-01
          2   -1    0    0  501    0  0.00000000000E+00  0.00000000000E+00  0.12280510173E+04  0.12280510173E+04  0.00000000000E+00 0. -1.
         -1   -1    0    0    0  501 -0.00000000000E+00 -0.00000000000E+00 -0.40321888619E+03  0.40321888619E+03  0.00000000000E+00 0.  1.
         24    2    1    2    0    0  0.35806184386E+03 -0.19230815728E+03  0.20339937135E+03  0.46146649736E+03  0.79933175449E+02 0.  0.
        254    2    1    2    0    0 -0.35806184386E+03  0.19230815728E+03  0.62143275979E+03  0.11698034062E+04  0.90391958864E+03 0.  0.
         23    2    4    4    0    0  0.11669705404E+03 -0.13402433628E+03 -0.11506327058E+03  0.23032628427E+03  0.90718883641E+02 0.  0.
         23    2    4    4    0    0 -0.47475889790E+03  0.32633249356E+03  0.73649603037E+03  0.93947712189E+03  0.91115049848E+02 0.  0.
          4    1    3    3  502    0  0.27265794303E+03 -0.10826822783E+03  0.12939346377E+03  0.32063535600E+03  0.00000000000E+00 0. -1.
         -3    1    3    3    0  502  0.85403900830E+02 -0.84039929451E+02  0.74005907578E+02  0.14083114136E+03  0.00000000000E+00 0.  1.
         13    1    5    5    0    0  0.10739573503E+03 -0.98684185946E+02 -0.47285004232E+02  0.15332411449E+03  0.00000000000E+00 0.  1.
        -13    1    5    5    0    0  0.93013190120E+01 -0.35340150336E+02 -0.67778266348E+02  0.77002169777E+02  0.00000000000E+00 0. -1.
          2    1    6    6  503    0 -0.12704789764E+03  0.71987813504E+02  0.25111820505E+03  0.29048884057E+03  0.00000000000E+00 0. -1.
         -2    1    6    6    0  503 -0.34771100026E+03  0.25434468006E+03  0.48537782532E+03  0.64898828132E+03  0.00000000000E+00 0.  1.
<mgrwt>
<rscale>  0 0.14073711E+04</rscale>
<asrwt>0</asrwt>
<pdfrwt beam="1">  1        2 0.18893092E+00 0.14073711E+04</pdfrwt>
<pdfrwt beam="2">  1       -1 0.62033676E-01 0.14073711E+04</pdfrwt>
<totfact> 0.53277860E+01</totfact>
</mgrwt>
</event>
<event>
12    7  0.1909736E-007  0.1531716E+04  0.7818608E-02  0.8863632E-01
          2   -1    0    0  501    0  0.00000000000E+00  0.00000000000E+00  0.61277417818E+03  0.61277417818E+03  0.00000000000E+00 0. -1.
         -1   -1    0    0    0  501 -0.00000000000E+00 -0.00000000000E+00 -0.95718577544E+03  0.95718577544E+03  0.00000000000E+00 0.  1.
         24    2    1    2    0    0  0.24327604496E+03  0.29503095580E+03 -0.46593011373E+03  0.60804101525E+03  0.79978162097E+02 0.  0.
        254    2    1    2    0    0 -0.24327604496E+03 -0.29503095580E+03  0.12151851646E+03  0.96191893837E+03  0.87423955253E+03 0.  0.
         23    2    4    4    0    0  0.27579159848E+03 -0.29516672717E+03 -0.21284092127E+02  0.41584384130E+03  0.96377824951E+02 0.  0.
         23    2    4    4    0    0 -0.51906764344E+03  0.13577137063E+00  0.14280260859E+03  0.54607509707E+03  0.91510598927E+02 0.  0.
          4    1    3    3  502    0  0.10265931867E+03  0.12590233168E+03 -0.26094933875E+03  0.30738394595E+03  0.00000000000E+00 0. -1.
         -3    1    3    3    0  502  0.14061672629E+03  0.16912862412E+03 -0.20498077498E+03  0.30065706930E+03  0.00000000000E+00 0.  1.
         13    1    5    5    0    0  0.50153958780E+02 -0.45712645962E+02  0.32443711891E+02  0.75217418351E+02  0.00000000000E+00 0. -1.
        -13    1    5    5    0    0  0.22563763970E+03 -0.24945408121E+03 -0.53727804018E+02  0.34062642295E+03  0.00000000000E+00 0.  1.
          4    1    6    6  503    0 -0.11650347503E+03 -0.37612453617E+02  0.41246715423E+02  0.12918609792E+03  0.00000000000E+00 0. -1.
         -4    1    6    6    0  503 -0.40256416841E+03  0.37748224988E+02  0.10155589317E+03  0.41688899915E+03  0.00000000000E+00 0.  1.
<mgrwt>
<rscale>  0 0.15317163E+04</rscale>
<asrwt>0</asrwt>
<pdfrwt beam="1">  1        2 0.94272951E-01 0.15317163E+04</pdfrwt>
<pdfrwt beam="2">  1       -1 0.14725935E+00 0.15317163E+04</pdfrwt>
<totfact> 0.19521652E+01</totfact>
</mgrwt>
</event>
<event>
12    7  0.1909736E-007  0.2309954E+04  0.7818608E-02  0.8474007E-01
          2   -1    0    0  501    0  0.00000000000E+00  0.00000000000E+00  0.21421395225E+04  0.21421395225E+04  0.00000000000E+00 0. -1.
         -1   -1    0    0    0  501 -0.00000000000E+00 -0.00000000000E+00 -0.62272865214E+03  0.62272865214E+03  0.00000000000E+00 0.  1.
         24    2    1    2    0    0 -0.75546497313E+03 -0.27288701810E+02  0.13870009458E+04  0.15815297072E+04  0.77411834212E+02 0.  0.
        254    2    1    2    0    0  0.75546497313E+03  0.27288701810E+02  0.13240992451E+03  0.11833384674E+04  0.90071390661E+03 0.  0.
         23    2    4    4    0    0  0.65624470889E+03 -0.36822188184E+03  0.10082377262E+03  0.76412620767E+03  0.86480956889E+02 0.  0.
         23    2    4    4    0    0  0.99220264233E+02  0.39551058365E+03  0.31586151887E+02  0.41921225978E+03  0.92021471101E+02 0.  0.
          2    1    3    3  502    0 -0.21634433365E+03 -0.35976439530E+02  0.35852078607E+03  0.42028124982E+03  0.00000000000E+00 0. -1.
         -1    1    3    3    0  502 -0.53912063948E+03  0.86877377202E+01  0.10284801597E+04  0.11612484573E+04  0.00000000000E+00 0.  1.
         13    1    5    5    0    0  0.58991606888E+03 -0.35170618059E+03  0.74314130532E+02  0.69081169343E+03  0.00000000000E+00 0. -1.
        -13    1    5    5    0    0  0.66328640013E+02 -0.16515701247E+02  0.26509642087E+02  0.73314514233E+02  0.00000000000E+00 0.  1.
          2    1    6    6  503    0  0.11008074210E+03  0.27157166489E+03  0.32191555046E+02  0.29479693888E+03  0.00000000000E+00 0. -1.
         -2    1    6    6    0  503 -0.10860477869E+02  0.12393891875E+03 -0.60540315835E+00  0.12441532090E+03  0.00000000000E+00 0.  1.
<mgrwt>
<rscale>  0 0.23099538E+04</rscale>
<asrwt>0</asrwt>
<pdfrwt beam="1">  1        2 0.32955992E+00 0.23099538E+04</pdfrwt>
<pdfrwt beam="2">  1       -1 0.95804409E-01 0.23099538E+04</pdfrwt>
<totfact> 0.60264764E+00</totfact>
</mgrwt>
</event>
<event>
12    7  0.1909736E-007  0.1216692E+04  0.7818608E-02  0.9098370E-01
          2   -1    0    0  501    0  0.00000000000E+00  0.00000000000E+00  0.22022349657E+04  0.22022349657E+04  0.00000000000E+00 0. -1.
         -1   -1    0    0    0  501 -0.00000000000E+00 -0.00000000000E+00 -0.16804980065E+03  0.16804980065E+03  0.00000000000E+00 0.  1.
         24    2    1    2    0    0  0.11012523881E+03  0.35728167702E+02  0.79617808234E+03  0.80868011785E+03  0.81608357526E+02 0.  0.
        254    2    1    2    0    0 -0.11012523881E+03 -0.35728167702E+02  0.12380070828E+04  0.15616046485E+04  0.94474518851E+03 0.  0.
         23    2    4    4    0    0 -0.69482823779E+02 -0.92502856047E+02  0.13742185582E+04  0.13820611384E+04  0.90728735257E+02 0.  0.
         23    2    4    4    0    0 -0.40642415032E+02  0.56774688345E+02 -0.13621147549E+03  0.17954351010E+03  0.93846336262E+02 0.  0.
          2    1    3    3  502    0  0.70448776577E+02  0.30573314961E+02  0.26246931944E+03  0.27347376722E+03  0.00000000000E+00 0. -1.
         -1    1    3    3    0  502  0.39676462235E+02  0.51548527418E+01  0.53370876290E+03  0.53520635063E+03  0.00000000000E+00 0.  1.
         13    1    5    5    0    0 -0.40842686944E+01 -0.80319250867E+02  0.77446436471E+03  0.77862886892E+03  0.00000000000E+00 0.  1.
        -13    1    5    5    0    0 -0.65398555085E+02 -0.12183605180E+02  0.59975419352E+03  0.60343226951E+03  0.00000000000E+00 0. -1.
          1    1    6    6  503    0  0.29961113408E+02  0.10863805319E+02 -0.28008214681E+02  0.42428182524E+02  0.00000000000E+00 0. -1.
         -1    1    6    6    0  503 -0.70603528440E+02  0.45910883025E+02 -0.10820326080E+03  0.13711532758E+03  0.00000000000E+00 0.  1.
<mgrwt>
<rscale>  0 0.12166925E+04</rscale>
<asrwt>0</asrwt>
<pdfrwt beam="1">  1        2 0.33880536E+00 0.12166925E+04</pdfrwt>
<pdfrwt beam="2">  1       -1 0.25853817E-01 0.12166925E+04</pdfrwt>
<totfact> 0.76642621E+01</totfact>
</mgrwt>
</event>
<event>
12    7  0.1909736E-007  0.2792342E+04  0.7818608E-02  0.8305650E-01
          2   -1    0    0  501    0  0.00000000000E+00  0.00000000000E+00  0.11944282844E+04  0.11944282844E+04  0.00000000000E+00 0. -1.
         -1   -1    0    0    0  501 -0.00000000000E+00 -0.00000000000E+00 -0.16319885405E+04  0.16319885405E+04  0.00000000000E+00 0.  1.
         24    2    1    2    0    0 -0.50187224446E+03 -0.94871250258E+03  0.44859379609E+03  0.11656862225E+04  0.75211787741E+02 0.  0.
        254    2    1    2    0    0  0.50187224446E+03  0.94871250258E+03 -0.88615405218E+03  0.16607306025E+04  0.90599446332E+03 0.  0.
         23    2    4    4    0    0  0.31653924697E+03  0.20230384500E+03 -0.79120889621E+03  0.88059550913E+03  0.91175614552E+02 0.  0.
         23    2    4    4    0    0  0.18533299749E+03  0.74640865758E+03 -0.94945155970E+02  0.78013509336E+03  0.90122012785E+02 0.  0.
          2    1    3    3  502    0 -0.17314567651E+03 -0.39403331567E+03  0.15839839765E+03  0.45861937545E+03  0.00000000000E+00 0. -1.
         -1    1    3    3    0  502 -0.32872656795E+03 -0.55467918691E+03  0.29019539844E+03  0.70706684701E+03  0.00000000000E+00 0.  1.
         13    1    5    5    0    0  0.19155540303E+03  0.89782832665E+02 -0.35723718023E+03  0.41517807313E+03  0.00000000000E+00 0. -1.
        -13    1    5    5    0    0  0.12498384394E+03  0.11252101234E+03 -0.43397171598E+03  0.46541743600E+03  0.00000000000E+00 0.  1.
          3    1    6    6  503    0 -0.65942401123E+01  0.68770672885E+01  0.26673176218E+01  0.98940709743E+01  0.00000000000E+00 0. -1.
         -3    1    6    6    0  503  0.19192723760E+03  0.73953159029E+03 -0.97612473592E+02  0.77024102239E+03  0.00000000000E+00 0.  1.
<mgrwt>
<rscale>  0 0.27923419E+04</rscale>
<asrwt>0</asrwt>
<pdfrwt beam="1">  1        2 0.18375820E+00 0.27923419E+04</pdfrwt>
<pdfrwt beam="2">  1       -1 0.25107516E+00 0.27923419E+04</pdfrwt>
<totfact> 0.12989791E+00</totfact>
</mgrwt>
</event>
<event>
12    7  0.1909736E-007  0.2051481E+04  0.7818608E-02  0.8582923E-01
          2   -1    0    0  501    0  0.00000000000E+00  0.00000000000E+00  0.42909248809E+04  0.42909248809E+04  0.00000000000E+00 0. -1.
         -1   -1    0    0    0  501 -0.00000000000E+00 -0.00000000000E+00 -0.24520212702E+03  0.24520212702E+03  0.00000000000E+00 0.  1.
         24    2    1    2    0    0 -0.20296636626E+03  0.87051054132E+01 -0.13332057237E+03  0.25593844342E+03  0.80367823856E+02 0.  0.
        254    2    1    2    0    0  0.20296636626E+03 -0.87051054132E+01  0.41790433262E+04  0.42801885645E+04  0.90240783479E+03 0.  0.
         23    2    4    4    0    0 -0.47225979018E+02  0.19041610291E+03  0.22449059074E+03  0.31171681126E+03  0.91009668433E+02 0.  0.
         23    2    4    4    0    0  0.25019234528E+03 -0.19912120832E+03  0.39545527355E+04  0.39684717532E+04  0.89639573364E+02 0.  0.
          4    1    3    3  502    0 -0.76965544429E+02  0.16671385111E+02 -0.98802190977E+01  0.79367807329E+02  0.00000000000E+00 0. -1.
         -3    1    3    3    0  502 -0.12600082183E+03 -0.79662796974E+01 -0.12344035327E+03  0.17657063609E+03  0.00000000000E+00 0.  1.
         13    1    5    5    0    0 -0.15422044255E+02  0.79793808775E+02  0.31810265632E+02  0.87274190729E+02  0.00000000000E+00 0. -1.
        -13    1    5    5    0    0 -0.31803934762E+02  0.11062229414E+03  0.19268032511E+03  0.22444262053E+03  0.00000000000E+00 0.  1.
          1    1    6    6  503    0  0.15905282589E+03 -0.97208291813E+02  0.18125126519E+04  0.18220728214E+04  0.00000000000E+00 0.  1.
         -1    1    6    6    0  503  0.91139519385E+02 -0.10191291651E+03  0.21420400836E+04  0.21463989318E+04  0.00000000000E+00 0. -1.
<mgrwt>
<rscale>  0 0.20514813E+04</rscale>
<asrwt>0</asrwt>
<pdfrwt beam="1">  1        2 0.66014223E+00 0.20514813E+04</pdfrwt>
<pdfrwt beam="2">  1       -1 0.37723407E-01 0.20514813E+04</pdfrwt>
<totfact> 0.13971853E+00</totfact>
</mgrwt>
</event>
<event>
12    7  0.1909736E-007  0.1831617E+04  0.7818608E-02  0.8689664E-01
          2   -1    0    0  501    0  0.00000000000E+00  0.00000000000E+00  0.45180686632E+03  0.45180686632E+03  0.00000000000E+00 0. -1.
         -1   -1    0    0    0  501 -0.00000000000E+00 -0.00000000000E+00 -0.18563360576E+04  0.18563360576E+04  0.00000000000E+00 0.  1.
         24    2    1    2    0    0 -0.43015623790E+03  0.57869075174E+03 -0.60796232270E+03  0.94643824123E+03  0.78802179432E+02 0.  0.
        254    2    1    2    0    0  0.43015623790E+03 -0.57869075174E+03 -0.79656686855E+03  0.13617046827E+04  0.83654258202E+03 0.  0.
         23    2    4    4    0    0  0.17697865724E+03  0.29639667912E+02  0.11602723363E+03  0.23219930964E+03  0.90852877906E+02 0.  0.
         23    2    4    4    0    0  0.25317758066E+03 -0.60833041965E+03 -0.91259410217E+03  0.11295053730E+04  0.93752896014E+02 0.  0.
          4    1    3    3  502    0 -0.30806234900E+02  0.75845483447E+02 -0.87953265661E+02  0.12015547598E+03  0.00000000000E+00 0. -1.
         -3    1    3    3    0  502 -0.39935000300E+03  0.50284526829E+03 -0.52000905704E+03  0.82628276525E+03  0.00000000000E+00 0.  1.
         13    1    5    5    0    0  0.13794475684E+03 -0.57738286043E+00  0.43833518672E+02  0.14474276034E+03  0.00000000000E+00 0. -1.
        -13    1    5    5    0    0  0.39033900398E+02  0.30217050772E+02  0.72193714953E+02  0.87456549305E+02  0.00000000000E+00 0.  1.
          2    1    6    6  503    0 -0.62828640865E+00  0.32397015688E+01 -0.32558978430E+01  0.46358689402E+01  0.00000000000E+00 0. -1.
         -2    1    6    6    0  503  0.25380586707E+03 -0.61157012122E+03 -0.90933820433E+03  0.11248695041E+04  0.00000000000E+00 0.  1.
<mgrwt>
<rscale>  0 0.18316172E+04</rscale>
<asrwt>0</asrwt>
<pdfrwt beam="1">  1        2 0.69508748E-01 0.18316172E+04</pdfrwt>
<pdfrwt beam="2">  1       -1 0.28559017E+00 0.18316172E+04</pdfrwt>
<totfact> 0.30533327E+00</totfact>
</mgrwt>
</event>
<event>
12    7  0.1909736E-007  0.1086201E+04  0.7818608E-02  0.9218747E-01
          2   -1    0    0  501    0  0.00000000000E+00  0.00000000000E+00  0.31605655265E+03  0.31605655265E+03  0.00000000000E+00 0. -1.
         -1   -1    0    0    0  501 -0.00000000000E+00 -0.00000000000E+00 -0.93324477589E+03  0.93324477589E+03  0.00000000000E+00 0.  1.
         24    2    1    2    0    0  0.11765628081E+03 -0.11651557336E+03 -0.68303563106E+02  0.19620732825E+03  0.80081581402E+02 0.  0.
        254    2    1    2    0    0 -0.11765628081E+03  0.11651557336E+03 -0.54888466013E+03  0.10530940003E+04  0.88335368005E+03 0.  0.
         23    2    4    4    0    0 -0.29900058911E+03  0.41535457870E+03 -0.22062319956E+03  0.56490651952E+03  0.92325518051E+02 0.  0.
         23    2    4    4    0    0  0.18134430830E+03 -0.29883900534E+03 -0.32826146057E+03  0.48818748076E+03  0.91547368089E+02 0.  0.
          2    1    3    3  502    0  0.22807800638E+02 -0.11756501954E+02  0.17334798395E+02  0.30966212935E+02  0.00000000000E+00 0. -1.
         -1    1    3    3    0  502  0.94848480169E+02 -0.10475907140E+03 -0.85638361501E+02  0.16524111532E+03  0.00000000000E+00 0.  1.
         13    1    5    5    0    0 -0.91116714467E+01  0.73451602460E+01  0.84833657576E+01  0.14454806473E+02  0.00000000000E+00 0. -1.
        -13    1    5    5    0    0 -0.28988891766E+03  0.40800941845E+03 -0.22910656532E+03  0.55045171305E+03  0.00000000000E+00 0.  1.
          3    1    6    6  503    0  0.15426332977E+02 -0.39181692929E+02 -0.87627787927E+02  0.97220399232E+02  0.00000000000E+00 0. -1.
         -3    1    6    6    0  503  0.16591797532E+03 -0.25965731241E+03 -0.24063367265E+03  0.39096708153E+03  0.00000000000E+00 0.  1.
<mgrwt>
<rscale>  0 0.10862010E+04</rscale>
<asrwt>0</asrwt>
<pdfrwt beam="1">  1        2 0.48624086E-01 0.10862010E+04</pdfrwt>
<pdfrwt beam="2">  1       -1 0.14357612E+00 0.10862010E+04</pdfrwt>
<totfact> 0.46261091E+01</totfact>
</mgrwt>
</event>
<event>
12    7  0.1909736E-007  0.1923625E+04  0.7818608E-02  0.8643185E-01
         -1   -1    0    0    0  501 -0.00000000000E+00  0.00000000000E+00  0.39145986259E+03  0.39145986259E+03  0.00000000000E+00 0.  1.
          2   -1    0    0  501    0  0.00000000000E+00 -0.00000000000E+00 -0.23631626627E+04  0.23631626627E+04  0.00000000000E+00 0. -1.
         24    2    1    2    0    0 -0.17818732988E+03 -0.72163222478E+03 -0.79585270590E+03  0.10919002967E+04  0.79755476838E+02 0.  0.
        254    2    1    2    0    0  0.17818732988E+03  0.72163222478E+03 -0.11758500942E+04  0.16627222286E+04  0.91077877283E+03 0.  0.
         23    2    4    4    0    0  0.54257117657E+03  0.45538665441E+03 -0.74389032339E+03  0.10312987722E+04  0.91890465590E+02 0.  0.
         23    2    4    4    0    0 -0.36438384669E+03  0.26624557037E+03 -0.43195977082E+03  0.63142345639E+03  0.91891491446E+02 0.  0.
          2    1    3    3  502    0 -0.62637018880E+02 -0.14575263970E+03 -0.14120654233E+03  0.21238294590E+03  0.00000000000E+00 0. -1.
         -1    1    3    3    0  502 -0.11555031100E+03 -0.57587958508E+03 -0.65464616357E+03  0.87951735080E+03  0.00000000000E+00 0.  1.
         13    1    5    5    0    0  0.43541982922E+03  0.38435034157E+03 -0.65265324200E+03  0.87365431782E+03  0.00000000000E+00 0.  1.
        -13    1    5    5    0    0  0.10715134734E+03  0.71036312839E+02 -0.91237081389E+02  0.15764445439E+03  0.00000000000E+00 0. -1.
          1    1    6    6  503    0 -0.70707053504E+01  0.37690298171E+01  0.45747607112E+01  0.92265321481E+01  0.00000000000E+00 0. -1.
         -1    1    6    6    0  503 -0.35731314134E+03  0.26247654055E+03 -0.43653453154E+03  0.62219692424E+03  0.00000000000E+00 0.  1.
<mgrwt>
<rscale>  0 0.19236250E+04</rscale>
<asrwt>0</asrwt>
<pdfrwt beam="1">  1        2 0.36356349E+00 0.19236250E+04</pdfrwt>
<pdfrwt beam="2">  1       -1 0.60224594E-01 0.19236250E+04</pdfrwt>
<totfact> 0.12422010E+01</totfact>
</mgrwt>
</event>
<event>
12    7  0.1909736E-007  0.1754297E+04  0.7818608E-02  0.8730989E-01
          2   -1    0    0  501    0  0.00000000000E+00  0.00000000000E+00  0.29205111498E+04  0.29205111498E+04  0.00000000000E+00 0. -1.
         -1   -1    0    0    0  501 -0.00000000000E+00 -0.00000000000E+00 -0.26344334659E+03  0.26344334659E+03  0.00000000000E+00 0.  1.
         24    2    1    2    0    0 -0.23676600999E+03 -0.58937323275E+03  0.94437072917E+03  0.11407838024E+04  0.78311294500E+02 0.  0.
        254    2    1    2    0    0  0.23676600999E+03  0.58937323275E+03  0.17126970740E+04  0.20431706939E+04  0.91531211407E+03 0.  0.
         23    2    4    4    0    0  0.83776024475E+02  0.29391648015E+03  0.23029242074E+02  0.31844971157E+03  0.86455498539E+02 0.  0.
         23    2    4    4    0    0  0.15298998551E+03  0.29545675260E+03  0.16896678320E+04  0.17247209824E+04  0.94786371927E+02 0.  0.
          2    1    3    3  502    0 -0.60629986538E+02 -0.25264358001E+03  0.37217283875E+03  0.45389139195E+03  0.00000000000E+00 0. -1.
         -1    1    3    3    0  502 -0.17613602345E+03 -0.33672965274E+03  0.57219789042E+03  0.68689241049E+03  0.00000000000E+00 0.  1.
         13    1    5    5    0    0  0.57454692841E+02  0.11113568063E+03  0.43946177508E+02  0.13260259332E+03  0.00000000000E+00 0.  1.
        -13    1    5    5    0    0  0.26321331634E+02  0.18278079953E+03 -0.20916935433E+02  0.18584711825E+03  0.00000000000E+00 0. -1.
          4    1    6    6  503    0  0.11322912051E+03  0.12021543668E+03  0.74027129774E+03  0.75846831128E+03  0.00000000000E+00 0. -1.
         -4    1    6    6    0  503  0.39760865002E+02  0.17524131592E+03  0.94939653423E+03  0.96625267109E+03  0.00000000000E+00 0.  1.
<mgrwt>
<rscale>  0 0.17542967E+04</rscale>
<asrwt>0</asrwt>
<pdfrwt beam="1">  1        2 0.44930939E+00 0.17542967E+04</pdfrwt>
<pdfrwt beam="2">  1       -1 0.40529748E-01 0.17542967E+04</pdfrwt>
<totfact> 0.12562580E+01</totfact>
</mgrwt>
</event>
<event>
12    7  0.1909736E-007  0.2048552E+04  0.7818608E-02  0.8584252E-01
          2   -1    0    0  501    0  0.00000000000E+00  0.00000000000E+00  0.94604664453E+03  0.94604664453E+03  0.00000000000E+00 0. -1.
         -1   -1    0    0    0  501 -0.00000000000E+00 -0.00000000000E+00 -0.11089739616E+04  0.11089739616E+04  0.00000000000E+00 0.  1.
         24    2    1    2    0    0 -0.79984220675E+03  0.20036844810E+03 -0.60214857019E+01  0.82824475773E+03  0.77833474358E+02 0.  0.
        254    2    1    2    0    0  0.79984220675E+03 -0.20036844810E+03 -0.15690583136E+03  0.12267758484E+04  0.89468680082E+03 0.  0.
         23    2    4    4    0    0  0.91609026894E+03 -0.89271425704E+02 -0.32141500156E+03  0.97909229255E+03  0.90129605558E+02 0.  0.
         23    2    4    4    0    0 -0.11624806219E+03 -0.11109702240E+03  0.16450917021E+03  0.24768355583E+03  0.91802594719E+02 0.  0.
          4    1    3    3  502    0 -0.63935805287E+03  0.14578256562E+03  0.23458053591E+02  0.65618713526E+03  0.00000000000E+00 0. -1.
         -3    1    3    3    0  502 -0.16048415388E+03  0.54585882483E+02 -0.29479539293E+02  0.17205762247E+03  0.00000000000E+00 0.  1.
         13    1    5    5    0    0  0.66282933016E+03 -0.80432075917E+02 -0.27165085940E+03  0.72083717243E+03  0.00000000000E+00 0. -1.
        -13    1    5    5    0    0  0.25326093879E+03 -0.88393497870E+01 -0.49764142169E+02  0.25825512011E+03  0.00000000000E+00 0.  1.
          3    1    6    6  503    0 -0.12903947805E+03 -0.10015818279E+03  0.16303483155E+03  0.23078822494E+03  0.00000000000E+00 0. -1.
         -3    1    6    6    0  503  0.12791415852E+02 -0.10938839602E+02  0.14743386624E+01  0.16895330888E+02  0.00000000000E+00 0.  1.
<mgrwt>
<rscale>  0 0.20485518E+04</rscale>
<asrwt>0</asrwt>
<pdfrwt beam="1">  1        2 0.14554564E+00 0.20485518E+04</pdfrwt>
<pdfrwt beam="2">  1       -1 0.17061138E+00 0.20485518E+04</pdfrwt>
<totfact> 0.70221856E+00</totfact>
</mgrwt>
</event>
<event>
12    7  0.1909736E-007  0.1505498E+04  0.7818608E-02  0.8880805E-01
         -1   -1    0    0    0  501 -0.00000000000E+00  0.00000000000E+00  0.25662428367E+03  0.25662428367E+03  0.00000000000E+00 0.  1.
          2   -1    0    0  501    0  0.00000000000E+00 -0.00000000000E+00 -0.22080166721E+04  0.22080166721E+04  0.00000000000E+00 0. -1.
         24    2    1    2    0    0  0.11786344986E+03  0.40231433806E+03 -0.98605536740E+03  0.10744387867E+04  0.79780319592E+02 0.  0.
        254    2    1    2    0    0 -0.11786344986E+03 -0.40231433806E+03 -0.96533702104E+03  0.13902021691E+04  0.90831596223E+03 0.  0.
         23    2    4    4    0    0 -0.20551744558E+03 -0.65246081462E+02  0.10873087396E+03  0.25732261602E+03  0.88870997410E+02 0.  0.
         23    2    4    4    0    0  0.87653995719E+02 -0.33706825660E+03 -0.10740678950E+04  0.11328795530E+04  0.92173781864E+02 0.  0.
          4    1    3    3  502    0  0.11954624538E+03  0.28219452524E+03 -0.69567996295E+03  0.76019449203E+03  0.00000000000E+00 0. -1.
         -3    1    3    3    0  502 -0.16827955196E+01  0.12011981282E+03 -0.29037540445E+03  0.31424429468E+03  0.00000000000E+00 0.  1.
         13    1    5    5    0    0 -0.20504029030E+03 -0.41793153381E+02  0.10271182129E+03  0.23310492605E+03  0.00000000000E+00 0.  1.
        -13    1    5    5    0    0 -0.47715528556E+00 -0.23452928081E+02  0.60190526608E+01  0.24217689974E+02  0.00000000000E+00 0. -1.
          3    1    6    6  503    0  0.90117903369E+01 -0.18629968206E+03 -0.48038298050E+03  0.51532183328E+03  0.00000000000E+00 0. -1.
         -3    1    6    6    0  503  0.78642205382E+02 -0.15076857454E+03 -0.59368491450E+03  0.61755771977E+03  0.00000000000E+00 0.  1.
<mgrwt>
<rscale>  0 0.15054975E+04</rscale>
<asrwt>0</asrwt>
<pdfrwt beam="1">  1        2 0.33969489E+00 0.15054975E+04</pdfrwt>
<pdfrwt beam="2">  1       -1 0.39480657E-01 0.15054975E+04</pdfrwt>
<totfact> 0.35108269E+01</totfact>
</mgrwt>
</event>
<event>
12    7  0.1909736E-007  0.2998063E+04  0.7818608E-02  0.8244284E-01
         -1   -1    0    0    0  501 -0.00000000000E+00  0.00000000000E+00  0.96682531625E+03  0.96682531625E+03  0.00000000000E+00 0.  1.
          2   -1    0    0  501    0  0.00000000000E+00 -0.00000000000E+00 -0.23241993564E+04  0.23241993564E+04  0.00000000000E+00 0. -1.
         24    2    1    2    0    0  0.86058169375E+03  0.47090639968E+03 -0.16569041278E+04  0.19271783237E+04  0.79569552324E+02 0.  0.
        254    2    1    2    0    0 -0.86058169375E+03 -0.47090639968E+03  0.29953008774E+03  0.13638463489E+04  0.89889092835E+03 0.  0.
         23    2    4    4    0    0 -0.23642734445E+03 -0.23506224523E+03  0.54646185578E+03  0.64665410451E+03  0.91590516517E+02 0.  0.
         23    2    4    4    0    0 -0.62415434930E+03 -0.23584415445E+03 -0.24693176805E+03  0.71719224439E+03  0.90544466426E+02 0.  0.
          4    1    3    3  502    0  0.65060153930E+03  0.33592570212E+03 -0.11752175432E+04  0.13846532830E+04  0.00000000000E+00 0. -1.
         -3    1    3    3    0  502  0.20998015445E+03  0.13498069756E+03 -0.48168658462E+03  0.54252504069E+03  0.00000000000E+00 0.  1.
         13    1    5    5    0    0 -0.24440561399E+03 -0.22079979323E+03  0.52244009867E+03  0.61760044490E+03  0.00000000000E+00 0.  1.
        -13    1    5    5    0    0  0.79782695424E+01 -0.14262451995E+02  0.24021757111E+02  0.29053659606E+02  0.00000000000E+00 0. -1.
          2    1    6    6  503    0 -0.24630738835E+03 -0.14039934325E+03 -0.97473902540E+02  0.29980071184E+03  0.00000000000E+00 0. -1.
         -2    1    6    6    0  503 -0.37784696095E+03 -0.95444811201E+02 -0.14945786551E+03  0.41739153255E+03  0.00000000000E+00 0.  1.
<mgrwt>
<rscale>  0 0.29980626E+04</rscale>
<asrwt>0</asrwt>
<pdfrwt beam="1">  1        2 0.35756913E+00 0.29980626E+04</pdfrwt>
<pdfrwt beam="2">  1       -1 0.14874236E+00 0.29980626E+04</pdfrwt>
<totfact> 0.15256610E+00</totfact>
</mgrwt>
</event>
<event>
12    7  0.1909736E-007  0.2092667E+04  0.7818608E-02  0.8564480E-01
         -1   -1    0    0    0  501 -0.00000000000E+00  0.00000000000E+00  0.74423565107E+03  0.74423565107E+03  0.00000000000E+00 0.  1.
          2   -1    0    0  501    0  0.00000000000E+00 -0.00000000000E+00 -0.14710582608E+04  0.14710582608E+04  0.00000000000E+00 0. -1.
         24    2    1    2    0    0  0.64905708104E+03  0.23793640998E+03  0.23332495124E+03  0.73379455584E+03  0.78262939347E+02 0.  0.
        254    2    1    2    0    0 -0.64905708104E+03 -0.23793640998E+03 -0.96014756099E+03  0.14814993560E+04  0.89166595396E+03 0.  0.
         23    2    4    4    0    0 -0.21184022130E+03  0.17008146235E+03  0.61783381702E+02  0.29380154728E+03  0.93264032364E+02 0.  0.
         23    2    4    4    0    0 -0.43721685974E+03 -0.40801787232E+03 -0.10219309427E+04  0.11876978088E+04  0.92984228482E+02 0.  0.
          4    1    3    3  502    0  0.23339108258E+03  0.10159133239E+03  0.12266970167E+03  0.28255982013E+03  0.00000000000E+00 0. -1.
         -3    1    3    3    0  502  0.41566599846E+03  0.13634507759E+03  0.11065524958E+03  0.45123473572E+03  0.00000000000E+00 0.  1.
         13    1    5    5    0    0 -0.36677083530E+02  0.78487452319E+02  0.38381886459E+02  0.94755779960E+02  0.00000000000E+00 0.  1.
        -13    1    5    5    0    0 -0.17516313777E+03  0.91594010027E+02  0.23401495243E+02  0.19904576732E+03  0.00000000000E+00 0. -1.
          3    1    6    6  503    0 -0.30579253704E+03 -0.23344033465E+03 -0.69702045612E+03  0.79614130768E+03  0.00000000000E+00 0. -1.
         -3    1    6    6    0  503 -0.13142432270E+03 -0.17457753767E+03 -0.32491048657E+03  0.39155650108E+03  0.00000000000E+00 0.  1.
<mgrwt>
<rscale>  0 0.20926672E+04</rscale>
<asrwt>0</asrwt>
<pdfrwt beam="1">  1        2 0.22631665E+00 0.20926672E+04</pdfrwt>
<pdfrwt beam="2">  1       -1 0.11449779E+00 0.20926672E+04</pdfrwt>
<totfact> 0.96069305E+00</totfact>
</mgrwt>
</event>
<event>
12    7  0.1909736E-007  0.1535475E+04  0.7818608E-02  0.8861200E-01
         -1   -1    0    0    0  501 -0.00000000000E+00  0.00000000000E+00  0.18582286238E+04  0.18582286238E+04  0.00000000000E+00 0.  1.
          2   -1    0    0  501    0  0.00000000000E+00 -0.00000000000E+00 -0.31719483547E+03  0.31719483547E+03  0.00000000000E+00 0. -1.
         24    2    1    2    0    0  0.33986612099E+03 -0.19596128552E+03  0.94662074142E+03  0.10279275285E+04  0.81451643514E+02 0.  0.
        254    2    1    2    0    0 -0.33986612099E+03  0.19596128552E+03  0.59441304692E+03  0.11474959307E+04  0.89972786723E+03 0.  0.
         23    2    4    4    0    0  0.24467944738E+03 -0.55780813965E+02 -0.10919650663E+02  0.26372019212E+03  0.80309213568E+02 0.  0.
         23    2    4    4    0    0 -0.58454556838E+03  0.25174209949E+03  0.60533269758E+03  0.88377573861E+03  0.97797112545E+02 0.  0.
          2    1    3    3  502    0  0.12834861296E+02 -0.16909980320E+02  0.10940502440E+03  0.11144568391E+03  0.00000000000E+00 0. -1.
         -1    1    3    3    0  502  0.32703125970E+03 -0.17905130521E+03  0.83721571702E+03  0.91648184463E+03  0.00000000000E+00 0.  1.
         13    1    5    5    0    0  0.22679711069E+02 -0.24923427265E+02  0.17192144985E+02  0.37830098731E+02  0.00000000000E+00 0.  1.
        -13    1    5    5    0    0  0.22199973631E+03 -0.30857386700E+02 -0.28111795648E+02  0.22589009339E+03  0.00000000000E+00 0. -1.
          1    1    6    6  503    0 -0.58174629318E+03  0.23612138107E+03  0.58670738974E+03  0.85930647467E+03  0.00000000000E+00 0. -1.
         -1    1    6    6    0  503 -0.27992751981E+01  0.15620718422E+02  0.18625307839E+02  0.24469263939E+02  0.00000000000E+00 0.  1.
<mgrwt>
<rscale>  0 0.15354745E+04</rscale>
<asrwt>0</asrwt>
<pdfrwt beam="1">  1        2 0.48799207E-01 0.15354745E+04</pdfrwt>
<pdfrwt beam="2">  1       -1 0.28588132E+00 0.15354745E+04</pdfrwt>
<totfact> 0.46479819E+00</totfact>
</mgrwt>
</event>
<event>
12    7  0.1909736E-007  0.2149299E+04  0.7818608E-02  0.8539833E-01
         -1   -1    0    0    0  501 -0.00000000000E+00  0.00000000000E+00  0.46701268250E+03  0.46701268250E+03  0.00000000000E+00 0.  1.
          2   -1    0    0  501    0  0.00000000000E+00 -0.00000000000E+00 -0.24728901330E+04  0.24728901330E+04  0.00000000000E+00 0. -1.
         24    2    1    2    0    0  0.49774758067E+03 -0.59105342652E+03 -0.14128922339E+04  0.16123962048E+04  0.80375678727E+02 0.  0.
        254    2    1    2    0    0 -0.49774758067E+03  0.59105342652E+03 -0.59298521662E+03  0.13275066107E+04  0.90196758655E+03 0.  0.
         23    2    4    4    0    0  0.24324736509E+03  0.27010329801E+03 -0.20383059704E+03  0.42675628151E+03  0.91918111932E+02 0.  0.
         23    2    4    4    0    0 -0.74099494576E+03  0.32095012851E+03 -0.38915461958E+03  0.90075032916E+03  0.88472272010E+02 0.  0.
          2    1    3    3  502    0  0.43646405414E+03 -0.52291451969E+03 -0.11856767051E+04  0.13673952298E+04  0.00000000000E+00 0. -1.
         -1    1    3    3    0  502  0.61283526526E+02 -0.68138906828E+02 -0.22721552877E+03  0.24500097502E+03  0.00000000000E+00 0.  1.
         13    1    5    5    0    0  0.81593955735E+02  0.65291570823E+02 -0.17076527633E+02  0.10588753765E+03  0.00000000000E+00 0. -1.
        -13    1    5    5    0    0  0.16165340935E+03  0.20481172718E+03 -0.18675406940E+03  0.32086874386E+03  0.00000000000E+00 0.  1.
          2    1    6    6  503    0 -0.33051487922E+03  0.18597544329E+03 -0.15962623738E+03  0.41146990966E+03  0.00000000000E+00 0. -1.
         -2    1    6    6    0  503 -0.41048006654E+03  0.13497468522E+03 -0.22952838220E+03  0.48928041950E+03  0.00000000000E+00 0.  1.
<mgrwt>
<rscale>  0 0.21492985E+04</rscale>
<asrwt>0</asrwt>
<pdfrwt beam="1">  1        2 0.38044464E+00 0.21492985E+04</pdfrwt>
<pdfrwt beam="2">  1       -1 0.71848105E-01 0.21492985E+04</pdfrwt>
<totfact> 0.73725315E+00</totfact>
</mgrwt>
</event>
<event>
12    7  0.1909736E-007  0.2053958E+04  0.7818608E-02  0.8581801E-01
         -1   -1    0    0    0  501 -0.00000000000E+00  0.00000000000E+00  0.64546374564E+03  0.64546374564E+03  0.00000000000E+00 0.  1.
          2   -1    0    0  501    0  0.00000000000E+00 -0.00000000000E+00 -0.16339973758E+04  0.16339973758E+04  0.00000000000E+00 0. -1.
         24    2    1    2    0    0  0.81580681221E+03 -0.15626541763E+03 -0.38563260868E+03  0.91968013423E+03  0.84494998828E+02 0.  0.
        254    2    1    2    0    0 -0.81580681221E+03  0.15626541763E+03 -0.60290102145E+03  0.13597809872E+04  0.89193893057E+03 0.  0.
         23    2    4    4    0    0 -0.55214780551E+03  0.51023981609E+03 -0.29010633419E+03  0.81095046490E+03  0.90923607108E+02 0.  0.
         23    2    4    4    0    0 -0.26365900670E+03 -0.35397439846E+03 -0.31279468726E+03  0.54883052229E+03  0.92522857944E+02 0.  0.
          4    1    3    3  502    0  0.71509430636E+03 -0.14625626361E+03 -0.30843581289E+03  0.79239094663E+03  0.00000000000E+00 0. -1.
         -3    1    3    3    0  502  0.10071250585E+03 -0.10009154021E+02 -0.77196795796E+02  0.12728918760E+03  0.00000000000E+00 0.  1.
         13    1    5    5    0    0 -0.41708259865E+03  0.43508595836E+03 -0.23249457216E+03  0.64599644840E+03  0.00000000000E+00 0. -1.
        -13    1    5    5    0    0 -0.13506520686E+03  0.75153857729E+02 -0.57611762029E+02  0.16495401650E+03  0.00000000000E+00 0.  1.
          1    1    6    6  503    0 -0.15277487697E+03 -0.22335873829E+03 -0.13684821217E+03  0.30324366800E+03  0.00000000000E+00 0. -1.
         -1    1    6    6    0  503 -0.11088412972E+03 -0.13061566017E+03 -0.17594647509E+03  0.24558685429E+03  0.00000000000E+00 0.  1.
<mgrwt>
<rscale>  0 0.20539582E+04</rscale>
<asrwt>0</asrwt>
<pdfrwt beam="1">  1        2 0.25138421E+00 0.20539582E+04</pdfrwt>
<pdfrwt beam="2">  1       -1 0.99302116E-01 0.20539582E+04</pdfrwt>
<totfact> 0.10892235E+01</totfact>
</mgrwt>
</event>
<event>
12    7  0.1909736E-007  0.1836723E+04  0.7818608E-02  0.8687011E-01
          2   -1    0    0  501    0  0.00000000000E+00  0.00000000000E+00  0.10980691751E+04  0.10980691751E+04  0.00000000000E+00 0. -1.
         -1   -1    0    0    0  501 -0.00000000000E+00 -0.00000000000E+00 -0.76806419433E+03  0.76806419433E+03  0.00000000000E+00 0.  1.
         24    2    1    2    0    0 -0.40170790716E+03 -0.62280952473E+02  0.69984019351E+03  0.81344356504E+03  0.81645436733E+02 0.  0.
        254    2    1    2    0    0  0.40170790716E+03  0.62280952473E+02 -0.36983521276E+03  0.10526898044E+04  0.89784719184E+03 0.  0.
         23    2    4    4    0    0  0.64540714734E+03 -0.72984050962E+02 -0.11884806485E+03  0.66675166468E+03  0.92497904351E+02 0.  0.
         23    2    4    4    0    0 -0.24369924018E+03  0.13526500344E+03 -0.25098714791E+03  0.38593813967E+03  0.90927214947E+02 0.  0.
          2    1    3    3  502    0 -0.31851155196E+03 -0.64616586480E+02  0.60862740171E+03  0.68996538036E+03  0.00000000000E+00 0. -1.
         -1    1    3    3    0  502 -0.83196355198E+02  0.23356340061E+01  0.91212791798E+02  0.12347818468E+03  0.00000000000E+00 0.  1.
         13    1    5    5    0    0  0.33819092389E+03 -0.53411480143E+02 -0.18158285828E+02  0.34286383676E+03  0.00000000000E+00 0. -1.
        -13    1    5    5    0    0  0.30721622345E+03 -0.19572570819E+02 -0.10068977902E+03  0.32388782793E+03  0.00000000000E+00 0.  1.
          1    1    6    6  503    0 -0.11965986645E+03  0.35338199969E+02 -0.63738887112E+02  0.14010680835E+03  0.00000000000E+00 0. -1.
         -1    1    6    6    0  503 -0.12403937373E+03  0.99926803467E+02 -0.18724826080E+03  0.24583133132E+03  0.00000000000E+00 0.  1.
<mgrwt>
<rscale>  0 0.18367228E+04</rscale>
<asrwt>0</asrwt>
<pdfrwt beam="1">  1        2 0.16893372E+00 0.18367228E+04</pdfrwt>
<pdfrwt beam="2">  1       -1 0.11816372E+00 0.18367228E+04</pdfrwt>
<totfact> 0.15079695E+01</totfact>
</mgrwt>
</event>
<event>
12    7  0.1909736E-007  0.1611728E+04  0.7818608E-02  0.8813375E-01
         -1   -1    0    0    0  501 -0.00000000000E+00  0.00000000000E+00  0.67298940274E+03  0.67298940274E+03  0.00000000000E+00 0.  1.
          2   -1    0    0  501    0  0.00000000000E+00 -0.00000000000E+00 -0.96497343593E+03  0.96497343593E+03  0.00000000000E+00 0. -1.
         24    2    1    2    0    0  0.42851951312E+03  0.36127176232E+03 -0.11966442790E+03  0.57981912661E+03  0.87888479926E+02 0.  0.
        254    2    1    2    0    0 -0.42851951312E+03 -0.36127176232E+03 -0.17231960529E+03  0.10581437121E+04  0.88081088187E+03 0.  0.
         23    2    4    4    0    0 -0.66011820306E+03 -0.41967391340E+03 -0.14297281571E+03  0.80051058386E+03  0.92161452034E+02 0.  0.
         23    2    4    4    0    0  0.23159868994E+03  0.58402151078E+02 -0.29346789579E+02  0.25763312820E+03  0.92004512150E+02 0.  0.
          4    1    3    3  502    0  0.12514095010E+03  0.13502607674E+03 -0.74812549257E+02  0.19871893800E+03  0.00000000000E+00 0. -1.
         -3    1    3    3    0  502  0.30337856302E+03  0.22624568557E+03 -0.44851878644E+02  0.38110018861E+03  0.00000000000E+00 0.  1.
         13    1    5    5    0    0 -0.48150619156E+03 -0.27743133946E+03 -0.66318605862E+02  0.55965571391E+03  0.00000000000E+00 0. -1.
        -13    1    5    5    0    0 -0.17861201150E+03 -0.14224257394E+03 -0.76654209846E+02  0.24085486995E+03  0.00000000000E+00 0.  1.
          1    1    6    6  503    0  0.67053850873E+01  0.28248536527E+02 -0.42717272968E+01  0.29346033108E+02  0.00000000000E+00 0.  1.
         -1    1    6    6    0  503  0.22489330485E+03  0.30153614551E+02 -0.25075062282E+02  0.22828709509E+03  0.00000000000E+00 0. -1.
<mgrwt>
<rscale>  0 0.16117281E+04</rscale>
<asrwt>0</asrwt>
<pdfrwt beam="1">  1        2 0.14845745E+00 0.16117281E+04</pdfrwt>
<pdfrwt beam="2">  1       -1 0.10353683E+00 0.16117281E+04</pdfrwt>
<totfact> 0.25529039E+01</totfact>
</mgrwt>
</event>
<event>
12    7  0.1909736E-007  0.1471837E+04  0.7818608E-02  0.8903400E-01
         -1   -1    0    0    0  501 -0.00000000000E+00  0.00000000000E+00  0.67497246565E+03  0.67497246565E+03  0.00000000000E+00 0.  1.
          2   -1    0    0  501    0  0.00000000000E+00 -0.00000000000E+00 -0.80236766704E+03  0.80236766704E+03  0.00000000000E+00 0. -1.
         24    2    1    2    0    0 -0.31614635289E+03 -0.21699357389E+03 -0.28118087335E+03  0.48252899129E+03  0.82078111226E+02 0.  0.
        254    2    1    2    0    0  0.31614635289E+03  0.21699357389E+03  0.15378567197E+03  0.99481114139E+03  0.90496654445E+03 0.  0.
         23    2    4    4    0    0  0.11643840078E+03  0.23000637453E+03 -0.35093682572E+03  0.44476680107E+03  0.90553951771E+02 0.  0.
         23    2    4    4    0    0  0.19970795211E+03 -0.13012800639E+02  0.50472249769E+03  0.55004434033E+03  0.88041907821E+02 0.  0.
          4    1    3    3  502    0 -0.23356092562E+03 -0.12052275606E+03 -0.21359029630E+03  0.33866983240E+03  0.00000000000E+00 0. -1.
         -1    1    3    3    0  502 -0.82585427277E+02 -0.96470817834E+02 -0.67590577047E+02  0.14385915889E+03  0.00000000000E+00 0.  1.
         13    1    5    5    0    0  0.48665082107E+02  0.71118898331E+02 -0.55388630200E+02  0.10244065732E+03  0.00000000000E+00 0. -1.
        -13    1    5    5    0    0  0.67773318676E+02  0.15888747620E+03 -0.29554819552E+03  0.34232614375E+03  0.00000000000E+00 0.  1.
          4    1    6    6  503    0  0.10090116058E+02 -0.24789560905E+02  0.41569972273E+02  0.49440826922E+02  0.00000000000E+00 0. -1.
         -4    1    6    6    0  503  0.18961783605E+03  0.11776760266E+02  0.46315252542E+03  0.50060351340E+03  0.00000000000E+00 0.  1.
<mgrwt>
<rscale>  0 0.14718371E+04</rscale>
<asrwt>0</asrwt>
<pdfrwt beam="1">  1        2 0.12344118E+00 0.14718371E+04</pdfrwt>
<pdfrwt beam="2">  1       -1 0.10384192E+00 0.14718371E+04</pdfrwt>
<totfact> 0.33147118E+01</totfact>
</mgrwt>
</event>
<event>
12    7  0.1909736E-007  0.2399364E+04  0.7818608E-02  0.8439742E-01
          2   -1    0    0  501    0  0.00000000000E+00  0.00000000000E+00  0.11239606794E+04  0.11239606794E+04  0.00000000000E+00 0. -1.
         -1   -1    0    0    0  501 -0.00000000000E+00 -0.00000000000E+00 -0.12805050897E+04  0.12805050897E+04  0.00000000000E+00 0.  1.
         24    2    1    2    0    0 -0.41953215233E+03  0.36991235781E+03  0.79925192983E+03  0.97951900384E+03  0.88382420515E+02 0.  0.
        254    2    1    2    0    0  0.41953215233E+03 -0.36991235781E+03 -0.95579634016E+03  0.14249467653E+04  0.89670745553E+03 0.  0.
         23    2    4    4    0    0  0.15873801477E+03 -0.62768182545E+03 -0.44991630996E+03  0.79351566305E+03  0.89778562004E+02 0.  0.
         23    2    4    4    0    0  0.26079413756E+03  0.25776946765E+03 -0.50588003020E+03  0.63143110226E+03  0.91279522973E+02 0.  0.
          4    1    3    3  502    0 -0.40327966178E+03  0.35291963500E+03  0.72451744854E+03  0.90117272906E+03  0.00000000000E+00 0. -1.
         -3    1    3    3    0  502 -0.16252490545E+02  0.16992722809E+02  0.74734481296E+02  0.78346274780E+02  0.00000000000E+00 0.  1.
         13    1    5    5    0    0  0.15950923704E+03 -0.48455375661E+03 -0.34007758068E+03  0.61309730111E+03  0.00000000000E+00 0. -1.
        -13    1    5    5    0    0 -0.77122227022E+00 -0.14312806885E+03 -0.10983872928E+03  0.18041836194E+03  0.00000000000E+00 0.  1.
          3    1    6    6  503    0  0.18983992686E+03  0.18069837874E+03 -0.28633895567E+03  0.38817663433E+03  0.00000000000E+00 0. -1.
         -3    1    6    6    0  503  0.70954210697E+02  0.77071088907E+02 -0.21954107453E+03  0.24325446793E+03  0.00000000000E+00 0.  1.
<mgrwt>
<rscale>  0 0.23993644E+04</rscale>
<asrwt>0</asrwt>
<pdfrwt beam="1">  1        2 0.17291703E+00 0.23993644E+04</pdfrwt>
<pdfrwt beam="2">  1       -1 0.19700078E+00 0.23993644E+04</pdfrwt>
<totfact> 0.34082537E+00</totfact>
</mgrwt>
</event>
<event>
12    7  0.1909736E-007  0.2026478E+04  0.7818608E-02  0.8594340E-01
         -1   -1    0    0    0  501 -0.00000000000E+00  0.00000000000E+00  0.11842107213E+04  0.11842107213E+04  0.00000000000E+00 0.  1.
          2   -1    0    0  501    0  0.00000000000E+00 -0.00000000000E+00 -0.86695155167E+03  0.86695155167E+03  0.00000000000E+00 0. -1.
         24    2    1    2    0    0 -0.77112279582E+02  0.68235567471E+03  0.56507185466E+03  0.89258201943E+03  0.76425715611E+02 0.  0.
        254    2    1    2    0    0  0.77112279582E+02 -0.68235567471E+03 -0.24781268504E+03  0.11585802535E+04  0.89963409593E+03 0.  0.
         23    2    4    4    0    0  0.18888189730E+03 -0.12484064936E+03 -0.47912277717E+03  0.53806910806E+03  0.93263983317E+02 0.  0.
         23    2    4    4    0    0 -0.11176961772E+03 -0.55751502534E+03  0.23131009212E+03  0.62051114548E+03  0.90632621165E+02 0.  0.
          2    1    3    3  502    0 -0.45904277484E+02  0.21404800754E+03  0.21711004155E+03  0.30831886476E+03  0.00000000000E+00 0. -1.
         -1    1    3    3    0  502 -0.31208002098E+02  0.46830766716E+03  0.34796181312E+03  0.58426315467E+03  0.00000000000E+00 0.  1.
         13    1    5    5    0    0  0.11669272038E+03 -0.29044160793E+02 -0.29210360906E+03  0.31588806988E+03  0.00000000000E+00 0.  1.
        -13    1    5    5    0    0  0.72189176924E+02 -0.95796488569E+02 -0.18701916811E+03  0.22218103818E+03  0.00000000000E+00 0. -1.
          4    1    6    6  503    0 -0.44038957249E+01 -0.71379201861E+01 -0.72855456945E+01  0.11109607473E+02  0.00000000000E+00 0. -1.
         -4    1    6    6    0  503 -0.10736572200E+03 -0.55037710516E+03  0.23859563782E+03  0.60940153801E+03  0.00000000000E+00 0.  1.
<mgrwt>
<rscale>  0 0.20264781E+04</rscale>
<asrwt>0</asrwt>
<pdfrwt beam="1">  1        2 0.13337716E+00 0.20264781E+04</pdfrwt>
<pdfrwt beam="2">  1       -1 0.18218627E+00 0.20264781E+04</pdfrwt>
<totfact> 0.65586389E+00</totfact>
</mgrwt>
</event>
<event>
12    7  0.1909736E-007  0.1619645E+04  0.7818608E-02  0.8808570E-01
          2   -1    0    0  501    0  0.00000000000E+00  0.00000000000E+00  0.22900055575E+04  0.22900055575E+04  0.00000000000E+00 0. -1.
         -1   -1    0    0    0  501 -0.00000000000E+00 -0.00000000000E+00 -0.28638024395E+03  0.28638024395E+03  0.00000000000E+00 0.  1.
         24    2    1    2    0    0 -0.27347364508E+03 -0.37645238024E+03  0.11898923076E+04  0.12801964263E+04  0.80962689799E+02 0.  0.
        254    2    1    2    0    0  0.27347364508E+03  0.37645238024E+03  0.81373300597E+03  0.12961893752E+04  0.89523251846E+03 0.  0.
         23    2    4    4    0    0 -0.26805346131E+03 -0.26770007411E+02  0.42571568276E+03  0.51190812334E+03  0.90811853743E+02 0.  0.
         23    2    4    4    0    0  0.54152710639E+03  0.40322238765E+03  0.38801732321E+03  0.78428125181E+03  0.93272385895E+02 0.  0.
          2    1    3    3  502    0 -0.20077366998E+03 -0.22605259391E+03  0.69644819308E+03  0.75924299629E+03  0.00000000000E+00 0. -1.
         -1    1    3    3    0  502 -0.72699975103E+02 -0.15039978633E+03  0.49344411454E+03  0.52095343005E+03  0.00000000000E+00 0.  1.
         13    1    5    5    0    0 -0.20724947942E+03 -0.51058677135E+02  0.36380081937E+03  0.42179422875E+03  0.00000000000E+00 0.  1.
        -13    1    5    5    0    0 -0.60803981890E+02  0.24288669724E+02  0.61914863391E+02  0.90113894596E+02  0.00000000000E+00 0. -1.
          1    1    6    6  503    0  0.78503501693E+02  0.29286123982E+02  0.26296287433E+02  0.87817831724E+02  0.00000000000E+00 0. -1.
         -1    1    6    6    0  503  0.46302360470E+03  0.37393626367E+03  0.36172103578E+03  0.69646342009E+03  0.00000000000E+00 0.  1.
<mgrwt>
<rscale>  0 0.16196448E+04</rscale>
<asrwt>0</asrwt>
<pdfrwt beam="1">  1        2 0.35230854E+00 0.16196448E+04</pdfrwt>
<pdfrwt beam="2">  1       -1 0.44058501E-01 0.16196448E+04</pdfrwt>
<totfact> 0.25543813E+01</totfact>
</mgrwt>
</event>
<event>
12    7  0.1909736E-007  0.1835388E+04  0.7818608E-02  0.8687704E-01
          2   -1    0    0  501    0  0.00000000000E+00  0.00000000000E+00  0.18037964260E+04  0.18037964260E+04  0.00000000000E+00 0. -1.
         -1   -1    0    0    0  501 -0.00000000000E+00 -0.00000000000E+00 -0.46688319068E+03  0.46688319068E+03  0.00000000000E+00 0.  1.
         24    2    1    2    0    0 -0.45794548418E+03  0.32034580672E+03  0.10286438138E+04  0.11731813203E+04  0.76881807811E+02 0.  0.
        254    2    1    2    0    0  0.45794548418E+03 -0.32034580672E+03  0.30826942150E+03  0.10974982963E+04  0.89282527508E+03 0.  0.
         23    2    4    4    0    0  0.44542175465E+03  0.10878521419E+02 -0.19011552441E+03  0.49214707012E+03  0.86867394676E+02 0.  0.
         23    2    4    4    0    0  0.12523729530E+02 -0.33122432814E+03  0.49838494591E+03  0.60535122620E+03  0.90532609569E+02 0.  0.
          2    1    3    3  502    0 -0.31781641431E+03  0.18000349132E+03  0.64143005299E+03  0.73813348587E+03  0.00000000000E+00 0. -1.
         -1    1    3    3    0  502 -0.14012906987E+03  0.14034231541E+03  0.38721376081E+03  0.43504783447E+03  0.00000000000E+00 0.  1.
         13    1    5    5    0    0  0.35550571512E+03  0.43143684438E+02 -0.14271376019E+03  0.38550344790E+03  0.00000000000E+00 0. -1.
        -13    1    5    5    0    0  0.89916039527E+02 -0.32265163019E+02 -0.47401764227E+02  0.10664362222E+03  0.00000000000E+00 0.  1.
          3    1    6    6  503    0 -0.28325963376E+02 -0.12740328885E+03  0.14276037402E+03  0.19342823631E+03  0.00000000000E+00 0. -1.
         -3    1    6    6    0  503  0.40849692906E+02 -0.20382103930E+03  0.35562457189E+03  0.41192298989E+03  0.00000000000E+00 0.  1.
<mgrwt>
<rscale>  0 0.18353879E+04</rscale>
<asrwt>0</asrwt>
<pdfrwt beam="1">  1        2 0.27750714E+00 0.18353879E+04</pdfrwt>
<pdfrwt beam="2">  1       -1 0.71828184E-01 0.18353879E+04</pdfrwt>
<totfact> 0.18010607E+01</totfact>
</mgrwt>
</event>
<event>
12    7  0.1909736E-007  0.1376961E+04  0.7818608E-02  0.8970666E-01
         -3   -1    0    0    0  501 -0.00000000000E+00  0.00000000000E+00  0.17505082307E+04  0.17505082307E+04  0.00000000000E+00 0.  1.
          4   -1    0    0  501    0  0.00000000000E+00 -0.00000000000E+00 -0.27078148205E+03  0.27078148205E+03  0.00000000000E+00 0. -1.
         24    2    1    2    0    0 -0.22803942477E+03  0.85681287066E+01 -0.57007780025E+02  0.24784639896E+03  0.78118873607E+02 0.  0.
        254    2    1    2    0    0  0.22803942477E+03 -0.85681287066E+01  0.15367345287E+04  0.17734433138E+04  0.85526182163E+03 0.  0.
         23    2    4    4    0    0  0.11641924246E+03 -0.42218638314E+03  0.80257858822E+03  0.91881547057E+03  0.91075224696E+02 0.  0.
         23    2    4    4    0    0  0.11162018232E+03  0.41361825443E+03  0.73415594049E+03  0.85462784326E+03  0.88683031218E+02 0.  0.
          2    1    3    3  502    0 -0.16853775105E+03  0.36723168042E+02 -0.58089321913E+02  0.18201080715E+03  0.00000000000E+00 0. -1.
         -1    1    3    3    0  502 -0.59501673725E+02 -0.28155039335E+02  0.10815418878E+01  0.65835591809E+02  0.00000000000E+00 0.  1.
         13    1    5    5    0    0 -0.11188818569E+01  0.15965353984E+01 -0.14105451953E+01  0.24063373903E+01  0.00000000000E+00 0.  1.
        -13    1    5    5    0    0  0.11753812431E+03 -0.42378291853E+03  0.80398913342E+03  0.91640913318E+03  0.00000000000E+00 0. -1.
          2    1    6    6  503    0  0.14599449849E+02  0.16291591934E+03  0.21660609645E+03  0.27142759943E+03  0.00000000000E+00 0.  1.
         -2    1    6    6    0  503  0.97020732469E+02  0.25070233509E+03  0.51754984404E+03  0.58320024384E+03  0.00000000000E+00 0. -1.
<mgrwt>
<rscale>  0 0.13769607E+04</rscale>
<asrwt>0</asrwt>
<pdfrwt beam="1">  1        4 0.41658691E-01 0.13769607E+04</pdfrwt>
<pdfrwt beam="2">  1       -3 0.26930895E+00 0.13769607E+04</pdfrwt>
<totfact> 0.71356048E-01</totfact>
</mgrwt>
</event>
<event>
12    7  0.1909736E-007  0.1705644E+04  0.7818608E-02  0.8758152E-01
          2   -1    0    0  501    0  0.00000000000E+00  0.00000000000E+00  0.20347070457E+04  0.20347070457E+04  0.00000000000E+00 0. -1.
         -1   -1    0    0    0  501 -0.00000000000E+00 -0.00000000000E+00 -0.35744959969E+03  0.35744959969E+03  0.00000000000E+00 0.  1.
         24    2    1    2    0    0 -0.72756098315E+02  0.28210451931E+03 -0.15105654448E+03  0.34255106645E+03  0.98217838689E+02 0.  0.
        254    2    1    2    0    0  0.72756098315E+02 -0.28210451931E+03  0.18283139905E+04  0.20496055790E+04  0.87936031963E+03 0.  0.
         23    2    4    4    0    0  0.85221951858E+02  0.37365219925E+02  0.16806338956E+04  0.16858069700E+04  0.93573010199E+02 0.  0.
         23    2    4    4    0    0 -0.12465853543E+02 -0.31946973924E+03  0.14768009490E+03  0.36379860897E+03  0.91234344776E+02 0.  0.
          4    1    3    3  502    0 -0.16201259471E+01  0.16776324907E+03 -0.52909006159E+02  0.17591616037E+03  0.00000000000E+00 0. -1.
         -3    1    3    3    0  502 -0.71135972368E+02  0.11434127024E+03 -0.98147538318E+02  0.16663490608E+03  0.00000000000E+00 0.  1.
         13    1    5    5    0    0  0.49654426169E+02  0.32718552720E+01  0.28556206359E+03  0.28986541573E+03  0.00000000000E+00 0. -1.
        -13    1    5    5    0    0  0.35567525689E+02  0.34093364653E+02  0.13950718320E+04  0.13959415543E+04  0.00000000000E+00 0.  1.
          1    1    6    6  503    0 -0.41331624147E+02 -0.10896201435E+03  0.77816193206E+02  0.14012988136E+03  0.00000000000E+00 0. -1.
         -1    1    6    6    0  503  0.28865770605E+02 -0.21050772489E+03  0.69863901695E+02  0.22366872761E+03  0.00000000000E+00 0.  1.
<mgrwt>
<rscale>  0 0.17056438E+04</rscale>
<asrwt>0</asrwt>
<pdfrwt beam="1">  1        2 0.31303185E+00 0.17056438E+04</pdfrwt>
<pdfrwt beam="2">  1       -1 0.54992247E-01 0.17056438E+04</pdfrwt>
<totfact> 0.23138340E+01</totfact>
</mgrwt>
</event>
<event>
12    7  0.1909736E-007  0.3793677E+04  0.7818608E-02  0.8047513E-01
         -1   -1    0    0    0  501 -0.00000000000E+00  0.00000000000E+00  0.10209369286E+04  0.10209369286E+04  0.00000000000E+00 0.  1.
          2   -1    0    0  501    0  0.00000000000E+00 -0.00000000000E+00 -0.35242106591E+04  0.35242106591E+04  0.00000000000E+00 0. -1.
         24    2    1    2    0    0  0.14167463782E+03 -0.16545777086E+04 -0.37514916787E+03  0.17041768819E+04  0.76045049649E+02 0.  0.
        254    2    1    2    0    0 -0.14167463782E+03  0.16545777086E+04 -0.21281245627E+04  0.28409707058E+04  0.88572077990E+03 0.  0.
         23    2    4    4    0    0 -0.10318634340E+02  0.94248409665E+03 -0.18141036749E+04  0.20462942722E+04  0.89248857388E+02 0.  0.
         23    2    4    4    0    0 -0.13135600348E+03  0.71209361199E+03 -0.31402088780E+03  0.79467643360E+03  0.92573237254E+02 0.  0.
          2    1    3    3  502    0  0.10206351203E+03 -0.11927019948E+04 -0.23527244293E+03  0.12199623483E+04  0.00000000000E+00 0. -1.
         -1    1    3    3    0  502  0.39611125785E+02 -0.46187571388E+03 -0.13987672494E+03  0.48421453359E+03  0.00000000000E+00 0.  1.
         13    1    5    5    0    0 -0.26288312493E+02  0.83475528277E+02 -0.17566524645E+03  0.19625880364E+03  0.00000000000E+00 0.  1.
        -13    1    5    5    0    0  0.15969678153E+02  0.85900856837E+03 -0.16384384284E+04  0.18500354685E+04  0.00000000000E+00 0. -1.
          3    1    6    6  503    0 -0.10213956992E+03  0.67369953026E+03 -0.29930387676E+03  0.74423541938E+03  0.00000000000E+00 0. -1.
         -3    1    6    6    0  503 -0.29216433554E+02  0.38394081737E+02 -0.14717011041E+02  0.50441014225E+02  0.00000000000E+00 0.  1.
<mgrwt>
<rscale>  0 0.37936773E+04</rscale>
<asrwt>0</asrwt>
<pdfrwt beam="1">  1        2 0.54218624E+00 0.37936773E+04</pdfrwt>
<pdfrwt beam="2">  1       -1 0.15706722E+00 0.37936773E+04</pdfrwt>
<totfact> 0.21857886E-01</totfact>
</mgrwt>
</event>
<event>
12    7  0.1909736E-007  0.1327298E+04  0.7818608E-02  0.9008193E-01
          2   -1    0    0  501    0  0.00000000000E+00  0.00000000000E+00  0.13401064279E+04  0.13401064279E+04  0.00000000000E+00 0. -1.
         -1   -1    0    0    0  501 -0.00000000000E+00 -0.00000000000E+00 -0.32865307843E+03  0.32865307843E+03  0.00000000000E+00 0.  1.
         24    2    1    2    0    0  0.23683617818E+03 -0.18140002794E+03  0.51361786129E+03  0.59926180485E+03  0.79461046348E+02 0.  0.
        254    2    1    2    0    0 -0.23683617818E+03  0.18140002794E+03  0.49783548820E+03  0.10694977015E+04  0.89832500510E+03 0.  0.
         23    2    4    4    0    0  0.22270161114E+03  0.20706557207E+02 -0.12648443350E+03  0.27310750462E+03  0.92545275671E+02 0.  0.
         23    2    4    4    0    0 -0.45953778931E+03  0.16069347073E+03  0.62431992169E+03  0.79639019688E+03  0.86397972882E+02 0.  0.
          2    1    3    3  502    0  0.21862158723E+03 -0.15154226522E+03  0.48840138465E+03  0.55614419810E+03  0.00000000000E+00 0. -1.
         -1    1    3    3    0  502  0.18214590952E+02 -0.29857762719E+02  0.25216476646E+02  0.43117606759E+02  0.00000000000E+00 0.  1.
         13    1    5    5    0    0  0.90993670800E+02  0.34613804783E+02 -0.12088833955E+02  0.98102515328E+02  0.00000000000E+00 0.  1.
        -13    1    5    5    0    0  0.13170794034E+03 -0.13907247576E+02 -0.11439559954E+03  0.17500498929E+03  0.00000000000E+00 0. -1.
          1    1    6    6  503    0 -0.22460981697E+03  0.12291044996E+03  0.34043258006E+03  0.42597052733E+03  0.00000000000E+00 0. -1.
         -1    1    6    6    0  503 -0.23492797234E+03  0.37783020774E+02  0.28388734163E+03  0.37041966955E+03  0.00000000000E+00 0.  1.
<mgrwt>
<rscale>  0 0.13272982E+04</rscale>
<asrwt>0</asrwt>
<pdfrwt beam="1">  1        2 0.20617022E+00 0.13272982E+04</pdfrwt>
<pdfrwt beam="2">  1       -1 0.50562013E-01 0.13272982E+04</pdfrwt>
<totfact> 0.68627864E+01</totfact>
</mgrwt>
</event>
<event>
12    7  0.1909736E-007  0.2042359E+04  0.7818608E-02  0.8587069E-01
         -1   -1    0    0    0  501 -0.00000000000E+00  0.00000000000E+00  0.37842591661E+03  0.37842591661E+03  0.00000000000E+00 0.  1.
          2   -1    0    0  501    0  0.00000000000E+00 -0.00000000000E+00 -0.27556439514E+04  0.27556439514E+04  0.00000000000E+00 0. -1.
         24    2    1    2    0    0  0.76735604043E+02 -0.81023224108E+03 -0.98792628990E+03  0.12825506674E+04  0.81075414040E+02 0.  0.
        254    2    1    2    0    0 -0.76735604043E+02  0.81023224108E+03 -0.13892917449E+04  0.18515192006E+04  0.91412644661E+03 0.  0.
         23    2    4    4    0    0 -0.21993156571E+03  0.26314072684E+03 -0.11947204391E+04  0.12461388487E+04  0.88837869067E+02 0.  0.
         23    2    4    4    0    0  0.14319596166E+03  0.54709151425E+03 -0.19457130581E+03  0.60538035190E+03  0.93878480083E+02 0.  0.
          2    1    3    3  502    0  0.44907558685E+02 -0.72939278347E+03 -0.87329880595E+03  0.11387191602E+04  0.00000000000E+00 0. -1.
         -1    1    3    3    0  502  0.31828045358E+02 -0.80839457617E+02 -0.11462748396E+03  0.14383150718E+03  0.00000000000E+00 0.  1.
         13    1    5    5    0    0 -0.16494267195E+03  0.20293561327E+03 -0.10251979042E+04  0.10580263186E+04  0.00000000000E+00 0.  1.
        -13    1    5    5    0    0 -0.54988893752E+02  0.60205113564E+02 -0.16952253494E+03  0.18811253012E+03  0.00000000000E+00 0. -1.
          1    1    6    6  503    0  0.33580624784E+01  0.12450946916E+03 -0.71254223298E+02  0.14349581468E+03  0.00000000000E+00 0. -1.
         -1    1    6    6    0  503  0.13983789918E+03  0.42258204509E+03 -0.12331708251E+03  0.46188453721E+03  0.00000000000E+00 0.  1.
<mgrwt>
<rscale>  0 0.20423585E+04</rscale>
<asrwt>0</asrwt>
<pdfrwt beam="1">  1        2 0.42394524E+00 0.20423585E+04</pdfrwt>
<pdfrwt beam="2">  1       -1 0.58219370E-01 0.20423585E+04</pdfrwt>
<totfact> 0.77565503E+00</totfact>
</mgrwt>
</event>
<event>
12    7  0.1909736E-007  0.2735372E+04  0.7818608E-02  0.8323618E-01
         -1   -1    0    0    0  501 -0.00000000000E+00  0.00000000000E+00  0.13305279868E+04  0.13305279868E+04  0.00000000000E+00 0.  1.
          2   -1    0    0  501    0  0.00000000000E+00 -0.00000000000E+00 -0.14058816515E+04  0.14058816515E+04  0.00000000000E+00 0. -1.
         24    2    1    2    0    0 -0.97738816110E+03 -0.66419335246E+03  0.26728535020E+03  0.12142733331E+04  0.81103897468E+02 0.  0.
        254    2    1    2    0    0  0.97738816110E+03  0.66419335246E+03 -0.34263901491E+03  0.15221363051E+04  0.89613448209E+03 0.  0.
         23    2    4    4    0    0 -0.26673642519E+02 -0.14241665057E+03 -0.12669759521E+03  0.21295870255E+03  0.91132556180E+02 0.  0.
         23    2    4    4    0    0  0.10040618036E+04  0.80661000303E+03 -0.21594141970E+03  0.13091776026E+04  0.92495923777E+02 0.  0.
          4    1    3    3  502    0 -0.83866524144E+03 -0.56120471049E+03  0.25628773042E+03  0.10411500925E+04  0.00000000000E+00 0. -1.
         -3    1    3    3    0  502 -0.13872291966E+03 -0.10298864198E+03  0.10997619778E+02  0.17312324066E+03  0.00000000000E+00 0.  1.
         13    1    5    5    0    0 -0.21506859590E+02 -0.12967955114E+03 -0.59359425839E+02  0.14423200903E+03  0.00000000000E+00 0. -1.
        -13    1    5    5    0    0 -0.51667829293E+01 -0.12737099426E+02 -0.67338169371E+02  0.68726693518E+02  0.00000000000E+00 0.  1.
          3    1    6    6  503    0  0.97368075717E+03  0.75820740797E+03 -0.20811187516E+03  0.12514964015E+04  0.00000000000E+00 0. -1.
         -3    1    6    6    0  503  0.30381046454E+02  0.48402595067E+02 -0.78295445364E+01  0.57681201101E+02  0.00000000000E+00 0.  1.
<mgrwt>
<rscale>  0 0.27353719E+04</rscale>
<asrwt>0</asrwt>
<pdfrwt beam="1">  1        2 0.21628949E+00 0.27353719E+04</pdfrwt>
<pdfrwt beam="2">  1       -1 0.20469661E+00 0.27353719E+04</pdfrwt>
<totfact> 0.19989991E+00</totfact>
</mgrwt>
</event>
<event>
12    7  0.1909736E-007  0.1976716E+04  0.7818608E-02  0.8617585E-01
          2   -1    0    0  501    0  0.00000000000E+00  0.00000000000E+00  0.13092964849E+04  0.13092964849E+04  0.00000000000E+00 0. -1.
         -1   -1    0    0    0  501 -0.00000000000E+00 -0.00000000000E+00 -0.74608855125E+03  0.74608855125E+03  0.00000000000E+00 0.  1.
         24    2    1    2    0    0 -0.97281849961E+02 -0.49374499259E+02 -0.58229103098E+03  0.59786477093E+03  0.80485029974E+02 0.  0.
        254    2    1    2    0    0  0.97281849961E+02  0.49374499259E+02  0.11454989646E+04  0.14575202652E+04  0.89459255867E+03 0.  0.
         23    2    4    4    0    0 -0.36761393637E+03  0.99955246930E+02  0.32521322167E+03  0.50904983987E+03  0.90758152904E+02 0.  0.
         23    2    4    4    0    0  0.46489578633E+03 -0.50580747671E+02  0.82028574293E+03  0.94847042532E+03  0.89671307902E+02 0.  0.
          2    1    3    3  502    0 -0.50375302898E+02 -0.77145651935E+01 -0.10774297318E+03  0.11918780947E+03  0.00000000000E+00 0. -1.
         -1    1    3    3    0  502 -0.46906547063E+02 -0.41659934065E+02 -0.47454805780E+03  0.47867696145E+03  0.00000000000E+00 0.  1.
         13    1    5    5    0    0 -0.95546935788E+02  0.16392708183E+02  0.13701966470E+03  0.16784613887E+03  0.00000000000E+00 0. -1.
        -13    1    5    5    0    0 -0.27206700058E+03  0.83562538747E+02  0.18819355697E+03  0.34120370099E+03  0.00000000000E+00 0.  1.
          2    1    6    6  503    0  0.62072020210E+02  0.80880810300E+00  0.58974074760E+02  0.85624361938E+02  0.00000000000E+00 0. -1.
         -2    1    6    6    0  503  0.40282376612E+03 -0.51389555774E+02  0.76131166817E+03  0.86284606338E+03  0.00000000000E+00 0.  1.
<mgrwt>
<rscale>  0 0.19767156E+04</rscale>
<asrwt>0</asrwt>
<pdfrwt beam="1">  1        2 0.20143023E+00 0.19767156E+04</pdfrwt>
<pdfrwt beam="2">  1       -1 0.11478285E+00 0.19767156E+04</pdfrwt>
<totfact> 0.11945009E+01</totfact>
</mgrwt>
</event>
<event>
12    7  0.1909736E-007  0.1321042E+04  0.7818608E-02  0.9013043E-01
         -1   -1    0    0    0  501 -0.00000000000E+00  0.00000000000E+00  0.42775710471E+03  0.42775710471E+03  0.00000000000E+00 0.  1.
          2   -1    0    0  501    0  0.00000000000E+00 -0.00000000000E+00 -0.10199438938E+04  0.10199438938E+04  0.00000000000E+00 0. -1.
         24    2    1    2    0    0 -0.26593487709E+03 -0.48587300684E+02  0.80772460613E+02  0.29316764609E+03  0.79630356522E+02 0.  0.
        254    2    1    2    0    0  0.26593487709E+03  0.48587300684E+02 -0.67295924975E+03  0.11545333525E+04  0.89832679214E+03 0.  0.
         23    2    4    4    0    0  0.55055908070E+03  0.18504370103E+03 -0.30500789219E+03  0.66135954514E+03  0.83726704363E+02 0.  0.
         23    2    4    4    0    0 -0.28462420361E+03 -0.13645640035E+03 -0.36795135756E+03  0.49317380732E+03  0.90558910213E+02 0.  0.
          2    1    3    3  502    0 -0.11303520990E+03 -0.34013835875E+02  0.74217800564E+02  0.13943522378E+03  0.00000000000E+00 0. -1.
         -1    1    3    3    0  502 -0.15289966719E+03 -0.14573464809E+02  0.65546600487E+01  0.15373242231E+03  0.00000000000E+00 0.  1.
         13    1    5    5    0    0  0.12867282259E+02 -0.81951824890E+01 -0.52053419005E+01  0.16119043180E+02  0.00000000000E+00 0. -1.
        -13    1    5    5    0    0  0.53769179844E+03  0.19323888352E+03 -0.29980255029E+03  0.64524050196E+03  0.00000000000E+00 0.  1.
          2    1    6    6  503    0 -0.71985418986E+02  0.54841041146E+01 -0.69808169815E+02  0.10042487997E+03  0.00000000000E+00 0. -1.
         -2    1    6    6    0  503 -0.21263878462E+03 -0.14194050446E+03 -0.29814318774E+03  0.39274892734E+03  0.00000000000E+00 0.  1.
<mgrwt>
<rscale>  0 0.13210424E+04</rscale>
<asrwt>0</asrwt>
<pdfrwt beam="1">  1        2 0.15691444E+00 0.13210424E+04</pdfrwt>
<pdfrwt beam="2">  1       -1 0.65808786E-01 0.13210424E+04</pdfrwt>
<totfact> 0.63918724E+01</totfact>
</mgrwt>
</event>
<event>
12    7  0.1909736E-007  0.3049874E+04  0.7818608E-02  0.8229631E-01
          2   -1    0    0  501    0  0.00000000000E+00  0.00000000000E+00  0.52153174941E+03  0.52153174941E+03  0.00000000000E+00 0. -1.
         -1   -1    0    0    0  501 -0.00000000000E+00 -0.00000000000E+00 -0.44588506740E+04  0.44588506740E+04  0.00000000000E+00 0.  1.
         24    2    1    2    0    0 -0.30943151633E+03  0.49160297016E+03  0.25409325952E+03  0.63962766905E+03  0.84491578966E+02 0.  0.
        254    2    1    2    0    0  0.30943151633E+03 -0.49160297016E+03 -0.41914121841E+04  0.43407547544E+04  0.96788139609E+03 0.  0.
         23    2    4    4    0    0  0.14088212465E+03 -0.42963690384E+02 -0.63267491302E+02  0.18388766385E+03  0.90101308120E+02 0.  0.
         23    2    4    4    0    0  0.16854939168E+03 -0.44863927978E+03 -0.41281446928E+04  0.41568670905E+04  0.90990673478E+02 0.  0.
          2    1    3    3  502    0 -0.23394163868E+03  0.42947836756E+03  0.20604745225E+03  0.53069380164E+03  0.00000000000E+00 0. -1.
         -1    1    3    3    0  502 -0.75489877641E+02  0.62124602599E+02  0.48045807264E+02  0.10893386741E+03  0.00000000000E+00 0.  1.
         13    1    5    5    0    0  0.32333209769E+02  0.27940463387E+02 -0.11261289217E+02  0.44191883679E+02  0.00000000000E+00 0. -1.
        -13    1    5    5    0    0  0.10854891488E+03 -0.70904153770E+02 -0.52006202085E+02  0.13969578017E+03  0.00000000000E+00 0.  1.
          3    1    6    6  503    0  0.93666010533E+02 -0.29859696787E+03 -0.23303801281E+04  0.23512985799E+04  0.00000000000E+00 0. -1.
         -3    1    6    6    0  503  0.74883381146E+02 -0.15004231190E+03 -0.17977645648E+04  0.18055685106E+04  0.00000000000E+00 0.  1.
<mgrwt>
<rscale>  0 0.30498736E+04</rscale>
<asrwt>0</asrwt>
<pdfrwt beam="1">  1        2 0.80235654E-01 0.30498736E+04</pdfrwt>
<pdfrwt beam="2">  1       -1 0.68597703E+00 0.30498736E+04</pdfrwt>
<totfact> 0.12623419E-02</totfact>
</mgrwt>
</event>
<event>
12    7  0.1909736E-007  0.2323661E+04  0.7818608E-02  0.8468650E-01
          2   -1    0    0  501    0  0.00000000000E+00  0.00000000000E+00  0.22846306314E+04  0.22846306314E+04  0.00000000000E+00 0. -1.
         -1   -1    0    0    0  501 -0.00000000000E+00 -0.00000000000E+00 -0.59083955181E+03  0.59083955181E+03  0.00000000000E+00 0.  1.
         24    2    1    2    0    0 -0.92347261285E+03  0.37830994906E+03  0.75901124714E+03  0.12562955835E+04  0.79122914740E+02 0.  0.
        254    2    1    2    0    0  0.92347261285E+03 -0.37830994906E+03  0.93477983249E+03  0.16191745997E+04  0.86717527924E+03 0.  0.
         23    2    4    4    0    0  0.15674183080E+03  0.26048907362E+03  0.26467906588E+03  0.41340326100E+03  0.91786106213E+02 0.  0.
         23    2    4    4    0    0  0.76673078205E+03 -0.63879902268E+03  0.67010076662E+03  0.12057713387E+04  0.94388560611E+02 0.  0.
          2    1    3    3  502    0 -0.74335495605E+02  0.47664234318E+02  0.87877168052E+02  0.12457945980E+03  0.00000000000E+00 0. -1.
         -1    1    3    3    0  502 -0.84913711725E+03  0.33064571474E+03  0.67113407909E+03  0.11317161237E+04  0.00000000000E+00 0.  1.
         13    1    5    5    0    0  0.51392184573E+02  0.35842228664E+02  0.91201558099E+02  0.11065055893E+03  0.00000000000E+00 0.  1.
        -13    1    5    5    0    0  0.10534964623E+03  0.22464684495E+03  0.17347750778E+03  0.30275270207E+03  0.00000000000E+00 0. -1.
          4    1    6    6  503    0  0.76506445258E+03 -0.63054933472E+03  0.65428998895E+03  0.11878600379E+04  0.00000000000E+00 0. -1.
         -4    1    6    6    0  503  0.16663294711E+01 -0.82496879533E+01  0.15810777672E+02  0.17911300785E+02  0.00000000000E+00 0.  1.
<mgrwt>
<rscale>  0 0.23236610E+04</rscale>
<asrwt>0</asrwt>
<pdfrwt beam="1">  1        2 0.35148163E+00 0.23236610E+04</pdfrwt>
<pdfrwt beam="2">  1       -1 0.90898394E-01 0.23236610E+04</pdfrwt>
<totfact> 0.56268068E+00</totfact>
</mgrwt>
</event>
<event>
12    7  0.1909736E-007  0.2308489E+04  0.7818608E-02  0.8474582E-01
          2   -1    0    0  501    0  0.00000000000E+00  0.00000000000E+00  0.37721195557E+04  0.37721195557E+04  0.00000000000E+00 0. -1.
         -1   -1    0    0    0  501 -0.00000000000E+00 -0.00000000000E+00 -0.35319140585E+03  0.35319140585E+03  0.00000000000E+00 0.  1.
         24    2    1    2    0    0 -0.21720378244E+03  0.93941998410E+03  0.12701690826E+04  0.15967239549E+04  0.80687669991E+02 0.  0.
        254    2    1    2    0    0  0.21720378244E+03 -0.93941998410E+03  0.21487590673E+04  0.25285870067E+04  0.92027133580E+03 0.  0.
         23    2    4    4    0    0 -0.10275701299E+03  0.19221884661E+01  0.98854076315E+03  0.99782029994E+03  0.88711961080E+02 0.  0.
         23    2    4    4    0    0  0.31996079543E+03 -0.94134217257E+03  0.11602183041E+04  0.15307667067E+04  0.92952680153E+02 0.  0.
          4    1    3    3  502    0 -0.16202295022E+03  0.63624978343E+03  0.80579937753E+03  0.10394122667E+04  0.00000000000E+00 0. -1.
         -3    1    3    3    0  502 -0.55180832227E+02  0.30317020067E+03  0.46436970507E+03  0.55731168820E+03  0.00000000000E+00 0.  1.
         13    1    5    5    0    0 -0.70544093150E+02 -0.39986270886E+02  0.51604167888E+03  0.52237379842E+03  0.00000000000E+00 0. -1.
        -13    1    5    5    0    0 -0.32212919838E+02  0.41908459352E+02  0.47249908427E+03  0.47544650152E+03  0.00000000000E+00 0.  1.
          2    1    6    6  503    0  0.26970955800E+03 -0.72303676652E+03  0.94570816997E+03  0.12206102384E+04  0.00000000000E+00 0. -1.
         -2    1    6    6    0  503  0.50251237432E+02 -0.21830540604E+03  0.21451013413E+03  0.31015646828E+03  0.00000000000E+00 0.  1.
<mgrwt>
<rscale>  0 0.23084889E+04</rscale>
<asrwt>0</asrwt>
<pdfrwt beam="1">  1        2 0.58032606E+00 0.23084889E+04</pdfrwt>
<pdfrwt beam="2">  1       -1 0.54337142E-01 0.23084889E+04</pdfrwt>
<totfact> 0.18254157E+00</totfact>
</mgrwt>
</event>
<event>
12    7  0.2121747E-007  0.1645311E+04  0.7818608E-02  0.8793185E-01
          2   -1    0    0  501    0  0.00000000000E+00  0.00000000000E+00  0.22515937008E+04  0.22515937008E+04  0.00000000000E+00 0. -1.
         -1   -1    0    0    0  501 -0.00000000000E+00 -0.00000000000E+00 -0.30057029435E+03  0.30057029435E+03  0.00000000000E+00 0.  1.
         24    2    1    2    0    0  0.14264585306E+03 -0.15497311353E+03 -0.13530549871E+03  0.26274698773E+03  0.79774032528E+02 0.  0.
        254    2    1    2    0    0 -0.14264585306E+03  0.15497311353E+03  0.20863289051E+04  0.22894170074E+04  0.91885658732E+03 0.  0.
         23    2    4    4    0    0 -0.49951105003E+03  0.24468675248E+03  0.12326992764E+04  0.13553216581E+04  0.89254663705E+02 0.  0.
         23    2    4    4    0    0  0.35686519696E+03 -0.89713638953E+02  0.85362962875E+03  0.93409534929E+03  0.91919925342E+02 0.  0.
          4    1    3    3  502    0  0.10872752504E+02  0.84532046509E+01 -0.16625268589E+02  0.21588723249E+02  0.00000000000E+00 0. -1.
         -3    1    3    3    0  502  0.13177310056E+03 -0.16342631818E+03 -0.11868023012E+03  0.24115826448E+03  0.00000000000E+00 0.  1.
         13    1    5    5    0    0 -0.18346087481E+03  0.43129401727E+02  0.41840589867E+03  0.45889163636E+03  0.00000000000E+00 0. -1.
        -13    1    5    5    0    0 -0.31605017522E+03  0.20155735075E+03  0.81429337771E+03  0.89643002174E+03  0.00000000000E+00 0.  1.
          3    1    6    6  503    0  0.92463025040E+02  0.16301204246E+02  0.19101265445E+03  0.21284025564E+03  0.00000000000E+00 0. -1.
         -3    1    6    6    0  503  0.26440217192E+03 -0.10601484320E+03  0.66261697430E+03  0.72125509366E+03  0.00000000000E+00 0.  1.
<mgrwt>
<rscale>  0 0.16453111E+04</rscale>
<asrwt>0</asrwt>
<pdfrwt beam="1">  1        2 0.34639902E+00 0.16453111E+04</pdfrwt>
<pdfrwt beam="2">  1       -1 0.46241585E-01 0.16453111E+04</pdfrwt>
<totfact> 0.24478003E+01</totfact>
</mgrwt>
</event>
<event>
12    7  0.1909736E-007  0.1856522E+04  0.7818608E-02  0.8676806E-01
         -1   -1    0    0    0  501 -0.00000000000E+00  0.00000000000E+00  0.82387307020E+03  0.82387307020E+03  0.00000000000E+00 0.  1.
          2   -1    0    0  501    0  0.00000000000E+00 -0.00000000000E+00 -0.10458756921E+04  0.10458756921E+04  0.00000000000E+00 0. -1.
         24    2    1    2    0    0  0.13801924432E+03 -0.58135249155E+03 -0.46913345471E+03  0.76385736228E+03  0.79823808183E+02 0.  0.
        254    2    1    2    0    0 -0.13801924432E+03  0.58135249155E+03  0.24713083282E+03  0.11058914000E+04  0.89716336799E+03 0.  0.
         23    2    4    4    0    0 -0.47095057372E+03  0.24582063143E+03 -0.48784620037E+02  0.54062763980E+03  0.87613241221E+02 0.  0.
         23    2    4    4    0    0  0.33293132939E+03  0.33553186011E+03  0.29591545286E+03  0.56526376021E+03  0.92370255639E+02 0.  0.
          4    1    3    3  502    0  0.10161139461E+03 -0.28799498700E+03 -0.26799108517E+03  0.40630679268E+03  0.00000000000E+00 0. -1.
         -3    1    3    3    0  502  0.36407849719E+02 -0.29335750455E+03 -0.20114236954E+03  0.35755056960E+03  0.00000000000E+00 0.  1.
         13    1    5    5    0    0 -0.45306314401E+03  0.24575079939E+03 -0.32512749518E+02  0.51644626704E+03  0.00000000000E+00 0. -1.
        -13    1    5    5    0    0 -0.17887429712E+02  0.69832040219E-01 -0.16271870519E+02  0.24181372757E+02  0.00000000000E+00 0.  1.
          4    1    6    6  503    0  0.29578180725E+03  0.28518927423E+03  0.21732996841E+03  0.46481406477E+03  0.00000000000E+00 0. -1.
         -4    1    6    6    0  503  0.37149522143E+02  0.50342585879E+02  0.78585484451E+02  0.10044969544E+03  0.00000000000E+00 0.  1.
<mgrwt>
<rscale>  0 0.18565224E+04</rscale>
<asrwt>0</asrwt>
<pdfrwt beam="1">  1        2 0.16090395E+00 0.18565224E+04</pdfrwt>
<pdfrwt beam="2">  1       -1 0.12674970E+00 0.18565224E+04</pdfrwt>
<totfact> 0.13647259E+01</totfact>
</mgrwt>
</event>
<event>
12    7  0.1909736E-007  0.1630088E+04  0.7818608E-02  0.8802274E-01
         -1   -1    0    0    0  501 -0.00000000000E+00  0.00000000000E+00  0.32861725737E+03  0.32861725737E+03  0.00000000000E+00 0.  1.
          2   -1    0    0  501    0  0.00000000000E+00 -0.00000000000E+00 -0.20214908671E+04  0.20214908671E+04  0.00000000000E+00 0. -1.
         24    2    1    2    0    0 -0.40988023015E+03 -0.21338966492E+03 -0.14317309818E+03  0.49184719735E+03  0.88759097209E+02 0.  0.
        254    2    1    2    0    0  0.40988023015E+03  0.21338966492E+03 -0.15497005115E+04  0.18582609271E+04  0.91543707898E+03 0.  0.
         23    2    4    4    0    0  0.30965164527E+03 -0.33186196873E+03 -0.72576515366E+03  0.86100475651E+03  0.92615467120E+02 0.  0.
         23    2    4    4    0    0  0.10022858488E+03  0.54525163365E+03 -0.82393535787E+03  0.99725617059E+03  0.91133323254E+02 0.  0.
          2    1    3    3  502    0 -0.13846534957E+03 -0.33788704171E+02 -0.67519717985E+02  0.15771252924E+03  0.00000000000E+00 0. -1.
         -1    1    3    3    0  502 -0.27141488058E+03 -0.17960096075E+03 -0.75653380198E+02  0.33413466812E+03  0.00000000000E+00 0.  1.
         13    1    5    5    0    0  0.11059923213E+03 -0.66873125830E+02 -0.16459769031E+03  0.20927638367E+03  0.00000000000E+00 0.  1.
        -13    1    5    5    0    0  0.19905241314E+03 -0.26498884290E+03 -0.56116746335E+03  0.65172837284E+03  0.00000000000E+00 0. -1.
          1    1    6    6  503    0  0.10162182346E+03  0.31843234779E+03 -0.46536505293E+03  0.57296665489E+03  0.00000000000E+00 0. -1.
         -1    1    6    6    0  503 -0.13932385822E+01  0.22681928586E+03 -0.35857030494E+03  0.42428951570E+03  0.00000000000E+00 0.  1.
<mgrwt>
<rscale>  0 0.16300881E+04</rscale>
<asrwt>0</asrwt>
<pdfrwt beam="1">  1        2 0.31099859E+00 0.16300881E+04</pdfrwt>
<pdfrwt beam="2">  1       -1 0.50556501E-01 0.16300881E+04</pdfrwt>
<totfact> 0.27841103E+01</totfact>
</mgrwt>
</event>
<event>
12    7  0.1909736E-007  0.1698949E+04  0.7818608E-02  0.8761964E-01
          2   -1    0    0  501    0  0.00000000000E+00  0.00000000000E+00  0.27655556396E+04  0.27655556396E+04  0.00000000000E+00 0. -1.
         -1   -1    0    0    0  501 -0.00000000000E+00 -0.00000000000E+00 -0.26092664769E+03  0.26092664769E+03  0.00000000000E+00 0.  1.
         24    2    1    2    0    0  0.52891143086E+03 -0.54351522166E+02  0.38628611885E+03  0.66185892467E+03  0.78351010816E+02 0.  0.
        254    2    1    2    0    0 -0.52891143086E+03  0.54351522166E+02  0.21183428730E+04  0.23646233626E+04  0.90629229804E+03 0.  0.
         23    2    4    4    0    0 -0.54089382288E+03  0.40808381650E+03  0.14182587155E+04  0.15744770716E+04  0.91770017335E+02 0.  0.
         23    2    4    4    0    0  0.11982392013E+02 -0.35373229433E+03  0.70008415758E+03  0.79014629099E+03  0.94568597907E+02 0.  0.
          4    1    3    3  502    0  0.56135721336E+02  0.90784929180E+01  0.19433967814E+02  0.60094237232E+02  0.00000000000E+00 0. -1.
         -3    1    3    3    0  502  0.47277570953E+03 -0.63430015084E+02  0.36685215104E+03  0.60176468744E+03  0.00000000000E+00 0.  1.
         13    1    5    5    0    0 -0.16126894051E+02  0.28646539283E-01  0.62110736489E+02  0.64170251048E+02  0.00000000000E+00 0. -1.
        -13    1    5    5    0    0 -0.52476692882E+03  0.40805516996E+03  0.13561479790E+04  0.15103068205E+04  0.00000000000E+00 0.  1.
          2    1    6    6  503    0  0.52781086977E+02 -0.19251482809E+03  0.36272879434E+03  0.41402896085E+03  0.00000000000E+00 0. -1.
         -2    1    6    6    0  503 -0.40798694963E+02 -0.16121746624E+03  0.33735536323E+03  0.37611733015E+03  0.00000000000E+00 0.  1.
<mgrwt>
<rscale>  0 0.16989493E+04</rscale>
<asrwt>0</asrwt>
<pdfrwt beam="1">  1        2 0.42547008E+00 0.16989493E+04</pdfrwt>
<pdfrwt beam="2">  1       -1 0.40142563E-01 0.16989493E+04</pdfrwt>
<totfact> 0.15956212E+01</totfact>
</mgrwt>
</event>
<event>
12    7  0.1909736E-007  0.1525761E+04  0.7818608E-02  0.8867501E-01
          2   -1    0    0  501    0  0.00000000000E+00  0.00000000000E+00  0.52875466285E+03  0.52875466285E+03  0.00000000000E+00 0. -1.
         -1   -1    0    0    0  501 -0.00000000000E+00 -0.00000000000E+00 -0.11006735643E+04  0.11006735643E+04  0.00000000000E+00 0.  1.
         24    2    1    2    0    0 -0.21920742994E+03  0.10711138104E+03  0.27126040471E+03  0.37362001210E+03  0.80529255518E+02 0.  0.
        254    2    1    2    0    0  0.21920742994E+03 -0.10711138104E+03 -0.84317930613E+03  0.12558082150E+04  0.89809697992E+03 0.  0.
         23    2    4    4    0    0  0.54464747114E+03 -0.49238337473E+02 -0.35320358628E+03  0.65747875277E+03  0.91979646048E+02 0.  0.
         23    2    4    4    0    0 -0.32544004120E+03 -0.57873043565E+02 -0.48997571984E+03  0.59832946225E+03  0.93066802739E+02 0.  0.
          4    1    3    3  502    0 -0.11148214695E+03  0.97943530704E+02  0.16732259808E+03  0.22364716883E+03  0.00000000000E+00 0. -1.
         -3    1    3    3    0  502 -0.10772528298E+03  0.91678503341E+01  0.10393780663E+03  0.14997284328E+03  0.00000000000E+00 0.  1.
         13    1    5    5    0    0  0.31202740930E+03 -0.67257916049E+02 -0.17602444968E+03  0.36451246661E+03  0.00000000000E+00 0. -1.
        -13    1    5    5    0    0  0.23262006183E+03  0.18019578576E+02 -0.17717913660E+03  0.29296628616E+03  0.00000000000E+00 0.  1.
          3    1    6    6  503    0 -0.11468910799E+03  0.14019389051E+02 -0.21888802995E+03  0.24751182682E+03  0.00000000000E+00 0. -1.
         -3    1    6    6    0  503 -0.21075093321E+03 -0.71892432616E+02 -0.27108768990E+03  0.35081763543E+03  0.00000000000E+00 0.  1.
<mgrwt>
<rscale>  0 0.15257605E+04</rscale>
<asrwt>0</asrwt>
<pdfrwt beam="1">  1        2 0.81346872E-01 0.15257605E+04</pdfrwt>
<pdfrwt beam="2">  1       -1 0.16933439E+00 0.15257605E+04</pdfrwt>
<totfact> 0.15819892E+01</totfact>
</mgrwt>
</event>
<event>
12    7  0.1909736E-007  0.1221904E+04  0.7818608E-02  0.9093897E-01
          2   -1    0    0  501    0  0.00000000000E+00  0.00000000000E+00  0.14507960238E+04  0.14507960238E+04  0.00000000000E+00 0. -1.
         -1   -1    0    0    0  501 -0.00000000000E+00 -0.00000000000E+00 -0.25728111965E+03  0.25728111965E+03  0.00000000000E+00 0.  1.
         24    2    1    2    0    0  0.25827481874E+03  0.91726892398E+02  0.30099946067E+03  0.41497041876E+03  0.80498871676E+02 0.  0.
        254    2    1    2    0    0 -0.25827481874E+03 -0.91726892398E+02  0.89251544350E+03  0.12931067247E+04  0.89466277435E+03 0.  0.
         23    2    4    4    0    0 -0.34000239417E+03 -0.47578827056E+02  0.10385963512E+04  0.10974709542E+04  0.88852359223E+02 0.  0.
         23    2    4    4    0    0  0.81727575438E+02 -0.44148065342E+02 -0.14608090769E+03  0.19563577052E+03  0.91133280721E+02 0.  0.
          4    1    3    3  502    0  0.29364975916E+02  0.10123878598E+02  0.82548624991E+02  0.88199037503E+02  0.00000000000E+00 0. -1.
         -1    1    3    3    0  502  0.22890984282E+03  0.81603013800E+02  0.21845083568E+03  0.32677138126E+03  0.00000000000E+00 0.  1.
         13    1    5    5    0    0 -0.25561850482E+03 -0.95628607890E+00  0.80999286062E+03  0.84937045437E+03  0.00000000000E+00 0. -1.
        -13    1    5    5    0    0 -0.84383889348E+02 -0.46622540977E+02  0.22860349057E+03  0.24810049982E+03  0.00000000000E+00 0.  1.
          3    1    6    6  503    0  0.43769438534E+02 -0.63434982714E+02 -0.53753062535E+02  0.93963570140E+02  0.00000000000E+00 0. -1.
         -3    1    6    6    0  503  0.37958136904E+02  0.19286917372E+02 -0.92327845159E+02  0.10167220038E+03  0.00000000000E+00 0.  1.
<mgrwt>
<rscale>  0 0.12219041E+04</rscale>
<asrwt>0</asrwt>
<pdfrwt beam="1">  1        2 0.22319938E+00 0.12219041E+04</pdfrwt>
<pdfrwt beam="2">  1       -1 0.39581711E-01 0.12219041E+04</pdfrwt>
<totfact> 0.94325667E+01</totfact>
</mgrwt>
</event>
<event>
12    7  0.1909736E-007  0.2345839E+04  0.7818608E-02  0.8460064E-01
         -1   -1    0    0    0  501 -0.00000000000E+00  0.00000000000E+00  0.55190855080E+03  0.55190855080E+03  0.00000000000E+00 0.  1.
          2   -1    0    0  501    0  0.00000000000E+00 -0.00000000000E+00 -0.24926952039E+04  0.24926952039E+04  0.00000000000E+00 0. -1.
         24    2    1    2    0    0  0.98168746351E+03  0.84454797270E+01 -0.60926806432E+03  0.11581118775E+04  0.78955331969E+02 0.  0.
        254    2    1    2    0    0 -0.98168746351E+03 -0.84454797270E+01 -0.13315185888E+04  0.18864918772E+04  0.90671288088E+03 0.  0.
         23    2    4    4    0    0 -0.79666724510E+03  0.29452627682E+03 -0.52992018547E+03  0.10052023910E+04  0.90509760169E+02 0.  0.
         23    2    4    4    0    0 -0.18502021841E+03 -0.30297175655E+03 -0.80159840331E+03  0.88128948624E+03  0.89926591609E+02 0.  0.
          4    1    3    3  502    0  0.60184680574E+03 -0.26332494621E+02 -0.34697077337E+03  0.69519903296E+03  0.00000000000E+00 0. -1.
         -3    1    3    3    0  502  0.37984065776E+03  0.34777974348E+02 -0.26229729094E+03  0.46291284453E+03  0.00000000000E+00 0.  1.
         13    1    5    5    0    0 -0.57937318782E+03  0.20587587360E+03 -0.33545524916E+03  0.70042015268E+03  0.00000000000E+00 0. -1.
        -13    1    5    5    0    0 -0.21729405728E+03  0.88650403220E+02 -0.19446493631E+03  0.30478223829E+03  0.00000000000E+00 0.  1.
          3    1    6    6  503    0 -0.89095985338E+02 -0.15298019064E+03 -0.50756793433E+03  0.53755580296E+03  0.00000000000E+00 0. -1.
         -3    1    6    6    0  503 -0.95924233068E+02 -0.14999156591E+03 -0.29403046898E+03  0.34373368328E+03  0.00000000000E+00 0.  1.
<mgrwt>
<rscale>  0 0.23458387E+04</rscale>
<asrwt>0</asrwt>
<pdfrwt beam="1">  1        2 0.38349158E+00 0.23458387E+04</pdfrwt>
<pdfrwt beam="2">  1       -1 0.84909006E-01 0.23458387E+04</pdfrwt>
<totfact> 0.49565913E+00</totfact>
</mgrwt>
</event>
<event>
12    7  0.1909736E-007  0.2005167E+04  0.7818608E-02  0.8604209E-01
         -1   -1    0    0    0  501 -0.00000000000E+00  0.00000000000E+00  0.73593994953E+03  0.73593994953E+03  0.00000000000E+00 0.  1.
          2   -1    0    0  501    0  0.00000000000E+00 -0.00000000000E+00 -0.13658362478E+04  0.13658362478E+04  0.00000000000E+00 0. -1.
         24    2    1    2    0    0 -0.43160736551E+03  0.43381109813E+03  0.28445870046E+03  0.67974433755E+03  0.81600400374E+02 0.  0.
        254    2    1    2    0    0  0.43160736551E+03 -0.43381109813E+03 -0.91435499876E+03  0.14220318598E+04  0.90091762095E+03 0.  0.
         23    2    4    4    0    0  0.55475987539E+03 -0.86535493931E+01 -0.24160022834E+03  0.61172826072E+03  0.89484028546E+02 0.  0.
         23    2    4    4    0    0 -0.12315250988E+03 -0.42515754873E+03 -0.67275477041E+03  0.81030359909E+03  0.89819038358E+02 0.  0.
          4    1    3    3  502    0 -0.42317308068E+03  0.43452637650E+03  0.28685033372E+03  0.67094839000E+03  0.00000000000E+00 0. -1.
         -3    1    3    3    0  502 -0.84342848225E+01 -0.71527837116E+00 -0.23916332578E+01  0.87959475474E+01  0.00000000000E+00 0.  1.
         13    1    5    5    0    0  0.48866701636E+03  0.89118216458E+01 -0.18372917468E+03  0.52214105668E+03  0.00000000000E+00 0.  1.
        -13    1    5    5    0    0  0.66092859024E+02 -0.17565371039E+02 -0.57871053668E+02  0.89587204033E+02  0.00000000000E+00 0. -1.
          1    1    6    6  503    0  0.27928554633E+01  0.10700551224E+01 -0.22343798425E+02  0.22543078487E+02  0.00000000000E+00 0. -1.
         -1    1    6    6    0  503 -0.12594536534E+03 -0.42622760386E+03 -0.65041097199E+03  0.78776052060E+03  0.00000000000E+00 0.  1.
<mgrwt>
<rscale>  0 0.20051668E+04</rscale>
<asrwt>0</asrwt>
<pdfrwt beam="1">  1        2 0.21012865E+00 0.20051668E+04</pdfrwt>
<pdfrwt beam="2">  1       -1 0.11322153E+00 0.20051668E+04</pdfrwt>
<totfact> 0.11418348E+01</totfact>
</mgrwt>
</event>
<event>
12    7  0.1909736E-007  0.1934086E+04  0.7818608E-02  0.8638073E-01
         -1   -1    0    0    0  501 -0.00000000000E+00  0.00000000000E+00  0.71949703767E+03  0.71949703767E+03  0.00000000000E+00 0.  1.
          2   -1    0    0  501    0  0.00000000000E+00 -0.00000000000E+00 -0.12997585624E+04  0.12997585624E+04  0.00000000000E+00 0. -1.
         24    2    1    2    0    0 -0.60331141383E+03 -0.69577428265E+01 -0.70515292500E+03  0.93134822773E+03  0.78331356512E+02 0.  0.
        254    2    1    2    0    0  0.60331141383E+03  0.69577428265E+01  0.12489140030E+03  0.10879073723E+04  0.89661112897E+03 0.  0.
         23    2    4    4    0    0  0.53000338230E+03 -0.33063762881E+03 -0.13591221801E+03  0.64579727588E+03  0.91417524030E+02 0.  0.
         23    2    4    4    0    0  0.73308031533E+02  0.33759537163E+03  0.26080361831E+03  0.44211009642E+03  0.89989486028E+02 0.  0.
          2    1    3    3  502    0 -0.55429709181E+03 -0.22069942628E+02 -0.62003548288E+03  0.83197136272E+03  0.00000000000E+00 0. -1.
         -1    1    3    3    0  502 -0.49014322029E+02  0.15112199801E+02 -0.85117442121E+02  0.99376865014E+02  0.00000000000E+00 0.  1.
         13    1    5    5    0    0  0.14660323509E+02 -0.31771898586E+02 -0.11455109732E+01  0.35009867474E+02  0.00000000000E+00 0. -1.
        -13    1    5    5    0    0  0.51534305879E+03 -0.29886573022E+03 -0.13476670703E+03  0.61078740841E+03  0.00000000000E+00 0.  1.
          3    1    6    6  503    0  0.29137678491E+02  0.12038331957E+03  0.14929399922E+03  0.19398413889E+03  0.00000000000E+00 0.  1.
         -3    1    6    6    0  503  0.44170353042E+02  0.21721205206E+03  0.11150961909E+03  0.24812595753E+03  0.00000000000E+00 0. -1.
<mgrwt>
<rscale>  0 0.19340863E+04</rscale>
<asrwt>0</asrwt>
<pdfrwt beam="1">  1        2 0.19996285E+00 0.19340863E+04</pdfrwt>
<pdfrwt beam="2">  1       -1 0.11069185E+00 0.19340863E+04</pdfrwt>
<totfact> 0.13239791E+01</totfact>
</mgrwt>
</event>
<event>
12    7  0.1909736E-007  0.2020942E+04  0.7818608E-02  0.8596892E-01
          2   -1    0    0  501    0  0.00000000000E+00  0.00000000000E+00  0.41668814792E+04  0.41668814792E+04  0.00000000000E+00 0. -1.
         -1   -1    0    0    0  501 -0.00000000000E+00 -0.00000000000E+00 -0.24503977360E+03  0.24503977360E+03  0.00000000000E+00 0.  1.
         24    2    1    2    0    0  0.10788988021E+02  0.44410626283E+03  0.10100232770E+03  0.46224263171E+03  0.78230463520E+02 0.  0.
        254    2    1    2    0    0 -0.10788988021E+02 -0.44410626283E+03  0.38208393779E+04  0.39496786211E+04  0.89654943156E+03 0.  0.
         23    2    4    4    0    0  0.52335847067E+02 -0.64073454812E+03  0.34982929495E+04  0.35579516262E+04  0.87672180565E+02 0.  0.
         23    2    4    4    0    0 -0.63124835088E+02  0.19662828529E+03  0.32254642833E+03  0.39172699491E+03  0.82258207663E+02 0.  0.
          4    1    3    3  502    0 -0.10976999181E+01  0.59095695455E+02  0.42110376463E+02  0.72572653061E+02  0.00000000000E+00 0. -1.
         -1    1    3    3    0  502  0.11886687939E+02  0.38501056738E+03  0.58891951240E+02  0.38966997865E+03  0.00000000000E+00 0.  1.
         13    1    5    5    0    0  0.14319755838E+02 -0.33642859758E+03  0.16004122147E+04  0.16354536110E+04  0.00000000000E+00 0.  1.
        -13    1    5    5    0    0  0.38016091229E+02 -0.30430595054E+03  0.18978807348E+04  0.19224980152E+04  0.00000000000E+00 0. -1.
          1    1    6    6  503    0 -0.45462599850E+02  0.38187755766E+02  0.58926355482E+02  0.83650869966E+02  0.00000000000E+00 0. -1.
         -1    1    6    6    0  503 -0.17662235238E+02  0.15844052952E+03  0.26362007285E+03  0.30807612494E+03  0.00000000000E+00 0.  1.
<mgrwt>
<rscale>  0 0.20209421E+04</rscale>
<asrwt>0</asrwt>
<pdfrwt beam="1">  1        2 0.64105864E+00 0.20209421E+04</pdfrwt>
<pdfrwt beam="2">  1       -1 0.37698430E-01 0.20209421E+04</pdfrwt>
<totfact> 0.18006519E+00</totfact>
</mgrwt>
</event>
<event>
12    7  0.1909736E-007  0.1696333E+04  0.7818608E-02  0.8763458E-01
         -1   -1    0    0    0  501 -0.00000000000E+00  0.00000000000E+00  0.65008254847E+03  0.65008254847E+03  0.00000000000E+00 0.  1.
          2   -1    0    0  501    0  0.00000000000E+00 -0.00000000000E+00 -0.11066080129E+04  0.11066080129E+04  0.00000000000E+00 0. -1.
         24    2    1    2    0    0  0.29212713929E+03  0.52895268711E+03 -0.12236056841E+03  0.62264681563E+03  0.87107620745E+02 0.  0.
        254    2    1    2    0    0 -0.29212713929E+03 -0.52895268711E+03 -0.33416489602E+03  0.11340437458E+04  0.89958869981E+03 0.  0.
         23    2    4    4    0    0  0.18666368949E+03 -0.10800208012E+03 -0.42310622718E+03  0.48398612188E+03  0.93359008184E+02 0.  0.
         23    2    4    4    0    0 -0.47879082879E+03 -0.42095060699E+03  0.88941331162E+02  0.65005762387E+03  0.90687831058E+02 0.  0.
          4    1    3    3  502    0  0.12250758026E+03  0.15638563409E+03 -0.66497617664E+02  0.20949106646E+03  0.00000000000E+00 0. -1.
         -3    1    3    3    0  502  0.16961955904E+03  0.37256705302E+03 -0.55862950746E+02  0.41315574917E+03  0.00000000000E+00 0.  1.
         13    1    5    5    0    0  0.12195807573E+03 -0.42882388477E+02 -0.16229611345E+03  0.20749144541E+03  0.00000000000E+00 0. -1.
        -13    1    5    5    0    0  0.64705613762E+02 -0.65119691644E+02 -0.26081011373E+03  0.27649467647E+03  0.00000000000E+00 0.  1.
          4    1    6    6  503    0 -0.55282336479E+02 -0.84102195879E+02 -0.52749564883E+01  0.10078264357E+03  0.00000000000E+00 0. -1.
         -4    1    6    6    0  503 -0.42350849231E+03 -0.33684841111E+03  0.94216287650E+02  0.54927498030E+03  0.00000000000E+00 0.  1.
<mgrwt>
<rscale>  0 0.16963332E+04</rscale>
<asrwt>0</asrwt>
<pdfrwt beam="1">  1        2 0.17024739E+00 0.16963332E+04</pdfrwt>
<pdfrwt beam="2">  1       -1 0.10001270E+00 0.16963332E+04</pdfrwt>
<totfact> 0.22329092E+01</totfact>
</mgrwt>
</event>
<event>
12    7  0.1909736E-007  0.2236310E+04  0.7818608E-02  0.8503465E-01
          2   -1    0    0  501    0  0.00000000000E+00  0.00000000000E+00  0.29072914779E+04  0.29072914779E+04  0.00000000000E+00 0. -1.
         -1   -1    0    0    0  501 -0.00000000000E+00 -0.00000000000E+00 -0.43004659966E+03  0.43004659966E+03  0.00000000000E+00 0.  1.
         24    2    1    2    0    0  0.24302524790E+03 -0.63496265566E+02 -0.30154285801E+03  0.39993713517E+03  0.76997207812E+02 0.  0.
        254    2    1    2    0    0 -0.24302524790E+03  0.63496265566E+02  0.27787877362E+04  0.29374009424E+04  0.91846065045E+03 0.  0.
         23    2    4    4    0    0 -0.58159164466E+03  0.66388203450E+02  0.15469968273E+04  0.16567008912E+04  0.93821238259E+02 0.  0.
         23    2    4    4    0    0  0.33856639675E+03 -0.28919378844E+01  0.12317909089E+04  0.12807000511E+04  0.90819652573E+02 0.  0.
          2    1    3    3  502    0  0.44053830126E+01 -0.19593154775E+02 -0.24090503007E+02  0.31363218085E+02  0.00000000000E+00 0. -1.
         -1    1    3    3    0  502  0.23861986489E+03 -0.43903110791E+02 -0.27745235500E+03  0.36857391708E+03  0.00000000000E+00 0.  1.
         13    1    5    5    0    0 -0.45599670110E+03  0.35006288500E+02  0.12952367975E+04  0.13736072194E+04  0.00000000000E+00 0. -1.
        -13    1    5    5    0    0 -0.12559494356E+03  0.31381914950E+02  0.25176002981E+03  0.28309367185E+03  0.00000000000E+00 0.  1.
          4    1    6    6  503    0  0.34177034764E+03 -0.10039825549E+02  0.11884619597E+04  0.12366687505E+04  0.00000000000E+00 0. -1.
         -4    1    6    6    0  503 -0.32039508863E+01  0.71478876645E+01  0.43328949207E+02  0.44031300670E+02  0.00000000000E+00 0.  1.
<mgrwt>
<rscale>  0 0.22363102E+04</rscale>
<asrwt>0</asrwt>
<pdfrwt beam="1">  1        2 0.44727560E+00 0.22363102E+04</pdfrwt>
<pdfrwt beam="2">  1       -1 0.66161017E-01 0.22363102E+04</pdfrwt>
<totfact> 0.47772514E+00</totfact>
</mgrwt>
</event>
<event>
12    7  0.1909736E-007  0.1266998E+04  0.7818608E-02  0.9056153E-01
          2   -1    0    0  501    0  0.00000000000E+00  0.00000000000E+00  0.18484633552E+04  0.18484633552E+04  0.00000000000E+00 0. -1.
         -1   -1    0    0    0  501 -0.00000000000E+00 -0.00000000000E+00 -0.21711062919E+03  0.21711062919E+03  0.00000000000E+00 0.  1.
         24    2    1    2    0    0 -0.18116417113E+03  0.39107260949E+02  0.93480650072E+03  0.95629619870E+03  0.79305681396E+02 0.  0.
        254    2    1    2    0    0  0.18116417113E+03 -0.39107260949E+02  0.69654622527E+03  0.11092777857E+04  0.84319080111E+03 0.  0.
         23    2    4    4    0    0  0.31973066964E+03 -0.32244193734E+03  0.61842484541E+03  0.77274444320E+03  0.92131324827E+02 0.  0.
         23    2    4    4    0    0 -0.13856649851E+03  0.28333467639E+03  0.78121379859E+02  0.33653334246E+03  0.87592963434E+02 0.  0.
          2    1    3    3  502    0 -0.54603728757E+02 -0.42620644492E+01  0.45167062526E+03  0.45497921504E+03  0.00000000000E+00 0. -1.
         -1    1    3    3    0  502 -0.12656044238E+03  0.43369325398E+02  0.48313587546E+03  0.50131698367E+03  0.00000000000E+00 0.  1.
         13    1    5    5    0    0  0.16296567669E+03 -0.22501387492E+03  0.34725363931E+03  0.44471805191E+03  0.00000000000E+00 0. -1.
        -13    1    5    5    0    0  0.15676499296E+03 -0.97428062418E+02  0.27117120610E+03  0.32802639129E+03  0.00000000000E+00 0.  1.
          3    1    6    6  503    0 -0.34921150039E+02  0.98686110577E+02  0.67419838683E+02  0.12451453646E+03  0.00000000000E+00 0. -1.
         -3    1    6    6    0  503 -0.10364534847E+03  0.18464856582E+03  0.10701541176E+02  0.21201880601E+03  0.00000000000E+00 0.  1.
<mgrwt>
<rscale>  0 0.12669981E+04</rscale>
<asrwt>0</asrwt>
<pdfrwt beam="1">  1        2 0.28437897E+00 0.12669981E+04</pdfrwt>
<pdfrwt beam="2">  1       -1 0.33401637E-01 0.12669981E+04</pdfrwt>
<totfact> 0.76601018E+01</totfact>
</mgrwt>
</event>
<event>
12    7  0.1909736E-007  0.1596947E+04  0.7818608E-02  0.8822426E-01
         -1   -1    0    0    0  501 -0.00000000000E+00  0.00000000000E+00  0.46819758693E+03  0.46819758693E+03  0.00000000000E+00 0.  1.
          2   -1    0    0  501    0  0.00000000000E+00 -0.00000000000E+00 -0.13617332809E+04  0.13617332809E+04  0.00000000000E+00 0. -1.
         24    2    1    2    0    0 -0.71879828162E+02  0.11805972534E+03 -0.90336430974E+03  0.91523938768E+03  0.49912445355E+02 0.  0.
        254    2    1    2    0    0  0.71879828162E+02 -0.11805972534E+03  0.98286157464E+01  0.91469148017E+03  0.90413444452E+03 0.  0.
         23    2    4    4    0    0 -0.62319656921E+02 -0.48511317273E+03 -0.80369143937E+02  0.50323601005E+03  0.86998577687E+02 0.  0.
         23    2    4    4    0    0  0.13419948508E+03  0.36705344739E+03  0.90197759683E+02  0.41145547012E+03  0.91772724693E+02 0.  0.
          2    1    3    3  502    0 -0.71520740253E+02  0.11430726129E+03 -0.76288776828E+03  0.77471227772E+03  0.00000000000E+00 0. -1.
         -1    1    3    3    0  502 -0.35908790911E+00  0.37524640498E+01 -0.14047654146E+03  0.14052710996E+03  0.00000000000E+00 0.  1.
         13    1    5    5    0    0 -0.54814748737E+02 -0.15600442573E+03 -0.45174093693E+01  0.16541597418E+03  0.00000000000E+00 0.  1.
        -13    1    5    5    0    0 -0.75049081840E+01 -0.32910874700E+03 -0.75851734567E+02  0.33782003587E+03  0.00000000000E+00 0. -1.
          1    1    6    6  503    0  0.11489339754E+03  0.34082008604E+03  0.10640479745E+03  0.37507439898E+03  0.00000000000E+00 0. -1.
         -1    1    6    6    0  503  0.19306087541E+02  0.26233361349E+02 -0.16207037768E+02  0.36381071136E+02  0.00000000000E+00 0.  1.
<mgrwt>
<rscale>  0 0.15969474E+04</rscale>
<asrwt>0</asrwt>
<pdfrwt beam="1">  1        2 0.20949742E+00 0.15969474E+04</pdfrwt>
<pdfrwt beam="2">  1       -1 0.72030399E-01 0.15969474E+04</pdfrwt>
<totfact> 0.32369018E+01</totfact>
</mgrwt>
</event>
<event>
12    7  0.1909736E-007  0.1452691E+04  0.7818608E-02  0.8916537E-01
         -1   -1    0    0    0  501 -0.00000000000E+00  0.00000000000E+00  0.53717925346E+03  0.53717925346E+03  0.00000000000E+00 0.  1.
          2   -1    0    0  501    0  0.00000000000E+00 -0.00000000000E+00 -0.98212643050E+03  0.98212643050E+03  0.00000000000E+00 0. -1.
         24    2    1    2    0    0 -0.31893335138E+03  0.12593631504E+03 -0.42693353548E+03  0.55315802256E+03  0.78314214151E+02 0.  0.
        254    2    1    2    0    0  0.31893335138E+03 -0.12593631504E+03 -0.18013641560E+02  0.96614766141E+03  0.90307163298E+03 0.  0.
         23    2    4    4    0    0  0.40506266919E+03 -0.30874630729E+02  0.36392763499E+03  0.55277830801E+03  0.89952907142E+02 0.  0.
         23    2    4    4    0    0 -0.86129317817E+02 -0.95061684311E+02 -0.38194127655E+03  0.41336935339E+03  0.92412663544E+02 0.  0.
          4    1    3    3  502    0 -0.31824491809E+03  0.12491268892E+03 -0.40000203895E+03  0.52619828858E+03  0.00000000000E+00 0. -1.
         -3    1    3    3    0  502 -0.68843328902E+00  0.10236261217E+01 -0.26931496530E+02  0.26959733979E+02  0.00000000000E+00 0.  1.
         13    1    5    5    0    0  0.25870760878E+03 -0.62769965093E+02  0.23786421722E+03  0.35700011371E+03  0.00000000000E+00 0. -1.
        -13    1    5    5    0    0  0.14635506041E+03  0.31895334365E+02  0.12606341777E+03  0.19577819430E+03  0.00000000000E+00 0.  1.
          4    1    6    6  503    0  0.66229266198E+01  0.11775099592E+02 -0.15486515469E+02  0.20551114052E+02  0.00000000000E+00 0. -1.
         -4    1    6    6    0  503 -0.92752244436E+02 -0.10683678390E+03 -0.36645476108E+03  0.39281823934E+03  0.00000000000E+00 0.  1.
<mgrwt>
<rscale>  0 0.14526912E+04</rscale>
<asrwt>0</asrwt>
<pdfrwt beam="1">  1        2 0.15109637E+00 0.14526912E+04</pdfrwt>
<pdfrwt beam="2">  1       -1 0.82642963E-01 0.14526912E+04</pdfrwt>
<totfact> 0.41645957E+01</totfact>
</mgrwt>
</event>
<event>
12    7  0.1909736E-007  0.2506230E+04  0.7818608E-02  0.8400769E-01
         -3   -1    0    0    0  501 -0.00000000000E+00  0.00000000000E+00  0.98740228758E+03  0.98740228758E+03  0.00000000000E+00 0.  1.
          4   -1    0    0  501    0  0.00000000000E+00 -0.00000000000E+00 -0.15903323551E+04  0.15903323551E+04  0.00000000000E+00 0. -1.
         24    2    1    2    0    0  0.65675158427E+03 -0.76290544934E+03 -0.69573147352E+03  0.12262432164E+04  0.79263953900E+02 0.  0.
        254    2    1    2    0    0 -0.65675158427E+03  0.76290544934E+03  0.92801405968E+02  0.13514914263E+04  0.89697804122E+03 0.  0.
         23    2    4    4    0    0 -0.14762087206E+03  0.76225154356E+03  0.23290928795E+03  0.81565467747E+03  0.90699939062E+02 0.  0.
         23    2    4    4    0    0 -0.50913071221E+03  0.65390578405E+00 -0.14010788198E+03  0.53583674886E+03  0.90974134396E+02 0.  0.
          2    1    3    3  502    0  0.33642696543E+03 -0.38400990229E+03 -0.30498346726E+03  0.59469456313E+03  0.00000000000E+00 0. -1.
         -1    1    3    3    0  502  0.32032461884E+03 -0.37889554706E+03 -0.39074800626E+03  0.63154865324E+03  0.00000000000E+00 0.  1.
         13    1    5    5    0    0 -0.41342411396E+02  0.41903720795E+03  0.14934723191E+03  0.44677284195E+03  0.00000000000E+00 0. -1.
        -13    1    5    5    0    0 -0.10627846066E+03  0.34321433561E+03  0.83562056037E+02  0.36888183552E+03  0.00000000000E+00 0.  1.
          2    1    6    6  503    0 -0.48505667071E+03 -0.34645376513E+01 -0.11057436583E+03  0.49751247944E+03  0.00000000000E+00 0. -1.
         -2    1    6    6    0  503 -0.24074041506E+02  0.41184434353E+01 -0.29533516151E+02  0.38324269426E+02  0.00000000000E+00 0.  1.
<mgrwt>
<rscale>  0 0.25062305E+04</rscale>
<asrwt>0</asrwt>
<pdfrwt beam="1">  1        4 0.24466651E+00 0.25062305E+04</pdfrwt>
<pdfrwt beam="2">  1       -3 0.15190805E+00 0.25062305E+04</pdfrwt>
<totfact> 0.43148645E-02</totfact>
</mgrwt>
</event>
<event>
12    7  0.1909736E-007  0.1454211E+04  0.7818608E-02  0.8915486E-01
          2   -1    0    0  501    0  0.00000000000E+00  0.00000000000E+00  0.10165217479E+04  0.10165217479E+04  0.00000000000E+00 0. -1.
         -1   -1    0    0    0  501 -0.00000000000E+00 -0.00000000000E+00 -0.52008995557E+03  0.52008995557E+03  0.00000000000E+00 0.  1.
         24    2    1    2    0    0  0.24454472388E+03  0.14748170664E+03 -0.20110765369E+03  0.35843273903E+03  0.80478346555E+02 0.  0.
        254    2    1    2    0    0 -0.24454472388E+03 -0.14748170664E+03  0.69753944602E+03  0.11781789644E+04  0.90553377503E+03 0.  0.
         23    2    4    4    0    0 -0.15942993482E+03 -0.10492106146E+03 -0.18805103074E+03  0.28262480428E+03  0.89929175343E+02 0.  0.
         23    2    4    4    0    0 -0.85114789053E+02 -0.42560645182E+02  0.88559047676E+03  0.89555416015E+03  0.93224596584E+02 0.  0.
          4    1    3    3  502    0  0.10789295853E+03  0.10679021009E+03 -0.12596766231E+03  0.19726350757E+03  0.00000000000E+00 0. -1.
         -3    1    3    3    0  502  0.13665176535E+03  0.40691496553E+02 -0.75139991381E+02  0.16116923146E+03  0.00000000000E+00 0.  1.
         13    1    5    5    0    0 -0.22913976720E+02  0.15353584261E+02 -0.14400814403E+02  0.31115371350E+02  0.00000000000E+00 0.  1.
        -13    1    5    5    0    0 -0.13651595810E+03 -0.12027464572E+03 -0.17365021634E+03  0.25150943293E+03  0.00000000000E+00 0. -1.
          3    1    6    6  503    0 -0.87092337851E+02 -0.56968984775E+02  0.85869486952E+03  0.86497827688E+03  0.00000000000E+00 0. -1.
         -3    1    6    6    0  503  0.19775487974E+01  0.14408339593E+02  0.26895607242E+02  0.30575883274E+02  0.00000000000E+00 0.  1.
<mgrwt>
<rscale>  0 0.14542115E+04</rscale>
<asrwt>0</asrwt>
<pdfrwt beam="1">  1        2 0.15638796E+00 0.14542115E+04</pdfrwt>
<pdfrwt beam="2">  1       -1 0.80013839E-01 0.14542115E+04</pdfrwt>
<totfact> 0.42404064E+01</totfact>
</mgrwt>
</event>
<event>
12    7  0.1909736E-007  0.2143993E+04  0.7818608E-02  0.8542108E-01
          4   -1    0    0  501    0  0.00000000000E+00  0.00000000000E+00  0.12171507565E+04  0.12171507565E+04  0.00000000000E+00 0. -1.
         -3   -1    0    0    0  501 -0.00000000000E+00 -0.00000000000E+00 -0.94415252559E+03  0.94415252559E+03  0.00000000000E+00 0.  1.
         24    2    1    2    0    0 -0.11469961460E+03 -0.59085092271E+03  0.77500218107E+03  0.98434845917E+03  0.77799061366E+02 0.  0.
        254    2    1    2    0    0  0.11469961460E+03  0.59085092271E+03 -0.50200395014E+03  0.11769548229E+04  0.87803979114E+03 0.  0.
         23    2    4    4    0    0 -0.10086375682E+03  0.15267643287E+03  0.21787126996E+03  0.30236438927E+03  0.10233642084E+03 0.  0.
         23    2    4    4    0    0  0.21556337141E+03  0.43817448985E+03 -0.71987522010E+03  0.87459043366E+03  0.90684306778E+02 0.  0.
          4    1    3    3  502    0 -0.52780463313E+02 -0.38429741360E+03  0.44738170488E+03  0.59213230724E+03  0.00000000000E+00 0. -1.
         -3    1    3    3    0  502 -0.61919151283E+02 -0.20655350911E+03  0.32762047618E+03  0.39221615193E+03  0.00000000000E+00 0.  1.
         13    1    5    5    0    0 -0.67102937848E+02  0.15919205281E+03  0.16242278757E+03  0.23712038265E+03  0.00000000000E+00 0. -1.
        -13    1    5    5    0    0 -0.33760818970E+02 -0.65156199390E+01  0.55448482391E+02  0.65244006622E+02  0.00000000000E+00 0.  1.
          4    1    6    6  503    0  0.19391185341E+03  0.33480564782E+03 -0.51554276730E+03  0.64457813616E+03  0.00000000000E+00 0. -1.
         -4    1    6    6    0  503  0.21651518001E+02  0.10336884202E+03 -0.20433245280E+03  0.23001229750E+03  0.00000000000E+00 0.  1.
<mgrwt>
<rscale>  0 0.21439925E+04</rscale>
<asrwt>0</asrwt>
<pdfrwt beam="1">  1        4 0.18725396E+00 0.21439925E+04</pdfrwt>
<pdfrwt beam="2">  1       -3 0.14525424E+00 0.21439925E+04</pdfrwt>
<totfact> 0.11768530E-01</totfact>
</mgrwt>
</event>
<event>
12    7  0.1909736E-007  0.1904823E+04  0.7818608E-02  0.8652460E-01
          2   -1    0    0  501    0  0.00000000000E+00  0.00000000000E+00  0.13712190505E+04  0.13712190505E+04  0.00000000000E+00 0. -1.
         -1   -1    0    0    0  501 -0.00000000000E+00 -0.00000000000E+00 -0.66151898556E+03  0.66151898556E+03  0.00000000000E+00 0.  1.
         24    2    1    2    0    0  0.19354777198E+03 -0.65963192804E+03 -0.94854276969E+01  0.69217927270E+03  0.80294157205E+02 0.  0.
        254    2    1    2    0    0 -0.19354777198E+03  0.65963192804E+03  0.71918549264E+03  0.13405587634E+04  0.89849596810E+03 0.  0.
         23    2    4    4    0    0 -0.44226739815E+03  0.33292409338E+03  0.72826674455E+03  0.91923275670E+03  0.90429565664E+02 0.  0.
         23    2    4    4    0    0  0.24871962617E+03  0.32670783466E+03 -0.90812519089E+01  0.42132600668E+03  0.93987622023E+02 0.  0.
          4    1    3    3  502    0  0.15025704710E+03 -0.44348950373E+03 -0.38549775511E+02  0.46983636014E+03  0.00000000000E+00 0. -1.
         -3    1    3    3    0  502  0.43290724880E+02 -0.21614242431E+03  0.29064347815E+02  0.22234291255E+03  0.00000000000E+00 0.  1.
         13    1    5    5    0    0 -0.38848947674E+03  0.24972651412E+03  0.60184057628E+03  0.75861682333E+03  0.00000000000E+00 0.  1.
        -13    1    5    5    0    0 -0.53777921415E+02  0.83197579257E+02  0.12642616827E+03  0.16061593336E+03  0.00000000000E+00 0. -1.
          1    1    6    6  503    0  0.86072879750E+02  0.51730326446E+02 -0.16461120046E+02  0.10176215296E+03  0.00000000000E+00 0. -1.
         -1    1    6    6    0  503  0.16264674642E+03  0.27497750822E+03  0.73798681369E+01  0.31956385371E+03  0.00000000000E+00 0.  1.
<mgrwt>
<rscale>  0 0.19048228E+04</rscale>
<asrwt>0</asrwt>
<pdfrwt beam="1">  1        2 0.21095678E+00 0.19048228E+04</pdfrwt>
<pdfrwt beam="2">  1       -1 0.10177215E+00 0.19048228E+04</pdfrwt>
<totfact> 0.14682715E+01</totfact>
</mgrwt>
</event>
<event>
12    7  0.1909736E-007  0.1174395E+04  0.7818608E-02  0.9135569E-01
          2   -1    0    0  501    0  0.00000000000E+00  0.00000000000E+00  0.25837750273E+03  0.25837750273E+03  0.00000000000E+00 0. -1.
         -1   -1    0    0    0  501 -0.00000000000E+00 -0.00000000000E+00 -0.13344838928E+04  0.13344838928E+04  0.00000000000E+00 0.  1.
         24    2    1    2    0    0  0.18460848853E+03  0.14332222783E+03 -0.15798239909E+03  0.28900306043E+03  0.62791524002E+02 0.  0.
        254    2    1    2    0    0 -0.18460848853E+03 -0.14332222783E+03 -0.91812399096E+03  0.13038583351E+04  0.89580876317E+03 0.  0.
         23    2    4    4    0    0  0.16884964915E+03  0.28244460043E+03 -0.49604755291E+03  0.60212026479E+03  0.90556513759E+02 0.  0.
         23    2    4    4    0    0 -0.35345813768E+03 -0.42576682826E+03 -0.42207643804E+03  0.70173807030E+03  0.89876318420E+02 0.  0.
          2    1    3    3  502    0  0.16773296029E+03  0.10058681994E+03 -0.12064334204E+03  0.22979745493E+03  0.00000000000E+00 0. -1.
         -1    1    3    3    0  502  0.16875528239E+02  0.42735407890E+02 -0.37339057049E+02  0.59205605496E+02  0.00000000000E+00 0.  1.
         13    1    5    5    0    0  0.17236804855E+03  0.26514028314E+03 -0.43010492290E+03  0.53385424847E+03  0.00000000000E+00 0.  1.
        -13    1    5    5    0    0 -0.35183993959E+01  0.17304317294E+02 -0.65942630011E+02  0.68266016320E+02  0.00000000000E+00 0. -1.
          3    1    6    6  503    0 -0.70263907201E+01  0.21037996192E+01 -0.16132213380E+02  0.17721299273E+02  0.00000000000E+00 0. -1.
         -3    1    6    6    0  503 -0.34643174696E+03 -0.42787062788E+03 -0.40594422466E+03  0.68401677102E+03  0.00000000000E+00 0.  1.
<mgrwt>
<rscale>  0 0.11743945E+04</rscale>
<asrwt>0</asrwt>
<pdfrwt beam="1">  1        2 0.39750385E-01 0.11743945E+04</pdfrwt>
<pdfrwt beam="2">  1       -1 0.20530522E+00 0.11743945E+04</pdfrwt>
<totfact> 0.20352568E+01</totfact>
</mgrwt>
</event>
<event>
12    7  0.1909736E-007  0.1577263E+04  0.7818608E-02  0.8834639E-01
         -1   -1    0    0    0  501 -0.00000000000E+00  0.00000000000E+00  0.15508597169E+03  0.15508597169E+03  0.00000000000E+00 0.  1.
          2   -1    0    0  501    0  0.00000000000E+00 -0.00000000000E+00 -0.40102875687E+04  0.40102875687E+04  0.00000000000E+00 0. -1.
         24    2    1    2    0    0  0.15496574366E+03  0.45064905893E+03 -0.71526439749E+03  0.86294603685E+03  0.77290026352E+02 0.  0.
        254    2    1    2    0    0 -0.15496574366E+03 -0.45064905893E+03 -0.31399371995E+04  0.33024275035E+04  0.90538546665E+03 0.  0.
         23    2    4    4    0    0 -0.45235851749E+03 -0.64718581287E+02 -0.96481914648E+03  0.10715605545E+04  0.92462497838E+02 0.  0.
         23    2    4    4    0    0  0.29739277383E+03 -0.38593047764E+03 -0.21751180530E+04  0.22308669490E+04  0.90796497884E+02 0.  0.
          4    1    3    3  502    0 -0.87790046295E+00  0.60941702366E+01  0.38263440341E+00  0.61689568958E+01  0.00000000000E+00 0. -1.
         -3    1    3    3    0  502  0.15584364412E+03  0.44455488869E+03 -0.71564703190E+03  0.85677707996E+03  0.00000000000E+00 0.  1.
         13    1    5    5    0    0 -0.15461054521E+03  0.21845650698E+02 -0.32492012161E+03  0.36049235577E+03  0.00000000000E+00 0.  1.
        -13    1    5    5    0    0 -0.29774797228E+03 -0.86564231985E+02 -0.63989902487E+03  0.71106819876E+03  0.00000000000E+00 0. -1.
          3    1    6    6  503    0  0.19377182550E+03 -0.20200896292E+03 -0.13871090595E+04  0.14150712648E+04  0.00000000000E+00 0. -1.
         -3    1    6    6    0  503  0.10362094833E+03 -0.18392151472E+03 -0.78800899355E+03  0.81579568424E+03  0.00000000000E+00 0.  1.
<mgrwt>
<rscale>  0 0.15772626E+04</rscale>
<asrwt>0</asrwt>
<pdfrwt beam="1">  1        2 0.61696731E+00 0.15772626E+04</pdfrwt>
<pdfrwt beam="2">  1       -1 0.23859381E-01 0.15772626E+04</pdfrwt>
<totfact> 0.56892352E+00</totfact>
</mgrwt>
</event>
<event>
12    7  0.1909736E-007  0.2281603E+04  0.7818608E-02  0.8485210E-01
         -1   -1    0    0    0  501 -0.00000000000E+00  0.00000000000E+00  0.13075929597E+04  0.13075929597E+04  0.00000000000E+00 0.  1.
          2   -1    0    0  501    0  0.00000000000E+00 -0.00000000000E+00 -0.99528543832E+03  0.99528543832E+03  0.00000000000E+00 0. -1.
         24    2    1    2    0    0  0.67484456273E+03 -0.12654697265E+03 -0.54604448147E+03  0.88090864421E+03  0.80038388137E+02 0.  0.
        254    2    1    2    0    0 -0.67484456273E+03  0.12654697265E+03  0.85835200283E+03  0.14219697538E+04  0.90210891792E+03 0.  0.
         23    2    4    4    0    0 -0.30781149769E+03  0.27188926061E+03  0.91912744108E+03  0.10108621356E+04  0.91516753404E+02 0.  0.
         23    2    4    4    0    0 -0.36703306504E+03 -0.14534228796E+03 -0.60775438252E+02  0.41110761816E+03  0.97355884808E+02 0.  0.
          4    1    3    3  502    0  0.63402043620E+03 -0.13473281200E+03 -0.49844774530E+03  0.81767047088E+03  0.00000000000E+00 0. -1.
         -3    1    3    3    0  502  0.40824126521E+02  0.81858393559E+01 -0.47596736170E+02  0.63238173331E+02  0.00000000000E+00 0.  1.
         13    1    5    5    0    0 -0.30421136460E+03  0.26884155002E+03  0.85425178989E+03  0.94581523243E+03  0.00000000000E+00 0.  1.
        -13    1    5    5    0    0 -0.36001330886E+01  0.30477105944E+01  0.64875651195E+02  0.65046903201E+02  0.00000000000E+00 0. -1.
          4    1    6    6  503    0 -0.58921948466E+02  0.12527997831E+02 -0.12990717153E+02  0.61623903421E+02  0.00000000000E+00 0. -1.
         -4    1    6    6    0  503 -0.30811111657E+03 -0.15787028580E+03 -0.47784721098E+02  0.34948371473E+03  0.00000000000E+00 0.  1.
<mgrwt>
<rscale>  0 0.22816031E+04</rscale>
<asrwt>0</asrwt>
<pdfrwt beam="1">  1        2 0.15312084E+00 0.22816031E+04</pdfrwt>
<pdfrwt beam="2">  1       -1 0.20116815E+00 0.22816031E+04</pdfrwt>
<totfact> 0.38800340E+00</totfact>
</mgrwt>
</event>
<event>
12    7  0.1909736E-007  0.1303436E+04  0.7818608E-02  0.9026845E-01
         -1   -1    0    0    0  501 -0.00000000000E+00  0.00000000000E+00  0.68074441176E+03  0.68074441176E+03  0.00000000000E+00 0.  1.
          2   -1    0    0  501    0  0.00000000000E+00 -0.00000000000E+00 -0.62392944881E+03  0.62392944881E+03  0.00000000000E+00 0. -1.
         24    2    1    2    0    0 -0.30503809977E+03  0.20981285748E+01  0.15444539372E+03  0.35091995825E+03  0.78986030416E+02 0.  0.
        254    2    1    2    0    0  0.30503809977E+03 -0.20981285748E+01 -0.97630430761E+02  0.95375390232E+03  0.89836638446E+03 0.  0.
         23    2    4    4    0    0  0.59608869443E+03 -0.12869233378E+03 -0.35262192636E+02  0.61774390152E+03  0.92090483911E+02 0.  0.
         23    2    4    4    0    0 -0.29105059466E+03  0.12659420521E+03 -0.62368238125E+02  0.33601000081E+03  0.90974623202E+02 0.  0.
          4    1    3    3  502    0 -0.28576013890E+03  0.33960047842E+00  0.16384592304E+03  0.32940014999E+03  0.00000000000E+00 0. -1.
         -3    1    3    3    0  502 -0.19277960863E+02  0.17585280964E+01 -0.94005293171E+01  0.21519808260E+02  0.00000000000E+00 0.  1.
         13    1    5    5    0    0  0.19914136263E+02 -0.11912795699E+02  0.15123845188E+02  0.27698704261E+02  0.00000000000E+00 0.  1.
        -13    1    5    5    0    0  0.57617455817E+03 -0.11677953809E+03 -0.50386037824E+02  0.59004519726E+03  0.00000000000E+00 0. -1.
          2    1    6    6  503    0 -0.23998484787E+03  0.13223611124E+03 -0.30851905829E+02  0.27573711469E+03  0.00000000000E+00 0. -1.
         -2    1    6    6    0  503 -0.51065746791E+02 -0.56419060319E+01 -0.31516332296E+02  0.60272886113E+02  0.00000000000E+00 0.  1.
<mgrwt>
<rscale>  0 0.13034362E+04</rscale>
<asrwt>0</asrwt>
<pdfrwt beam="1">  1        2 0.95989145E-01 0.13034362E+04</pdfrwt>
<pdfrwt beam="2">  1       -1 0.10472991E+00 0.13034362E+04</pdfrwt>
<totfact> 0.45374827E+01</totfact>
</mgrwt>
</event>
<event>
12    7  0.1909736E-007  0.1318115E+04  0.7818608E-02  0.9015322E-01
         -1   -1    0    0    0  501 -0.00000000000E+00  0.00000000000E+00  0.55008477479E+03  0.55008477479E+03  0.00000000000E+00 0.  1.
          2   -1    0    0  501    0  0.00000000000E+00 -0.00000000000E+00 -0.78961772535E+03  0.78961772535E+03  0.00000000000E+00 0. -1.
         24    2    1    2    0    0 -0.17038247984E+03 -0.34218722937E+02  0.23967262474E+03  0.30670498420E+03  0.80149047706E+02 0.  0.
        254    2    1    2    0    0  0.17038247984E+03  0.34218722937E+02 -0.47920557530E+03  0.10329975159E+04  0.89846801507E+03 0.  0.
         23    2    4    4    0    0  0.91337644391E+02 -0.12776444680E+03  0.23159801547E+03  0.29405218390E+03  0.90347810903E+02 0.  0.
         23    2    4    4    0    0  0.79044835450E+02  0.16198316974E+03 -0.71080359077E+03  0.73894533204E+03  0.91169215195E+02 0.  0.
          2    1    3    3  502    0 -0.43037584397E+02 -0.46591146300E+02  0.78378692691E+02  0.10082751634E+03  0.00000000000E+00 0. -1.
         -1    1    3    3    0  502 -0.12734489544E+03  0.12372423363E+02  0.16129393205E+03  0.20587746786E+03  0.00000000000E+00 0.  1.
         13    1    5    5    0    0  0.10020288201E+03 -0.11942215868E+03  0.16754540455E+03  0.22885307979E+03  0.00000000000E+00 0. -1.
        -13    1    5    5    0    0 -0.88652376244E+01 -0.83422881238E+01  0.64052610927E+02  0.65199104103E+02  0.00000000000E+00 0.  1.
          4    1    6    6  503    0 -0.12347776137E+02  0.18736160493E+01 -0.10419627189E+03  0.10494208445E+03  0.00000000000E+00 0. -1.
         -4    1    6    6    0  503  0.91392611587E+02  0.16010955369E+03 -0.60660731888E+03  0.63400324759E+03  0.00000000000E+00 0.  1.
<mgrwt>
<rscale>  0 0.13181148E+04</rscale>
<asrwt>0</asrwt>
<pdfrwt beam="1">  1        2 0.12147965E+00 0.13181148E+04</pdfrwt>
<pdfrwt beam="2">  1       -1 0.84628427E-01 0.13181148E+04</pdfrwt>
<totfact> 0.54171217E+01</totfact>
</mgrwt>
</event>
<event>
12    7  0.1909736E-007  0.1855665E+04  0.7818608E-02  0.8677245E-01
          2   -1    0    0  501    0  0.00000000000E+00  0.00000000000E+00  0.16836041970E+04  0.16836041970E+04  0.00000000000E+00 0. -1.
         -1   -1    0    0    0  501 -0.00000000000E+00 -0.00000000000E+00 -0.51132725470E+03  0.51132725470E+03  0.00000000000E+00 0.  1.
         24    2    1    2    0    0 -0.45713852536E+01 -0.66182096466E+03  0.74304681657E+03  0.99833607001E+03  0.80798825769E+02 0.  0.
        254    2    1    2    0    0  0.45713852536E+01  0.66182096466E+03  0.42923012578E+03  0.11965953817E+04  0.89976336882E+03 0.  0.
         23    2    4    4    0    0 -0.40112200069E+03  0.13225263034E+03  0.84174064438E+02  0.44003513706E+03  0.90310747186E+02 0.  0.
         23    2    4    4    0    0  0.40569338594E+03  0.52956833432E+03  0.34505606134E+03  0.75656024466E+03  0.91049295598E+02 0.  0.
          2    1    3    3  502    0  0.17640235655E+02 -0.59668296842E+03  0.64880134292E+03  0.88163763832E+03  0.00000000000E+00 0. -1.
         -1    1    3    3    0  502 -0.22211620908E+02 -0.65137996244E+02  0.94245473645E+02  0.11669843170E+03  0.00000000000E+00 0.  1.
         13    1    5    5    0    0 -0.99209561421E+02  0.55678780997E+02 -0.11129983466E+02  0.11430896843E+03  0.00000000000E+00 0. -1.
        -13    1    5    5    0    0 -0.30191243927E+03  0.76573849347E+02  0.95304047905E+02  0.32572616864E+03  0.00000000000E+00 0.  1.
          1    1    6    6  503    0  0.33739238151E+03  0.47295116143E+03  0.27128765148E+03  0.64118126146E+03  0.00000000000E+00 0.  1.
         -1    1    6    6    0  503  0.68301004432E+02  0.56617172883E+02  0.73768409857E+02  0.11537898320E+03  0.00000000000E+00 0. -1.
<mgrwt>
<rscale>  0 0.18556645E+04</rscale>
<asrwt>0</asrwt>
<pdfrwt beam="1">  1        2 0.25901603E+00 0.18556645E+04</pdfrwt>
<pdfrwt beam="2">  1       -1 0.78665732E-01 0.18556645E+04</pdfrwt>
<totfact> 0.17334581E+01</totfact>
</mgrwt>
</event>
<event>
12    7  0.1909736E-007  0.2266228E+04  0.7818608E-02  0.8491357E-01
         -1   -1    0    0    0  501 -0.00000000000E+00  0.00000000000E+00  0.14364584599E+04  0.14364584599E+04  0.00000000000E+00 0.  1.
          2   -1    0    0  501    0  0.00000000000E+00 -0.00000000000E+00 -0.89382858475E+03  0.89382858475E+03  0.00000000000E+00 0. -1.
         24    2    1    2    0    0  0.20302662158E+03 -0.91535209404E+03  0.66944840146E+02  0.94340224822E+03  0.80230450524E+02 0.  0.
        254    2    1    2    0    0 -0.20302662158E+03  0.91535209404E+03  0.47568503503E+03  0.13868847965E+04  0.90447991738E+03 0.  0.
         23    2    4    4    0    0 -0.38387145444E+02 -0.11613875666E+03 -0.10857718190E+03  0.18621580128E+03  0.89025482210E+02 0.  0.
         23    2    4    4    0    0 -0.16463947613E+03  0.10314908507E+04  0.58426221694E+03  0.12006689952E+04  0.95729648737E+02 0.  0.
          2    1    3    3  502    0  0.26379896972E+02 -0.44980291083E+02  0.12475677585E+02  0.53616863778E+02  0.00000000000E+00 0. -1.
         -1    1    3    3    0  502  0.17664672460E+03 -0.87037180296E+03  0.54469162561E+02  0.88978538444E+03  0.00000000000E+00 0.  1.
         13    1    5    5    0    0 -0.11064762509E+02 -0.11662989485E+03 -0.10728991497E+03  0.15885870198E+03  0.00000000000E+00 0.  1.
        -13    1    5    5    0    0 -0.27322382934E+02  0.49113818537E+00 -0.12872669343E+01  0.27357099300E+02  0.00000000000E+00 0. -1.
          2    1    6    6  503    0 -0.83004817024E+02  0.74638173689E+03  0.44622756266E+03  0.87355282296E+03  0.00000000000E+00 0. -1.
         -2    1    6    6    0  503 -0.81634659108E+02  0.28510911381E+03  0.13803465427E+03  0.32711617221E+03  0.00000000000E+00 0.  1.
<mgrwt>
<rscale>  0 0.22662283E+04</rscale>
<asrwt>0</asrwt>
<pdfrwt beam="1">  1        2 0.13751209E+00 0.22662283E+04</pdfrwt>
<pdfrwt beam="2">  1       -1 0.22099361E+00 0.22662283E+04</pdfrwt>
<totfact> 0.33269276E+00</totfact>
</mgrwt>
</event>
<event>
12    7  0.1909736E-007  0.1318448E+04  0.7818608E-02  0.9015062E-01
          2   -1    0    0  501    0  0.00000000000E+00  0.00000000000E+00  0.19064299426E+04  0.19064299426E+04  0.00000000000E+00 0. -1.
         -1   -1    0    0    0  501 -0.00000000000E+00 -0.00000000000E+00 -0.22795290953E+03  0.22795290953E+03  0.00000000000E+00 0.  1.
         24    2    1    2    0    0  0.23169828708E+03 -0.91256591850E+02  0.62504980079E+02  0.27511275084E+03  0.98834666756E+02 0.  0.
        254    2    1    2    0    0 -0.23169828708E+03  0.91256591850E+02  0.16159720530E+04  0.18592701013E+04  0.88515974360E+03 0.  0.
         23    2    4    4    0    0 -0.34673885761E+03 -0.78682533236E+02  0.18622930970E+03  0.41166260735E+03  0.91465677113E+02 0.  0.
         23    2    4    4    0    0  0.11504057054E+03  0.16993912509E+03  0.14297427433E+04  0.14476074940E+04  0.96382080073E+02 0.  0.
          2    1    3    3  502    0  0.15065198559E+01 -0.20468778194E+02 -0.11037731603E+02  0.23303905290E+02  0.00000000000E+00 0. -1.
         -1    1    3    3    0  502  0.23019176722E+03 -0.70787813655E+02  0.73542711682E+02  0.25180884555E+03  0.00000000000E+00 0.  1.
         13    1    5    5    0    0 -0.34353471047E+03 -0.72047251765E+02  0.16246821174E+03  0.38678524223E+03  0.00000000000E+00 0. -1.
        -13    1    5    5    0    0 -0.32041471405E+01 -0.66352814702E+01  0.23761097959E+02  0.24877365120E+02  0.00000000000E+00 0.  1.
          1    1    6    6  503    0  0.11764760615E+03  0.17306154322E+03  0.14278811888E+04  0.14431340708E+04  0.00000000000E+00 0. -1.
         -1    1    6    6    0  503 -0.26070356167E+01 -0.31224181329E+01  0.18615545702E+01  0.44734231995E+01  0.00000000000E+00 0.  1.
<mgrwt>
<rscale>  0 0.13184480E+04</rscale>
<asrwt>0</asrwt>
<pdfrwt beam="1">  1        2 0.29329690E+00 0.13184480E+04</pdfrwt>
<pdfrwt beam="2">  1       -1 0.35069680E-01 0.13184480E+04</pdfrwt>
<totfact> 0.64968474E+01</totfact>
</mgrwt>
</event>
<event>
12    7  0.1909736E-007  0.1008445E+04  0.7818608E-02  0.9299331E-01
         -1   -1    0    0    0  501 -0.00000000000E+00  0.00000000000E+00  0.32638815043E+03  0.32638815043E+03  0.00000000000E+00 0.  1.
          2   -1    0    0  501    0  0.00000000000E+00 -0.00000000000E+00 -0.77895063605E+03  0.77895063605E+03  0.00000000000E+00 0. -1.
         24    2    1    2    0    0 -0.66662274623E+02 -0.25518854639E+01 -0.50015053535E+02  0.11447009615E+03  0.78431666781E+02 0.  0.
        254    2    1    2    0    0  0.66662274623E+02  0.25518854639E+01 -0.40254743209E+03  0.99086869033E+03  0.90295401622E+03 0.  0.
         23    2    4    4    0    0  0.12440179861E+03  0.41894063846E+03 -0.32837075736E+03  0.55433496170E+03  0.92047973520E+02 0.  0.
         23    2    4    4    0    0 -0.57739523988E+02 -0.41638875299E+03 -0.74176674729E+02  0.43653372863E+03  0.91356832825E+02 0.  0.
          2    1    3    3  502    0 -0.79790590195E+02  0.12300567357E+01 -0.21181241150E+02  0.82563286634E+02  0.00000000000E+00 0. -1.
         -1    1    3    3    0  502  0.13128315571E+02 -0.37819421997E+01 -0.28833812385E+02  0.31906809511E+02  0.00000000000E+00 0.  1.
         13    1    5    5    0    0  0.13374303058E+03  0.31532619613E+03 -0.24807642777E+03  0.42291810343E+03  0.00000000000E+00 0. -1.
        -13    1    5    5    0    0 -0.93412319729E+01  0.10361444233E+03 -0.80294329591E+02  0.13141685827E+03  0.00000000000E+00 0.  1.
          2    1    6    6  503    0 -0.33924388491E+02 -0.28793007435E+03 -0.78827151213E+01  0.29002884175E+03  0.00000000000E+00 0. -1.
         -2    1    6    6    0  503 -0.23815135497E+02 -0.12845867864E+03 -0.66293959607E+02  0.14650488687E+03  0.00000000000E+00 0.  1.
<mgrwt>
<rscale>  0 0.10084449E+04</rscale>
<asrwt>0</asrwt>
<pdfrwt beam="1">  1        2 0.11983856E+00 0.10084449E+04</pdfrwt>
<pdfrwt beam="2">  1       -1 0.50213562E-01 0.10084449E+04</pdfrwt>
<totfact> 0.16177963E+02</totfact>
</mgrwt>
</event>
<event>
12    7  0.1909736E-007  0.3251953E+04  0.7818608E-02  0.8175230E-01
          2   -1    0    0  501    0  0.00000000000E+00  0.00000000000E+00  0.24698502933E+04  0.24698502933E+04  0.00000000000E+00 0. -1.
         -1   -1    0    0    0  501 -0.00000000000E+00 -0.00000000000E+00 -0.10704290754E+04  0.10704290754E+04  0.00000000000E+00 0.  1.
         24    2    1    2    0    0 -0.18748135743E+03  0.11403076962E+04  0.16863559294E+04  0.20458108528E+04  0.78069350758E+02 0.  0.
        254    2    1    2    0    0  0.18748135743E+03 -0.11403076962E+04 -0.28693471145E+03  0.14944685159E+04  0.90313549085E+03 0.  0.
         23    2    4    4    0    0  0.42099541797E+02  0.66532968671E+02  0.15635252071E+03  0.19740978871E+03  0.91244214110E+02 0.  0.
         23    2    4    4    0    0  0.14538181563E+03 -0.12068406649E+04 -0.44328723216E+03  0.12970587272E+04  0.90870835421E+02 0.  0.
          4    1    3    3  502    0 -0.17193557461E+03  0.88340491975E+03  0.13441105381E+04  0.16175905640E+04  0.00000000000E+00 0. -1.
         -3    1    3    3    0  502 -0.15545782826E+02  0.25690277647E+03  0.34224539129E+03  0.42822028885E+03  0.00000000000E+00 0.  1.
         13    1    5    5    0    0  0.39661071602E+02 -0.60428273962E+01  0.92058540357E+02  0.10042057168E+03  0.00000000000E+00 0.  1.
        -13    1    5    5    0    0  0.24384701957E+01  0.72575796067E+02  0.64293980348E+02  0.96989217033E+02  0.00000000000E+00 0. -1.
          2    1    6    6  503    0  0.12932265956E+03 -0.11417136198E+04 -0.43838118384E+03  0.12298017736E+04  0.00000000000E+00 0.  1.
         -2    1    6    6    0  503  0.16059156072E+02 -0.65127045067E+02 -0.49060483218E+01  0.67256953567E+02  0.00000000000E+00 0. -1.
<mgrwt>
<rscale>  0 0.32519530E+04</rscale>
<asrwt>0</asrwt>
<pdfrwt beam="1">  1        2 0.37997697E+00 0.32519530E+04</pdfrwt>
<pdfrwt beam="2">  1       -1 0.16468140E+00 0.32519530E+04</pdfrwt>
<totfact> 0.93036378E-01</totfact>
</mgrwt>
</event>
<event>
12    7  0.1909736E-007  0.1699310E+04  0.7818608E-02  0.8761758E-01
         -1   -1    0    0    0  501 -0.00000000000E+00  0.00000000000E+00  0.15441746633E+03  0.15441746633E+03  0.00000000000E+00 0.  1.
          2   -1    0    0  501    0  0.00000000000E+00 -0.00000000000E+00 -0.46750779026E+04  0.46750779026E+04  0.00000000000E+00 0. -1.
         24    2    1    2    0    0 -0.35270690822E+03  0.20137778740E+03 -0.34303092215E+03  0.53734200583E+03  0.78173149568E+02 0.  0.
        254    2    1    2    0    0  0.35270690822E+03 -0.20137778740E+03 -0.41776295141E+04  0.42921533631E+04  0.89723851838E+03 0.  0.
         23    2    4    4    0    0 -0.14188659434E+03  0.25341385591E+03 -0.11595715091E+04  0.11988669856E+04  0.91244596258E+02 0.  0.
         23    2    4    4    0    0  0.49459350256E+03 -0.45479164330E+03 -0.30180580050E+04  0.30932863775E+04  0.91040212334E+02 0.  0.
          4    1    3    3  502    0 -0.46254130107E+02  0.30419761785E+02 -0.15902579151E+02  0.57599465993E+02  0.00000000000E+00 0. -1.
         -3    1    3    3    0  502 -0.30645277811E+03  0.17095802561E+03 -0.32712834300E+03  0.47974253983E+03  0.00000000000E+00 0.  1.
         13    1    5    5    0    0 -0.10677369141E+03  0.15919737922E+03 -0.58617478003E+03  0.61672141156E+03  0.00000000000E+00 0.  1.
        -13    1    5    5    0    0 -0.35112902923E+02  0.94216476685E+02 -0.57339672908E+03  0.58214557402E+03  0.00000000000E+00 0. -1.
          2    1    6    6  503    0  0.32133224492E+03 -0.35030085543E+03 -0.20703897928E+04  0.21242596345E+04  0.00000000000E+00 0. -1.
         -2    1    6    6    0  503  0.17326125763E+03 -0.10449078787E+03 -0.94766821223E+03  0.96902674298E+03  0.00000000000E+00 0.  1.
<mgrwt>
<rscale>  0 0.16993101E+04</rscale>
<asrwt>0</asrwt>
<pdfrwt beam="1">  1        2 0.71924280E+00 0.16993101E+04</pdfrwt>
<pdfrwt beam="2">  1       -1 0.23756532E-01 0.16993101E+04</pdfrwt>
<totfact> 0.13930946E+00</totfact>
</mgrwt>
</event>
<event>
12    7  0.1909736E-007  0.1744663E+04  0.7818608E-02  0.8736293E-01
          2   -1    0    0  501    0  0.00000000000E+00  0.00000000000E+00  0.18797311401E+04  0.18797311401E+04  0.00000000000E+00 0. -1.
         -1   -1    0    0    0  501 -0.00000000000E+00 -0.00000000000E+00 -0.40482519771E+03  0.40482519771E+03  0.00000000000E+00 0.  1.
         24    2    1    2    0    0 -0.30010963669E+03 -0.11146230289E+03  0.12712772539E+04  0.13134483623E+04  0.80691419990E+02 0.  0.
        254    2    1    2    0    0  0.30010963669E+03  0.11146230289E+03  0.20362868852E+03  0.97110797550E+03  0.89392193076E+03 0.  0.
         23    2    4    4    0    0  0.34721534883E+03 -0.17513737984E+03 -0.21544067899E+03  0.45353556442E+03  0.89711881880E+02 0.  0.
         23    2    4    4    0    0 -0.47105712143E+02  0.28659968273E+03  0.41906936751E+03  0.51757241108E+03  0.88902978956E+02 0.  0.
          2    1    3    3  502    0 -0.17801029623E+03 -0.10743076340E+03  0.78756394448E+03  0.81454650029E+03  0.00000000000E+00 0. -1.
         -1    1    3    3    0  502 -0.12209934046E+03 -0.40315394906E+01  0.48371330940E+03  0.49890186203E+03  0.00000000000E+00 0.  1.
         13    1    5    5    0    0  0.40626742836E+02 -0.20584647564E+02  0.45367863204E+01  0.45769448095E+02  0.00000000000E+00 0. -1.
        -13    1    5    5    0    0  0.30658860600E+03 -0.15455273228E+03 -0.21997746531E+03  0.40776611633E+03  0.00000000000E+00 0.  1.
          4    1    6    6  503    0 -0.34204290190E+02  0.10069261123E+03  0.89627491366E+02  0.13907560042E+03  0.00000000000E+00 0. -1.
         -4    1    6    6    0  503 -0.12901421953E+02  0.18590707151E+03  0.32944187615E+03  0.37849681066E+03  0.00000000000E+00 0.  1.
<mgrwt>
<rscale>  0 0.17446633E+04</rscale>
<asrwt>0</asrwt>
<pdfrwt beam="1">  1        2 0.28918940E+00 0.17446633E+04</pdfrwt>
<pdfrwt beam="2">  1       -1 0.62280801E-01 0.17446633E+04</pdfrwt>
<totfact> 0.22006869E+01</totfact>
</mgrwt>
</event>
<event>
12    7  0.2023489E-007  0.2212117E+04  0.7818608E-02  0.8513401E-01
          2   -1    0    0  501    0  0.00000000000E+00  0.00000000000E+00  0.10483155828E+04  0.10483155828E+04  0.00000000000E+00 0. -1.
         -1   -1    0    0    0  501 -0.00000000000E+00 -0.00000000000E+00 -0.11669823578E+04  0.11669823578E+04  0.00000000000E+00 0.  1.
         24    2    1    2    0    0 -0.50588015282E+03 -0.75743093054E+03  0.93676462424E+02  0.91900703576E+03  0.78627658120E+02 0.  0.
        254    2    1    2    0    0  0.50588015282E+03  0.75743093054E+03 -0.21234323742E+03  0.12962909048E+04  0.89758794326E+03 0.  0.
         23    2    4    4    0    0  0.34646241647E+03  0.36993973793E+03 -0.54771194958E+03  0.75174473437E+03  0.90775273150E+02 0.  0.
         23    2    4    4    0    0  0.15941773635E+03  0.38749119260E+03  0.33536871216E+03  0.54454617045E+03  0.92167888392E+02 0.  0.
          4    1    3    3  502    0 -0.19209350018E+03 -0.29386062082E+03 -0.21328413861E+01  0.35108193672E+03  0.00000000000E+00 0. -1.
         -3    1    3    3    0  502 -0.31378665264E+03 -0.46357030972E+03  0.95809303810E+02  0.56792509904E+03  0.00000000000E+00 0.  1.
         13    1    5    5    0    0  0.19235378258E+03  0.14402403247E+03 -0.23131415977E+03  0.33354031258E+03  0.00000000000E+00 0. -1.
        -13    1    5    5    0    0  0.15410863388E+03  0.22591570546E+03 -0.31639778981E+03  0.41820442179E+03  0.00000000000E+00 0.  1.
          4    1    6    6  503    0 -0.27523078116E+00  0.98709809004E+02  0.86142396371E+02  0.13101226888E+03  0.00000000000E+00 0. -1.
         -4    1    6    6    0  503  0.15969296713E+03  0.28878138360E+03  0.24922631578E+03  0.41353390156E+03  0.00000000000E+00 0.  1.
<mgrwt>
<rscale>  0 0.22121173E+04</rscale>
<asrwt>0</asrwt>
<pdfrwt beam="1">  1        2 0.16127932E+00 0.22121173E+04</pdfrwt>
<pdfrwt beam="2">  1       -1 0.17953575E+00 0.22121173E+04</pdfrwt>
<totfact> 0.51243060E+00</totfact>
</mgrwt>
</event>
<event>
12    7  0.1909736E-007  0.1659286E+04  0.7818608E-02  0.8784932E-01
          2   -1    0    0  501    0  0.00000000000E+00  0.00000000000E+00  0.25164306998E+04  0.25164306998E+04  0.00000000000E+00 0. -1.
         -1   -1    0    0    0  501 -0.00000000000E+00 -0.00000000000E+00 -0.27352523025E+03  0.27352523025E+03  0.00000000000E+00 0.  1.
         24    2    1    2    0    0 -0.22311813570E+03 -0.10162901976E+03  0.16694350086E+04  0.16891978301E+04  0.79157445252E+02 0.  0.
        254    2    1    2    0    0  0.22311813570E+03  0.10162901976E+03  0.57347046101E+03  0.11007581000E+04  0.90702252725E+03 0.  0.
         23    2    4    4    0    0 -0.33974497079E+03  0.10859168025E+03  0.19638804780E+03  0.41712488263E+03  0.90587549886E+02 0.  0.
         23    2    4    4    0    0  0.56286310649E+03 -0.69626604858E+01  0.37708241321E+03  0.68363321738E+03  0.91103645686E+02 0.  0.
          4    1    3    3  502    0 -0.15991546637E+03 -0.42330290430E+02  0.12503626025E+04  0.12612578830E+04  0.00000000000E+00 0. -1.
         -3    1    3    3    0  502 -0.63202669335E+02 -0.59298729330E+02  0.41907240611E+03  0.42793994704E+03  0.00000000000E+00 0.  1.
         13    1    5    5    0    0 -0.17711584041E+03  0.10132915507E+03  0.12559074206E+03  0.23960520253E+03  0.00000000000E+00 0. -1.
        -13    1    5    5    0    0 -0.16262913039E+03  0.72625251769E+01  0.70797305739E+02  0.17751968010E+03  0.00000000000E+00 0.  1.
          3    1    6    6  503    0  0.38355478616E+03 -0.32574890447E+02  0.29395871986E+03  0.48434195198E+03  0.00000000000E+00 0. -1.
         -3    1    6    6    0  503  0.17930832034E+03  0.25612229962E+02  0.83123693351E+02  0.19929126539E+03  0.00000000000E+00 0.  1.
<mgrwt>
<rscale>  0 0.16592857E+04</rscale>
<asrwt>0</asrwt>
<pdfrwt beam="1">  1        2 0.38714317E+00 0.16592857E+04</pdfrwt>
<pdfrwt beam="2">  1       -1 0.42080806E-01 0.16592857E+04</pdfrwt>
<totfact> 0.20576776E+01</totfact>
</mgrwt>
</event>
<event>
12    7  0.1909736E-007  0.1724314E+04  0.7818608E-02  0.8747617E-01
         -1   -1    0    0    0  501 -0.00000000000E+00  0.00000000000E+00  0.14862884088E+04  0.14862884088E+04  0.00000000000E+00 0.  1.
          2   -1    0    0  501    0  0.00000000000E+00 -0.00000000000E+00 -0.50011478154E+03  0.50011478154E+03  0.00000000000E+00 0. -1.
         24    2    1    2    0    0 -0.59870950514E+02  0.43908584200E+03  0.86584301509E+03  0.97588676936E+03  0.79309220534E+02 0.  0.
        254    2    1    2    0    0  0.59870950514E+02 -0.43908584200E+03  0.12033061214E+03  0.10105164210E+04  0.90015724928E+03 0.  0.
         23    2    4    4    0    0 -0.29444602516E+03  0.93846547898E+02 -0.77181349653E+02  0.33447369332E+03  0.10202967462E+03 0.  0.
         23    2    4    4    0    0  0.35431697567E+03 -0.53293238990E+03  0.19751196179E+03  0.67604272764E+03  0.92007299070E+02 0.  0.
          4    1    3    3  502    0  0.10907114727E+02  0.85085836114E+01  0.26298463625E+02  0.29714816771E+02  0.00000000000E+00 0. -1.
         -3    1    3    3    0  502 -0.70778065241E+02  0.43057725839E+03  0.83954455147E+03  0.94617195259E+03  0.00000000000E+00 0.  1.
         13    1    5    5    0    0 -0.14086892572E+03  0.92541766620E+02 -0.16554544445E+02  0.16935786295E+03  0.00000000000E+00 0. -1.
        -13    1    5    5    0    0 -0.15357709944E+03  0.13047812781E+01 -0.60626805208E+02  0.16511583036E+03  0.00000000000E+00 0.  1.
          4    1    6    6  503    0  0.31866207557E+03 -0.41794673270E+03  0.17182950210E+03  0.55294698442E+03  0.00000000000E+00 0. -1.
         -4    1    6    6    0  503  0.35654900104E+02 -0.11498565720E+03  0.25682459687E+02  0.12309574322E+03  0.00000000000E+00 0.  1.
<mgrwt>
<rscale>  0 0.17243141E+04</rscale>
<asrwt>0</asrwt>
<pdfrwt beam="1">  1        2 0.76940736E-01 0.17243141E+04</pdfrwt>
<pdfrwt beam="2">  1       -1 0.22865975E+00 0.17243141E+04</pdfrwt>
<totfact> 0.64379265E+00</totfact>
</mgrwt>
</event>
<event>
12    7  0.1909736E-007  0.1598288E+04  0.7818608E-02  0.8821601E-01
          2   -1    0    0  501    0  0.00000000000E+00  0.00000000000E+00  0.14474668615E+04  0.14474668615E+04  0.00000000000E+00 0. -1.
         -1   -1    0    0    0  501 -0.00000000000E+00 -0.00000000000E+00 -0.44120592260E+03  0.44120592260E+03  0.00000000000E+00 0.  1.
         24    2    1    2    0    0  0.57708437037E+02 -0.91750622747E+02 -0.27898258181E+03  0.30967705585E+03  0.79499418153E+02 0.  0.
        254    2    1    2    0    0 -0.57708437037E+02  0.91750622747E+02  0.12852435207E+04  0.15789957282E+04  0.91083926232E+03 0.  0.
         23    2    4    4    0    0 -0.11338212062E+03  0.29306747000E+03  0.13096547656E+04  0.13496775846E+04  0.87692245849E+02 0.  0.
         23    2    4    4    0    0  0.55673683585E+02 -0.20131684726E+03 -0.24411244940E+02  0.22931814362E+03  0.91448729240E+02 0.  0.
          2    1    3    3  502    0  0.22453892427E+02 -0.38840717938E+02 -0.33221801986E+02  0.55825323844E+02  0.00000000000E+00 0. -1.
         -1    1    3    3    0  502  0.35254544610E+02 -0.52909904809E+02 -0.24576077983E+03  0.25385173201E+03  0.00000000000E+00 0.  1.
         13    1    5    5    0    0 -0.79590784567E+01  0.57222775906E+02  0.13313953622E+03  0.14513417626E+03  0.00000000000E+00 0. -1.
        -13    1    5    5    0    0 -0.10542304217E+03  0.23584469410E+03  0.11765152294E+04  0.12045434084E+04  0.00000000000E+00 0.  1.
          3    1    6    6  503    0  0.19297249961E+02 -0.16929894623E+03  0.87147152079E+01  0.17061788685E+03  0.00000000000E+00 0. -1.
         -3    1    6    6    0  503  0.36376433624E+02 -0.32017901026E+02 -0.33125960148E+02  0.58700256772E+02  0.00000000000E+00 0.  1.
<mgrwt>
<rscale>  0 0.15982878E+04</rscale>
<asrwt>0</asrwt>
<pdfrwt beam="1">  1        2 0.22268721E+00 0.15982878E+04</pdfrwt>
<pdfrwt beam="2">  1       -1 0.67877835E-01 0.15982878E+04</pdfrwt>
<totfact> 0.32653707E+01</totfact>
</mgrwt>
</event>
<event>
12    7  0.1909736E-007  0.1225859E+04  0.7818608E-02  0.9090518E-01
          2   -1    0    0  501    0  0.00000000000E+00  0.00000000000E+00  0.24858455483E+04  0.24858455483E+04  0.00000000000E+00 0. -1.
         -1   -1    0    0    0  501 -0.00000000000E+00 -0.00000000000E+00 -0.15112880858E+03  0.15112880858E+03  0.00000000000E+00 0.  1.
         24    2    1    2    0    0  0.21468538405E+02 -0.83036090991E+02 -0.12869026058E+02  0.11569087151E+03  0.76569415374E+02 0.  0.
        254    2    1    2    0    0 -0.21468538405E+02  0.83036090991E+02  0.23475857658E+04  0.25212834854E+04  0.91561760323E+03 0.  0.
         23    2    4    4    0    0 -0.40022734231E+03 -0.10695780712E+03  0.16178642972E+04  0.16724789761E+04  0.89884054228E+02 0.  0.
         23    2    4    4    0    0  0.37875880391E+03  0.18999389811E+03  0.72972146861E+03  0.84880450933E+03  0.91759252639E+02 0.  0.
          2    1    3    3  502    0 -0.15397419575E+02 -0.12611963960E+02  0.21314464318E+02  0.29162451091E+02  0.00000000000E+00 0. -1.
         -1    1    3    3    0  502  0.36865957980E+02 -0.70424127031E+02 -0.34183490376E+02  0.86528420419E+02  0.00000000000E+00 0.  1.
         13    1    5    5    0    0 -0.19854704462E+03 -0.10128679411E+02  0.69409395246E+03  0.72200410934E+03  0.00000000000E+00 0.  1.
        -13    1    5    5    0    0 -0.20168029770E+03 -0.96829127706E+02  0.92377034475E+03  0.95047486673E+03  0.00000000000E+00 0. -1.
          2    1    6    6  503    0  0.11907697483E+03  0.43160033388E+02  0.14609296307E+03  0.19335270434E+03  0.00000000000E+00 0. -1.
         -2    1    6    6    0  503  0.25968182908E+03  0.14683386472E+03  0.58362850554E+03  0.65545180498E+03  0.00000000000E+00 0.  1.
<mgrwt>
<rscale>  0 0.12258595E+04</rscale>
<asrwt>0</asrwt>
<pdfrwt beam="1">  1        2 0.38243775E+00 0.12258595E+04</pdfrwt>
<pdfrwt beam="2">  1       -1 0.23250588E-01 0.12258595E+04</pdfrwt>
<totfact> 0.63485043E+01</totfact>
</mgrwt>
</event>
<event>
12    7  0.1909736E-007  0.1689255E+04  0.7818608E-02  0.8767516E-01
          2   -1    0    0  501    0  0.00000000000E+00  0.00000000000E+00  0.77256718364E+03  0.77256718364E+03  0.00000000000E+00 0. -1.
         -1   -1    0    0    0  501 -0.00000000000E+00 -0.00000000000E+00 -0.92340962105E+03  0.92340962105E+03  0.00000000000E+00 0.  1.
         24    2    1    2    0    0  0.42067897882E+03  0.42346913880E+03 -0.16293476093E+03  0.62377341663E+03  0.79048239936E+02 0.  0.
        254    2    1    2    0    0 -0.42067897882E+03 -0.42346913880E+03  0.12092323527E+02  0.10722033881E+04  0.89060483176E+03 0.  0.
         23    2    4    4    0    0 -0.52365102544E+03 -0.18774775456E+03 -0.31484863087E+03  0.64586393656E+03  0.92471338290E+02 0.  0.
         23    2    4    4    0    0  0.10297204662E+03 -0.23572138424E+03  0.32694095440E+03  0.42633945150E+03  0.93311986716E+02 0.  0.
          4    1    3    3  502    0  0.10259630234E+03  0.15330907234E+03 -0.40635358834E+02  0.18889389959E+03  0.00000000000E+00 0. -1.
         -3    1    3    3    0  502  0.31808267647E+03  0.27016006646E+03 -0.12229940209E+03  0.43487951704E+03  0.00000000000E+00 0.  1.
         13    1    5    5    0    0 -0.22364101001E+03 -0.11404846208E+03 -0.10341491920E+03  0.27150874493E+03  0.00000000000E+00 0. -1.
        -13    1    5    5    0    0 -0.30001001542E+03 -0.73699292479E+02 -0.21143371168E+03  0.37435519163E+03  0.00000000000E+00 0.  1.
          4    1    6    6  503    0  0.95726972732E+01  0.62381066170E+01  0.39177520326E+01  0.12078877772E+02  0.00000000000E+00 0. -1.
         -4    1    6    6    0  503  0.93399349348E+02 -0.24195949086E+03  0.32302320237E+03  0.41426057373E+03  0.00000000000E+00 0.  1.
<mgrwt>
<rscale>  0 0.16892554E+04</rscale>
<asrwt>0</asrwt>
<pdfrwt beam="1">  1        2 0.11885649E+00 0.16892554E+04</pdfrwt>
<pdfrwt beam="2">  1       -1 0.14206302E+00 0.16892554E+04</pdfrwt>
<totfact> 0.15823023E+01</totfact>
</mgrwt>
</event>
<event>
12    7  0.1909736E-007  0.1290667E+04  0.7818608E-02  0.9036999E-01
         -1   -1    0    0    0  501 -0.00000000000E+00  0.00000000000E+00  0.11839658427E+04  0.11839658427E+04  0.00000000000E+00 0.  1.
          2   -1    0    0  501    0  0.00000000000E+00 -0.00000000000E+00 -0.35174589139E+03  0.35174589139E+03  0.00000000000E+00 0. -1.
         24    2    1    2    0    0 -0.26465485997E+03 -0.20878006890E+02  0.42003817513E+03  0.50331385124E+03  0.80091686231E+02 0.  0.
        254    2    1    2    0    0  0.26465485997E+03  0.20878006890E+02  0.41218177613E+03  0.10323978828E+04  0.90855571418E+03 0.  0.
         23    2    4    4    0    0  0.56130154721E+03  0.12640736475E+03  0.12406678062E+03  0.59567565005E+03  0.91644231917E+02 0.  0.
         23    2    4    4    0    0 -0.29664668725E+03 -0.10552935785E+03  0.28811499551E+03  0.43672223275E+03  0.92630208461E+02 0.  0.
          4    1    3    3  502    0 -0.18771988978E+02  0.10050971098E+02  0.85158334059E+01  0.22933142148E+02  0.00000000000E+00 0. -1.
         -3    1    3    3    0  502 -0.24588287099E+03 -0.30928977988E+02  0.41152234173E+03  0.48038070909E+03  0.00000000000E+00 0.  1.
         13    1    5    5    0    0  0.44165808320E+03  0.87457819333E+02  0.13319051068E+03  0.46952150617E+03  0.00000000000E+00 0.  1.
        -13    1    5    5    0    0  0.11964346401E+03  0.38949545412E+02 -0.91237300571E+01  0.12615414389E+03  0.00000000000E+00 0. -1.
          2    1    6    6  503    0 -0.13031752137E+03 -0.61164469496E+02  0.19066873632E+03  0.23891068564E+03  0.00000000000E+00 0. -1.
         -2    1    6    6    0  503 -0.16632916588E+03 -0.44364888359E+02  0.97446259193E+02  0.19781154711E+03  0.00000000000E+00 0.  1.
<mgrwt>
<rscale>  0 0.12906667E+04</rscale>
<asrwt>0</asrwt>
<pdfrwt beam="1">  1        2 0.54114753E-01 0.12906667E+04</pdfrwt>
<pdfrwt beam="2">  1       -1 0.18214859E+00 0.12906667E+04</pdfrwt>
<totfact> 0.20726141E+01</totfact>
</mgrwt>
</event>
<event>
12    7  0.1909736E-007  0.2506082E+04  0.7818608E-02  0.8400822E-01
          2   -1    0    0  501    0  0.00000000000E+00  0.00000000000E+00  0.17631993035E+04  0.17631993035E+04  0.00000000000E+00 0. -1.
         -1   -1    0    0    0  501 -0.00000000000E+00 -0.00000000000E+00 -0.89049045625E+03  0.89049045625E+03  0.00000000000E+00 0.  1.
         24    2    1    2    0    0  0.53873987755E+03 -0.79804374722E+03 -0.15783166199E+03  0.97911517476E+03  0.81493642540E+02 0.  0.
        254    2    1    2    0    0 -0.53873987755E+03  0.79804374722E+03  0.10305405092E+04  0.16745745850E+04  0.90281328154E+03 0.  0.
         23    2    4    4    0    0 -0.33109690817E+03  0.90044064767E+03  0.49329282052E+03  0.10826705247E+04  0.91755847776E+02 0.  0.
         23    2    4    4    0    0 -0.20764296938E+03 -0.10239690044E+03  0.53724768871E+03  0.59190406032E+03  0.90081128141E+02 0.  0.
          4    1    3    3  502    0  0.16115119359E+03 -0.23155777440E+03 -0.90823835412E+01  0.28226087184E+03  0.00000000000E+00 0. -1.
         -3    1    3    3    0  502  0.37758868395E+03 -0.56648597282E+03 -0.14874927845E+03  0.69685430292E+03  0.00000000000E+00 0.  1.
         13    1    5    5    0    0 -0.57017528078E+02  0.19120860213E+03  0.64209713716E+02  0.20960585720E+03  0.00000000000E+00 0.  1.
        -13    1    5    5    0    0 -0.27407938009E+03  0.70923204554E+03  0.42908310680E+03  0.87306466745E+03  0.00000000000E+00 0. -1.
          2    1    6    6  503    0 -0.41562859306E+02 -0.62793056204E+02  0.20420531236E+03  0.21764707390E+03  0.00000000000E+00 0. -1.
         -2    1    6    6    0  503 -0.16608011007E+03 -0.39603844241E+02  0.33304237635E+03  0.37425698642E+03  0.00000000000E+00 0.  1.
<mgrwt>
<rscale>  0 0.25060823E+04</rscale>
<asrwt>0</asrwt>
<pdfrwt beam="1">  1        2 0.27126143E+00 0.25060823E+04</pdfrwt>
<pdfrwt beam="2">  1       -1 0.13699853E+00 0.25060823E+04</pdfrwt>
<totfact> 0.40708071E+00</totfact>
</mgrwt>
</event>
<event>
12    7  0.1909736E-007  0.1434417E+04  0.7818608E-02  0.8929276E-01
          2   -1    0    0  501    0  0.00000000000E+00  0.00000000000E+00  0.43212982090E+03  0.43212982090E+03  0.00000000000E+00 0. -1.
         -1   -1    0    0    0  501 -0.00000000000E+00 -0.00000000000E+00 -0.11903552196E+04  0.11903552196E+04  0.00000000000E+00 0.  1.
         24    2    1    2    0    0  0.37278075755E+03  0.16544959677E+03 -0.39124090392E+03  0.57030584147E+03  0.76421499879E+02 0.  0.
        254    2    1    2    0    0 -0.37278075755E+03 -0.16544959677E+03 -0.36698449481E+03  0.10521791991E+04  0.89781088501E+03 0.  0.
         23    2    4    4    0    0 -0.45715702227E+03  0.25884292019E+03 -0.12091121769E+03  0.54631973778E+03  0.88620161234E+02 0.  0.
         23    2    4    4    0    0  0.84376264724E+02 -0.42429251695E+03 -0.24607327713E+03  0.50585946129E+03  0.90544148730E+02 0.  0.
          2    1    3    3  502    0  0.14972821867E+01  0.11395500685E+02 -0.20317455175E+02  0.23343056239E+02  0.00000000000E+00 0. -1.
         -1    1    3    3    0  502  0.37128347536E+03  0.15405409608E+03 -0.37092344875E+03  0.54696278523E+03  0.00000000000E+00 0.  1.
         13    1    5    5    0    0 -0.25884597775E+03  0.99276769360E+02 -0.79776762253E+02  0.28848128003E+03  0.00000000000E+00 0. -1.
        -13    1    5    5    0    0 -0.19831104453E+03  0.15956615083E+03 -0.41134455435E+02  0.25783845775E+03  0.00000000000E+00 0.  1.
          1    1    6    6  503    0  0.99619598013E+02 -0.35906521954E+03 -0.18880491333E+03  0.41773100374E+03  0.00000000000E+00 0. -1.
         -1    1    6    6    0  503 -0.15243333289E+02 -0.65227297416E+02 -0.57268363793E+02  0.88128457546E+02  0.00000000000E+00 0.  1.
<mgrwt>
<rscale>  0 0.14344169E+04</rscale>
<asrwt>0</asrwt>
<pdfrwt beam="1">  1        2 0.66481513E-01 0.14344169E+04</pdfrwt>
<pdfrwt beam="2">  1       -1 0.18313157E+00 0.14344169E+04</pdfrwt>
<totfact> 0.15986557E+01</totfact>
</mgrwt>
</event>
<event>
12    7  0.1909736E-007  0.1274900E+04  0.7818608E-02  0.9049710E-01
         -1   -1    0    0    0  501 -0.00000000000E+00  0.00000000000E+00  0.62918390218E+03  0.62918390218E+03  0.00000000000E+00 0.  1.
          2   -1    0    0  501    0  0.00000000000E+00 -0.00000000000E+00 -0.64582469225E+03  0.64582469225E+03  0.00000000000E+00 0. -1.
         24    2    1    2    0    0  0.94633330698E+02  0.24784629533E+03  0.15650824033E+03  0.31874745670E+03  0.81986940837E+02 0.  0.
        254    2    1    2    0    0 -0.94633330698E+02 -0.24784629533E+03 -0.17314903041E+03  0.95626113773E+03  0.90225912210E+03 0.  0.
         23    2    4    4    0    0  0.13117205200E+03 -0.11459796491E+03 -0.49412101432E+03  0.53210388017E+03  0.92952470189E+02 0.  0.
         23    2    4    4    0    0 -0.22580538270E+03 -0.13324833042E+03  0.32097198391E+03  0.42415725756E+03  0.90239549344E+02 0.  0.
          2    1    3    3  502    0 -0.89203725082E-01  0.16276245432E+02 -0.91588433411E+01  0.18676416520E+02  0.00000000000E+00 0. -1.
         -1    1    3    3    0  502  0.94722534423E+02  0.23157004990E+03  0.16566708367E+03  0.30007104018E+03  0.00000000000E+00 0.  1.
         13    1    5    5    0    0 -0.99527029626E+01 -0.16547313259E+01 -0.74879486939E+02  0.75556151280E+02  0.00000000000E+00 0.  1.
        -13    1    5    5    0    0  0.14112475496E+03 -0.11294323359E+03 -0.41924152738E+03  0.45654772889E+03  0.00000000000E+00 0. -1.
          2    1    6    6  503    0 -0.17923837976E+02 -0.11591252184E+02 -0.17993317209E+01  0.21420987131E+02  0.00000000000E+00 0.  1.
         -2    1    6    6    0  503 -0.20788154472E+03 -0.12165707824E+03  0.32277131563E+03  0.40273627043E+03  0.00000000000E+00 0. -1.
<mgrwt>
<rscale>  0 0.12749000E+04</rscale>
<asrwt>0</asrwt>
<pdfrwt beam="1">  1        2 0.99357645E-01 0.12749000E+04</pdfrwt>
<pdfrwt beam="2">  1       -1 0.96797524E-01 0.12749000E+04</pdfrwt>
<totfact> 0.52213745E+01</totfact>
</mgrwt>
</event>
<event>
12    7  0.1909736E-007  0.3968696E+04  0.7818608E-02  0.8010891E-01
          2   -1    0    0  501    0  0.00000000000E+00  0.00000000000E+00  0.42573056012E+04  0.42573056012E+04  0.00000000000E+00 0. -1.
         -1   -1    0    0    0  501 -0.00000000000E+00 -0.00000000000E+00 -0.92491299965E+03  0.92491299965E+03  0.00000000000E+00 0.  1.
         24    2    1    2    0    0 -0.14674362726E+04  0.11774318364E+04  0.17104380363E+04  0.25440062925E+04  0.81576938566E+02 0.  0.
        254    2    1    2    0    0  0.14674362726E+04 -0.11774318364E+04  0.16219545652E+04  0.26382123083E+04  0.88865776788E+03 0.  0.
         23    2    4    4    0    0  0.52738528846E+03 -0.58682474654E+03  0.17706120510E+03  0.81372182159E+03  0.91071438729E+02 0.  0.
         23    2    4    4    0    0  0.94005098416E+03 -0.59060708984E+03  0.14448933601E+04  0.18244904867E+04  0.92391160391E+02 0.  0.
          4    1    3    3  502    0 -0.92825614584E+03  0.76682273905E+03  0.10464991749E+04  0.15952545591E+04  0.00000000000E+00 0. -1.
         -3    1    3    3    0  502 -0.53918012679E+03  0.41060909733E+03  0.66393886142E+03  0.94875173341E+03  0.00000000000E+00 0.  1.
         13    1    5    5    0    0  0.24775644930E+03 -0.20899826688E+03  0.68182618166E+02  0.33122862671E+03  0.00000000000E+00 0.  1.
        -13    1    5    5    0    0  0.27962883916E+03 -0.37782647966E+03  0.10887858694E+03  0.48249319489E+03  0.00000000000E+00 0. -1.
          2    1    6    6  503    0  0.94169355804E+03 -0.58627438708E+03  0.14370905108E+04  0.18154155310E+04  0.00000000000E+00 0.  1.
         -2    1    6    6    0  503 -0.16425738719E+01 -0.43327027637E+01  0.78028493561E+01  0.90749556603E+01  0.00000000000E+00 0. -1.
<mgrwt>
<rscale>  0 0.39686962E+04</rscale>
<asrwt>0</asrwt>
<pdfrwt beam="1">  1        2 0.65497008E+00 0.39686962E+04</pdfrwt>
<pdfrwt beam="2">  1       -1 0.14229431E+00 0.39686962E+04</pdfrwt>
<totfact> 0.74229140E-02</totfact>
</mgrwt>
</event>
<event>
12    7  0.1909736E-007  0.1509058E+04  0.7818608E-02  0.8878452E-01
         -1   -1    0    0    0  501 -0.00000000000E+00  0.00000000000E+00  0.62478240801E+03  0.62478240801E+03  0.00000000000E+00 0.  1.
          2   -1    0    0  501    0  0.00000000000E+00 -0.00000000000E+00 -0.91121993681E+03  0.91121993681E+03  0.00000000000E+00 0. -1.
         24    2    1    2    0    0  0.47735203437E+03 -0.74103099700E+02 -0.16383560455E+03  0.51667961452E+03  0.82216085030E+02 0.  0.
        254    2    1    2    0    0 -0.47735203437E+03  0.74103099700E+02 -0.12260192425E+03  0.10193227303E+04  0.88917453999E+03 0.  0.
         23    2    4    4    0    0 -0.32474952246E+03  0.46701014345E+03 -0.11591684175E+03  0.58719682181E+03  0.88332705855E+02 0.  0.
         23    2    4    4    0    0 -0.15260251191E+03 -0.39290704375E+03 -0.66850825048E+01  0.43212590848E+03  0.94998098838E+02 0.  0.
          4    1    3    3  502    0  0.15584510167E+03 -0.51846721376E+02 -0.84848234904E+02  0.18486481871E+03  0.00000000000E+00 0. -1.
         -1    1    3    3    0  502  0.32150693270E+03 -0.22256378324E+02 -0.78987369645E+02  0.33181479581E+03  0.00000000000E+00 0.  1.
         13    1    5    5    0    0 -0.12812272065E+03  0.11430585090E+03 -0.40320440609E+02  0.17637175802E+03  0.00000000000E+00 0. -1.
        -13    1    5    5    0    0 -0.19662680181E+03  0.35270429255E+03 -0.75596401137E+02  0.41082506379E+03  0.00000000000E+00 0.  1.
          2    1    6    6  503    0 -0.10470483439E+02  0.38864249761E-01 -0.96718333460E+01  0.14254013265E+02  0.00000000000E+00 0. -1.
         -2    1    6    6    0  503 -0.14213202847E+03 -0.39294590800E+03  0.29867508412E+01  0.41787189522E+03  0.00000000000E+00 0.  1.
<mgrwt>
<rscale>  0 0.15090582E+04</rscale>
<asrwt>0</asrwt>
<pdfrwt beam="1">  1        2 0.14018768E+00 0.15090582E+04</pdfrwt>
<pdfrwt beam="2">  1       -1 0.96120371E-01 0.15090582E+04</pdfrwt>
<totfact> 0.33121273E+01</totfact>
</mgrwt>
</event>
<event>
12    7  0.1909736E-007  0.1466701E+04  0.7818608E-02  0.8906903E-01
         -1   -1    0    0    0  501 -0.00000000000E+00  0.00000000000E+00  0.86746398230E+03  0.86746398230E+03  0.00000000000E+00 0.  1.
          2   -1    0    0  501    0  0.00000000000E+00 -0.00000000000E+00 -0.61997174796E+03  0.61997174796E+03  0.00000000000E+00 0. -1.
         24    2    1    2    0    0 -0.16099510450E+03  0.69325235935E+02  0.50053240163E+03  0.53622809742E+03  0.79262067718E+02 0.  0.
        254    2    1    2    0    0  0.16099510450E+03 -0.69325235935E+02 -0.25304016729E+03  0.95120763284E+03  0.90002290110E+03 0.  0.
         23    2    4    4    0    0  0.91881211155E+02 -0.36318196356E+03 -0.43977474568E+03  0.58481009158E+03  0.90872001494E+02 0.  0.
         23    2    4    4    0    0  0.69113893341E+02  0.29385672763E+03  0.18673457839E+03  0.36639754126E+03  0.90823173508E+02 0.  0.
          2    1    3    3  502    0 -0.36700881699E+02 -0.50952456504E+01  0.18981405074E+03  0.19339671689E+03  0.00000000000E+00 0. -1.
         -1    1    3    3    0  502 -0.12429422280E+03  0.74420481585E+02  0.31071835088E+03  0.34283138053E+03  0.00000000000E+00 0.  1.
         13    1    5    5    0    0 -0.24785465620E+01 -0.21580543730E+02 -0.23641836123E+01  0.21850684770E+02  0.00000000000E+00 0. -1.
        -13    1    5    5    0    0  0.94359757717E+02 -0.34160141983E+03 -0.43741056207E+03  0.56295940681E+03  0.00000000000E+00 0.  1.
          2    1    6    6  503    0  0.74071828574E+02  0.28888517274E+03  0.19440565212E+03  0.35599836571E+03  0.00000000000E+00 0.  1.
         -2    1    6    6    0  503 -0.49579352331E+01  0.49715548949E+01 -0.76710737282E+01  0.10399175544E+02  0.00000000000E+00 0. -1.
<mgrwt>
<rscale>  0 0.14667013E+04</rscale>
<asrwt>0</asrwt>
<pdfrwt beam="1">  1        2 0.95380268E-01 0.14667013E+04</pdfrwt>
<pdfrwt beam="2">  1       -1 0.13345600E+00 0.14667013E+04</pdfrwt>
<totfact> 0.25027947E+01</totfact>
</mgrwt>
</event>
<event>
12    7  0.1909736E-007  0.2257398E+04  0.7818608E-02  0.8494910E-01
          2   -1    0    0  501    0  0.00000000000E+00  0.00000000000E+00  0.80975491702E+03  0.80975491702E+03  0.00000000000E+00 0. -1.
         -1   -1    0    0    0  501 -0.00000000000E+00 -0.00000000000E+00 -0.15732681175E+04  0.15732681175E+04  0.00000000000E+00 0.  1.
         24    2    1    2    0    0 -0.63439415457E+03 -0.54022290483E+03  0.14653479903E+03  0.85048849480E+03  0.86956898564E+02 0.  0.
        254    2    1    2    0    0  0.63439415457E+03  0.54022290483E+03 -0.91004799948E+03  0.15325345397E+04  0.90894335560E+03 0.  0.
         23    2    4    4    0    0  0.16168427816E+02  0.17836709003E+02 -0.67940241012E+03  0.68595988102E+03  0.91508235995E+02 0.  0.
         23    2    4    4    0    0  0.61822572675E+03  0.52238619583E+03 -0.23064558936E+03  0.84657465866E+03  0.91656303530E+02 0.  0.
          4    1    3    3  502    0 -0.58518367655E+03 -0.52503206532E+03  0.13476979398E+03  0.79766001672E+03  0.00000000000E+00 0. -1.
         -3    1    3    3    0  502 -0.49210478021E+02 -0.15190839513E+02  0.11765005059E+02  0.52828478079E+02  0.00000000000E+00 0.  1.
         13    1    5    5    0    0 -0.12000527188E+01  0.19198273813E+02 -0.26086469454E+02  0.32411691294E+02  0.00000000000E+00 0. -1.
        -13    1    5    5    0    0  0.17368480535E+02 -0.13615648105E+01 -0.65331594066E+03  0.65354818973E+03  0.00000000000E+00 0.  1.
          2    1    6    6  503    0  0.39020748324E+03  0.27390051603E+03 -0.11963253821E+03  0.49152346522E+03  0.00000000000E+00 0. -1.
         -2    1    6    6    0  503  0.22801824351E+03  0.24848567979E+03 -0.11101305115E+03  0.35505119344E+03  0.00000000000E+00 0.  1.
<mgrwt>
<rscale>  0 0.22573981E+04</rscale>
<asrwt>0</asrwt>
<pdfrwt beam="1">  1        2 0.12457768E+00 0.22573981E+04</pdfrwt>
<pdfrwt beam="2">  1       -1 0.24204125E+00 0.22573981E+04</pdfrwt>
<totfact> 0.27650977E+00</totfact>
</mgrwt>
</event>
<event>
12    7  0.1909736E-007  0.1232855E+04  0.7818608E-02  0.9084575E-01
          2   -1    0    0  501    0  0.00000000000E+00  0.00000000000E+00  0.29350234422E+04  0.29350234422E+04  0.00000000000E+00 0. -1.
         -1   -1    0    0    0  501 -0.00000000000E+00 -0.00000000000E+00 -0.12946497921E+03  0.12946497921E+03  0.00000000000E+00 0.  1.
         24    2    1    2    0    0 -0.16478365571E+03  0.17406528632E+03  0.10046766941E+04  0.10358052119E+04  0.77876827992E+02 0.  0.
        254    2    1    2    0    0  0.16478365571E+03 -0.17406528632E+03  0.18008817689E+04  0.20286832094E+04  0.90273364940E+03 0.  0.
         23    2    4    4    0    0  0.35366118059E+03  0.16865699100E+03  0.14168725567E+04  0.14726310411E+04  0.87137421567E+02 0.  0.
         23    2    4    4    0    0 -0.18887752488E+03 -0.34272227732E+03  0.38400921221E+03  0.55605216831E+03  0.92723567898E+02 0.  0.
          2    1    3    3  502    0 -0.10481449413E+03  0.67015996829E+02  0.60746539035E+03  0.62007372342E+03  0.00000000000E+00 0. -1.
         -1    1    3    3    0  502 -0.59969161588E+02  0.10704928949E+03  0.39721130375E+03  0.41573148852E+03  0.00000000000E+00 0.  1.
         13    1    5    5    0    0  0.21987421342E+02  0.34213124528E+02  0.20604275248E+03  0.21001809550E+03  0.00000000000E+00 0. -1.
        -13    1    5    5    0    0  0.33167375925E+03  0.13444386648E+03  0.12108298042E+04  0.12626129456E+04  0.00000000000E+00 0.  1.
          4    1    6    6  503    0 -0.28712728505E+02 -0.13896801668E+03  0.11664102967E+03  0.18368903136E+03  0.00000000000E+00 0. -1.
         -4    1    6    6    0  503 -0.16016479637E+03 -0.20375426064E+03  0.26736818254E+03  0.37236313695E+03  0.00000000000E+00 0.  1.
<mgrwt>
<rscale>  0 0.12328548E+04</rscale>
<asrwt>0</asrwt>
<pdfrwt beam="1">  1        2 0.45154202E+00 0.12328548E+04</pdfrwt>
<pdfrwt beam="2">  1       -1 0.19917691E-01 0.12328548E+04</pdfrwt>
<totfact> 0.44693158E+01</totfact>
</mgrwt>
</event>
<event>
12    7  0.1909736E-007  0.1384389E+04  0.7818608E-02  0.8965197E-01
          2   -1    0    0  501    0  0.00000000000E+00  0.00000000000E+00  0.10065125387E+04  0.10065125387E+04  0.00000000000E+00 0. -1.
         -1   -1    0    0    0  501 -0.00000000000E+00 -0.00000000000E+00 -0.47603291120E+03  0.47603291120E+03  0.00000000000E+00 0.  1.
         24    2    1    2    0    0 -0.33103484943E+03 -0.89458338358E+02 -0.51639371755E+02  0.35664727774E+03  0.83329407583E+02 0.  0.
        254    2    1    2    0    0  0.33103484943E+03  0.89458338358E+02  0.58211899927E+03  0.11258981722E+04  0.90066492046E+03 0.  0.
         23    2    4    4    0    0  0.25165400214E+03 -0.38095712589E+03  0.19581317028E+03  0.50528055344E+03  0.92236497509E+02 0.  0.
         23    2    4    4    0    0  0.79380847290E+02  0.47041546425E+03  0.38630582899E+03  0.62061761873E+03  0.91334589498E+02 0.  0.
          4    1    3    3  502    0 -0.46579210475E+02  0.16057135271E+02 -0.11653748503E+02  0.50628690441E+02  0.00000000000E+00 0. -1.
         -1    1    3    3    0  502 -0.28445563895E+03 -0.10551547363E+03 -0.39985623252E+02  0.30601858730E+03  0.00000000000E+00 0.  1.
         13    1    5    5    0    0  0.24098687980E+03 -0.31542310559E+03  0.18526283799E+03  0.43805105971E+03  0.00000000000E+00 0.  1.
        -13    1    5    5    0    0  0.10667122341E+02 -0.65534020300E+02  0.10550332287E+02  0.67229493729E+02  0.00000000000E+00 0. -1.
          1    1    6    6  503    0  0.41472285688E+02  0.13020970735E+03  0.15926459361E+03  0.20985644890E+03  0.00000000000E+00 0. -1.
         -1    1    6    6    0  503  0.37908561602E+02  0.34020575690E+03  0.22704123538E+03  0.41076116982E+03  0.00000000000E+00 0.  1.
<mgrwt>
<rscale>  0 0.13843888E+04</rscale>
<asrwt>0</asrwt>
<pdfrwt beam="1">  1        2 0.15484808E+00 0.13843888E+04</pdfrwt>
<pdfrwt beam="2">  1       -1 0.73235833E-01 0.13843888E+04</pdfrwt>
<totfact> 0.52119849E+01</totfact>
</mgrwt>
</event>
<event>
12    7  0.1909736E-007  0.1517407E+04  0.7818608E-02  0.8872960E-01
         -1   -1    0    0    0  501 -0.00000000000E+00  0.00000000000E+00  0.28684358020E+03  0.28684358020E+03  0.00000000000E+00 0.  1.
          2   -1    0    0  501    0  0.00000000000E+00 -0.00000000000E+00 -0.20067757440E+04  0.20067757440E+04  0.00000000000E+00 0. -1.
         24    2    1    2    0    0 -0.46319415812E+03 -0.12785660542E+03 -0.42519269877E+03  0.64655240844E+03  0.79655797724E+02 0.  0.
        254    2    1    2    0    0  0.46319415812E+03  0.12785660542E+03 -0.12947394650E+04  0.16470669158E+04  0.89754275832E+03 0.  0.
         23    2    4    4    0    0  0.15040336927E+02  0.29684798170E+02 -0.11554628553E+04  0.11586596214E+04  0.79311470202E+02 0.  0.
         23    2    4    4    0    0  0.44815382119E+03  0.98171807255E+02 -0.13927660973E+03  0.48840729435E+03  0.93081469537E+02 0.  0.
          4    1    3    3  502    0 -0.21325462394E+03 -0.56504247979E+02 -0.24827729907E+03  0.33213232590E+03  0.00000000000E+00 0. -1.
         -3    1    3    3    0  502 -0.24993953417E+03 -0.71352357446E+02 -0.17691539970E+03  0.31442008254E+03  0.00000000000E+00 0.  1.
         13    1    5    5    0    0  0.23101018299E+01 -0.15982280677E+02 -0.58932575161E+02  0.61104977548E+02  0.00000000000E+00 0. -1.
        -13    1    5    5    0    0  0.12730235098E+02  0.45667078848E+02 -0.10965302802E+04  0.10975546439E+04  0.00000000000E+00 0.  1.
          1    1    6    6  503    0  0.30541102239E+02 -0.15467928749E+02 -0.19242287294E+02  0.39271890279E+02  0.00000000000E+00 0. -1.
         -1    1    6    6    0  503  0.41761271895E+03  0.11363973600E+03 -0.12003432243E+03  0.44913540407E+03  0.00000000000E+00 0.  1.
<mgrwt>
<rscale>  0 0.15174067E+04</rscale>
<asrwt>0</asrwt>
<pdfrwt beam="1">  1        2 0.30873473E+00 0.15174067E+04</pdfrwt>
<pdfrwt beam="2">  1       -1 0.44129782E-01 0.15174067E+04</pdfrwt>
<totfact> 0.36990640E+01</totfact>
</mgrwt>
</event>
<event>
12    7  0.1909736E-007  0.1839653E+04  0.7818608E-02  0.8685492E-01
         -1   -1    0    0    0  501 -0.00000000000E+00  0.00000000000E+00  0.40024009573E+03  0.40024009573E+03  0.00000000000E+00 0.  1.
          2   -1    0    0  501    0  0.00000000000E+00 -0.00000000000E+00 -0.21139331698E+04  0.21139331698E+04  0.00000000000E+00 0. -1.
         24    2    1    2    0    0 -0.23951859457E+03  0.85265594089E+02 -0.15453446079E+04  0.15680759123E+04  0.78311754864E+02 0.  0.
        254    2    1    2    0    0  0.23951859457E+03 -0.85265594089E+02 -0.16834846612E+03  0.94609735316E+03  0.89561130907E+03 0.  0.
         23    2    4    4    0    0  0.51876508975E+03  0.15618670814E+03 -0.12191161167E+03  0.56250119500E+03  0.89630615127E+02 0.  0.
         23    2    4    4    0    0 -0.27924649518E+03 -0.24145230223E+03 -0.46436854449E+02  0.38359615816E+03  0.93337086860E+02 0.  0.
          2    1    3    3  502    0 -0.22889661586E+03  0.81506367708E+02 -0.13024423550E+04  0.13249124638E+04  0.00000000000E+00 0. -1.
         -1    1    3    3    0  502 -0.10621978714E+02  0.37592263808E+01 -0.24290225291E+03  0.24316344849E+03  0.00000000000E+00 0.  1.
         13    1    5    5    0    0  0.19354191313E+03  0.93359133201E+02 -0.76863892599E+02  0.22821581425E+03  0.00000000000E+00 0.  1.
        -13    1    5    5    0    0  0.32522317662E+03  0.62827574941E+02 -0.45047719067E+02  0.33428538075E+03  0.00000000000E+00 0. -1.
          1    1    6    6  503    0 -0.23694893429E+03 -0.15919832680E+03 -0.54984677631E+02  0.29070985448E+03  0.00000000000E+00 0. -1.
         -1    1    6    6    0  503 -0.42297560895E+02 -0.82253975427E+02  0.85478231824E+01  0.92886303686E+02  0.00000000000E+00 0.  1.
<mgrwt>
<rscale>  0 0.18396530E+04</rscale>
<asrwt>0</asrwt>
<pdfrwt beam="1">  1        2 0.32522049E+00 0.18396530E+04</pdfrwt>
<pdfrwt beam="2">  1       -1 0.61575398E-01 0.18396530E+04</pdfrwt>
<totfact> 0.16545959E+01</totfact>
</mgrwt>
</event>
<event>
12    7  0.1909736E-007  0.2498866E+04  0.7818608E-02  0.8403390E-01
         -1   -1    0    0    0  501 -0.00000000000E+00  0.00000000000E+00  0.15861605537E+04  0.15861605537E+04  0.00000000000E+00 0.  1.
          2   -1    0    0  501    0  0.00000000000E+00 -0.00000000000E+00 -0.98418941949E+03  0.98418941949E+03  0.00000000000E+00 0. -1.
         24    2    1    2    0    0  0.44079068117E+03 -0.63337365698E+03  0.10522581688E+04  0.13078536279E+04  0.88177345511E+02 0.  0.
        254    2    1    2    0    0 -0.44079068117E+03  0.63337365698E+03 -0.45028703465E+03  0.12624963452E+04  0.89200896532E+03 0.  0.
         23    2    4    4    0    0 -0.17888721879E+03  0.23599396218E+03  0.25767541038E+03  0.40359416912E+03  0.93796849625E+02 0.  0.
         23    2    4    4    0    0 -0.26190346238E+03  0.39737969479E+03 -0.70796244502E+03  0.85890217612E+03  0.99990395245E+02 0.  0.
          2    1    3    3  502    0  0.52169997763E+02 -0.13328577274E+03  0.20604909976E+03  0.25088451007E+03  0.00000000000E+00 0. -1.
         -1    1    3    3    0  502  0.38862068341E+03 -0.50008788424E+03  0.84620906906E+03  0.10569691179E+04  0.00000000000E+00 0.  1.
         13    1    5    5    0    0 -0.13423338653E+03  0.22852790729E+03  0.22638617558E+03  0.34856033475E+03  0.00000000000E+00 0. -1.
        -13    1    5    5    0    0 -0.44653832254E+02  0.74660548981E+01  0.31289234795E+02  0.55033834364E+02  0.00000000000E+00 0.  1.
          3    1    6    6  503    0 -0.22975159085E+03  0.38755648616E+03 -0.63530913759E+03  0.77884756132E+03  0.00000000000E+00 0. -1.
         -3    1    6    6    0  503 -0.32151871529E+02  0.98232086351E+01 -0.72653307428E+02  0.80054614801E+02  0.00000000000E+00 0.  1.
<mgrwt>
<rscale>  0 0.24988657E+04</rscale>
<asrwt>0</asrwt>
<pdfrwt beam="1">  1        2 0.15141376E+00 0.24988657E+04</pdfrwt>
<pdfrwt beam="2">  1       -1 0.24402470E+00 0.24988657E+04</pdfrwt>
<totfact> 0.20006048E+00</totfact>
</mgrwt>
</event>
<event>
12    7  0.1909736E-007  0.3153456E+04  0.7818608E-02  0.8201219E-01
         -1   -1    0    0    0  501 -0.00000000000E+00  0.00000000000E+00  0.19903630051E+04  0.19903630051E+04  0.00000000000E+00 0.  1.
          2   -1    0    0  501    0  0.00000000000E+00 -0.00000000000E+00 -0.12490537689E+04  0.12490537689E+04  0.00000000000E+00 0. -1.
         24    2    1    2    0    0 -0.91942466671E+03 -0.16153694855E+03 -0.79572822006E+03  0.12295494421E+04  0.84690772764E+02 0.  0.
        254    2    1    2    0    0  0.91942466671E+03  0.16153694855E+03  0.15370374563E+04  0.20098673319E+04  0.89757821171E+03 0.  0.
         23    2    4    4    0    0  0.53920806598E+03 -0.30236993266E+03  0.10914507195E+04  0.12574704290E+04  0.88285288061E+02 0.  0.
         23    2    4    4    0    0  0.38021660073E+03  0.46390688121E+03  0.44558673681E+03  0.75239690289E+03  0.88200348940E+02 0.  0.
          2    1    3    3  502    0 -0.74499610650E+03 -0.16074656351E+03 -0.66652678332E+03  0.10124804241E+04  0.00000000000E+00 0. -1.
         -1    1    3    3    0  502 -0.17442856021E+03 -0.79038504464E+00 -0.12920143674E+03  0.21706901802E+03  0.00000000000E+00 0.  1.
         13    1    5    5    0    0  0.38008546528E+03 -0.18130795976E+03  0.67650848717E+03  0.79686966965E+03  0.00000000000E+00 0.  1.
        -13    1    5    5    0    0  0.15912260070E+03 -0.12106197289E+03  0.41494223231E+03  0.46060075932E+03  0.00000000000E+00 0. -1.
          2    1    6    6  503    0  0.21567726562E+03  0.19985179922E+03  0.19386911726E+03  0.35219690400E+03  0.00000000000E+00 0. -1.
         -2    1    6    6    0  503  0.16453933511E+03  0.26405508199E+03  0.25171761954E+03  0.40019999889E+03  0.00000000000E+00 0.  1.
<mgrwt>
<rscale>  0 0.31534555E+04</rscale>
<asrwt>0</asrwt>
<pdfrwt beam="1">  1        2 0.19216212E+00 0.31534555E+04</pdfrwt>
<pdfrwt beam="2">  1       -1 0.30620969E+00 0.31534555E+04</pdfrwt>
<totfact> 0.51315882E-01</totfact>
</mgrwt>
</event>
<event>
12    7  0.1909736E-007  0.2083777E+04  0.7818608E-02  0.8568424E-01
         -1   -1    0    0    0  501 -0.00000000000E+00  0.00000000000E+00  0.11196659452E+04  0.11196659452E+04  0.00000000000E+00 0.  1.
          2   -1    0    0  501    0  0.00000000000E+00 -0.00000000000E+00 -0.96951347263E+03  0.96951347263E+03  0.00000000000E+00 0. -1.
         24    2    1    2    0    0  0.35136085609E+03  0.91383651869E+02 -0.70428204732E+03  0.79629779859E+03  0.79193174154E+02 0.  0.
        254    2    1    2    0    0 -0.35136085609E+03 -0.91383651869E+02  0.85443451988E+03  0.12928816192E+04  0.89982170987E+03 0.  0.
         23    2    4    4    0    0 -0.43763501148E+03 -0.35685406150E+03  0.25635817787E+03  0.62665767988E+03  0.90061689485E+02 0.  0.
         23    2    4    4    0    0  0.86274155399E+02  0.26547040963E+03  0.59807634202E+03  0.66622393934E+03  0.90781375809E+02 0.  0.
          2    1    3    3  502    0  0.27651718743E+03  0.54176835957E+02 -0.59822861019E+03  0.66126723384E+03  0.00000000000E+00 0. -1.
         -1    1    3    3    0  502  0.74843668654E+02  0.37206815913E+02 -0.10605343713E+03  0.13503056474E+03  0.00000000000E+00 0.  1.
         13    1    5    5    0    0 -0.28436467878E+03 -0.18949412557E+03  0.12151399146E+03  0.36268022318E+03  0.00000000000E+00 0. -1.
        -13    1    5    5    0    0 -0.15327033270E+03 -0.16735993593E+03  0.13484418640E+03  0.26397745671E+03  0.00000000000E+00 0.  1.
          2    1    6    6  503    0  0.73739406973E+02  0.26554847244E+03  0.53390131324E+03  0.60083617038E+03  0.00000000000E+00 0. -1.
         -2    1    6    6    0  503  0.12534748426E+02 -0.78062804695E-01  0.64175028772E+02  0.65387768962E+02  0.00000000000E+00 0.  1.
<mgrwt>
<rscale>  0 0.20837766E+04</rscale>
<asrwt>0</asrwt>
<pdfrwt beam="1">  1        2 0.14915592E+00 0.20837766E+04</pdfrwt>
<pdfrwt beam="2">  1       -1 0.17225630E+00 0.20837766E+04</pdfrwt>
<totfact> 0.65723019E+00</totfact>
</mgrwt>
</event>
<event>
12    7  0.1909736E-007  0.1911705E+04  0.7818608E-02  0.8649052E-01
         -1   -1    0    0    0  501 -0.00000000000E+00  0.00000000000E+00  0.12169973460E+04  0.12169973460E+04  0.00000000000E+00 0.  1.
          2   -1    0    0  501    0  0.00000000000E+00 -0.00000000000E+00 -0.75074418804E+03  0.75074418804E+03  0.00000000000E+00 0. -1.
         24    2    1    2    0    0 -0.31043757057E+03 -0.49306814416E+01 -0.50714229071E+03  0.59991662722E+03  0.79440919840E+02 0.  0.
        254    2    1    2    0    0  0.31043757057E+03  0.49306814416E+01  0.97339544871E+03  0.13678249069E+04  0.90942315751E+03 0.  0.
         23    2    4    4    0    0  0.37140782850E+03  0.39639342275E+03  0.61881956796E+03  0.82835154803E+03  0.90316713607E+02 0.  0.
         23    2    4    4    0    0 -0.60970257938E+02 -0.39146274131E+03  0.35457588075E+03  0.53947335883E+03  0.91361914904E+02 0.  0.
          2    1    3    3  502    0 -0.25283759473E+03 -0.18818025088E+02 -0.35165694078E+03  0.43352459143E+03  0.00000000000E+00 0. -1.
         -1    1    3    3    0  502 -0.57599975840E+02  0.13887343647E+02 -0.15548534993E+03  0.16639203579E+03  0.00000000000E+00 0.  1.
         13    1    5    5    0    0  0.27318277886E+03  0.29318241421E+03  0.51252729895E+03  0.65059126250E+03  0.00000000000E+00 0.  1.
        -13    1    5    5    0    0  0.98225049639E+02  0.10321100854E+03  0.10629226901E+03  0.17776028553E+03  0.00000000000E+00 0. -1.
          3    1    6    6  503    0  0.60823505344E+01 -0.82253210464E+02  0.11997259452E+03  0.14558849218E+03  0.00000000000E+00 0. -1.
         -3    1    6    6    0  503 -0.67052608472E+02 -0.30920953084E+03  0.23460328623E+03  0.39388486665E+03  0.00000000000E+00 0.  1.
<mgrwt>
<rscale>  0 0.19117047E+04</rscale>
<asrwt>0</asrwt>
<pdfrwt beam="1">  1        2 0.11549911E+00 0.19117047E+04</pdfrwt>
<pdfrwt beam="2">  1       -1 0.18723036E+00 0.19117047E+04</pdfrwt>
<totfact> 0.73926072E+00</totfact>
</mgrwt>
</event>
<event>
12    7  0.1909736E-007  0.1853585E+04  0.7818608E-02  0.8678312E-01
         -1   -1    0    0    0  501 -0.00000000000E+00  0.00000000000E+00  0.57618260451E+03  0.57618260451E+03  0.00000000000E+00 0.  1.
          2   -1    0    0  501    0  0.00000000000E+00 -0.00000000000E+00 -0.14907495796E+04  0.14907495796E+04  0.00000000000E+00 0. -1.
         24    2    1    2    0    0 -0.30134369054E+03  0.30547212167E+02 -0.10344660544E+04  0.10808529987E+04  0.79887640948E+02 0.  0.
        254    2    1    2    0    0  0.30134369054E+03 -0.30547212167E+02  0.11989907927E+03  0.98607918540E+03  0.93071758266E+03 0.  0.
         23    2    4    4    0    0  0.33033622385E+03  0.18135798771E+03  0.44252083038E+03  0.58821416542E+03  0.90324296832E+02 0.  0.
         23    2    4    4    0    0 -0.28992533311E+02 -0.21190519987E+03 -0.32262175110E+03  0.39786501998E+03  0.92018471606E+02 0.  0.
          2    1    3    3  502    0 -0.14765648857E+03 -0.24326098202E+02 -0.52250686612E+03  0.54351414224E+03  0.00000000000E+00 0. -1.
         -1    1    3    3    0  502 -0.15368720197E+03  0.54873310369E+02 -0.51195918825E+03  0.53733885647E+03  0.00000000000E+00 0.  1.
         13    1    5    5    0    0  0.18278027963E+03  0.14309317986E+03  0.23095315127E+03  0.32745022038E+03  0.00000000000E+00 0.  1.
        -13    1    5    5    0    0  0.14755594422E+03  0.38264807845E+02  0.21156767911E+03  0.26076394504E+03  0.00000000000E+00 0. -1.
          4    1    6    6  503    0 -0.39198566635E+02 -0.20523430816E+03 -0.32406723642E+03  0.38558685479E+03  0.00000000000E+00 0. -1.
         -4    1    6    6    0  503  0.10206033324E+02 -0.66708917163E+01  0.14454853142E+01  0.12278165184E+02  0.00000000000E+00 0.  1.
<mgrwt>
<rscale>  0 0.18535846E+04</rscale>
<asrwt>0</asrwt>
<pdfrwt beam="1">  1        2 0.22934609E+00 0.18535846E+04</pdfrwt>
<pdfrwt beam="2">  1       -1 0.88643478E-01 0.18535846E+04</pdfrwt>
<totfact> 0.17189520E+01</totfact>
</mgrwt>
</event>
<event>
12    7  0.1909736E-007  0.1014400E+04  0.7818608E-02  0.9292891E-01
          2   -1    0    0  501    0  0.00000000000E+00  0.00000000000E+00  0.81301564717E+03  0.81301564717E+03  0.00000000000E+00 0. -1.
         -1   -1    0    0    0  501 -0.00000000000E+00 -0.00000000000E+00 -0.31641681724E+03  0.31641681724E+03  0.00000000000E+00 0.  1.
         24    2    1    2    0    0 -0.41653413545E+02  0.15919360562E+02 -0.10334590442E+02  0.95694098695E+02  0.84036443671E+02 0.  0.
        254    2    1    2    0    0  0.41653413545E+02 -0.15919360562E+02  0.50693342037E+03  0.10337383657E+04  0.89980280238E+03 0.  0.
         23    2    4    4    0    0 -0.24602890468E+03 -0.28823874208E+03  0.49363967885E+03  0.62896146714E+03  0.91107629901E+02 0.  0.
         23    2    4    4    0    0  0.28768231823E+03  0.27231938152E+03  0.13293741515E+02  0.40477689858E+03  0.82150181335E+02 0.  0.
          2    1    3    3  502    0 -0.35697075937E+02  0.49111301373E+02 -0.10742945796E+01  0.60723597241E+02  0.00000000000E+00 0. -1.
         -1    1    3    3    0  502 -0.59563376087E+01 -0.33191940811E+02 -0.92602958628E+01  0.34970501455E+02  0.00000000000E+00 0.  1.
         13    1    5    5    0    0 -0.31898361190E+01 -0.47922206009E+02  0.56631259346E+02  0.74255049783E+02  0.00000000000E+00 0.  1.
        -13    1    5    5    0    0 -0.24283906856E+03 -0.24031653607E+03  0.43700841951E+03  0.55470641735E+03  0.00000000000E+00 0. -1.
          3    1    6    6  503    0  0.16929074703E+03  0.11164459146E+03  0.27711512803E+02  0.20467486356E+03  0.00000000000E+00 0. -1.
         -3    1    6    6    0  503  0.11839157119E+03  0.16067479006E+03 -0.14417771288E+02  0.20010203502E+03  0.00000000000E+00 0.  1.
<mgrwt>
<rscale>  0 0.10144000E+04</rscale>
<asrwt>0</asrwt>
<pdfrwt beam="1">  1        2 0.12507933E+00 0.10144000E+04</pdfrwt>
<pdfrwt beam="2">  1       -1 0.48679511E-01 0.10144000E+04</pdfrwt>
<totfact> 0.16202664E+02</totfact>
</mgrwt>
</event>
<event>
12    7  0.1909736E-007  0.2061747E+04  0.7818608E-02  0.8578284E-01
         -1   -1    0    0    0  501 -0.00000000000E+00  0.00000000000E+00  0.87901434352E+03  0.87901434352E+03  0.00000000000E+00 0.  1.
          2   -1    0    0  501    0  0.00000000000E+00 -0.00000000000E+00 -0.12089682391E+04  0.12089682391E+04  0.00000000000E+00 0. -1.
         24    2    1    2    0    0 -0.55611323940E+03  0.22385300171E+03 -0.72427653884E+03  0.94358703203E+03  0.80049240310E+02 0.  0.
        254    2    1    2    0    0  0.55611323940E+03 -0.22385300171E+03  0.39432264329E+03  0.11443955506E+04  0.89150363305E+03 0.  0.
         23    2    4    4    0    0  0.15328538025E+03 -0.42811375038E+03 -0.93091889172E+02  0.47271482503E+03  0.89528849607E+02 0.  0.
         23    2    4    4    0    0  0.40282785915E+03  0.20426074867E+03  0.48741453247E+03  0.67168072554E+03  0.97925140036E+02 0.  0.
          2    1    3    3  502    0 -0.30568564910E+03  0.15825812690E+03 -0.37811444741E+03  0.51133148361E+03  0.00000000000E+00 0. -1.
         -1    1    3    3    0  502 -0.25042759030E+03  0.65594874811E+02 -0.34616209144E+03  0.43225554841E+03  0.00000000000E+00 0.  1.
         13    1    5    5    0    0  0.10547581793E+01 -0.30409719148E+02 -0.29076047836E+02  0.42086578517E+02  0.00000000000E+00 0. -1.
        -13    1    5    5    0    0  0.15223062207E+03 -0.39770403123E+03 -0.64015841336E+02  0.43062824651E+03  0.00000000000E+00 0.  1.
          4    1    6    6  503    0  0.63027990883E+01  0.83967031994E+00  0.38845370931E+02  0.39362331808E+02  0.00000000000E+00 0. -1.
         -4    1    6    6    0  503  0.39652506007E+03  0.20342107835E+03  0.44856916153E+03  0.63231839373E+03  0.00000000000E+00 0.  1.
<mgrwt>
<rscale>  0 0.20617472E+04</rscale>
<asrwt>0</asrwt>
<pdfrwt beam="1">  1        2 0.18599512E+00 0.20617472E+04</pdfrwt>
<pdfrwt beam="2">  1       -1 0.13523297E+00 0.20617472E+04</pdfrwt>
<totfact> 0.90431627E+00</totfact>
</mgrwt>
</event>
<event>
12    7  0.1909736E-007  0.1602425E+04  0.7818608E-02  0.8819060E-01
         -1   -1    0    0    0  501 -0.00000000000E+00  0.00000000000E+00  0.26939343596E+03  0.26939343596E+03  0.00000000000E+00 0.  1.
          2   -1    0    0  501    0  0.00000000000E+00 -0.00000000000E+00 -0.23829139616E+04  0.23829139616E+04  0.00000000000E+00 0. -1.
         24    2    1    2    0    0  0.15466997331E+03 -0.15478295992E+03 -0.15728611180E+04  0.15899948438E+04  0.79441434141E+02 0.  0.
        254    2    1    2    0    0 -0.15466997331E+03  0.15478295992E+03 -0.54065940765E+03  0.10623125538E+04  0.88787093740E+03 0.  0.
         23    2    4    4    0    0 -0.47720542481E+03  0.21655750248E+03 -0.17076727057E+03  0.55901290062E+03  0.93336986328E+02 0.  0.
         23    2    4    4    0    0  0.32253545151E+03 -0.61774542553E+02 -0.36989213708E+03  0.50329965314E+03  0.92979224514E+02 0.  0.
          4    1    3    3  502    0  0.13332667747E+03 -0.81086504228E+02 -0.10635995635E+04  0.10749860722E+04  0.00000000000E+00 0. -1.
         -3    1    3    3    0  502  0.21343295833E+02 -0.73696455695E+02 -0.50926155451E+03  0.51500877154E+03  0.00000000000E+00 0.  1.
         13    1    5    5    0    0 -0.11158090108E+03  0.23345464793E+02 -0.68588799487E+02  0.13304033835E+03  0.00000000000E+00 0.  1.
        -13    1    5    5    0    0 -0.36562452373E+03  0.19321203768E+03 -0.10217847108E+03  0.42597256228E+03  0.00000000000E+00 0. -1.
          2    1    6    6  503    0  0.20523981956E+03 -0.37904986600E+01 -0.18201078073E+03  0.27434590522E+03  0.00000000000E+00 0.  1.
         -2    1    6    6    0  503  0.11729563195E+03 -0.57984043893E+02 -0.18788135635E+03  0.22895374792E+03  0.00000000000E+00 0. -1.
<mgrwt>
<rscale>  0 0.16024249E+04</rscale>
<asrwt>0</asrwt>
<pdfrwt beam="1">  1        2 0.36660215E+00 0.16024249E+04</pdfrwt>
<pdfrwt beam="2">  1       -1 0.41445144E-01 0.16024249E+04</pdfrwt>
<totfact> 0.25371643E+01</totfact>
</mgrwt>
</event>
<event>
12    7  0.1909736E-007  0.1955918E+04  0.7818608E-02  0.8627512E-01
          2   -1    0    0  501    0  0.00000000000E+00  0.00000000000E+00  0.22146949885E+04  0.22146949885E+04  0.00000000000E+00 0. -1.
         -1   -1    0    0    0  501 -0.00000000000E+00 -0.00000000000E+00 -0.43184431479E+03  0.43184431479E+03  0.00000000000E+00 0.  1.
         24    2    1    2    0    0 -0.13042984529E+03 -0.38075791184E+03  0.14211920394E+04  0.14792196989E+04  0.79470577853E+02 0.  0.
        254    2    1    2    0    0  0.13042984529E+03  0.38075791184E+03  0.36165863423E+03  0.11673196043E+04  0.10343353223E+04 0.  0.
         23    2    4    4    0    0  0.33573090137E+03 -0.23717030845E+03  0.27241756669E+03  0.50376867676E+03  0.10298813379E+03 0.  0.
         23    2    4    4    0    0 -0.20530105607E+03  0.61792822030E+03  0.89241067536E+02  0.66355092756E+03  0.91389585102E+02 0.  0.
          2    1    3    3  502    0 -0.14043460184E+03 -0.33266797281E+03  0.12447577297E+04  0.12960754851E+04  0.00000000000E+00 0. -1.
         -1    1    3    3    0  502  0.10004756553E+02 -0.48089939036E+02  0.17643430973E+03  0.18314421378E+03  0.00000000000E+00 0.  1.
         13    1    5    5    0    0  0.18980522171E+03 -0.84697639058E+02  0.97140545639E+02  0.22942536446E+03  0.00000000000E+00 0. -1.
        -13    1    5    5    0    0  0.14592567965E+03 -0.15247266940E+03  0.17527702106E+03  0.27434331230E+03  0.00000000000E+00 0.  1.
          2    1    6    6  503    0 -0.17538601761E+03  0.59276207513E+03  0.79436241090E+02  0.62324734198E+03  0.00000000000E+00 0. -1.
         -2    1    6    6    0  503 -0.29915038467E+02  0.25166145167E+02  0.98048264457E+01  0.40303585581E+02  0.00000000000E+00 0.  1.
<mgrwt>
<rscale>  0 0.19559176E+04</rscale>
<asrwt>0</asrwt>
<pdfrwt beam="1">  1        2 0.34072230E+00 0.19559176E+04</pdfrwt>
<pdfrwt beam="2">  1       -1 0.66437588E-01 0.19559176E+04</pdfrwt>
<totfact> 0.12347375E+01</totfact>
</mgrwt>
</event>
<event>
12    7  0.1909736E-007  0.2481108E+04  0.7818608E-02  0.8409747E-01
         -1   -1    0    0    0  501 -0.00000000000E+00  0.00000000000E+00  0.85665618646E+03  0.85665618646E+03  0.00000000000E+00 0.  1.
          2   -1    0    0  501    0  0.00000000000E+00 -0.00000000000E+00 -0.17964901163E+04  0.17964901163E+04  0.00000000000E+00 0. -1.
         24    2    1    2    0    0 -0.21728663539E+03 -0.83426134012E+03  0.27903530946E+03  0.90965282625E+03  0.80013091711E+02 0.  0.
        254    2    1    2    0    0  0.21728663539E+03  0.83426134012E+03 -0.12188692393E+04  0.17434934765E+04  0.90051197359E+03 0.  0.
         23    2    4    4    0    0 -0.28059279604E+02 -0.15989064963E+03 -0.35502697801E+03  0.40069607733E+03  0.90337413417E+02 0.  0.
         23    2    4    4    0    0  0.24534591500E+03  0.99415198975E+03 -0.86384226131E+03  0.13427973992E+04  0.91370707131E+02 0.  0.
          2    1    3    3  502    0 -0.35888332938E+01 -0.65399763353E+02  0.39429844636E+02  0.76450777753E+02  0.00000000000E+00 0. -1.
         -1    1    3    3    0  502 -0.21369780210E+03 -0.76886157676E+03  0.23960546483E+03  0.83320204850E+03  0.00000000000E+00 0.  1.
         13    1    5    5    0    0  0.24021097878E+02 -0.95313896001E+02 -0.14802261613E+03  0.17768637202E+03  0.00000000000E+00 0. -1.
        -13    1    5    5    0    0 -0.52080377482E+02 -0.64576753631E+02 -0.20700436188E+03  0.22300970531E+03  0.00000000000E+00 0.  1.
          3    1    6    6  503    0  0.21417676440E+03  0.92004454878E+03 -0.76617246784E+03  0.12162951569E+04  0.00000000000E+00 0. -1.
         -3    1    6    6    0  503  0.31169150598E+02  0.74107440967E+02 -0.97669793465E+02  0.12650224232E+03  0.00000000000E+00 0.  1.
<mgrwt>
<rscale>  0 0.24811081E+04</rscale>
<asrwt>0</asrwt>
<pdfrwt beam="1">  1        2 0.27638309E+00 0.24811081E+04</pdfrwt>
<pdfrwt beam="2">  1       -1 0.13179326E+00 0.24811081E+04</pdfrwt>
<totfact> 0.43169749E+00</totfact>
</mgrwt>
</event>
<event>
12    7  0.1909736E-007  0.2703235E+04  0.7818608E-02  0.8333956E-01
          2   -1    0    0  501    0  0.00000000000E+00  0.00000000000E+00  0.10167268539E+04  0.10167268539E+04  0.00000000000E+00 0. -1.
         -1   -1    0    0    0  501 -0.00000000000E+00 -0.00000000000E+00 -0.17968142379E+04  0.17968142379E+04  0.00000000000E+00 0.  1.
         24    2    1    2    0    0 -0.91818474642E+03 -0.32086402172E+03  0.38310619497E+03  0.10482588183E+04  0.77841149522E+02 0.  0.
        254    2    1    2    0    0  0.91818474642E+03  0.32086402172E+03 -0.11631935789E+04  0.17652822735E+04  0.90398299436E+03 0.  0.
         23    2    4    4    0    0  0.25123045029E+03  0.51891401388E+03 -0.31359389982E+03  0.66273397456E+03  0.92123254769E+02 0.  0.
         23    2    4    4    0    0  0.66695429613E+03 -0.19804999216E+03 -0.84959967911E+03  0.11025482989E+04  0.98698045833E+02 0.  0.
          4    1    3    3  502    0 -0.53431086530E+03 -0.16573085630E+03  0.18458187227E+03  0.58908852058E+03  0.00000000000E+00 0. -1.
         -3    1    3    3    0  502 -0.38387388112E+03 -0.15513316542E+03  0.19852432270E+03  0.45917029774E+03  0.00000000000E+00 0.  1.
         13    1    5    5    0    0  0.10932955508E+03  0.17127664747E+03 -0.68912401430E+02  0.21456365175E+03  0.00000000000E+00 0. -1.
        -13    1    5    5    0    0  0.14190089522E+03  0.34763736642E+03 -0.24468149839E+03  0.44817032281E+03  0.00000000000E+00 0.  1.
          2    1    6    6  503    0  0.13811858201E+03 -0.46729497774E+02 -0.24554092534E+03  0.28557089255E+03  0.00000000000E+00 0. -1.
         -2    1    6    6    0  503  0.52883571412E+03 -0.15132049439E+03 -0.60405875377E+03  0.81697740640E+03  0.00000000000E+00 0.  1.
<mgrwt>
<rscale>  0 0.27032346E+04</rscale>
<asrwt>0</asrwt>
<pdfrwt beam="1">  1        2 0.15641952E+00 0.27032346E+04</pdfrwt>
<pdfrwt beam="2">  1       -1 0.27643296E+00 0.27032346E+04</pdfrwt>
<totfact> 0.11530949E+00</totfact>
</mgrwt>
</event>
<event>
12    7  0.1909736E-007  0.1747875E+04  0.7818608E-02  0.8734521E-01
         -1   -1    0    0    0  501 -0.00000000000E+00  0.00000000000E+00  0.91206995402E+03  0.91206995402E+03  0.00000000000E+00 0.  1.
          2   -1    0    0  501    0  0.00000000000E+00 -0.00000000000E+00 -0.83739928675E+03  0.83739928675E+03  0.00000000000E+00 0. -1.
         24    2    1    2    0    0 -0.56858329760E+03  0.28051222636E+03  0.94803642635E+02  0.64686884806E+03  0.86472541760E+02 0.  0.
        254    2    1    2    0    0  0.56858329760E+03 -0.28051222636E+03 -0.20132975363E+02  0.11026003927E+04  0.90185820053E+03 0.  0.
         23    2    4    4    0    0  0.27463209321E+03 -0.24927782332E+03 -0.43785657045E+03  0.58247269326E+03  0.99969206732E+02 0.  0.
         23    2    4    4    0    0  0.29395120440E+03 -0.31234403048E+02  0.41772359509E+03  0.52012769945E+03  0.93042588851E+02 0.  0.
          4    1    3    3  502    0 -0.20846869483E+02  0.15776842599E+01 -0.10252833153E+02  0.23285223695E+02  0.00000000000E+00 0. -1.
         -3    1    3    3    0  502 -0.54773642812E+03  0.27893454210E+03  0.10505647579E+03  0.62358362436E+03  0.00000000000E+00 0.  1.
         13    1    5    5    0    0  0.11715101076E+03 -0.17277780309E+03 -0.24959898294E+03  0.32538620261E+03  0.00000000000E+00 0.  1.
        -13    1    5    5    0    0  0.15748108244E+03 -0.76500020227E+02 -0.18825758752E+03  0.25708649066E+03  0.00000000000E+00 0. -1.
          2    1    6    6  503    0  0.18744255243E+03 -0.20230980356E+02  0.33655917490E+03  0.38576687421E+03  0.00000000000E+00 0. -1.
         -2    1    6    6    0  503  0.10650865196E+03 -0.11003422692E+02  0.81164420188E+02  0.13436082524E+03  0.00000000000E+00 0.  1.
<mgrwt>
<rscale>  0 0.17478750E+04</rscale>
<asrwt>0</asrwt>
<pdfrwt beam="1">  1        2 0.12883066E+00 0.17478750E+04</pdfrwt>
<pdfrwt beam="2">  1       -1 0.14031845E+00 0.17478750E+04</pdfrwt>
<totfact> 0.14605634E+01</totfact>
</mgrwt>
</event>
<event>
12    7  0.1909736E-007  0.1264279E+04  0.7818608E-02  0.9058382E-01
         -1   -1    0    0    0  501 -0.00000000000E+00  0.00000000000E+00  0.38555084360E+03  0.38555084360E+03  0.00000000000E+00 0.  1.
          2   -1    0    0  501    0  0.00000000000E+00 -0.00000000000E+00 -0.10364394418E+04  0.10364394418E+04  0.00000000000E+00 0. -1.
         24    2    1    2    0    0 -0.11175666377E+03  0.98557605394E+02 -0.45389159761E+03  0.48432567935E+03  0.79690826476E+02 0.  0.
        254    2    1    2    0    0  0.11175666377E+03 -0.98557605394E+02 -0.19699700061E+03  0.93766460606E+03  0.90454626290E+03 0.  0.
         23    2    4    4    0    0 -0.10593433502E+03  0.36618339285E+03 -0.12052111780E+03  0.41083708622E+03  0.94601326859E+02 0.  0.
         23    2    4    4    0    0  0.21769099879E+03 -0.46474099824E+03 -0.76475882810E+02  0.52682751984E+03  0.91242033122E+02 0.  0.
          2    1    3    3  502    0 -0.10963160624E+03  0.98874399550E+02 -0.34311149313E+03  0.37352474174E+03  0.00000000000E+00 0. -1.
         -1    1    3    3    0  502 -0.21250575275E+01 -0.31679415583E+00 -0.11078010448E+03  0.11080093762E+03  0.00000000000E+00 0.  1.
         13    1    5    5    0    0 -0.88067673924E+02  0.23557959003E+03 -0.12081625635E+03  0.27901653397E+03  0.00000000000E+00 0. -1.
        -13    1    5    5    0    0 -0.17866661095E+02  0.13060380281E+03  0.29513854816E+00  0.13182055225E+03  0.00000000000E+00 0.  1.
          3    1    6    6  503    0  0.18304929953E+03 -0.34847810939E+03 -0.92799029863E+02  0.40442020069E+03  0.00000000000E+00 0. -1.
         -3    1    6    6    0  503  0.34641699257E+02 -0.11626288885E+03  0.16323147053E+02  0.12240731915E+03  0.00000000000E+00 0.  1.
<mgrwt>
<rscale>  0 0.12642786E+04</rscale>
<asrwt>0</asrwt>
<pdfrwt beam="1">  1        2 0.15945222E+00 0.12642786E+04</pdfrwt>
<pdfrwt beam="2">  1       -1 0.59315514E-01 0.12642786E+04</pdfrwt>
<totfact> 0.77092679E+01</totfact>
</mgrwt>
</event>
<event>
12    7  0.1909736E-007  0.5088423E+04  0.7818608E-02  0.7815010E-01
          2   -1    0    0  501    0  0.00000000000E+00  0.00000000000E+00  0.21959551142E+04  0.21959551142E+04  0.00000000000E+00 0. -1.
         -1   -1    0    0    0  501 -0.00000000000E+00 -0.00000000000E+00 -0.29476975552E+04  0.29476975552E+04  0.00000000000E+00 0.  1.
         24    2    1    2    0    0 -0.99818467063E+02  0.22182672392E+04  0.72051172213E+03  0.23358504612E+04  0.79918486865E+02 0.  0.
        254    2    1    2    0    0  0.99818467063E+02 -0.22182672392E+04 -0.14722541631E+04  0.28078022082E+04  0.88631125949E+03 0.  0.
         23    2    4    4    0    0 -0.32825929121E+03 -0.41471269366E+03 -0.33035232874E+03  0.62882871264E+03  0.80945093648E+02 0.  0.
         23    2    4    4    0    0  0.42807775827E+03 -0.18035545455E+04 -0.11419018343E+04  0.21789734955E+04  0.89028810832E+02 0.  0.
          4    1    3    3  502    0 -0.85720478228E+02  0.20784598899E+04  0.69335050107E+03  0.21927330963E+04  0.00000000000E+00 0. -1.
         -3    1    3    3    0  502 -0.14097988835E+02  0.13980734930E+03  0.27161221058E+02  0.14311736491E+03  0.00000000000E+00 0.  1.
         13    1    5    5    0    0 -0.18606066351E+02 -0.43999780977E+02 -0.54930356165E+02  0.72797736638E+02  0.00000000000E+00 0.  1.
        -13    1    5    5    0    0 -0.30965322486E+03 -0.37071291268E+03 -0.27542197258E+03  0.55603097600E+03  0.00000000000E+00 0. -1.
          1    1    6    6  503    0  0.21987162049E+03 -0.10004641177E+04 -0.67872877037E+03  0.12287980811E+04  0.00000000000E+00 0. -1.
         -1    1    6    6    0  503  0.20820613778E+03 -0.80309042778E+03 -0.46317306396E+03  0.95017541443E+03  0.00000000000E+00 0.  1.
<mgrwt>
<rscale>  0 0.50884228E+04</rscale>
<asrwt>0</asrwt>
<pdfrwt beam="1">  1        2 0.33783925E+00 0.50884228E+04</pdfrwt>
<pdfrwt beam="2">  1       -1 0.45349193E+00 0.50884228E+04</pdfrwt>
<totfact> 0.13118212E-02</totfact>
</mgrwt>
</event>
<event>
12    7  0.1909736E-007  0.1687837E+04  0.7818608E-02  0.8768332E-01
          2   -1    0    0  501    0  0.00000000000E+00  0.00000000000E+00  0.40981457736E+03  0.40981457736E+03  0.00000000000E+00 0. -1.
         -1   -1    0    0    0  501 -0.00000000000E+00 -0.00000000000E+00 -0.17378549845E+04  0.17378549845E+04  0.00000000000E+00 0.  1.
         24    2    1    2    0    0  0.23628600228E+03 -0.26440789899E+03  0.13940147226E+03  0.38946428289E+03  0.80666258464E+02 0.  0.
        254    2    1    2    0    0 -0.23628600228E+03  0.26440789899E+03 -0.14674418794E+04  0.17582052790E+04  0.90119782604E+03 0.  0.
         23    2    4    4    0    0 -0.37756614372E+03 -0.12883135442E+03 -0.11638297202E+04  0.12336858116E+04  0.91254333301E+02 0.  0.
         23    2    4    4    0    0  0.14128014144E+03  0.39323925341E+03 -0.30361215925E+03  0.52451946742E+03  0.91340788631E+02 0.  0.
          4    1    3    3  502    0  0.18457783150E+03 -0.17064435538E+03  0.66806952803E+02  0.26009929037E+03  0.00000000000E+00 0. -1.
         -3    1    3    3    0  502  0.51708170780E+02 -0.93763543611E+02  0.72594519453E+02  0.12936499252E+03  0.00000000000E+00 0.  1.
         13    1    5    5    0    0 -0.32328144477E+03 -0.11972626592E+03 -0.10774656487E+04  0.11312725116E+04  0.00000000000E+00 0. -1.
        -13    1    5    5    0    0 -0.54284698952E+02 -0.91050884958E+01 -0.86364071440E+02  0.10241329998E+03  0.00000000000E+00 0.  1.
          1    1    6    6  503    0  0.27197669540E+02  0.10755102602E+03 -0.35566432895E+02  0.11649853035E+03  0.00000000000E+00 0. -1.
         -1    1    6    6    0  503  0.11408247190E+03  0.28568822740E+03 -0.26804572635E+03  0.40802093707E+03  0.00000000000E+00 0.  1.
<mgrwt>
<rscale>  0 0.16878368E+04</rscale>
<asrwt>0</asrwt>
<pdfrwt beam="1">  1        2 0.63048396E-01 0.16878368E+04</pdfrwt>
<pdfrwt beam="2">  1       -1 0.26736231E+00 0.16878368E+04</pdfrwt>
<totfact> 0.45319431E+00</totfact>
</mgrwt>
</event>
<event>
12    7  0.1909736E-007  0.2475936E+04  0.7818608E-02  0.8411609E-01
          2   -1    0    0  501    0  0.00000000000E+00  0.00000000000E+00  0.16241259542E+04  0.16241259542E+04  0.00000000000E+00 0. -1.
         -1   -1    0    0    0  501 -0.00000000000E+00 -0.00000000000E+00 -0.94362466971E+03  0.94362466971E+03  0.00000000000E+00 0.  1.
         24    2    1    2    0    0  0.47499285024E+03  0.48844630413E+03  0.11588560851E+04  0.13467163206E+04  0.80618994607E+02 0.  0.
        254    2    1    2    0    0 -0.47499285024E+03 -0.48844630413E+03 -0.47835480067E+03  0.12210343033E+04  0.89325441769E+03 0.  0.
         23    2    4    4    0    0  0.13255848180E+02 -0.62551135631E+02 -0.55131872778E+03  0.56265267688E+03  0.92397689995E+02 0.  0.
         23    2    4    4    0    0 -0.48824869842E+03 -0.42589516850E+03  0.72963927118E+02  0.65838162642E+03  0.91483032774E+02 0.  0.
          4    1    3    3  502    0  0.36606038601E+03  0.41912444438E+03  0.95977581558E+03  0.11094300889E+04  0.00000000000E+00 0. -1.
         -3    1    3    3    0  502  0.10893246423E+03  0.69321859754E+02  0.19908026954E+03  0.23728623164E+03  0.00000000000E+00 0.  1.
         13    1    5    5    0    0  0.48748191216E+02 -0.41918655317E+02 -0.23336325927E+03  0.24205778357E+03  0.00000000000E+00 0. -1.
        -13    1    5    5    0    0 -0.35492343036E+02 -0.20632480313E+02 -0.31795546852E+03  0.32059489331E+03  0.00000000000E+00 0.  1.
          1    1    6    6  503    0 -0.36300603626E+03 -0.26023589727E+03  0.50498744254E+02  0.44949552585E+03  0.00000000000E+00 0. -1.
         -1    1    6    6    0  503 -0.12524266216E+03 -0.16565927123E+03  0.22465182864E+02  0.20888610057E+03  0.00000000000E+00 0.  1.
<mgrwt>
<rscale>  0 0.24759364E+04</rscale>
<asrwt>0</asrwt>
<pdfrwt beam="1">  1        2 0.24986553E+00 0.24759364E+04</pdfrwt>
<pdfrwt beam="2">  1       -1 0.14517303E+00 0.24759364E+04</pdfrwt>
<totfact> 0.41900681E+00</totfact>
</mgrwt>
</event>
<event>
12    7  0.1909736E-007  0.1588791E+04  0.7818608E-02  0.8827464E-01
         -1   -1    0    0    0  501 -0.00000000000E+00  0.00000000000E+00  0.87039842009E+03  0.87039842009E+03  0.00000000000E+00 0.  1.
          2   -1    0    0  501    0  0.00000000000E+00 -0.00000000000E+00 -0.72502895437E+03  0.72502895437E+03  0.00000000000E+00 0. -1.
         24    2    1    2    0    0 -0.27933597613E+03 -0.27362400949E+03  0.41781301685E+03  0.57829912175E+03  0.83447414814E+02 0.  0.
        254    2    1    2    0    0  0.27933597613E+03  0.27362400949E+03 -0.27244355112E+03  0.10171282527E+04  0.89856869953E+03 0.  0.
         23    2    4    4    0    0  0.83180628874E+02 -0.61984564357E+02  0.29319783992E+03  0.32470824110E+03  0.93323980119E+02 0.  0.
         23    2    4    4    0    0  0.19615534726E+03  0.33560857385E+03 -0.56564139105E+03  0.69242001161E+03  0.91571033150E+02 0.  0.
          4    1    3    3  502    0 -0.46236846210E+02 -0.37885971299E+02  0.11352278608E+03  0.12829893113E+03  0.00000000000E+00 0. -1.
         -3    1    3    3    0  502 -0.23309912992E+03 -0.23573803820E+03  0.30429023076E+03  0.45000019062E+03  0.00000000000E+00 0.  1.
         13    1    5    5    0    0 -0.14925159797E+01  0.18259989171E+02  0.17457965016E+02  0.25306824198E+02  0.00000000000E+00 0.  1.
        -13    1    5    5    0    0  0.84673144854E+02 -0.80244553528E+02  0.27573987491E+03  0.29940141690E+03  0.00000000000E+00 0. -1.
          4    1    6    6  503    0  0.96146045243E+02  0.23757425282E+03 -0.32378429949E+03  0.41294292610E+03  0.00000000000E+00 0.  1.
         -4    1    6    6    0  503  0.10000930202E+03  0.98034321033E+02 -0.24185709156E+03  0.27947708551E+03  0.00000000000E+00 0. -1.
<mgrwt>
<rscale>  0 0.15887908E+04</rscale>
<asrwt>0</asrwt>
<pdfrwt beam="1">  1        2 0.11154292E+00 0.15887908E+04</pdfrwt>
<pdfrwt beam="2">  1       -1 0.13390745E+00 0.15887908E+04</pdfrwt>
<totfact> 0.20199225E+01</totfact>
</mgrwt>
</event>
<event>
12    7  0.1909736E-007  0.1146822E+04  0.7818608E-02  0.9160721E-01
         -1   -1    0    0    0  501 -0.00000000000E+00  0.00000000000E+00  0.11006130959E+04  0.11006130959E+04  0.00000000000E+00 0.  1.
          2   -1    0    0  501    0  0.00000000000E+00 -0.00000000000E+00 -0.29874266818E+03  0.29874266818E+03  0.00000000000E+00 0. -1.
         24    2    1    2    0    0 -0.12798246126E+03 -0.15859246195E+03  0.11274429842E+03  0.24178117847E+03  0.64929054036E+02 0.  0.
        254    2    1    2    0    0  0.12798246126E+03  0.15859246195E+03  0.68912612930E+03  0.11575745856E+04  0.90749822028E+03 0.  0.
         23    2    4    4    0    0 -0.19569841206E+03 -0.20320341096E+03  0.58085904490E+03  0.65224527715E+03  0.91854106113E+02 0.  0.
         23    2    4    4    0    0  0.32368087331E+03  0.36179587291E+03  0.10826708440E+03  0.50532930847E+03  0.89277024096E+02 0.  0.
          2    1    3    3  502    0 -0.12132204289E+03 -0.11339973627E+03  0.73696972902E+02  0.18168594357E+03  0.00000000000E+00 0. -1.
         -1    1    3    3    0  502 -0.66604183722E+01 -0.45192725677E+02  0.39047325520E+02  0.60095234896E+02  0.00000000000E+00 0.  1.
         13    1    5    5    0    0 -0.11022417877E+02 -0.33855296408E+02  0.28138371575E+02  0.45381083566E+02  0.00000000000E+00 0.  1.
        -13    1    5    5    0    0 -0.18467599418E+03 -0.16934811456E+03  0.55272067332E+03  0.60686419358E+03  0.00000000000E+00 0. -1.
          3    1    6    6  503    0  0.13331068003E+03  0.19589389596E+03  0.19851370974E+02  0.23778190178E+03  0.00000000000E+00 0. -1.
         -3    1    6    6    0  503  0.19037019329E+03  0.16590197695E+03  0.88415713424E+02  0.26754740670E+03  0.00000000000E+00 0.  1.
<mgrwt>
<rscale>  0 0.11468219E+04</rscale>
<asrwt>0</asrwt>
<pdfrwt beam="1">  1        2 0.45960411E-01 0.11468219E+04</pdfrwt>
<pdfrwt beam="2">  1       -1 0.16932509E+00 0.11468219E+04</pdfrwt>
<totfact> 0.31150858E+01</totfact>
</mgrwt>
</event>
<event>
12    7  0.1909736E-007  0.1780195E+04  0.7818608E-02  0.8716903E-01
         -1   -1    0    0    0  501 -0.00000000000E+00  0.00000000000E+00  0.66209059483E+03  0.66209059483E+03  0.00000000000E+00 0.  1.
          2   -1    0    0  501    0  0.00000000000E+00 -0.00000000000E+00 -0.11966246547E+04  0.11966246547E+04  0.00000000000E+00 0. -1.
         24    2    1    2    0    0  0.12449051275E+03  0.57923215022E+03  0.96800925322E+02  0.60572533045E+03  0.80777380487E+02 0.  0.
        254    2    1    2    0    0 -0.12449051275E+03 -0.57923215022E+03 -0.63133498525E+03  0.12529899191E+04  0.90575499017E+03 0.  0.
         23    2    4    4    0    0 -0.81168804222E+02 -0.98329135444E+02  0.22002165447E+03  0.27025789223E+03  0.91503039418E+02 0.  0.
         23    2    4    4    0    0 -0.43321708525E+02 -0.48090301478E+03 -0.85135663971E+03  0.98273202689E+03  0.88372103268E+02 0.  0.
          4    1    3    3  502    0 -0.56215125436E+01  0.26036147713E+02  0.17638789056E+02  0.31946975919E+02  0.00000000000E+00 0. -1.
         -3    1    3    3    0  502  0.13011202529E+03  0.55319600251E+03  0.79162136266E+02  0.57377835453E+03  0.00000000000E+00 0.  1.
         13    1    5    5    0    0 -0.58363175558E+02 -0.82676273394E+02  0.22047676371E+03  0.24259354851E+03  0.00000000000E+00 0.  1.
        -13    1    5    5    0    0 -0.22805628664E+02 -0.15652862050E+02 -0.45510924007E+00  0.27664343722E+02  0.00000000000E+00 0. -1.
          2    1    6    6  503    0 -0.23484739099E+02 -0.28612586501E+03 -0.41676830267E+03  0.50607841458E+03  0.00000000000E+00 0. -1.
         -2    1    6    6    0  503 -0.19836969426E+02 -0.19477714977E+03 -0.43458833705E+03  0.47665361231E+03  0.00000000000E+00 0.  1.
<mgrwt>
<rscale>  0 0.17801954E+04</rscale>
<asrwt>0</asrwt>
<pdfrwt beam="1">  1        2 0.18409610E+00 0.17801954E+04</pdfrwt>
<pdfrwt beam="2">  1       -1 0.10186009E+00 0.17801954E+04</pdfrwt>
<totfact> 0.18745021E+01</totfact>
</mgrwt>
</event>
<event>
12    7  0.1909736E-007  0.3452109E+04  0.7818608E-02  0.8125234E-01
          2   -1    0    0  501    0  0.00000000000E+00  0.00000000000E+00  0.26242751426E+04  0.26242751426E+04  0.00000000000E+00 0. -1.
         -1   -1    0    0    0  501 -0.00000000000E+00 -0.00000000000E+00 -0.11352713154E+04  0.11352713154E+04  0.00000000000E+00 0.  1.
         24    2    1    2    0    0 -0.93944600912E+03 -0.10679306736E+04  0.15085908281E+04  0.20749940035E+04  0.81970117951E+02 0.  0.
        254    2    1    2    0    0  0.93944600912E+03  0.10679306736E+04 -0.19587000909E+02  0.16845524546E+04  0.90238494780E+03 0.  0.
         23    2    4    4    0    0  0.31019135270E+03  0.47549273222E+03 -0.43549495002E+03  0.72128204457E+03  0.90994080283E+02 0.  0.
         23    2    4    4    0    0  0.62925465642E+03  0.59243794134E+03  0.41590794911E+03  0.96327041000E+03  0.89254264183E+02 0.  0.
          2    1    3    3  502    0 -0.50395017325E+03 -0.55661968003E+03  0.73866262720E+03  0.10532871034E+04  0.00000000000E+00 0. -1.
         -1    1    3    3    0  502 -0.43549583587E+03 -0.51131099353E+03  0.76992820090E+03  0.10217069001E+04  0.00000000000E+00 0.  1.
         13    1    5    5    0    0  0.10337475978E+03  0.12739557045E+03 -0.17471531304E+03  0.23966938257E+03  0.00000000000E+00 0.  1.
        -13    1    5    5    0    0  0.20681659292E+03  0.34809716177E+03 -0.26077963698E+03  0.48161266200E+03  0.00000000000E+00 0. -1.
          2    1    6    6  503    0  0.25557460012E+03  0.18331426827E+03  0.13967132058E+03  0.34413743616E+03  0.00000000000E+00 0. -1.
         -2    1    6    6    0  503  0.37368005630E+03  0.40912367307E+03  0.27623662853E+03  0.61913297383E+03  0.00000000000E+00 0.  1.
<mgrwt>
<rscale>  0 0.34521091E+04</rscale>
<asrwt>0</asrwt>
<pdfrwt beam="1">  1        2 0.40373464E+00 0.34521091E+04</pdfrwt>
<pdfrwt beam="2">  1       -1 0.17465713E+00 0.34521091E+04</pdfrwt>
<totfact> 0.62772995E-01</totfact>
</mgrwt>
</event>
<event>
12    7  0.1909736E-007  0.1872528E+04  0.7818608E-02  0.8668653E-01
          2   -1    0    0  501    0  0.00000000000E+00  0.00000000000E+00  0.19810390504E+04  0.19810390504E+04  0.00000000000E+00 0. -1.
         -1   -1    0    0    0  501 -0.00000000000E+00 -0.00000000000E+00 -0.44249017527E+03  0.44249017527E+03  0.00000000000E+00 0.  1.
         24    2    1    2    0    0  0.45048242430E+03  0.51582419880E+03  0.32075806683E+03  0.76053034605E+03  0.80694802499E+02 0.  0.
        254    2    1    2    0    0 -0.45048242430E+03 -0.51582419880E+03  0.12177908083E+04  0.16629988796E+04  0.90196552162E+03 0.  0.
         23    2    4    4    0    0  0.65291869355E+02  0.20876719172E+03  0.22585243137E+03  0.32765551896E+03  0.92206560552E+02 0.  0.
         23    2    4    4    0    0 -0.51577429365E+03 -0.72459139052E+03  0.99193837694E+03  0.13353433607E+04  0.90246008482E+02 0.  0.
          4    1    3    3  502    0  0.27085729334E+03  0.31153152952E+03  0.14934707231E+03  0.43899899231E+03  0.00000000000E+00 0. -1.
         -3    1    3    3    0  502  0.17962513095E+03  0.20429266928E+03  0.17141099452E+03  0.32153135373E+03  0.00000000000E+00 0.  1.
         13    1    5    5    0    0 -0.38069913032E+01  0.13874154220E+03  0.13888014407E+03  0.19634511232E+03  0.00000000000E+00 0. -1.
        -13    1    5    5    0    0  0.69098860658E+02  0.70025649522E+02  0.86972287304E+02  0.13131040665E+03  0.00000000000E+00 0.  1.
          1    1    6    6  503    0 -0.18138827967E+03 -0.30875291230E+03  0.35210301894E+03  0.50220175707E+03  0.00000000000E+00 0. -1.
         -1    1    6    6    0  503 -0.33438601398E+03 -0.41583847822E+03  0.63983535800E+03  0.83314160361E+03  0.00000000000E+00 0.  1.
<mgrwt>
<rscale>  0 0.18725280E+04</rscale>
<asrwt>0</asrwt>
<pdfrwt beam="1">  1        2 0.30477523E+00 0.18725280E+04</pdfrwt>
<pdfrwt beam="2">  1       -1 0.68075413E-01 0.18725280E+04</pdfrwt>
<totfact> 0.15983895E+01</totfact>
</mgrwt>
</event>
<event>
12    7  0.1909736E-007  0.1872571E+04  0.7818608E-02  0.8668631E-01
         -1   -1    0    0    0  501 -0.00000000000E+00  0.00000000000E+00  0.66305119801E+03  0.66305119801E+03  0.00000000000E+00 0.  1.
          2   -1    0    0  501    0  0.00000000000E+00 -0.00000000000E+00 -0.13221158751E+04  0.13221158751E+04  0.00000000000E+00 0. -1.
         24    2    1    2    0    0 -0.21576520724E+03  0.56798759855E+03  0.14152336638E+03  0.62903216836E+03  0.80548549568E+02 0.  0.
        254    2    1    2    0    0  0.21576520724E+03 -0.56798759855E+03 -0.80058804348E+03  0.13561349048E+04  0.91049224476E+03 0.  0.
         23    2    4    4    0    0  0.11627930992E+02 -0.60256263987E+03 -0.95772950898E+02  0.61600930519E+03  0.84131220196E+02 0.  0.
         23    2    4    4    0    0  0.20413727625E+03  0.34575041319E+02 -0.70481509258E+03  0.74012559957E+03  0.90300206899E+02 0.  0.
          2    1    3    3  502    0 -0.57408612883E+02  0.71363971851E+02  0.24193690127E+02  0.94730670606E+02  0.00000000000E+00 0. -1.
         -1    1    3    3    0  502 -0.15835659436E+03  0.49662362670E+03  0.11732967625E+03  0.53430149775E+03  0.00000000000E+00 0.  1.
         13    1    5    5    0    0  0.11895542336E+02 -0.89197808869E+01 -0.28127281980E+01  0.15132014355E+02  0.00000000000E+00 0. -1.
        -13    1    5    5    0    0 -0.26761134405E+00 -0.59364285898E+03 -0.92960222700E+02  0.60087729084E+03  0.00000000000E+00 0.  1.
          1    1    6    6  503    0  0.58619471823E+02 -0.15341874756E+02 -0.10837080176E+03  0.12416056650E+03  0.00000000000E+00 0. -1.
         -1    1    6    6    0  503  0.14551780443E+03  0.49916916075E+02 -0.59644429082E+03  0.61596503307E+03  0.00000000000E+00 0.  1.
<mgrwt>
<rscale>  0 0.18725710E+04</rscale>
<asrwt>0</asrwt>
<pdfrwt beam="1">  1        2 0.20340244E+00 0.18725710E+04</pdfrwt>
<pdfrwt beam="2">  1       -1 0.10200788E+00 0.18725710E+04</pdfrwt>
<totfact> 0.15634034E+01</totfact>
</mgrwt>
</event>
<event>
12    7  0.1909736E-007  0.1617573E+04  0.7818608E-02  0.8809824E-01
         -3   -1    0    0    0  501 -0.00000000000E+00  0.00000000000E+00  0.85842581673E+03  0.85842581673E+03  0.00000000000E+00 0.  1.
          2   -1    0    0  501    0  0.00000000000E+00 -0.00000000000E+00 -0.76201781761E+03  0.76201781761E+03  0.00000000000E+00 0. -1.
         24    2    1    2    0    0 -0.45074066469E+03 -0.67950133170E+02  0.34267035670E+03  0.57630492768E+03  0.83186711090E+02 0.  0.
        254    2    1    2    0    0  0.45074066469E+03  0.67950133170E+02 -0.24626235758E+03  0.10441387067E+04  0.90652971412E+03 0.  0.
         23    2    4    4    0    0  0.23116216883E+03  0.29323952384E+03  0.24294178618E+03  0.45469217663E+03  0.91098284186E+02 0.  0.
         23    2    4    4    0    0  0.21957849586E+03 -0.22528939067E+03 -0.48920414376E+03  0.58944653003E+03  0.95689561112E+02 0.  0.
          2    1    3    3  502    0 -0.27597549043E+03 -0.27815271104E+01  0.22149715800E+03  0.35388020461E+03  0.00000000000E+00 0. -1.
         -1    1    3    3    0  502 -0.17476517426E+03 -0.65168606059E+02  0.12117319871E+03  0.22242472307E+03  0.00000000000E+00 0.  1.
         13    1    5    5    0    0  0.15239219045E+03  0.17790605098E+03  0.99563403517E+02  0.25453254017E+03  0.00000000000E+00 0. -1.
        -13    1    5    5    0    0  0.78769978384E+02  0.11533347286E+03  0.14337838266E+03  0.20015963647E+03  0.00000000000E+00 0.  1.
          2    1    6    6  503    0  0.18436717947E+03 -0.12692757021E+03 -0.31785386742E+03  0.38875821018E+03  0.00000000000E+00 0.  1.
         -2    1    6    6    0  503  0.35211316385E+02 -0.98361820452E+02 -0.17135027634E+03  0.20068831985E+03  0.00000000000E+00 0. -1.
<mgrwt>
<rscale>  0 0.16175732E+04</rscale>
<asrwt>0</asrwt>
<pdfrwt beam="1">  1        2 0.11723351E+00 0.16175732E+04</pdfrwt>
<pdfrwt beam="2">  1       -3 0.13206551E+00 0.16175732E+04</pdfrwt>
<totfact> 0.98979460E+00</totfact>
</mgrwt>
</event>
<event>
12    7  0.1909736E-007  0.1327718E+04  0.7818608E-02  0.9007869E-01
          2   -1    0    0  501    0  0.00000000000E+00  0.00000000000E+00  0.39014358357E+03  0.39014358357E+03  0.00000000000E+00 0. -1.
         -1   -1    0    0    0  501 -0.00000000000E+00 -0.00000000000E+00 -0.11296070786E+04  0.11296070786E+04  0.00000000000E+00 0.  1.
         24    2    1    2    0    0 -0.15545808564E+03 -0.31177603667E+03 -0.21999377371E+03  0.41963435922E+03  0.79524974291E+02 0.  0.
        254    2    1    2    0    0  0.15545808564E+03  0.31177603667E+03 -0.51946972133E+03  0.11001163030E+04  0.90500584265E+03 0.  0.
         23    2    4    4    0    0  0.27860788257E+03 -0.23569751719E+03 -0.33000400081E+03  0.50038493315E+03  0.91141477585E+02 0.  0.
         23    2    4    4    0    0 -0.12314979693E+03  0.54747355385E+03 -0.18946572053E+03  0.59973136981E+03  0.94272435162E+02 0.  0.
          2    1    3    3  502    0 -0.60259756132E+02 -0.10913918623E+03 -0.35774259335E+02  0.12970118663E+03  0.00000000000E+00 0. -1.
         -1    1    3    3    0  502 -0.95198329509E+02 -0.20263685043E+03 -0.18421951437E+03  0.28993317259E+03  0.00000000000E+00 0.  1.
         13    1    5    5    0    0  0.13300007974E+02 -0.42722980904E+02 -0.63667216307E+02  0.77818106773E+02  0.00000000000E+00 0. -1.
        -13    1    5    5    0    0  0.26530787460E+03 -0.19297453628E+03 -0.26633678450E+03  0.42256682638E+03  0.00000000000E+00 0.  1.
          3    1    6    6  503    0  0.91216910713E+01  0.13444352601E+02 -0.16158309490E+02  0.22913900376E+02  0.00000000000E+00 0. -1.
         -3    1    6    6    0  503 -0.13227148800E+03  0.53402920125E+03 -0.17330741104E+03  0.57681746944E+03  0.00000000000E+00 0.  1.
<mgrwt>
<rscale>  0 0.13277183E+04</rscale>
<asrwt>0</asrwt>
<pdfrwt beam="1">  1        2 0.60022089E-01 0.13277183E+04</pdfrwt>
<pdfrwt beam="2">  1       -1 0.17378571E+00 0.13277183E+04</pdfrwt>
<totfact> 0.21138221E+01</totfact>
</mgrwt>
</event>
<event>
12    7  0.1909736E-007  0.2101891E+04  0.7818608E-02  0.8560411E-01
          2   -1    0    0  501    0  0.00000000000E+00  0.00000000000E+00  0.75717596326E+03  0.75717596326E+03  0.00000000000E+00 0. -1.
         -1   -1    0    0    0  501 -0.00000000000E+00 -0.00000000000E+00 -0.14586917951E+04  0.14586917951E+04  0.00000000000E+00 0.  1.
         24    2    1    2    0    0  0.56456193357E+03  0.93195822877E+02 -0.94869177443E+03  0.11108855539E+04  0.81455465213E+02 0.  0.
        254    2    1    2    0    0 -0.56456193357E+03 -0.93195822877E+02  0.24717594264E+03  0.11049822044E+04  0.91240017928E+03 0.  0.
         23    2    4    4    0    0  0.87069316959E+02  0.10768796490E+03  0.37054579079E+03  0.40601492342E+03  0.91466776611E+02 0.  0.
         23    2    4    4    0    0 -0.65163125053E+03 -0.20088378778E+03 -0.12336984816E+03  0.69896728096E+03  0.91419678225E+02 0.  0.
          4    1    3    3  502    0  0.15440782672E+03 -0.10469530200E+02 -0.24275582495E+03  0.28789195640E+03  0.00000000000E+00 0. -1.
         -3    1    3    3    0  502  0.41015410685E+03  0.10366535308E+03 -0.70593594948E+03  0.82299359753E+03  0.00000000000E+00 0.  1.
         13    1    5    5    0    0  0.60120430836E+02  0.11678701970E+03  0.33889972106E+03  0.36346484714E+03  0.00000000000E+00 0. -1.
        -13    1    5    5    0    0  0.26948886123E+02 -0.90990547993E+01  0.31646069736E+02  0.42550076278E+02  0.00000000000E+00 0.  1.
          2    1    6    6  503    0 -0.36345099710E+03 -0.15044736888E+03 -0.97520672647E+02  0.40526697335E+03  0.00000000000E+00 0. -1.
         -2    1    6    6    0  503 -0.28818025343E+03 -0.50436418897E+02 -0.25849175511E+02  0.29370030761E+03  0.00000000000E+00 0.  1.
<mgrwt>
<rscale>  0 0.21018909E+04</rscale>
<asrwt>0</asrwt>
<pdfrwt beam="1">  1        2 0.11648861E+00 0.21018909E+04</pdfrwt>
<pdfrwt beam="2">  1       -1 0.22441412E+00 0.21018909E+04</pdfrwt>
<totfact> 0.40041293E+00</totfact>
</mgrwt>
</event>
<event>
12    7  0.1909736E-007  0.1177499E+04  0.7818608E-02  0.9132783E-01
         -1   -1    0    0    0  501 -0.00000000000E+00  0.00000000000E+00  0.21845628185E+03  0.21845628185E+03  0.00000000000E+00 0.  1.
          2   -1    0    0  501    0  0.00000000000E+00 -0.00000000000E+00 -0.15867053976E+04  0.15867053976E+04  0.00000000000E+00 0. -1.
         24    2    1    2    0    0  0.16898404658E+03  0.68720228190E+02 -0.59168184152E+02  0.20704286623E+03  0.78024333913E+02 0.  0.
        254    2    1    2    0    0 -0.16898404658E+03 -0.68720228190E+02 -0.13090809316E+04  0.15981188132E+04  0.89833889923E+03 0.  0.
         23    2    4    4    0    0  0.22991025657E+03 -0.33053549716E+03 -0.76012418408E+03  0.86508411987E+03  0.92028899035E+02 0.  0.
         23    2    4    4    0    0 -0.39889430315E+03  0.26181526897E+03 -0.54895674748E+03  0.73303469331E+03  0.91227467556E+02 0.  0.
          2    1    3    3  502    0  0.49502995770E+02  0.31988859016E+02  0.16141755856E+02  0.61109655321E+02  0.00000000000E+00 0. -1.
         -1    1    3    3    0  502  0.11948105081E+03  0.36731369175E+02 -0.75309940008E+02  0.14593321091E+03  0.00000000000E+00 0.  1.
         13    1    5    5    0    0  0.57382519301E+01 -0.63827550207E+02 -0.10294240223E+03  0.12126014133E+03  0.00000000000E+00 0. -1.
        -13    1    5    5    0    0  0.22417200464E+03 -0.26670794695E+03 -0.65718178186E+03  0.74382397853E+03  0.00000000000E+00 0.  1.
          1    1    6    6  503    0 -0.18498754610E+03  0.17308496364E+03 -0.26485519651E+03  0.36650657834E+03  0.00000000000E+00 0. -1.
         -1    1    6    6    0  503 -0.21390675705E+03  0.88730305331E+02 -0.28410155098E+03  0.36652811497E+03  0.00000000000E+00 0.  1.
<mgrwt>
<rscale>  0 0.11774986E+04</rscale>
<asrwt>0</asrwt>
<pdfrwt beam="1">  1        2 0.24410853E+00 0.11774986E+04</pdfrwt>
<pdfrwt beam="2">  1       -1 0.33608658E-01 0.11774986E+04</pdfrwt>
<totfact> 0.10653490E+02</totfact>
</mgrwt>
</event>
<event>
12    7  0.1909736E-007  0.1468596E+04  0.7818608E-02  0.8905609E-01
          2   -1    0    0  501    0  0.00000000000E+00  0.00000000000E+00  0.38626491199E+04  0.38626491199E+04  0.00000000000E+00 0. -1.
         -1   -1    0    0    0  501 -0.00000000000E+00 -0.00000000000E+00 -0.13959171527E+03  0.13959171527E+03  0.00000000000E+00 0.  1.
         24    2    1    2    0    0  0.85831262756E+02  0.45364594230E+03  0.11408673554E+04  0.12333299004E+04  0.79766372192E+02 0.  0.
        254    2    1    2    0    0 -0.85831262756E+02 -0.45364594230E+03  0.25821900493E+04  0.27689109348E+04  0.88656678677E+03 0.  0.
         23    2    4    4    0    0  0.32065526356E+03  0.20228818139E+02  0.12772083993E+04  0.13195315232E+04  0.81689304273E+02 0.  0.
         23    2    4    4    0    0 -0.40648652632E+03 -0.47387476044E+03  0.13049816500E+04  0.14493794116E+04  0.89078544667E+02 0.  0.
          4    1    3    3  502    0  0.44571863050E+02  0.18358863408E+03  0.36915611752E+03  0.41468985597E+03  0.00000000000E+00 0. -1.
         -3    1    3    3    0  502  0.41259399707E+02  0.27005730822E+03  0.77171123784E+03  0.81864004446E+03  0.00000000000E+00 0.  1.
         13    1    5    5    0    0  0.83698772142E+02  0.29289965137E+01  0.49506397095E+03  0.50209799722E+03  0.00000000000E+00 0. -1.
        -13    1    5    5    0    0  0.23695649142E+03  0.17299821625E+02  0.78214442834E+03  0.81743352601E+03  0.00000000000E+00 0.  1.
          1    1    6    6  503    0  0.35781373665E+01 -0.13903778293E+02  0.26479340532E+02  0.30120982601E+02  0.00000000000E+00 0. -1.
         -1    1    6    6    0  503 -0.41006466368E+03 -0.45997098215E+03  0.12785023095E+04  0.14192584290E+04  0.00000000000E+00 0.  1.
<mgrwt>
<rscale>  0 0.14685964E+04</rscale>
<asrwt>0</asrwt>
<pdfrwt beam="1">  1        2 0.59425363E+00 0.14685964E+04</pdfrwt>
<pdfrwt beam="2">  1       -1 0.21475651E-01 0.14685964E+04</pdfrwt>
<totfact> 0.89930218E+00</totfact>
</mgrwt>
</event>
<event>
12    7  0.1909736E-007  0.2688508E+04  0.7818608E-02  0.8338744E-01
          2   -1    0    0  501    0  0.00000000000E+00  0.00000000000E+00  0.18924208677E+04  0.18924208677E+04  0.00000000000E+00 0. -1.
         -1   -1    0    0    0  501 -0.00000000000E+00 -0.00000000000E+00 -0.95487121171E+03  0.95487121171E+03  0.00000000000E+00 0.  1.
         24    2    1    2    0    0 -0.50060286159E+03 -0.96647944475E+03  0.94065195112E+03  0.14401479938E+04  0.67189350987E+02 0.  0.
        254    2    1    2    0    0  0.50060286159E+03  0.96647944475E+03 -0.31022950926E+01  0.14071440856E+04  0.89182908185E+03 0.  0.
         23    2    4    4    0    0 -0.44109804172E+01  0.18280680489E+03 -0.35135200883E+03  0.40771218241E+03  0.96660255070E+02 0.  0.
         23    2    4    4    0    0  0.50501384201E+03  0.78367263985E+03  0.34824971374E+03  0.99943190318E+03  0.91675945084E+02 0.  0.
          2    1    3    3  502    0 -0.39353330648E+03 -0.76446316967E+03  0.77809871508E+03  0.11596163208E+04  0.00000000000E+00 0. -1.
         -1    1    3    3    0  502 -0.10706955511E+03 -0.20201627508E+03  0.16255323604E+03  0.28053167304E+03  0.00000000000E+00 0.  1.
         13    1    5    5    0    0 -0.34986304864E+02  0.16700340079E+03 -0.31049908169E+03  0.35429346189E+03  0.00000000000E+00 0. -1.
        -13    1    5    5    0    0  0.30575324446E+02  0.15803404100E+02 -0.40852927138E+02  0.53418720519E+02  0.00000000000E+00 0.  1.
          3    1    6    6  503    0  0.30701365019E+03  0.54841739376E+03  0.25316341144E+03  0.67757710415E+03  0.00000000000E+00 0. -1.
         -3    1    6    6    0  503  0.19800019181E+03  0.23525524610E+03  0.95086302303E+02  0.32185479903E+03  0.00000000000E+00 0.  1.
<mgrwt>
<rscale>  0 0.26885075E+04</rscale>
<asrwt>0</asrwt>
<pdfrwt beam="1">  1        2 0.29114167E+00 0.26885075E+04</pdfrwt>
<pdfrwt beam="2">  1       -1 0.14690326E+00 0.26885075E+04</pdfrwt>
<totfact> 0.28272724E+00</totfact>
</mgrwt>
</event>
<event>
12    7  0.1909736E-007  0.1556275E+04  0.7818608E-02  0.8847870E-01
          2   -1    0    0  501    0  0.00000000000E+00  0.00000000000E+00  0.64669363972E+03  0.64669363972E+03  0.00000000000E+00 0. -1.
         -1   -1    0    0    0  501 -0.00000000000E+00 -0.00000000000E+00 -0.93629776438E+03  0.93629776438E+03  0.00000000000E+00 0.  1.
         24    2    1    2    0    0  0.49764070533E+03 -0.68680491118E+02  0.91036931575E+01  0.50884570378E+03  0.80484728776E+02 0.  0.
        254    2    1    2    0    0 -0.49764070533E+03  0.68680491118E+02 -0.29870781781E+03  0.10741457003E+04  0.90122102929E+03 0.  0.
         23    2    4    4    0    0 -0.72383704292E+03  0.15794419577E+03 -0.32229582261E+03  0.81311024784E+03  0.91581898792E+02 0.  0.
         23    2    4    4    0    0  0.22619633759E+03 -0.89263704656E+02  0.23588004805E+02  0.26103545248E+03  0.91925629577E+02 0.  0.
          2    1    3    3  502    0  0.47578860862E+03 -0.62632216998E+02 -0.87711598841E+01  0.47997346587E+03  0.00000000000E+00 0. -1.
         -1    1    3    3    0  502  0.21852096710E+02 -0.60482741203E+01  0.17874853042E+02  0.28872237907E+02  0.00000000000E+00 0.  1.
         13    1    5    5    0    0 -0.64749127442E+03  0.13955489685E+03 -0.31725605842E+03  0.73441944847E+03  0.00000000000E+00 0.  1.
        -13    1    5    5    0    0 -0.76345768497E+02  0.18389298926E+02 -0.50397641967E+01  0.78690799371E+02  0.00000000000E+00 0. -1.
          3    1    6    6  503    0 -0.91893837051E+00  0.11468275785E+02  0.15325518552E+01  0.11606658106E+02  0.00000000000E+00 0. -1.
         -3    1    6    6    0  503  0.22711527596E+03 -0.10073198044E+03  0.22055452950E+02  0.24942879438E+03  0.00000000000E+00 0.  1.
<mgrwt>
<rscale>  0 0.15562748E+04</rscale>
<asrwt>0</asrwt>
<pdfrwt beam="1">  1        2 0.99491329E-01 0.15562748E+04</pdfrwt>
<pdfrwt beam="2">  1       -1 0.14404581E+00 0.15562748E+04</pdfrwt>
<totfact> 0.19339774E+01</totfact>
</mgrwt>
</event>
<event>
12    7  0.1909736E-007  0.1366763E+04  0.7818608E-02  0.8978235E-01
          2   -1    0    0  501    0  0.00000000000E+00  0.00000000000E+00  0.30762695481E+04  0.30762695481E+04  0.00000000000E+00 0. -1.
         -1   -1    0    0    0  501 -0.00000000000E+00 -0.00000000000E+00 -0.15181060354E+03  0.15181060354E+03  0.00000000000E+00 0.  1.
         24    2    1    2    0    0  0.66259389167E+02  0.33516497899E+03  0.44727403942E+03  0.56839401895E+03  0.79321022712E+02 0.  0.
        254    2    1    2    0    0 -0.66259389167E+02 -0.33516497899E+03  0.24771849052E+04  0.26596861327E+04  0.90595772551E+03 0.  0.
         23    2    4    4    0    0  0.35775939633E+02 -0.39755837740E+03  0.38493332629E+03  0.56197508485E+03  0.91157824704E+02 0.  0.
         23    2    4    4    0    0 -0.10203532880E+03  0.62393398410E+02  0.20922515789E+04  0.20977110479E+04  0.92578758801E+02 0.  0.
          4    1    3    3  502    0 -0.28615798948E+00  0.65592821672E+01  0.41548560514E+02  0.42064105241E+02  0.00000000000E+00 0. -1.
         -3    1    3    3    0  502  0.66545547157E+02  0.32860569682E+03  0.40572547891E+03  0.52632991371E+03  0.00000000000E+00 0.  1.
         13    1    5    5    0    0  0.22870570749E+02 -0.40147265655E+02  0.78114082902E+02  0.90756134193E+02  0.00000000000E+00 0. -1.
        -13    1    5    5    0    0  0.12905368884E+02 -0.35741111174E+03  0.30681924339E+03  0.47121895065E+03  0.00000000000E+00 0.  1.
          4    1    6    6  503    0 -0.33587992832E+01  0.71173376186E+01  0.11778656379E+02  0.14165972381E+02  0.00000000000E+00 0. -1.
         -4    1    6    6    0  503 -0.98676529517E+02  0.55276060791E+02  0.20804729225E+04  0.20835450755E+04  0.00000000000E+00 0.  1.
<mgrwt>
<rscale>  0 0.13667631E+04</rscale>
<asrwt>0</asrwt>
<pdfrwt beam="1">  1        2 0.47327219E+00 0.13667631E+04</pdfrwt>
<pdfrwt beam="2">  1       -1 0.23355480E-01 0.13667631E+04</pdfrwt>
<totfact> 0.27547061E+01</totfact>
</mgrwt>
</event>
<event>
12    7  0.1909736E-007  0.1632471E+04  0.7818608E-02  0.8800844E-01
         -1   -1    0    0    0  501 -0.00000000000E+00  0.00000000000E+00  0.28710797632E+03  0.28710797632E+03  0.00000000000E+00 0.  1.
          2   -1    0    0  501    0  0.00000000000E+00 -0.00000000000E+00 -0.23205219417E+04  0.23205219417E+04  0.00000000000E+00 0. -1.
         24    2    1    2    0    0  0.34241107505E+03 -0.39625257054E+03 -0.10673537386E+04  0.11917193952E+04  0.81790400971E+02 0.  0.
        254    2    1    2    0    0 -0.34241107505E+03  0.39625257054E+03 -0.96606022682E+03  0.14159105228E+04  0.89289910001E+03 0.  0.
         23    2    4    4    0    0 -0.53896740786E+03 -0.61114780545E+01 -0.35529078809E+03  0.65308689865E+03  0.98831858167E+02 0.  0.
         23    2    4    4    0    0  0.19655633281E+03  0.40236404859E+03 -0.61076943873E+03  0.76282362417E+03  0.91265298630E+02 0.  0.
          2    1    3    3  502    0  0.24257275328E+03 -0.32772904512E+03 -0.78760826952E+03  0.88689044073E+03  0.00000000000E+00 0. -1.
         -1    1    3    3    0  502  0.99838321771E+02 -0.68523525421E+02 -0.27974546904E+03  0.30482895446E+03  0.00000000000E+00 0.  1.
         13    1    5    5    0    0 -0.50146988944E+03  0.15164573314E+01 -0.29538350991E+03  0.58200151854E+03  0.00000000000E+00 0. -1.
        -13    1    5    5    0    0 -0.37497518416E+02 -0.76279353859E+01 -0.59907278186E+02  0.71085380109E+02  0.00000000000E+00 0.  1.
          2    1    6    6  503    0  0.19125135687E+03  0.34905792820E+03 -0.49431071322E+03  0.63463501318E+03  0.00000000000E+00 0. -1.
         -2    1    6    6    0  503  0.53049759393E+01  0.53306120398E+02 -0.11645872550E+03  0.12818861099E+03  0.00000000000E+00 0.  1.
<mgrwt>
<rscale>  0 0.16324710E+04</rscale>
<asrwt>0</asrwt>
<pdfrwt beam="1">  1        2 0.35700336E+00 0.16324710E+04</pdfrwt>
<pdfrwt beam="2">  1       -1 0.44170460E-01 0.16324710E+04</pdfrwt>
<totfact> 0.24405855E+01</totfact>
</mgrwt>
</event>
<event>
12    7  0.1909736E-007  0.1638245E+04  0.7818608E-02  0.8797391E-01
          2   -1    0    0  501    0  0.00000000000E+00  0.00000000000E+00  0.34197909811E+04  0.34197909811E+04  0.00000000000E+00 0. -1.
         -1   -1    0    0    0  501 -0.00000000000E+00 -0.00000000000E+00 -0.19619963505E+03  0.19619963505E+03  0.00000000000E+00 0.  1.
         24    2    1    2    0    0  0.47176181612E+03  0.32208206774E+03  0.13051573400E+04  0.14269148206E+04  0.79712944888E+02 0.  0.
        254    2    1    2    0    0 -0.47176181612E+03 -0.32208206774E+03  0.19184340060E+04  0.21890757955E+04  0.88620975709E+03 0.  0.
         23    2    4    4    0    0 -0.65201938624E+03 -0.44355695063E+03  0.16554447426E+04  0.18360484862E+04  0.93298976970E+02 0.  0.
         23    2    4    4    0    0  0.18025757012E+03  0.12147488290E+03  0.26298926335E+03  0.35302730933E+03  0.90642096921E+02 0.  0.
          4    1    3    3  502    0  0.14204451624E+03  0.10787276079E+03  0.50045480096E+03  0.53128917259E+03  0.00000000000E+00 0. -1.
         -3    1    3    3    0  502  0.32971729988E+03  0.21420930695E+03  0.80470253906E+03  0.89562564802E+03  0.00000000000E+00 0.  1.
         13    1    5    5    0    0 -0.13544358515E+03 -0.97237203212E+02  0.26866110395E+03  0.31619428714E+03  0.00000000000E+00 0. -1.
        -13    1    5    5    0    0 -0.51657580110E+03 -0.34631974742E+03  0.13867836387E+04  0.15198541990E+04  0.00000000000E+00 0.  1.
          2    1    6    6  503    0  0.15583954157E+03  0.11745344580E+03  0.26395879996E+03  0.32826136343E+03  0.00000000000E+00 0. -1.
         -2    1    6    6    0  503  0.24418028557E+02  0.40214370960E+01 -0.96953661159E+00  0.24765945897E+02  0.00000000000E+00 0.  1.
<mgrwt>
<rscale>  0 0.16382451E+04</rscale>
<asrwt>0</asrwt>
<pdfrwt beam="1">  1        2 0.52612165E+00 0.16382451E+04</pdfrwt>
<pdfrwt beam="2">  1       -1 0.30184562E-01 0.16382451E+04</pdfrwt>
<totfact> 0.10257849E+01</totfact>
</mgrwt>
</event>
<event>
12    7  0.1909736E-007  0.1840607E+04  0.7818608E-02  0.8684998E-01
          2   -1    0    0  501    0  0.00000000000E+00  0.00000000000E+00  0.86002164638E+03  0.86002164638E+03  0.00000000000E+00 0. -1.
         -1   -1    0    0    0  501 -0.00000000000E+00 -0.00000000000E+00 -0.98481090112E+03  0.98481090112E+03  0.00000000000E+00 0.  1.
         24    2    1    2    0    0 -0.46065460320E+03 -0.52663025079E+03 -0.53532326400E+02  0.70620795954E+03  0.79510299052E+02 0.  0.
        254    2    1    2    0    0  0.46065460320E+03  0.52663025079E+03 -0.71256928341E+02  0.11386245880E+04  0.89545871931E+03 0.  0.
         23    2    4    4    0    0  0.23833009269E+03 -0.58643684633E+01  0.33935642679E+03  0.42461898572E+03  0.91120111551E+02 0.  0.
         23    2    4    4    0    0  0.22232451051E+03  0.53249461925E+03 -0.41061335513E+03  0.71400560225E+03  0.90675052372E+02 0.  0.
          4    1    3    3  502    0 -0.43036718647E+03 -0.48995615616E+03 -0.29203375885E+02  0.65278310894E+03  0.00000000000E+00 0. -1.
         -3    1    3    3    0  502 -0.30287416721E+02 -0.36674094626E+02 -0.24328950514E+02  0.53424850598E+02  0.00000000000E+00 0.  1.
         13    1    5    5    0    0  0.74465373945E+02  0.40677010372E+02  0.11002379184E+03  0.13894223930E+03  0.00000000000E+00 0. -1.
        -13    1    5    5    0    0  0.16386471874E+03 -0.46541378835E+02  0.22933263495E+03  0.28567674642E+03  0.00000000000E+00 0.  1.
          3    1    6    6  503    0  0.34256955460E+02  0.55537563731E+02 -0.16422612401E+02  0.67287905158E+02  0.00000000000E+00 0. -1.
         -3    1    6    6    0  503  0.18806755505E+03  0.47695705552E+03 -0.39419074273E+03  0.64671769709E+03  0.00000000000E+00 0.  1.
<mgrwt>
<rscale>  0 0.18406072E+04</rscale>
<asrwt>0</asrwt>
<pdfrwt beam="1">  1        2 0.13231102E+00 0.18406072E+04</pdfrwt>
<pdfrwt beam="2">  1       -1 0.15150937E+00 0.18406072E+04</pdfrwt>
<totfact> 0.11390530E+01</totfact>
</mgrwt>
</event>
<event>
12    7  0.1909736E-007  0.1541976E+04  0.7818608E-02  0.8857009E-01
         -1   -1    0    0    0  501 -0.00000000000E+00  0.00000000000E+00  0.62189809778E+03  0.62189809778E+03  0.00000000000E+00 0.  1.
          2   -1    0    0  501    0  0.00000000000E+00 -0.00000000000E+00 -0.95581969396E+03  0.95581969396E+03  0.00000000000E+00 0. -1.
         24    2    1    2    0    0  0.12264909688E+03 -0.32892399979E+03 -0.47675371537E+03  0.59743977550E+03  0.80039875252E+02 0.  0.
        254    2    1    2    0    0 -0.12264909688E+03  0.32892399979E+03  0.14283211919E+03  0.98027801624E+03  0.90405208713E+03 0.  0.
         23    2    4    4    0    0 -0.44730940550E+03  0.39939804212E+03  0.17888525607E+03  0.63252190996E+03  0.92084371350E+02 0.  0.
         23    2    4    4    0    0  0.32466030862E+03 -0.70474042322E+02 -0.36053136882E+02  0.34775610628E+03  0.96247463046E+02 0.  0.
          4    1    3    3  502    0  0.12317264294E+03 -0.27102458842E+03 -0.43011075826E+03  0.52308803453E+03  0.00000000000E+00 0. -1.
         -3    1    3    3    0  502 -0.52354605809E+00 -0.57899411374E+02 -0.46642957101E+02  0.74351740968E+02  0.00000000000E+00 0.  1.
         13    1    5    5    0    0 -0.25258463222E+03  0.26000517159E+03  0.68837728039E+02  0.36897197521E+03  0.00000000000E+00 0.  1.
        -13    1    5    5    0    0 -0.19472477327E+03  0.13939287052E+03  0.11004752803E+03  0.26354993475E+03  0.00000000000E+00 0. -1.
          1    1    6    6  503    0  0.86746495868E+02 -0.15557335465E+01 -0.49150394816E+02  0.99715275474E+02  0.00000000000E+00 0. -1.
         -1    1    6    6    0  503  0.23791381275E+03 -0.68918308776E+02  0.13097257934E+02  0.24804083080E+03  0.00000000000E+00 0.  1.
<mgrwt>
<rscale>  0 0.15419759E+04</rscale>
<asrwt>0</asrwt>
<pdfrwt beam="1">  1        2 0.14704918E+00 0.15419759E+04</pdfrwt>
<pdfrwt beam="2">  1       -1 0.95676630E-01 0.15419759E+04</pdfrwt>
<totfact> 0.31175767E+01</totfact>
</mgrwt>
</event>
<event>
12    7  0.1909736E-007  0.1573615E+04  0.7818608E-02  0.8836923E-01
          2   -1    0    0  501    0  0.00000000000E+00  0.00000000000E+00  0.78232786078E+03  0.78232786078E+03  0.00000000000E+00 0. -1.
         -1   -1    0    0    0  501 -0.00000000000E+00 -0.00000000000E+00 -0.79131320901E+03  0.79131320901E+03  0.00000000000E+00 0.  1.
         24    2    1    2    0    0  0.30059320646E+03 -0.43211129013E+03 -0.10679532984E+03  0.54276156870E+03  0.78156478634E+02 0.  0.
        254    2    1    2    0    0 -0.30059320646E+03  0.43211129013E+03  0.97809981610E+02  0.10308795011E+04  0.88094796126E+03 0.  0.
         23    2    4    4    0    0  0.29642864519E+03  0.12644981639E+03 -0.46967997972E+02  0.33865993324E+03  0.92871200013E+02 0.  0.
         23    2    4    4    0    0 -0.59702185165E+03  0.30566147373E+03  0.14477797958E+03  0.69221956786E+03  0.91341331696E+02 0.  0.
          4    1    3    3  502    0  0.28054756746E+02 -0.34415941472E+02  0.12450515775E+02  0.46114441844E+02  0.00000000000E+00 0. -1.
         -3    1    3    3    0  502  0.27253844972E+03 -0.39769534866E+03 -0.11924584561E+03  0.49664712685E+03  0.00000000000E+00 0.  1.
         13    1    5    5    0    0  0.28137481838E+03  0.13808791797E+03 -0.54610344918E+02  0.31815460279E+03  0.00000000000E+00 0.  1.
        -13    1    5    5    0    0  0.15053826814E+02 -0.11638101572E+02  0.76423469461E+01  0.20505330448E+02  0.00000000000E+00 0. -1.
          4    1    6    6  503    0 -0.59422115915E+03  0.29359490724E+03  0.13491805330E+03  0.67638719432E+03  0.00000000000E+00 0.  1.
         -4    1    6    6    0  503 -0.28006925077E+01  0.12066566497E+02  0.98599262843E+01  0.15832373539E+02  0.00000000000E+00 0. -1.
<mgrwt>
<rscale>  0 0.15736154E+04</rscale>
<asrwt>0</asrwt>
<pdfrwt beam="1">  1        2 0.12035813E+00 0.15736154E+04</pdfrwt>
<pdfrwt beam="2">  1       -1 0.12174049E+00 0.15736154E+04</pdfrwt>
<totfact> 0.23265714E+01</totfact>
</mgrwt>
</event>
<event>
12    7  0.1909736E-007  0.2418809E+04  0.7818608E-02  0.8432495E-01
         -1   -1    0    0    0  501 -0.00000000000E+00  0.00000000000E+00  0.70560517671E+03  0.70560517671E+03  0.00000000000E+00 0.  1.
          2   -1    0    0  501    0  0.00000000000E+00 -0.00000000000E+00 -0.20729138984E+04  0.20729138984E+04  0.00000000000E+00 0. -1.
         24    2    1    2    0    0  0.33626986321E+03 -0.27944657794E+02 -0.17170385055E+04  0.17524343951E+04  0.94587286900E+02 0.  0.
        254    2    1    2    0    0 -0.33626986321E+03  0.27944657794E+02  0.34972978379E+03  0.10260846801E+04  0.90370378122E+03 0.  0.
         23    2    4    4    0    0 -0.36313088085E+03 -0.17061502232E+03 -0.18317360159E+03  0.44928542178E+03  0.85623007650E+02 0.  0.
         23    2    4    4    0    0  0.26861017635E+02  0.19855968011E+03  0.53290338538E+03  0.57679925828E+03  0.92541371149E+02 0.  0.
          2    1    3    3  502    0  0.20563010819E+03 -0.47987446323E+02 -0.12192120455E+04  0.12373619310E+04  0.00000000000E+00 0. -1.
         -1    1    3    3    0  502  0.13063975502E+03  0.20042788530E+02 -0.49782646006E+03  0.51507246412E+03  0.00000000000E+00 0.  1.
         13    1    5    5    0    0 -0.28709572780E+03 -0.16964405059E+03 -0.15943440517E+03  0.36962466148E+03  0.00000000000E+00 0.  1.
        -13    1    5    5    0    0 -0.76035153047E+02 -0.97097172736E+00 -0.23739196422E+02  0.79660760301E+02  0.00000000000E+00 0. -1.
          4    1    6    6  503    0 -0.57129877169E+00  0.28657257193E+02  0.19997201488E+03  0.20201577044E+03  0.00000000000E+00 0. -1.
         -4    1    6    6    0  503  0.27432316406E+02  0.16990242292E+03  0.33293137050E+03  0.37478348785E+03  0.00000000000E+00 0.  1.
<mgrwt>
<rscale>  0 0.24188086E+04</rscale>
<asrwt>0</asrwt>
<pdfrwt beam="1">  1        2 0.31890983E+00 0.24188086E+04</pdfrwt>
<pdfrwt beam="2">  1       -1 0.10855464E+00 0.24188086E+04</pdfrwt>
<totfact> 0.48939733E+00</totfact>
</mgrwt>
</event>
<event>
12    7  0.1909736E-007  0.1594700E+04  0.7818608E-02  0.8823811E-01
          2   -1    0    0  501    0  0.00000000000E+00  0.00000000000E+00  0.16118747882E+04  0.16118747882E+04  0.00000000000E+00 0. -1.
         -1   -1    0    0    0  501 -0.00000000000E+00 -0.00000000000E+00 -0.39442683919E+03  0.39442683919E+03  0.00000000000E+00 0.  1.
         24    2    1    2    0    0  0.28760632905E+03 -0.42583045675E+03  0.61866295851E+03  0.80827070316E+03  0.80676483261E+02 0.  0.
        254    2    1    2    0    0 -0.28760632905E+03  0.42583045675E+03  0.59878499047E+03  0.11980309242E+04  0.90149079425E+03 0.  0.
         23    2    4    4    0    0 -0.43080526723E+03  0.12373549465E+03  0.70026696369E+03  0.83648341119E+03  0.91798833682E+02 0.  0.
         23    2    4    4    0    0  0.14319893818E+03  0.30209496209E+03 -0.10148197322E+03  0.36154751300E+03  0.93009199810E+02 0.  0.
          4    1    3    3  502    0  0.21446670501E+03 -0.32009815486E+03  0.40569984884E+03  0.55950975296E+03  0.00000000000E+00 0. -1.
         -3    1    3    3    0  502  0.73139624040E+02 -0.10573230189E+03  0.21296310967E+03  0.24876095020E+03  0.00000000000E+00 0.  1.
         13    1    5    5    0    0 -0.36120998329E+03  0.12674724432E+03  0.63236411971E+03  0.73920355510E+03  0.00000000000E+00 0. -1.
        -13    1    5    5    0    0 -0.69595283934E+02 -0.30117496705E+01  0.67902843978E+02  0.97279856097E+02  0.00000000000E+00 0.  1.
          1    1    6    6  503    0  0.59828832624E+02  0.64270942895E+02 -0.59481649362E+02  0.10605804979E+03  0.00000000000E+00 0. -1.
         -1    1    6    6    0  503  0.83370105555E+02  0.23782401920E+03 -0.42000323854E+02  0.25548946321E+03  0.00000000000E+00 0.  1.
<mgrwt>
<rscale>  0 0.15946996E+04</rscale>
<asrwt>0</asrwt>
<pdfrwt beam="1">  1        2 0.24798073E+00 0.15946996E+04</pdfrwt>
<pdfrwt beam="2">  1       -1 0.60681053E-01 0.15946996E+04</pdfrwt>
<totfact> 0.33058014E+01</totfact>
</mgrwt>
</event>
<event>
12    7  0.1909736E-007  0.1450296E+04  0.7818608E-02  0.8918195E-01
         -1   -1    0    0    0  501 -0.00000000000E+00  0.00000000000E+00  0.33450794295E+03  0.33450794295E+03  0.00000000000E+00 0.  1.
          2   -1    0    0  501    0  0.00000000000E+00 -0.00000000000E+00 -0.15719798212E+04  0.15719798212E+04  0.00000000000E+00 0. -1.
         24    2    1    2    0    0  0.58144883594E+02  0.95055897469E+02 -0.10629791107E+04  0.10717590909E+04  0.79539349004E+02 0.  0.
        254    2    1    2    0    0 -0.58144883594E+02 -0.95055897469E+02 -0.17449276752E+03  0.83472867322E+03  0.80864564603E+03 0.  0.
         23    2    4    4    0    0 -0.33924895741E+03 -0.10675493133E+03 -0.33619291974E+03  0.49769608426E+03  0.90494433735E+02 0.  0.
         23    2    4    4    0    0  0.28110407382E+03  0.11699033863E+02  0.16170015222E+03  0.33703258896E+03  0.91036581002E+02 0.  0.
          2    1    3    3  502    0  0.30307550263E+02  0.32235493598E+02 -0.75102799522E+03  0.75233019630E+03  0.00000000000E+00 0. -1.
         -1    1    3    3    0  502  0.27837333330E+02  0.62820403871E+02 -0.31195111550E+03  0.31942889464E+03  0.00000000000E+00 0.  1.
         13    1    5    5    0    0 -0.12945860283E+03 -0.65859856073E+02 -0.86656226168E+02  0.16913412436E+03  0.00000000000E+00 0.  1.
        -13    1    5    5    0    0 -0.20979035458E+03 -0.40895075258E+02 -0.24953669358E+03  0.32856195990E+03  0.00000000000E+00 0. -1.
          3    1    6    6  503    0  0.24925169246E+03 -0.20751610787E+02  0.14030400448E+03  0.28677909480E+03  0.00000000000E+00 0. -1.
         -3    1    6    6    0  503  0.31852381359E+02  0.32450644650E+02  0.21396147744E+02  0.50253494154E+02  0.00000000000E+00 0.  1.
<mgrwt>
<rscale>  0 0.14502962E+04</rscale>
<asrwt>0</asrwt>
<pdfrwt beam="1">  1        2 0.24184305E+00 0.14502962E+04</pdfrwt>
<pdfrwt beam="2">  1       -1 0.51462761E-01 0.14502962E+04</pdfrwt>
<totfact> 0.48525625E+01</totfact>
</mgrwt>
</event>
<event>
12    7  0.1909736E-007  0.2491123E+04  0.7818608E-02  0.8406155E-01
         -1   -1    0    0    0  501 -0.00000000000E+00  0.00000000000E+00  0.47992440768E+03  0.47992440768E+03  0.00000000000E+00 0.  1.
          2   -1    0    0  501    0  0.00000000000E+00 -0.00000000000E+00 -0.32326415332E+04  0.32326415332E+04  0.00000000000E+00 0. -1.
         24    2    1    2    0    0 -0.77170115523E+03 -0.84231659194E+02 -0.75079445049E+02  0.78405794583E+03  0.80574772479E+02 0.  0.
        254    2    1    2    0    0  0.77170115523E+03  0.84231659194E+02 -0.26776376805E+04  0.29285079950E+04  0.89654775877E+03 0.  0.
         23    2    4    4    0    0 -0.77725535655E+02 -0.21703394739E+03 -0.33637954198E+03  0.41792835078E+03  0.91476318847E+02 0.  0.
         23    2    4    4    0    0  0.84942669088E+03  0.30126560658E+03 -0.23412581385E+04  0.25105796442E+04  0.96092716918E+02 0.  0.
          4    1    3    3  502    0 -0.19035551566E+03 -0.40761234038E+01  0.12047677123E+02  0.19077993513E+03  0.00000000000E+00 0. -1.
         -3    1    3    3    0  502 -0.58134563957E+03 -0.80155535790E+02 -0.87127122172E+02  0.59327801070E+03  0.00000000000E+00 0.  1.
         13    1    5    5    0    0  0.72980780105E+01  0.24222456897E+01 -0.33429775339E+02  0.34302756391E+02  0.00000000000E+00 0. -1.
        -13    1    5    5    0    0 -0.85023613666E+02 -0.21945619308E+03 -0.30294976664E+03  0.38362559439E+03  0.00000000000E+00 0.  1.
          1    1    6    6  503    0  0.15644489307E+03  0.41248852597E+02 -0.33186092295E+03  0.36919932908E+03  0.00000000000E+00 0. -1.
         -1    1    6    6    0  503  0.69298179782E+03  0.26001675398E+03 -0.20093972155E+04  0.21413803152E+04  0.00000000000E+00 0.  1.
<mgrwt>
<rscale>  0 0.24911231E+04</rscale>
<asrwt>0</asrwt>
<pdfrwt beam="1">  1        2 0.49732950E+00 0.24911231E+04</pdfrwt>
<pdfrwt beam="2">  1       -1 0.73834520E-01 0.24911231E+04</pdfrwt>
<totfact> 0.23162052E+00</totfact>
</mgrwt>
</event>
<event>
12    7  0.1909736E-007  0.3237646E+04  0.7818608E-02  0.8178945E-01
         -1   -1    0    0    0  501 -0.00000000000E+00  0.00000000000E+00  0.22711125716E+04  0.22711125716E+04  0.00000000000E+00 0.  1.
          2   -1    0    0  501    0  0.00000000000E+00 -0.00000000000E+00 -0.11538781822E+04  0.11538781822E+04  0.00000000000E+00 0. -1.
         24    2    1    2    0    0 -0.51270206717E+02  0.28044784777E+03  0.20667909077E+04  0.20879518668E+04  0.81478294972E+02 0.  0.
        254    2    1    2    0    0  0.51270206717E+02 -0.28044784777E+03 -0.94955651830E+03  0.13370388870E+04  0.89707066297E+03 0.  0.
         23    2    4    4    0    0  0.64360051769E+02  0.20399260389E+03  0.33318518246E+02  0.23789602672E+03  0.98636692805E+02 0.  0.
         23    2    4    4    0    0 -0.13089845052E+02 -0.48444045166E+03 -0.98287503655E+03  0.10991428602E+04  0.84957604002E+02 0.  0.
          4    1    3    3  502    0 -0.46774699916E+02  0.11431474422E+03  0.66804128941E+03  0.67936359753E+03  0.00000000000E+00 0. -1.
         -3    1    3    3    0  502 -0.44955068008E+01  0.16613310355E+03  0.13987496183E+04  0.14085882693E+04  0.00000000000E+00 0.  1.
         13    1    5    5    0    0  0.40984190456E+01  0.43197572234E+02 -0.32274438625E+02  0.54078338308E+02  0.00000000000E+00 0. -1.
        -13    1    5    5    0    0  0.60261632724E+02  0.16079503165E+03  0.65592956871E+02  0.18381768841E+03  0.00000000000E+00 0.  1.
          1    1    6    6  503    0 -0.27414101300E+02 -0.47618653791E+02 -0.10818789346E+03  0.12134121077E+03  0.00000000000E+00 0. -1.
         -1    1    6    6    0  503  0.14324256248E+02 -0.43682179786E+03 -0.87468714309E+03  0.97780164946E+03  0.00000000000E+00 0.  1.
<mgrwt>
<rscale>  0 0.32376456E+04</rscale>
<asrwt>0</asrwt>
<pdfrwt beam="1">  1        2 0.17751972E+00 0.32376456E+04</pdfrwt>
<pdfrwt beam="2">  1       -1 0.34940193E+00 0.32376456E+04</pdfrwt>
<totfact> 0.30267874E-01</totfact>
</mgrwt>
</event>
<event>
12    7  0.1909736E-007  0.3942532E+04  0.7818608E-02  0.8016241E-01
         -1   -1    0    0    0  501 -0.00000000000E+00  0.00000000000E+00  0.13356336841E+04  0.13356336841E+04  0.00000000000E+00 0.  1.
          2   -1    0    0  501    0  0.00000000000E+00 -0.00000000000E+00 -0.29093979969E+04  0.29093979969E+04  0.00000000000E+00 0. -1.
         24    2    1    2    0    0  0.78102763215E+03  0.29023388692E+03 -0.25465407048E+04  0.26805672760E+04  0.79570652828E+02 0.  0.
        254    2    1    2    0    0 -0.78102763215E+03 -0.29023388692E+03  0.97277639201E+03  0.15644644050E+04  0.89834018852E+03 0.  0.
         23    2    4    4    0    0 -0.29916043564E+03  0.26430211342E+03  0.10091476274E+03  0.42139138040E+03  0.89634439403E+02 0.  0.
         23    2    4    4    0    0 -0.48186719652E+03 -0.55453600034E+03  0.87186162927E+03  0.11430730246E+04  0.82262191809E+02 0.  0.
          2    1    3    3  502    0  0.68124507485E+03  0.22912054653E+03 -0.21364125443E+04  0.22540740086E+04  0.00000000000E+00 0. -1.
         -1    1    3    3    0  502  0.99782557305E+02  0.61113340392E+02 -0.41012816049E+03  0.42649326740E+03  0.00000000000E+00 0.  1.
         13    1    5    5    0    0 -0.18637737536E+03  0.14778792180E+03  0.16135564386E+02  0.23840753410E+03  0.00000000000E+00 0. -1.
        -13    1    5    5    0    0 -0.11278306028E+03  0.11651419161E+03  0.84779198352E+02  0.18298384630E+03  0.00000000000E+00 0.  1.
          1    1    6    6  503    0 -0.17492337483E+03 -0.19109005482E+03  0.36885700963E+03  0.45074281987E+03  0.00000000000E+00 0. -1.
         -1    1    6    6    0  503 -0.30694382168E+03 -0.36344594552E+03  0.50300461964E+03  0.69233020472E+03  0.00000000000E+00 0.  1.
<mgrwt>
<rscale>  0 0.39425322E+04</rscale>
<asrwt>0</asrwt>
<pdfrwt beam="1">  1        2 0.44759969E+00 0.39425322E+04</pdfrwt>
<pdfrwt beam="2">  1       -1 0.20548211E+00 0.39425322E+04</pdfrwt>
<totfact> 0.24615119E-01</totfact>
</mgrwt>
</event>
<event>
12    7  0.1909736E-007  0.2654118E+04  0.7818608E-02  0.8350048E-01
         -1   -1    0    0    0  501 -0.00000000000E+00  0.00000000000E+00  0.12954003617E+04  0.12954003617E+04  0.00000000000E+00 0.  1.
          2   -1    0    0  501    0  0.00000000000E+00 -0.00000000000E+00 -0.13594909753E+04  0.13594909753E+04  0.00000000000E+00 0. -1.
         24    2    1    2    0    0 -0.76588468915E+03 -0.80623850209E+03  0.34853545171E+03  0.11682586307E+04  0.82166828834E+02 0.  0.
        254    2    1    2    0    0  0.76588468915E+03  0.80623850209E+03 -0.41262606535E+03  0.14866327063E+04  0.89622355151E+03 0.  0.
         23    2    4    4    0    0  0.23982657942E+03  0.82097921248E+03 -0.94749142454E+02  0.86496461207E+03  0.87536989980E+02 0.  0.
         23    2    4    4    0    0  0.52605810974E+03 -0.14740710391E+02 -0.31787692289E+03  0.62166809423E+03  0.92038350204E+02 0.  0.
          2    1    3    3  502    0 -0.71640302048E+03 -0.77984859424E+03  0.33241776926E+03  0.11099093166E+04  0.00000000000E+00 0. -1.
         -1    1    3    3    0  502 -0.49481668674E+02 -0.26389907848E+02  0.16117682452E+02  0.58349314123E+02  0.00000000000E+00 0.  1.
         13    1    5    5    0    0  0.13887097563E+03  0.48685479317E+03 -0.12823740931E+02  0.50643576674E+03  0.00000000000E+00 0. -1.
        -13    1    5    5    0    0  0.10095560379E+03  0.33412441931E+03 -0.81925401523E+02  0.35852884532E+03  0.00000000000E+00 0.  1.
          2    1    6    6  503    0  0.86949694113E+02 -0.39972266722E+01 -0.95947238456E+02  0.12954574364E+03  0.00000000000E+00 0. -1.
         -2    1    6    6    0  503  0.43910841562E+03 -0.10743483719E+02 -0.22192968444E+03  0.49212235059E+03  0.00000000000E+00 0.  1.
<mgrwt>
<rscale>  0 0.26541176E+04</rscale>
<asrwt>0</asrwt>
<pdfrwt beam="1">  1        2 0.20915246E+00 0.26541176E+04</pdfrwt>
<pdfrwt beam="2">  1       -1 0.19929236E+00 0.26541176E+04</pdfrwt>
<totfact> 0.23313865E+00</totfact>
</mgrwt>
</event>
<event>
12    7  0.1909736E-007  0.1783436E+04  0.7818608E-02  0.8715158E-01
         -1   -1    0    0    0  501 -0.00000000000E+00  0.00000000000E+00  0.11260391661E+04  0.11260391661E+04  0.00000000000E+00 0.  1.
          2   -1    0    0  501    0  0.00000000000E+00 -0.00000000000E+00 -0.70615711424E+03  0.70615711424E+03  0.00000000000E+00 0. -1.
         24    2    1    2    0    0  0.42900443489E+03 -0.36676160445E+03 -0.19045307648E+03  0.60099811709E+03  0.79796508403E+02 0.  0.
        254    2    1    2    0    0 -0.42900443489E+03  0.36676160445E+03  0.61033512839E+03  0.12311981633E+04  0.90817458052E+03 0.  0.
         23    2    4    4    0    0 -0.21705289653E+03  0.58037432443E+03  0.10353801238E+03  0.63462336345E+03  0.89890917660E+02 0.  0.
         23    2    4    4    0    0 -0.21195153836E+03 -0.21361271998E+03  0.50679711600E+03  0.59657479984E+03  0.92218904068E+02 0.  0.
          2    1    3    3  502    0  0.26261403512E+03 -0.24572474244E+03 -0.15748504171E+03  0.39261726764E+03  0.00000000000E+00 0. -1.
         -1    1    3    3    0  502  0.16639039977E+03 -0.12103686201E+03 -0.32968034773E+02  0.20838084945E+03  0.00000000000E+00 0.  1.
         13    1    5    5    0    0 -0.17024893509E+03  0.48472079015E+03  0.11807901496E+03  0.52714476007E+03  0.00000000000E+00 0.  1.
        -13    1    5    5    0    0 -0.46803961438E+02  0.95653534286E+02 -0.14541002580E+02  0.10747860338E+03  0.00000000000E+00 0. -1.
          4    1    6    6  503    0 -0.18197344704E+03 -0.16114714038E+03  0.33085736654E+03  0.41054760172E+03  0.00000000000E+00 0.  1.
         -4    1    6    6    0  503 -0.29978091322E+02 -0.52465579599E+02  0.17593974946E+03  0.18602719813E+03  0.00000000000E+00 0. -1.
<mgrwt>
<rscale>  0 0.17834355E+04</rscale>
<asrwt>0</asrwt>
<pdfrwt beam="1">  1        2 0.10863956E+00 0.17834355E+04</pdfrwt>
<pdfrwt beam="2">  1       -1 0.17323680E+00 0.17834355E+04</pdfrwt>
<totfact> 0.10189496E+01</totfact>
</mgrwt>
</event>
<event>
12    7  0.1909736E-007  0.1539537E+04  0.7818608E-02  0.8858578E-01
         -1   -1    0    0    0  501 -0.00000000000E+00  0.00000000000E+00  0.14323660258E+04  0.14323660258E+04  0.00000000000E+00 0.  1.
          2   -1    0    0  501    0  0.00000000000E+00 -0.00000000000E+00 -0.41368185576E+03  0.41368185576E+03  0.00000000000E+00 0. -1.
         24    2    1    2    0    0 -0.30528657196E+03 -0.73662962269E+02 -0.13644169722E+03  0.35122590475E+03  0.78212380051E+02 0.  0.
        254    2    1    2    0    0  0.30528657196E+03  0.73662962269E+02  0.11551258672E+04  0.14948219768E+04  0.89529372284E+03 0.  0.
         23    2    4    4    0    0 -0.23612615410E+03 -0.52343738140E+02  0.63668005910E+02  0.26645547473E+03  0.91921039289E+02 0.  0.
         23    2    4    4    0    0  0.54141272607E+03  0.12600670041E+03  0.10914578613E+04  0.12283665021E+04  0.92728484632E+02 0.  0.
          2    1    3    3  502    0 -0.18507369424E+03 -0.60438547854E+02 -0.45575168250E+02  0.19995546085E+03  0.00000000000E+00 0. -1.
         -1    1    3    3    0  502 -0.12021287773E+03 -0.13224414415E+02 -0.90866528968E+02  0.15127044389E+03  0.00000000000E+00 0.  1.
         13    1    5    5    0    0 -0.42836821927E+02 -0.31188980244E+02  0.47805407800E+02  0.71365978004E+02  0.00000000000E+00 0.  1.
        -13    1    5    5    0    0 -0.19328933218E+03 -0.21154757896E+02  0.15862598110E+02  0.19508949673E+03  0.00000000000E+00 0. -1.
          4    1    6    6  503    0  0.29527211903E+03  0.49173927331E+02  0.67728981637E+03  0.74048983434E+03  0.00000000000E+00 0. -1.
         -4    1    6    6    0  503  0.24614060703E+03  0.76832773078E+02  0.41416804497E+03  0.48787666774E+03  0.00000000000E+00 0.  1.
<mgrwt>
<rscale>  0 0.15395374E+04</rscale>
<asrwt>0</asrwt>
<pdfrwt beam="1">  1        2 0.63643363E-01 0.15395374E+04</pdfrwt>
<pdfrwt beam="2">  1       -1 0.22036400E+00 0.15395374E+04</pdfrwt>
<totfact> 0.92303790E+00</totfact>
</mgrwt>
</event>
<event>
12    7  0.1909736E-007  0.1316730E+04  0.7818608E-02  0.9016402E-01
          2   -1    0    0  501    0  0.00000000000E+00  0.00000000000E+00  0.12668264767E+04  0.12668264767E+04  0.00000000000E+00 0. -1.
         -1   -1    0    0    0  501 -0.00000000000E+00 -0.00000000000E+00 -0.34214986147E+03  0.34214986147E+03  0.00000000000E+00 0.  1.
         24    2    1    2    0    0 -0.16624941467E+03 -0.29871501555E+03  0.23660632443E+03  0.42309559317E+03  0.78471649697E+02 0.  0.
        254    2    1    2    0    0  0.16624941467E+03  0.29871501555E+03  0.68807029076E+03  0.11858807450E+04  0.90332878169E+03 0.  0.
         23    2    4    4    0    0 -0.19565249493E+03  0.16656149468E+03 -0.11208509071E+03  0.29416296896E+03  0.89141205208E+02 0.  0.
         23    2    4    4    0    0  0.36190190959E+03  0.13215352088E+03  0.80015538148E+03  0.89171777600E+03  0.80463732727E+02 0.  0.
          2    1    3    3  502    0 -0.19008044229E+02 -0.28474694092E+02  0.57781973988E+02  0.67163014130E+02  0.00000000000E+00 0. -1.
         -1    1    3    3    0  502 -0.14724137044E+03 -0.27024032146E+03  0.17882435045E+03  0.35593257904E+03  0.00000000000E+00 0.  1.
         13    1    5    5    0    0 -0.19468702992E+03  0.14893953317E+03 -0.12212115482E+03  0.27386054957E+03  0.00000000000E+00 0.  1.
        -13    1    5    5    0    0 -0.96546501144E+00  0.17621961507E+02  0.10036064109E+02  0.20302419384E+02  0.00000000000E+00 0. -1.
          3    1    6    6  503    0  0.12180578048E+02 -0.43519739022E+00  0.53518357252E+01  0.13311574812E+02  0.00000000000E+00 0. -1.
         -3    1    6    6    0  503  0.34972133155E+03  0.13258871827E+03  0.79480354575E+03  0.87840620119E+03  0.00000000000E+00 0.  1.
<mgrwt>
<rscale>  0 0.13167300E+04</rscale>
<asrwt>0</asrwt>
<pdfrwt beam="1">  1        2 0.19489638E+00 0.13167300E+04</pdfrwt>
<pdfrwt beam="2">  1       -1 0.52638441E-01 0.13167300E+04</pdfrwt>
<totfact> 0.70166201E+01</totfact>
</mgrwt>
</event>
<event>
12    7  0.1909736E-007  0.1284227E+04  0.7818608E-02  0.9042168E-01
         -3   -1    0    0    0  501 -0.00000000000E+00  0.00000000000E+00  0.65625500158E+03  0.65625500158E+03  0.00000000000E+00 0.  1.
          4   -1    0    0  501    0  0.00000000000E+00 -0.00000000000E+00 -0.62827632142E+03  0.62827632142E+03  0.00000000000E+00 0. -1.
         24    2    1    2    0    0  0.66179045791E+02 -0.29856063790E+03 -0.10460703896E+03  0.33266304460E+03  0.78765144812E+02 0.  0.
        254    2    1    2    0    0 -0.66179045791E+02  0.29856063790E+03  0.13258571912E+03  0.95186827841E+03  0.89160312130E+03 0.  0.
         23    2    4    4    0    0  0.25216486353E+03 -0.78136566930E+02 -0.20550651099E+03  0.34686351609E+03  0.91591108974E+02 0.  0.
         23    2    4    4    0    0 -0.31834390932E+03  0.37669720483E+03  0.33809223011E+03  0.60500476232E+03  0.92091137680E+02 0.  0.
          4    1    3    3  502    0 -0.91698801602E+01 -0.85873500942E+02 -0.52559883280E+02  0.10109839859E+03  0.00000000000E+00 0. -1.
         -3    1    3    3    0  502  0.75348925951E+02 -0.21268713696E+03 -0.52047155684E+02  0.23156464601E+03  0.00000000000E+00 0.  1.
         13    1    5    5    0    0  0.78672584540E+02 -0.62351359289E+02 -0.45088264243E+02  0.11004553210E+03  0.00000000000E+00 0.  1.
        -13    1    5    5    0    0  0.17349227899E+03 -0.15785207641E+02 -0.16041824675E+03  0.23681798398E+03  0.00000000000E+00 0. -1.
          3    1    6    6  503    0 -0.30785905437E+03  0.32001287315E+03  0.30095381879E+03  0.53643139113E+03  0.00000000000E+00 0. -1.
         -3    1    6    6    0  503 -0.10484854946E+02  0.56684331680E+02  0.37138411323E+02  0.68573371193E+02  0.00000000000E+00 0.  1.
<mgrwt>
<rscale>  0 0.12842266E+04</rscale>
<asrwt>0</asrwt>
<pdfrwt beam="1">  1        4 0.96657896E-01 0.12842266E+04</pdfrwt>
<pdfrwt beam="2">  1       -3 0.10096231E+00 0.12842266E+04</pdfrwt>
<totfact> 0.17160151E+00</totfact>
</mgrwt>
</event>
<event>
12    7  0.1909736E-007  0.1558357E+04  0.7818608E-02  0.8846547E-01
         -1   -1    0    0    0  501 -0.00000000000E+00  0.00000000000E+00  0.21159069424E+03  0.21159069424E+03  0.00000000000E+00 0.  1.
          2   -1    0    0  501    0  0.00000000000E+00 -0.00000000000E+00 -0.28693099689E+04  0.28693099689E+04  0.00000000000E+00 0. -1.
         24    2    1    2    0    0  0.29094202711E+03  0.61479944510E+02 -0.17528089455E+04  0.17795973134E+04  0.78742312079E+02 0.  0.
        254    2    1    2    0    0 -0.29094202711E+03 -0.61479944510E+02 -0.90491032918E+03  0.13013033498E+04  0.88662317673E+03 0.  0.
         23    2    4    4    0    0 -0.34537398495E+03  0.28594357410E+03 -0.18384227766E+03  0.49358325134E+03  0.93699124309E+02 0.  0.
         23    2    4    4    0    0  0.54431957836E+02 -0.34742351861E+03 -0.72106805152E+03  0.80772009842E+03  0.93843929718E+02 0.  0.
          2    1    3    3  502    0  0.14483987509E+03  0.13409101484E+02 -0.10590920848E+04  0.10690343482E+04  0.00000000000E+00 0. -1.
         -1    1    3    3    0  502  0.14610215202E+03  0.48070843026E+02 -0.69371686063E+03  0.71056296519E+03  0.00000000000E+00 0.  1.
         13    1    5    5    0    0 -0.21442912433E+02  0.13059650715E+02 -0.38156138476E+02  0.45675418704E+02  0.00000000000E+00 0. -1.
        -13    1    5    5    0    0 -0.32393107251E+03  0.27288392339E+03 -0.14568613918E+03  0.44790783263E+03  0.00000000000E+00 0.  1.
          1    1    6    6  503    0 -0.17362437385E+01  0.23409592499E+01 -0.39334706412E+02  0.39442537457E+02  0.00000000000E+00 0. -1.
         -1    1    6    6    0  503  0.56168201574E+02 -0.34976447786E+03 -0.68173334511E+03  0.76827756096E+03  0.00000000000E+00 0.  1.
<mgrwt>
<rscale>  0 0.15583572E+04</rscale>
<asrwt>0</asrwt>
<pdfrwt beam="1">  1        2 0.44143231E+00 0.15583572E+04</pdfrwt>
<pdfrwt beam="2">  1       -1 0.32552414E-01 0.15583572E+04</pdfrwt>
<totfact> 0.20407312E+01</totfact>
</mgrwt>
</event>
<event>
12    7  0.1909736E-007  0.2534134E+04  0.7818608E-02  0.8390925E-01
          2   -1    0    0  501    0  0.00000000000E+00  0.00000000000E+00  0.71214095269E+03  0.71214095269E+03  0.00000000000E+00 0. -1.
         -1   -1    0    0    0  501 -0.00000000000E+00 -0.00000000000E+00 -0.22544115506E+04  0.22544115506E+04  0.00000000000E+00 0.  1.
         24    2    1    2    0    0 -0.64130910704E+03  0.55810069529E+03  0.15640751108E+03  0.86812819533E+03  0.80184145292E+02 0.  0.
        254    2    1    2    0    0  0.64130910704E+03 -0.55810069529E+03 -0.16986781090E+04  0.20984243079E+04  0.89169697845E+03 0.  0.
         23    2    4    4    0    0  0.45758327446E+03 -0.60476628757E+03 -0.57850175402E+03  0.95880490251E+03  0.97559448623E+02 0.  0.
         23    2    4    4    0    0  0.18372583259E+03  0.46665592288E+02 -0.11201763550E+04  0.11396194054E+04  0.89467670000E+02 0.  0.
          2    1    3    3  502    0 -0.19961356871E+03  0.20972120798E+03  0.26269157111E+02  0.29072088075E+03  0.00000000000E+00 0. -1.
         -1    1    3    3    0  502 -0.44169553834E+03  0.34837948731E+03  0.13013835397E+03  0.57740731459E+03  0.00000000000E+00 0.  1.
         13    1    5    5    0    0  0.10674639115E+03 -0.15463217160E+03 -0.19751760569E+03  0.27261530602E+03  0.00000000000E+00 0.  1.
        -13    1    5    5    0    0  0.35083688331E+03 -0.45013411597E+03 -0.38098414834E+03  0.68618959649E+03  0.00000000000E+00 0. -1.
          4    1    6    6  503    0  0.14093127934E+03  0.30560380574E+01 -0.90590891312E+03  0.91681073496E+03  0.00000000000E+00 0. -1.
         -4    1    6    6    0  503  0.42794553250E+02  0.43609554231E+02 -0.21426744183E+03  0.22280867047E+03  0.00000000000E+00 0.  1.
<mgrwt>
<rscale>  0 0.25341340E+04</rscale>
<asrwt>0</asrwt>
<pdfrwt beam="1">  1        2 0.10956015E+00 0.25341340E+04</pdfrwt>
<pdfrwt beam="2">  1       -1 0.34683255E+00 0.25341340E+04</pdfrwt>
<totfact> 0.66332903E-01</totfact>
</mgrwt>
</event>
<event>
12    7  0.1909736E-007  0.1615656E+04  0.7818608E-02  0.8810987E-01
         -1   -1    0    0    0  501 -0.00000000000E+00  0.00000000000E+00  0.30540503669E+03  0.30540503669E+03  0.00000000000E+00 0.  1.
          2   -1    0    0  501    0  0.00000000000E+00 -0.00000000000E+00 -0.21367901003E+04  0.21367901003E+04  0.00000000000E+00 0. -1.
         24    2    1    2    0    0 -0.48944998459E+03  0.88263789193E+01 -0.23732514927E+03  0.54994213464E+03  0.80460751926E+02 0.  0.
        254    2    1    2    0    0  0.48944998459E+03 -0.88263789193E+01 -0.15940599143E+04  0.18922530023E+04  0.89440215898E+03 0.  0.
         23    2    4    4    0    0  0.63022196512E+03 -0.15614067185E+03 -0.15223055551E+04  0.16576948398E+04  0.94754123857E+02 0.  0.
         23    2    4    4    0    0 -0.14077198053E+03  0.14731429294E+03 -0.71754359234E+02  0.23455816257E+03  0.91381574475E+02 0.  0.
          2    1    3    3  502    0 -0.59421308886E+02  0.18209605696E+02 -0.54157090722E+02  0.82434653907E+02  0.00000000000E+00 0. -1.
         -3    1    3    3    0  502 -0.43002867570E+03 -0.93832267769E+01 -0.18316805855E+03  0.46750748074E+03  0.00000000000E+00 0.  1.
         13    1    5    5    0    0  0.39997053711E+03 -0.61289591340E+02 -0.87087877361E+03  0.96029301929E+03  0.00000000000E+00 0.  1.
        -13    1    5    5    0    0  0.23025142801E+03 -0.94851080515E+02 -0.65142678147E+03  0.69740182047E+03  0.00000000000E+00 0. -1.
          1    1    6    6  503    0 -0.22537426399E+02  0.86074501757E+02 -0.16994053782E+02  0.90584509191E+02  0.00000000000E+00 0. -1.
         -1    1    6    6    0  503 -0.11823455413E+03  0.61239791178E+02 -0.54760305452E+02  0.14397365338E+03  0.00000000000E+00 0.  1.
<mgrwt>
<rscale>  0 0.16156565E+04</rscale>
<asrwt>0</asrwt>
<pdfrwt beam="1">  1        2 0.32873694E+00 0.16156565E+04</pdfrwt>
<pdfrwt beam="2">  1       -1 0.46985390E-01 0.16156565E+04</pdfrwt>
<totfact> 0.27620950E+01</totfact>
</mgrwt>
</event>
<event>
12    7  0.1909736E-007  0.1607674E+04  0.7818608E-02  0.8815847E-01
         -1   -1    0    0    0  501 -0.00000000000E+00  0.00000000000E+00  0.13262512830E+03  0.13262512830E+03  0.00000000000E+00 0.  1.
          2   -1    0    0  501    0  0.00000000000E+00 -0.00000000000E+00 -0.48720336071E+04  0.48720336071E+04  0.00000000000E+00 0. -1.
         24    2    1    2    0    0  0.12337369766E+03  0.91584247208E+02  0.49107691083E+01  0.17327234068E+03  0.79940257581E+02 0.  0.
        254    2    1    2    0    0 -0.12337369766E+03 -0.91584247208E+02 -0.47443192479E+04  0.48313863947E+04  0.90006701163E+03 0.  0.
         23    2    4    4    0    0  0.73915713948E+02 -0.34488995845E+03 -0.39900522347E+04  0.40066278655E+04  0.90207543463E+02 0.  0.
         23    2    4    4    0    0 -0.19728941161E+03  0.25330571124E+03 -0.75426701320E+03  0.82475852920E+03  0.90669779987E+02 0.  0.
          4    1    3    3  502    0  0.43378235068E+02  0.16852459435E+02 -0.33409020420E+02  0.57287339894E+02  0.00000000000E+00 0. -1.
         -3    1    3    3    0  502  0.79995462590E+02  0.74731787773E+02  0.38319789529E+02  0.11598500079E+03  0.00000000000E+00 0.  1.
         13    1    5    5    0    0 -0.64646502012E+01 -0.17705553631E+03 -0.18126825166E+04  0.18213204991E+04  0.00000000000E+00 0.  1.
        -13    1    5    5    0    0  0.80380364150E+02 -0.16783442214E+03 -0.21773697181E+04  0.21853073664E+04  0.00000000000E+00 0. -1.
          2    1    6    6  503    0 -0.14691846657E+03  0.23494547336E+03 -0.58716525714E+03  0.64926685613E+03  0.00000000000E+00 0.  1.
         -2    1    6    6    0  503 -0.50370945035E+02  0.18360237879E+02 -0.16710175606E+03  0.17549167307E+03  0.00000000000E+00 0. -1.
<mgrwt>
<rscale>  0 0.16076742E+04</rscale>
<asrwt>0</asrwt>
<pdfrwt beam="1">  1        2 0.74954358E+00 0.16076742E+04</pdfrwt>
<pdfrwt beam="2">  1       -1 0.20403867E-01 0.16076742E+04</pdfrwt>
<totfact> 0.11049330E+00</totfact>
</mgrwt>
</event>
<event>
12    7  0.1909736E-007  0.2007104E+04  0.7818608E-02  0.8603306E-01
          2   -1    0    0  501    0  0.00000000000E+00  0.00000000000E+00  0.19267774405E+04  0.19267774405E+04  0.00000000000E+00 0. -1.
         -1   -1    0    0    0  501 -0.00000000000E+00 -0.00000000000E+00 -0.52269503705E+03  0.52269503705E+03  0.00000000000E+00 0.  1.
         24    2    1    2    0    0 -0.34920124611E+03  0.13800169271E+03 -0.30283522459E+03  0.48922216720E+03  0.81505693937E+02 0.  0.
        254    2    1    2    0    0  0.34920124611E+03 -0.13800169271E+03  0.17069176280E+04  0.19602503104E+04  0.88770913753E+03 0.  0.
         23    2    4    4    0    0 -0.15577394641E+03  0.24348181418E+03  0.75405372347E+03  0.81283330438E+03  0.92477276224E+02 0.  0.
         23    2    4    4    0    0  0.50497519252E+03 -0.38148350689E+03  0.95286390456E+03  0.11474170060E+04  0.89925268263E+02 0.  0.
          2    1    3    3  502    0 -0.35058722454E+01  0.53918941911E+01  0.46484674326E+01  0.79354843986E+01  0.00000000000E+00 0. -1.
         -1    1    3    3    0  502 -0.34569537387E+03  0.13260979852E+03 -0.30748369202E+03  0.48128668280E+03  0.00000000000E+00 0.  1.
         13    1    5    5    0    0 -0.87068494963E+02  0.20704730010E+03  0.58909247281E+03  0.63045971229E+03  0.00000000000E+00 0.  1.
        -13    1    5    5    0    0 -0.68705451449E+02  0.36434514079E+02  0.16496125066E+03  0.18237359209E+03  0.00000000000E+00 0. -1.
          4    1    6    6  503    0  0.28824422197E+03 -0.16916782919E+03  0.54003951858E+03  0.63509461307E+03  0.00000000000E+00 0. -1.
         -4    1    6    6    0  503  0.21673097055E+03 -0.21231567770E+03  0.41282438599E+03  0.51232239289E+03  0.00000000000E+00 0.  1.
<mgrwt>
<rscale>  0 0.20071044E+04</rscale>
<asrwt>0</asrwt>
<pdfrwt beam="1">  1        2 0.29642729E+00 0.20071044E+04</pdfrwt>
<pdfrwt beam="2">  1       -1 0.80414622E-01 0.20071044E+04</pdfrwt>
<totfact> 0.11967956E+01</totfact>
</mgrwt>
</event>
<event>
12    7  0.1909736E-007  0.1281804E+04  0.7818608E-02  0.9044120E-01
          2   -1    0    0  501    0  0.00000000000E+00  0.00000000000E+00  0.63117724038E+03  0.63117724038E+03  0.00000000000E+00 0. -1.
         -1   -1    0    0    0  501 -0.00000000000E+00 -0.00000000000E+00 -0.65077683863E+03  0.65077683863E+03  0.00000000000E+00 0.  1.
         24    2    1    2    0    0 -0.21011200348E+03 -0.26767266382E+03 -0.41972332224E+02  0.35296528522E+03  0.83827841015E+02 0.  0.
        254    2    1    2    0    0  0.21011200348E+03  0.26767266382E+03  0.22372733982E+02  0.92898879379E+03  0.86413189433E+03 0.  0.
         23    2    4    4    0    0  0.22094617153E+03  0.53662704293E+03  0.16497515747E+03  0.61093920513E+03  0.96146325282E+02 0.  0.
         23    2    4    4    0    0 -0.10834168049E+02 -0.26895437910E+03 -0.14260242349E+03  0.31804958866E+03  0.91467220494E+02 0.  0.
          4    1    3    3  502    0  0.45197466259E-01  0.29072857900E+00  0.86709274787E+01  0.86759177761E+01  0.00000000000E+00 0. -1.
         -3    1    3    3    0  502 -0.21015720095E+03 -0.26796339240E+03 -0.50643259702E+02  0.34428936744E+03  0.00000000000E+00 0.  1.
         13    1    5    5    0    0  0.21527353937E+03  0.43348057424E+03  0.14900627864E+03  0.50640988939E+03  0.00000000000E+00 0. -1.
        -13    1    5    5    0    0  0.56726321671E+01  0.10314646869E+03  0.15968878828E+02  0.10452931574E+03  0.00000000000E+00 0.  1.
          1    1    6    6  503    0 -0.20302743373E+02 -0.53981864513E+02 -0.70554482860E+02  0.91127263409E+02  0.00000000000E+00 0. -1.
         -1    1    6    6    0  503  0.94685753237E+01 -0.21497251459E+03 -0.72047940630E+02  0.22692232525E+03  0.00000000000E+00 0.  1.
<mgrwt>
<rscale>  0 0.12818042E+04</rscale>
<asrwt>0</asrwt>
<pdfrwt beam="1">  1        2 0.97104191E-01 0.12818042E+04</pdfrwt>
<pdfrwt beam="2">  1       -1 0.10011951E+00 0.12818042E+04</pdfrwt>
<totfact> 0.49720339E+01</totfact>
</mgrwt>
</event>
<event>
12    7  0.1909736E-007  0.1345639E+04  0.7818608E-02  0.8994136E-01
         -1   -1    0    0    0  501 -0.00000000000E+00  0.00000000000E+00  0.96103421426E+02  0.96103421426E+02  0.00000000000E+00 0.  1.
          2   -1    0    0  501    0  0.00000000000E+00 -0.00000000000E+00 -0.47104024101E+04  0.47104024101E+04  0.00000000000E+00 0. -1.
         24    2    1    2    0    0 -0.11830620285E+02  0.35324914594E+03 -0.15728743606E+04  0.16141333584E+04  0.81042099759E+02 0.  0.
        254    2    1    2    0    0  0.11830620285E+02 -0.35324914594E+03 -0.30414246281E+04  0.31923724731E+04  0.90335669363E+03 0.  0.
         23    2    4    4    0    0  0.11088048963E+03 -0.16122398106E+03 -0.92558673983E+02  0.23454806511E+03  0.90321822778E+02 0.  0.
         23    2    4    4    0    0 -0.99049869341E+02 -0.19202516488E+03 -0.29488659541E+04  0.29578244080E+04  0.78932075805E+02 0.  0.
          4    1    3    3  502    0 -0.14896264637E+02  0.23153325792E+03 -0.11885749750E+04  0.12110078527E+04  0.00000000000E+00 0. -1.
         -3    1    3    3    0  502  0.30656443525E+01  0.12171588802E+03 -0.38429938562E+03  0.40312550572E+03  0.00000000000E+00 0.  1.
         13    1    5    5    0    0  0.38306373917E+02 -0.30878081664E-01 -0.10936458425E+02  0.39836984813E+02  0.00000000000E+00 0. -1.
        -13    1    5    5    0    0  0.72574115709E+02 -0.16119310298E+03 -0.81622215558E+02  0.19471108030E+03  0.00000000000E+00 0.  1.
          4    1    6    6  503    0  0.11049097161E+02 -0.33036233177E+01 -0.15411151165E+03  0.15454240356E+03  0.00000000000E+00 0. -1.
         -4    1    6    6    0  503 -0.11009896650E+03 -0.18872154157E+03 -0.27947544425E+04  0.28032820044E+04  0.00000000000E+00 0.  1.
<mgrwt>
<rscale>  0 0.13456386E+04</rscale>
<asrwt>0</asrwt>
<pdfrwt beam="1">  1        2 0.72467727E+00 0.13456386E+04</pdfrwt>
<pdfrwt beam="2">  1       -1 0.14785142E-01 0.13456386E+04</pdfrwt>
<totfact> 0.29559131E+00</totfact>
</mgrwt>
</event>
<event>
12    7  0.1909736E-007  0.1957720E+04  0.7818608E-02  0.8626647E-01
          2   -1    0    0  501    0  0.00000000000E+00  0.00000000000E+00  0.31439155177E+04  0.31439155177E+04  0.00000000000E+00 0. -1.
         -1   -1    0    0    0  501 -0.00000000000E+00 -0.00000000000E+00 -0.30476862680E+03  0.30476862680E+03  0.00000000000E+00 0.  1.
         24    2    1    2    0    0  0.59940570230E+02  0.61424844076E+03  0.17937672118E+04  0.18986214653E+04  0.79174739822E+02 0.  0.
        254    2    1    2    0    0 -0.59940570230E+02 -0.61424844076E+03  0.10453796790E+04  0.15500626792E+04  0.96383692450E+03 0.  0.
         23    2    4    4    0    0  0.87061176854E+02 -0.74642941707E+03  0.10913064577E+04  0.13278358508E+04  0.86381356530E+02 0.  0.
         23    2    4    4    0    0 -0.14700174708E+03  0.13218097631E+03 -0.45926778683E+02  0.22222682838E+03  0.90521655451E+02 0.  0.
          2    1    3    3  502    0  0.32345592103E+02  0.42210580931E+03  0.13337974834E+04  0.13993696003E+04  0.00000000000E+00 0. -1.
         -1    1    3    3    0  502  0.27594978128E+02  0.19214263144E+03  0.45996972842E+03  0.49925186499E+03  0.00000000000E+00 0.  1.
         13    1    5    5    0    0  0.75692442363E+02 -0.28738237737E+03  0.43741263698E+03  0.52881735187E+03  0.00000000000E+00 0.  1.
        -13    1    5    5    0    0  0.11368734491E+02 -0.45904703970E+03  0.65389382075E+03  0.79901849890E+03  0.00000000000E+00 0. -1.
          1    1    6    6  503    0 -0.18899194616E+02  0.92618929883E+01 -0.39282710516E+02  0.44565609660E+02  0.00000000000E+00 0. -1.
         -1    1    6    6    0  503 -0.12810255247E+03  0.12291908332E+03 -0.66440681660E+01  0.17766121872E+03  0.00000000000E+00 0.  1.
<mgrwt>
<rscale>  0 0.19577199E+04</rscale>
<asrwt>0</asrwt>
<pdfrwt beam="1">  1        2 0.48367929E+00 0.19577199E+04</pdfrwt>
<pdfrwt beam="2">  1       -1 0.46887483E-01 0.19577199E+04</pdfrwt>
<totfact> 0.68083007E+00</totfact>
</mgrwt>
</event>
<event>
12    7  0.1994558E-007  0.1263565E+04  0.7818608E-02  0.9058968E-01
         -1   -1    0    0    0  501 -0.00000000000E+00  0.00000000000E+00  0.36725860066E+03  0.36725860066E+03  0.00000000000E+00 0.  1.
          2   -1    0    0  501    0  0.00000000000E+00 -0.00000000000E+00 -0.10868332956E+04  0.10868332956E+04  0.00000000000E+00 0. -1.
         24    2    1    2    0    0 -0.12635787054E+03  0.62415913143E+01 -0.49879718937E+03  0.52059008880E+03  0.78804413105E+02 0.  0.
        254    2    1    2    0    0  0.12635787054E+03 -0.62415913143E+01 -0.22077750555E+03  0.93350180743E+03  0.89815235268E+03 0.  0.
         23    2    4    4    0    0  0.11134722257E+03  0.17038046959E+03  0.30172096939E+03  0.37483710495E+03  0.89663836021E+02 0.  0.
         23    2    4    4    0    0  0.15010647979E+02 -0.17662206091E+03 -0.52249847493E+03  0.55866470248E+03  0.87640866838E+02 0.  0.
          2    1    3    3  502    0 -0.13355597736E+03  0.10747315891E+02 -0.40890279001E+03  0.43029547472E+03  0.00000000000E+00 0. -1.
         -1    1    3    3    0  502  0.71981068170E+01 -0.45057245764E+01 -0.89894399354E+02  0.90294614075E+02  0.00000000000E+00 0.  1.
         13    1    5    5    0    0 -0.47387903170E+01  0.59066933663E+02  0.58640425456E+02  0.83367009564E+02  0.00000000000E+00 0. -1.
        -13    1    5    5    0    0  0.11608601288E+03  0.11131353593E+03  0.24308054393E+03  0.29147009539E+03  0.00000000000E+00 0.  1.
          3    1    6    6  503    0  0.28085894652E+02 -0.43225944932E+02 -0.71330012011E+02  0.88007217927E+02  0.00000000000E+00 0. -1.
         -3    1    6    6    0  503 -0.13075246673E+02 -0.13339611598E+03 -0.45116846292E+03  0.47065748455E+03  0.00000000000E+00 0.  1.
<mgrwt>
<rscale>  0 0.12635646E+04</rscale>
<asrwt>0</asrwt>
<pdfrwt beam="1">  1        2 0.16720512E+00 0.12635646E+04</pdfrwt>
<pdfrwt beam="2">  1       -1 0.56501323E-01 0.12635646E+04</pdfrwt>
<totfact> 0.78856936E+01</totfact>
</mgrwt>
</event>
<event>
12    7  0.1909736E-007  0.1757467E+04  0.7818608E-02  0.8729251E-01
          2   -1    0    0  501    0  0.00000000000E+00  0.00000000000E+00  0.14806096914E+04  0.14806096914E+04  0.00000000000E+00 0. -1.
         -1   -1    0    0    0  501 -0.00000000000E+00 -0.00000000000E+00 -0.52152316389E+03  0.52152316389E+03  0.00000000000E+00 0.  1.
         24    2    1    2    0    0 -0.47736237397E+03 -0.47391548914E+03  0.57691845648E+03  0.88947507786E+03  0.76552477305E+02 0.  0.
        254    2    1    2    0    0  0.47736237397E+03  0.47391548914E+03  0.38216807105E+03  0.11126577774E+04  0.79967754018E+03 0.  0.
         23    2    4    4    0    0 -0.16593835116E+03  0.26005890175E+03  0.26983192679E+03  0.41917678627E+03  0.87941689000E+02 0.  0.
         23    2    4    4    0    0  0.64330072513E+03  0.21385658739E+03  0.11233614427E+03  0.69348099118E+03  0.93413130252E+02 0.  0.
          4    1    3    3  502    0 -0.38099635625E+03 -0.35818273318E+03  0.40870880352E+03  0.66369871169E+03  0.00000000000E+00 0. -1.
         -3    1    3    3    0  502 -0.96366017720E+02 -0.11573275595E+03  0.16820965295E+03  0.22577636617E+03  0.00000000000E+00 0.  1.
         13    1    5    5    0    0 -0.13932904717E+03  0.25606818187E+03  0.25971832059E+03  0.39043194439E+03  0.00000000000E+00 0. -1.
        -13    1    5    5    0    0 -0.26609303991E+02  0.39907198836E+01  0.10113606194E+02  0.28744841873E+02  0.00000000000E+00 0.  1.
          3    1    6    6  503    0  0.45032938098E+03  0.12811274715E+03  0.11573475213E+03  0.48229032771E+03  0.00000000000E+00 0. -1.
         -3    1    6    6    0  503  0.19297134415E+03  0.85743840239E+02 -0.33986078601E+01  0.21119066347E+03  0.00000000000E+00 0.  1.
<mgrwt>
<rscale>  0 0.17574666E+04</rscale>
<asrwt>0</asrwt>
<pdfrwt beam="1">  1        2 0.22778610E+00 0.17574666E+04</pdfrwt>
<pdfrwt beam="2">  1       -1 0.80234334E-01 0.17574666E+04</pdfrwt>
<totfact> 0.21784436E+01</totfact>
</mgrwt>
</event>
<event>
12    7  0.1909736E-007  0.1918897E+04  0.7818608E-02  0.8645507E-01
         -1   -1    0    0    0  501 -0.00000000000E+00  0.00000000000E+00  0.65527087530E+03  0.65527087530E+03  0.00000000000E+00 0.  1.
          2   -1    0    0  501    0  0.00000000000E+00 -0.00000000000E+00 -0.14048265072E+04  0.14048265072E+04  0.00000000000E+00 0. -1.
         24    2    1    2    0    0 -0.11253184531E+03  0.67108300750E+03  0.39189683816E+02  0.68597744507E+03  0.77546145420E+02 0.  0.
        254    2    1    2    0    0  0.11253184531E+03 -0.67108300750E+03 -0.78874531574E+03  0.13741199375E+04  0.89614207036E+03 0.  0.
         23    2    4    4    0    0 -0.31766652603E+03 -0.10764842267E+03 -0.58631887535E+02  0.35242480791E+03  0.90913928153E+02 0.  0.
         23    2    4    4    0    0  0.43019837134E+03 -0.56343458483E+03 -0.73011342820E+03  0.10216951295E+04  0.90918367830E+02 0.  0.
          2    1    3    3  502    0 -0.86877217076E+02  0.34518298727E+03  0.46599121765E+02  0.35898526947E+03  0.00000000000E+00 0. -1.
         -1    1    3    3    0  502 -0.25654628234E+02  0.32590002023E+03 -0.74094379487E+01  0.32699217560E+03  0.00000000000E+00 0.  1.
         13    1    5    5    0    0 -0.20154692885E+03 -0.76220817129E+02  0.66007222450E+01  0.21557909692E+03  0.00000000000E+00 0. -1.
        -13    1    5    5    0    0 -0.11611959718E+03 -0.31427605539E+02 -0.65232609780E+02  0.13684571100E+03  0.00000000000E+00 0.  1.
          2    1    6    6  503    0  0.40505812231E+03 -0.51901194816E+03 -0.70567779430E+03  0.96510446800E+03  0.00000000000E+00 0. -1.
         -2    1    6    6    0  503  0.25140249037E+02 -0.44422636671E+02 -0.24435633901E+02  0.56590661549E+02  0.00000000000E+00 0.  1.
<mgrwt>
<rscale>  0 0.19188975E+04</rscale>
<asrwt>0</asrwt>
<pdfrwt beam="1">  1        2 0.21612715E+00 0.19188975E+04</pdfrwt>
<pdfrwt beam="2">  1       -1 0.10081090E+00 0.19188975E+04</pdfrwt>
<totfact> 0.14337767E+01</totfact>
</mgrwt>
</event>
<event>
12    7  0.1909736E-007  0.1669339E+04  0.7818608E-02  0.8779047E-01
          2   -1    0    0  501    0  0.00000000000E+00  0.00000000000E+00  0.10840132627E+04  0.10840132627E+04  0.00000000000E+00 0. -1.
         -1   -1    0    0    0  501 -0.00000000000E+00 -0.00000000000E+00 -0.64267992900E+03  0.64267992900E+03  0.00000000000E+00 0.  1.
         24    2    1    2    0    0 -0.11398841954E+03  0.50283365147E+03  0.45342393804E+03  0.69241080803E+03  0.89467416738E+02 0.  0.
        254    2    1    2    0    0  0.11398841954E+03 -0.50283365147E+03 -0.12090604301E+02  0.10342823837E+04  0.89652597603E+03 0.  0.
         23    2    4    4    0    0  0.65653047165E+02 -0.61479304976E+03  0.29462948877E+03  0.69110126799E+03  0.92377542331E+02 0.  0.
         23    2    4    4    0    0  0.48335372377E+02  0.11195939829E+03 -0.30672009307E+03  0.34318111572E+03  0.93940660014E+02 0.  0.
          2    1    3    3  502    0 -0.12591208201E+03  0.46080359303E+03  0.43057190162E+03  0.64310649679E+03  0.00000000000E+00 0. -1.
         -1    1    3    3    0  502  0.11923662467E+02  0.42030058440E+02  0.22852036413E+02  0.49304311244E+02  0.00000000000E+00 0.  1.
         13    1    5    5    0    0 -0.33323289896E+01 -0.32276384360E+03  0.18226617918E+03  0.37068661053E+03  0.00000000000E+00 0.  1.
        -13    1    5    5    0    0  0.68985376154E+02 -0.29202920616E+03  0.11236330959E+03  0.32041465746E+03  0.00000000000E+00 0. -1.
          2    1    6    6  503    0  0.50122862994E+02  0.45141924241E+02 -0.23775910751E+03  0.24714264691E+03  0.00000000000E+00 0. -1.
         -2    1    6    6    0  503 -0.17874906178E+01  0.66817474050E+02 -0.68960985562E+02  0.96038468807E+02  0.00000000000E+00 0.  1.
<mgrwt>
<rscale>  0 0.16693395E+04</rscale>
<asrwt>0</asrwt>
<pdfrwt beam="1">  1        2 0.16677127E+00 0.16693395E+04</pdfrwt>
<pdfrwt beam="2">  1       -1 0.98873835E-01 0.16693395E+04</pdfrwt>
<totfact> 0.23722906E+01</totfact>
</mgrwt>
</event>
<event>
12    7  0.1909736E-007  0.3089999E+04  0.7818608E-02  0.8218488E-01
          2   -1    0    0  501    0  0.00000000000E+00  0.00000000000E+00  0.30400596154E+04  0.30400596154E+04  0.00000000000E+00 0. -1.
         -1   -1    0    0    0  501 -0.00000000000E+00 -0.00000000000E+00 -0.78518949205E+03  0.78518949205E+03  0.00000000000E+00 0.  1.
         24    2    1    2    0    0  0.44122401391E+03  0.26430085901E+03 -0.59211461343E+03  0.78802069614E+03  0.76441661255E+02 0.  0.
        254    2    1    2    0    0 -0.44122401391E+03 -0.26430085901E+03  0.28469847368E+04  0.30372284113E+04  0.92460843413E+03 0.  0.
         23    2    4    4    0    0 -0.22755382278E+03 -0.37369444969E+03  0.27101460251E+04  0.27466788823E+04  0.89023151696E+02 0.  0.
         23    2    4    4    0    0 -0.21367019113E+03  0.10939359068E+03  0.13683871172E+03  0.29054952897E+03  0.89845909743E+02 0.  0.
          4    1    3    3  502    0 -0.29724225916E+01  0.26803496001E+01 -0.80562392340E+01  0.89956967845E+01  0.00000000000E+00 0. -1.
         -3    1    3    3    0  502  0.44419643651E+03  0.26162050941E+03 -0.58405837420E+03  0.77902499935E+03  0.00000000000E+00 0.  1.
         13    1    5    5    0    0 -0.13985869048E+03 -0.30324267619E+03  0.20075893658E+04  0.20351736131E+04  0.00000000000E+00 0. -1.
        -13    1    5    5    0    0 -0.87695132305E+02 -0.70451773501E+02  0.70255665925E+03  0.71150526918E+03  0.00000000000E+00 0.  1.
          3    1    6    6  503    0 -0.97101499393E+02  0.93660329398E+02  0.48189817251E+02  0.14325926488E+03  0.00000000000E+00 0. -1.
         -3    1    6    6    0  503 -0.11656869174E+03  0.15733261283E+02  0.88648894469E+02  0.14729026409E+03  0.00000000000E+00 0.  1.
<mgrwt>
<rscale>  0 0.30899986E+04</rscale>
<asrwt>0</asrwt>
<pdfrwt beam="1">  1        2 0.46770147E+00 0.30899986E+04</pdfrwt>
<pdfrwt beam="2">  1       -1 0.12079838E+00 0.30899986E+04</pdfrwt>
<totfact> 0.96523915E-01</totfact>
</mgrwt>
</event>
<event>
12    7  0.1909736E-007  0.1085683E+04  0.7818608E-02  0.9219260E-01
         -1   -1    0    0    0  501 -0.00000000000E+00  0.00000000000E+00  0.11494458228E+04  0.11494458228E+04  0.00000000000E+00 0.  1.
          2   -1    0    0  501    0  0.00000000000E+00 -0.00000000000E+00 -0.25636434471E+03  0.25636434471E+03  0.00000000000E+00 0. -1.
         24    2    1    2    0    0  0.11348650966E+03  0.86627671479E+01  0.27490086717E+03  0.30836641562E+03  0.81025478130E+02 0.  0.
        254    2    1    2    0    0 -0.11348650966E+03 -0.86627671479E+01  0.61818061097E+03  0.10974437519E+04  0.89960062777E+03 0.  0.
         23    2    4    4    0    0 -0.12810960866E+03 -0.36015542213E+02 -0.20955510316E+03  0.26396790867E+03  0.89758144129E+02 0.  0.
         23    2    4    4    0    0  0.14623099006E+02  0.27352775065E+02  0.82773571413E+03  0.83347584326E+03  0.92593517787E+02 0.  0.
          2    1    3    3  502    0  0.28503844210E+01 -0.18746052834E+02  0.83256945909E+02  0.85388864791E+02  0.00000000000E+00 0. -1.
         -1    1    3    3    0  502  0.11063612523E+03  0.27408819981E+02  0.19164392126E+03  0.22297755083E+03  0.00000000000E+00 0.  1.
         13    1    5    5    0    0 -0.10173246859E+02  0.24734592720E+02 -0.47752541110E+02  0.54732076620E+02  0.00000000000E+00 0. -1.
        -13    1    5    5    0    0 -0.11793636180E+03 -0.60750134933E+02 -0.16180256205E+03  0.20923583205E+03  0.00000000000E+00 0.  1.
          3    1    6    6  503    0  0.10475046667E+02 -0.23879791838E+02  0.83725663476E+02  0.87692404377E+02  0.00000000000E+00 0. -1.
         -3    1    6    6    0  503  0.41480523390E+01  0.51232566903E+02  0.74401005065E+03  0.74578343889E+03  0.00000000000E+00 0.  1.
<mgrwt>
<rscale>  0 0.10856831E+04</rscale>
<asrwt>0</asrwt>
<pdfrwt beam="1">  1        2 0.39440669E-01 0.10856831E+04</pdfrwt>
<pdfrwt beam="2">  1       -1 0.17683782E+00 0.10856831E+04</pdfrwt>
<totfact> 0.32715815E+01</totfact>
</mgrwt>
</event>
<event>
12    7  0.1909736E-007  0.1833333E+04  0.7818608E-02  0.8688772E-01
         -1   -1    0    0    0  501 -0.00000000000E+00  0.00000000000E+00  0.41486641773E+03  0.41486641773E+03  0.00000000000E+00 0.  1.
          2   -1    0    0  501    0  0.00000000000E+00 -0.00000000000E+00 -0.20254158734E+04  0.20254158734E+04  0.00000000000E+00 0. -1.
         24    2    1    2    0    0 -0.62328183494E+03 -0.20129920452E+03 -0.86460155833E+03  0.10875601988E+04  0.79055143767E+02 0.  0.
        254    2    1    2    0    0  0.62328183494E+03  0.20129920452E+03 -0.74594789736E+03  0.13527220924E+04  0.91892174756E+03 0.  0.
         23    2    4    4    0    0  0.19072363513E+03  0.31173556177E+03 -0.80884405710E+03  0.89271588205E+03  0.95699382900E+02 0.  0.
         23    2    4    4    0    0  0.43255819980E+03 -0.11043635725E+03  0.62896159742E+02  0.46000621033E+03  0.91361925400E+02 0.  0.
          4    1    3    3  502    0 -0.27681722411E+03 -0.86022675956E+02 -0.44785363369E+03  0.53347966555E+03  0.00000000000E+00 0. -1.
         -3    1    3    3    0  502 -0.34646461082E+03 -0.11527652857E+03 -0.41674792463E+03  0.55408053320E+03  0.00000000000E+00 0.  1.
         13    1    5    5    0    0  0.11021681798E+03  0.25890133024E+03 -0.61115455891E+03  0.67282058578E+03  0.00000000000E+00 0.  1.
        -13    1    5    5    0    0  0.80506817149E+02  0.52834231528E+02 -0.19768949819E+03  0.21989529627E+03  0.00000000000E+00 0. -1.
          1    1    6    6  503    0  0.22061923937E+03 -0.51602274663E+02  0.77772849252E+02  0.23955011920E+03  0.00000000000E+00 0. -1.
         -1    1    6    6    0  503  0.21193896043E+03 -0.58834082588E+02 -0.14876689510E+02  0.22045609113E+03  0.00000000000E+00 0.  1.
<mgrwt>
<rscale>  0 0.18333325E+04</rscale>
<asrwt>0</asrwt>
<pdfrwt beam="1">  1        2 0.31160245E+00 0.18333325E+04</pdfrwt>
<pdfrwt beam="2">  1       -1 0.63825601E-01 0.18333325E+04</pdfrwt>
<totfact> 0.17262580E+01</totfact>
</mgrwt>
</event>
<event>
12    7  0.1909736E-007  0.1189442E+04  0.7818608E-02  0.9122148E-01
         -1   -1    0    0    0  501 -0.00000000000E+00  0.00000000000E+00  0.12674648080E+03  0.12674648080E+03  0.00000000000E+00 0.  1.
          2   -1    0    0  501    0  0.00000000000E+00 -0.00000000000E+00 -0.27905549996E+04  0.27905549996E+04  0.00000000000E+00 0. -1.
         24    2    1    2    0    0 -0.16256979709E+03  0.67725495373E+02 -0.16061534435E+03  0.25152466416E+03  0.80322389123E+02 0.  0.
        254    2    1    2    0    0  0.16256979709E+03 -0.67725495373E+02 -0.25031931744E+04  0.26657768162E+04  0.89965231265E+03 0.  0.
         23    2    4    4    0    0 -0.36516462611E+03 -0.40447599640E+02 -0.11421242920E+04  0.12029360476E+04  0.87327108231E+02 0.  0.
         23    2    4    4    0    0  0.52773442320E+03 -0.27277895733E+02 -0.13610688824E+04  0.14628407686E+04  0.90260215298E+02 0.  0.
          4    1    3    3  502    0 -0.52472235482E+02  0.62353829412E+02 -0.85616385025E+02  0.11820110373E+03  0.00000000000E+00 0. -1.
         -3    1    3    3    0  502 -0.11009756161E+03  0.53716659611E+01 -0.74998959322E+02  0.13332356043E+03  0.00000000000E+00 0.  1.
         13    1    5    5    0    0 -0.17057647551E+03  0.25874873404E+01 -0.40770271915E+03  0.44195535554E+03  0.00000000000E+00 0. -1.
        -13    1    5    5    0    0 -0.19458815060E+03 -0.43035086980E+02 -0.73442157286E+03  0.76098069210E+03  0.00000000000E+00 0.  1.
          1    1    6    6  503    0  0.12694020082E+03 -0.66833127618E+01 -0.44323362122E+03  0.46110142510E+03  0.00000000000E+00 0. -1.
         -1    1    6    6    0  503  0.40079422237E+03 -0.20594582971E+02 -0.91783526120E+03  0.10017393435E+04  0.00000000000E+00 0.  1.
<mgrwt>
<rscale>  0 0.11894419E+04</rscale>
<asrwt>0</asrwt>
<pdfrwt beam="1">  1        2 0.42931614E+00 0.11894419E+04</pdfrwt>
<pdfrwt beam="2">  1       -1 0.19499459E-01 0.11894419E+04</pdfrwt>
<totfact> 0.56864150E+01</totfact>
</mgrwt>
</event>
<event>
12    7  0.1909736E-007  0.1219997E+04  0.7818608E-02  0.9095531E-01
         -1   -1    0    0    0  501 -0.00000000000E+00  0.00000000000E+00  0.46042548509E+03  0.46042548509E+03  0.00000000000E+00 0.  1.
          2   -1    0    0  501    0  0.00000000000E+00 -0.00000000000E+00 -0.80816133410E+03  0.80816133410E+03  0.00000000000E+00 0. -1.
         24    2    1    2    0    0  0.15224561847E+03 -0.20052932904E+03 -0.33872263594E+01  0.26444941902E+03  0.80816345941E+02 0.  0.
        254    2    1    2    0    0 -0.15224561847E+03  0.20052932904E+03 -0.34434862266E+03  0.10041374002E+04  0.90902431450E+03 0.  0.
         23    2    4    4    0    0 -0.38344142880E+03  0.44087758254E+03 -0.16194200098E+03  0.61321090862E+03  0.91662613190E+02 0.  0.
         23    2    4    4    0    0  0.23119581033E+03 -0.24034825351E+03 -0.18240662168E+03  0.39092649155E+03  0.91282859767E+02 0.  0.
          4    1    3    3  502    0  0.34267130342E+02 -0.30905649495E+01 -0.15175733213E+01  0.34439669603E+02  0.00000000000E+00 0. -1.
         -3    1    3    3    0  502  0.11797848813E+03 -0.19743876409E+03 -0.18696530381E+01  0.23000974942E+03  0.00000000000E+00 0.  1.
         13    1    5    5    0    0 -0.28240269668E+03  0.33105667439E+03 -0.78276054249E+02  0.44212774784E+03  0.00000000000E+00 0.  1.
        -13    1    5    5    0    0 -0.10103873213E+03  0.10982090816E+03 -0.83665946731E+02  0.17108316077E+03  0.00000000000E+00 0. -1.
          4    1    6    6  503    0  0.66018188596E+02 -0.75612564881E+02 -0.10469200721E+03  0.14503819348E+03  0.00000000000E+00 0. -1.
         -4    1    6    6    0  503  0.16517762173E+03 -0.16473568863E+03 -0.77714614469E+02  0.24588829808E+03  0.00000000000E+00 0.  1.
<mgrwt>
<rscale>  0 0.12199968E+04</rscale>
<asrwt>0</asrwt>
<pdfrwt beam="1">  1        2 0.12433251E+00 0.12199968E+04</pdfrwt>
<pdfrwt beam="2">  1       -1 0.70834691E-01 0.12199968E+04</pdfrwt>
<totfact> 0.76998555E+01</totfact>
</mgrwt>
</event>
<event>
12    7  0.1909736E-007  0.2019295E+04  0.7818608E-02  0.8597652E-01
         -1   -1    0    0    0  501 -0.00000000000E+00  0.00000000000E+00  0.88602199769E+03  0.88602199769E+03  0.00000000000E+00 0.  1.
          2   -1    0    0  501    0  0.00000000000E+00 -0.00000000000E+00 -0.11505224202E+04  0.11505224202E+04  0.00000000000E+00 0. -1.
         24    2    1    2    0    0 -0.43419662485E+03 -0.41169841162E+02  0.57762711349E+03  0.72824261101E+03  0.80390008034E+02 0.  0.
        254    2    1    2    0    0  0.43419662485E+03  0.41169841162E+02 -0.84212753595E+03  0.13083018068E+04  0.90125088966E+03 0.  0.
         23    2    4    4    0    0 -0.69570250357E+02 -0.22025946840E+03 -0.66033485486E+03  0.70541745931E+03  0.90649976295E+02 0.  0.
         23    2    4    4    0    0  0.50376687521E+03  0.26142930956E+03 -0.18179268108E+03  0.60288434753E+03  0.91074744789E+02 0.  0.
          4    1    3    3  502    0 -0.24291091585E+03  0.17135913929E+02  0.31610621457E+03  0.39902693077E+03  0.00000000000E+00 0. -1.
         -1    1    3    3    0  502 -0.19128570900E+03 -0.58305755090E+02  0.26152089892E+03  0.32921568024E+03  0.00000000000E+00 0.  1.
         13    1    5    5    0    0 -0.29358446401E+02 -0.39712277555E+02 -0.25684641478E+03  0.26155126486E+03  0.00000000000E+00 0.  1.
        -13    1    5    5    0    0 -0.40211803956E+02 -0.18054719084E+03 -0.40348844009E+03  0.44386619446E+03  0.00000000000E+00 0. -1.
          4    1    6    6  503    0  0.39752031831E+03  0.21502176208E+03 -0.10551041195E+03  0.46410042951E+03  0.00000000000E+00 0. -1.
         -4    1    6    6    0  503  0.10624655690E+03  0.46407547478E+02 -0.76282269135E+02  0.13878391802E+03  0.00000000000E+00 0.  1.
<mgrwt>
<rscale>  0 0.20192951E+04</rscale>
<asrwt>0</asrwt>
<pdfrwt beam="1">  1        2 0.17700345E+00 0.20192951E+04</pdfrwt>
<pdfrwt beam="2">  1       -1 0.13631108E+00 0.20192951E+04</pdfrwt>
<totfact> 0.96428992E+00</totfact>
</mgrwt>
</event>
<event>
12    7  0.1909736E-007  0.1258731E+04  0.7818608E-02  0.9062948E-01
          2   -1    0    0  501    0  0.00000000000E+00  0.00000000000E+00  0.22944783534E+04  0.22944783534E+04  0.00000000000E+00 0. -1.
         -1   -1    0    0    0  501 -0.00000000000E+00 -0.00000000000E+00 -0.17263216707E+03  0.17263216707E+03  0.00000000000E+00 0.  1.
         24    2    1    2    0    0 -0.74471547651E+02 -0.25767074430E+03  0.57389103290E+03  0.63855004041E+03  0.80343092974E+02 0.  0.
        254    2    1    2    0    0  0.74471547651E+02  0.25767074430E+03  0.15479551534E+04  0.18285604801E+04  0.93569655784E+03 0.  0.
         23    2    4    4    0    0  0.22105192513E+03  0.14687861940E+03  0.15923111238E+04  0.16168435115E+04  0.91054615924E+02 0.  0.
         23    2    4    4    0    0 -0.14658037748E+03  0.11079212490E+03 -0.44355970386E+02  0.21171696860E+03  0.95372536318E+02 0.  0.
          2    1    3    3  502    0 -0.52870537103E+02 -0.10143855036E+03  0.31811242076E+03  0.33805411614E+03  0.00000000000E+00 0. -1.
         -3    1    3    3    0  502 -0.21601010548E+02 -0.15623219394E+03  0.25577861214E+03  0.30049592427E+03  0.00000000000E+00 0.  1.
         13    1    5    5    0    0  0.18415503673E+03  0.92847315857E+02  0.13579175645E+04  0.13734896482E+04  0.00000000000E+00 0. -1.
        -13    1    5    5    0    0  0.36896888398E+02  0.54031303542E+02  0.23439355933E+03  0.24335386332E+03  0.00000000000E+00 0.  1.
          4    1    6    6  503    0 -0.40322623198E+02  0.58680008432E+02  0.23891513002E+02  0.75100344371E+02  0.00000000000E+00 0. -1.
         -4    1    6    6    0  503 -0.10625775428E+03  0.52112116469E+02 -0.68247483388E+02  0.13661662423E+03  0.00000000000E+00 0.  1.
<mgrwt>
<rscale>  0 0.12587307E+04</rscale>
<asrwt>0</asrwt>
<pdfrwt beam="1">  1        2 0.35299665E+00 0.12587307E+04</pdfrwt>
<pdfrwt beam="2">  1       -1 0.26558797E-01 0.12587307E+04</pdfrwt>
<totfact> 0.64727802E+01</totfact>
</mgrwt>
</event>
<event>
12    7  0.1909736E-007  0.2262773E+04  0.7818608E-02  0.8492746E-01
         -1   -1    0    0    0  501 -0.00000000000E+00  0.00000000000E+00  0.55960829175E+03  0.55960829175E+03  0.00000000000E+00 0.  1.
          2   -1    0    0  501    0  0.00000000000E+00 -0.00000000000E+00 -0.22873767272E+04  0.22873767272E+04  0.00000000000E+00 0. -1.
         24    2    1    2    0    0  0.73545765894E+02  0.63031368183E+03 -0.16310175805E+04  0.17519087119E+04  0.79129450932E+02 0.  0.
        254    2    1    2    0    0 -0.73545765894E+02 -0.63031368183E+03 -0.96750854977E+02  0.10950763070E+04  0.88720182205E+03 0.  0.
         23    2    4    4    0    0  0.32963440769E+03 -0.20717330374E+02  0.42810671427E+02  0.34508503856E+03  0.90348656564E+02 0.  0.
         23    2    4    4    0    0 -0.40318017358E+03 -0.60959635146E+03 -0.13956152640E+03  0.74999126844E+03  0.94061251374E+02 0.  0.
          4    1    3    3  502    0  0.45978043307E+02  0.40726948821E+03 -0.94609888509E+03  0.10310603847E+04  0.00000000000E+00 0. -1.
         -3    1    3    3    0  502  0.27567722587E+02  0.22304419362E+03 -0.68491869539E+03  0.72084832727E+03  0.00000000000E+00 0.  1.
         13    1    5    5    0    0  0.22138542143E+03 -0.47634483604E+02  0.24593122631E+01  0.22646544343E+03  0.00000000000E+00 0. -1.
        -13    1    5    5    0    0  0.10824898625E+03  0.26917153230E+02  0.40351359164E+02  0.11861959513E+03  0.00000000000E+00 0.  1.
          3    1    6    6  503    0 -0.17377990349E+03 -0.19816930197E+03 -0.78352428667E+02  0.27497205345E+03  0.00000000000E+00 0. -1.
         -3    1    6    6    0  503 -0.22940027009E+03 -0.41142704949E+03 -0.61209097737E+02  0.47501921500E+03  0.00000000000E+00 0.  1.
<mgrwt>
<rscale>  0 0.22627726E+04</rscale>
<asrwt>0</asrwt>
<pdfrwt beam="1">  1        2 0.35190411E+00 0.22627726E+04</pdfrwt>
<pdfrwt beam="2">  1       -1 0.86093584E-01 0.22627726E+04</pdfrwt>
<totfact> 0.63498826E+00</totfact>
</mgrwt>
</event>
<event>
12    7  0.1909736E-007  0.1443243E+04  0.7818608E-02  0.8923098E-01
          2   -1    0    0  501    0  0.00000000000E+00  0.00000000000E+00  0.25813198765E+04  0.25813198765E+04  0.00000000000E+00 0. -1.
         -1   -1    0    0    0  501 -0.00000000000E+00 -0.00000000000E+00 -0.20173316660E+03  0.20173316660E+03  0.00000000000E+00 0.  1.
         24    2    1    2    0    0  0.10533613902E+03 -0.34371075555E+03  0.25635198124E+03  0.44888396907E+03  0.80917820903E+02 0.  0.
        254    2    1    2    0    0 -0.10533613902E+03  0.34371075555E+03  0.21232347286E+04  0.23341690740E+04  0.90054803732E+03 0.  0.
         23    2    4    4    0    0  0.26511733088E+03  0.29010578293E+03  0.39799440995E+03  0.56627728218E+03  0.88441198142E+02 0.  0.
         23    2    4    4    0    0 -0.37045346991E+03  0.53604972620E+02  0.17252403187E+04  0.17678917918E+04  0.94222948248E+02 0.  0.
          4    1    3    3  502    0  0.18956617393E+02 -0.49699332336E+02  0.66762208627E+01  0.53609224044E+02  0.00000000000E+00 0. -1.
         -3    1    3    3    0  502  0.86379521632E+02 -0.29401142322E+03  0.24967576038E+03  0.39527474503E+03  0.00000000000E+00 0.  1.
         13    1    5    5    0    0  0.11730831894E+03  0.17510310258E+03  0.25389404237E+03  0.32997654913E+03  0.00000000000E+00 0. -1.
        -13    1    5    5    0    0  0.14780901194E+03  0.11500268035E+03  0.14410036758E+03  0.23630073304E+03  0.00000000000E+00 0.  1.
          4    1    6    6  503    0 -0.31020757421E+03  0.77784144599E+02  0.13767995534E+04  0.14134553840E+04  0.00000000000E+00 0.  1.
         -4    1    6    6    0  503 -0.60245895699E+02 -0.24179171979E+02  0.34844076527E+03  0.35443640785E+03  0.00000000000E+00 0. -1.
<mgrwt>
<rscale>  0 0.14432433E+04</rscale>
<asrwt>0</asrwt>
<pdfrwt beam="1">  1        2 0.39712611E+00 0.14432433E+04</pdfrwt>
<pdfrwt beam="2">  1       -1 0.31035874E-01 0.14432433E+04</pdfrwt>
<totfact> 0.33278247E+01</totfact>
</mgrwt>
</event>
<event>
12    7  0.1909736E-007  0.2601306E+04  0.7818608E-02  0.8367758E-01
         -1   -1    0    0    0  501 -0.00000000000E+00  0.00000000000E+00  0.10907940453E+04  0.10907940453E+04  0.00000000000E+00 0.  1.
          2   -1    0    0  501    0  0.00000000000E+00 -0.00000000000E+00 -0.15508867561E+04  0.15508867561E+04  0.00000000000E+00 0. -1.
         24    2    1    2    0    0  0.18738482492E+03 -0.50862519397E+03  0.81723006546E+03  0.98382801479E+03  0.78993178398E+02 0.  0.
        254    2    1    2    0    0 -0.18738482492E+03  0.50862519397E+03 -0.12773227763E+04  0.16578527866E+04  0.90725394835E+03 0.  0.
         23    2    4    4    0    0 -0.35584040797E+02  0.74108595219E+03 -0.10430180771E+04  0.12832045925E+04  0.90844396476E+02 0.  0.
         23    2    4    4    0    0 -0.15180078413E+03 -0.23246075822E+03 -0.23430469912E+03  0.37464819416E+03  0.91548321589E+02 0.  0.
          4    1    3    3  502    0  0.21428519565E+02 -0.80991443643E+02  0.81932961474E+02  0.11718278700E+03  0.00000000000E+00 0. -1.
         -3    1    3    3    0  502  0.16595630536E+03 -0.42763375033E+03  0.73529710399E+03  0.86664522778E+03  0.00000000000E+00 0.  1.
         13    1    5    5    0    0 -0.56576267555E+02  0.31356289492E+03 -0.47491386135E+03  0.57189661550E+03  0.00000000000E+00 0. -1.
        -13    1    5    5    0    0  0.20992226757E+02  0.42752305727E+03 -0.56810421579E+03  0.71130797695E+03  0.00000000000E+00 0.  1.
          4    1    6    6  503    0 -0.18461162518E+02 -0.10690912239E+03 -0.74763961147E+02  0.13175744707E+03  0.00000000000E+00 0. -1.
         -4    1    6    6    0  503 -0.13333962161E+03 -0.12555163583E+03 -0.15954073797E+03  0.24289074709E+03  0.00000000000E+00 0.  1.
<mgrwt>
<rscale>  0 0.26013059E+04</rscale>
<asrwt>0</asrwt>
<pdfrwt beam="1">  1        2 0.23859796E+00 0.26013059E+04</pdfrwt>
<pdfrwt beam="2">  1       -1 0.16781447E+00 0.26013059E+04</pdfrwt>
<totfact> 0.30565630E+00</totfact>
</mgrwt>
</event>
<event>
12    7  0.1909736E-007  0.2314285E+04  0.7818608E-02  0.8472310E-01
         -1   -1    0    0    0  501 -0.00000000000E+00  0.00000000000E+00  0.42055545698E+03  0.42055545698E+03  0.00000000000E+00 0.  1.
          2   -1    0    0  501    0  0.00000000000E+00 -0.00000000000E+00 -0.31838337202E+04  0.31838337202E+04  0.00000000000E+00 0. -1.
         24    2    1    2    0    0  0.64235382701E+03  0.21909659546E+03 -0.22566913247E+04  0.23579414371E+04  0.81303925521E+02 0.  0.
        254    2    1    2    0    0 -0.64235382701E+03 -0.21909659546E+03 -0.50658693851E+03  0.12464477401E+04  0.91453807215E+03 0.  0.
         23    2    4    4    0    0 -0.71073100994E+03 -0.47119530851E+03 -0.43630748124E+03  0.96212440843E+03  0.90308204779E+02 0.  0.
         23    2    4    4    0    0  0.68377182927E+02  0.25209871305E+03 -0.70279457272E+02  0.28432333171E+03  0.87586269322E+02 0.  0.
          2    1    3    3  502    0  0.63556007675E+03  0.21836618911E+03 -0.22505871968E+04  0.23487790731E+04  0.00000000000E+00 0. -1.
         -1    1    3    3    0  502  0.67937502675E+01  0.73040634831E+00 -0.61041279183E+01  0.91623639839E+01  0.00000000000E+00 0.  1.
         13    1    5    5    0    0 -0.69437857523E+03 -0.46702891509E+03 -0.43908015455E+03  0.94502327770E+03  0.00000000000E+00 0.  1.
        -13    1    5    5    0    0 -0.16352434709E+02 -0.41663934259E+01  0.27726733062E+01  0.17101130733E+02  0.00000000000E+00 0. -1.
          4    1    6    6  503    0  0.65822743878E+02  0.21695543949E+03 -0.26709865041E+02  0.22828866206E+03  0.00000000000E+00 0.  1.
         -4    1    6    6    0  503  0.25544390492E+01  0.35143273564E+02 -0.43569592231E+02  0.56034669650E+02  0.00000000000E+00 0. -1.
<mgrwt>
<rscale>  0 0.23142849E+04</rscale>
<asrwt>0</asrwt>
<pdfrwt beam="1">  1        2 0.48982058E+00 0.23142849E+04</pdfrwt>
<pdfrwt beam="2">  1       -1 0.64700838E-01 0.23142849E+04</pdfrwt>
<totfact> 0.33195689E+00</totfact>
</mgrwt>
</event>
<event>
12    7  0.1909736E-007  0.1422625E+04  0.7818608E-02  0.8937602E-01
          2   -1    0    0  501    0  0.00000000000E+00  0.00000000000E+00  0.14118155524E+04  0.14118155524E+04  0.00000000000E+00 0. -1.
         -3   -1    0    0    0  501 -0.00000000000E+00 -0.00000000000E+00 -0.35837951219E+03  0.35837951219E+03  0.00000000000E+00 0.  1.
         24    2    1    2    0    0 -0.35807640399E+03  0.60799593829E+02  0.58606952900E+03  0.69399195202E+03  0.78943238727E+02 0.  0.
        254    2    1    2    0    0  0.35807640399E+03 -0.60799593829E+02  0.46736651126E+03  0.10762031126E+04  0.89881387510E+03 0.  0.
         23    2    4    4    0    0  0.19716702275E+03  0.22121137523E+03 -0.17131028882E+03  0.35425038213E+03  0.91306137769E+02 0.  0.
         23    2    4    4    0    0  0.16090938124E+03 -0.28201096906E+03  0.63867680007E+03  0.72195273049E+03  0.88801320209E+02 0.  0.
          4    1    3    3  502    0 -0.36019142002E+03  0.54352922808E+02  0.57991869455E+03  0.68483413435E+03  0.00000000000E+00 0. -1.
         -3    1    3    3    0  502  0.21150160347E+01  0.64466710213E+01  0.61508344458E+01  0.91578176693E+01  0.00000000000E+00 0.  1.
         13    1    5    5    0    0  0.15082361096E+03  0.10747003250E+03 -0.12272905339E+03  0.22217108285E+03  0.00000000000E+00 0. -1.
        -13    1    5    5    0    0  0.46343411786E+02  0.11374134274E+03 -0.48581235429E+02  0.13207929928E+03  0.00000000000E+00 0.  1.
          3    1    6    6  503    0  0.15895796996E+03 -0.28837683665E+03  0.63128771870E+03  0.71200633417E+03  0.00000000000E+00 0. -1.
         -3    1    6    6    0  503  0.19514112832E+01  0.63658675858E+01  0.73890813784E+01  0.99463963189E+01  0.00000000000E+00 0.  1.
<mgrwt>
<rscale>  0 0.14226254E+04</rscale>
<asrwt>0</asrwt>
<pdfrwt beam="1">  1        2 0.21720239E+00 0.14226254E+04</pdfrwt>
<pdfrwt beam="2">  1       -3 0.55135310E-01 0.14226254E+04</pdfrwt>
<totfact> 0.28696117E+01</totfact>
</mgrwt>
</event>
<event>
12    7  0.1909736E-007  0.1298077E+04  0.7818608E-02  0.9031091E-01
          2   -1    0    0  501    0  0.00000000000E+00  0.00000000000E+00  0.19184501392E+04  0.19184501392E+04  0.00000000000E+00 0. -1.
         -1   -1    0    0    0  501 -0.00000000000E+00 -0.00000000000E+00 -0.21957896043E+03  0.21957896043E+03  0.00000000000E+00 0.  1.
         24    2    1    2    0    0 -0.22397266078E+03 -0.10957580954E+03  0.79476098686E+03  0.83847401745E+03  0.96036664324E+02 0.  0.
        254    2    1    2    0    0  0.22397266078E+03  0.10957580954E+03  0.90411019191E+03  0.12995550822E+04  0.89958743972E+03 0.  0.
         23    2    4    4    0    0  0.78376725050E+02  0.49222482727E+03  0.57690205624E+03  0.76792609503E+03  0.92012571504E+02 0.  0.
         23    2    4    4    0    0  0.14559593573E+03 -0.38264901774E+03  0.32720813567E+03  0.53162898716E+03  0.89139041154E+02 0.  0.
          4    1    3    3  502    0 -0.13903159442E+03 -0.29647049931E+02  0.33030337923E+03  0.35959568149E+03  0.00000000000E+00 0. -1.
         -3    1    3    3    0  502 -0.84941066360E+02 -0.79928759605E+02  0.46445760764E+03  0.47887833597E+03  0.00000000000E+00 0.  1.
         13    1    5    5    0    0  0.23385162666E+02  0.24081936828E+03  0.34579684277E+03  0.42203825708E+03  0.00000000000E+00 0.  1.
        -13    1    5    5    0    0  0.54991562385E+02  0.25140545899E+03  0.23110521347E+03  0.34588783794E+03  0.00000000000E+00 0. -1.
          3    1    6    6  503    0  0.10965879762E+03 -0.17283005159E+03  0.18247831581E+03  0.27421454076E+03  0.00000000000E+00 0. -1.
         -3    1    6    6    0  503  0.35937138105E+02 -0.20981896615E+03  0.14472981987E+03  0.25741444639E+03  0.00000000000E+00 0.  1.
<mgrwt>
<rscale>  0 0.12980775E+04</rscale>
<asrwt>0</asrwt>
<pdfrwt beam="1">  1        2 0.29514616E+00 0.12980775E+04</pdfrwt>
<pdfrwt beam="2">  1       -1 0.33781380E-01 0.12980775E+04</pdfrwt>
<totfact> 0.68514775E+01</totfact>
</mgrwt>
</event>
<event>
12    7  0.1909736E-007  0.1517040E+04  0.7818608E-02  0.8873200E-01
         -1   -1    0    0    0  501 -0.00000000000E+00  0.00000000000E+00  0.38485067200E+03  0.38485067200E+03  0.00000000000E+00 0.  1.
          2   -1    0    0  501    0  0.00000000000E+00 -0.00000000000E+00 -0.14950012742E+04  0.14950012742E+04  0.00000000000E+00 0. -1.
         24    2    1    2    0    0  0.12030848195E+03 -0.22888025001E+03  0.14824909158E+03  0.30821085275E+03  0.78459141783E+02 0.  0.
        254    2    1    2    0    0 -0.12030848195E+03  0.22888025001E+03 -0.12583996938E+04  0.15716410935E+04  0.90533178319E+03 0.  0.
         23    2    4    4    0    0 -0.13666464425E+03  0.35338015583E+03 -0.13405142883E+04  0.13959024370E+04  0.89500262091E+02 0.  0.
         23    2    4    4    0    0  0.16356162305E+02 -0.12449990582E+03  0.82114594534E+02  0.17573865645E+03  0.91506929481E+02 0.  0.
          2    1    3    3  502    0  0.28164256999E+02 -0.94476229817E+01  0.30880311169E+02  0.42849464060E+02  0.00000000000E+00 0. -1.
         -1    1    3    3    0  502  0.92144224949E+02 -0.21943262703E+03  0.11736878041E+03  0.26536138869E+03  0.00000000000E+00 0.  1.
         13    1    5    5    0    0 -0.11771714309E+03  0.27081969048E+03 -0.11517536461E+04  0.11890067669E+04  0.00000000000E+00 0. -1.
        -13    1    5    5    0    0 -0.18947501167E+02  0.82560465341E+02 -0.18876064224E+03  0.20689567007E+03  0.00000000000E+00 0.  1.
          1    1    6    6  503    0  0.36673380431E+02 -0.12048938708E+03  0.88655641808E+02  0.15402094681E+03  0.00000000000E+00 0. -1.
         -1    1    6    6    0  503 -0.20317218126E+02 -0.40105187395E+01 -0.65410472742E+01  0.21717709648E+02  0.00000000000E+00 0.  1.
<mgrwt>
<rscale>  0 0.15170395E+04</rscale>
<asrwt>0</asrwt>
<pdfrwt beam="1">  1        2 0.23000019E+00 0.15170395E+04</pdfrwt>
<pdfrwt beam="2">  1       -1 0.59207797E-01 0.15170395E+04</pdfrwt>
<totfact> 0.40622270E+01</totfact>
</mgrwt>
</event>
<event>
12    7  0.1909736E-007  0.2106850E+04  0.7818608E-02  0.8558232E-01
         -1   -1    0    0    0  501 -0.00000000000E+00  0.00000000000E+00  0.11915043799E+04  0.11915043799E+04  0.00000000000E+00 0.  1.
          2   -1    0    0  501    0  0.00000000000E+00 -0.00000000000E+00 -0.93134674790E+03  0.93134674790E+03  0.00000000000E+00 0. -1.
         24    2    1    2    0    0 -0.43592894901E+03 -0.73650135645E+03  0.20744351231E+03  0.88404269167E+03  0.77655478022E+02 0.  0.
        254    2    1    2    0    0  0.43592894901E+03  0.73650135645E+03  0.52714119717E+02  0.12388084362E+04  0.89409130768E+03 0.  0.
         23    2    4    4    0    0  0.26635759295E+03 -0.12245448048E+03 -0.14337969010E+03  0.33679695994E+03  0.83264575761E+02 0.  0.
         23    2    4    4    0    0  0.16957135606E+03  0.85895583693E+03  0.19609380982E+03  0.90201147623E+03  0.92802728418E+02 0.  0.
          4    1    3    3  502    0 -0.27462661052E+03 -0.45825146705E+03  0.16786417423E+03  0.55999336000E+03  0.00000000000E+00 0. -1.
         -3    1    3    3    0  502 -0.16130233849E+03 -0.27824988940E+03  0.39579338083E+02  0.32404933167E+03  0.00000000000E+00 0.  1.
         13    1    5    5    0    0  0.11519370082E+02  0.11774409126E+02 -0.10978085489E+02  0.19795225645E+02  0.00000000000E+00 0.  1.
        -13    1    5    5    0    0  0.25483822287E+03 -0.13422888961E+03 -0.13240160461E+03  0.31700173429E+03  0.00000000000E+00 0. -1.
          1    1    6    6  503    0  0.18075544250E+03  0.81345961302E+03  0.18041595329E+03  0.85260717110E+03  0.00000000000E+00 0. -1.
         -1    1    6    6    0  503 -0.11184086443E+02  0.45496223911E+02  0.15677856534E+02  0.49404305128E+02  0.00000000000E+00 0.  1.
<mgrwt>
<rscale>  0 0.21068495E+04</rscale>
<asrwt>0</asrwt>
<pdfrwt beam="1">  1        2 0.14328411E+00 0.21068495E+04</pdfrwt>
<pdfrwt beam="2">  1       -1 0.18330837E+00 0.21068495E+04</pdfrwt>
<totfact> 0.57834455E+00</totfact>
</mgrwt>
</event>
<event>
12    7  0.1909736E-007  0.1465548E+04  0.7818608E-02  0.8907692E-01
          2   -1    0    0  501    0  0.00000000000E+00  0.00000000000E+00  0.30417700380E+04  0.30417700380E+04  0.00000000000E+00 0. -1.
         -1   -1    0    0    0  501 -0.00000000000E+00 -0.00000000000E+00 -0.17652813840E+03  0.17652813840E+03  0.00000000000E+00 0.  1.
         24    2    1    2    0    0  0.33116791530E+02 -0.24825171313E+03  0.17217583545E+04  0.17417160879E+04  0.79984150772E+02 0.  0.
        254    2    1    2    0    0 -0.33116791530E+02  0.24825171313E+03  0.11434835451E+04  0.14765820885E+04  0.90000800628E+03 0.  0.
         23    2    4    4    0    0  0.81125613966E+01 -0.30531716556E+03  0.66083722118E+03  0.73436385413E+03  0.96436777869E+02 0.  0.
         23    2    4    4    0    0 -0.41229352927E+02  0.55356887869E+03  0.48264632389E+03  0.74221823440E+03  0.99005406467E+02 0.  0.
          4    1    3    3  502    0 -0.98518031737E+01 -0.13370704403E+03  0.10906602085E+04  0.10988695655E+04  0.00000000000E+00 0. -1.
         -3    1    3    3    0  502  0.42968594704E+02 -0.11454466909E+03  0.63109814601E+03  0.64284652231E+03  0.00000000000E+00 0.  1.
         13    1    5    5    0    0  0.42535140856E+01 -0.22777528834E+03  0.57573026565E+03  0.61916477059E+03  0.00000000000E+00 0.  1.
        -13    1    5    5    0    0  0.38590473110E+01 -0.77541877221E+02  0.85106955530E+02  0.11519908354E+03  0.00000000000E+00 0. -1.
          1    1    6    6  503    0 -0.42936692291E+02  0.33203471412E+03  0.34833267189E+03  0.48314207148E+03  0.00000000000E+00 0. -1.
         -1    1    6    6    0  503  0.17073393640E+01  0.22153416457E+03  0.13431365200E+03  0.25907616292E+03  0.00000000000E+00 0.  1.
<mgrwt>
<rscale>  0 0.14655484E+04</rscale>
<asrwt>0</asrwt>
<pdfrwt beam="1">  1        2 0.46796458E+00 0.14655484E+04</pdfrwt>
<pdfrwt beam="2">  1       -1 0.27158177E-01 0.14655484E+04</pdfrwt>
<totfact> 0.22134635E+01</totfact>
</mgrwt>
</event>
<event>
12    7  0.1909736E-007  0.2070223E+04  0.7818608E-02  0.8574475E-01
         -1   -1    0    0    0  501 -0.00000000000E+00  0.00000000000E+00  0.58284172347E+03  0.58284172347E+03  0.00000000000E+00 0.  1.
          2   -1    0    0  501    0  0.00000000000E+00 -0.00000000000E+00 -0.18383304398E+04  0.18383304398E+04  0.00000000000E+00 0. -1.
         24    2    1    2    0    0 -0.26576450064E+03 -0.34083804121E+03 -0.13537102915E+04  0.14233364363E+04  0.80955033366E+02 0.  0.
        254    2    1    2    0    0  0.26576450064E+03  0.34083804121E+03  0.98221575140E+02  0.99783572701E+03  0.89399514548E+03 0.  0.
         23    2    4    4    0    0 -0.25092203023E+03  0.72796406041E+02  0.26732619915E+03  0.38451460387E+03  0.90149885467E+02 0.  0.
         23    2    4    4    0    0  0.51668653087E+03  0.26804163516E+03 -0.16910462401E+03  0.61332112314E+03  0.93568888325E+02 0.  0.
          4    1    3    3  502    0 -0.23618942069E+03 -0.33348651584E+03 -0.12393651305E+04  0.13049998565E+04  0.00000000000E+00 0. -1.
         -3    1    3    3    0  502 -0.29575079954E+02 -0.73515253661E+01 -0.11434516096E+03  0.11833657978E+03  0.00000000000E+00 0.  1.
         13    1    5    5    0    0 -0.16540794612E+03  0.34158294782E+02  0.11074442623E+03  0.20196758572E+03  0.00000000000E+00 0. -1.
        -13    1    5    5    0    0 -0.85514084111E+02  0.38638111259E+02  0.15658177293E+03  0.18254701815E+03  0.00000000000E+00 0.  1.
          2    1    6    6  503    0  0.20879115468E+03  0.69822780297E+02 -0.94673294241E+02  0.23964974351E+03  0.00000000000E+00 0.  1.
         -2    1    6    6    0  503  0.30789537619E+03  0.19821885487E+03 -0.74431329774E+02  0.37367137963E+03  0.00000000000E+00 0. -1.
<mgrwt>
<rscale>  0 0.20702229E+04</rscale>
<asrwt>0</asrwt>
<pdfrwt beam="1">  1        2 0.28282007E+00 0.20702229E+04</pdfrwt>
<pdfrwt beam="2">  1       -1 0.89667958E-01 0.20702229E+04</pdfrwt>
<totfact> 0.10524548E+01</totfact>
</mgrwt>
</event>
<event>
12    7  0.1909736E-007  0.1660285E+04  0.7818608E-02  0.8784345E-01
          2   -1    0    0  501    0  0.00000000000E+00  0.00000000000E+00  0.16264070138E+04  0.16264070138E+04  0.00000000000E+00 0. -1.
         -1   -1    0    0    0  501 -0.00000000000E+00 -0.00000000000E+00 -0.42371726054E+03  0.42371726054E+03  0.00000000000E+00 0.  1.
         24    2    1    2    0    0  0.34174865865E+03  0.10597831494E+03 -0.14716296347E+03  0.39508999737E+03  0.80097561017E+02 0.  0.
        254    2    1    2    0    0 -0.34174865865E+03 -0.10597831494E+03  0.13498527167E+04  0.16550342770E+04  0.88826378523E+03 0.  0.
         23    2    4    4    0    0 -0.44353354125E+03  0.25486646732E+03  0.49801594386E+03  0.71981087100E+03  0.91808993549E+02 0.  0.
         23    2    4    4    0    0  0.10178488260E+03 -0.36084478225E+03  0.85183677286E+03  0.93522340596E+03  0.91911980999E+02 0.  0.
          4    1    3    3  502    0  0.15836326745E+02 -0.19417672025E+01  0.85623570374E+01  0.18107282034E+02  0.00000000000E+00 0. -1.
         -3    1    3    3    0  502  0.32591233191E+03  0.10792008214E+03 -0.15572532051E+03  0.37698271534E+03  0.00000000000E+00 0.  1.
         13    1    5    5    0    0 -0.12485628985E+03  0.30747841152E+02  0.14824302463E+03  0.19624096719E+03  0.00000000000E+00 0. -1.
        -13    1    5    5    0    0 -0.31867725139E+03  0.22411862617E+03  0.34977291923E+03  0.52356990381E+03  0.00000000000E+00 0.  1.
          3    1    6    6  503    0  0.24159174790E+02 -0.98492477643E+01  0.70029700380E+02  0.74731735851E+02  0.00000000000E+00 0. -1.
         -3    1    6    6    0  503  0.77625707806E+02 -0.35099553449E+03  0.78180707249E+03  0.86049167011E+03  0.00000000000E+00 0.  1.
<mgrwt>
<rscale>  0 0.16602852E+04</rscale>
<asrwt>0</asrwt>
<pdfrwt beam="1">  1        2 0.25021646E+00 0.16602852E+04</pdfrwt>
<pdfrwt beam="2">  1       -1 0.65187272E-01 0.16602852E+04</pdfrwt>
<totfact> 0.27963811E+01</totfact>
</mgrwt>
</event>
<event>
12    7  0.1909736E-007  0.1487514E+04  0.7818608E-02  0.8892799E-01
          2   -1    0    0  501    0  0.00000000000E+00  0.00000000000E+00  0.13702812613E+04  0.13702812613E+04  0.00000000000E+00 0. -1.
         -1   -1    0    0    0  501 -0.00000000000E+00 -0.00000000000E+00 -0.40369386679E+03  0.40369386679E+03  0.00000000000E+00 0.  1.
         24    2    1    2    0    0 -0.11772245584E+03 -0.42334708651E+03  0.49215467593E+03  0.66521014669E+03  0.84893945273E+02 0.  0.
        254    2    1    2    0    0  0.11772245584E+03  0.42334708651E+03  0.47443271860E+03  0.11087649814E+04  0.90066200503E+03 0.  0.
         23    2    4    4    0    0  0.33466903073E+02 -0.25323064371E+03 -0.11046994071E+01  0.27159955496E+03  0.92300083307E+02 0.  0.
         23    2    4    4    0    0  0.84255552771E+02  0.67657773023E+03  0.47553741801E+03  0.83716542647E+03  0.99265765236E+02 0.  0.
          2    1    3    3  502    0 -0.10766840889E+03 -0.39347233362E+03  0.41528827041E+03  0.58213169569E+03  0.00000000000E+00 0. -1.
         -1    1    3    3    0  502 -0.10054046955E+02 -0.29874752896E+02  0.76866405529E+02  0.83078450995E+02  0.00000000000E+00 0.  1.
         13    1    5    5    0    0  0.21765078792E+02 -0.11707973855E+03 -0.46147879648E+02  0.12771456702E+03  0.00000000000E+00 0.  1.
        -13    1    5    5    0    0  0.11701824281E+02 -0.13615090517E+03  0.45043180241E+02  0.14388498794E+03  0.00000000000E+00 0. -1.
          1    1    6    6  503    0  0.86188911519E+02  0.54120940063E+03  0.33644076181E+03  0.64306183996E+03  0.00000000000E+00 0. -1.
         -1    1    6    6    0  503 -0.19333587476E+01  0.13536832959E+03  0.13909665620E+03  0.19410358652E+03  0.00000000000E+00 0.  1.
<mgrwt>
<rscale>  0 0.14875136E+04</rscale>
<asrwt>0</asrwt>
<pdfrwt beam="1">  1        2 0.21081250E+00 0.14875136E+04</pdfrwt>
<pdfrwt beam="2">  1       -1 0.62106749E-01 0.14875136E+04</pdfrwt>
<totfact> 0.43623323E+01</totfact>
</mgrwt>
</event>
<event>
12    7  0.1909736E-007  0.1407479E+04  0.7818608E-02  0.8948423E-01
          2   -1    0    0  501    0  0.00000000000E+00  0.00000000000E+00  0.90656336751E+03  0.90656336751E+03  0.00000000000E+00 0. -1.
         -1   -1    0    0    0  501 -0.00000000000E+00 -0.00000000000E+00 -0.54629299158E+03  0.54629299158E+03  0.00000000000E+00 0.  1.
         24    2    1    2    0    0  0.32808879487E+03  0.13990177185E+03 -0.13042963255E+03  0.38895564247E+03  0.84022852138E+02 0.  0.
        254    2    1    2    0    0 -0.32808879487E+03 -0.13990177185E+03  0.49070000848E+03  0.10639007166E+04  0.87400427539E+03 0.  0.
         23    2    4    4    0    0  0.67340411495E+02  0.25335782731E+03 -0.51819315123E+02  0.28014853706E+03  0.84101377640E+02 0.  0.
         23    2    4    4    0    0 -0.39542920636E+03 -0.39325959915E+03  0.54251932361E+03  0.78375217955E+03  0.94461065469E+02 0.  0.
          2    1    3    3  502    0  0.33112271344E+03  0.13158937452E+03 -0.12169093841E+03  0.37651918854E+03  0.00000000000E+00 0. -1.
         -1    1    3    3    0  502 -0.30339185767E+01  0.83123973286E+01 -0.87386941384E+01  0.12436453937E+02  0.00000000000E+00 0.  1.
         13    1    5    5    0    0  0.72669523507E+02  0.25312995767E+03 -0.60262657630E+02  0.27016147583E+03  0.00000000000E+00 0. -1.
        -13    1    5    5    0    0 -0.53291120116E+01  0.22786963506E+00  0.84433425071E+01  0.99870612341E+01  0.00000000000E+00 0.  1.
          1    1    6    6  503    0 -0.30568643894E+03 -0.35010579624E+03  0.42591486658E+03  0.63041394423E+03  0.00000000000E+00 0. -1.
         -1    1    6    6    0  503 -0.89742767423E+02 -0.43153802915E+02  0.11660445703E+03  0.15333823532E+03  0.00000000000E+00 0.  1.
<mgrwt>
<rscale>  0 0.14074789E+04</rscale>
<asrwt>0</asrwt>
<pdfrwt beam="1">  1        2 0.13947129E+00 0.14074789E+04</pdfrwt>
<pdfrwt beam="2">  1       -1 0.84045076E-01 0.14074789E+04</pdfrwt>
<totfact> 0.45223053E+01</totfact>
</mgrwt>
</event>
<event>
12    7  0.1909736E-007  0.1979115E+04  0.7818608E-02  0.8616448E-01
         -1   -1    0    0    0  501 -0.00000000000E+00  0.00000000000E+00  0.29571277263E+03  0.29571277263E+03  0.00000000000E+00 0.  1.
          2   -1    0    0  501    0  0.00000000000E+00 -0.00000000000E+00 -0.33114028672E+04  0.33114028672E+04  0.00000000000E+00 0. -1.
         24    2    1    2    0    0  0.15262554942E+03 -0.76616480186E+03 -0.12461828053E+04  0.14729795080E+04  0.79962395483E+02 0.  0.
        254    2    1    2    0    0 -0.15262554942E+03  0.76616480186E+03 -0.17695072892E+04  0.21341361318E+04  0.90170833458E+03 0.  0.
         23    2    4    4    0    0 -0.10839930350E+03  0.16530327780E+03 -0.14090457384E+04  0.14261660660E+04  0.97283977087E+02 0.  0.
         23    2    4    4    0    0 -0.44226245921E+02  0.60086152406E+03 -0.36046155081E+03  0.70797006584E+03  0.91096391769E+02 0.  0.
          4    1    3    3  502    0  0.21771311900E+02 -0.14998186559E+03 -0.18781858304E+03  0.24133870423E+03  0.00000000000E+00 0. -1.
         -3    1    3    3    0  502  0.13085423752E+03 -0.61618293627E+03 -0.10583642223E+04  0.12316408038E+04  0.00000000000E+00 0.  1.
         13    1    5    5    0    0 -0.18731294691E+02 -0.10213048202E+02 -0.91130643944E+02  0.93594668759E+02  0.00000000000E+00 0.  1.
        -13    1    5    5    0    0 -0.89668008808E+02  0.17551632600E+03 -0.13179150945E+04  0.13325713972E+04  0.00000000000E+00 0. -1.
          2    1    6    6  503    0 -0.26942036600E+02  0.19827842159E+03 -0.73047359545E+02  0.21301671893E+03  0.00000000000E+00 0. -1.
         -2    1    6    6    0  503 -0.17284209321E+02  0.40258310247E+03 -0.28741419127E+03  0.49495334692E+03  0.00000000000E+00 0.  1.
<mgrwt>
<rscale>  0 0.19791151E+04</rscale>
<asrwt>0</asrwt>
<pdfrwt beam="1">  1        2 0.50944662E+00 0.19791151E+04</pdfrwt>
<pdfrwt beam="2">  1       -1 0.45494270E-01 0.19791151E+04</pdfrwt>
<totfact> 0.55875473E+00</totfact>
</mgrwt>
</event>
<event>
12    7  0.1909736E-007  0.2846201E+04  0.7818608E-02  0.8289067E-01
         -3   -1    0    0    0  501 -0.00000000000E+00  0.00000000000E+00  0.75107271404E+03  0.75107271404E+03  0.00000000000E+00 0.  1.
          2   -1    0    0  501    0  0.00000000000E+00 -0.00000000000E+00 -0.26964303182E+04  0.26964303182E+04  0.00000000000E+00 0. -1.
         24    2    1    2    0    0  0.68098246628E+03 -0.23386405350E+03  0.40193679863E+03  0.82848224653E+03  0.80000798870E+02 0.  0.
        254    2    1    2    0    0 -0.68098246628E+03  0.23386405350E+03 -0.23472944028E+04  0.26190207857E+04  0.91161908041E+03 0.  0.
         23    2    4    4    0    0 -0.26347556003E+03 -0.28725621569E+03 -0.14005147712E+04  0.14566409459E+04  0.91791703211E+02 0.  0.
         23    2    4    4    0    0 -0.41750690625E+03  0.52112026918E+03 -0.94677963159E+03  0.11623798398E+04  0.94110942402E+02 0.  0.
          4    1    3    3  502    0  0.21606905885E+02 -0.12335030756E+02  0.32311568580E+02  0.40780495703E+02  0.00000000000E+00 0. -1.
         -3    1    3    3    0  502  0.65937556040E+03 -0.22152902274E+03  0.36962523005E+03  0.78770175082E+03  0.00000000000E+00 0.  1.
         13    1    5    5    0    0  0.70549994946E-01 -0.36604462197E+02 -0.11736754823E+03  0.12294321050E+03  0.00000000000E+00 0. -1.
        -13    1    5    5    0    0 -0.26354611002E+03 -0.25065175349E+03 -0.12831472230E+04  0.13336977354E+04  0.00000000000E+00 0.  1.
          2    1    6    6  503    0 -0.90300660371E+02  0.10155077093E+03 -0.13338495183E+03  0.19041615927E+03  0.00000000000E+00 0. -1.
         -2    1    6    6    0  503 -0.32720624588E+03  0.41956949826E+03 -0.81339467976E+03  0.97196368054E+03  0.00000000000E+00 0.  1.
<mgrwt>
<rscale>  0 0.28462011E+04</rscale>
<asrwt>0</asrwt>
<pdfrwt beam="1">  1        2 0.41483543E+00 0.28462011E+04</pdfrwt>
<pdfrwt beam="2">  1       -3 0.11554965E+00 0.28462011E+04</pdfrwt>
<totfact> 0.91481445E-01</totfact>
</mgrwt>
</event>
<event>
12    7  0.1909736E-007  0.3298638E+04  0.7818608E-02  0.8163242E-01
         -1   -1    0    0    0  501 -0.00000000000E+00  0.00000000000E+00  0.13302472830E+04  0.13302472830E+04  0.00000000000E+00 0.  1.
          2   -1    0    0  501    0  0.00000000000E+00 -0.00000000000E+00 -0.20449229618E+04  0.20449229618E+04  0.00000000000E+00 0. -1.
         24    2    1    2    0    0 -0.83091332850E+02  0.13367836052E+04 -0.10773713417E+04  0.17208646320E+04  0.82167494247E+02 0.  0.
        254    2    1    2    0    0  0.83091332850E+02 -0.13367836052E+04  0.36269566283E+03  0.16543056128E+04  0.90071323951E+03 0.  0.
         23    2    4    4    0    0 -0.11549999385E+03 -0.84350089687E+02  0.34362126681E+03  0.38281394251E+03  0.89530739810E+02 0.  0.
         23    2    4    4    0    0  0.19859132670E+03 -0.12524335155E+04  0.19074396022E+02  0.12714916703E+04  0.91098897257E+02 0.  0.
          4    1    3    3  502    0 -0.97763428687E+02  0.11405440623E+04 -0.90486252209E+03  0.14591691574E+04  0.00000000000E+00 0. -1.
         -3    1    3    3    0  502  0.14672095838E+02  0.19623954290E+03 -0.17250881960E+03  0.26169547461E+03  0.00000000000E+00 0.  1.
         13    1    5    5    0    0 -0.18277343436E+02  0.52315180409E+01  0.55366727197E+01  0.19801131505E+02  0.00000000000E+00 0. -1.
        -13    1    5    5    0    0 -0.97222650410E+02 -0.89581607728E+02  0.33808459409E+03  0.36301281101E+03  0.00000000000E+00 0.  1.
          3    1    6    6  503    0  0.73897493420E+01 -0.28638528209E+03  0.10261418303E+02  0.28666432443E+03  0.00000000000E+00 0. -1.
         -3    1    6    6    0  503  0.19120157735E+03 -0.96604823344E+03  0.88129777194E+01  0.98482734583E+03  0.00000000000E+00 0.  1.
<mgrwt>
<rscale>  0 0.32986380E+04</rscale>
<asrwt>0</asrwt>
<pdfrwt beam="1">  1        2 0.31460353E+00 0.32986380E+04</pdfrwt>
<pdfrwt beam="2">  1       -1 0.20465343E+00 0.32986380E+04</pdfrwt>
<totfact> 0.83776951E-01</totfact>
</mgrwt>
</event>
<event>
12    7  0.1909736E-007  0.2405661E+04  0.7818608E-02  0.8437387E-01
         -1   -1    0    0    0  501 -0.00000000000E+00  0.00000000000E+00  0.52964450225E+03  0.52964450225E+03  0.00000000000E+00 0.  1.
          2   -1    0    0  501    0  0.00000000000E+00 -0.00000000000E+00 -0.27316447450E+04  0.27316447450E+04  0.00000000000E+00 0. -1.
         24    2    1    2    0    0  0.26313208133E+03  0.25522530119E+03 -0.22558135978E+04  0.22867537303E+04  0.78544180734E+02 0.  0.
        254    2    1    2    0    0 -0.26313208133E+03 -0.25522530119E+03  0.53813355121E+02  0.97453551689E+03  0.90135739299E+03 0.  0.
         23    2    4    4    0    0 -0.36022625994E+03  0.17210119934E+03  0.25658011301E+03  0.48332332419E+03  0.91576744621E+02 0.  0.
         23    2    4    4    0    0  0.97094178605E+02 -0.42732650052E+03 -0.20276675789E+03  0.49121219270E+03  0.90221076171E+02 0.  0.
          4    1    3    3  502    0  0.16378829742E+03  0.14369615143E+03 -0.15558110742E+04  0.15709943631E+04  0.00000000000E+00 0. -1.
         -3    1    3    3    0  502  0.99343783917E+02  0.11152914976E+03 -0.70000252362E+03  0.71575936720E+03  0.00000000000E+00 0.  1.
         13    1    5    5    0    0 -0.28290554428E+03  0.17050586915E+03  0.22564095543E+03  0.40002704804E+03  0.00000000000E+00 0.  1.
        -13    1    5    5    0    0 -0.77320715663E+02  0.15953301846E+01  0.30939157575E+02  0.83296276150E+02  0.00000000000E+00 0. -1.
          3    1    6    6  503    0  0.11075065099E+02 -0.13018808567E+03 -0.20748371037E+02  0.13229546333E+03  0.00000000000E+00 0. -1.
         -3    1    6    6    0  503  0.86019113506E+02 -0.29713841485E+03 -0.18201838685E+03  0.35891672937E+03  0.00000000000E+00 0.  1.
<mgrwt>
<rscale>  0 0.24056605E+04</rscale>
<asrwt>0</asrwt>
<pdfrwt beam="1">  1        2 0.42025303E+00 0.24056605E+04</pdfrwt>
<pdfrwt beam="2">  1       -1 0.81483771E-01 0.24056605E+04</pdfrwt>
<totfact> 0.38985269E+00</totfact>
</mgrwt>
</event>
<event>
12    7  0.1909736E-007  0.2667576E+04  0.7818608E-02  0.8345603E-01
          2   -1    0    0  501    0  0.00000000000E+00  0.00000000000E+00  0.10840714737E+04  0.10840714737E+04  0.00000000000E+00 0. -1.
         -1   -1    0    0    0  501 -0.00000000000E+00 -0.00000000000E+00 -0.16410273701E+04  0.16410273701E+04  0.00000000000E+00 0.  1.
         24    2    1    2    0    0  0.62942717541E+03  0.25924055239E+03  0.73856739290E+03  0.10075495244E+04  0.79309628629E+02 0.  0.
        254    2    1    2    0    0 -0.62942717541E+03 -0.25924055239E+03 -0.12955232893E+04  0.17175493194E+04  0.89900547185E+03 0.  0.
         23    2    4    4    0    0 -0.75772206506E+03 -0.82639606922E+02 -0.12662306909E+04  0.14809007315E+04  0.93566988840E+02 0.  0.
         23    2    4    4    0    0  0.12829488965E+03 -0.17660094547E+03 -0.29292598416E+02  0.23664858797E+03  0.86585363759E+02 0.  0.
          4    1    3    3  502    0  0.43019748072E+03  0.18024964214E+03  0.45017646752E+03  0.64824274606E+03  0.00000000000E+00 0. -1.
         -3    1    3    3    0  502  0.19922969469E+03  0.78990910253E+02  0.28839092537E+03  0.35930677838E+03  0.00000000000E+00 0.  1.
         13    1    5    5    0    0 -0.39246007642E+03 -0.21116255383E+02 -0.73167883091E+03  0.83055687308E+03  0.00000000000E+00 0. -1.
        -13    1    5    5    0    0 -0.36526198864E+03 -0.61523351539E+02 -0.53455185997E+03  0.65034385838E+03  0.00000000000E+00 0.  1.
          2    1    6    6  503    0  0.69406713673E+02 -0.29721692763E+02 -0.20124154940E+02  0.78138675031E+02  0.00000000000E+00 0.  1.
         -2    1    6    6    0  503  0.58888175975E+02 -0.14687925270E+03 -0.91684434756E+01  0.15850991294E+03  0.00000000000E+00 0. -1.
<mgrwt>
<rscale>  0 0.26675764E+04</rscale>
<asrwt>0</asrwt>
<pdfrwt beam="1">  1        2 0.16678023E+00 0.26675764E+04</pdfrwt>
<pdfrwt beam="2">  1       -1 0.25246575E+00 0.26675764E+04</pdfrwt>
<totfact> 0.15010406E+00</totfact>
</mgrwt>
</event>
<event>
12    7  0.1909736E-007  0.1299673E+04  0.7818608E-02  0.9029824E-01
          2   -1    0    0  501    0  0.00000000000E+00  0.00000000000E+00  0.22283001755E+04  0.22283001755E+04  0.00000000000E+00 0. -1.
         -1   -1    0    0    0  501 -0.00000000000E+00 -0.00000000000E+00 -0.18951109396E+03  0.18951109396E+03  0.00000000000E+00 0.  1.
         24    2    1    2    0    0 -0.96023598033E+02 -0.31641602754E+03  0.55915031560E+03  0.65429443989E+03  0.78182509296E+02 0.  0.
        254    2    1    2    0    0  0.96023598033E+02  0.31641602754E+03  0.14796387660E+04  0.17635168296E+04  0.90073364359E+03 0.  0.
         23    2    4    4    0    0 -0.22697179903E+03  0.27876024267E+03  0.16430647692E+03  0.40558742506E+03  0.91000387730E+02 0.  0.
         23    2    4    4    0    0  0.32299539706E+03  0.37655784873E+02  0.13153322890E+04  0.13579294045E+04  0.90162367132E+02 0.  0.
          2    1    3    3  502    0 -0.38562883255E+02 -0.23132488886E+03  0.35007160039E+03  0.42136495532E+03  0.00000000000E+00 0. -1.
         -1    1    3    3    0  502 -0.57460714778E+02 -0.85091138685E+02  0.20907871522E+03  0.23292948457E+03  0.00000000000E+00 0.  1.
         13    1    5    5    0    0 -0.86299163242E+02  0.49618604555E+02  0.65342555942E+02  0.11907645070E+03  0.00000000000E+00 0.  1.
        -13    1    5    5    0    0 -0.14067263578E+03  0.22914163812E+03  0.98963920973E+02  0.28651097436E+03  0.00000000000E+00 0. -1.
          2    1    6    6  503    0  0.14937234338E+03  0.46352927446E+02  0.48497313639E+03  0.50956808561E+03  0.00000000000E+00 0.  1.
         -2    1    6    6    0  503  0.17362305367E+03 -0.86971425730E+01  0.83035915266E+03  0.84836131893E+03  0.00000000000E+00 0. -1.
<mgrwt>
<rscale>  0 0.12996732E+04</rscale>
<asrwt>0</asrwt>
<pdfrwt beam="1">  1        2 0.34281539E+00 0.12996732E+04</pdfrwt>
<pdfrwt beam="2">  1       -1 0.29155554E-01 0.12996732E+04</pdfrwt>
<totfact> 0.59759077E+01</totfact>
</mgrwt>
</event>
<event>
12    7  0.1909736E-007  0.2625364E+04  0.7818608E-02  0.8359636E-01
         -1   -1    0    0    0  501 -0.00000000000E+00  0.00000000000E+00  0.10625572459E+04  0.10625572459E+04  0.00000000000E+00 0.  1.
          2   -1    0    0  501    0  0.00000000000E+00 -0.00000000000E+00 -0.16216853762E+04  0.16216853762E+04  0.00000000000E+00 0. -1.
         24    2    1    2    0    0 -0.35048984896E+03  0.96514429800E+03 -0.81023951901E+03  0.13103911799E+04  0.79311512078E+02 0.  0.
        254    2    1    2    0    0  0.35048984896E+03 -0.96514429800E+03  0.25111138874E+03  0.13738514423E+04  0.87753302260E+03 0.  0.
         23    2    4    4    0    0 -0.27922718898E+03 -0.21018379004E+03  0.32094984187E+02  0.36255017405E+03  0.90925750075E+02 0.  0.
         23    2    4    4    0    0  0.62971703794E+03 -0.75496050795E+03  0.21901640455E+03  0.10113012682E+04  0.90846867014E+02 0.  0.
          2    1    3    3  502    0 -0.30341028091E+03  0.74038523012E+03 -0.62219516600E+03  0.10135851775E+04  0.00000000000E+00 0. -1.
         -1    1    3    3    0  502 -0.47079568046E+02  0.22475906788E+03 -0.18804435301E+03  0.29680600233E+03  0.00000000000E+00 0.  1.
         13    1    5    5    0    0 -0.22969127903E+03 -0.21040163774E+03  0.30605147484E+02  0.31299138627E+03  0.00000000000E+00 0. -1.
        -13    1    5    5    0    0 -0.49535909954E+02  0.21784769753E+00  0.14898367033E+01  0.49558787777E+02  0.00000000000E+00 0.  1.
          1    1    6    6  503    0  0.34632536688E+03 -0.43407641308E+03  0.16800823886E+03  0.58016408064E+03  0.00000000000E+00 0. -1.
         -1    1    6    6    0  503  0.28339167106E+03 -0.32088409487E+03  0.51008165689E+02  0.43113718761E+03  0.00000000000E+00 0.  1.
<mgrwt>
<rscale>  0 0.26253636E+04</rscale>
<asrwt>0</asrwt>
<pdfrwt beam="1">  1        2 0.24949006E+00 0.26253636E+04</pdfrwt>
<pdfrwt beam="2">  1       -1 0.16347035E+00 0.26253636E+04</pdfrwt>
<totfact> 0.29990807E+00</totfact>
</mgrwt>
</event>
<event>
12    7  0.1909736E-007  0.1758363E+04  0.7818608E-02  0.8728760E-01
          2   -1    0    0  501    0  0.00000000000E+00  0.00000000000E+00  0.87696169195E+03  0.87696169195E+03  0.00000000000E+00 0. -1.
         -1   -1    0    0    0  501 -0.00000000000E+00 -0.00000000000E+00 -0.88140690511E+03  0.88140690511E+03  0.00000000000E+00 0.  1.
         24    2    1    2    0    0 -0.20182099138E+03 -0.60378280926E+03 -0.91157720739E+01  0.64164685056E+03  0.79637869202E+02 0.  0.
        254    2    1    2    0    0  0.20182099138E+03  0.60378280926E+03  0.46705589211E+01  0.11167217465E+04  0.91747493245E+03 0.  0.
         23    2    4    4    0    0  0.27839648652E+03 -0.15481296894E+02  0.30032621873E+03  0.42016788649E+03  0.92741257922E+02 0.  0.
         23    2    4    4    0    0 -0.76575495147E+02  0.61926410616E+03 -0.29565565981E+03  0.69655386001E+03  0.91777835439E+02 0.  0.
          4    1    3    3  502    0 -0.64262628161E+02 -0.10279637302E+03 -0.14470907608E+02  0.12209089586E+03  0.00000000000E+00 0. -1.
         -3    1    3    3    0  502 -0.13755836321E+03 -0.50098643625E+03  0.53551355343E+01  0.51955595470E+03  0.00000000000E+00 0.  1.
         13    1    5    5    0    0  0.20362832140E+03  0.24432357524E+02  0.24234331556E+03  0.31747711093E+03  0.00000000000E+00 0. -1.
        -13    1    5    5    0    0  0.74768165127E+02 -0.39913654417E+02  0.57982903174E+02  0.10269077556E+03  0.00000000000E+00 0.  1.
          4    1    6    6  503    0 -0.37224888022E+02  0.49141531038E+03 -0.19883094619E+03  0.53142115570E+03  0.00000000000E+00 0. -1.
         -4    1    6    6    0  503 -0.39350607125E+02  0.12784879578E+03 -0.96824713622E+02  0.16513270430E+03  0.00000000000E+00 0.  1.
<mgrwt>
<rscale>  0 0.17583630E+04</rscale>
<asrwt>0</asrwt>
<pdfrwt beam="1">  1        2 0.13491718E+00 0.17583630E+04</pdfrwt>
<pdfrwt beam="2">  1       -1 0.13560106E+00 0.17583630E+04</pdfrwt>
<totfact> 0.14969159E+01</totfact>
</mgrwt>
</event>
<event>
12    7  0.1909736E-007  0.1493063E+04  0.7818608E-02  0.8889079E-01
          2   -1    0    0  501    0  0.00000000000E+00  0.00000000000E+00  0.11304214387E+04  0.11304214387E+04  0.00000000000E+00 0. -1.
         -1   -1    0    0    0  501 -0.00000000000E+00 -0.00000000000E+00 -0.49301006640E+03  0.49301006640E+03  0.00000000000E+00 0.  1.
         24    2    1    2    0    0  0.40617547554E+03  0.98335142573E+02 -0.40628647656E+02  0.42727672024E+03  0.79160542313E+02 0.  0.
        254    2    1    2    0    0 -0.40617547554E+03 -0.98335142573E+02  0.67804002000E+03  0.11961547849E+04  0.89241228338E+03 0.  0.
         23    2    4    4    0    0 -0.26289160761E+03  0.16115962824E+03  0.80041472756E+03  0.86238840235E+03  0.89250194901E+02 0.  0.
         23    2    4    4    0    0 -0.14328386793E+03 -0.25949477081E+03 -0.12237470756E+03  0.33376638255E+03  0.92502033379E+02 0.  0.
          2    1    3    3  502    0  0.30534659753E+03  0.65214209816E+02  0.37167317482E+01  0.31225510705E+03  0.00000000000E+00 0. -1.
         -1    1    3    3    0  502  0.10082887801E+03  0.33120932757E+02 -0.44345379404E+02  0.11502161319E+03  0.00000000000E+00 0.  1.
         13    1    5    5    0    0 -0.17779427425E+03  0.15468672297E+03  0.58956350020E+03  0.63492039421E+03  0.00000000000E+00 0. -1.
        -13    1    5    5    0    0 -0.85097333353E+02  0.64729052671E+01  0.21085122737E+03  0.22746800814E+03  0.00000000000E+00 0.  1.
          4    1    6    6  503    0 -0.80168741360E+02 -0.22216485647E+03 -0.81736518395E+02  0.24993020822E+03  0.00000000000E+00 0. -1.
         -4    1    6    6    0  503 -0.63115126570E+02 -0.37329914341E+02 -0.40638189169E+02  0.83836174326E+02  0.00000000000E+00 0.  1.
<mgrwt>
<rscale>  0 0.14930628E+04</rscale>
<asrwt>0</asrwt>
<pdfrwt beam="1">  1        2 0.17391099E+00 0.14930628E+04</pdfrwt>
<pdfrwt beam="2">  1       -1 0.75847703E-01 0.14930628E+04</pdfrwt>
<totfact> 0.40180442E+01</totfact>
</mgrwt>
</event>
<event>
12    7  0.1909736E-007  0.2170803E+04  0.7818608E-02  0.8530680E-01
         -1   -1    0    0    0  501 -0.00000000000E+00  0.00000000000E+00  0.31651605894E+03  0.31651605894E+03  0.00000000000E+00 0.  1.
          2   -1    0    0  501    0  0.00000000000E+00 -0.00000000000E+00 -0.37220757503E+04  0.37220757503E+04  0.00000000000E+00 0. -1.
         24    2    1    2    0    0  0.17590080172E+03  0.45281610106E+02  0.22036091327E+03  0.29673821249E+03  0.80641914647E+02 0.  0.
        254    2    1    2    0    0 -0.17590080172E+03 -0.45281610106E+02 -0.36259206046E+04  0.37418535967E+04  0.90618794527E+03 0.  0.
         23    2    4    4    0    0 -0.32632744271E+03 -0.32785701597E+03 -0.11371026854E+04  0.12309187002E+04  0.90435096663E+02 0.  0.
         23    2    4    4    0    0  0.15042664099E+03  0.28257540587E+03 -0.24888179192E+04  0.25109348965E+04  0.90013249079E+02 0.  0.
          4    1    3    3  502    0  0.72652550368E+02  0.15091343734E+02  0.34140013124E+02  0.81680366226E+02  0.00000000000E+00 0. -1.
         -1    1    3    3    0  502  0.10324825135E+03  0.30190266372E+02  0.18622090014E+03  0.21505784626E+03  0.00000000000E+00 0.  1.
         13    1    5    5    0    0 -0.13163484052E+03 -0.82587145048E+02 -0.44239831506E+03  0.46889725627E+03  0.00000000000E+00 0.  1.
        -13    1    5    5    0    0 -0.19469260219E+03 -0.24526987092E+03 -0.69470437031E+03  0.76202144396E+03  0.00000000000E+00 0. -1.
          3    1    6    6  503    0  0.82709880754E+02  0.20528134201E+03 -0.19396223384E+04  0.19522080241E+04  0.00000000000E+00 0. -1.
         -3    1    6    6    0  503  0.67716760241E+02  0.77294063856E+02 -0.54919558089E+03  0.55872687244E+03  0.00000000000E+00 0.  1.
<mgrwt>
<rscale>  0 0.21708033E+04</rscale>
<asrwt>0</asrwt>
<pdfrwt beam="1">  1        2 0.57262702E+00 0.21708033E+04</pdfrwt>
<pdfrwt beam="2">  1       -1 0.48694780E-01 0.21708033E+04</pdfrwt>
<totfact> 0.24869130E+00</totfact>
</mgrwt>
</event>
<event>
12    7  0.1909736E-007  0.1560860E+04  0.7818608E-02  0.8844961E-01
          2   -1    0    0  501    0  0.00000000000E+00  0.00000000000E+00  0.85528933944E+03  0.85528933944E+03  0.00000000000E+00 0. -1.
         -3   -1    0    0    0  501 -0.00000000000E+00 -0.00000000000E+00 -0.71212274669E+03  0.71212274669E+03  0.00000000000E+00 0.  1.
         24    2    1    2    0    0 -0.44964290659E+03  0.27117281267E+03  0.11848048723E+03  0.54447776890E+03  0.81883925119E+02 0.  0.
        254    2    1    2    0    0  0.44964290659E+03 -0.27117281267E+03  0.24686105515E+02  0.10229343172E+04  0.87753733583E+03 0.  0.
         23    2    4    4    0    0 -0.19640925413E+03  0.10022220901E+03 -0.10601759960E+03  0.26076494020E+03  0.90208294107E+02 0.  0.
         23    2    4    4    0    0  0.64605216072E+03 -0.37139502168E+03  0.13070370511E+03  0.76216937703E+03  0.92201107605E+02 0.  0.
          4    1    3    3  502    0 -0.19768380815E+03  0.15838629931E+03  0.32725117051E+02  0.25541347086E+03  0.00000000000E+00 0. -1.
         -1    1    3    3    0  502 -0.25195909845E+03  0.11278651336E+03  0.85755370180E+02  0.28906429804E+03  0.00000000000E+00 0.  1.
         13    1    5    5    0    0 -0.19022618252E+03  0.11326129600E+03 -0.89411266333E+02  0.23876452047E+03  0.00000000000E+00 0. -1.
        -13    1    5    5    0    0 -0.61830716096E+01 -0.13039086983E+02 -0.16606333265E+02  0.22000419732E+02  0.00000000000E+00 0.  1.
          2    1    6    6  503    0  0.43515090987E+03 -0.29129302057E+03  0.11426517295E+03  0.53597058495E+03  0.00000000000E+00 0. -1.
         -2    1    6    6    0  503  0.21090125086E+03 -0.80102001116E+02  0.16438532167E+02  0.22619879207E+03  0.00000000000E+00 0.  1.
<mgrwt>
<rscale>  0 0.15608600E+04</rscale>
<asrwt>0</asrwt>
<pdfrwt beam="1">  1        2 0.13158298E+00 0.15608600E+04</pdfrwt>
<pdfrwt beam="2">  1       -3 0.10955735E+00 0.15608600E+04</pdfrwt>
<totfact> 0.13477586E+01</totfact>
</mgrwt>
</event>
<event>
12    7  0.1909736E-007  0.1520636E+04  0.7818608E-02  0.8870845E-01
         -1   -1    0    0    0  501 -0.00000000000E+00  0.00000000000E+00  0.75984873196E+03  0.75984873196E+03  0.00000000000E+00 0.  1.
          2   -1    0    0  501    0  0.00000000000E+00 -0.00000000000E+00 -0.76078755748E+03  0.76078755748E+03  0.00000000000E+00 0. -1.
         24    2    1    2    0    0 -0.32802054165E+03  0.25420262307E+03 -0.29821406138E+03  0.51730804255E+03  0.80371233400E+02 0.  0.
        254    2    1    2    0    0  0.32802054165E+03 -0.25420262307E+03  0.29727523586E+03  0.10033282469E+04  0.86375838975E+03 0.  0.
         23    2    4    4    0    0 -0.38257810148E-01  0.27245422149E+03  0.23709420193E+03  0.37271350141E+03  0.92034717750E+02 0.  0.
         23    2    4    4    0    0  0.32805879946E+03 -0.52665684457E+03  0.60181033932E+02  0.63061474550E+03  0.95200801252E+02 0.  0.
          2    1    3    3  502    0 -0.18713724363E+03  0.12260746532E+03 -0.20385492097E+03  0.30267105463E+03  0.00000000000E+00 0. -1.
         -1    1    3    3    0  502 -0.14088329802E+03  0.13159515775E+03 -0.94359140410E+02  0.21463698792E+03  0.00000000000E+00 0.  1.
         13    1    5    5    0    0  0.35073235462E+02  0.45951090665E+02  0.38664526841E+02  0.69545526204E+02  0.00000000000E+00 0. -1.
        -13    1    5    5    0    0 -0.35111493273E+02  0.22650313083E+03  0.19842967508E+03  0.30316797520E+03  0.00000000000E+00 0.  1.
          4    1    6    6  503    0  0.29443909561E+03 -0.42677604222E+03  0.23486444399E+02  0.51902194973E+03  0.00000000000E+00 0.  1.
         -4    1    6    6    0  503  0.33619703848E+02 -0.99880802349E+02  0.36694589533E+02  0.11159279576E+03  0.00000000000E+00 0. -1.
<mgrwt>
<rscale>  0 0.15206360E+04</rscale>
<asrwt>0</asrwt>
<pdfrwt beam="1">  1        2 0.11704424E+00 0.15206360E+04</pdfrwt>
<pdfrwt beam="2">  1       -1 0.11689980E+00 0.15206360E+04</pdfrwt>
<totfact> 0.26762228E+01</totfact>
</mgrwt>
</event>
<event>
12    7  0.1909736E-007  0.1716908E+04  0.7818608E-02  0.8751779E-01
          2   -1    0    0  501    0  0.00000000000E+00  0.00000000000E+00  0.17512517635E+04  0.17512517635E+04  0.00000000000E+00 0. -1.
         -1   -1    0    0    0  501 -0.00000000000E+00 -0.00000000000E+00 -0.42080949955E+03  0.42080949955E+03  0.00000000000E+00 0.  1.
         24    2    1    2    0    0 -0.60481620414E+03  0.94280369286E+02  0.56660238666E+03  0.83802455462E+03  0.80965799894E+02 0.  0.
        254    2    1    2    0    0  0.60481620414E+03 -0.94280369286E+02  0.76383987725E+03  0.13340367084E+04  0.90637252409E+03 0.  0.
         23    2    4    4    0    0  0.24380671698E+03 -0.43883138392E+03  0.13492857472E+03  0.52615418499E+03  0.81349906891E+02 0.  0.
         23    2    4    4    0    0  0.36100948717E+03  0.34455101463E+03  0.62891130253E+03  0.80788252340E+03  0.90008297754E+02 0.  0.
          4    1    3    3  502    0 -0.23712551813E+03  0.39628836445E+02  0.16999987044E+03  0.29444678972E+03  0.00000000000E+00 0. -1.
         -3    1    3    3    0  502 -0.36769068601E+03  0.54651532841E+02  0.39660251622E+03  0.54357776490E+03  0.00000000000E+00 0.  1.
         13    1    5    5    0    0  0.20351951762E+03 -0.32555915394E+03  0.72629457249E+02  0.39074799402E+03  0.00000000000E+00 0.  1.
        -13    1    5    5    0    0  0.40287199353E+02 -0.11327222997E+03  0.62299117472E+02  0.13540619097E+03  0.00000000000E+00 0. -1.
          1    1    6    6  503    0  0.11588652794E+03  0.11692245270E+03  0.27791634911E+03  0.32301400032E+03  0.00000000000E+00 0. -1.
         -1    1    6    6    0  503  0.24512295923E+03  0.22762856193E+03  0.35099495342E+03  0.48486852308E+03  0.00000000000E+00 0.  1.
<mgrwt>
<rscale>  0 0.17169081E+04</rscale>
<asrwt>0</asrwt>
<pdfrwt beam="1">  1        2 0.26942334E+00 0.17169081E+04</pdfrwt>
<pdfrwt beam="2">  1       -1 0.64739924E-01 0.17169081E+04</pdfrwt>
<totfact> 0.24049044E+01</totfact>
</mgrwt>
</event>
<event>
12    7  0.1909736E-007  0.1831993E+04  0.7818608E-02  0.8689468E-01
          2   -1    0    0  501    0  0.00000000000E+00  0.00000000000E+00  0.56924642013E+03  0.56924642013E+03  0.00000000000E+00 0. -1.
         -1   -1    0    0    0  501 -0.00000000000E+00 -0.00000000000E+00 -0.14739661719E+04  0.14739661719E+04  0.00000000000E+00 0.  1.
         24    2    1    2    0    0 -0.68953357970E+03 -0.20179717097E+02 -0.40488577146E+03  0.80366005194E+03  0.77930819583E+02 0.  0.
        254    2    1    2    0    0  0.68953357970E+03  0.20179717097E+02 -0.49983398033E+03  0.12395525401E+04  0.90044028859E+03 0.  0.
         23    2    4    4    0    0  0.20045084843E+03 -0.30121134233E+03 -0.52853290098E+03  0.64662251827E+03  0.88683923807E+02 0.  0.
         23    2    4    4    0    0  0.48908273126E+03  0.32139105942E+03  0.28698920645E+02  0.59293002185E+03  0.90819885833E+02 0.  0.
          4    1    3    3  502    0 -0.59924546801E+03  0.98190071614E+00 -0.37170852187E+03  0.70516900123E+03  0.00000000000E+00 0. -1.
         -1    1    3    3    0  502 -0.90288111684E+02 -0.21161617813E+02 -0.33177249595E+02  0.98491050713E+02  0.00000000000E+00 0.  1.
         13    1    5    5    0    0  0.13656282518E+03 -0.26735988539E+03 -0.42484910455E+03  0.52021868015E+03  0.00000000000E+00 0. -1.
        -13    1    5    5    0    0  0.63888023256E+02 -0.33851456937E+02 -0.10368379642E+03  0.12640383813E+03  0.00000000000E+00 0.  1.
          3    1    6    6  503    0  0.43887230717E+03  0.25117455234E+03  0.30561746857E+02  0.50658817407E+03  0.00000000000E+00 0. -1.
         -3    1    6    6    0  503  0.50210424097E+02  0.70216507087E+02 -0.18628262117E+01  0.86341847773E+02  0.00000000000E+00 0.  1.
<mgrwt>
<rscale>  0 0.18319934E+04</rscale>
<asrwt>0</asrwt>
<pdfrwt beam="1">  1        2 0.87576373E-01 0.18319934E+04</pdfrwt>
<pdfrwt beam="2">  1       -1 0.22676403E+00 0.18319934E+04</pdfrwt>
<totfact> 0.56368885E+00</totfact>
</mgrwt>
</event>
<event>
12    7  0.1909736E-007  0.2506486E+04  0.7818608E-02  0.8400679E-01
         -1   -1    0    0    0  501 -0.00000000000E+00  0.00000000000E+00  0.18076446639E+04  0.18076446639E+04  0.00000000000E+00 0.  1.
          2   -1    0    0  501    0  0.00000000000E+00 -0.00000000000E+00 -0.86887542927E+03  0.86887542927E+03  0.00000000000E+00 0. -1.
         24    2    1    2    0    0  0.97741988605E+03 -0.24316187079E+03 -0.33130139978E+02  0.10110931225E+04  0.82063190284E+02 0.  0.
        254    2    1    2    0    0 -0.97741988605E+03  0.24316187079E+03  0.97189937461E+03  0.16654269706E+04  0.90254156200E+03 0.  0.
         23    2    4    4    0    0 -0.74542267349E+03  0.56864579312E+03  0.68417985189E+03  0.11645392016E+04  0.95060413486E+02 0.  0.
         23    2    4    4    0    0 -0.23199721256E+03 -0.32548392233E+03  0.28771952272E+03  0.50088776902E+03  0.91342996824E+02 0.  0.
          2    1    3    3  502    0  0.74800690912E+03 -0.20484643163E+03  0.39882115545E+01  0.77555934814E+03  0.00000000000E+00 0. -1.
         -1    1    3    3    0  502  0.22941297692E+03 -0.38315439164E+02 -0.37118351532E+02  0.23553377439E+03  0.00000000000E+00 0.  1.
         13    1    5    5    0    0 -0.48747863401E+03  0.40376954380E+03  0.50562270568E+03  0.81013553410E+03  0.00000000000E+00 0. -1.
        -13    1    5    5    0    0 -0.25794403948E+03  0.16487624932E+03  0.17855714621E+03  0.35440366753E+03  0.00000000000E+00 0.  1.
          4    1    6    6  503    0 -0.21254037088E+03 -0.32702241276E+03  0.26858800286E+03  0.47355737032E+03  0.00000000000E+00 0. -1.
         -4    1    6    6    0  503 -0.19456841672E+02  0.15384904363E+01  0.19131519863E+02  0.27330398697E+02  0.00000000000E+00 0.  1.
<mgrwt>
<rscale>  0 0.25064860E+04</rscale>
<asrwt>0</asrwt>
<pdfrwt beam="1">  1        2 0.13367314E+00 0.25064860E+04</pdfrwt>
<pdfrwt beam="2">  1       -1 0.27809918E+00 0.25064860E+04</pdfrwt>
<totfact> 0.14333214E+00</totfact>
</mgrwt>
</event>
<event>
12    7  0.1909736E-007  0.2478235E+04  0.7818608E-02  0.8410781E-01
         -1   -1    0    0    0  501 -0.00000000000E+00  0.00000000000E+00  0.17855239326E+04  0.17855239326E+04  0.00000000000E+00 0.  1.
          2   -1    0    0  501    0  0.00000000000E+00 -0.00000000000E+00 -0.85992282328E+03  0.85992282328E+03  0.00000000000E+00 0. -1.
         24    2    1    2    0    0 -0.49132372818E+03  0.18297535711E+03 -0.60218726179E+03  0.80257130061E+03  0.81315479005E+02 0.  0.
        254    2    1    2    0    0  0.49132372818E+03 -0.18297535711E+03  0.15277883711E+04  0.18428754553E+04  0.88722807076E+03 0.  0.
         23    2    4    4    0    0 -0.85722780972E+02 -0.81741896695E+02 -0.48769263925E+02  0.15856258747E+03  0.93453304860E+02 0.  0.
         23    2    4    4    0    0  0.57704650915E+03 -0.10123346041E+03  0.15765576350E+04  0.16843128678E+04  0.90249503051E+02 0.  0.
          4    1    3    3  502    0 -0.46752439946E+03  0.16613031327E+03 -0.59019532088E+03  0.77104400774E+03  0.00000000000E+00 0. -1.
         -3    1    3    3    0  502 -0.23799328719E+02  0.16845043831E+02 -0.11991940905E+02  0.31527292871E+02  0.00000000000E+00 0.  1.
         13    1    5    5    0    0 -0.64677453251E+02 -0.10031778924E+03 -0.25389316585E+02  0.12203052566E+03  0.00000000000E+00 0.  1.
        -13    1    5    5    0    0 -0.21045327721E+02  0.18575892541E+02 -0.23379947340E+02  0.36532061812E+02  0.00000000000E+00 0. -1.
          2    1    6    6  503    0  0.28743092976E+03 -0.95173150101E+02  0.83303546046E+03  0.88635351089E+03  0.00000000000E+00 0. -1.
         -2    1    6    6    0  503  0.28961557939E+03 -0.60603103098E+01  0.74352217457E+03  0.79795935690E+03  0.00000000000E+00 0.  1.
<mgrwt>
<rscale>  0 0.24782355E+04</rscale>
<asrwt>0</asrwt>
<pdfrwt beam="1">  1        2 0.13229582E+00 0.24782355E+04</pdfrwt>
<pdfrwt beam="2">  1       -1 0.27469599E+00 0.24782355E+04</pdfrwt>
<totfact> 0.15332685E+00</totfact>
</mgrwt>
</event>
<event>
12    7  0.1909736E-007  0.1483874E+04  0.7818608E-02  0.8895248E-01
          2   -1    0    0  501    0  0.00000000000E+00  0.00000000000E+00  0.12392638789E+04  0.12392638789E+04  0.00000000000E+00 0. -1.
         -1   -1    0    0    0  501 -0.00000000000E+00 -0.00000000000E+00 -0.44419167537E+03  0.44419167537E+03  0.00000000000E+00 0.  1.
         24    2    1    2    0    0 -0.14385134723E+02  0.46104390274E+03  0.30602244406E+03  0.55931898686E+03  0.80122284314E+02 0.  0.
        254    2    1    2    0    0  0.14385134723E+02 -0.46104390274E+03  0.48904975944E+03  0.11241365674E+04  0.90096889101E+03 0.  0.
         23    2    4    4    0    0 -0.24979373740E+03  0.12082757065E+03  0.36631382109E+03  0.46733434675E+03  0.84966835013E+02 0.  0.
         23    2    4    4    0    0  0.26417887213E+03 -0.58187147339E+03  0.12273593835E+03  0.65680222063E+03  0.89219720010E+02 0.  0.
          2    1    3    3  502    0 -0.13855586284E+02  0.16453291415E+03  0.65931090030E+02  0.17779191698E+03  0.00000000000E+00 0. -1.
         -1    1    3    3    0  502 -0.52954843948E+00  0.29651098859E+03  0.24009135403E+03  0.38152706988E+03  0.00000000000E+00 0.  1.
         13    1    5    5    0    0  0.59421773099E+01 -0.12972297837E+01  0.37247465340E+01  0.71320412952E+01  0.00000000000E+00 0. -1.
        -13    1    5    5    0    0 -0.25573591471E+03  0.12212480044E+03  0.36258907456E+03  0.46020230545E+03  0.00000000000E+00 0.  1.
          1    1    6    6  503    0  0.72086336217E+02 -0.16911056500E+03  0.76761797037E+02  0.19921645652E+03  0.00000000000E+00 0. -1.
         -1    1    6    6    0  503  0.19209253591E+03 -0.41276090839E+03  0.45974141311E+02  0.45758576411E+03  0.00000000000E+00 0.  1.
<mgrwt>
<rscale>  0 0.14838743E+04</rscale>
<asrwt>0</asrwt>
<pdfrwt beam="1">  1        2 0.19065598E+00 0.14838743E+04</pdfrwt>
<pdfrwt beam="2">  1       -1 0.68337181E-01 0.14838743E+04</pdfrwt>
<totfact> 0.42908768E+01</totfact>
</mgrwt>
</event>
<event>
12    7  0.1909736E-007  0.1605876E+04  0.7818608E-02  0.8816946E-01
          2   -1    0    0  501    0  0.00000000000E+00  0.00000000000E+00  0.96532230277E+03  0.96532230277E+03  0.00000000000E+00 0. -1.
         -1   -1    0    0    0  501 -0.00000000000E+00 -0.00000000000E+00 -0.66786975508E+03  0.66786975508E+03  0.00000000000E+00 0.  1.
         24    2    1    2    0    0 -0.23338380696E+03  0.27184875223E+03  0.53387666260E+03  0.64806674936E+03  0.81218688155E+02 0.  0.
        254    2    1    2    0    0  0.23338380696E+03 -0.27184875223E+03 -0.23642411492E+03  0.98512530850E+03  0.88668244929E+03 0.  0.
         23    2    4    4    0    0  0.33764138500E+03  0.21102555989E+03  0.41509850709E+02  0.41043078734E+03  0.90536576578E+02 0.  0.
         23    2    4    4    0    0 -0.10425757804E+03 -0.48287431212E+03 -0.27793396562E+03  0.57469452116E+03  0.94811705595E+02 0.  0.
          4    1    3    3  502    0 -0.66829389033E+02  0.11570741121E+03  0.25293461900E+03  0.28605994780E+03  0.00000000000E+00 0. -1.
         -1    1    3    3    0  502 -0.16655441793E+03  0.15614134102E+03  0.28094204361E+03  0.36200680156E+03  0.00000000000E+00 0.  1.
         13    1    5    5    0    0  0.25400401805E+03  0.15222586462E+03  0.70020219229E+02  0.30429194229E+03  0.00000000000E+00 0. -1.
        -13    1    5    5    0    0  0.83637366956E+02  0.58799695271E+02 -0.28510368520E+02  0.10613884505E+03  0.00000000000E+00 0.  1.
          3    1    6    6  503    0 -0.32641778503E+02 -0.26513014938E+03 -0.19579630793E+03  0.33120337560E+03  0.00000000000E+00 0. -1.
         -3    1    6    6    0  503 -0.71615799538E+02 -0.21774416274E+03 -0.82137657695E+02  0.24349114555E+03  0.00000000000E+00 0.  1.
<mgrwt>
<rscale>  0 0.16058762E+04</rscale>
<asrwt>0</asrwt>
<pdfrwt beam="1">  1        2 0.14851112E+00 0.16058762E+04</pdfrwt>
<pdfrwt beam="2">  1       -1 0.10274919E+00 0.16058762E+04</pdfrwt>
<totfact> 0.25983247E+01</totfact>
</mgrwt>
</event>
<event>
12    7  0.1909736E-007  0.2144993E+04  0.7818608E-02  0.8541679E-01
          2   -1    0    0  501    0  0.00000000000E+00  0.00000000000E+00  0.31362936436E+04  0.31362936436E+04  0.00000000000E+00 0. -1.
         -1   -1    0    0    0  501 -0.00000000000E+00 -0.00000000000E+00 -0.36675403223E+03  0.36675403223E+03  0.00000000000E+00 0.  1.
         24    2    1    2    0    0  0.23929909359E+03 -0.46645575347E+03  0.23037481996E+04  0.23639550220E+04  0.78629210293E+02 0.  0.
        254    2    1    2    0    0 -0.23929909359E+03  0.46645575347E+03  0.46579141175E+03  0.11390926538E+04  0.89762208563E+03 0.  0.
         23    2    4    4    0    0 -0.53180409497E+03  0.29848061994E+03  0.48971460505E+03  0.78810490927E+03  0.96864223057E+02 0.  0.
         23    2    4    4    0    0  0.29250500138E+03  0.16797513353E+03 -0.23923193294E+02  0.35098774456E+03  0.94049222947E+02 0.  0.
          2    1    3    3  502    0  0.20984621863E+03 -0.39038741957E+03  0.18074451597E+04  0.18609932236E+04  0.00000000000E+00 0. -1.
         -1    1    3    3    0  502  0.29452874961E+02 -0.76068333901E+02  0.49630303984E+03  0.50296179837E+03  0.00000000000E+00 0.  1.
         13    1    5    5    0    0 -0.24677179227E+03  0.16621922192E+03  0.18475868793E+03  0.35022981021E+03  0.00000000000E+00 0. -1.
        -13    1    5    5    0    0 -0.28503230270E+03  0.13226139802E+03  0.30495591711E+03  0.43787509905E+03  0.00000000000E+00 0.  1.
          4    1    6    6  503    0  0.19039711386E+03  0.11677261345E+03  0.28759102665E+02  0.22519766918E+03  0.00000000000E+00 0. -1.
         -4    1    6    6    0  503  0.10210788752E+03  0.51202520076E+02 -0.52682295959E+02  0.12579007538E+03  0.00000000000E+00 0.  1.
<mgrwt>
<rscale>  0 0.21449926E+04</rscale>
<asrwt>0</asrwt>
<pdfrwt beam="1">  1        2 0.48250670E+00 0.21449926E+04</pdfrwt>
<pdfrwt beam="2">  1       -1 0.56423699E-01 0.21449926E+04</pdfrwt>
<totfact> 0.47468748E+00</totfact>
</mgrwt>
</event>
<event>
12    7  0.1909736E-007  0.1505462E+04  0.7818608E-02  0.8880829E-01
         -1   -1    0    0    0  501 -0.00000000000E+00  0.00000000000E+00  0.19280446380E+03  0.19280446380E+03  0.00000000000E+00 0.  1.
          2   -1    0    0  501    0  0.00000000000E+00 -0.00000000000E+00 -0.29387485326E+04  0.29387485326E+04  0.00000000000E+00 0. -1.
         24    2    1    2    0    0  0.63040248322E+02  0.42205434237E+03 -0.43990507104E+03  0.61801142638E+03  0.79484028483E+02 0.  0.
        254    2    1    2    0    0 -0.63040248322E+02 -0.42205434237E+03 -0.23060389978E+04  0.25135415701E+04  0.90441772665E+03 0.  0.
         23    2    4    4    0    0  0.15660172813E+03  0.51314172782E+02 -0.16918402239E+04  0.17023378504E+04  0.92051986769E+02 0.  0.
         23    2    4    4    0    0 -0.21964197646E+03 -0.47336851515E+03 -0.61419877388E+03  0.81120371960E+03  0.92146578420E+02 0.  0.
          2    1    3    3  502    0  0.23097419967E+02  0.18078039476E+03 -0.24463439791E+03  0.30505906081E+03  0.00000000000E+00 0. -1.
         -1    1    3    3    0  502  0.39942828356E+02  0.24127394761E+03 -0.19527067313E+03  0.31295236557E+03  0.00000000000E+00 0.  1.
         13    1    5    5    0    0  0.85091321918E+02  0.17683591169E+02 -0.47158337900E+03  0.47952489592E+03  0.00000000000E+00 0.  1.
        -13    1    5    5    0    0  0.71510406215E+02  0.33630581612E+02 -0.12202568449E+04  0.12228129545E+04  0.00000000000E+00 0. -1.
          3    1    6    6  503    0 -0.10006809266E+03 -0.31936755201E+03 -0.37562200822E+03  0.50309159157E+03  0.00000000000E+00 0. -1.
         -3    1    6    6    0  503 -0.11957388379E+03 -0.15400096313E+03 -0.23857676565E+03  0.30811212803E+03  0.00000000000E+00 0.  1.
<mgrwt>
<rscale>  0 0.15054618E+04</rscale>
<asrwt>0</asrwt>
<pdfrwt beam="1">  1        2 0.45211514E+00 0.15054618E+04</pdfrwt>
<pdfrwt beam="2">  1       -1 0.29662226E-01 0.15054618E+04</pdfrwt>
<totfact> 0.21909103E+01</totfact>
</mgrwt>
</event>
<event>
12    7  0.1909736E-007  0.1754414E+04  0.7818608E-02  0.8730925E-01
         -1   -1    0    0    0  501 -0.00000000000E+00  0.00000000000E+00  0.66459757300E+03  0.66459757300E+03  0.00000000000E+00 0.  1.
          2   -1    0    0  501    0  0.00000000000E+00 -0.00000000000E+00 -0.11578312724E+04  0.11578312724E+04  0.00000000000E+00 0. -1.
         24    2    1    2    0    0 -0.32427781442E+03  0.45668504759E+03 -0.52182053840E+03  0.76983059664E+03  0.81394960555E+02 0.  0.
        254    2    1    2    0    0  0.32427781442E+03 -0.45668504759E+03  0.28586839040E+02  0.10525982487E+04  0.89074605374E+03 0.  0.
         23    2    4    4    0    0  0.57476413089E+03 -0.43921436115E+03  0.17186844604E+03  0.74902500029E+03  0.90755865425E+02 0.  0.
         23    2    4    4    0    0 -0.25048631647E+03 -0.17470686435E+02 -0.14328160700E+03  0.30357324845E+03  0.92620076897E+02 0.  0.
          2    1    3    3  502    0 -0.32843556017E+03  0.44450479440E+03 -0.50500631890E+03  0.74865600349E+03  0.00000000000E+00 0. -1.
         -1    1    3    3    0  502  0.41577457537E+01  0.12180253188E+02 -0.16814219505E+02  0.21174593150E+02  0.00000000000E+00 0.  1.
         13    1    5    5    0    0  0.52722234674E+03 -0.36714388630E+03  0.15766576998E+03  0.66152591118E+03  0.00000000000E+00 0.  1.
        -13    1    5    5    0    0  0.47541784152E+02 -0.72070474856E+02  0.14202676054E+02  0.87499089101E+02  0.00000000000E+00 0. -1.
          1    1    6    6  503    0 -0.48700719279E+01  0.50432467011E+01  0.10711366670E+02  0.12801769948E+02  0.00000000000E+00 0. -1.
         -1    1    6    6    0  503 -0.24561624455E+03 -0.22513933136E+02 -0.15399297367E+03  0.29077147850E+03  0.00000000000E+00 0.  1.
<mgrwt>
<rscale>  0 0.17544137E+04</rscale>
<asrwt>0</asrwt>
<pdfrwt beam="1">  1        2 0.17812789E+00 0.17544137E+04</pdfrwt>
<pdfrwt beam="2">  1       -1 0.10224578E+00 0.17544137E+04</pdfrwt>
<totfact> 0.19652047E+01</totfact>
</mgrwt>
</event>
<event>
12    7  0.1909736E-007  0.1676305E+04  0.7818608E-02  0.8774995E-01
          2   -1    0    0  501    0  0.00000000000E+00  0.00000000000E+00  0.26084336898E+03  0.26084336898E+03  0.00000000000E+00 0. -1.
         -1   -1    0    0    0  501 -0.00000000000E+00 -0.00000000000E+00 -0.26931860890E+04  0.26931860890E+04  0.00000000000E+00 0.  1.
         24    2    1    2    0    0 -0.80834343207E+01  0.18505644323E+03  0.12070718827E+03  0.23549110716E+03  0.81083951319E+02 0.  0.
        254    2    1    2    0    0  0.80834343207E+01 -0.18505644323E+03 -0.25530499082E+04  0.27185383508E+04  0.91546474619E+03 0.  0.
         23    2    4    4    0    0 -0.21252700654E+03 -0.11285834328E+03 -0.24240526176E+04  0.24377124159E+04  0.92227953603E+02 0.  0.
         23    2    4    4    0    0  0.22061044086E+03 -0.72198099952E+02 -0.12899729064E+03  0.28082593489E+03  0.91331114433E+02 0.  0.
          2    1    3    3  502    0 -0.37935609728E+02  0.15586168770E+03  0.93977844696E+02  0.18591345156E+03  0.00000000000E+00 0. -1.
         -1    1    3    3    0  502  0.29852175407E+02  0.29194755530E+02  0.26729343573E+02  0.49577655601E+02  0.00000000000E+00 0.  1.
         13    1    5    5    0    0 -0.18649128717E+03 -0.12240376133E+03 -0.19234465475E+04  0.19363388913E+04  0.00000000000E+00 0.  1.
        -13    1    5    5    0    0 -0.26035719375E+02  0.95454180501E+01 -0.50060607015E+03  0.50137352459E+03  0.00000000000E+00 0. -1.
          4    1    6    6  503    0  0.17878331556E+03 -0.93990048043E+02 -0.10985810008E+03  0.22992695624E+03  0.00000000000E+00 0. -1.
         -4    1    6    6    0  503  0.41827125297E+02  0.21791948091E+02 -0.19139190559E+02  0.50898978649E+02  0.00000000000E+00 0.  1.
<mgrwt>
<rscale>  0 0.16763051E+04</rscale>
<asrwt>0</asrwt>
<pdfrwt beam="1">  1        2 0.40129749E-01 0.16763051E+04</pdfrwt>
<pdfrwt beam="2">  1       -1 0.41433632E+00 0.16763051E+04</pdfrwt>
<totfact> 0.80259857E-01</totfact>
</mgrwt>
</event>
<event>
12    7  0.1909736E-007  0.1415114E+04  0.7818608E-02  0.8942951E-01
         -1   -1    0    0    0  501 -0.00000000000E+00  0.00000000000E+00  0.57363400596E+03  0.57363400596E+03  0.00000000000E+00 0.  1.
          2   -1    0    0  501    0  0.00000000000E+00 -0.00000000000E+00 -0.87274582607E+03  0.87274582607E+03  0.00000000000E+00 0. -1.
         24    2    1    2    0    0  0.26726979910E+03 -0.31203377495E+03 -0.22567595548E+03  0.47627201041E+03  0.84304025992E+02 0.  0.
        254    2    1    2    0    0 -0.26726979910E+03  0.31203377495E+03 -0.73435864631E+02  0.97010782162E+03  0.87573862376E+03 0.  0.
         23    2    4    4    0    0 -0.30457045639E+03  0.32971122378E+03  0.32339100661E+03  0.56061745169E+03  0.90760839527E+02 0.  0.
         23    2    4    4    0    0  0.37300657295E+02 -0.17677448831E+02 -0.39682687124E+03  0.40949036993E+03  0.92233215776E+02 0.  0.
          2    1    3    3  502    0  0.68680710671E+02 -0.71899042938E+02 -0.16065158127E+02  0.10072041352E+03  0.00000000000E+00 0. -1.
         -1    1    3    3    0  502  0.19858908842E+03 -0.24013473201E+03 -0.20961079735E+03  0.37555159689E+03  0.00000000000E+00 0.  1.
         13    1    5    5    0    0  0.42837816545E+01  0.14440305144E+02  0.20052781113E+02  0.25079617786E+02  0.00000000000E+00 0. -1.
        -13    1    5    5    0    0 -0.30885423805E+03  0.31527091863E+03  0.30333822550E+03  0.53553783391E+03  0.00000000000E+00 0.  1.
          2    1    6    6  503    0  0.25728644633E+02 -0.16836602961E+02 -0.31640700082E+02  0.44119930367E+02  0.00000000000E+00 0. -1.
         -2    1    6    6    0  503  0.11572012662E+02 -0.84084587026E+00 -0.36518617116E+03  0.36537043956E+03  0.00000000000E+00 0.  1.
<mgrwt>
<rscale>  0 0.14151137E+04</rscale>
<asrwt>0</asrwt>
<pdfrwt beam="1">  1        2 0.13426859E+00 0.14151137E+04</pdfrwt>
<pdfrwt beam="2">  1       -1 0.88251386E-01 0.14151137E+04</pdfrwt>
<totfact> 0.42855015E+01</totfact>
</mgrwt>
</event>
<event>
12    7  0.1909736E-007  0.1825543E+04  0.7818608E-02  0.8692833E-01
         -1   -1    0    0    0  501 -0.00000000000E+00  0.00000000000E+00  0.36814529492E+03  0.36814529492E+03  0.00000000000E+00 0.  1.
          2   -1    0    0  501    0  0.00000000000E+00 -0.00000000000E+00 -0.22631055934E+04  0.22631055934E+04  0.00000000000E+00 0. -1.
         24    2    1    2    0    0 -0.45636696577E+03  0.46601165600E+03 -0.39561551185E+03  0.76710374115E+03  0.80615417175E+02 0.  0.
        254    2    1    2    0    0  0.45636696577E+03 -0.46601165600E+03 -0.14993447866E+04  0.18641471472E+04  0.89530560491E+03 0.  0.
         23    2    4    4    0    0 -0.23829795017E+03 -0.28577594443E+03 -0.56797176033E+03  0.68482587968E+03  0.89110950382E+02 0.  0.
         23    2    4    4    0    0  0.69466491594E+03 -0.18023571157E+03 -0.93137302629E+03  0.11793212675E+04  0.91097094891E+02 0.  0.
          2    1    3    3  502    0 -0.65388783317E+02  0.31127514571E+02 -0.44111548093E+02  0.84796484728E+02  0.00000000000E+00 0. -1.
         -1    1    3    3    0  502 -0.39097818245E+03  0.43488414143E+03 -0.35150396376E+03  0.68230725642E+03  0.00000000000E+00 0.  1.
         13    1    5    5    0    0 -0.23692974033E+03 -0.27603947934E+03 -0.56855906440E+03  0.67497622604E+03  0.00000000000E+00 0. -1.
        -13    1    5    5    0    0 -0.13682098379E+01 -0.97364650977E+01  0.58730407401E+00  0.98496536403E+01  0.00000000000E+00 0.  1.
          3    1    6    6  503    0  0.35693472340E+03 -0.52881896697E+02 -0.42581722403E+03  0.55813905082E+03  0.00000000000E+00 0. -1.
         -3    1    6    6    0  503  0.33773019254E+03 -0.12735381487E+03 -0.50555580226E+03  0.62118221668E+03  0.00000000000E+00 0.  1.
<mgrwt>
<rscale>  0 0.18255429E+04</rscale>
<asrwt>0</asrwt>
<pdfrwt beam="1">  1        2 0.34817009E+00 0.18255429E+04</pdfrwt>
<pdfrwt beam="2">  1       -1 0.56637739E-01 0.18255429E+04</pdfrwt>
<totfact> 0.16109211E+01</totfact>
</mgrwt>
</event>
<event>
12    7  0.1909736E-007  0.2071702E+04  0.7818608E-02  0.8573813E-01
         -1   -1    0    0    0  501 -0.00000000000E+00  0.00000000000E+00  0.12470769902E+04  0.12470769902E+04  0.00000000000E+00 0.  1.
          2   -1    0    0  501    0  0.00000000000E+00 -0.00000000000E+00 -0.86040145638E+03  0.86040145638E+03  0.00000000000E+00 0. -1.
         24    2    1    2    0    0 -0.21413284374E+03  0.75901785995E+03  0.44688492002E+03  0.91001464013E+03  0.80371182757E+02 0.  0.
        254    2    1    2    0    0  0.21413284374E+03 -0.75901785995E+03 -0.60209386219E+02  0.11974638064E+04  0.89907364049E+03 0.  0.
         23    2    4    4    0    0  0.51937568207E+03 -0.34500397432E+03  0.12874959915E+03  0.64206823050E+03  0.83044036048E+02 0.  0.
         23    2    4    4    0    0 -0.30524283833E+03 -0.41401388563E+03 -0.18895898537E+03  0.55539557593E+03  0.90432625549E+02 0.  0.
          4    1    3    3  502    0 -0.58848823790E+02  0.12407369663E+03  0.10115892895E+03  0.17055965280E+03  0.00000000000E+00 0. -1.
         -3    1    3    3    0  502 -0.15528401995E+03  0.63494416332E+03  0.34572599107E+03  0.73945498734E+03  0.00000000000E+00 0.  1.
         13    1    5    5    0    0  0.39640489923E+03 -0.21873384311E+03  0.90197904561E+02  0.46164596851E+03  0.00000000000E+00 0.  1.
        -13    1    5    5    0    0  0.12297078284E+03 -0.12627013121E+03  0.38551694588E+02  0.18042226200E+03  0.00000000000E+00 0. -1.
          2    1    6    6  503    0 -0.31461203135E+01 -0.31483508070E+02 -0.27486747037E+02  0.41912177420E+02  0.00000000000E+00 0. -1.
         -2    1    6    6    0  503 -0.30209671801E+03 -0.38253037756E+03 -0.16147223833E+03  0.51348339851E+03  0.00000000000E+00 0.  1.
<mgrwt>
<rscale>  0 0.20717016E+04</rscale>
<asrwt>0</asrwt>
<pdfrwt beam="1">  1        2 0.13236945E+00 0.20717016E+04</pdfrwt>
<pdfrwt beam="2">  1       -1 0.19185800E+00 0.20717016E+04</pdfrwt>
<totfact> 0.56405383E+00</totfact>
</mgrwt>
</event>
<event>
12    7  0.1909736E-007  0.1656902E+04  0.7818608E-02  0.8786334E-01
         -1   -1    0    0    0  501 -0.00000000000E+00  0.00000000000E+00  0.56522301622E+03  0.56522301622E+03  0.00000000000E+00 0.  1.
          2   -1    0    0  501    0  0.00000000000E+00 -0.00000000000E+00 -0.12142665710E+04  0.12142665710E+04  0.00000000000E+00 0. -1.
         24    2    1    2    0    0 -0.33552556249E+03  0.43820388222E+03 -0.45969752826E+02  0.55945429573E+03  0.79220233266E+02 0.  0.
        254    2    1    2    0    0  0.33552556249E+03 -0.43820388222E+03 -0.60307380191E+03  0.12200352915E+04  0.90564234462E+03 0.  0.
         23    2    4    4    0    0 -0.17021996287E+03 -0.48239726598E+03 -0.43320791970E+03  0.67654909567E+03  0.91474691516E+02 0.  0.
         23    2    4    4    0    0  0.50574552536E+03  0.44193383760E+02 -0.16986588221E+03  0.54348619578E+03  0.93761588470E+02 0.  0.
          2    1    3    3  502    0 -0.50249577990E+02  0.29206686201E+02 -0.13928483031E+02  0.59766656645E+02  0.00000000000E+00 0. -1.
         -1    1    3    3    0  502 -0.28527598450E+03  0.40899719602E+03 -0.32041269795E+02  0.49968763908E+03  0.00000000000E+00 0.  1.
         13    1    5    5    0    0 -0.28650489866E+02 -0.20331773591E+03 -0.19617575975E+03  0.28397866297E+03  0.00000000000E+00 0.  1.
        -13    1    5    5    0    0 -0.14156947301E+03 -0.27907953007E+03 -0.23703215994E+03  0.39257043271E+03  0.00000000000E+00 0. -1.
          1    1    6    6  503    0  0.41684337300E+03  0.67512196496E+02 -0.15776332282E+03  0.45078327422E+03  0.00000000000E+00 0. -1.
         -1    1    6    6    0  503  0.88902152360E+02 -0.23318812737E+02 -0.12102559396E+02  0.92702921559E+02  0.00000000000E+00 0.  1.
<mgrwt>
<rscale>  0 0.16569024E+04</rscale>
<asrwt>0</asrwt>
<pdfrwt beam="1">  1        2 0.18681024E+00 0.16569024E+04</pdfrwt>
<pdfrwt beam="2">  1       -1 0.86957388E-01 0.16569024E+04</pdfrwt>
<totfact> 0.26344636E+01</totfact>
</mgrwt>
</event>
<event>
12    7  0.1909736E-007  0.1542960E+04  0.7818608E-02  0.8856377E-01
          2   -1    0    0  501    0  0.00000000000E+00  0.00000000000E+00  0.41213769685E+03  0.41213769685E+03  0.00000000000E+00 0. -1.
         -1   -1    0    0    0  501 -0.00000000000E+00 -0.00000000000E+00 -0.14441317690E+04  0.14441317690E+04  0.00000000000E+00 0.  1.
         24    2    1    2    0    0  0.37653006510E+03 -0.81459574751E+02 -0.73555467023E+03  0.83409803361E+03  0.79172624906E+02 0.  0.
        254    2    1    2    0    0 -0.37653006510E+03  0.81459574751E+02 -0.29643940188E+03  0.10221714322E+04  0.89919272992E+03 0.  0.
         23    2    4    4    0    0 -0.41667863356E+03 -0.40888839417E+02  0.22068808470E+03  0.48164064792E+03  0.89339253133E+02 0.  0.
         23    2    4    4    0    0  0.40148568458E+02  0.12234841417E+03 -0.51712748658E+03  0.54053078426E+03  0.90397175641E+02 0.  0.
          2    1    3    3  502    0  0.11112382696E+03 -0.41189882326E+02 -0.29876114043E+03  0.32140835453E+03  0.00000000000E+00 0. -1.
         -1    1    3    3    0  502  0.26540623814E+03 -0.40269692425E+02 -0.43679352979E+03  0.51268967909E+03  0.00000000000E+00 0.  1.
         13    1    5    5    0    0  0.27315244206E+01  0.52642926205E+00  0.10158663038E+02  0.10532653424E+02  0.00000000000E+00 0. -1.
        -13    1    5    5    0    0 -0.41941015798E+03 -0.41415268679E+02  0.21052942166E+03  0.47110799450E+03  0.00000000000E+00 0.  1.
          1    1    6    6  503    0  0.42500194923E+02  0.84565755540E+01 -0.15034504633E+03  0.15646537379E+03  0.00000000000E+00 0. -1.
         -1    1    6    6    0  503 -0.23516264651E+01  0.11389183861E+03 -0.36678244024E+03  0.38406541047E+03  0.00000000000E+00 0.  1.
<mgrwt>
<rscale>  0 0.15429597E+04</rscale>
<asrwt>0</asrwt>
<pdfrwt beam="1">  1        2 0.63405799E-01 0.15429597E+04</pdfrwt>
<pdfrwt beam="2">  1       -1 0.22217412E+00 0.15429597E+04</pdfrwt>
<totfact> 0.90124511E+00</totfact>
</mgrwt>
</event>
<event>
12    7  0.1909736E-007  0.1093713E+04  0.7818608E-02  0.9211341E-01
         -1   -1    0    0    0  501 -0.00000000000E+00  0.00000000000E+00  0.15362788336E+03  0.15362788336E+03  0.00000000000E+00 0.  1.
          2   -1    0    0  501    0  0.00000000000E+00 -0.00000000000E+00 -0.19466004913E+04  0.19466004913E+04  0.00000000000E+00 0. -1.
         24    2    1    2    0    0 -0.32011243449E+02  0.52159977252E+02 -0.56803105780E+03  0.57663737421E+03  0.78140871320E+02 0.  0.
        254    2    1    2    0    0  0.32011243449E+02 -0.52159977252E+02 -0.12249415501E+04  0.15235910005E+04  0.90393713966E+03 0.  0.
         23    2    4    4    0    0  0.34046134794E+03  0.53936046288E+02 -0.13361160101E+03  0.38114125911E+03  0.92701526097E+02 0.  0.
         23    2    4    4    0    0 -0.30845010449E+03 -0.10609602354E+03 -0.10913299491E+04  0.11424497413E+04  0.88275253851E+02 0.  0.
          4    1    3    3  502    0 -0.15613075175E+02  0.45866592815E+02 -0.54740923880E+03  0.54954925819E+03  0.00000000000E+00 0. -1.
         -3    1    3    3    0  502 -0.16398168274E+02  0.62933844373E+01 -0.20621819002E+02  0.27088116017E+02  0.00000000000E+00 0.  1.
         13    1    5    5    0    0  0.28243797417E+03  0.71415903108E+02 -0.85058430873E+02  0.30349032461E+03  0.00000000000E+00 0. -1.
        -13    1    5    5    0    0  0.58023373766E+02 -0.17479856820E+02 -0.48553170134E+02  0.77650934494E+02  0.00000000000E+00 0.  1.
          4    1    6    6  503    0 -0.31204201638E+03 -0.10844059513E+03 -0.10461957715E+04  0.10971121980E+04  0.00000000000E+00 0. -1.
         -4    1    6    6    0  503  0.35919118928E+01  0.23445715885E+01 -0.45134177635E+02  0.45337543358E+02  0.00000000000E+00 0.  1.
<mgrwt>
<rscale>  0 0.10937131E+04</rscale>
<asrwt>0</asrwt>
<pdfrwt beam="1">  1        2 0.29947701E+00 0.10937131E+04</pdfrwt>
<pdfrwt beam="2">  1       -1 0.23635058E-01 0.10937131E+04</pdfrwt>
<totfact> 0.12504526E+02</totfact>
</mgrwt>
</event>
<event>
12    7  0.1909736E-007  0.1374044E+04  0.7818608E-02  0.8972824E-01
          2   -1    0    0  501    0  0.00000000000E+00  0.00000000000E+00  0.24221195545E+04  0.24221195545E+04  0.00000000000E+00 0. -1.
         -1   -1    0    0    0  501 -0.00000000000E+00 -0.00000000000E+00 -0.19487044929E+03  0.19487044929E+03  0.00000000000E+00 0.  1.
         24    2    1    2    0    0 -0.25064630858E+03  0.24305912601E+03  0.40470817600E+03  0.54034858863E+03  0.79287948504E+02 0.  0.
        254    2    1    2    0    0  0.25064630858E+03 -0.24305912601E+03  0.18225409292E+04  0.20766414152E+04  0.93213884040E+03 0.  0.
         23    2    4    4    0    0  0.37350031362E+03 -0.42765975893E+03  0.60133139173E+03  0.83216643838E+03  0.92228980289E+02 0.  0.
         23    2    4    4    0    0 -0.12285400504E+03  0.18460063292E+03  0.12212095375E+04  0.12444749768E+04  0.90524765544E+02 0.  0.
          4    1    3    3  502    0 -0.24349463928E+03  0.24100893380E+03  0.36758590596E+03  0.50248815289E+03  0.00000000000E+00 0. -1.
         -3    1    3    3    0  502 -0.71516692937E+01  0.20501922026E+01  0.37122270044E+02  0.37860435747E+02  0.00000000000E+00 0.  1.
         13    1    5    5    0    0  0.23184726760E+03 -0.21319866476E+03  0.37472364850E+03  0.48951469733E+03  0.00000000000E+00 0.  1.
        -13    1    5    5    0    0  0.14165304602E+03 -0.21446109416E+03  0.22660774322E+03  0.34265174105E+03  0.00000000000E+00 0. -1.
          2    1    6    6  503    0 -0.74092007807E+02  0.17444338065E+03  0.94718164431E+03  0.96595713465E+03  0.00000000000E+00 0. -1.
         -2    1    6    6    0  503 -0.48761997233E+02  0.10157252268E+02  0.27402789318E+03  0.27851784214E+03  0.00000000000E+00 0.  1.
<mgrwt>
<rscale>  0 0.13740444E+04</rscale>
<asrwt>0</asrwt>
<pdfrwt beam="1">  1        2 0.37263376E+00 0.13740444E+04</pdfrwt>
<pdfrwt beam="2">  1       -1 0.29980071E-01 0.13740444E+04</pdfrwt>
<totfact> 0.43948023E+01</totfact>
</mgrwt>
</event>
<event>
12    7  0.1909736E-007  0.1477990E+04  0.7818608E-02  0.8899223E-01
          2   -1    0    0  501    0  0.00000000000E+00  0.00000000000E+00  0.94213056359E+03  0.94213056359E+03  0.00000000000E+00 0. -1.
         -1   -1    0    0    0  501 -0.00000000000E+00 -0.00000000000E+00 -0.57965784926E+03  0.57965784926E+03  0.00000000000E+00 0.  1.
         24    2    1    2    0    0 -0.11524391606E+03  0.12480430756E+03  0.55498563943E+03  0.58607193471E+03  0.81326362904E+02 0.  0.
        254    2    1    2    0    0  0.11524391606E+03 -0.12480430756E+03 -0.19251292510E+03  0.93571647815E+03  0.89980377071E+03 0.  0.
         23    2    4    4    0    0 -0.18867122822E+03  0.25581369566E+03 -0.27868609791E+03  0.43237554122E+03  0.90803018821E+02 0.  0.
         23    2    4    4    0    0  0.30391514428E+03 -0.38061800322E+03  0.86173172810E+02  0.50334093693E+03  0.93229843833E+02 0.  0.
          4    1    3    3  502    0 -0.89873608987E+02  0.13236426402E+03  0.50133552171E+03  0.52624601596E+03  0.00000000000E+00 0. -1.
         -3    1    3    3    0  502 -0.25370307072E+02 -0.75599564671E+01  0.53650117718E+02  0.59825918747E+02  0.00000000000E+00 0.  1.
         13    1    5    5    0    0 -0.10283661543E+03  0.17295981519E+03 -0.22409373307E+03  0.30117846594E+03  0.00000000000E+00 0.  1.
        -13    1    5    5    0    0 -0.85834612793E+02  0.82853880473E+02 -0.54592364837E+02  0.13119707528E+03  0.00000000000E+00 0. -1.
          2    1    6    6  503    0  0.17651763659E+03 -0.24806871760E+03  0.10825595063E+02  0.30465350513E+03  0.00000000000E+00 0. -1.
         -2    1    6    6    0  503  0.12739750769E+03 -0.13254928562E+03  0.75347577747E+02  0.19868743180E+03  0.00000000000E+00 0.  1.
<mgrwt>
<rscale>  0 0.14779897E+04</rscale>
<asrwt>0</asrwt>
<pdfrwt beam="1">  1        2 0.14494316E+00 0.14779897E+04</pdfrwt>
<pdfrwt beam="2">  1       -1 0.89178131E-01 0.14779897E+04</pdfrwt>
<totfact> 0.37415155E+01</totfact>
</mgrwt>
</event>
<event>
12    7  0.1909736E-007  0.2606313E+04  0.7818608E-02  0.8366060E-01
          2   -1    0    0  501    0  0.00000000000E+00  0.00000000000E+00  0.36201186264E+04  0.36201186264E+04  0.00000000000E+00 0. -1.
         -1   -1    0    0    0  501 -0.00000000000E+00 -0.00000000000E+00 -0.46910519082E+03  0.46910519082E+03  0.00000000000E+00 0.  1.
         24    2    1    2    0    0  0.46542643169E+03 -0.10363586289E+04  0.16130311952E+04  0.19745867388E+04  0.80387692682E+02 0.  0.
        254    2    1    2    0    0 -0.46542643169E+03  0.10363586289E+04  0.15379822404E+04  0.21146370784E+04  0.90312769350E+03 0.  0.
         23    2    4    4    0    0 -0.26115787063E+03  0.11417058004E+04  0.10865936474E+04  0.16002868091E+04  0.92393445094E+02 0.  0.
         23    2    4    4    0    0 -0.20426856106E+03 -0.10534717148E+03  0.45138859301E+03  0.51435026938E+03  0.89335693540E+02 0.  0.
          2    1    3    3  502    0  0.23186623548E+03 -0.53448619177E+03  0.75858671840E+03  0.95649947709E+03  0.00000000000E+00 0. -1.
         -1    1    3    3    0  502  0.23356019621E+03 -0.50187243716E+03  0.85444447685E+03  0.10180872617E+04  0.00000000000E+00 0.  1.
         13    1    5    5    0    0 -0.94084454519E+02  0.44113214714E+03  0.47977786177E+03  0.65851063201E+03  0.00000000000E+00 0. -1.
        -13    1    5    5    0    0 -0.16707341611E+03  0.70057365327E+03  0.60681578558E+03  0.94177617705E+03  0.00000000000E+00 0.  1.
          2    1    6    6  503    0 -0.43989313067E+02 -0.25910230453E+02  0.37155337652E+02  0.63142052725E+02  0.00000000000E+00 0. -1.
         -2    1    6    6    0  503 -0.16027924799E+03 -0.79436941025E+02  0.41423325536E+03  0.45120821666E+03  0.00000000000E+00 0.  1.
<mgrwt>
<rscale>  0 0.26063127E+04</rscale>
<asrwt>0</asrwt>
<pdfrwt beam="1">  1        2 0.55694131E+00 0.26063127E+04</pdfrwt>
<pdfrwt beam="2">  1       -1 0.72170032E-01 0.26063127E+04</pdfrwt>
<totfact> 0.13014936E+00</totfact>
</mgrwt>
</event>
<event>
12    7  0.1909736E-007  0.2154028E+04  0.7818608E-02  0.8537810E-01
         -1   -1    0    0    0  501 -0.00000000000E+00  0.00000000000E+00  0.76678699830E+03  0.76678699830E+03  0.00000000000E+00 0.  1.
          2   -1    0    0  501    0  0.00000000000E+00 -0.00000000000E+00 -0.15127533103E+04  0.15127533103E+04  0.00000000000E+00 0. -1.
         24    2    1    2    0    0 -0.63349736650E+03  0.88569352381E+02 -0.96499750812E+03  0.11604258344E+04  0.78768540688E+02 0.  0.
        254    2    1    2    0    0  0.63349736650E+03 -0.88569352381E+02  0.21903119615E+03  0.11191144742E+04  0.89178422156E+03 0.  0.
         23    2    4    4    0    0  0.28748310758E+03 -0.82871736070E+02  0.54945912757E+03  0.63216514740E+03  0.90626590641E+02 0.  0.
         23    2    4    4    0    0  0.34601425892E+03 -0.56976163112E+01 -0.33042793142E+03  0.48694932675E+03  0.90436158459E+02 0.  0.
          4    1    3    3  502    0 -0.63539478103E+03  0.90449734189E+02 -0.96039986568E+03  0.11551084729E+04  0.00000000000E+00 0. -1.
         -3    1    3    3    0  502  0.18974145308E+01 -0.18803818077E+01 -0.45976424425E+01  0.53173615331E+01  0.00000000000E+00 0.  1.
         13    1    5    5    0    0  0.18653386094E+03 -0.47104693344E+02  0.43372921208E+03  0.47448368025E+03  0.00000000000E+00 0.  1.
        -13    1    5    5    0    0  0.10094924664E+03 -0.35767042726E+02  0.11572991549E+03  0.15768146714E+03  0.00000000000E+00 0. -1.
          3    1    6    6  503    0  0.23215657841E+03 -0.38935033422E+01 -0.15999481270E+03  0.28197548893E+03  0.00000000000E+00 0. -1.
         -3    1    6    6    0  503  0.11385768051E+03 -0.18041129690E+01 -0.17043311873E+03  0.20497383782E+03  0.00000000000E+00 0.  1.
<mgrwt>
<rscale>  0 0.21540284E+04</rscale>
<asrwt>0</asrwt>
<pdfrwt beam="1">  1        2 0.23273128E+00 0.21540284E+04</pdfrwt>
<pdfrwt beam="2">  1       -1 0.11796723E+00 0.21540284E+04</pdfrwt>
<totfact> 0.84235098E+00</totfact>
</mgrwt>
</event>
<event>
12    7  0.1909736E-007  0.1680989E+04  0.7818608E-02  0.8772282E-01
         -1   -1    0    0    0  501 -0.00000000000E+00  0.00000000000E+00  0.11018718042E+04  0.11018718042E+04  0.00000000000E+00 0.  1.
          2   -1    0    0  501    0  0.00000000000E+00 -0.00000000000E+00 -0.64111939469E+03  0.64111939469E+03  0.00000000000E+00 0. -1.
         24    2    1    2    0    0 -0.10961779839E+02  0.61663439563E+03  0.13810968191E+03  0.63651834373E+03  0.75651696439E+02 0.  0.
        254    2    1    2    0    0  0.10961779839E+02 -0.61663439563E+03  0.32264272762E+03  0.11064728552E+04  0.86013121736E+03 0.  0.
         23    2    4    4    0    0 -0.11294192700E+03 -0.80140017782E+03  0.21136774232E+03  0.84126140430E+03  0.89701192771E+02 0.  0.
         23    2    4    4    0    0  0.12390370684E+03  0.18476578219E+03  0.11127498530E+03  0.26521145088E+03  0.92002546092E+02 0.  0.
          4    1    3    3  502    0 -0.64765011167E+01  0.26032477310E+03  0.20234924359E+02  0.26119032279E+03  0.00000000000E+00 0. -1.
         -3    1    3    3    0  502 -0.44852787225E+01  0.35630962253E+03  0.11787475755E+03  0.37532802094E+03  0.00000000000E+00 0.  1.
         13    1    5    5    0    0 -0.68867139064E+02 -0.52484047698E+03  0.18164688015E+03  0.55963898916E+03  0.00000000000E+00 0. -1.
        -13    1    5    5    0    0 -0.44074787934E+02 -0.27655970084E+03  0.29720862169E+02  0.28162241514E+03  0.00000000000E+00 0.  1.
          1    1    6    6  503    0  0.59357336782E+02  0.89858423808E+02  0.34756779334E+01  0.10774929279E+03  0.00000000000E+00 0. -1.
         -1    1    6    6    0  503  0.64546370055E+02  0.94907358384E+02  0.10779930736E+03  0.15746215809E+03  0.00000000000E+00 0.  1.
<mgrwt>
<rscale>  0 0.16809895E+04</rscale>
<asrwt>0</asrwt>
<pdfrwt beam="1">  1        2 0.98633753E-01 0.16809895E+04</pdfrwt>
<pdfrwt beam="2">  1       -1 0.16951874E+00 0.16809895E+04</pdfrwt>
<totfact> 0.12349293E+01</totfact>
</mgrwt>
</event>
<event>
12    7  0.1909736E-007  0.1372523E+04  0.7818608E-02  0.8973952E-01
          2   -1    0    0  501    0  0.00000000000E+00  0.00000000000E+00  0.54941407933E+03  0.54941407933E+03  0.00000000000E+00 0. -1.
         -1   -1    0    0    0  501 -0.00000000000E+00 -0.00000000000E+00 -0.85719460921E+03  0.85719460921E+03  0.00000000000E+00 0.  1.
         24    2    1    2    0    0 -0.26083015993E+03 -0.27990162255E+03 -0.14682026913E+03  0.41780209869E+03  0.81394788586E+02 0.  0.
        254    2    1    2    0    0  0.26083015993E+03  0.27990162255E+03 -0.16096026076E+03  0.98880658985E+03  0.89747032037E+03 0.  0.
         23    2    4    4    0    0  0.27277000300E+03 -0.22491031499E+03 -0.28229827555E+03  0.46125698379E+03  0.89875271299E+02 0.  0.
         23    2    4    4    0    0 -0.11939843069E+02  0.50481193754E+03  0.12133801480E+03  0.52754960605E+03  0.92779420543E+02 0.  0.
          2    1    3    3  502    0 -0.55865348958E+02 -0.43113292774E+02  0.30078763525E+01  0.70631016899E+02  0.00000000000E+00 0. -1.
         -3    1    3    3    0  502 -0.20496481097E+03 -0.23678832978E+03 -0.14982814548E+03  0.34717108180E+03  0.00000000000E+00 0.  1.
         13    1    5    5    0    0  0.25950048538E+02 -0.39716426405E+02 -0.77628478131E+02  0.90977910299E+02  0.00000000000E+00 0.  1.
        -13    1    5    5    0    0  0.24681995446E+03 -0.18519388858E+03 -0.20466979742E+03  0.37027907349E+03  0.00000000000E+00 0. -1.
          2    1    6    6  503    0 -0.48683326150E+02  0.34714040127E+03  0.98008880715E+02  0.36398113294E+03  0.00000000000E+00 0. -1.
         -2    1    6    6    0  503  0.36743483082E+02  0.15767153627E+03  0.23329134082E+02  0.16356847311E+03  0.00000000000E+00 0.  1.
<mgrwt>
<rscale>  0 0.13725229E+04</rscale>
<asrwt>0</asrwt>
<pdfrwt beam="1">  1        2 0.84525243E-01 0.13725229E+04</pdfrwt>
<pdfrwt beam="2">  1       -1 0.13187609E+00 0.13725229E+04</pdfrwt>
<totfact> 0.30058815E+01</totfact>
</mgrwt>
</event>
<event>
12    7  0.1909736E-007  0.1391502E+04  0.7818608E-02  0.8959993E-01
          2   -1    0    0  501    0  0.00000000000E+00  0.00000000000E+00  0.82552059622E+03  0.82552059622E+03  0.00000000000E+00 0. -1.
         -1   -1    0    0    0  501 -0.00000000000E+00 -0.00000000000E+00 -0.58638061173E+03  0.58638061173E+03  0.00000000000E+00 0.  1.
         24    2    1    2    0    0 -0.37856212077E+03  0.11655805242E+03  0.11590271726E+03  0.42049518700E+03  0.80546282041E+02 0.  0.
        254    2    1    2    0    0  0.37856212077E+03 -0.11655805242E+03  0.12323726723E+03  0.99140602096E+03  0.90044623132E+03 0.  0.
         23    2    4    4    0    0  0.32633493194E+03  0.23239592501E+03 -0.24057719392E+03  0.47637038689E+03  0.92460832278E+02 0.  0.
         23    2    4    4    0    0  0.52227188830E+02 -0.34895397742E+03  0.36381446115E+03  0.51503563407E+03  0.91674339957E+02 0.  0.
          2    1    3    3  502    0 -0.32547264804E+03  0.97779416873E+02  0.68033723744E+02  0.34658598724E+03  0.00000000000E+00 0. -1.
         -1    1    3    3    0  502 -0.53089472732E+02  0.18778635542E+02  0.47868993514E+02  0.73909199751E+02  0.00000000000E+00 0.  1.
         13    1    5    5    0    0  0.12295437805E+03  0.11484656087E+03 -0.14731274816E+03  0.22362593185E+03  0.00000000000E+00 0.  1.
        -13    1    5    5    0    0  0.20338055389E+03  0.11754936413E+03 -0.93264445759E+02  0.25274445504E+03  0.00000000000E+00 0. -1.
          1    1    6    6  503    0 -0.19374264706E+02 -0.50523805772E+02  0.31183581796E+02  0.62453445511E+02  0.00000000000E+00 0. -1.
         -1    1    6    6    0  503  0.71601453536E+02 -0.29843017165E+03  0.33263087935E+03  0.45258218856E+03  0.00000000000E+00 0.  1.
<mgrwt>
<rscale>  0 0.13915017E+04</rscale>
<asrwt>0</asrwt>
<pdfrwt beam="1">  1        2 0.12700317E+00 0.13915017E+04</pdfrwt>
<pdfrwt beam="2">  1       -1 0.90212402E-01 0.13915017E+04</pdfrwt>
<totfact> 0.44139511E+01</totfact>
</mgrwt>
</event>
<event>
12    7  0.1909736E-007  0.1433636E+04  0.7818608E-02  0.8929824E-01
          2   -1    0    0  501    0  0.00000000000E+00  0.00000000000E+00  0.57768044640E+03  0.57768044640E+03  0.00000000000E+00 0. -1.
         -1   -1    0    0    0  501 -0.00000000000E+00 -0.00000000000E+00 -0.88946808299E+03  0.88946808299E+03  0.00000000000E+00 0.  1.
         24    2    1    2    0    0 -0.14456235420E+03 -0.36059110540E+03  0.96514775443E+02  0.40839053933E+03  0.80891972325E+02 0.  0.
        254    2    1    2    0    0  0.14456235420E+03  0.36059110540E+03 -0.40830241204E+03  0.10587579901E+04  0.89628868245E+03 0.  0.
         23    2    4    4    0    0 -0.11162171840E+03 -0.20383707225E+03  0.82932017859E+02  0.26255770088E+03  0.89721049157E+02 0.  0.
         23    2    4    4    0    0  0.25618407260E+03  0.56442817765E+03 -0.49123442990E+03  0.79620028918E+03  0.91728886354E+02 0.  0.
          2    1    3    3  502    0 -0.83203823892E+02 -0.29596528057E+03  0.81071308710E+02  0.31794792138E+03  0.00000000000E+00 0. -1.
         -1    1    3    3    0  502 -0.61358530308E+02 -0.64625824833E+02  0.15443466732E+02  0.90442617950E+02  0.00000000000E+00 0.  1.
         13    1    5    5    0    0 -0.57961468344E+01 -0.13496046104E+02  0.37243707503E+02  0.40035388435E+02  0.00000000000E+00 0. -1.
        -13    1    5    5    0    0 -0.10582557156E+03 -0.19034102615E+03  0.45688310357E+02  0.22252231244E+03  0.00000000000E+00 0.  1.
          3    1    6    6  503    0  0.13083956373E+03  0.27468694755E+03 -0.29901319490E+03  0.42659207835E+03  0.00000000000E+00 0. -1.
         -3    1    6    6    0  503  0.12534450886E+03  0.28974123011E+03 -0.19222123500E+03  0.36960821083E+03  0.00000000000E+00 0.  1.
<mgrwt>
<rscale>  0 0.14336364E+04</rscale>
<asrwt>0</asrwt>
<pdfrwt beam="1">  1        2 0.88873915E-01 0.14336364E+04</pdfrwt>
<pdfrwt beam="2">  1       -1 0.13684124E+00 0.14336364E+04</pdfrwt>
<totfact> 0.25632942E+01</totfact>
</mgrwt>
</event>
<event>
12    7  0.1909736E-007  0.1295979E+04  0.7818608E-02  0.9032760E-01
          2   -1    0    0  501    0  0.00000000000E+00  0.00000000000E+00  0.19057385551E+04  0.19057385551E+04  0.00000000000E+00 0. -1.
         -1   -1    0    0    0  501 -0.00000000000E+00 -0.00000000000E+00 -0.22032936925E+03  0.22032936925E+03  0.00000000000E+00 0.  1.
         24    2    1    2    0    0  0.31054070444E+03 -0.95733890846E+02  0.30368078145E+03  0.45032242481E+03  0.70482354469E+02 0.  0.
        254    2    1    2    0    0 -0.31054070444E+03  0.95733890846E+02  0.13817284044E+04  0.16757454996E+04  0.89070145884E+03 0.  0.
         23    2    4    4    0    0 -0.28204189307E+03 -0.36569200090E+03  0.78614268414E+03  0.91609947821E+03  0.89104798894E+02 0.  0.
         23    2    4    4    0    0 -0.28498811373E+02  0.46142589174E+03  0.59558572028E+03  0.75964602136E+03  0.92809976562E+02 0.  0.
          2    1    3    3  502    0  0.75552942646E+02  0.85520700708E+00  0.96054054726E+02  0.12221031033E+03  0.00000000000E+00 0. -1.
         -1    1    3    3    0  502  0.23498776179E+03 -0.96589097853E+02  0.20762672673E+03  0.32811211448E+03  0.00000000000E+00 0.  1.
         13    1    5    5    0    0 -0.30991455505E+02 -0.16505524442E+02  0.10335686972E+03  0.10915834906E+03  0.00000000000E+00 0.  1.
        -13    1    5    5    0    0 -0.25105043756E+03 -0.34918647646E+03  0.68278581442E+03  0.80694112915E+03  0.00000000000E+00 0. -1.
          1    1    6    6  503    0  0.15592217026E+02  0.36440653872E+03  0.47049407796E+03  0.59531497553E+03  0.00000000000E+00 0. -1.
         -1    1    6    6    0  503 -0.44091028399E+02  0.97019353019E+02  0.12509164232E+03  0.16433104583E+03  0.00000000000E+00 0.  1.
<mgrwt>
<rscale>  0 0.12959787E+04</rscale>
<asrwt>0</asrwt>
<pdfrwt beam="1">  1        2 0.29319053E+00 0.12959787E+04</pdfrwt>
<pdfrwt beam="2">  1       -1 0.33896827E-01 0.12959787E+04</pdfrwt>
<totfact> 0.69221430E+01</totfact>
</mgrwt>
</event>
<event>
12    7  0.1909736E-007  0.1785609E+04  0.7818608E-02  0.8713990E-01
          2   -1    0    0  501    0  0.00000000000E+00  0.00000000000E+00  0.22269318996E+04  0.22269318996E+04  0.00000000000E+00 0. -1.
         -1   -1    0    0    0  501 -0.00000000000E+00 -0.00000000000E+00 -0.35793643787E+03  0.35793643787E+03  0.00000000000E+00 0.  1.
         24    2    1    2    0    0 -0.26382571656E+03  0.34642585144E+03  0.14351555876E+04  0.15018641736E+04  0.79432714817E+02 0.  0.
        254    2    1    2    0    0  0.26382571656E+03 -0.34642585144E+03  0.43383987418E+03  0.10830041639E+04  0.89166479312E+03 0.  0.
         23    2    4    4    0    0  0.21258697785E+03  0.27514844050E+03  0.12507874150E+03  0.38102665597E+03  0.92934027804E+02 0.  0.
         23    2    4    4    0    0  0.51238738707E+02 -0.62157429194E+03  0.30876113268E+03  0.70197750791E+03  0.91972690546E+02 0.  0.
          2    1    3    3  502    0 -0.20256163399E+03  0.24232418376E+03  0.11401625686E+04  0.11830988582E+04  0.00000000000E+00 0. -1.
         -1    1    3    3    0  502 -0.61264082564E+02  0.10410166768E+03  0.29499301904E+03  0.31876531541E+03  0.00000000000E+00 0.  1.
         13    1    5    5    0    0  0.13108489211E+03  0.23179805833E+03  0.10683497215E+03  0.28692734282E+03  0.00000000000E+00 0. -1.
        -13    1    5    5    0    0  0.81502085744E+02  0.43350382169E+02  0.18243769345E+02  0.94099313147E+02  0.00000000000E+00 0.  1.
          2    1    6    6  503    0  0.19146034013E+02 -0.83864960854E+02  0.11656384214E+02  0.86808833482E+02  0.00000000000E+00 0.  1.
         -2    1    6    6    0  503  0.32092704694E+02 -0.53770933109E+03  0.29710474847E+03  0.61516867443E+03  0.00000000000E+00 0. -1.
<mgrwt>
<rscale>  0 0.17856092E+04</rscale>
<asrwt>0</asrwt>
<pdfrwt beam="1">  1        2 0.34260490E+00 0.17856092E+04</pdfrwt>
<pdfrwt beam="2">  1       -1 0.55067145E-01 0.17856092E+04</pdfrwt>
<totfact> 0.17895301E+01</totfact>
</mgrwt>
</event>
<event>
12    7  0.1909736E-007  0.2616371E+04  0.7818608E-02  0.8362662E-01
          2   -1    0    0  501    0  0.00000000000E+00  0.00000000000E+00  0.24996450702E+04  0.24996450702E+04  0.00000000000E+00 0. -1.
         -1   -1    0    0    0  501 -0.00000000000E+00 -0.00000000000E+00 -0.68463677107E+03  0.68463677107E+03  0.00000000000E+00 0.  1.
         24    2    1    2    0    0 -0.36830128738E+03  0.90026721569E+03  0.15491652110E+04  0.18308814527E+04  0.78020157889E+02 0.  0.
        254    2    1    2    0    0  0.36830128738E+03 -0.90026721569E+03  0.26584308811E+03  0.13534003885E+04  0.90271433257E+03 0.  0.
         23    2    4    4    0    0  0.14616029725E+03 -0.25529780710E+03  0.53291116118E+03  0.61559789664E+03  0.91796850872E+02 0.  0.
         23    2    4    4    0    0  0.22214099013E+03 -0.64496940860E+03 -0.26706807307E+03  0.73780249189E+03  0.87721171103E+02 0.  0.
          4    1    3    3  502    0 -0.28357164600E+03  0.69429544695E+03  0.12533507139E+04  0.14605981850E+04  0.00000000000E+00 0. -1.
         -3    1    3    3    0  502 -0.84729641383E+02  0.20597176874E+03  0.29581449715E+03  0.37028326774E+03  0.00000000000E+00 0.  1.
         13    1    5    5    0    0  0.13542778321E+03 -0.21523946126E+03  0.50557352017E+03  0.56592693384E+03  0.00000000000E+00 0. -1.
        -13    1    5    5    0    0  0.10732514040E+02 -0.40058345841E+02  0.27337641012E+02  0.49670962798E+02  0.00000000000E+00 0.  1.
          1    1    6    6  503    0  0.19321214174E+03 -0.61904381114E+03 -0.24580109338E+03  0.69351593301E+03  0.00000000000E+00 0. -1.
         -1    1    6    6    0  503  0.28928848384E+02 -0.25925597460E+02 -0.21266979688E+02  0.44286558881E+02  0.00000000000E+00 0.  1.
<mgrwt>
<rscale>  0 0.26163707E+04</rscale>
<asrwt>0</asrwt>
<pdfrwt beam="1">  1        2 0.38456078E+00 0.26163707E+04</pdfrwt>
<pdfrwt beam="2">  1       -1 0.10532874E+00 0.26163707E+04</pdfrwt>
<totfact> 0.29561527E+00</totfact>
</mgrwt>
</event>
<event>
12    7  0.1909736E-007  0.2025183E+04  0.7818608E-02  0.8594937E-01
          2   -1    0    0  501    0  0.00000000000E+00  0.00000000000E+00  0.62047157576E+03  0.62047157576E+03  0.00000000000E+00 0. -1.
         -1   -1    0    0    0  501 -0.00000000000E+00 -0.00000000000E+00 -0.16525189712E+04  0.16525189712E+04  0.00000000000E+00 0.  1.
         24    2    1    2    0    0  0.67393448414E+03 -0.37030772023E+03 -0.14053611574E+03  0.78608823796E+03  0.82878353345E+02 0.  0.
        254    2    1    2    0    0 -0.67393448414E+03  0.37030772023E+03 -0.89151127974E+03  0.14869023090E+04  0.90816882691E+03 0.  0.
         23    2    4    4    0    0 -0.80591910390E+03  0.27737035841E+03 -0.96207530485E+03  0.12886779255E+04  0.93069790097E+02 0.  0.
         23    2    4    4    0    0  0.13198461975E+03  0.92937361816E+02  0.70564025118E+02  0.19822438350E+03  0.90864357694E+02 0.  0.
          2    1    3    3  502    0  0.64652571315E+03 -0.36119453662E+03 -0.11904446613E+03  0.75008571241E+03  0.00000000000E+00 0. -1.
         -1    1    3    3    0  502  0.27408770995E+02 -0.91131836129E+01 -0.21491649614E+02  0.36002525552E+02  0.00000000000E+00 0.  1.
         13    1    5    5    0    0 -0.41778227348E+03  0.12785023649E+03 -0.55889184126E+03  0.70939960617E+03  0.00000000000E+00 0.  1.
        -13    1    5    5    0    0 -0.38813683041E+03  0.14952012193E+03 -0.40318346359E+03  0.57927831937E+03  0.00000000000E+00 0. -1.
          2    1    6    6  503    0  0.11989486965E+03  0.35491335387E+02  0.36071927660E+02  0.13013684575E+03  0.00000000000E+00 0. -1.
         -2    1    6    6    0  503  0.12089750106E+02  0.57446026429E+02  0.34492097458E+02  0.68087537752E+02  0.00000000000E+00 0.  1.
<mgrwt>
<rscale>  0 0.20251825E+04</rscale>
<asrwt>0</asrwt>
<pdfrwt beam="1">  1        2 0.95457164E-01 0.20251825E+04</pdfrwt>
<pdfrwt beam="2">  1       -1 0.25423369E+00 0.20251825E+04</pdfrwt>
<totfact> 0.32975294E+00</totfact>
</mgrwt>
</event>
<event>
12    7  0.1909736E-007  0.2126533E+04  0.7818608E-02  0.8549644E-01
          2   -1    0    0  501    0  0.00000000000E+00  0.00000000000E+00  0.19212681935E+04  0.19212681935E+04  0.00000000000E+00 0. -1.
         -1   -1    0    0    0  501 -0.00000000000E+00 -0.00000000000E+00 -0.58843221917E+03  0.58843221917E+03  0.00000000000E+00 0.  1.
         24    2    1    2    0    0 -0.42748334839E+03  0.37525555043E+03 -0.20491384132E+03  0.60989590798E+03  0.80153570857E+02 0.  0.
        254    2    1    2    0    0  0.42748334839E+03 -0.37525555043E+03  0.15377498156E+04  0.18998045047E+04  0.95969991101E+03 0.  0.
         23    2    4    4    0    0  0.18255051685E+03 -0.66159493003E+03  0.74402309684E+03  0.10162494927E+04  0.90333383245E+02 0.  0.
         23    2    4    4    0    0  0.24493283155E+03  0.28633937959E+03  0.79372671880E+03  0.88355501198E+03  0.93193469631E+02 0.  0.
          2    1    3    3  502    0 -0.98199621141E+02  0.10867789086E+03 -0.20747429784E+02  0.14793412519E+03  0.00000000000E+00 0. -1.
         -1    1    3    3    0  502 -0.32928372725E+03  0.26657765957E+03 -0.18416641154E+03  0.46196178279E+03  0.00000000000E+00 0.  1.
         13    1    5    5    0    0  0.18526132626E+03 -0.61515850245E+03  0.71586355668E+03  0.96187440652E+03  0.00000000000E+00 0.  1.
        -13    1    5    5    0    0 -0.27108094146E+01 -0.46436427576E+02  0.28159540161E+02  0.54375086168E+02  0.00000000000E+00 0. -1.
          3    1    6    6  503    0  0.45711775377E+02  0.24151599003E+02  0.59214598275E+02  0.78608108941E+02  0.00000000000E+00 0. -1.
         -3    1    6    6    0  503  0.19922105617E+03  0.26218778059E+03  0.73451212053E+03  0.80494690304E+03  0.00000000000E+00 0.  1.
<mgrwt>
<rscale>  0 0.21265334E+04</rscale>
<asrwt>0</asrwt>
<pdfrwt beam="1">  1        2 0.29557972E+00 0.21265334E+04</pdfrwt>
<pdfrwt beam="2">  1       -1 0.90528034E-01 0.21265334E+04</pdfrwt>
<totfact> 0.92240791E+00</totfact>
</mgrwt>
</event>
<event>
12    7  0.1909736E-007  0.2044437E+04  0.7818608E-02  0.8586122E-01
         -1   -1    0    0    0  501 -0.00000000000E+00  0.00000000000E+00  0.22031408748E+03  0.22031408748E+03  0.00000000000E+00 0.  1.
          2   -1    0    0  501    0  0.00000000000E+00 -0.00000000000E+00 -0.47429124024E+04  0.47429124024E+04  0.00000000000E+00 0. -1.
         24    2    1    2    0    0 -0.65117007129E+03  0.48290223318E+03 -0.13763491562E+04  0.15994054451E+04  0.80893444256E+02 0.  0.
        254    2    1    2    0    0  0.65117007129E+03 -0.48290223318E+03 -0.31462491587E+04  0.33638210449E+04  0.87131580061E+03 0.  0.
         23    2    4    4    0    0  0.46576918456E+03 -0.63352634812E+03 -0.29131938249E+04  0.30188519519E+04  0.92044981975E+02 0.  0.
         23    2    4    4    0    0  0.18540088673E+03  0.15062411494E+03 -0.23305533381E+03  0.34496909297E+03  0.87337126626E+02 0.  0.
          2    1    3    3  502    0 -0.49962605416E+03  0.35535543891E+03 -0.97323574076E+03  0.11502571404E+04  0.00000000000E+00 0. -1.
         -1    1    3    3    0  502 -0.15154401713E+03  0.12754679426E+03 -0.40311341545E+03  0.44914830465E+03  0.00000000000E+00 0.  1.
         13    1    5    5    0    0  0.75469908386E+02 -0.53789629833E+02 -0.35931902403E+03  0.37107841809E+03  0.00000000000E+00 0. -1.
        -13    1    5    5    0    0  0.39029927617E+03 -0.57973671829E+03 -0.25538748009E+04  0.26477735338E+04  0.00000000000E+00 0.  1.
          4    1    6    6  503    0  0.89053114359E+02  0.39722038100E+02 -0.47982542053E+02  0.10867668485E+03  0.00000000000E+00 0. -1.
         -4    1    6    6    0  503  0.96347772371E+02  0.11090207684E+03 -0.18507279175E+03  0.23629240812E+03  0.00000000000E+00 0.  1.
<mgrwt>
<rscale>  0 0.20444368E+04</rscale>
<asrwt>0</asrwt>
<pdfrwt beam="1">  1        2 0.72967882E+00 0.20444368E+04</pdfrwt>
<pdfrwt beam="2">  1       -1 0.33894476E-01 0.20444368E+04</pdfrwt>
<totfact> 0.60832050E-01</totfact>
</mgrwt>
</event>
<event>
12    7  0.1909736E-007  0.1856801E+04  0.7818608E-02  0.8676663E-01
         -1   -1    0    0    0  501 -0.00000000000E+00  0.00000000000E+00  0.52173530370E+03  0.52173530370E+03  0.00000000000E+00 0.  1.
          2   -1    0    0  501    0  0.00000000000E+00 -0.00000000000E+00 -0.16520406820E+04  0.16520406820E+04  0.00000000000E+00 0. -1.
         24    2    1    2    0    0 -0.35191276381E+03 -0.28902901966E+03 -0.10652314390E+04  0.11605751299E+04  0.69543123384E+02 0.  0.
        254    2    1    2    0    0  0.35191276381E+03  0.28902901966E+03 -0.65073939329E+02  0.10132008558E+04  0.90275189787E+03 0.  0.
         23    2    4    4    0    0  0.28854086866E+03  0.30014650967E+02  0.37990954321E+03  0.48671272687E+03  0.91658634696E+02 0.  0.
         23    2    4    4    0    0  0.63371895150E+02  0.25901436869E+03 -0.44498348254E+03  0.52648812895E+03  0.89861058903E+02 0.  0.
          2    1    3    3  502    0 -0.35345760763E+03 -0.28885537094E+03 -0.10653403728E+04  0.11590167452E+04  0.00000000000E+00 0. -1.
         -1    1    3    3    0  502  0.15448438260E+01 -0.17364872093E+00  0.10893381820E+00  0.15583847091E+01  0.00000000000E+00 0.  1.
         13    1    5    5    0    0  0.25822327848E+03  0.55964648306E+02  0.33434548157E+03  0.42614340832E+03  0.00000000000E+00 0. -1.
        -13    1    5    5    0    0  0.30317590179E+02 -0.25949997339E+02  0.45564061645E+02  0.60569318551E+02  0.00000000000E+00 0.  1.
          3    1    6    6  503    0  0.59898824977E+02  0.26602068851E+03 -0.43830958118E+03  0.51620748242E+03  0.00000000000E+00 0. -1.
         -3    1    6    6    0  503  0.34730701728E+01 -0.70063198160E+01 -0.66739013621E+01  0.10280646535E+02  0.00000000000E+00 0.  1.
<mgrwt>
<rscale>  0 0.18568015E+04</rscale>
<asrwt>0</asrwt>
<pdfrwt beam="1">  1        2 0.25416010E+00 0.18568015E+04</pdfrwt>
<pdfrwt beam="2">  1       -1 0.80266970E-01 0.18568015E+04</pdfrwt>
<totfact> 0.17292748E+01</totfact>
</mgrwt>
</event>
<event>
12    7  0.1909736E-007  0.1748502E+04  0.7818608E-02  0.8734175E-01
         -1   -1    0    0    0  501 -0.00000000000E+00  0.00000000000E+00  0.83317585709E+03  0.83317585709E+03  0.00000000000E+00 0.  1.
          2   -1    0    0  501    0  0.00000000000E+00 -0.00000000000E+00 -0.91735108789E+03  0.91735108789E+03  0.00000000000E+00 0. -1.
         24    2    1    2    0    0  0.22235325042E+03 -0.85995337560E+02  0.56393116666E+03  0.61761460061E+03  0.81198941488E+02 0.  0.
        254    2    1    2    0    0 -0.22235325042E+03  0.85995337560E+02 -0.64810639746E+03  0.11329123444E+04  0.89811597890E+03 0.  0.
         23    2    4    4    0    0  0.21757282225E+03 -0.24873087858E+03 -0.37948508749E+03  0.51150195291E+03  0.91762373887E+02 0.  0.
         23    2    4    4    0    0 -0.43992607267E+03  0.33472621614E+03 -0.26862130997E+03  0.62141039146E+03  0.91743540712E+02 0.  0.
          2    1    3    3  502    0  0.55666485055E+02 -0.59692073227E+02  0.21638085558E+03  0.23126300142E+03  0.00000000000E+00 0. -1.
         -1    1    3    3    0  502  0.16668676537E+03 -0.26303264333E+02  0.34755031108E+03  0.38635159919E+03  0.00000000000E+00 0.  1.
         13    1    5    5    0    0  0.22187080911E+03 -0.25327323792E+03 -0.37276489432E+03  0.50232226252E+03  0.00000000000E+00 0. -1.
        -13    1    5    5    0    0 -0.42979868582E+01  0.45423593444E+01 -0.67201931753E+01  0.91796903957E+01  0.00000000000E+00 0.  1.
          3    1    6    6  503    0 -0.39673769688E+03  0.28115268534E+03 -0.20504304310E+03  0.52772178477E+03  0.00000000000E+00 0. -1.
         -3    1    6    6    0  503 -0.43188375795E+02  0.53573530795E+02 -0.63578266871E+02  0.93688606692E+02  0.00000000000E+00 0.  1.
<mgrwt>
<rscale>  0 0.17485020E+04</rscale>
<asrwt>0</asrwt>
<pdfrwt beam="1">  1        2 0.14113094E+00 0.17485020E+04</pdfrwt>
<pdfrwt beam="2">  1       -1 0.12818090E+00 0.17485020E+04</pdfrwt>
<totfact> 0.16227188E+01</totfact>
</mgrwt>
</event>
<event>
12    7  0.1909736E-007  0.1568889E+04  0.7818608E-02  0.8839892E-01
         -1   -1    0    0    0  501 -0.00000000000E+00  0.00000000000E+00  0.70149294513E+03  0.70149294513E+03  0.00000000000E+00 0.  1.
          2   -1    0    0  501    0  0.00000000000E+00 -0.00000000000E+00 -0.87720546561E+03  0.87720546561E+03  0.00000000000E+00 0. -1.
         24    2    1    2    0    0  0.52697072829E+03 -0.19571331778E+03 -0.60537283845E+02  0.56949942653E+03  0.68286036986E+02 0.  0.
        254    2    1    2    0    0 -0.52697072829E+03  0.19571331778E+03 -0.11517523664E+03  0.10091989842E+04  0.83018998028E+03 0.  0.
         23    2    4    4    0    0 -0.57754615515E+03 -0.15108166311E+03  0.60371553957E+02  0.60689356369E+03  0.91048574225E+02 0.  0.
         23    2    4    4    0    0  0.50575426861E+02  0.34679498090E+03 -0.17554679059E+03  0.40230542051E+03  0.90599906783E+02 0.  0.
          2    1    3    3  502    0  0.57941996006E+02 -0.42429914669E+01 -0.19298424041E+02  0.61218518833E+02  0.00000000000E+00 0. -1.
         -1    1    3    3    0  502  0.46902873228E+03 -0.19147032632E+03 -0.41238859804E+02  0.50828090769E+03  0.00000000000E+00 0.  1.
         13    1    5    5    0    0 -0.56595152624E+03 -0.13208077847E+03  0.62608686829E+02  0.58452229193E+03  0.00000000000E+00 0.  1.
        -13    1    5    5    0    0 -0.11594628907E+02 -0.19000884646E+02 -0.22371328718E+01  0.22371271763E+02  0.00000000000E+00 0. -1.
          4    1    6    6  503    0 -0.49158206665E+01  0.47383266029E+01  0.77144716367E+01  0.10301946634E+02  0.00000000000E+00 0. -1.
         -4    1    6    6    0  503  0.55491247528E+02  0.34205665429E+03 -0.18326126223E+03  0.39200347388E+03  0.00000000000E+00 0.  1.
<mgrwt>
<rscale>  0 0.15688893E+04</rscale>
<asrwt>0</asrwt>
<pdfrwt beam="1">  1        2 0.13495469E+00 0.15688893E+04</pdfrwt>
<pdfrwt beam="2">  1       -1 0.10792199E+00 0.15688893E+04</pdfrwt>
<totfact> 0.26624882E+01</totfact>
</mgrwt>
</event>
<event>
12    7  0.1909736E-007  0.2514220E+04  0.7818608E-02  0.8397937E-01
         -1   -1    0    0    0  501 -0.00000000000E+00  0.00000000000E+00  0.75147141895E+03  0.75147141895E+03  0.00000000000E+00 0.  1.
          2   -1    0    0  501    0  0.00000000000E+00 -0.00000000000E+00 -0.21029749651E+04  0.21029749651E+04  0.00000000000E+00 0. -1.
         24    2    1    2    0    0 -0.53912551712E+02  0.60862920734E+03  0.44016370146E+03  0.76079623811E+03  0.10830861730E+03 0.  0.
        254    2    1    2    0    0  0.53912551712E+02 -0.60862920734E+03 -0.17916672476E+04  0.20936501459E+04  0.89440669281E+03 0.  0.
         23    2    4    4    0    0  0.68395878565E+02  0.11042036979E+03  0.82314800842E+00  0.16015330039E+03  0.93689635408E+02 0.  0.
         23    2    4    4    0    0 -0.14483326853E+02 -0.71904957713E+03 -0.17924903956E+04  0.19334968455E+04  0.90256147782E+02 0.  0.
          4    1    3    3  502    0 -0.12225232193E+02  0.82264121558E+02  0.18807770348E+02  0.85267662236E+02  0.00000000000E+00 0. -1.
         -3    1    3    3    0  502 -0.41687319519E+02  0.52636508578E+03  0.42135593112E+03  0.67552857588E+03  0.00000000000E+00 0.  1.
         13    1    5    5    0    0  0.94621933553E+01  0.17361304103E+02 -0.38429437698E+02  0.43217700830E+02  0.00000000000E+00 0. -1.
        -13    1    5    5    0    0  0.58933685209E+02  0.93059065690E+02  0.39252585706E+02  0.11693559956E+03  0.00000000000E+00 0.  1.
          3    1    6    6  503    0  0.25297592824E+00 -0.10773933437E+02 -0.72943082348E+02  0.73734896087E+02  0.00000000000E+00 0. -1.
         -3    1    6    6    0  503 -0.14736302781E+02 -0.70827564369E+03 -0.17195473133E+04  0.18597619494E+04  0.00000000000E+00 0.  1.
<mgrwt>
<rscale>  0 0.25142200E+04</rscale>
<asrwt>0</asrwt>
<pdfrwt beam="1">  1        2 0.32353461E+00 0.25142200E+04</pdfrwt>
<pdfrwt beam="2">  1       -1 0.11561099E+00 0.25142200E+04</pdfrwt>
<totfact> 0.40201349E+00</totfact>
</mgrwt>
</event>
<event>
12    7  0.1909736E-007  0.1765160E+04  0.7818608E-02  0.8725049E-01
         -1   -1    0    0    0  501 -0.00000000000E+00  0.00000000000E+00  0.30360763704E+03  0.30360763704E+03  0.00000000000E+00 0.  1.
          2   -1    0    0  501    0  0.00000000000E+00 -0.00000000000E+00 -0.25656393428E+04  0.25656393428E+04  0.00000000000E+00 0. -1.
         24    2    1    2    0    0 -0.62311614325E+03  0.63381559829E+02 -0.55054896726E+03  0.83765321897E+03  0.79169437136E+02 0.  0.
        254    2    1    2    0    0  0.62311614325E+03 -0.63381559829E+02 -0.17114827385E+04  0.20315937609E+04  0.89772439812E+03 0.  0.
         23    2    4    4    0    0  0.12074983634E+03 -0.36834269121E+03 -0.11387475814E+04  0.12064982965E+04  0.92925906739E+02 0.  0.
         23    2    4    4    0    0  0.50236630691E+03  0.30496113138E+03 -0.57273515707E+03  0.82509546436E+03  0.85928849629E+02 0.  0.
          4    1    3    3  502    0 -0.41050822334E+03  0.36825871758E+02 -0.31144631124E+03  0.51659650700E+03  0.00000000000E+00 0. -1.
         -3    1    3    3    0  502 -0.21260791991E+03  0.26555688071E+02 -0.23910265603E+03  0.32105671196E+03  0.00000000000E+00 0.  1.
         13    1    5    5    0    0  0.64302551761E+02 -0.21883944652E+03 -0.52740246424E+03  0.57461193931E+03  0.00000000000E+00 0. -1.
        -13    1    5    5    0    0  0.56447284583E+02 -0.14950324470E+03 -0.61134511718E+03  0.63188635720E+03  0.00000000000E+00 0.  1.
          2    1    6    6  503    0  0.25954889066E+03  0.14089597457E+03 -0.34376547675E+03  0.45320194759E+03  0.00000000000E+00 0. -1.
         -2    1    6    6    0  503  0.24281741625E+03  0.16406515681E+03 -0.22896968032E+03  0.37189351677E+03  0.00000000000E+00 0.  1.
<mgrwt>
<rscale>  0 0.17651603E+04</rscale>
<asrwt>0</asrwt>
<pdfrwt beam="1">  1        2 0.39471373E+00 0.17651603E+04</pdfrwt>
<pdfrwt beam="2">  1       -1 0.46708869E-01 0.17651603E+04</pdfrwt>
<totfact> 0.15716666E+01</totfact>
</mgrwt>
</event>
<event>
12    7  0.1909736E-007  0.1875534E+04  0.7818608E-02  0.8667131E-01
         -1   -1    0    0    0  501 -0.00000000000E+00  0.00000000000E+00  0.11709404837E+04  0.11709404837E+04  0.00000000000E+00 0.  1.
          2   -1    0    0  501    0  0.00000000000E+00 -0.00000000000E+00 -0.75102645374E+03  0.75102645374E+03  0.00000000000E+00 0. -1.
         24    2    1    2    0    0 -0.30448681721E+03  0.43287979362E+03  0.69188386195E+03  0.87491719614E+03  0.81729334363E+02 0.  0.
        254    2    1    2    0    0  0.30448681721E+03 -0.43287979362E+03 -0.27196983196E+03  0.10470497413E+04  0.86153841107E+03 0.  0.
         23    2    4    4    0    0  0.29060842817E+03  0.20420781677E+03 -0.11103183693E+03  0.38332148300E+03  0.91941283240E+02 0.  0.
         23    2    4    4    0    0  0.13878389032E+02 -0.63708761039E+03 -0.16093799502E+03  0.66372825832E+03  0.92525291993E+02 0.  0.
          4    1    3    3  502    0 -0.60805323674E+01  0.27735009147E+02  0.16980024043E+02  0.33083603533E+02  0.00000000000E+00 0. -1.
         -3    1    3    3    0  502 -0.29840628484E+03  0.40514478447E+03  0.67490383791E+03  0.84183359261E+03  0.00000000000E+00 0.  1.
         13    1    5    5    0    0  0.13346184251E+03  0.13816000835E+03 -0.29435734492E+02  0.19433659917E+03  0.00000000000E+00 0. -1.
        -13    1    5    5    0    0  0.15714658567E+03  0.66047808425E+02 -0.81596102442E+02  0.18898488384E+03  0.00000000000E+00 0.  1.
          3    1    6    6  503    0  0.18849165781E+02 -0.58303572617E+03 -0.11953846052E+03  0.59546233515E+03  0.00000000000E+00 0. -1.
         -3    1    6    6    0  503 -0.49707767491E+01 -0.54051884224E+02 -0.41399534504E+02  0.68265923174E+02  0.00000000000E+00 0.  1.
<mgrwt>
<rscale>  0 0.18755344E+04</rscale>
<asrwt>0</asrwt>
<pdfrwt beam="1">  1        2 0.11554253E+00 0.18755344E+04</pdfrwt>
<pdfrwt beam="2">  1       -1 0.18014469E+00 0.18755344E+04</pdfrwt>
<totfact> 0.83246795E+00</totfact>
</mgrwt>
</event>
<event>
12    7  0.2564712E-007  0.1467439E+04  0.7818608E-02  0.8906399E-01
          2   -1    0    0  501    0  0.00000000000E+00  0.00000000000E+00  0.14861124916E+04  0.14861124916E+04  0.00000000000E+00 0. -1.
         -1   -1    0    0    0  501 -0.00000000000E+00 -0.00000000000E+00 -0.36225019237E+03  0.36225019237E+03  0.00000000000E+00 0.  1.
         24    2    1    2    0    0 -0.70452427467E+02  0.15411627178E+03 -0.17746831010E+03  0.25799990426E+03  0.79709345385E+02 0.  0.
        254    2    1    2    0    0  0.70452427467E+02 -0.15411627178E+03  0.13013306094E+04  0.15903627797E+04  0.89837466937E+03 0.  0.
         23    2    4    4    0    0 -0.23127611070E+03 -0.65920949693E+02  0.12289023811E+04  0.12553157073E+04  0.88217071645E+02 0.  0.
         23    2    4    4    0    0  0.30172853817E+03 -0.88195322091E+02  0.72428228303E+02  0.33504707248E+03  0.90510590216E+02 0.  0.
          4    1    3    3  502    0  0.82780330120E+01  0.18681752440E+02 -0.56479875818E+02  0.60062551371E+02  0.00000000000E+00 0. -1.
         -3    1    3    3    0  502 -0.78730460479E+02  0.13543451935E+03 -0.12098843429E+03  0.19793735289E+03  0.00000000000E+00 0.  1.
         13    1    5    5    0    0 -0.14773512281E+03 -0.75444610969E+01  0.85833785572E+03  0.87099165322E+03  0.00000000000E+00 0.  1.
        -13    1    5    5    0    0 -0.83540987889E+02 -0.58376488596E+02  0.37056452534E+03  0.38432405404E+03  0.00000000000E+00 0. -1.
          1    1    6    6  503    0  0.30396529587E+03 -0.75455670402E+02  0.64158335689E+02  0.31969477839E+03  0.00000000000E+00 0. -1.
         -1    1    6    6    0  503 -0.22367577032E+01 -0.12739651689E+02  0.82698926135E+01  0.15352294097E+02  0.00000000000E+00 0.  1.
<mgrwt>
<rscale>  0 0.14674393E+04</rscale>
<asrwt>0</asrwt>
<pdfrwt beam="1">  1        2 0.22863269E+00 0.14674393E+04</pdfrwt>
<pdfrwt beam="2">  1       -1 0.55730800E-01 0.14674393E+04</pdfrwt>
<totfact> 0.46449801E+01</totfact>
</mgrwt>
</event>
<event>
12    7  0.1909736E-007  0.4060781E+04  0.7818608E-02  0.7992396E-01
         -1   -1    0    0    0  501 -0.00000000000E+00  0.00000000000E+00  0.11886234839E+04  0.11886234839E+04  0.00000000000E+00 0.  1.
          2   -1    0    0  501    0  0.00000000000E+00 -0.00000000000E+00 -0.34682854373E+04  0.34682854373E+04  0.00000000000E+00 0. -1.
         24    2    1    2    0    0 -0.68327277482E+03 -0.18036206643E+04 -0.97876848286E+03  0.21642872423E+04  0.79008472662E+02 0.  0.
        254    2    1    2    0    0  0.68327277482E+03  0.18036206643E+04 -0.13008934706E+04  0.24926216789E+04  0.89494682901E+03 0.  0.
         23    2    4    4    0    0  0.71491030778E+03  0.18363219855E+04 -0.10807396199E+04  0.22493925443E+04  0.92701184877E+02 0.  0.
         23    2    4    4    0    0 -0.31637532960E+02 -0.32701321288E+02 -0.22015385072E+03  0.24322913455E+03  0.92856792972E+02 0.  0.
          4    1    3    3  502    0 -0.67465965067E+03 -0.17603237656E+04 -0.94542832795E+03  0.21089666017E+04  0.00000000000E+00 0. -1.
         -3    1    3    3    0  502 -0.86131241443E+01 -0.43296898657E+02 -0.33340154909E+02  0.55320640544E+02  0.00000000000E+00 0.  1.
         13    1    5    5    0    0  0.68067998874E+03  0.17081631540E+04 -0.98677819479E+03  0.20868344001E+04  0.00000000000E+00 0. -1.
        -13    1    5    5    0    0  0.34230319041E+02  0.12815883154E+03 -0.93961425065E+02  0.16255814420E+03  0.00000000000E+00 0.  1.
          3    1    6    6  503    0 -0.63053856921E+02 -0.12655369051E+02 -0.16032637554E+03  0.17274401272E+03  0.00000000000E+00 0. -1.
         -3    1    6    6    0  503  0.31416323961E+02 -0.20045952236E+02 -0.59827475186E+02  0.70485121830E+02  0.00000000000E+00 0.  1.
<mgrwt>
<rscale>  0 0.40607810E+04</rscale>
<asrwt>0</asrwt>
<pdfrwt beam="1">  1        2 0.53358237E+00 0.40607810E+04</pdfrwt>
<pdfrwt beam="2">  1       -1 0.18286515E+00 0.40607810E+04</pdfrwt>
<totfact> 0.15103543E-01</totfact>
</mgrwt>
</event>
<event>
12    7  0.1909736E-007  0.2751400E+04  0.7818608E-02  0.8318517E-01
          2   -1    0    0  501    0  0.00000000000E+00  0.00000000000E+00  0.29034394733E+04  0.29034394733E+04  0.00000000000E+00 0. -1.
         -1   -1    0    0    0  501 -0.00000000000E+00 -0.00000000000E+00 -0.65183067846E+03  0.65183067846E+03  0.00000000000E+00 0.  1.
         24    2    1    2    0    0 -0.68476089945E+03  0.59298144433E+03  0.20652193795E+04  0.22568706678E+04  0.88372185939E+02 0.  0.
        254    2    1    2    0    0  0.68476089945E+03 -0.59298144433E+03  0.18638941538E+03  0.12983994839E+04  0.91135927218E+03 0.  0.
         23    2    4    4    0    0  0.57317079842E+03 -0.37402946616E+03  0.52753607160E+03  0.86899897535E+03  0.91880937109E+02 0.  0.
         23    2    4    4    0    0  0.11159010103E+03 -0.21895197817E+03 -0.34114665622E+03  0.42940050858E+03  0.87243546068E+02 0.  0.
          4    1    3    3  502    0 -0.33481759059E+03  0.28406492276E+03  0.89236395705E+03  0.99453965791E+03  0.00000000000E+00 0. -1.
         -3    1    3    3    0  502 -0.34994330886E+03  0.30891652157E+03  0.11728554224E+04  0.12623310099E+04  0.00000000000E+00 0.  1.
         13    1    5    5    0    0  0.15143023899E+03 -0.88223128430E+02  0.18652805506E+03  0.25594365199E+03  0.00000000000E+00 0. -1.
        -13    1    5    5    0    0  0.42174055943E+03 -0.28580633773E+03  0.34100801654E+03  0.61305532336E+03  0.00000000000E+00 0.  1.
          4    1    6    6  503    0 -0.84337547351E+00 -0.71989320401E+02 -0.65031439886E+02  0.97016811469E+02  0.00000000000E+00 0. -1.
         -4    1    6    6    0  503  0.11243347650E+03 -0.14696265776E+03 -0.27611521633E+03  0.33238369711E+03  0.00000000000E+00 0.  1.
<mgrwt>
<rscale>  0 0.27514003E+04</rscale>
<asrwt>0</asrwt>
<pdfrwt beam="1">  1        2 0.44668299E+00 0.27514003E+04</pdfrwt>
<pdfrwt beam="2">  1       -1 0.10028164E+00 0.27514003E+04</pdfrwt>
<totfact> 0.18794476E+00</totfact>
</mgrwt>
</event>
<event>
12    7  0.1909736E-007  0.2160307E+04  0.7818608E-02  0.8535133E-01
          2   -1    0    0  501    0  0.00000000000E+00  0.00000000000E+00  0.10785090866E+04  0.10785090866E+04  0.00000000000E+00 0. -1.
         -1   -1    0    0    0  501 -0.00000000000E+00 -0.00000000000E+00 -0.10818004217E+04  0.10818004217E+04  0.00000000000E+00 0.  1.
         24    2    1    2    0    0 -0.45019695947E+02  0.81347141930E+03 -0.36932279555E+03  0.89802754263E+03  0.79319713596E+02 0.  0.
        254    2    1    2    0    0  0.45019695947E+02 -0.81347141930E+03  0.36603146036E+03  0.12622819657E+04  0.89197208915E+03 0.  0.
         23    2    4    4    0    0 -0.14061453367E+03 -0.69059301755E+03  0.59485400656E+03  0.92685396348E+03  0.92281187336E+02 0.  0.
         23    2    4    4    0    0  0.18563422962E+03 -0.12287840175E+03 -0.22882254620E+03  0.33542800218E+03  0.10292238908E+03 0.  0.
          2    1    3    3  502    0 -0.24426770440E+02  0.33391340963E+03 -0.19437863763E+03  0.38714065534E+03  0.00000000000E+00 0. -1.
         -1    1    3    3    0  502 -0.20592925507E+02  0.47955800967E+03 -0.17494415792E+03  0.51088688729E+03  0.00000000000E+00 0.  1.
         13    1    5    5    0    0 -0.40923322490E+02 -0.83846166486E+02  0.53079637061E+02  0.10734219035E+03  0.00000000000E+00 0.  1.
        -13    1    5    5    0    0 -0.99691211182E+02 -0.60674685106E+03  0.54177436950E+03  0.81951177313E+03  0.00000000000E+00 0. -1.
          4    1    6    6  503    0  0.12751384782E+02  0.15445736947E+02 -0.51005225081E+01  0.20668428425E+02  0.00000000000E+00 0.  1.
         -4    1    6    6    0  503  0.17288284484E+03 -0.13832413870E+03 -0.22372202369E+03  0.31475957375E+03  0.00000000000E+00 0. -1.
<mgrwt>
<rscale>  0 0.21603070E+04</rscale>
<asrwt>0</asrwt>
<pdfrwt beam="1">  1        2 0.16592448E+00 0.21603070E+04</pdfrwt>
<pdfrwt beam="2">  1       -1 0.16643083E+00 0.21603070E+04</pdfrwt>
<totfact> 0.61430767E+00</totfact>
</mgrwt>
</event>
<event>
12    7  0.1909736E-007  0.2610814E+04  0.7818608E-02  0.8364537E-01
          2   -1    0    0  501    0  0.00000000000E+00  0.00000000000E+00  0.91177871229E+03  0.91177871229E+03  0.00000000000E+00 0. -1.
         -1   -1    0    0    0  501 -0.00000000000E+00 -0.00000000000E+00 -0.18689704546E+04  0.18689704546E+04  0.00000000000E+00 0.  1.
         24    2    1    2    0    0 -0.49486033262E+03 -0.36009487019E+03 -0.14548150183E+04  0.15803311929E+04  0.80030476928E+02 0.  0.
        254    2    1    2    0    0  0.49486033262E+03  0.36009487019E+03  0.49762327604E+03  0.12004179740E+04  0.90488635922E+03 0.  0.
         23    2    4    4    0    0  0.62763929188E+03 -0.26825513395E+02  0.13961855715E+03  0.64988305063E+03  0.90575654069E+02 0.  0.
         23    2    4    4    0    0 -0.13277895927E+03  0.38692038358E+03  0.35800471890E+03  0.55053492337E+03  0.87084371954E+02 0.  0.
          2    1    3    3  502    0 -0.99260103900E+02 -0.10987318039E+03 -0.39043091871E+03  0.41756554728E+03  0.00000000000E+00 0. -1.
         -1    1    3    3    0  502 -0.39560022872E+03 -0.25022168980E+03 -0.10643840996E+04  0.11627656456E+04  0.00000000000E+00 0.  1.
         13    1    5    5    0    0  0.33247243576E+03  0.12346442058E+02  0.36135279172E+02  0.33465820410E+03  0.00000000000E+00 0.  1.
        -13    1    5    5    0    0  0.29516685612E+03 -0.39171955453E+02  0.10348327797E+03  0.31522484653E+03  0.00000000000E+00 0. -1.
          4    1    6    6  503    0 -0.11863976631E+03  0.32482049660E+03  0.25590358622E+03  0.43019808764E+03  0.00000000000E+00 0. -1.
         -4    1    6    6    0  503 -0.14139192957E+02  0.62099886979E+02  0.10210113268E+03  0.12033683573E+03  0.00000000000E+00 0.  1.
<mgrwt>
<rscale>  0 0.26108140E+04</rscale>
<asrwt>0</asrwt>
<pdfrwt beam="1">  1        2 0.14027365E+00 0.26108140E+04</pdfrwt>
<pdfrwt beam="2">  1       -1 0.28753391E+00 0.26108140E+04</pdfrwt>
<totfact> 0.11539150E+00</totfact>
</mgrwt>
</event>
<event>
12    7  0.1909736E-007  0.1418854E+04  0.7818608E-02  0.8940283E-01
         -1   -1    0    0    0  501 -0.00000000000E+00  0.00000000000E+00  0.17378159583E+04  0.17378159583E+04  0.00000000000E+00 0.  1.
          2   -1    0    0  501    0  0.00000000000E+00 -0.00000000000E+00 -0.28960871960E+03  0.28960871960E+03  0.00000000000E+00 0. -1.
         24    2    1    2    0    0 -0.79886034878E+01  0.40840279069E+03  0.58670112438E+03  0.71941308065E+03  0.80500397645E+02 0.  0.
        254    2    1    2    0    0  0.79886034878E+01 -0.40840279069E+03  0.86150611428E+03  0.13080115972E+04  0.89545792546E+03 0.  0.
         23    2    4    4    0    0  0.39779098281E+03 -0.38768090281E+03  0.63173484131E+03  0.84629583325E+03  0.92701560074E+02 0.  0.
         23    2    4    4    0    0 -0.38980237932E+03 -0.20721887882E+02  0.22977127297E+03  0.46171576396E+03  0.89505962052E+02 0.  0.
          4    1    3    3  502    0 -0.22423038022E+02  0.49419388071E+02  0.10821364787E+03  0.12105892010E+03  0.00000000000E+00 0. -1.
         -3    1    3    3    0  502  0.14434434534E+02  0.35898340262E+03  0.47848747652E+03  0.59835416054E+03  0.00000000000E+00 0.  1.
         13    1    5    5    0    0  0.16732439296E+03 -0.10166260981E+03  0.21503648201E+03  0.29081510846E+03  0.00000000000E+00 0.  1.
        -13    1    5    5    0    0  0.23046658985E+03 -0.28601829300E+03  0.41669835930E+03  0.55548072479E+03  0.00000000000E+00 0. -1.
          4    1    6    6  503    0 -0.27783463605E+03  0.25766858851E+02  0.15308051760E+03  0.31826036648E+03  0.00000000000E+00 0. -1.
         -4    1    6    6    0  503 -0.11196774328E+03 -0.46488746733E+02  0.76690755364E+02  0.14345539748E+03  0.00000000000E+00 0.  1.
<mgrwt>
<rscale>  0 0.14188540E+04</rscale>
<asrwt>0</asrwt>
<pdfrwt beam="1">  1        2 0.44555189E-01 0.14188540E+04</pdfrwt>
<pdfrwt beam="2">  1       -1 0.26735630E+00 0.14188540E+04</pdfrwt>
<totfact> 0.68448848E+00</totfact>
</mgrwt>
</event>
<event>
12    7  0.1909736E-007  0.1671898E+04  0.7818608E-02  0.8777556E-01
          2   -1    0    0  501    0  0.00000000000E+00  0.00000000000E+00  0.14673234078E+04  0.14673234078E+04  0.00000000000E+00 0. -1.
         -1   -1    0    0    0  501 -0.00000000000E+00 -0.00000000000E+00 -0.47624839031E+03  0.47624839031E+03  0.00000000000E+00 0.  1.
         24    2    1    2    0    0 -0.21141798001E+03 -0.39975558271E+03  0.80603925859E+03  0.92764455856E+03  0.79517623574E+02 0.  0.
        254    2    1    2    0    0  0.21141798001E+03  0.39975558271E+03  0.18503575885E+03  0.10159272395E+04  0.89071198247E+03 0.  0.
         23    2    4    4    0    0 -0.20473913480E+03 -0.15958954881E+02 -0.20262556772E+03  0.30569386661E+03  0.10108816861E+03 0.  0.
         23    2    4    4    0    0  0.41615711481E+03  0.41571453759E+03  0.38766132658E+03  0.71023337288E+03  0.90248650187E+02 0.  0.
          4    1    3    3  502    0 -0.15795762633E+03 -0.35763954679E+03  0.69424722263E+03  0.79676587732E+03  0.00000000000E+00 0. -1.
         -3    1    3    3    0  502 -0.53460353681E+02 -0.42116035922E+02  0.11179203596E+03  0.13087868124E+03  0.00000000000E+00 0.  1.
         13    1    5    5    0    0 -0.15773648823E+03  0.11505658884E+02 -0.19444637707E+03  0.25064431663E+03  0.00000000000E+00 0.  1.
        -13    1    5    5    0    0 -0.47002646563E+02 -0.27464613765E+02 -0.81791906554E+01  0.55049549980E+02  0.00000000000E+00 0. -1.
          4    1    6    6  503    0  0.31071686495E+02  0.38972540565E+02  0.64171215073E+01  0.50254234331E+02  0.00000000000E+00 0. -1.
         -4    1    6    6    0  503  0.38508542831E+03  0.37674199703E+03  0.38124420507E+03  0.65997913855E+03  0.00000000000E+00 0.  1.
<mgrwt>
<rscale>  0 0.16718976E+04</rscale>
<asrwt>0</asrwt>
<pdfrwt beam="1">  1        2 0.22574206E+00 0.16718976E+04</pdfrwt>
<pdfrwt beam="2">  1       -1 0.73268984E-01 0.16718976E+04</pdfrwt>
<totfact> 0.27023928E+01</totfact>
</mgrwt>
</event>
<event>
12    7  0.1909736E-007  0.1576698E+04  0.7818608E-02  0.8834993E-01
          2   -1    0    0  501    0  0.00000000000E+00  0.00000000000E+00  0.12557412995E+04  0.12557412995E+04  0.00000000000E+00 0. -1.
         -1   -1    0    0    0  501 -0.00000000000E+00 -0.00000000000E+00 -0.49492207901E+03  0.49492207901E+03  0.00000000000E+00 0.  1.
         24    2    1    2    0    0  0.26218381499E+03 -0.38529928960E+03  0.53170807327E+03  0.71188257555E+03  0.82869963075E+02 0.  0.
        254    2    1    2    0    0 -0.26218381499E+03  0.38529928960E+03  0.22911114725E+03  0.10387808030E+04  0.89965423550E+03 0.  0.
         23    2    4    4    0    0  0.53844981145E+02  0.55354053315E+03  0.33334194146E+03  0.65479901280E+03  0.91315351346E+02 0.  0.
         23    2    4    4    0    0 -0.31602879613E+03 -0.16824124355E+03 -0.10423079420E+03  0.38398179019E+03  0.91644098115E+02 0.  0.
          4    1    3    3  502    0  0.84730484170E+02 -0.17853048168E+03  0.18291745853E+03  0.26927900860E+03  0.00000000000E+00 0. -1.
         -3    1    3    3    0  502  0.17745333082E+03 -0.20676880793E+03  0.34879061474E+03  0.44260356695E+03  0.00000000000E+00 0.  1.
         13    1    5    5    0    0  0.76845748055E+02  0.45046103501E+03  0.28575769290E+03  0.53895999120E+03  0.00000000000E+00 0.  1.
        -13    1    5    5    0    0 -0.23000766910E+02  0.10307949814E+03  0.47584248557E+02  0.11583902160E+03  0.00000000000E+00 0. -1.
          1    1    6    6  503    0 -0.28413914527E+02 -0.73157794226E+01  0.15684409977E+02  0.33269684153E+02  0.00000000000E+00 0. -1.
         -1    1    6    6    0  503 -0.28761488160E+03 -0.16092546413E+03 -0.11991520418E+03  0.35071210603E+03  0.00000000000E+00 0.  1.
<mgrwt>
<rscale>  0 0.15766979E+04</rscale>
<asrwt>0</asrwt>
<pdfrwt beam="1">  1        2 0.19319097E+00 0.15766979E+04</pdfrwt>
<pdfrwt beam="2">  1       -1 0.76141859E-01 0.15766979E+04</pdfrwt>
<totfact> 0.33295572E+01</totfact>
</mgrwt>
</event>
<event>
12    7  0.1909736E-007  0.4159473E+04  0.7818608E-02  0.7973126E-01
         -1   -1    0    0    0  501 -0.00000000000E+00  0.00000000000E+00  0.14225910077E+04  0.14225910077E+04  0.00000000000E+00 0.  1.
          2   -1    0    0  501    0  0.00000000000E+00 -0.00000000000E+00 -0.30404409695E+04  0.30404409695E+04  0.00000000000E+00 0. -1.
         24    2    1    2    0    0 -0.10296045900E+04 -0.25813970798E+03  0.10230798689E+04  0.14765204164E+04  0.81843762478E+02 0.  0.
        254    2    1    2    0    0  0.10296045900E+04  0.25813970798E+03 -0.26409298306E+04  0.29865115608E+04  0.90444414522E+03 0.  0.
         23    2    4    4    0    0  0.10053204459E+04 -0.90187426818E+02 -0.17057421397E+04  0.19841000916E+04  0.91071156239E+02 0.  0.
         23    2    4    4    0    0  0.24284144100E+02  0.34832713480E+03 -0.93518769093E+03  0.10024114692E+04  0.91275537602E+02 0.  0.
          4    1    3    3  502    0 -0.79951213371E+03 -0.16484310709E+03  0.78248526892E+03  0.11307856110E+04  0.00000000000E+00 0. -1.
         -3    1    3    3    0  502 -0.23009245630E+03 -0.93296600885E+02  0.24059459995E+03  0.34573480546E+03  0.00000000000E+00 0.  1.
         13    1    5    5    0    0  0.96334424042E+03 -0.96338831429E+02 -0.15992559681E+04  0.18694739761E+04  0.00000000000E+00 0. -1.
        -13    1    5    5    0    0  0.41976205483E+02  0.61514046111E+01 -0.10648617160E+03  0.11462611547E+03  0.00000000000E+00 0.  1.
          3    1    6    6  503    0 -0.33694106150E+02  0.11340678030E+03 -0.33546375707E+03  0.35571382165E+03  0.00000000000E+00 0. -1.
         -3    1    6    6    0  503  0.57978250250E+02  0.23492035450E+03 -0.59972393386E+03  0.64669764752E+03  0.00000000000E+00 0.  1.
<mgrwt>
<rscale>  0 0.41594730E+04</rscale>
<asrwt>0</asrwt>
<pdfrwt beam="1">  1        2 0.46776014E+00 0.41594730E+04</pdfrwt>
<pdfrwt beam="2">  1       -1 0.21886016E+00 0.41594730E+04</pdfrwt>
<totfact> 0.16255940E-01</totfact>
</mgrwt>
</event>
<event>
12    7  0.1909736E-007  0.1687398E+04  0.7818608E-02  0.8768585E-01
         -1   -1    0    0    0  501 -0.00000000000E+00  0.00000000000E+00  0.38453198826E+03  0.38453198826E+03  0.00000000000E+00 0.  1.
          2   -1    0    0  501    0  0.00000000000E+00 -0.00000000000E+00 -0.18511542187E+04  0.18511542187E+04  0.00000000000E+00 0. -1.
         24    2    1    2    0    0  0.13135342750E+03  0.52101116727E+03 -0.87846774908E+03  0.10330479865E+04  0.82317658443E+02 0.  0.
        254    2    1    2    0    0 -0.13135342750E+03 -0.52101116727E+03 -0.58815448135E+03  0.12026382205E+04  0.90094763224E+03 0.  0.
         23    2    4    4    0    0 -0.20992446460E+01 -0.50482179412E+03  0.76737998811E+02  0.51877023540E+03  0.91566293092E+02 0.  0.
         23    2    4    4    0    0 -0.12925418285E+03 -0.16189373151E+02 -0.66489248017E+03  0.68386798506E+03  0.92869108023E+02 0.  0.
          2    1    3    3  502    0  0.88166280415E+02  0.35127147974E+03 -0.66205050320E+03  0.75463621320E+03  0.00000000000E+00 0. -1.
         -1    1    3    3    0  502  0.43187147083E+02  0.16973968753E+03 -0.21641724587E+03  0.27841177329E+03  0.00000000000E+00 0.  1.
         13    1    5    5    0    0  0.24186552454E+02 -0.36445990480E+03  0.87394132033E+02  0.37557122605E+03  0.00000000000E+00 0.  1.
        -13    1    5    5    0    0 -0.26285797100E+02 -0.14036188932E+03 -0.10656133222E+02  0.14319900935E+03  0.00000000000E+00 0. -1.
          1    1    6    6  503    0 -0.41154186183E+02  0.37596868657E+01 -0.63724130028E+02  0.75951083162E+02  0.00000000000E+00 0. -1.
         -1    1    6    6    0  503 -0.88099996669E+02 -0.19949060017E+02 -0.60116835014E+03  0.60791690190E+03  0.00000000000E+00 0.  1.
<mgrwt>
<rscale>  0 0.16873980E+04</rscale>
<asrwt>0</asrwt>
<pdfrwt beam="1">  1        2 0.28479295E+00 0.16873980E+04</pdfrwt>
<pdfrwt beam="2">  1       -1 0.59158768E-01 0.16873980E+04</pdfrwt>
<totfact> 0.25398157E+01</totfact>
</mgrwt>
</event>
<event>
12    7  0.1909736E-007  0.2747970E+04  0.7818608E-02  0.8319606E-01
          2   -1    0    0  501    0  0.00000000000E+00  0.00000000000E+00  0.15670416309E+04  0.15670416309E+04  0.00000000000E+00 0. -1.
         -1   -1    0    0    0  501 -0.00000000000E+00 -0.00000000000E+00 -0.12047121659E+04  0.12047121659E+04  0.00000000000E+00 0.  1.
         24    2    1    2    0    0  0.48934602941E+03  0.11157345894E+04  0.30665716435E+03  0.12587525931E+04  0.78078574876E+02 0.  0.
        254    2    1    2    0    0 -0.48934602941E+03 -0.11157345894E+04  0.55672300639E+02  0.15130012036E+04  0.89540495123E+03 0.  0.
         23    2    4    4    0    0  0.12897491922E+03 -0.55403032981E+03 -0.23734147250E+03  0.62307114765E+03  0.91118298511E+02 0.  0.
         23    2    4    4    0    0 -0.61832094863E+03 -0.56170425956E+03  0.29301377314E+03  0.88993005598E+03  0.91027262735E+02 0.  0.
          4    1    3    3  502    0  0.32019572851E+03  0.75426133115E+03  0.16958019834E+03  0.83677530072E+03  0.00000000000E+00 0. -1.
         -3    1    3    3    0  502  0.16915030090E+03  0.36147325823E+03  0.13707696601E+03  0.42197729242E+03  0.00000000000E+00 0.  1.
         13    1    5    5    0    0  0.22183940146E+02 -0.54632034876E+02  0.21753950060E+01  0.59004396265E+02  0.00000000000E+00 0. -1.
        -13    1    5    5    0    0  0.10679097907E+03 -0.49939829494E+03 -0.23951686751E+03  0.56406675139E+03  0.00000000000E+00 0.  1.
          2    1    6    6  503    0 -0.32790553014E+02 -0.92271907825E+01  0.21787468587E+02  0.40435815859E+02  0.00000000000E+00 0. -1.
         -2    1    6    6    0  503 -0.58553039561E+03 -0.55247706878E+03  0.27122630455E+03  0.84949424012E+03  0.00000000000E+00 0.  1.
<mgrwt>
<rscale>  0 0.27479695E+04</rscale>
<asrwt>0</asrwt>
<pdfrwt beam="1">  1        2 0.24108333E+00 0.27479695E+04</pdfrwt>
<pdfrwt beam="2">  1       -1 0.18534033E+00 0.27479695E+04</pdfrwt>
<totfact> 0.22071152E+00</totfact>
</mgrwt>
</event>
<event>
12    7  0.1909736E-007  0.1168373E+04  0.7818608E-02  0.9140999E-01
          2   -1    0    0  501    0  0.00000000000E+00  0.00000000000E+00  0.73559837642E+03  0.73559837642E+03  0.00000000000E+00 0. -1.
         -1   -1    0    0    0  501 -0.00000000000E+00 -0.00000000000E+00 -0.46394014340E+03  0.46394014340E+03  0.00000000000E+00 0.  1.
         24    2    1    2    0    0 -0.13723263212E+03  0.15465060972E+03 -0.34256014631E+02  0.22454159459E+03  0.80596816058E+02 0.  0.
        254    2    1    2    0    0  0.13723263212E+03 -0.15465060972E+03  0.30591424764E+03  0.97499692523E+03  0.90237789805E+03 0.  0.
         23    2    4    4    0    0  0.10710671947E+03 -0.48807045469E+03 -0.93990884599E+01  0.50640908181E+03  0.81714118613E+02 0.  0.
         23    2    4    4    0    0  0.30125912645E+02  0.33341984497E+03  0.31531333610E+03  0.46858784342E+03  0.89864917749E+02 0.  0.
          2    1    3    3  502    0 -0.55358928407E+01  0.27416250899E+01  0.16132773586E+02  0.17275097720E+02  0.00000000000E+00 0. -1.
         -1    1    3    3    0  502 -0.13169673928E+03  0.15190898463E+03 -0.50388788217E+02  0.20726649687E+03  0.00000000000E+00 0.  1.
         13    1    5    5    0    0  0.87465157428E+02 -0.35117323235E+03  0.28467904731E+02  0.36301957865E+03  0.00000000000E+00 0. -1.
        -13    1    5    5    0    0  0.19641562044E+02 -0.13689722234E+03 -0.37866993191E+02  0.14338950317E+03  0.00000000000E+00 0.  1.
          4    1    6    6  503    0  0.52412576408E+02  0.30837075487E+03  0.27871179290E+03  0.41895090897E+03  0.00000000000E+00 0. -1.
         -4    1    6    6    0  503 -0.22286663763E+02  0.25049090099E+02  0.36601543205E+02  0.49636934449E+02  0.00000000000E+00 0.  1.
<mgrwt>
<rscale>  0 0.11683726E+04</rscale>
<asrwt>0</asrwt>
<pdfrwt beam="1">  1        2 0.11316898E+00 0.11683726E+04</pdfrwt>
<pdfrwt beam="2">  1       -1 0.71375406E-01 0.11683726E+04</pdfrwt>
<totfact> 0.86088294E+01</totfact>
</mgrwt>
</event>
<event>
12    7  0.1909736E-007  0.1505865E+04  0.7818608E-02  0.8880562E-01
          2   -1    0    0  501    0  0.00000000000E+00  0.00000000000E+00  0.11461868900E+04  0.11461868900E+04  0.00000000000E+00 0. -1.
         -1   -1    0    0    0  501 -0.00000000000E+00 -0.00000000000E+00 -0.49460274803E+03  0.49460274803E+03  0.00000000000E+00 0.  1.
         24    2    1    2    0    0  0.21543128742E+03 -0.25013580111E+03 -0.16830821158E+03  0.37911146677E+03  0.80120481468E+02 0.  0.
        254    2    1    2    0    0 -0.21543128742E+03  0.25013580111E+03  0.81989235352E+03  0.12616781712E+04  0.90034980857E+03 0.  0.
         23    2    4    4    0    0 -0.22168726088E+03  0.57105422282E+03  0.59844814074E+03  0.86099416108E+03  0.89008995191E+02 0.  0.
         23    2    4    4    0    0  0.62559734556E+01 -0.32091842172E+03  0.22144421279E+03  0.40068401015E+03  0.92099761197E+02 0.  0.
          2    1    3    3  502    0  0.49898874126E+02 -0.11722887252E+03 -0.61718981551E+02  0.14156884853E+03  0.00000000000E+00 0. -1.
         -1    1    3    3    0  502  0.16553241330E+03 -0.13290692859E+03 -0.10658923003E+03  0.23754261824E+03  0.00000000000E+00 0.  1.
         13    1    5    5    0    0 -0.14804047631E+03  0.38344489483E+03  0.45767530044E+03  0.61515254256E+03  0.00000000000E+00 0.  1.
        -13    1    5    5    0    0 -0.73646784571E+02  0.18760932799E+03  0.14077284030E+03  0.24584161852E+03  0.00000000000E+00 0. -1.
          3    1    6    6  503    0  0.55823364848E+01 -0.28652207303E+03  0.22731426554E+03  0.36578386532E+03  0.00000000000E+00 0. -1.
         -3    1    6    6    0  503  0.67363697084E+00 -0.34396348690E+02 -0.58700527484E+01  0.34900144831E+02  0.00000000000E+00 0.  1.
<mgrwt>
<rscale>  0 0.15058648E+04</rscale>
<asrwt>0</asrwt>
<pdfrwt beam="1">  1        2 0.17633644E+00 0.15058648E+04</pdfrwt>
<pdfrwt beam="2">  1       -1 0.76092731E-01 0.15058648E+04</pdfrwt>
<totfact> 0.38995790E+01</totfact>
</mgrwt>
</event>
<event>
12    7  0.1909736E-007  0.2060131E+04  0.7818608E-02  0.8579012E-01
         -1   -1    0    0    0  501 -0.00000000000E+00  0.00000000000E+00  0.51033168887E+03  0.51033168887E+03  0.00000000000E+00 0.  1.
          2   -1    0    0  501    0  0.00000000000E+00 -0.00000000000E+00 -0.20791079184E+04  0.20791079184E+04  0.00000000000E+00 0. -1.
         24    2    1    2    0    0 -0.76694074273E+02 -0.10027635479E+03 -0.16647886063E+04  0.16714350797E+04  0.78973371617E+02 0.  0.
        254    2    1    2    0    0  0.76694074273E+02  0.10027635479E+03  0.96012376860E+02  0.91800452754E+03  0.90419942917E+03 0.  0.
         23    2    4    4    0    0  0.81134509641E+02 -0.19827348327E+02  0.48377308451E+03  0.50154552967E+03  0.10264301555E+03 0.  0.
         23    2    4    4    0    0 -0.44404353672E+01  0.12010370312E+03 -0.38776070765E+03  0.41645899787E+03  0.92925311634E+02 0.  0.
          4    1    3    3  502    0 -0.43674562835E+02 -0.33000691775E+02 -0.11410055218E+04  0.11423178690E+04  0.00000000000E+00 0. -1.
         -3    1    3    3    0  502 -0.33019511439E+02 -0.67275663014E+02 -0.52378308458E+03  0.52911721070E+03  0.00000000000E+00 0.  1.
         13    1    5    5    0    0  0.63001459679E+02  0.22528622088E+02  0.14547100097E+03  0.16012037615E+03  0.00000000000E+00 0. -1.
        -13    1    5    5    0    0  0.18133049961E+02 -0.42355970416E+02  0.33830208354E+03  0.34142515352E+03  0.00000000000E+00 0.  1.
          3    1    6    6  503    0  0.26352783515E+02  0.11052731572E+03 -0.24448632783E+03  0.26960029899E+03  0.00000000000E+00 0. -1.
         -3    1    6    6    0  503 -0.30793218882E+02  0.95763873970E+01 -0.14327437981E+03  0.14685869888E+03  0.00000000000E+00 0.  1.
<mgrwt>
<rscale>  0 0.20601307E+04</rscale>
<asrwt>0</asrwt>
<pdfrwt beam="1">  1        2 0.31986275E+00 0.20601307E+04</pdfrwt>
<pdfrwt beam="2">  1       -1 0.78512570E-01 0.20601307E+04</pdfrwt>
<totfact> 0.10313057E+01</totfact>
</mgrwt>
</event>
<event>
12    7  0.1909736E-007  0.2435680E+04  0.7818608E-02  0.8426265E-01
          2   -1    0    0  501    0  0.00000000000E+00  0.00000000000E+00  0.17628770091E+04  0.17628770091E+04  0.00000000000E+00 0. -1.
         -1   -1    0    0    0  501 -0.00000000000E+00 -0.00000000000E+00 -0.84131462028E+03  0.84131462028E+03  0.00000000000E+00 0.  1.
         24    2    1    2    0    0 -0.23005927900E+03  0.21147566557E+03 -0.67548550820E+03  0.74803989161E+03  0.75058501554E+02 0.  0.
        254    2    1    2    0    0  0.23005927900E+03 -0.21147566557E+03  0.15970478970E+04  0.18561517378E+04  0.89279788267E+03 0.  0.
         23    2    4    4    0    0  0.32469049069E+03  0.25731633855E+03  0.50580151345E+03  0.66131754952E+03  0.99348464821E+02 0.  0.
         23    2    4    4    0    0 -0.94631211688E+02 -0.46879200412E+03  0.10912463836E+04  0.11948341883E+04  0.89939192959E+02 0.  0.
          2    1    3    3  502    0 -0.61358552796E+02  0.16688316952E+02 -0.14138231319E+03  0.15502364467E+03  0.00000000000E+00 0. -1.
         -1    1    3    3    0  502 -0.16870072621E+03  0.19478734862E+03 -0.53410319501E+03  0.59301624693E+03  0.00000000000E+00 0.  1.
         13    1    5    5    0    0  0.28233647114E+03  0.21676974910E+03  0.47918254513E+03  0.59692455018E+03  0.00000000000E+00 0. -1.
        -13    1    5    5    0    0  0.42354019552E+02  0.40546589451E+02  0.26618968320E+02  0.64392999331E+02  0.00000000000E+00 0.  1.
          1    1    6    6  503    0 -0.10208603358E+03 -0.45212614035E+03  0.10738650502E+04  0.11696263297E+04  0.00000000000E+00 0. -1.
         -1    1    6    6    0  503  0.74548218960E+01 -0.16665863772E+02  0.17381333390E+02  0.25207858599E+02  0.00000000000E+00 0.  1.
<mgrwt>
<rscale>  0 0.24356799E+04</rscale>
<asrwt>0</asrwt>
<pdfrwt beam="1">  1        2 0.27121185E+00 0.24356799E+04</pdfrwt>
<pdfrwt beam="2">  1       -1 0.12943302E+00 0.24356799E+04</pdfrwt>
<totfact> 0.47358721E+00</totfact>
</mgrwt>
</event>
<event>
12    7  0.3361748E-007  0.1900039E+04  0.7818608E-02  0.8654837E-01
         -1   -1    0    0    0  501 -0.00000000000E+00  0.00000000000E+00  0.61084175845E+03  0.61084175845E+03  0.00000000000E+00 0.  1.
          2   -1    0    0  501    0  0.00000000000E+00 -0.00000000000E+00 -0.14775303127E+04  0.14775303127E+04  0.00000000000E+00 0. -1.
         24    2    1    2    0    0 -0.29600802352E+03 -0.22037687790E+03 -0.10268578381E+04  0.10940689324E+04  0.79768983441E+02 0.  0.
        254    2    1    2    0    0  0.29600802352E+03  0.22037687790E+03  0.16016928385E+03  0.99430313883E+03  0.90928423174E+03 0.  0.
         23    2    4    4    0    0  0.58356175118E+03  0.12115807645E+03 -0.62523167994E+02  0.60611468923E+03  0.90786965117E+02 0.  0.
         23    2    4    4    0    0 -0.28755372766E+03  0.99218801450E+02  0.22269245184E+03  0.38818844960E+03  0.92557157727E+02 0.  0.
          2    1    3    3  502    0 -0.23278060590E+03 -0.17086223124E+03 -0.69432280478E+03  0.75197398212E+03  0.00000000000E+00 0. -1.
         -1    1    3    3    0  502 -0.63227417618E+02 -0.49514646662E+02 -0.33253503336E+03  0.34209495024E+03  0.00000000000E+00 0.  1.
         13    1    5    5    0    0  0.46963856031E+03  0.13301775920E+03 -0.57190453491E+02  0.49145177746E+03  0.00000000000E+00 0. -1.
        -13    1    5    5    0    0  0.11392319086E+03 -0.11859682751E+02 -0.53327145025E+01  0.11466291177E+03  0.00000000000E+00 0.  1.
          2    1    6    6  503    0 -0.26777235216E+03  0.73402832583E+02  0.22227405114E+03  0.35566242734E+03  0.00000000000E+00 0. -1.
         -2    1    6    6    0  503 -0.19781375499E+02  0.25815968867E+02  0.41840070583E+00  0.32526022264E+02  0.00000000000E+00 0.  1.
<mgrwt>
<rscale>  0 0.19000392E+04</rscale>
<asrwt>0</asrwt>
<pdfrwt beam="1">  1        2 0.22731235E+00 0.19000392E+04</pdfrwt>
<pdfrwt beam="2">  1       -1 0.93975656E-01 0.19000392E+04</pdfrwt>
<totfact> 0.15304631E+01</totfact>
</mgrwt>
</event>
<event>
12    7  0.1909736E-007  0.1413961E+04  0.7818608E-02  0.8943775E-01
          2   -1    0    0  501    0  0.00000000000E+00  0.00000000000E+00  0.13426142760E+04  0.13426142760E+04  0.00000000000E+00 0. -1.
         -1   -1    0    0    0  501 -0.00000000000E+00 -0.00000000000E+00 -0.37227460743E+03  0.37227460743E+03  0.00000000000E+00 0.  1.
         24    2    1    2    0    0  0.12083263481E+03  0.21972761500E+02 -0.18522871818E+03  0.23616016523E+03  0.79866248941E+02 0.  0.
        254    2    1    2    0    0 -0.12083263481E+03 -0.21972761500E+02  0.11555683868E+04  0.14787287182E+04  0.91444901318E+03 0.  0.
         23    2    4    4    0    0  0.23441131095E+03 -0.31473994333E+03  0.30535916702E+03  0.50760791393E+03  0.10203763410E+03 0.  0.
         23    2    4    4    0    0 -0.35524394576E+03  0.29276718183E+03  0.85020921975E+03  0.97112080429E+03  0.91153800970E+02 0.  0.
          4    1    3    3  502    0  0.41278505234E+02  0.42267092204E+01 -0.96757406298E+01  0.42607511332E+02  0.00000000000E+00 0. -1.
         -3    1    3    3    0  502  0.79554129573E+02  0.17746052279E+02 -0.17555297755E+03  0.19355265390E+03  0.00000000000E+00 0.  1.
         13    1    5    5    0    0  0.18734934030E+02 -0.83237586524E+01 -0.49509308198E+01  0.21090150004E+02  0.00000000000E+00 0.  1.
        -13    1    5    5    0    0  0.21567637692E+03 -0.30641618468E+03  0.31031009784E+03  0.48651776392E+03  0.00000000000E+00 0. -1.
          2    1    6    6  503    0 -0.36224453011E+01  0.23750349115E+02  0.25144518716E+02  0.34777119123E+02  0.00000000000E+00 0.  1.
         -2    1    6    6    0  503 -0.35162150046E+03  0.26901683271E+03  0.82506470103E+03  0.93634368517E+03  0.00000000000E+00 0. -1.
<mgrwt>
<rscale>  0 0.14139607E+04</rscale>
<asrwt>0</asrwt>
<pdfrwt beam="1">  1        2 0.20655604E+00 0.14139607E+04</pdfrwt>
<pdfrwt beam="2">  1       -1 0.57273017E-01 0.14139607E+04</pdfrwt>
<totfact> 0.53420621E+01</totfact>
</mgrwt>
</event>
<event>
12    7  0.1909736E-007  0.1266498E+04  0.7818608E-02  0.9056563E-01
         -1   -1    0    0    0  501 -0.00000000000E+00  0.00000000000E+00  0.18695846242E+03  0.18695846242E+03  0.00000000000E+00 0.  1.
          2   -1    0    0  501    0  0.00000000000E+00 -0.00000000000E+00 -0.21448849803E+04  0.21448849803E+04  0.00000000000E+00 0. -1.
         24    2    1    2    0    0 -0.46786569200E+02 -0.30157512881E+03 -0.44800562767E+03  0.54800171070E+03  0.80375936259E+02 0.  0.
        254    2    1    2    0    0  0.46786569200E+02  0.30157512881E+03 -0.15099208902E+04  0.17838417320E+04  0.89949635287E+03 0.  0.
         23    2    4    4    0    0  0.34612133738E+03  0.19467782720E+03 -0.24414321304E+03  0.47547915951E+03  0.93675429321E+02 0.  0.
         23    2    4    4    0    0 -0.29933476818E+03  0.10689730160E+03 -0.12657776771E+04  0.13083625725E+04  0.92688492314E+02 0.  0.
          4    1    3    3  502    0  0.31137394717E+01 -0.18889586624E+02 -0.74559841492E+02  0.76978450359E+02  0.00000000000E+00 0. -1.
         -3    1    3    3    0  502 -0.49900308672E+02 -0.28268554218E+03 -0.37344578618E+03  0.47102326034E+03  0.00000000000E+00 0.  1.
         13    1    5    5    0    0  0.29720832872E+02 -0.96078444237E+01 -0.15248926525E+02  0.34758716048E+02  0.00000000000E+00 0. -1.
        -13    1    5    5    0    0  0.31640050451E+03  0.20428567163E+03 -0.22889428651E+03  0.44072044346E+03  0.00000000000E+00 0.  1.
          1    1    6    6  503    0  0.37559449416E+01 -0.61676220802E+01 -0.19808640208E+02  0.21083854283E+02  0.00000000000E+00 0. -1.
         -1    1    6    6    0  503 -0.30309071312E+03  0.11306492368E+03 -0.12459690369E+04  0.12872787182E+04  0.00000000000E+00 0.  1.
<mgrwt>
<rscale>  0 0.12664982E+04</rscale>
<asrwt>0</asrwt>
<pdfrwt beam="1">  1        2 0.32998231E+00 0.12664982E+04</pdfrwt>
<pdfrwt beam="2">  1       -1 0.28762840E-01 0.12664982E+04</pdfrwt>
<totfact> 0.68304429E+01</totfact>
</mgrwt>
</event>
<event>
12    7  0.1909736E-007  0.1859944E+04  0.7818608E-02  0.8675056E-01
          2   -1    0    0  501    0  0.00000000000E+00  0.00000000000E+00  0.19815379538E+04  0.19815379538E+04  0.00000000000E+00 0. -1.
         -1   -1    0    0    0  501 -0.00000000000E+00 -0.00000000000E+00 -0.43645287821E+03  0.43645287821E+03  0.00000000000E+00 0.  1.
         24    2    1    2    0    0  0.14649244760E+03  0.24983238258E+03 -0.24712782213E+03  0.38788792162E+03  0.74220096166E+02 0.  0.
        254    2    1    2    0    0 -0.14649244760E+03 -0.24983238258E+03  0.17922128978E+04  0.20301029104E+04  0.90852325201E+03 0.  0.
         23    2    4    4    0    0  0.63702479895E+01  0.12793692357E+03 -0.30566203423E+02  0.16031422989E+03  0.91421677083E+02 0.  0.
         23    2    4    4    0    0 -0.15286269559E+03 -0.37776930615E+03  0.18227791012E+04  0.18697886805E+04  0.86656827750E+02 0.  0.
          2    1    3    3  502    0 -0.65847456894E+01  0.50227159350E+01 -0.16105324758E+02  0.18109887817E+02  0.00000000000E+00 0. -1.
         -1    1    3    3    0  502  0.15307719329E+03  0.24480966665E+03 -0.23102249737E+03  0.36977803380E+03  0.00000000000E+00 0.  1.
         13    1    5    5    0    0  0.25149025354E+02  0.33284679839E+02 -0.46543771822E+02  0.62503328580E+02  0.00000000000E+00 0. -1.
        -13    1    5    5    0    0 -0.18778777364E+02  0.94652243729E+02  0.15977568399E+02  0.97810901305E+02  0.00000000000E+00 0.  1.
          4    1    6    6  503    0 -0.89629812448E+02 -0.20318947784E+03  0.11805572806E+04  0.12012639010E+04  0.00000000000E+00 0. -1.
         -4    1    6    6    0  503 -0.63232883140E+02 -0.17457982831E+03  0.64222182062E+03  0.66852477953E+03  0.00000000000E+00 0.  1.
<mgrwt>
<rscale>  0 0.18599440E+04</rscale>
<asrwt>0</asrwt>
<pdfrwt beam="1">  1        2 0.30485199E+00 0.18599440E+04</pdfrwt>
<pdfrwt beam="2">  1       -1 0.67146598E-01 0.18599440E+04</pdfrwt>
<totfact> 0.16444317E+01</totfact>
</mgrwt>
</event>
<event>
12    7  0.1909736E-007  0.1228285E+04  0.7818608E-02  0.9088453E-01
         -1   -1    0    0    0  501 -0.00000000000E+00  0.00000000000E+00  0.72147960764E+03  0.72147960764E+03  0.00000000000E+00 0.  1.
          2   -1    0    0  501    0  0.00000000000E+00 -0.00000000000E+00 -0.52277422560E+03  0.52277422560E+03  0.00000000000E+00 0. -1.
         24    2    1    2    0    0  0.20015050841E+03  0.18242837387E+03 -0.74232371506E+01  0.28210548186E+03  0.78664228444E+02 0.  0.
        254    2    1    2    0    0 -0.20015050841E+03 -0.18242837387E+03  0.20612861919E+03  0.96214835138E+03  0.89994450096E+03 0.  0.
         23    2    4    4    0    0 -0.21443182984E+03 -0.52632322889E+03  0.19042773431E+03  0.60621933835E+03  0.90785534548E+02 0.  0.
         23    2    4    4    0    0  0.14281321436E+02  0.34389485502E+03  0.15700884875E+02  0.35592901303E+03  0.89282232724E+02 0.  0.
          4    1    3    3  502    0  0.96679568307E+01  0.30652026639E+02  0.18646614597E+02  0.37157938079E+02  0.00000000000E+00 0. -1.
         -3    1    3    3    0  502  0.19048255157E+03  0.15177634723E+03 -0.26069851748E+02  0.24494754378E+03  0.00000000000E+00 0.  1.
         13    1    5    5    0    0 -0.65552548788E+02 -0.73581049226E+02  0.41182850730E+02  0.10680512465E+03  0.00000000000E+00 0. -1.
        -13    1    5    5    0    0 -0.14887928105E+03 -0.45274217966E+03  0.14924488358E+03  0.49941421370E+03  0.00000000000E+00 0.  1.
          1    1    6    6  503    0  0.23716691975E+02  0.32920638166E+02 -0.15095585132E+02  0.43291183698E+02  0.00000000000E+00 0. -1.
         -1    1    6    6    0  503 -0.94353705395E+01  0.31097421685E+03  0.30796470007E+02  0.31263782933E+03  0.00000000000E+00 0.  1.
<mgrwt>
<rscale>  0 0.12282849E+04</rscale>
<asrwt>0</asrwt>
<pdfrwt beam="1">  1        2 0.80426803E-01 0.12282849E+04</pdfrwt>
<pdfrwt beam="2">  1       -1 0.11099686E+00 0.12282849E+04</pdfrwt>
<totfact> 0.49199068E+01</totfact>
</mgrwt>
</event>
<event>
12    7  0.1909736E-007  0.2477014E+04  0.7818608E-02  0.8411220E-01
         -1   -1    0    0    0  501 -0.00000000000E+00  0.00000000000E+00  0.75876975815E+03  0.75876975815E+03  0.00000000000E+00 0.  1.
          2   -1    0    0  501    0  0.00000000000E+00 -0.00000000000E+00 -0.20215617938E+04  0.20215617938E+04  0.00000000000E+00 0. -1.
         24    2    1    2    0    0  0.10311579122E+04  0.75652883022E+02 -0.87980289326E+03  0.13599390933E+04  0.79819846784E+02 0.  0.
        254    2    1    2    0    0 -0.10311579122E+04 -0.75652883022E+02 -0.38298914244E+03  0.14203924587E+04  0.89544628819E+03 0.  0.
         23    2    4    4    0    0  0.85776350841E+02 -0.16411581930E+03 -0.18545459919E+03  0.27905474329E+03  0.95846527763E+02 0.  0.
         23    2    4    4    0    0 -0.11169342630E+04  0.88462936279E+02 -0.19753454324E+03  0.11413377154E+04  0.90906797976E+02 0.  0.
          4    1    3    3  502    0  0.37849191474E+03  0.11135459754E+02 -0.27710148392E+03  0.46921781763E+03  0.00000000000E+00 0. -1.
         -3    1    3    3    0  502  0.65266599741E+03  0.64517423268E+02 -0.60270140933E+03  0.89072127565E+03  0.00000000000E+00 0.  1.
         13    1    5    5    0    0  0.46581856237E+02 -0.15998065829E+03 -0.16561914463E+03  0.23493271680E+03  0.00000000000E+00 0.  1.
        -13    1    5    5    0    0  0.39194494604E+02 -0.41351610142E+01 -0.19835454562E+02  0.44122026489E+02  0.00000000000E+00 0. -1.
          3    1    6    6  503    0 -0.94501964627E+02  0.13494198063E+02  0.78744434595E+01  0.95784766845E+02  0.00000000000E+00 0. -1.
         -3    1    6    6    0  503 -0.10224322984E+04  0.74968738216E+02 -0.20540898670E+03  0.10455529486E+04  0.00000000000E+00 0.  1.
<mgrwt>
<rscale>  0 0.24770143E+04</rscale>
<asrwt>0</asrwt>
<pdfrwt beam="1">  1        2 0.31100951E+00 0.24770143E+04</pdfrwt>
<pdfrwt beam="2">  1       -1 0.11673381E+00 0.24770143E+04</pdfrwt>
<totfact> 0.43748806E+00</totfact>
</mgrwt>
</event>
<event>
12    7  0.1909736E-007  0.1550445E+04  0.7818608E-02  0.8851583E-01
          2   -1    0    0  501    0  0.00000000000E+00  0.00000000000E+00  0.65183101720E+03  0.65183101720E+03  0.00000000000E+00 0. -1.
         -1   -1    0    0    0  501 -0.00000000000E+00 -0.00000000000E+00 -0.92197219583E+03  0.92197219583E+03  0.00000000000E+00 0.  1.
         24    2    1    2    0    0 -0.12546702011E+03 -0.11532864474E+03  0.39834573225E+03  0.44078132762E+03  0.81032011861E+02 0.  0.
        254    2    1    2    0    0  0.12546702011E+03  0.11532864474E+03 -0.66848691087E+03  0.11330218854E+04  0.89878872565E+03 0.  0.
         23    2    4    4    0    0 -0.84358298918E+02  0.25156649002E+03  0.11544648218E+03  0.30444900728E+03  0.94653506466E+02 0.  0.
         23    2    4    4    0    0  0.20982531903E+03 -0.13623784528E+03 -0.78393339306E+03  0.82857287812E+03  0.96922828134E+02 0.  0.
          4    1    3    3  502    0 -0.11575977875E+03 -0.10548863075E+03  0.39714114186E+03  0.42690662228E+03  0.00000000000E+00 0. -1.
         -3    1    3    3    0  502 -0.97072413624E+01 -0.98400139852E+01  0.12045903872E+01  0.13874705334E+02  0.00000000000E+00 0.  1.
         13    1    5    5    0    0 -0.23766274316E+02  0.40996702953E+01 -0.13954764857E+01  0.24157616729E+02  0.00000000000E+00 0. -1.
        -13    1    5    5    0    0 -0.60592024602E+02  0.24746681973E+03  0.11684195867E+03  0.28029139055E+03  0.00000000000E+00 0.  1.
          4    1    6    6  503    0  0.15632525477E+03 -0.53754076462E+02 -0.56265876887E+03  0.58644008748E+03  0.00000000000E+00 0. -1.
         -4    1    6    6    0  503  0.53500064253E+02 -0.82483768823E+02 -0.22127462419E+03  0.24213279064E+03  0.00000000000E+00 0.  1.
<mgrwt>
<rscale>  0 0.15504452E+04</rscale>
<asrwt>0</asrwt>
<pdfrwt beam="1">  1        2 0.10028170E+00 0.15504452E+04</pdfrwt>
<pdfrwt beam="2">  1       -1 0.14184188E+00 0.15504452E+04</pdfrwt>
<totfact> 0.19956451E+01</totfact>
</mgrwt>
</event>
<event>
12    7  0.1909736E-007  0.3809932E+04  0.7818608E-02  0.8044027E-01
          2   -1    0    0  501    0  0.00000000000E+00  0.00000000000E+00  0.31557109805E+04  0.31557109805E+04  0.00000000000E+00 0. -1.
         -1   -1    0    0    0  501 -0.00000000000E+00 -0.00000000000E+00 -0.11499452664E+04  0.11499452664E+04  0.00000000000E+00 0.  1.
         24    2    1    2    0    0  0.60595287209E+03 -0.13850648618E+04 -0.15061790919E+03  0.15213971221E+04  0.79874238990E+02 0.  0.
        254    2    1    2    0    0 -0.60595287209E+03  0.13850648618E+04  0.21563836233E+04  0.27842591248E+04  0.90361772279E+03 0.  0.
         23    2    4    4    0    0  0.93323700363E+02  0.86542768030E+03  0.12231050122E+04  0.15039071677E+04  0.89869434749E+02 0.  0.
         23    2    4    4    0    0 -0.69927657245E+03  0.51963718147E+03  0.93327861108E+03  0.12803519571E+04  0.96341284458E+02 0.  0.
          4    1    3    3  502    0  0.14154039388E+03 -0.31958534654E+03 -0.68757461464E+02  0.35622473992E+03  0.00000000000E+00 0. -1.
         -3    1    3    3    0  502  0.46441247821E+03 -0.10654795152E+04 -0.81860447722E+02  0.11651723822E+04  0.00000000000E+00 0.  1.
         13    1    5    5    0    0  0.14936100759E+01  0.18625393572E+02  0.88023626366E+01  0.20654726935E+02  0.00000000000E+00 0.  1.
        -13    1    5    5    0    0  0.91830090287E+02  0.84680228673E+03  0.12143026495E+04  0.14832524407E+04  0.00000000000E+00 0. -1.
          1    1    6    6  503    0 -0.44675828060E+03  0.35030780287E+03  0.66982619937E+03  0.87805219401E+03  0.00000000000E+00 0. -1.
         -1    1    6    6    0  503 -0.25251829185E+03  0.16932937860E+03  0.26345241171E+03  0.40229976313E+03  0.00000000000E+00 0.  1.
<mgrwt>
<rscale>  0 0.38099317E+04</rscale>
<asrwt>0</asrwt>
<pdfrwt beam="1">  1        2 0.48549399E+00 0.38099317E+04</pdfrwt>
<pdfrwt beam="2">  1       -1 0.17691466E+00 0.38099317E+04</pdfrwt>
<totfact> 0.27583821E-01</totfact>
</mgrwt>
</event>
<event>
12    7  0.1909736E-007  0.1362943E+04  0.7818608E-02  0.8981088E-01
          2   -1    0    0  501    0  0.00000000000E+00  0.00000000000E+00  0.53825907540E+03  0.53825907540E+03  0.00000000000E+00 0. -1.
         -1   -1    0    0    0  501 -0.00000000000E+00 -0.00000000000E+00 -0.86278744851E+03  0.86278744851E+03  0.00000000000E+00 0.  1.
         24    2    1    2    0    0 -0.22862287797E+03 -0.29516387826E+03 -0.26976636936E+02  0.38253328748E+03  0.78827924787E+02 0.  0.
        254    2    1    2    0    0  0.22862287797E+03  0.29516387826E+03 -0.29755173617E+03  0.10185132364E+04  0.89968996979E+03 0.  0.
         23    2    4    4    0    0  0.51573401042E+03 -0.83445462444E+01 -0.26878238595E+03  0.58910545689E+03  0.93541794881E+02 0.  0.
         23    2    4    4    0    0 -0.28711113245E+03  0.30350842450E+03 -0.28769350220E+02  0.42940777954E+03  0.94937871779E+02 0.  0.
          4    1    3    3  502    0 -0.20783007885E+03 -0.21613623118E+03 -0.22664896177E+02  0.30070236053E+03  0.00000000000E+00 0. -1.
         -3    1    3    3    0  502 -0.20792799119E+02 -0.79027647076E+02 -0.43117407597E+01  0.81830926952E+02  0.00000000000E+00 0.  1.
         13    1    5    5    0    0  0.20510218599E+03 -0.23239538047E+02 -0.15430844763E+03  0.25771705383E+03  0.00000000000E+00 0.  1.
        -13    1    5    5    0    0  0.31063182443E+03  0.14894991802E+02 -0.11447393832E+03  0.33138840306E+03  0.00000000000E+00 0. -1.
          1    1    6    6  503    0 -0.26159019278E+03  0.22443928248E+03 -0.32729092418E+02  0.34622769093E+03  0.00000000000E+00 0. -1.
         -1    1    6    6    0  503 -0.25520939663E+02  0.79069142027E+02  0.39597421984E+01  0.83180088606E+02  0.00000000000E+00 0.  1.
<mgrwt>
<rscale>  0 0.13629427E+04</rscale>
<asrwt>0</asrwt>
<pdfrwt beam="1">  1        2 0.82809088E-01 0.13629427E+04</pdfrwt>
<pdfrwt beam="2">  1       -1 0.13273653E+00 0.13629427E+04</pdfrwt>
<totfact> 0.30314647E+01</totfact>
</mgrwt>
</event>
<event>
12    7  0.1909736E-007  0.1139772E+04  0.7818608E-02  0.9167272E-01
          2   -1    0    0  501    0  0.00000000000E+00  0.00000000000E+00  0.77965224921E+03  0.77965224921E+03  0.00000000000E+00 0. -1.
         -1   -1    0    0    0  501 -0.00000000000E+00 -0.00000000000E+00 -0.41655733239E+03  0.41655733239E+03  0.00000000000E+00 0.  1.
         24    2    1    2    0    0 -0.19281596280E+03 -0.22816657441E+02 -0.32102322469E+02  0.21237833299E+03  0.79846113528E+02 0.  0.
        254    2    1    2    0    0  0.19281596280E+03  0.22816657441E+02  0.39519723930E+03  0.98383124861E+03  0.87979797251E+03 0.  0.
         23    2    4    4    0    0 -0.25796461790E+03 -0.24565432087E+03  0.16354748675E+03  0.40313179789E+03  0.94210809348E+02 0.  0.
         23    2    4    4    0    0  0.45078058071E+03  0.26847097831E+03  0.23164975255E+03  0.58069945072E+03  0.90941992930E+02 0.  0.
          4    1    3    3  502    0 -0.89995033734E+02  0.66708910888E+01  0.21449684057E+02  0.92756109399E+02  0.00000000000E+00 0. -1.
         -3    1    3    3    0  502 -0.10282092907E+03 -0.29487548530E+02 -0.53552006526E+02  0.11962222359E+03  0.00000000000E+00 0.  1.
         13    1    5    5    0    0 -0.83294557596E+02 -0.33543028758E+02  0.66443211528E+02  0.11170415597E+03  0.00000000000E+00 0. -1.
        -13    1    5    5    0    0 -0.17467006031E+03 -0.21211129211E+03  0.97104275220E+02  0.29142764192E+03  0.00000000000E+00 0.  1.
          3    1    6    6  503    0  0.45324072195E+03  0.27056132135E+03  0.22601772150E+03  0.57420779434E+03  0.00000000000E+00 0.  1.
         -3    1    6    6    0  503 -0.24601412379E+01 -0.20903430452E+01  0.56320310468E+01  0.64916563887E+01  0.00000000000E+00 0. -1.
<mgrwt>
<rscale>  0 0.11397717E+04</rscale>
<asrwt>0</asrwt>
<pdfrwt beam="1">  1        2 0.11994650E+00 0.11397717E+04</pdfrwt>
<pdfrwt beam="2">  1       -1 0.64085744E-01 0.11397717E+04</pdfrwt>
<totfact> 0.99545153E+01</totfact>
</mgrwt>
</event>
<event>
12    7  0.1909736E-007  0.1331928E+04  0.7818608E-02  0.9004622E-01
         -1   -1    0    0    0  501 -0.00000000000E+00  0.00000000000E+00  0.27408256464E+03  0.27408256464E+03  0.00000000000E+00 0.  1.
          2   -1    0    0  501    0  0.00000000000E+00 -0.00000000000E+00 -0.16181549867E+04  0.16181549867E+04  0.00000000000E+00 0. -1.
         24    2    1    2    0    0  0.22929761621E+03  0.96386563325E+02 -0.72654724273E+03  0.77244998523E+03  0.83308567177E+02 0.  0.
        254    2    1    2    0    0 -0.22929761621E+03 -0.96386563325E+02 -0.61752517936E+03  0.11197875661E+04  0.90039940012E+03 0.  0.
         23    2    4    4    0    0 -0.37191404242E+03  0.28818672622E+03 -0.47908717689E+03  0.67762725284E+03  0.91008387615E+02 0.  0.
         23    2    4    4    0    0  0.14261642621E+03 -0.38457328955E+03 -0.13843800247E+03  0.44216031329E+03  0.90025563412E+02 0.  0.
          4    1    3    3  502    0  0.20611591006E+03  0.62447185186E+02 -0.65983232442E+03  0.69409085549E+03  0.00000000000E+00 0. -1.
         -3    1    3    3    0  502  0.23181706147E+02  0.33939378139E+02 -0.66714918313E+02  0.78359129742E+02  0.00000000000E+00 0.  1.
         13    1    5    5    0    0 -0.51839577335E+02  0.75130690691E+02 -0.12609147953E+03  0.15566317378E+03  0.00000000000E+00 0.  1.
        -13    1    5    5    0    0 -0.32007446508E+03  0.21305603553E+03 -0.35299569736E+03  0.52196407906E+03  0.00000000000E+00 0. -1.
          1    1    6    6  503    0  0.14602525763E+03 -0.35712912210E+03 -0.14749346796E+03  0.41306041787E+03  0.00000000000E+00 0. -1.
         -1    1    6    6    0  503 -0.34088314229E+01 -0.27444167442E+02  0.90554654932E+01  0.29099895422E+02  0.00000000000E+00 0.  1.
<mgrwt>
<rscale>  0 0.13319280E+04</rscale>
<asrwt>0</asrwt>
<pdfrwt beam="1">  1        2 0.24894692E+00 0.13319280E+04</pdfrwt>
<pdfrwt beam="2">  1       -1 0.42166549E-01 0.13319280E+04</pdfrwt>
<totfact> 0.67082720E+01</totfact>
</mgrwt>
</event>
<event>
12    7  0.1909736E-007  0.1242424E+04  0.7818608E-02  0.9076513E-01
          2   -1    0    0  501    0  0.00000000000E+00  0.00000000000E+00  0.14195424855E+04  0.14195424855E+04  0.00000000000E+00 0. -1.
         -1   -1    0    0    0  501 -0.00000000000E+00 -0.00000000000E+00 -0.27185100188E+03  0.27185100188E+03  0.00000000000E+00 0.  1.
         24    2    1    2    0    0 -0.16264948795E+03  0.29433108218E+02  0.58835485247E+03  0.61654929482E+03  0.81550209848E+02 0.  0.
        254    2    1    2    0    0  0.16264948795E+03 -0.29433108218E+02  0.55933663118E+03  0.10748441926E+04  0.90283520512E+03 0.  0.
         23    2    4    4    0    0  0.51034595427E+03 -0.13260064479E+03  0.39869114760E+03  0.66752888834E+03  0.92759158854E+02 0.  0.
         23    2    4    4    0    0 -0.34769646632E+03  0.10316753657E+03  0.16064548358E+03  0.40731530426E+03  0.92533304265E+02 0.  0.
          4    1    3    3  502    0 -0.12857546572E+03  0.42415278777E+02  0.53540875914E+03  0.55226193570E+03  0.00000000000E+00 0. -1.
         -3    1    3    3    0  502 -0.34074022237E+02 -0.12982170559E+02  0.52946093333E+02  0.64287359124E+02  0.00000000000E+00 0.  1.
         13    1    5    5    0    0  0.38561259623E+03 -0.70063883028E+02  0.25703441859E+03  0.46869255853E+03  0.00000000000E+00 0.  1.
        -13    1    5    5    0    0  0.12473335804E+03 -0.62536761761E+02  0.14165672901E+03  0.19883632981E+03  0.00000000000E+00 0. -1.
          3    1    6    6  503    0 -0.24733628102E+03  0.79178546746E+02  0.67557356951E+02  0.26834394842E+03  0.00000000000E+00 0. -1.
         -3    1    6    6    0  503 -0.10036018530E+03  0.23988989826E+02  0.93088126628E+02  0.13897135584E+03  0.00000000000E+00 0.  1.
<mgrwt>
<rscale>  0 0.12424235E+04</rscale>
<asrwt>0</asrwt>
<pdfrwt beam="1">  1        2 0.21839115E+00 0.12424235E+04</pdfrwt>
<pdfrwt beam="2">  1       -1 0.41823232E-01 0.12424235E+04</pdfrwt>
<totfact> 0.88697510E+01</totfact>
</mgrwt>
</event>
<event>
12    7  0.1909736E-007  0.1343386E+04  0.7818608E-02  0.8995850E-01
         -1   -1    0    0    0  501 -0.00000000000E+00  0.00000000000E+00  0.26659989564E+03  0.26659989564E+03  0.00000000000E+00 0.  1.
          2   -1    0    0  501    0  0.00000000000E+00 -0.00000000000E+00 -0.16923169255E+04  0.16923169255E+04  0.00000000000E+00 0. -1.
         24    2    1    2    0    0 -0.91060443555E+02  0.33034733488E+03 -0.19603833294E+03  0.40247945283E+03  0.78341023248E+02 0.  0.
        254    2    1    2    0    0  0.91060443555E+02 -0.33034733488E+03 -0.12296786969E+04  0.15564373683E+04  0.89048650621E+03 0.  0.
         23    2    4    4    0    0 -0.24675992783E+03 -0.79493231794E+02 -0.23474130414E+02  0.27574070578E+03  0.90951999115E+02 0.  0.
         23    2    4    4    0    0  0.33782037138E+03 -0.25085410309E+03 -0.12062045665E+04  0.12806966625E+04  0.90576491358E+02 0.  0.
          4    1    3    3  502    0 -0.31229387333E+02  0.10727391805E+03 -0.10775749524E+03  0.15522450163E+03  0.00000000000E+00 0. -1.
         -3    1    3    3    0  502 -0.59831056222E+02  0.22307341683E+03 -0.88280837698E+02  0.24725495119E+03  0.00000000000E+00 0.  1.
         13    1    5    5    0    0 -0.73576448254E+02 -0.69515882467E+02 -0.11105248425E+02  0.10182965283E+03  0.00000000000E+00 0. -1.
        -13    1    5    5    0    0 -0.17318347957E+03 -0.99773493269E+01 -0.12368881989E+02  0.17391105295E+03  0.00000000000E+00 0.  1.
          2    1    6    6  503    0  0.18618833055E+03 -0.11917337459E+03 -0.75754307692E+03  0.78913870836E+03  0.00000000000E+00 0.  1.
         -2    1    6    6    0  503  0.15163204083E+03 -0.13168072850E+03 -0.44866148957E+03  0.49155795415E+03  0.00000000000E+00 0. -1.
<mgrwt>
<rscale>  0 0.13433860E+04</rscale>
<asrwt>0</asrwt>
<pdfrwt beam="1">  1        2 0.26035645E+00 0.13433860E+04</pdfrwt>
<pdfrwt beam="2">  1       -1 0.41015369E-01 0.13433860E+04</pdfrwt>
<totfact> 0.64133152E+01</totfact>
</mgrwt>
</event>
<event>
12    7  0.1909736E-007  0.1222801E+04  0.7818608E-02  0.9093130E-01
         -1   -1    0    0    0  501 -0.00000000000E+00  0.00000000000E+00  0.75362352713E+03  0.75362352713E+03  0.00000000000E+00 0.  1.
          2   -1    0    0  501    0  0.00000000000E+00 -0.00000000000E+00 -0.49601759695E+03  0.49601759695E+03  0.00000000000E+00 0. -1.
         24    2    1    2    0    0  0.16777249206E+03 -0.15291690240E+02 -0.16364027598E+03  0.24312389331E+03  0.62846182826E+02 0.  0.
        254    2    1    2    0    0 -0.16777249206E+03  0.15291690240E+02  0.42124620616E+03  0.10065172308E+04  0.89846932321E+03 0.  0.
         23    2    4    4    0    0 -0.40741315306E+03 -0.21582154891E+03  0.46256294714E+03  0.66041735489E+03  0.98092733193E+02 0.  0.
         23    2    4    4    0    0  0.23964066101E+03  0.23111323915E+03 -0.41316740980E+02  0.34609987588E+03  0.85071001414E+02 0.  0.
          2    1    3    3  502    0  0.12316947591E+03 -0.89210601091E+01 -0.15337853809E+03  0.19691440032E+03  0.00000000000E+00 0. -1.
         -1    1    3    3    0  502  0.44603016148E+02 -0.63706301305E+01 -0.10261737892E+02  0.46209492990E+02  0.00000000000E+00 0.  1.
         13    1    5    5    0    0 -0.12569724753E+03 -0.70303715567E+02  0.21196969084E+03  0.25626853161E+03  0.00000000000E+00 0.  1.
        -13    1    5    5    0    0 -0.28171590553E+03 -0.14551783334E+03  0.25059325630E+03  0.40414882328E+03  0.00000000000E+00 0. -1.
          1    1    6    6  503    0  0.62916625098E+02  0.11129575697E+03  0.36626109351E+01  0.12790098495E+03  0.00000000000E+00 0. -1.
         -1    1    6    6    0  503  0.17672403591E+03  0.11981748218E+03 -0.44979351915E+02  0.21819889093E+03  0.00000000000E+00 0.  1.
<mgrwt>
<rscale>  0 0.12228009E+04</rscale>
<asrwt>0</asrwt>
<pdfrwt beam="1">  1        2 0.76310400E-01 0.12228009E+04</pdfrwt>
<pdfrwt beam="2">  1       -1 0.11594208E+00 0.12228009E+04</pdfrwt>
<totfact> 0.47159154E+01</totfact>
</mgrwt>
</event>
<event>
12    7  0.1909736E-007  0.1619333E+04  0.7818608E-02  0.8808758E-01
         -1   -1    0    0    0  501 -0.00000000000E+00  0.00000000000E+00  0.36554070304E+03  0.36554070304E+03  0.00000000000E+00 0.  1.
          2   -1    0    0  501    0  0.00000000000E+00 -0.00000000000E+00 -0.17933972182E+04  0.17933972182E+04  0.00000000000E+00 0. -1.
         24    2    1    2    0    0 -0.46527356562E+03  0.20718986333E+02 -0.90968695236E+03  0.10246151011E+04  0.73464187023E+02 0.  0.
        254    2    1    2    0    0  0.46527356562E+03 -0.20718986333E+02 -0.51816956280E+03  0.11343228202E+04  0.89514233355E+03 0.  0.
         23    2    4    4    0    0  0.31414713659E+03  0.34995655343E+03 -0.54108858733E+03  0.72276463281E+03  0.91944778995E+02 0.  0.
         23    2    4    4    0    0  0.15112642904E+03 -0.37067553977E+03  0.22919024530E+02  0.41155818737E+03  0.92818675775E+02 0.  0.
          2    1    3    3  502    0 -0.17479917465E+03 -0.24093721037E+01 -0.26953605990E+03  0.32126351196E+03  0.00000000000E+00 0. -1.
         -1    1    3    3    0  502 -0.29047439097E+03  0.23128358436E+02 -0.64015089246E+03  0.70335158910E+03  0.00000000000E+00 0.  1.
         13    1    5    5    0    0  0.45649154201E+02  0.10912443294E+03 -0.12454429551E+03  0.17176515563E+03  0.00000000000E+00 0. -1.
        -13    1    5    5    0    0  0.26849798238E+03  0.24083212049E+03 -0.41654429182E+03  0.55099947718E+03  0.00000000000E+00 0.  1.
          4    1    6    6  503    0  0.90365017854E+02 -0.12921636735E+03 -0.19853604139E+02  0.15892410654E+03  0.00000000000E+00 0. -1.
         -4    1    6    6    0  503  0.60761411181E+02 -0.24145917242E+03  0.42772628669E+02  0.25263408083E+03  0.00000000000E+00 0.  1.
<mgrwt>
<rscale>  0 0.16193328E+04</rscale>
<asrwt>0</asrwt>
<pdfrwt beam="1">  1        2 0.27590726E+00 0.16193328E+04</pdfrwt>
<pdfrwt beam="2">  1       -1 0.56237033E-01 0.16193328E+04</pdfrwt>
<totfact> 0.30366758E+01</totfact>
</mgrwt>
</event>
<event>
12    7  0.1909736E-007  0.1316409E+04  0.7818608E-02  0.9016653E-01
         -1   -1    0    0    0  501 -0.00000000000E+00  0.00000000000E+00  0.68171489804E+03  0.68171489804E+03  0.00000000000E+00 0.  1.
          2   -1    0    0  501    0  0.00000000000E+00 -0.00000000000E+00 -0.63550529717E+03  0.63550529717E+03  0.00000000000E+00 0. -1.
         24    2    1    2    0    0  0.21642086739E+01 -0.55294110679E+02 -0.32471411378E+03  0.33911707892E+03  0.80616468888E+02 0.  0.
        254    2    1    2    0    0 -0.21642086739E+01  0.55294110679E+02  0.37092371465E+03  0.97810311628E+03  0.90334887032E+03 0.  0.
         23    2    4    4    0    0  0.33371202077E+03 -0.19387489654E+03 -0.20798529551E+02  0.39728757352E+03  0.91943726954E+02 0.  0.
         23    2    4    4    0    0 -0.33587622944E+03  0.24916900722E+03  0.39172224420E+03  0.58081554276E+03  0.94880674799E+02 0.  0.
          2    1    3    3  502    0  0.89124287206E+01 -0.56092335623E+02 -0.32703971999E+03  0.33193487306E+03  0.00000000000E+00 0. -1.
         -1    1    3    3    0  502 -0.67482200467E+01  0.79822494398E+00  0.23256062105E+01  0.71822058663E+01  0.00000000000E+00 0.  1.
         13    1    5    5    0    0  0.17308513775E+03 -0.92097895636E+02 -0.55993461367E+02  0.20390133645E+03  0.00000000000E+00 0.  1.
        -13    1    5    5    0    0  0.16062688302E+03 -0.10177700090E+03  0.35194931816E+02  0.19338623706E+03  0.00000000000E+00 0. -1.
          1    1    6    6  503    0 -0.16566460366E+01  0.22242147487E+02  0.81497364224E+01  0.23746069247E+02  0.00000000000E+00 0. -1.
         -1    1    6    6    0  503 -0.33421958341E+03  0.22692685973E+03  0.38357250778E+03  0.55706947351E+03  0.00000000000E+00 0.  1.
<mgrwt>
<rscale>  0 0.13164094E+04</rscale>
<asrwt>0</asrwt>
<pdfrwt beam="1">  1        2 0.97770046E-01 0.13164094E+04</pdfrwt>
<pdfrwt beam="2">  1       -1 0.10487922E+00 0.13164094E+04</pdfrwt>
<totfact> 0.44172075E+01</totfact>
</mgrwt>
</event>
<event>
12    7  0.1909736E-007  0.1899315E+04  0.7818608E-02  0.8655198E-01
          2   -1    0    0  501    0  0.00000000000E+00  0.00000000000E+00  0.72797159926E+03  0.72797159926E+03  0.00000000000E+00 0. -1.
         -1   -1    0    0    0  501 -0.00000000000E+00 -0.00000000000E+00 -0.12388521108E+04  0.12388521108E+04  0.00000000000E+00 0.  1.
         24    2    1    2    0    0  0.15456424456E+03 -0.63250612987E+03  0.14227900504E+03  0.67360973361E+03  0.97737648441E+02 0.  0.
        254    2    1    2    0    0 -0.15456424456E+03  0.63250612987E+03 -0.65315951656E+03  0.12932139764E+04  0.90654890921E+03 0.  0.
         23    2    4    4    0    0 -0.51779048275E+03  0.47809166688E+03 -0.39843146490E+03  0.81476623920E+03  0.91748386142E+02 0.  0.
         23    2    4    4    0    0  0.36322623819E+03  0.15441446299E+03 -0.25472805166E+03  0.47844773724E+03  0.90822521893E+02 0.  0.
          2    1    3    3  502    0  0.84259624777E+02 -0.39893415073E+03  0.13526084308E+03  0.42958542417E+03  0.00000000000E+00 0. -1.
         -1    1    3    3    0  502  0.70304619782E+02 -0.23357197913E+03  0.70181619532E+01  0.24402430944E+03  0.00000000000E+00 0.  1.
         13    1    5    5    0    0 -0.20499665026E+03  0.13100999962E+03 -0.12763344595E+03  0.27473176581E+03  0.00000000000E+00 0.  1.
        -13    1    5    5    0    0 -0.31279383249E+03  0.34708166726E+03 -0.27079801895E+03  0.54003447339E+03  0.00000000000E+00 0. -1.
          3    1    6    6  503    0  0.33946145517E+03  0.16604938110E+03 -0.24440772740E+03  0.45004623509E+03  0.00000000000E+00 0. -1.
         -3    1    6    6    0  503  0.23764783018E+02 -0.11634918115E+02 -0.10320324260E+02  0.28401502148E+02  0.00000000000E+00 0.  1.
<mgrwt>
<rscale>  0 0.18993148E+04</rscale>
<asrwt>0</asrwt>
<pdfrwt beam="1">  1        2 0.11199563E+00 0.18993148E+04</pdfrwt>
<pdfrwt beam="2">  1       -1 0.19059263E+00 0.18993148E+04</pdfrwt>
<totfact> 0.72924149E+00</totfact>
</mgrwt>
</event>
<event>
12    7  0.1909736E-007  0.2108492E+04  0.7818608E-02  0.8557512E-01
          2   -1    0    0  501    0  0.00000000000E+00  0.00000000000E+00  0.51153257553E+03  0.51153257553E+03  0.00000000000E+00 0. -1.
         -1   -1    0    0    0  501 -0.00000000000E+00 -0.00000000000E+00 -0.21727545490E+04  0.21727545490E+04  0.00000000000E+00 0.  1.
         24    2    1    2    0    0  0.57085101623E+03  0.15816104160E+03  0.11367578060E+03  0.60836067935E+03  0.79339367762E+02 0.  0.
        254    2    1    2    0    0 -0.57085101623E+03 -0.15816104160E+03 -0.17748977541E+04  0.20759264452E+04  0.89906772305E+03 0.  0.
         23    2    4    4    0    0 -0.97958648350E+02 -0.28455690297E+03 -0.10215128230E+03  0.33038949825E+03  0.90298440008E+02 0.  0.
         23    2    4    4    0    0 -0.47289236788E+03  0.12639586137E+03 -0.16727464718E+04  0.17455369470E+04  0.95996713107E+02 0.  0.
          4    1    3    3  502    0  0.48903064553E+03  0.15611867393E+03  0.78653441072E+02  0.51933647706E+03  0.00000000000E+00 0. -1.
         -3    1    3    3    0  502  0.81820370699E+02  0.20423676694E+01  0.35022339525E+02  0.89024202287E+02  0.00000000000E+00 0.  1.
         13    1    5    5    0    0 -0.95294430406E+02 -0.29030828440E+03 -0.93248484496E+02  0.31946080874E+03  0.00000000000E+00 0.  1.
        -13    1    5    5    0    0 -0.26642179441E+01  0.57513814382E+01 -0.89027978056E+01  0.10928689513E+02  0.00000000000E+00 0. -1.
          4    1    6    6  503    0 -0.18541569629E+02  0.26039200887E+02 -0.14608722435E+03  0.14954366220E+03  0.00000000000E+00 0. -1.
         -4    1    6    6    0  503 -0.45435079825E+03  0.10035666048E+03 -0.15266592474E+04  0.15959932848E+04  0.00000000000E+00 0.  1.
<mgrwt>
<rscale>  0 0.21084921E+04</rscale>
<asrwt>0</asrwt>
<pdfrwt beam="1">  1        2 0.78697320E-01 0.21084921E+04</pdfrwt>
<pdfrwt beam="2">  1       -1 0.33426993E+00 0.21084921E+04</pdfrwt>
<totfact> 0.12458845E+00</totfact>
</mgrwt>
</event>
<event>
12    7  0.1909736E-007  0.2427196E+04  0.7818608E-02  0.8429391E-01
          2   -1    0    0  501    0  0.00000000000E+00  0.00000000000E+00  0.10527617480E+04  0.10527617480E+04  0.00000000000E+00 0. -1.
         -1   -1    0    0    0  501 -0.00000000000E+00 -0.00000000000E+00 -0.13990066004E+04  0.13990066004E+04  0.00000000000E+00 0.  1.
         24    2    1    2    0    0  0.98217703237E+03 -0.34979934550E+03 -0.64994441752E+02  0.10476702998E+04  0.79733773549E+02 0.  0.
        254    2    1    2    0    0 -0.98217703237E+03  0.34979934550E+03 -0.28125041066E+03  0.14040980486E+04  0.89741753467E+03 0.  0.
         23    2    4    4    0    0 -0.22102842209E+03 -0.12079100930E+03  0.24405267335E+03  0.36247478591E+03  0.91554528836E+02 0.  0.
         23    2    4    4    0    0 -0.76114861028E+03  0.47059035480E+03 -0.52530308401E+03  0.10416232627E+04  0.90736995306E+02 0.  0.
          2    1    3    3  502    0  0.22060495966E+03 -0.81448909292E+02  0.18556578097E+02  0.23589154212E+03  0.00000000000E+00 0. -1.
         -1    1    3    3    0  502  0.76157207271E+03 -0.26835043620E+03 -0.83551019850E+02  0.81177875770E+03  0.00000000000E+00 0.  1.
         13    1    5    5    0    0 -0.22958680501E+03 -0.11115294823E+03  0.23355913521E+03  0.34585394110E+03  0.00000000000E+00 0. -1.
        -13    1    5    5    0    0  0.85583829186E+01 -0.96380610780E+01  0.10493538141E+02  0.16620844811E+02  0.00000000000E+00 0.  1.
          3    1    6    6  503    0 -0.68368390884E+03  0.40880885860E+03 -0.49564093972E+03  0.93819417564E+03  0.00000000000E+00 0. -1.
         -3    1    6    6    0  503 -0.77464701436E+02  0.61781496196E+02 -0.29662144294E+02  0.10342908704E+03  0.00000000000E+00 0.  1.
<mgrwt>
<rscale>  0 0.24271964E+04</rscale>
<asrwt>0</asrwt>
<pdfrwt beam="1">  1        2 0.16196335E+00 0.24271964E+04</pdfrwt>
<pdfrwt beam="2">  1       -1 0.21523178E+00 0.24271964E+04</pdfrwt>
<totfact> 0.28256754E+00</totfact>
</mgrwt>
</event>
<event>
12    7  0.1909736E-007  0.2420878E+04  0.7818608E-02  0.8431728E-01
          2   -1    0    0  501    0  0.00000000000E+00  0.00000000000E+00  0.30321491033E+04  0.30321491033E+04  0.00000000000E+00 0. -1.
         -3   -1    0    0    0  501 -0.00000000000E+00 -0.00000000000E+00 -0.48320929922E+03  0.48320929922E+03  0.00000000000E+00 0.  1.
         24    2    1    2    0    0  0.89274139263E+03 -0.14100058264E+03  0.18478762784E+04  0.20591883315E+04  0.93495913208E+02 0.  0.
        254    2    1    2    0    0 -0.89274139263E+03  0.14100058264E+03  0.70106352560E+03  0.14561700710E+04  0.90115084766E+03 0.  0.
         23    2    4    4    0    0 -0.69266849479E+03 -0.31660833306E+03  0.38648646457E+03  0.85883094687E+03  0.90489379327E+02 0.  0.
         23    2    4    4    0    0 -0.20007289784E+03  0.45760891570E+03  0.31457706104E+03  0.59733912410E+03  0.91761744079E+02 0.  0.
          4    1    3    3  502    0  0.84551148465E+03 -0.15089325136E+03  0.17736094892E+04  0.19706214919E+04  0.00000000000E+00 0. -1.
         -3    1    3    3    0  502  0.47229907983E+02  0.98926687212E+01  0.74266789224E+02  0.88566839642E+02  0.00000000000E+00 0.  1.
         13    1    5    5    0    0 -0.17191614265E+03 -0.71878598584E+02  0.52761474042E+02  0.19366328042E+03  0.00000000000E+00 0. -1.
        -13    1    5    5    0    0 -0.52075235213E+03 -0.24472973448E+03  0.33372499053E+03  0.66516766645E+03  0.00000000000E+00 0.  1.
          4    1    6    6  503    0 -0.15854028497E+03  0.39831343320E+03  0.23176006703E+03  0.48734109379E+03  0.00000000000E+00 0.  1.
         -4    1    6    6    0  503 -0.41532612872E+02  0.59295482495E+02  0.82816994003E+02  0.10999803031E+03  0.00000000000E+00 0. -1.
<mgrwt>
<rscale>  0 0.24208781E+04</rscale>
<asrwt>0</asrwt>
<pdfrwt beam="1">  1        2 0.46648447E+00 0.24208781E+04</pdfrwt>
<pdfrwt beam="2">  1       -3 0.74339894E-01 0.24208781E+04</pdfrwt>
<totfact> 0.16403632E+00</totfact>
</mgrwt>
</event>
<event>
12    7  0.1909736E-007  0.1110065E+04  0.7818608E-02  0.9195437E-01
         -1   -1    0    0    0  501 -0.00000000000E+00  0.00000000000E+00  0.99493586918E+02  0.99493586918E+02  0.00000000000E+00 0.  1.
          2   -1    0    0  501    0  0.00000000000E+00 -0.00000000000E+00 -0.30962898273E+04  0.30962898273E+04  0.00000000000E+00 0. -1.
         24    2    1    2    0    0  0.13435012770E+03  0.86275152737E+02 -0.34818525894E+03  0.39119733489E+03  0.79429349036E+02 0.  0.
        254    2    1    2    0    0 -0.13435012770E+03 -0.86275152737E+02 -0.26486109815E+04  0.28045860794E+04  0.90833341156E+03 0.  0.
         23    2    4    4    0    0 -0.36844245471E+03 -0.37317738818E+03 -0.17285744293E+04  0.18086973913E+04  0.91681462263E+02 0.  0.
         23    2    4    4    0    0  0.23409232701E+03  0.28690223544E+03 -0.92003655222E+03  0.99588868801E+03  0.90636147425E+02 0.  0.
          4    1    3    3  502    0  0.13635622647E+03  0.96319999929E+02 -0.31552713957E+03  0.35697050114E+03  0.00000000000E+00 0. -1.
         -3    1    3    3    0  502 -0.20060987659E+01 -0.10044847192E+02 -0.32658119368E+02  0.34226833743E+02  0.00000000000E+00 0.  1.
         13    1    5    5    0    0 -0.28233021141E+03 -0.32923683783E+03 -0.13490981639E+04  0.14171002433E+04  0.00000000000E+00 0.  1.
        -13    1    5    5    0    0 -0.86112243304E+02 -0.43940550347E+02 -0.37947626532E+03  0.39159714804E+03  0.00000000000E+00 0. -1.
          2    1    6    6  503    0  0.12894058265E+03  0.10360062420E+03 -0.32959971361E+03  0.36877463904E+03  0.00000000000E+00 0. -1.
         -2    1    6    6    0  503  0.10515174436E+03  0.18330161124E+03 -0.59043683861E+03  0.62711404896E+03  0.00000000000E+00 0.  1.
<mgrwt>
<rscale>  0 0.11100648E+04</rscale>
<asrwt>0</asrwt>
<pdfrwt beam="1">  1        2 0.47635228E+00 0.11100648E+04</pdfrwt>
<pdfrwt beam="2">  1       -1 0.15306706E-01 0.11100648E+04</pdfrwt>
<totfact> 0.55570125E+01</totfact>
</mgrwt>
</event>
<event>
12    7  0.1909736E-007  0.2042461E+04  0.7818608E-02  0.8587022E-01
          2   -1    0    0  501    0  0.00000000000E+00  0.00000000000E+00  0.77888225669E+03  0.77888225669E+03  0.00000000000E+00 0. -1.
         -1   -1    0    0    0  501 -0.00000000000E+00 -0.00000000000E+00 -0.13389850114E+04  0.13389850114E+04  0.00000000000E+00 0.  1.
         24    2    1    2    0    0 -0.78627913023E+03 -0.12860639282E+03 -0.12018617153E+03  0.80974195993E+03  0.80391858634E+02 0.  0.
        254    2    1    2    0    0  0.78627913023E+03  0.12860639282E+03 -0.43991658319E+03  0.13081253082E+04  0.93962266191E+03 0.  0.
         23    2    4    4    0    0  0.79133978792E+03  0.43860415819E+01 -0.66344755439E+03  0.10367699385E+04  0.92148524980E+02 0.  0.
         23    2    4    4    0    0 -0.50606576975E+01  0.12422035124E+03  0.22353097121E+03  0.27135536965E+03  0.90616420306E+02 0.  0.
          4    1    3    3  502    0 -0.25630471972E+03 -0.78948078398E+02 -0.50547624717E+02  0.27291018815E+03  0.00000000000E+00 0. -1.
         -3    1    3    3    0  502 -0.52997441051E+03 -0.49658314426E+02 -0.69638546811E+02  0.53683177177E+03  0.00000000000E+00 0.  1.
         13    1    5    5    0    0  0.41261805539E+03 -0.38271521161E+02 -0.31722015417E+03  0.52186875282E+03  0.00000000000E+00 0. -1.
        -13    1    5    5    0    0  0.37872173254E+03  0.42657562743E+02 -0.34622740022E+03  0.51490118569E+03  0.00000000000E+00 0.  1.
          3    1    6    6  503    0  0.16728455682E+01  0.10655157467E+03  0.22822043231E+03  0.25187417931E+03  0.00000000000E+00 0. -1.
         -3    1    6    6    0  503 -0.67335032657E+01  0.17668776570E+02 -0.46894611027E+01  0.19481190343E+02  0.00000000000E+00 0.  1.
<mgrwt>
<rscale>  0 0.20424609E+04</rscale>
<asrwt>0</asrwt>
<pdfrwt beam="1">  1        2 0.11982804E+00 0.20424609E+04</pdfrwt>
<pdfrwt beam="2">  1       -1 0.20599769E+00 0.20424609E+04</pdfrwt>
<totfact> 0.51617163E+00</totfact>
</mgrwt>
</event>
<event>
12    7  0.1909736E-007  0.1660629E+04  0.7818608E-02  0.8784143E-01
          2   -1    0    0  501    0  0.00000000000E+00  0.00000000000E+00  0.66909307817E+03  0.66909307817E+03  0.00000000000E+00 0. -1.
         -1   -1    0    0    0  501 -0.00000000000E+00 -0.00000000000E+00 -0.10303826480E+04  0.10303826480E+04  0.00000000000E+00 0.  1.
         24    2    1    2    0    0 -0.39942162072E+03  0.39300122656E+03 -0.28179201059E+03  0.63225247254E+03  0.79679712758E+02 0.  0.
        254    2    1    2    0    0  0.39942162072E+03 -0.39300122656E+03 -0.79497559203E+02  0.10672232536E+04  0.90479722365E+03 0.  0.
         23    2    4    4    0    0  0.11955284350E+03 -0.29924962175E+03  0.38443856663E+03  0.50977857326E+03  0.90763228959E+02 0.  0.
         23    2    4    4    0    0  0.27986877721E+03 -0.93751604804E+02 -0.46393612584E+03  0.55744468034E+03  0.91607570191E+02 0.  0.
          2    1    3    3  502    0 -0.25455816549E+02  0.29656661832E+02  0.98874759649E+00  0.39095956428E+02  0.00000000000E+00 0. -1.
         -1    1    3    3    0  502 -0.37396580417E+03  0.36334456473E+03 -0.28278075818E+03  0.59315651611E+03  0.00000000000E+00 0.  1.
         13    1    5    5    0    0  0.66553473091E+01 -0.18633658138E+02  0.72982979825E+02  0.75617605143E+02  0.00000000000E+00 0. -1.
        -13    1    5    5    0    0  0.11289749619E+03 -0.28061596362E+03  0.31145558681E+03  0.43416096812E+03  0.00000000000E+00 0.  1.
          1    1    6    6  503    0  0.11359580019E+03 -0.13428018861E+02 -0.11244638530E+03  0.16040108191E+03  0.00000000000E+00 0. -1.
         -1    1    6    6    0  503  0.16627297702E+03 -0.80323585943E+02 -0.35148974054E+03  0.39704359843E+03  0.00000000000E+00 0.  1.
<mgrwt>
<rscale>  0 0.16606287E+04</rscale>
<asrwt>0</asrwt>
<pdfrwt beam="1">  1        2 0.10293740E+00 0.16606287E+04</pdfrwt>
<pdfrwt beam="2">  1       -1 0.15852041E+00 0.16606287E+04</pdfrwt>
<totfact> 0.14179974E+01</totfact>
</mgrwt>
</event>
<event>
12    7  0.1909736E-007  0.1339263E+04  0.7818608E-02  0.8998996E-01
         -1   -1    0    0    0  501 -0.00000000000E+00  0.00000000000E+00  0.43122499862E+03  0.43122499862E+03  0.00000000000E+00 0.  1.
          2   -1    0    0  501    0  0.00000000000E+00 -0.00000000000E+00 -0.10398430393E+04  0.10398430393E+04  0.00000000000E+00 0. -1.
         24    2    1    2    0    0 -0.72335657583E+02  0.49294606720E+02 -0.57134728974E+03  0.58382238714E+03  0.82148941734E+02 0.  0.
        254    2    1    2    0    0  0.72335657583E+02 -0.49294606720E+02 -0.37270750962E+02  0.88724565079E+03  0.88212999630E+03 0.  0.
         23    2    4    4    0    0  0.15031947586E+03 -0.25727255951E+03 -0.36577383977E+03  0.48025782774E+03  0.89844112487E+02 0.  0.
         23    2    4    4    0    0 -0.77983818278E+02  0.20797795279E+03  0.32850308881E+03  0.40698782305E+03  0.91588776590E+02 0.  0.
          2    1    3    3  502    0 -0.28307195296E+02  0.53569233175E+02 -0.46059306302E+03  0.46456100756E+03  0.00000000000E+00 0. -1.
         -1    1    3    3    0  502 -0.44028462286E+02 -0.42746264555E+01 -0.11075422672E+03  0.11926137958E+03  0.00000000000E+00 0.  1.
         13    1    5    5    0    0  0.43291879010E+02 -0.95620610556E+02 -0.68452891348E+02  0.12531275388E+03  0.00000000000E+00 0. -1.
        -13    1    5    5    0    0  0.10702759685E+03 -0.16165194895E+03 -0.29732094842E+03  0.35494507386E+03  0.00000000000E+00 0.  1.
          3    1    6    6  503    0 -0.41240819240E+02  0.59412366982E+02  0.46054324231E+02  0.85741677744E+02  0.00000000000E+00 0. -1.
         -3    1    6    6    0  503 -0.36742999038E+02  0.14856558580E+03  0.28244876458E+03  0.32124614531E+03  0.00000000000E+00 0.  1.
<mgrwt>
<rscale>  0 0.13392630E+04</rscale>
<asrwt>0</asrwt>
<pdfrwt beam="1">  1        2 0.15997585E+00 0.13392630E+04</pdfrwt>
<pdfrwt beam="2">  1       -1 0.66342308E-01 0.13392630E+04</pdfrwt>
<totfact> 0.60996112E+01</totfact>
</mgrwt>
</event>
<event>
12    7  0.1909736E-007  0.2107549E+04  0.7818608E-02  0.8557925E-01
          2   -1    0    0  501    0  0.00000000000E+00  0.00000000000E+00  0.23093853526E+04  0.23093853526E+04  0.00000000000E+00 0. -1.
         -1   -1    0    0    0  501 -0.00000000000E+00 -0.00000000000E+00 -0.48083798322E+03  0.48083798322E+03  0.00000000000E+00 0.  1.
         24    2    1    2    0    0 -0.73492291143E+03 -0.20551343127E+03  0.23024097773E+03  0.80268153120E+03  0.94547747308E+02 0.  0.
        254    2    1    2    0    0  0.73492291143E+03  0.20551343127E+03  0.15983063917E+04  0.19875418046E+04  0.90188228022E+03 0.  0.
         23    2    4    4    0    0  0.35297090552E+03  0.51866138905E+03  0.11554640963E+04  0.13180333755E+04  0.92285451501E+02 0.  0.
         23    2    4    4    0    0  0.38195200591E+03 -0.31314795778E+03  0.44284229539E+03  0.66950842913E+03  0.90461371883E+02 0.  0.
          4    1    3    3  502    0 -0.33101428333E+03 -0.76432632715E+02  0.14887468105E+03  0.37091248802E+03  0.00000000000E+00 0. -1.
         -3    1    3    3    0  502 -0.40390862810E+03 -0.12908079855E+03  0.81366296679E+02  0.43176904317E+03  0.00000000000E+00 0.  1.
         13    1    5    5    0    0  0.13421046380E+03  0.26548685779E+03  0.59686551177E+03  0.66689141500E+03  0.00000000000E+00 0.  1.
        -13    1    5    5    0    0  0.21876044172E+03  0.25317453126E+03  0.55859858449E+03  0.65114196051E+03  0.00000000000E+00 0. -1.
          1    1    6    6  503    0  0.21983903043E+03 -0.22503564177E+03  0.31385285924E+03  0.44438030630E+03  0.00000000000E+00 0. -1.
         -1    1    6    6    0  503  0.16211297548E+03 -0.88112316006E+02  0.12898943615E+03  0.22512812283E+03  0.00000000000E+00 0.  1.
<mgrwt>
<rscale>  0 0.21075485E+04</rscale>
<asrwt>0</asrwt>
<pdfrwt beam="1">  1        2 0.35529005E+00 0.21075485E+04</pdfrwt>
<pdfrwt beam="2">  1       -1 0.73975075E-01 0.21075485E+04</pdfrwt>
<totfact> 0.86385636E+00</totfact>
</mgrwt>
</event>
<event>
12    7  0.1909736E-007  0.1367672E+04  0.7818608E-02  0.8977558E-01
          2   -1    0    0  501    0  0.00000000000E+00  0.00000000000E+00  0.70579437842E+03  0.70579437842E+03  0.00000000000E+00 0. -1.
         -1   -1    0    0    0  501 -0.00000000000E+00 -0.00000000000E+00 -0.66256036771E+03  0.66256036771E+03  0.00000000000E+00 0.  1.
         24    2    1    2    0    0 -0.32822243024E+02  0.11130884699E+03 -0.35183929629E+03  0.37761829393E+03  0.73059745673E+02 0.  0.
        254    2    1    2    0    0  0.32822243024E+02 -0.11130884699E+03  0.39507330699E+03  0.99073645221E+03  0.90111533156E+03 0.  0.
         23    2    4    4    0    0  0.30456695656E+02 -0.35761084821E+03 -0.13921094279E+03  0.39526902388E+03  0.89692728726E+02 0.  0.
         23    2    4    4    0    0  0.23655473681E+01  0.24630200121E+03  0.53428424978E+03  0.59546742832E+03  0.91932187039E+02 0.  0.
          4    1    3    3  502    0 -0.18962351484E+02  0.13425105536E+01 -0.10947024996E+03  0.11110854483E+03  0.00000000000E+00 0. -1.
         -3    1    3    3    0  502 -0.13859891540E+02  0.10996633644E+03 -0.24236904633E+03  0.26650974909E+03  0.00000000000E+00 0.  1.
         13    1    5    5    0    0  0.18603525619E+02 -0.35753782296E+03 -0.13606444714E+03  0.38300511719E+03  0.00000000000E+00 0. -1.
        -13    1    5    5    0    0  0.11853170037E+02 -0.73025240770E-01 -0.31464956437E+01  0.12263906696E+02  0.00000000000E+00 0.  1.
          1    1    6    6  503    0 -0.27707030399E+02  0.92831341134E+02  0.28671336309E+03  0.30263821637E+03  0.00000000000E+00 0. -1.
         -1    1    6    6    0  503  0.30072577767E+02  0.15347066008E+03  0.24757088669E+03  0.29282921195E+03  0.00000000000E+00 0.  1.
<mgrwt>
<rscale>  0 0.13676716E+04</rscale>
<asrwt>0</asrwt>
<pdfrwt beam="1">  1        2 0.10858375E+00 0.13676716E+04</pdfrwt>
<pdfrwt beam="2">  1       -1 0.10193236E+00 0.13676716E+04</pdfrwt>
<totfact> 0.41223959E+01</totfact>
</mgrwt>
</event>
<event>
12    7  0.1909736E-007  0.1768489E+04  0.7818608E-02  0.8723239E-01
          2   -1    0    0  501    0  0.00000000000E+00  0.00000000000E+00  0.11801990331E+04  0.11801990331E+04  0.00000000000E+00 0. -1.
         -1   -1    0    0    0  501 -0.00000000000E+00 -0.00000000000E+00 -0.66250536780E+03  0.66250536780E+03  0.00000000000E+00 0.  1.
         24    2    1    2    0    0  0.69161991472E+02 -0.62763004200E+03  0.35729514812E+03  0.72984779166E+03  0.79467763502E+02 0.  0.
        254    2    1    2    0    0 -0.69161991472E+02  0.62763004200E+03  0.16039851717E+03  0.11128566092E+04  0.90223018001E+03 0.  0.
         23    2    4    4    0    0 -0.42049265011E+03  0.55444076251E+03  0.22598159404E+03  0.73723390158E+03  0.90705660586E+02 0.  0.
         23    2    4    4    0    0  0.35133065863E+03  0.73189279484E+02 -0.65583076875E+02  0.37562270766E+03  0.89450412000E+02 0.  0.
          4    1    3    3  502    0  0.82536905329E+02 -0.54687528695E+03  0.29385766230E+03  0.62628846861E+03  0.00000000000E+00 0. -1.
         -3    1    3    3    0  502 -0.13374913857E+02 -0.80754755046E+02  0.63437485823E+02  0.10355932305E+03  0.00000000000E+00 0.  1.
         13    1    5    5    0    0 -0.32312532415E+03  0.42310023698E+03  0.21237726493E+03  0.57317352373E+03  0.00000000000E+00 0. -1.
        -13    1    5    5    0    0 -0.97367325952E+02  0.13134052553E+03  0.13604329112E+02  0.16406037785E+03  0.00000000000E+00 0.  1.
          1    1    6    6  503    0  0.35403874473E+03  0.69791849002E+02 -0.71910138535E+02  0.36794755466E+03  0.00000000000E+00 0. -1.
         -1    1    6    6    0  503 -0.27080860990E+01  0.33974304825E+01  0.63270616600E+01  0.76751529921E+01  0.00000000000E+00 0.  1.
<mgrwt>
<rscale>  0 0.17684888E+04</rscale>
<asrwt>0</asrwt>
<pdfrwt beam="1">  1        2 0.18156908E+00 0.17684888E+04</pdfrwt>
<pdfrwt beam="2">  1       -1 0.10192390E+00 0.17684888E+04</pdfrwt>
<totfact> 0.19166729E+01</totfact>
</mgrwt>
</event>
<event>
12    7  0.1909736E-007  0.1804028E+04  0.7818608E-02  0.8704160E-01
          2   -1    0    0  501    0  0.00000000000E+00  0.00000000000E+00  0.58629042048E+03  0.58629042048E+03  0.00000000000E+00 0. -1.
         -1   -1    0    0    0  501 -0.00000000000E+00 -0.00000000000E+00 -0.13877585208E+04  0.13877585208E+04  0.00000000000E+00 0.  1.
         24    2    1    2    0    0  0.40344011712E+03 -0.26351595248E+03 -0.81245264230E+03  0.94857177244E+03  0.86628668321E+02 0.  0.
        254    2    1    2    0    0 -0.40344011712E+03  0.26351595248E+03  0.10984541973E+02  0.10254771688E+04  0.90513986673E+03 0.  0.
         23    2    4    4    0    0  0.24566373806E+03 -0.85909848680E+02 -0.49137037247E+02  0.28023533206E+03  0.91576299363E+02 0.  0.
         23    2    4    4    0    0 -0.64910385518E+03  0.34942580116E+03  0.60121579221E+02  0.74524183679E+03  0.91304905034E+02 0.  0.
          2    1    3    3  502    0  0.10014855811E+03 -0.48430238130E+02 -0.12750225008E+03  0.16921006303E+03  0.00000000000E+00 0. -1.
         -1    1    3    3    0  502  0.30329155901E+03 -0.21508571435E+03 -0.68495039222E+03  0.77936170941E+03  0.00000000000E+00 0.  1.
         13    1    5    5    0    0  0.15051428278E+03 -0.34838805061E+02  0.14028307208E+02  0.15512925276E+03  0.00000000000E+00 0. -1.
        -13    1    5    5    0    0  0.95149455278E+02 -0.51071043619E+02 -0.63165344455E+02  0.12510607929E+03  0.00000000000E+00 0.  1.
          3    1    6    6  503    0 -0.37534140065E+03  0.15739749473E+03  0.10162725492E+02  0.40713439965E+03  0.00000000000E+00 0. -1.
         -3    1    6    6    0  503 -0.27376245453E+03  0.19202830643E+03  0.49958853729E+02  0.33810743714E+03  0.00000000000E+00 0.  1.
<mgrwt>
<rscale>  0 0.18040283E+04</rscale>
<asrwt>0</asrwt>
<pdfrwt beam="1">  1        2 0.90198527E-01 0.18040283E+04</pdfrwt>
<pdfrwt beam="2">  1       -1 0.21350131E+00 0.18040283E+04</pdfrwt>
<totfact> 0.66914526E+00</totfact>
</mgrwt>
</event>
<event>
12    7  0.1909736E-007  0.1413565E+04  0.7818608E-02  0.8944058E-01
         -1   -1    0    0    0  501 -0.00000000000E+00  0.00000000000E+00  0.23206339497E+03  0.23206339497E+03  0.00000000000E+00 0.  1.
          2   -1    0    0  501    0  0.00000000000E+00 -0.00000000000E+00 -0.21526066240E+04  0.21526066240E+04  0.00000000000E+00 0. -1.
         24    2    1    2    0    0  0.48681779553E+02  0.69698203268E+02 -0.12579170427E+04  0.12632161640E+04  0.78307314286E+02 0.  0.
        254    2    1    2    0    0 -0.48681779553E+02 -0.69698203268E+02 -0.66262618630E+03  0.11214538549E+04  0.90075386804E+03 0.  0.
         23    2    4    4    0    0 -0.26965715938E+03 -0.40158675077E+03 -0.30858027839E+03  0.58060634425E+03  0.88854019476E+02 0.  0.
         23    2    4    4    0    0  0.22097537983E+03  0.33188854750E+03 -0.35404590791E+03  0.54084751069E+03  0.90484244232E+02 0.  0.
          4    1    3    3  502    0  0.40046248223E+02  0.24636235414E+01 -0.26866532818E+03  0.27164467600E+03  0.00000000000E+00 0. -1.
         -3    1    3    3    0  502  0.86355313307E+01  0.67234579727E+02 -0.98925171454E+03  0.99157148801E+03  0.00000000000E+00 0.  1.
         13    1    5    5    0    0 -0.17798781734E+02 -0.40453629522E+01 -0.76229262566E+00  0.18268625637E+02  0.00000000000E+00 0. -1.
        -13    1    5    5    0    0 -0.25185837765E+03 -0.39754138782E+03 -0.30781798576E+03  0.56233771862E+03  0.00000000000E+00 0.  1.
          3    1    6    6  503    0  0.11348932134E+03  0.92739989810E+02 -0.12107541438E+03  0.19010467573E+03  0.00000000000E+00 0. -1.
         -3    1    6    6    0  503  0.10748605849E+03  0.23914855769E+03 -0.23297049354E+03  0.35074283496E+03  0.00000000000E+00 0.  1.
<mgrwt>
<rscale>  0 0.14135646E+04</rscale>
<asrwt>0</asrwt>
<pdfrwt beam="1">  1        2 0.33117023E+00 0.14135646E+04</pdfrwt>
<pdfrwt beam="2">  1       -1 0.35702062E-01 0.14135646E+04</pdfrwt>
<totfact> 0.45587360E+01</totfact>
</mgrwt>
</event>
<event>
12    7  0.1909736E-007  0.1760418E+04  0.7818608E-02  0.8727637E-01
         -1   -1    0    0    0  501 -0.00000000000E+00  0.00000000000E+00  0.46548242254E+03  0.46548242254E+03  0.00000000000E+00 0.  1.
          2   -1    0    0  501    0  0.00000000000E+00 -0.00000000000E+00 -0.16644402035E+04  0.16644402035E+04  0.00000000000E+00 0. -1.
         24    2    1    2    0    0 -0.37578102220E+01 -0.28874685790E+03  0.25167110374E+03  0.39119840330E+03  0.79429070254E+02 0.  0.
        254    2    1    2    0    0  0.37578102220E+01  0.28874685790E+03 -0.14506288847E+04  0.17387242227E+04  0.91402893418E+03 0.  0.
         23    2    4    4    0    0  0.31295744740E+03  0.33169682992E+03 -0.32573273808E+03  0.56790941573E+03  0.91946380868E+02 0.  0.
         23    2    4    4    0    0 -0.30919963718E+03 -0.42949972021E+02 -0.11248961466E+04  0.11708148070E+04  0.89257245609E+02 0.  0.
          4    1    3    3  502    0 -0.39712820326E+02 -0.11209490538E+03  0.91511439813E+02  0.15005572141E+03  0.00000000000E+00 0. -1.
         -3    1    3    3    0  502  0.35955010104E+02 -0.17665195251E+03  0.16015966393E+03  0.24114268189E+03  0.00000000000E+00 0.  1.
         13    1    5    5    0    0  0.32774498736E+02  0.40549788050E+02 -0.78404885606E+02  0.94158266580E+02  0.00000000000E+00 0. -1.
        -13    1    5    5    0    0  0.28018294867E+03  0.29114704187E+03 -0.24732785248E+03  0.47375114915E+03  0.00000000000E+00 0.  1.
          2    1    6    6  503    0 -0.15570207518E+03  0.19304301717E+02 -0.61451313789E+03  0.63422566088E+03  0.00000000000E+00 0. -1.
         -2    1    6    6    0  503 -0.15349756200E+03 -0.62254273739E+02 -0.51038300874E+03  0.53658914613E+03  0.00000000000E+00 0.  1.
<mgrwt>
<rscale>  0 0.17604177E+04</rscale>
<asrwt>0</asrwt>
<pdfrwt beam="1">  1        2 0.25606772E+00 0.17604177E+04</pdfrwt>
<pdfrwt beam="2">  1       -1 0.71612682E-01 0.17604177E+04</pdfrwt>
<totfact> 0.21798391E+01</totfact>
</mgrwt>
</event>
<event>
12    7  0.1909736E-007  0.2749833E+04  0.7818608E-02  0.8319015E-01
         -1   -1    0    0    0  501 -0.00000000000E+00  0.00000000000E+00  0.11529697964E+04  0.11529697964E+04  0.00000000000E+00 0.  1.
          2   -1    0    0  501    0  0.00000000000E+00 -0.00000000000E+00 -0.16395879035E+04  0.16395879035E+04  0.00000000000E+00 0. -1.
         24    2    1    2    0    0 -0.21422252501E+03 -0.16601287121E+03 -0.14324052307E+04  0.14597919094E+04  0.75869034281E+02 0.  0.
        254    2    1    2    0    0  0.21422252501E+03  0.16601287121E+03  0.94578712358E+03  0.13327657905E+04  0.89905495135E+03 0.  0.
         23    2    4    4    0    0 -0.20058882692E+03  0.18478121383E+03 -0.91904826565E+01  0.28759015848E+03  0.90794602326E+02 0.  0.
         23    2    4    4    0    0  0.41481135193E+03 -0.18768342622E+02  0.95497760624E+03  0.10451756320E+04  0.89382128901E+02 0.  0.
          2    1    3    3  502    0 -0.19204360426E+03 -0.12637423147E+03 -0.12897919922E+04  0.13101200615E+04  0.00000000000E+00 0. -1.
         -1    1    3    3    0  502 -0.22178920746E+02 -0.39638639741E+02 -0.14261323847E+03  0.14967184797E+03  0.00000000000E+00 0.  1.
         13    1    5    5    0    0 -0.18703627432E+03  0.19355633336E+03 -0.30098092371E+00  0.26915927011E+03  0.00000000000E+00 0. -1.
        -13    1    5    5    0    0 -0.13552552601E+02 -0.87751195363E+01 -0.88895017328E+01  0.18430888365E+02  0.00000000000E+00 0.  1.
          3    1    6    6  503    0  0.20338030088E+03  0.27870689582E+02  0.52643052409E+03  0.56503930732E+03  0.00000000000E+00 0. -1.
         -3    1    6    6    0  503  0.21143105105E+03 -0.46639032204E+02  0.42854708215E+03  0.48013632470E+03  0.00000000000E+00 0.  1.
<mgrwt>
<rscale>  0 0.27498330E+04</rscale>
<asrwt>0</asrwt>
<pdfrwt beam="1">  1        2 0.25224429E+00 0.27498330E+04</pdfrwt>
<pdfrwt beam="2">  1       -1 0.17737997E+00 0.27498330E+04</pdfrwt>
<totfact> 0.22915565E+00</totfact>
</mgrwt>
</event>
<event>
12    7  0.1909736E-007  0.3388015E+04  0.7818608E-02  0.8140854E-01
         -1   -1    0    0    0  501 -0.00000000000E+00  0.00000000000E+00  0.15317056839E+04  0.15317056839E+04  0.00000000000E+00 0.  1.
          2   -1    0    0  501    0  0.00000000000E+00 -0.00000000000E+00 -0.18735071820E+04  0.18735071820E+04  0.00000000000E+00 0. -1.
         24    2    1    2    0    0  0.78009298653E+03 -0.82743681877E+03 -0.12476510881E+04  0.16900359863E+04  0.79947736993E+02 0.  0.
        254    2    1    2    0    0 -0.78009298653E+03  0.82743681877E+03  0.90584958996E+03  0.17151768796E+04  0.90998433606E+03 0.  0.
         23    2    4    4    0    0 -0.67598297804E+03  0.80027092240E+03  0.29997061059E+03  0.10936471794E+04  0.93248324539E+02 0.  0.
         23    2    4    4    0    0 -0.10411000849E+03  0.27165896365E+02  0.60587897937E+03  0.62152970013E+03  0.87366759752E+02 0.  0.
          4    1    3    3  502    0  0.63558560698E+03 -0.68629967209E+03 -0.98059335387E+03  0.13551898868E+04  0.00000000000E+00 0. -1.
         -3    1    3    3    0  502  0.14450737955E+03 -0.14113714668E+03 -0.26705773420E+03  0.33484609944E+03  0.00000000000E+00 0.  1.
         13    1    5    5    0    0 -0.32596487966E+03  0.34140494823E+03  0.17292522070E+03  0.50270624962E+03  0.00000000000E+00 0.  1.
        -13    1    5    5    0    0 -0.35001809838E+03  0.45886597417E+03  0.12704538989E+03  0.59094092982E+03  0.00000000000E+00 0. -1.
          3    1    6    6  503    0 -0.10458904439E+03  0.49707798531E+02  0.52025558933E+03  0.53298744044E+03  0.00000000000E+00 0. -1.
         -3    1    6    6    0  503  0.47903590000E+00 -0.22541902166E+02  0.85623390040E+02  0.88542259687E+02  0.00000000000E+00 0.  1.
<mgrwt>
<rscale>  0 0.33880151E+04</rscale>
<asrwt>0</asrwt>
<pdfrwt beam="1">  1        2 0.28823187E+00 0.33880151E+04</pdfrwt>
<pdfrwt beam="2">  1       -1 0.23564703E+00 0.33880151E+04</pdfrwt>
<totfact> 0.64185896E-01</totfact>
</mgrwt>
</event>
<event>
12    7  0.1909736E-007  0.2372381E+04  0.7818608E-02  0.8449917E-01
          2   -1    0    0  501    0  0.00000000000E+00  0.00000000000E+00  0.29129688149E+04  0.29129688149E+04  0.00000000000E+00 0. -1.
         -1   -1    0    0    0  501 -0.00000000000E+00 -0.00000000000E+00 -0.48302896057E+03  0.48302896057E+03  0.00000000000E+00 0.  1.
         24    2    1    2    0    0  0.99312130055E+03 -0.10411426724E+03  0.13318183499E+04  0.16664953703E+04  0.79605300056E+02 0.  0.
        254    2    1    2    0    0 -0.99312130055E+03  0.10411426724E+03  0.10981215045E+04  0.17295024052E+04  0.88779391350E+03 0.  0.
         23    2    4    4    0    0 -0.29112786331E+03 -0.24615639034E+03  0.78904498887E+03  0.88113971264E+03  0.92015202180E+02 0.  0.
         23    2    4    4    0    0 -0.70199343725E+03  0.35027065759E+03  0.30907651559E+03  0.84836269258E+03  0.93309410896E+02 0.  0.
          4    1    3    3  502    0  0.55142208866E+03 -0.55795267025E+02  0.67300574009E+03  0.87184640727E+03  0.00000000000E+00 0. -1.
         -3    1    3    3    0  502  0.44169921190E+03 -0.48319000219E+02  0.65881260981E+03  0.79464896301E+03  0.00000000000E+00 0.  1.
         13    1    5    5    0    0 -0.20688192197E+03 -0.13239774191E+03  0.43014904159E+03  0.49533573431E+03  0.00000000000E+00 0.  1.
        -13    1    5    5    0    0 -0.84245941340E+02 -0.11375864843E+03  0.35889594728E+03  0.38580397833E+03  0.00000000000E+00 0. -1.
          3    1    6    6  503    0 -0.57087240991E+03  0.24395109927E+03  0.23134147933E+03  0.66251515250E+03  0.00000000000E+00 0. -1.
         -3    1    6    6    0  503 -0.13112102734E+03  0.10631955832E+03  0.77735036257E+02  0.18584754008E+03  0.00000000000E+00 0.  1.
<mgrwt>
<rscale>  0 0.23723813E+04</rscale>
<asrwt>0</asrwt>
<pdfrwt beam="1">  1        2 0.44814904E+00 0.23723813E+04</pdfrwt>
<pdfrwt beam="2">  1       -1 0.74312150E-01 0.23723813E+04</pdfrwt>
<totfact> 0.36871759E+00</totfact>
</mgrwt>
</event>
<event>
12    7  0.1909736E-007  0.1481697E+04  0.7818608E-02  0.8896716E-01
         -1   -1    0    0    0  501 -0.00000000000E+00  0.00000000000E+00  0.24700343709E+03  0.24700343709E+03  0.00000000000E+00 0.  1.
          2   -1    0    0  501    0  0.00000000000E+00 -0.00000000000E+00 -0.22220597120E+04  0.22220597120E+04  0.00000000000E+00 0. -1.
         24    2    1    2    0    0  0.32797283446E+03 -0.34160786674E+03 -0.59439682849E+03  0.76414681096E+03  0.79690929336E+02 0.  0.
        254    2    1    2    0    0 -0.32797283446E+03  0.34160786674E+03 -0.13806594464E+04  0.17049163382E+04  0.88105453764E+03 0.  0.
         23    2    4    4    0    0  0.91102786403E+02  0.33569220076E+03 -0.11762424422E+04  0.12300322750E+04  0.91892019400E+02 0.  0.
         23    2    4    4    0    0 -0.41907562086E+03  0.59156659802E+01 -0.20441700423E+03  0.47488406320E+03  0.89828674478E+02 0.  0.
          2    1    3    3  502    0  0.12200396420E+02 -0.96817857375E+00 -0.34828130665E+02  0.36915927838E+02  0.00000000000E+00 0. -1.
         -1    1    3    3    0  502  0.31577243804E+03 -0.34063968817E+03 -0.55956869783E+03  0.72723088313E+03  0.00000000000E+00 0.  1.
         13    1    5    5    0    0  0.91790941328E+01  0.45513984396E+02 -0.29505478448E+03  0.29868562803E+03  0.00000000000E+00 0.  1.
        -13    1    5    5    0    0  0.81923692270E+02  0.29017821636E+03 -0.88118765773E+03  0.93134664693E+03  0.00000000000E+00 0. -1.
          3    1    6    6  503    0 -0.28928693579E+03 -0.18436216012E+02 -0.10034749702E+03  0.30675143918E+03  0.00000000000E+00 0. -1.
         -3    1    6    6    0  503 -0.12978868507E+03  0.24351881992E+02 -0.10406950721E+03  0.16813262402E+03  0.00000000000E+00 0.  1.
<mgrwt>
<rscale>  0 0.14816968E+04</rscale>
<asrwt>0</asrwt>
<pdfrwt beam="1">  1        2 0.34185534E+00 0.14816968E+04</pdfrwt>
<pdfrwt beam="2">  1       -1 0.38000529E-01 0.14816968E+04</pdfrwt>
<totfact> 0.37033157E+01</totfact>
</mgrwt>
</event>
<event>
12    7  0.1909736E-007  0.2500929E+04  0.7818608E-02  0.8402655E-01
         -1   -1    0    0    0  501 -0.00000000000E+00  0.00000000000E+00  0.87809057164E+03  0.87809057164E+03  0.00000000000E+00 0.  1.
          2   -1    0    0  501    0  0.00000000000E+00 -0.00000000000E+00 -0.17807518116E+04  0.17807518116E+04  0.00000000000E+00 0. -1.
         24    2    1    2    0    0 -0.13970161191E+03  0.76953181706E+03 -0.11944475134E+04  0.14298747398E+04  0.78365497737E+02 0.  0.
        254    2    1    2    0    0  0.13970161191E+03 -0.76953181706E+03  0.29178627343E+03  0.12289676435E+04  0.90195702869E+03 0.  0.
         23    2    4    4    0    0 -0.15818628142E+03 -0.80692578785E+03  0.43736238589E+02  0.82857701773E+03  0.92059160425E+02 0.  0.
         23    2    4    4    0    0  0.29788789333E+03  0.37393970784E+02  0.24805003484E+03  0.40039062579E+03  0.92996383772E+02 0.  0.
          2    1    3    3  502    0 -0.11184301680E+03  0.53612994911E+03 -0.89375881344E+03  0.10482122873E+04  0.00000000000E+00 0. -1.
         -1    1    3    3    0  502 -0.27858595116E+02  0.23340186795E+03 -0.30068869999E+03  0.38166245242E+03  0.00000000000E+00 0.  1.
         13    1    5    5    0    0 -0.82040163012E+02 -0.34594324845E+03  0.62413073201E+02  0.36097466836E+03  0.00000000000E+00 0. -1.
        -13    1    5    5    0    0 -0.76146118403E+02 -0.46098253940E+03 -0.18676834612E+02  0.46760234936E+03  0.00000000000E+00 0.  1.
          4    1    6    6  503    0  0.14132836671E+03  0.32327521518E+01  0.17308758543E+03  0.22348035742E+03  0.00000000000E+00 0.  1.
         -4    1    6    6    0  503  0.15655952662E+03  0.34161218632E+02  0.74962449415E+02  0.17691026837E+03  0.00000000000E+00 0. -1.
<mgrwt>
<rscale>  0 0.25009289E+04</rscale>
<asrwt>0</asrwt>
<pdfrwt beam="1">  1        2 0.27396181E+00 0.25009289E+04</pdfrwt>
<pdfrwt beam="2">  1       -1 0.13509086E+00 0.25009289E+04</pdfrwt>
<totfact> 0.41285181E+00</totfact>
</mgrwt>
</event>
<event>
12    7  0.1909736E-007  0.1367236E+04  0.7818608E-02  0.8977882E-01
          2   -1    0    0  501    0  0.00000000000E+00  0.00000000000E+00  0.11082288011E+04  0.11082288011E+04  0.00000000000E+00 0. -1.
         -3   -1    0    0    0  501 -0.00000000000E+00 -0.00000000000E+00 -0.42169427418E+03  0.42169427418E+03  0.00000000000E+00 0.  1.
         24    2    1    2    0    0  0.52942394252E+02 -0.32074816949E+03  0.41518078680E+03  0.53346517950E+03  0.80794348015E+02 0.  0.
        254    2    1    2    0    0 -0.52942394252E+02  0.32074816949E+03  0.27135374015E+03  0.99645789582E+03  0.90200510004E+03 0.  0.
         23    2    4    4    0    0 -0.11565821725E+02 -0.13761475383E+03 -0.24712882140E+03  0.29717991212E+03  0.90397218437E+02 0.  0.
         23    2    4    4    0    0 -0.41376572526E+02  0.45836292332E+03  0.51848256155E+03  0.69927798370E+03  0.91416309404E+02 0.  0.
          4    1    3    3  502    0  0.63832316135E+02 -0.24996863285E+03  0.36078281638E+03  0.44353480425E+03  0.00000000000E+00 0. -1.
         -1    1    3    3    0  502 -0.10889921884E+02 -0.70779536640E+02  0.54397970419E+02  0.89930375243E+02  0.00000000000E+00 0.  1.
         13    1    5    5    0    0  0.27819004183E+02 -0.84838413839E+02 -0.89828119966E+02  0.12665127158E+03  0.00000000000E+00 0.  1.
        -13    1    5    5    0    0 -0.39384825908E+02 -0.52776339988E+02 -0.15730070143E+03  0.17052864054E+03  0.00000000000E+00 0. -1.
          2    1    6    6  503    0  0.13223100585E+02  0.23316950883E+03  0.30554723924E+03  0.38458027204E+03  0.00000000000E+00 0. -1.
         -2    1    6    6    0  503 -0.54599673111E+02  0.22519341449E+03  0.21293532230E+03  0.31469771165E+03  0.00000000000E+00 0.  1.
<mgrwt>
<rscale>  0 0.13672362E+04</rscale>
<asrwt>0</asrwt>
<pdfrwt beam="1">  1        2 0.17049674E+00 0.13672362E+04</pdfrwt>
<pdfrwt beam="2">  1       -3 0.64876042E-01 0.13672362E+04</pdfrwt>
<totfact> 0.30759306E+01</totfact>
</mgrwt>
</event>
<event>
12    7  0.1909736E-007  0.1741145E+04  0.7818608E-02  0.8738239E-01
          4   -1    0    0  501    0  0.00000000000E+00  0.00000000000E+00  0.45959300243E+03  0.45959300243E+03  0.00000000000E+00 0. -1.
         -3   -1    0    0    0  501 -0.00000000000E+00 -0.00000000000E+00 -0.16490609754E+04  0.16490609754E+04  0.00000000000E+00 0.  1.
         24    2    1    2    0    0  0.47272131459E+03  0.36807489677E+03 -0.17854654267E+03  0.63010638972E+03  0.78807509550E+02 0.  0.
        254    2    1    2    0    0 -0.47272131459E+03 -0.36807489677E+03 -0.10109214303E+04  0.14785475881E+04  0.89732728766E+03 0.  0.
         23    2    4    4    0    0 -0.43692523320E+02 -0.25079856509E+03  0.88912307746E+02  0.28879052314E+03  0.10337122878E+03 0.  0.
         23    2    4    4    0    0 -0.42902879127E+03 -0.11727633168E+03 -0.10998337380E+04  0.11897570650E+04  0.89823051733E+02 0.  0.
          4    1    3    3  502    0  0.43498985539E+03  0.35728653412E+03 -0.17953910367E+03  0.59085034611E+03  0.00000000000E+00 0. -1.
         -3    1    3    3    0  502  0.37731459204E+02  0.10788362654E+02  0.99256099952E+00  0.39256043608E+02  0.00000000000E+00 0.  1.
         13    1    5    5    0    0 -0.67466326908E+02 -0.12194821131E+03  0.71425483562E+02  0.15660354789E+03  0.00000000000E+00 0.  1.
        -13    1    5    5    0    0  0.23773803588E+02 -0.12885035378E+03  0.17486824184E+02  0.13218697525E+03  0.00000000000E+00 0. -1.
          2    1    6    6  503    0 -0.34925927355E+03 -0.98333324121E+02 -0.79139674681E+03  0.87060915091E+03  0.00000000000E+00 0. -1.
         -2    1    6    6    0  503 -0.79769517721E+02 -0.18943007557E+02 -0.30843699122E+03  0.31914791405E+03  0.00000000000E+00 0.  1.
<mgrwt>
<rscale>  0 0.17411455E+04</rscale>
<asrwt>0</asrwt>
<pdfrwt beam="1">  1        4 0.70706616E-01 0.17411455E+04</pdfrwt>
<pdfrwt beam="2">  1       -3 0.25370169E+00 0.17411455E+04</pdfrwt>
<totfact> 0.27716135E-01</totfact>
</mgrwt>
</event>
<event>
12    7  0.1909736E-007  0.2028894E+04  0.7818608E-02  0.8593230E-01
         -1   -1    0    0    0  501 -0.00000000000E+00  0.00000000000E+00  0.63188794772E+03  0.63188794772E+03  0.00000000000E+00 0.  1.
          2   -1    0    0  501    0  0.00000000000E+00 -0.00000000000E+00 -0.16286161339E+04  0.16286161339E+04  0.00000000000E+00 0. -1.
         24    2    1    2    0    0 -0.35664907848E+03 -0.66719658497E+03 -0.72941801716E+03  0.10538218906E+04  0.78358695948E+02 0.  0.
        254    2    1    2    0    0  0.35664907848E+03  0.66719658497E+03 -0.26731016906E+03  0.12066821910E+04  0.90126429836E+03 0.  0.
         23    2    4    4    0    0  0.33477828684E+03  0.42619625073E+03  0.26873907133E+03  0.61143208682E+03  0.88931225490E+02 0.  0.
         23    2    4    4    0    0  0.21870791640E+02  0.24100033424E+03 -0.53604924039E+03  0.59525010421E+03  0.91730070382E+02 0.  0.
          2    1    3    3  502    0 -0.23714948080E+03 -0.46950787090E+03 -0.45840778339E+03  0.69772144367E+03  0.00000000000E+00 0. -1.
         -1    1    3    3    0  502 -0.11949959768E+03 -0.19768871407E+03 -0.27101023377E+03  0.35610044696E+03  0.00000000000E+00 0.  1.
         13    1    5    5    0    0  0.21359044404E+03  0.23027096032E+03  0.19433150500E+03  0.36933768666E+03  0.00000000000E+00 0. -1.
        -13    1    5    5    0    0  0.12118784280E+03  0.19592529041E+03  0.74407566323E+02  0.24209440016E+03  0.00000000000E+00 0.  1.
          1    1    6    6  503    0  0.61216185377E+01  0.22967971234E+03 -0.52464515091E+03  0.57275018887E+03  0.00000000000E+00 0. -1.
         -1    1    6    6    0  503  0.15749173102E+02  0.11320621899E+02 -0.11404089474E+02  0.22499915339E+02  0.00000000000E+00 0.  1.
<mgrwt>
<rscale>  0 0.20288942E+04</rscale>
<asrwt>0</asrwt>
<pdfrwt beam="1">  1        2 0.25055633E+00 0.20288942E+04</pdfrwt>
<pdfrwt beam="2">  1       -1 0.97213531E-01 0.20288942E+04</pdfrwt>
<totfact> 0.11535039E+01</totfact>
</mgrwt>
</event>
<event>
12    7  0.1909736E-007  0.1943004E+04  0.7818608E-02  0.8633742E-01
          2   -1    0    0  501    0  0.00000000000E+00  0.00000000000E+00  0.22279857498E+04  0.22279857498E+04  0.00000000000E+00 0. -1.
         -1   -1    0    0    0  501 -0.00000000000E+00 -0.00000000000E+00 -0.42361857436E+03  0.42361857436E+03  0.00000000000E+00 0.  1.
         24    2    1    2    0    0  0.55036561665E+03 -0.85330590937E+02  0.21290114791E+01  0.56291324278E+03  0.81750623658E+02 0.  0.
        254    2    1    2    0    0 -0.55036561665E+03  0.85330590937E+02  0.18022381640E+04  0.20886910814E+04  0.89687480291E+03 0.  0.
         23    2    4    4    0    0 -0.49257138169E+03 -0.34550973775E+03  0.95988297169E+03  0.11365838625E+04  0.91891306113E+02 0.  0.
         23    2    4    4    0    0 -0.57794234961E+02  0.43084032869E+03  0.84235519227E+03  0.95210721892E+03  0.89343852387E+02 0.  0.
          4    1    3    3  502    0  0.29786653847E+02  0.13856813399E+02  0.27734340088E+01  0.32968893842E+02  0.00000000000E+00 0. -1.
         -3    1    3    3    0  502  0.52057896280E+03 -0.99187404336E+02 -0.64442252968E+00  0.52994434894E+03  0.00000000000E+00 0.  1.
         13    1    5    5    0    0 -0.44858258249E+03 -0.33807098145E+03  0.91228894536E+03  0.10713493556E+04  0.00000000000E+00 0.  1.
        -13    1    5    5    0    0 -0.43988799198E+02 -0.74387563015E+01  0.47594026326E+02  0.65234506913E+02  0.00000000000E+00 0. -1.
          3    1    6    6  503    0  0.14643113253E+02  0.15402681257E+03  0.24511708822E+03  0.28986387614E+03  0.00000000000E+00 0. -1.
         -3    1    6    6    0  503 -0.72437348214E+02  0.27681351611E+03  0.59723810405E+03  0.66224334277E+03  0.00000000000E+00 0.  1.
<mgrwt>
<rscale>  0 0.19430040E+04</rscale>
<asrwt>0</asrwt>
<pdfrwt beam="1">  1        2 0.34276703E+00 0.19430040E+04</pdfrwt>
<pdfrwt beam="2">  1       -1 0.65172090E-01 0.19430040E+04</pdfrwt>
<totfact> 0.12631975E+01</totfact>
</mgrwt>
</event>
<event>
12    7  0.1909736E-007  0.2310798E+04  0.7818608E-02  0.8473676E-01
          2   -1    0    0  501    0  0.00000000000E+00  0.00000000000E+00  0.25640440150E+04  0.25640440150E+04  0.00000000000E+00 0. -1.
         -1   -1    0    0    0  501 -0.00000000000E+00 -0.00000000000E+00 -0.52064097945E+03  0.52064097945E+03  0.00000000000E+00 0.  1.
         24    2    1    2    0    0  0.64756463483E+03 -0.28674244171E+03  0.17786568683E+04  0.19153358670E+04  0.57706535395E+02 0.  0.
        254    2    1    2    0    0 -0.64756463483E+03  0.28674244171E+03  0.26474616734E+03  0.11693491275E+04  0.89203456476E+03 0.  0.
         23    2    4    4    0    0 -0.18920367991E+03  0.11194476798E+02 -0.31314008596E+03  0.37667783974E+03  0.88916436712E+02 0.  0.
         23    2    4    4    0    0 -0.45836095492E+03  0.27554796491E+03  0.57788625330E+03  0.79267128777E+03  0.91399139687E+02 0.  0.
          4    1    3    3  502    0  0.59115494113E+03 -0.27224981640E+03  0.15953547035E+04  0.17230034118E+04  0.00000000000E+00 0. -1.
         -1    1    3    3    0  502  0.56409693698E+02 -0.14492625309E+02  0.18330216473E+03  0.19233245520E+03  0.00000000000E+00 0.  1.
         13    1    5    5    0    0 -0.15052569501E+03  0.23444092280E+02 -0.17172745294E+03  0.22956029364E+03  0.00000000000E+00 0. -1.
        -13    1    5    5    0    0 -0.38677984899E+02 -0.12249615482E+02 -0.14141263302E+03  0.14711754611E+03  0.00000000000E+00 0.  1.
          4    1    6    6  503    0 -0.26713751938E+03  0.11869647371E+03  0.35369834219E+03  0.45886144357E+03  0.00000000000E+00 0. -1.
         -4    1    6    6    0  503 -0.19122343555E+03  0.15685149120E+03  0.22418791111E+03  0.33380984420E+03  0.00000000000E+00 0.  1.
<mgrwt>
<rscale>  0 0.23107976E+04</rscale>
<asrwt>0</asrwt>
<pdfrwt beam="1">  1        2 0.39446830E+00 0.23107976E+04</pdfrwt>
<pdfrwt beam="2">  1       -1 0.80098614E-01 0.23107976E+04</pdfrwt>
<totfact> 0.51221965E+00</totfact>
</mgrwt>
</event>
<event>
12    7  0.1909736E-007  0.2020634E+04  0.7818608E-02  0.8597034E-01
          4   -1    0    0  501    0  0.00000000000E+00  0.00000000000E+00  0.99284475533E+03  0.99284475533E+03  0.00000000000E+00 0. -1.
         -3   -1    0    0    0  501 -0.00000000000E+00 -0.00000000000E+00 -0.10280966195E+04  0.10280966195E+04  0.00000000000E+00 0.  1.
         24    2    1    2    0    0  0.61269091931E+02 -0.49759916763E+03 -0.64956696693E+03  0.82438616441E+03  0.79476224605E+02 0.  0.
        254    2    1    2    0    0 -0.61269091931E+02  0.49759916763E+03  0.61431510280E+03  0.11965552104E+04  0.89610406355E+03 0.  0.
         23    2    4    4    0    0 -0.36692418089E+03  0.33040943339E+03  0.20673771755E+02  0.50206909921E+03  0.88556351299E+02 0.  0.
         23    2    4    4    0    0  0.30565508896E+03  0.16718973425E+03  0.59364133105E+03  0.69448611117E+03  0.92322738470E+02 0.  0.
          4    1    3    3  502    0  0.56468718511E+02 -0.18166204267E+03 -0.21483938531E+03  0.28695953617E+03  0.00000000000E+00 0. -1.
         -1    1    3    3    0  502  0.48003734197E+01 -0.31593712496E+03 -0.43472758162E+03  0.53742662824E+03  0.00000000000E+00 0.  1.
         13    1    5    5    0    0 -0.26195059440E+02  0.10066008150E+02  0.19891522702E+02  0.34397359413E+02  0.00000000000E+00 0. -1.
        -13    1    5    5    0    0 -0.34072912145E+03  0.32034342524E+03  0.78224905286E+00  0.46767173980E+03  0.00000000000E+00 0.  1.
          1    1    6    6  503    0  0.34119531173E+01 -0.89250337174E+00 -0.31513531821E+01  0.47295891176E+01  0.00000000000E+00 0. -1.
         -1    1    6    6    0  503  0.30224313584E+03  0.16808223762E+03  0.59679268423E+03  0.68975652205E+03  0.00000000000E+00 0.  1.
<mgrwt>
<rscale>  0 0.20206339E+04</rscale>
<asrwt>0</asrwt>
<pdfrwt beam="1">  1        4 0.15274535E+00 0.20206339E+04</pdfrwt>
<pdfrwt beam="2">  1       -3 0.15816871E+00 0.20206339E+04</pdfrwt>
<totfact> 0.16880297E-01</totfact>
</mgrwt>
</event>
<event>
12    7  0.1909736E-007  0.2956041E+04  0.7818608E-02  0.8256396E-01
          2   -1    0    0  501    0  0.00000000000E+00  0.00000000000E+00  0.12130542754E+04  0.12130542754E+04  0.00000000000E+00 0. -1.
         -1   -1    0    0    0  501 -0.00000000000E+00 -0.00000000000E+00 -0.18008628383E+04  0.18008628383E+04  0.00000000000E+00 0.  1.
         24    2    1    2    0    0  0.82376434193E+03  0.97515466172E+03  0.14733553601E+03  0.12873833212E+04  0.78318262472E+02 0.  0.
        254    2    1    2    0    0 -0.82376434193E+03 -0.97515466172E+03 -0.73514409888E+03  0.17265337925E+04  0.90053749794E+03 0.  0.
         23    2    4    4    0    0 -0.88497757436E+03 -0.42194478799E+03 -0.35541212404E+03  0.10469410480E+04  0.92439541531E+02 0.  0.
         23    2    4    4    0    0  0.61213232436E+02 -0.55320987373E+03 -0.37973197484E+03  0.67959274449E+03  0.88666236155E+02 0.  0.
          4    1    3    3  502    0  0.49079212834E+03  0.57116862705E+03  0.48616130031E+02  0.75463503885E+03  0.00000000000E+00 0. -1.
         -3    1    3    3    0  502  0.33297221359E+03  0.40398603467E+03  0.98719405982E+02  0.53274828235E+03  0.00000000000E+00 0.  1.
         13    1    5    5    0    0 -0.74567861057E+03 -0.34589713500E+03 -0.33202130153E+03  0.88652104483E+03  0.00000000000E+00 0.  1.
        -13    1    5    5    0    0 -0.13929896379E+03 -0.76047652991E+02 -0.23390822515E+02  0.16042000317E+03  0.00000000000E+00 0. -1.
          2    1    6    6  503    0  0.72530072051E+02 -0.33698472354E+03 -0.20247816401E+03  0.39977083705E+03  0.00000000000E+00 0.  1.
         -2    1    6    6    0  503 -0.11316839615E+02 -0.21622515019E+03 -0.17725381083E+03  0.27982190744E+03  0.00000000000E+00 0. -1.
<mgrwt>
<rscale>  0 0.29560408E+04</rscale>
<asrwt>0</asrwt>
<pdfrwt beam="1">  1        2 0.18662374E+00 0.29560408E+04</pdfrwt>
<pdfrwt beam="2">  1       -1 0.27705582E+00 0.29560408E+04</pdfrwt>
<totfact> 0.84671596E-01</totfact>
</mgrwt>
</event>
<event>
12    7  0.1909736E-007  0.1427156E+04  0.7818608E-02  0.8934393E-01
         -1   -1    0    0    0  501 -0.00000000000E+00  0.00000000000E+00  0.16996938690E+03  0.16996938690E+03  0.00000000000E+00 0.  1.
          2   -1    0    0  501    0  0.00000000000E+00 -0.00000000000E+00 -0.29957938021E+04  0.29957938021E+04  0.00000000000E+00 0. -1.
         24    2    1    2    0    0 -0.88807505823E+02 -0.29968409987E+03 -0.21899138128E+03  0.39022697822E+03  0.81378969375E+02 0.  0.
        254    2    1    2    0    0  0.88807505823E+02  0.29968409987E+03 -0.26068330339E+04  0.27755362108E+04  0.90018079169E+03 0.  0.
         23    2    4    4    0    0 -0.39233294751E+02 -0.22219420594E+03 -0.17011238557E+04  0.17184475223E+04  0.91268821397E+02 0.  0.
         23    2    4    4    0    0  0.12804080057E+03  0.52187830581E+03 -0.90570917821E+03  0.10570886885E+04  0.91520310133E+02 0.  0.
          4    1    3    3  502    0 -0.75701411364E+01  0.35458313773E+01 -0.10300376320E+02  0.13265659023E+02  0.00000000000E+00 0. -1.
         -3    1    3    3    0  502 -0.81237364687E+02 -0.30322993124E+03 -0.20869100496E+03  0.37696131920E+03  0.00000000000E+00 0.  1.
         13    1    5    5    0    0 -0.57931098553E+02 -0.14079379342E+03 -0.87850602639E+03  0.89160066333E+03  0.00000000000E+00 0.  1.
        -13    1    5    5    0    0  0.18697803801E+02 -0.81400412523E+02 -0.82261782931E+03  0.82684685893E+03  0.00000000000E+00 0. -1.
          4    1    6    6  503    0  0.22048565380E+02  0.19730014055E+02 -0.75103373707E+02  0.80721307175E+02  0.00000000000E+00 0. -1.
         -4    1    6    6    0  503  0.10599223519E+03  0.50214829176E+03 -0.83060580451E+03  0.97636738133E+03  0.00000000000E+00 0.  1.
<mgrwt>
<rscale>  0 0.14271555E+04</rscale>
<asrwt>0</asrwt>
<pdfrwt beam="1">  1        2 0.46089129E+00 0.14271555E+04</pdfrwt>
<pdfrwt beam="2">  1       -1 0.26149140E-01 0.14271555E+04</pdfrwt>
<totfact> 0.25338285E+01</totfact>
</mgrwt>
</event>
<event>
12    7  0.1909736E-007  0.1577180E+04  0.7818608E-02  0.8834691E-01
          2   -1    0    0  501    0  0.00000000000E+00  0.00000000000E+00  0.10589602841E+04  0.10589602841E+04  0.00000000000E+00 0. -1.
         -1   -1    0    0    0  501 -0.00000000000E+00 -0.00000000000E+00 -0.58724988555E+03  0.58724988555E+03  0.00000000000E+00 0.  1.
         24    2    1    2    0    0  0.20872878128E+03  0.66186175999E+02  0.65767751757E+03  0.69797258920E+03  0.81717220573E+02 0.  0.
        254    2    1    2    0    0 -0.20872878128E+03 -0.66186175999E+02 -0.18596711899E+03  0.94823758046E+03  0.90367163596E+03 0.  0.
         23    2    4    4    0    0  0.85245110082E+02  0.29989754563E+03  0.15577618829E+03  0.36034787702E+03  0.91537451187E+02 0.  0.
         23    2    4    4    0    0 -0.29397389136E+03 -0.36608372163E+03 -0.34174330728E+03  0.58788970344E+03  0.91585344360E+02 0.  0.
          4    1    3    3  502    0  0.17438855487E+03  0.61498959112E+02  0.43585272237E+03  0.47345652983E+03  0.00000000000E+00 0. -1.
         -3    1    3    3    0  502  0.34340226409E+02  0.46872168866E+01  0.22182479520E+03  0.22451605938E+03  0.00000000000E+00 0.  1.
         13    1    5    5    0    0  0.88288986837E+01  0.19379361602E+03  0.87066319824E+02  0.21263691850E+03  0.00000000000E+00 0. -1.
        -13    1    5    5    0    0  0.76416211398E+02  0.10610392961E+03  0.68709868462E+02  0.14771095852E+03  0.00000000000E+00 0.  1.
          1    1    6    6  503    0 -0.26292521234E+03 -0.32665595669E+03 -0.33607995038E+03  0.53738581519E+03  0.00000000000E+00 0. -1.
         -1    1    6    6    0  503 -0.31048679026E+02 -0.39427764937E+02 -0.56633569020E+01  0.50503888252E+02  0.00000000000E+00 0.  1.
<mgrwt>
<rscale>  0 0.15771801E+04</rscale>
<asrwt>0</asrwt>
<pdfrwt beam="1">  1        2 0.16291697E+00 0.15771801E+04</pdfrwt>
<pdfrwt beam="2">  1       -1 0.90346137E-01 0.15771801E+04</pdfrwt>
<totfact> 0.30332332E+01</totfact>
</mgrwt>
</event>
<event>
12    7  0.1909736E-007  0.3480861E+04  0.7818608E-02  0.8118341E-01
          2   -1    0    0  501    0  0.00000000000E+00  0.00000000000E+00  0.14721839202E+04  0.14721839202E+04  0.00000000000E+00 0. -1.
         -1   -1    0    0    0  501 -0.00000000000E+00 -0.00000000000E+00 -0.20575543451E+04  0.20575543451E+04  0.00000000000E+00 0.  1.
         24    2    1    2    0    0  0.86698299329E+03 -0.10757513175E+04 -0.11581598938E+04  0.18046090809E+04  0.79869815594E+02 0.  0.
        254    2    1    2    0    0 -0.86698299329E+03  0.10757513175E+04  0.57278946889E+03  0.17251291844E+04  0.85969908652E+03 0.  0.
         23    2    4    4    0    0 -0.10102459308E+03  0.68703337519E+03  0.21930940793E+02  0.70059757492E+03  0.90195170534E+02 0.  0.
         23    2    4    4    0    0 -0.76595840021E+03  0.38871794235E+03  0.55085852810E+03  0.10245316095E+04  0.91793198507E+02 0.  0.
          2    1    3    3  502    0  0.60701985010E+03 -0.76220930644E+03 -0.86290724183E+03  0.13015548522E+04  0.00000000000E+00 0. -1.
         -1    1    3    3    0  502  0.25996314319E+03 -0.31354201110E+03 -0.29525265197E+03  0.50305422872E+03  0.00000000000E+00 0.  1.
         13    1    5    5    0    0 -0.88733820311E+02  0.68062614281E+03  0.21038001231E+02  0.68670826021E+03  0.00000000000E+00 0.  1.
        -13    1    5    5    0    0 -0.12290772771E+02  0.64072323796E+01  0.89293956157E+00  0.13889314711E+02  0.00000000000E+00 0. -1.
          3    1    6    6  503    0 -0.25615375237E+03  0.16532589730E+03  0.15914088676E+03  0.34390873645E+03  0.00000000000E+00 0. -1.
         -3    1    6    6    0  503 -0.50980464784E+03  0.22339204505E+03  0.39171764134E+03  0.68062287303E+03  0.00000000000E+00 0.  1.
<mgrwt>
<rscale>  0 0.34808611E+04</rscale>
<asrwt>0</asrwt>
<pdfrwt beam="1">  1        2 0.22648983E+00 0.34808611E+04</pdfrwt>
<pdfrwt beam="2">  1       -1 0.31654682E+00 0.34808611E+04</pdfrwt>
<totfact> 0.31788698E-01</totfact>
</mgrwt>
</event>
<event>
12    7  0.1909736E-007  0.1669287E+04  0.7818608E-02  0.8779077E-01
         -3   -1    0    0    0  501 -0.00000000000E+00  0.00000000000E+00  0.63660482268E+03  0.63660482268E+03  0.00000000000E+00 0.  1.
          4   -1    0    0  501    0  0.00000000000E+00 -0.00000000000E+00 -0.10942895628E+04  0.10942895628E+04  0.00000000000E+00 0. -1.
         24    2    1    2    0    0  0.53041223226E+03 -0.64504251845E+02 -0.42823399549E+03  0.68933310132E+03  0.79358900233E+02 0.  0.
        254    2    1    2    0    0 -0.53041223226E+03  0.64504251845E+02 -0.29450744598E+02  0.10415612841E+04  0.89357967054E+03 0.  0.
         23    2    4    4    0    0 -0.32844429585E+03 -0.18632196044E+02  0.41544508713E+03  0.53758692562E+03  0.90455889688E+02 0.  0.
         23    2    4    4    0    0 -0.20196793641E+03  0.83136447889E+02 -0.44489583173E+03  0.50397435851E+03  0.91406436525E+02 0.  0.
          2    1    3    3  502    0  0.35042482412E+03 -0.72852747365E+01 -0.26000825521E+03  0.43641141754E+03  0.00000000000E+00 0. -1.
         -1    1    3    3    0  502  0.17998740814E+03 -0.57218977108E+02 -0.16822574028E+03  0.25292168377E+03  0.00000000000E+00 0.  1.
         13    1    5    5    0    0 -0.19111669928E+03 -0.35744365385E+02  0.18266533726E+03  0.26677683152E+03  0.00000000000E+00 0. -1.
        -13    1    5    5    0    0 -0.13732759656E+03  0.17112169341E+02  0.23277974987E+03  0.27081009410E+03  0.00000000000E+00 0.  1.
          3    1    6    6  503    0 -0.50476102300E+02  0.27300046290E+02 -0.21846676617E+03  0.22587797005E+03  0.00000000000E+00 0. -1.
         -3    1    6    6    0  503 -0.15149183411E+03  0.55836401599E+02 -0.22642906555E+03  0.27809638846E+03  0.00000000000E+00 0.  1.
<mgrwt>
<rscale>  0 0.16692873E+04</rscale>
<asrwt>0</asrwt>
<pdfrwt beam="1">  1        4 0.16835224E+00 0.16692873E+04</pdfrwt>
<pdfrwt beam="2">  1       -3 0.97939205E-01 0.16692873E+04</pdfrwt>
<totfact> 0.43467405E-01</totfact>
</mgrwt>
</event>
<event>
12    7  0.1909736E-007  0.2857396E+04  0.7818608E-02  0.8285668E-01
          2   -1    0    0  501    0  0.00000000000E+00  0.00000000000E+00  0.31936266687E+04  0.31936266687E+04  0.00000000000E+00 0. -1.
         -1   -1    0    0    0  501 -0.00000000000E+00 -0.00000000000E+00 -0.63914095678E+03  0.63914095678E+03  0.00000000000E+00 0.  1.
         24    2    1    2    0    0  0.70125890072E+03  0.46844012724E+03  0.24571648046E+04  0.25990778656E+04  0.79666028296E+02 0.  0.
        254    2    1    2    0    0 -0.70125890072E+03 -0.46844012724E+03  0.97320907316E+02  0.12336897598E+04  0.89516415582E+03 0.  0.
         23    2    4    4    0    0 -0.39825454432E+03 -0.64090394250E+03  0.30337809719E+03  0.81841104905E+03  0.91617846316E+02 0.  0.
         23    2    4    4    0    0 -0.30300435640E+03  0.17246381526E+03 -0.20605718988E+03  0.41527871079E+03  0.91877279906E+02 0.  0.
          2    1    3    3  502    0  0.49781539471E+03  0.36272288446E+03  0.17114820448E+04  0.18189444323E+04  0.00000000000E+00 0. -1.
         -1    1    3    3    0  502  0.20344350601E+03  0.10571724279E+03  0.74568275977E+03  0.78013343332E+03  0.00000000000E+00 0.  1.
         13    1    5    5    0    0  0.59973210519E+00 -0.98115473739E+01 -0.45516452042E+01  0.10832525769E+02  0.00000000000E+00 0.  1.
        -13    1    5    5    0    0 -0.39885427642E+03 -0.63109239513E+03  0.30792974240E+03  0.80757852328E+03  0.00000000000E+00 0. -1.
          3    1    6    6  503    0 -0.25248085681E+03  0.14775973621E+03 -0.12860163663E+03  0.31955892046E+03  0.00000000000E+00 0. -1.
         -3    1    6    6    0  503 -0.50523499592E+02  0.24704079049E+02 -0.77455553243E+02  0.95719790330E+02  0.00000000000E+00 0.  1.
<mgrwt>
<rscale>  0 0.28573957E+04</rscale>
<asrwt>0</asrwt>
<pdfrwt beam="1">  1        2 0.49132717E+00 0.28573957E+04</pdfrwt>
<pdfrwt beam="2">  1       -1 0.98329380E-01 0.28573957E+04</pdfrwt>
<totfact> 0.12756903E+00</totfact>
</mgrwt>
</event>
<event>
12    7  0.1909736E-007  0.1963552E+04  0.7818608E-02  0.8623854E-01
          2   -1    0    0  501    0  0.00000000000E+00  0.00000000000E+00  0.19091017748E+04  0.19091017748E+04  0.00000000000E+00 0. -1.
         -3   -1    0    0    0  501 -0.00000000000E+00 -0.00000000000E+00 -0.50488858691E+03  0.50488858691E+03  0.00000000000E+00 0.  1.
         24    2    1    2    0    0  0.31939406560E+03 -0.68040055665E+03  0.64063854615E+03  0.99078656503E+03  0.79264014420E+02 0.  0.
        254    2    1    2    0    0 -0.31939406560E+03  0.68040055665E+03  0.76357464169E+03  0.14232037966E+04  0.93675254293E+03 0.  0.
         23    2    4    4    0    0 -0.53293182342E+03  0.42951413179E+03  0.12839959855E+03  0.70232908091E+03  0.90999797593E+02 0.  0.
         23    2    4    4    0    0  0.21353775781E+03  0.25088642486E+03  0.63517504314E+03  0.72087471573E+03  0.87582236513E+02 0.  0.
          2    1    3    3  502    0  0.55957699103E+02 -0.10005362187E+03  0.63952542728E+02  0.13127040436E+03  0.00000000000E+00 0. -1.
         -1    1    3    3    0  502  0.26343636650E+03 -0.58034693478E+03  0.57668600342E+03  0.85951616067E+03  0.00000000000E+00 0.  1.
         13    1    5    5    0    0 -0.50365495181E+03  0.38504950578E+03  0.13641659748E+03  0.64849126475E+03  0.00000000000E+00 0. -1.
        -13    1    5    5    0    0 -0.29276871607E+02  0.44464626008E+02 -0.80169989265E+01  0.53837816160E+02  0.00000000000E+00 0.  1.
          3    1    6    6  503    0  0.15528751158E+03  0.11583017847E+03  0.36918882178E+03  0.41693072281E+03  0.00000000000E+00 0. -1.
         -3    1    6    6    0  503  0.58250246236E+02  0.13505624639E+03  0.26598622136E+03  0.30394399292E+03  0.00000000000E+00 0.  1.
<mgrwt>
<rscale>  0 0.19635516E+04</rscale>
<asrwt>0</asrwt>
<pdfrwt beam="1">  1        2 0.29370796E+00 0.19635516E+04</pdfrwt>
<pdfrwt beam="2">  1       -3 0.77675168E-01 0.19635516E+04</pdfrwt>
<totfact> 0.69415487E+00</totfact>
</mgrwt>
</event>
<event>
12    7  0.1909736E-007  0.2389290E+04  0.7818608E-02  0.8443524E-01
          2   -1    0    0  501    0  0.00000000000E+00  0.00000000000E+00  0.76745648408E+03  0.76745648408E+03  0.00000000000E+00 0. -1.
         -1   -1    0    0    0  501 -0.00000000000E+00 -0.00000000000E+00 -0.18596194558E+04  0.18596194558E+04  0.00000000000E+00 0.  1.
         24    2    1    2    0    0 -0.51464652398E+03 -0.85554929589E+03 -0.20089495724E+03  0.10213385724E+04  0.77123623063E+02 0.  0.
        254    2    1    2    0    0  0.51464652398E+03  0.85554929589E+03 -0.89126801451E+03  0.16057373675E+04  0.88724752888E+03 0.  0.
         23    2    4    4    0    0  0.20166279110E+03 -0.15288360310E+03 -0.12122369981E+03  0.29531435501E+03  0.92054904648E+02 0.  0.
         23    2    4    4    0    0  0.31298373287E+03  0.10084328990E+04 -0.77004431470E+03  0.13104230125E+04  0.96666935191E+02 0.  0.
          2    1    3    3  502    0 -0.24434182820E+03 -0.39201654409E+03 -0.13148598177E+03  0.48027956780E+03  0.00000000000E+00 0. -1.
         -1    1    3    3    0  502 -0.27030469578E+03 -0.46353275180E+03 -0.69408975476E+02  0.54105900457E+03  0.00000000000E+00 0.  1.
         13    1    5    5    0    0  0.38013111116E+01 -0.41303124764E+02 -0.11470750409E+02  0.43034593019E+02  0.00000000000E+00 0.  1.
        -13    1    5    5    0    0  0.19786147999E+03 -0.11158047834E+03 -0.10975294940E+03  0.25227976199E+03  0.00000000000E+00 0. -1.
          2    1    6    6  503    0  0.13661086510E+03  0.37304625704E+03 -0.23776177570E+03  0.46298671723E+03  0.00000000000E+00 0. -1.
         -2    1    6    6    0  503  0.17637286778E+03  0.63538664195E+03 -0.53228253900E+03  0.84743629529E+03  0.00000000000E+00 0.  1.
<mgrwt>
<rscale>  0 0.23892903E+04</rscale>
<asrwt>0</asrwt>
<pdfrwt beam="1">  1        2 0.11807023E+00 0.23892903E+04</pdfrwt>
<pdfrwt beam="2">  1       -1 0.28609530E+00 0.23892903E+04</pdfrwt>
<totfact> 0.15185979E+00</totfact>
</mgrwt>
</event>
<event>
12    7  0.1909736E-007  0.1118498E+04  0.7818608E-02  0.9187348E-01
         -1   -1    0    0    0  501 -0.00000000000E+00  0.00000000000E+00  0.92082880950E+02  0.92082880950E+02  0.00000000000E+00 0.  1.
          2   -1    0    0  501    0  0.00000000000E+00 -0.00000000000E+00 -0.33964982389E+04  0.33964982389E+04  0.00000000000E+00 0. -1.
         24    2    1    2    0    0 -0.14872906066E+03 -0.12830594731E+03 -0.14282354869E+04  0.14439364366E+04  0.80703637813E+02 0.  0.
        254    2    1    2    0    0  0.14872906066E+03  0.12830594731E+03 -0.18761798711E+04  0.20446446833E+04  0.78863059972E+03 0.  0.
         23    2    4    4    0    0 -0.60793278481E+02  0.39451659803E+03 -0.13622235583E+04  0.14222564417E+04  0.88437516545E+02 0.  0.
         23    2    4    4    0    0  0.20952233914E+03 -0.26621065072E+03 -0.51395631272E+03  0.62238824158E+03  0.91914692580E+02 0.  0.
          2    1    3    3  502    0 -0.11784273475E+03 -0.11703512317E+03 -0.93727903853E+03  0.95188031089E+03  0.00000000000E+00 0. -1.
         -1    1    3    3    0  502 -0.30886325911E+02 -0.11270824142E+02 -0.49095644841E+03  0.49205612570E+03  0.00000000000E+00 0.  1.
         13    1    5    5    0    0  0.21122630981E+02  0.13704486761E+03 -0.46073776298E+03  0.48115148084E+03  0.00000000000E+00 0. -1.
        -13    1    5    5    0    0 -0.81915909462E+02  0.25747173042E+03 -0.90148579535E+03  0.94110496089E+03  0.00000000000E+00 0.  1.
          1    1    6    6  503    0  0.32022845126E+02 -0.83991864926E+02 -0.85215245255E+02  0.12386175361E+03  0.00000000000E+00 0. -1.
         -1    1    6    6    0  503  0.17749949401E+03 -0.18221878579E+03 -0.42874106747E+03  0.49852648797E+03  0.00000000000E+00 0.  1.
<mgrwt>
<rscale>  0 0.11184978E+04</rscale>
<asrwt>0</asrwt>
<pdfrwt beam="1">  1        2 0.52253825E+00 0.11184978E+04</pdfrwt>
<pdfrwt beam="2">  1       -1 0.14166596E-01 0.11184978E+04</pdfrwt>
<totfact> 0.40203370E+01</totfact>
</mgrwt>
</event>
<event>
12    7  0.1909736E-007  0.2016472E+04  0.7818608E-02  0.8598958E-01
         -1   -1    0    0    0  501 -0.00000000000E+00  0.00000000000E+00  0.71585225425E+03  0.71585225425E+03  0.00000000000E+00 0.  1.
          2   -1    0    0  501    0  0.00000000000E+00 -0.00000000000E+00 -0.14200407997E+04  0.14200407997E+04  0.00000000000E+00 0. -1.
         24    2    1    2    0    0 -0.20730062218E+03 -0.36051311622E+03  0.42564484571E+03  0.60071468965E+03  0.82105716966E+02 0.  0.
        254    2    1    2    0    0  0.20730062218E+03  0.36051311622E+03 -0.11298333911E+04  0.15351783643E+04  0.95252604347E+03 0.  0.
         23    2    4    4    0    0 -0.36935191730E+03  0.21128841207E+03 -0.44332997420E+03  0.62150077119E+03  0.93048969243E+02 0.  0.
         23    2    4    4    0    0  0.57665253948E+03  0.14922470415E+03 -0.68650341692E+03  0.91367759307E+03  0.93400423036E+02 0.  0.
          4    1    3    3  502    0 -0.57550604137E+02 -0.13194611366E+03  0.98320131954E+02  0.17432354199E+03  0.00000000000E+00 0. -1.
         -3    1    3    3    0  502 -0.14975001804E+03 -0.22856700257E+03  0.32732471375E+03  0.42639114766E+03  0.00000000000E+00 0.  1.
         13    1    5    5    0    0 -0.78903234315E+02  0.76925638225E+01 -0.61438004075E+02  0.10029717976E+03  0.00000000000E+00 0. -1.
        -13    1    5    5    0    0 -0.29044868299E+03  0.20359584825E+03 -0.38189197012E+03  0.52120359143E+03  0.00000000000E+00 0.  1.
          1    1    6    6  503    0  0.34253207930E+03  0.99447965311E+02 -0.34170100064E+03  0.49394098534E+03  0.00000000000E+00 0. -1.
         -1    1    6    6    0  503  0.23412046018E+03  0.49776738839E+02 -0.34480241627E+03  0.41973660773E+03  0.00000000000E+00 0.  1.
<mgrwt>
<rscale>  0 0.20164716E+04</rscale>
<asrwt>0</asrwt>
<pdfrwt beam="1">  1        2 0.21846781E+00 0.20164716E+04</pdfrwt>
<pdfrwt beam="2">  1       -1 0.11013112E+00 0.20164716E+04</pdfrwt>
<totfact> 0.11340788E+01</totfact>
</mgrwt>
</event>
<event>
12    7  0.1909736E-007  0.1484096E+04  0.7818608E-02  0.8895098E-01
          2   -1    0    0  501    0  0.00000000000E+00  0.00000000000E+00  0.98549804355E+03  0.98549804355E+03  0.00000000000E+00 0. -1.
         -1   -1    0    0    0  501 -0.00000000000E+00 -0.00000000000E+00 -0.55873792668E+03  0.55873792668E+03  0.00000000000E+00 0.  1.
         24    2    1    2    0    0 -0.42056935637E+03  0.19179737090E+03  0.16110220027E+03  0.49584349695E+03  0.79006579079E+02 0.  0.
        254    2    1    2    0    0  0.42056935637E+03 -0.19179737090E+03  0.26565791660E+03  0.10483924733E+04  0.90271137934E+03 0.  0.
         23    2    4    4    0    0  0.14617917110E+03  0.32478649256E+03  0.26998022018E+03  0.45534710858E+03  0.87161081866E+02 0.  0.
         23    2    4    4    0    0  0.27439018527E+03 -0.51658386345E+03 -0.43223035803E+01  0.59304536471E+03  0.97648658674E+02 0.  0.
          2    1    3    3  502    0 -0.77968596905E+02  0.13125175594E+02  0.50938251081E+02  0.94053589835E+02  0.00000000000E+00 0. -1.
         -1    1    3    3    0  502 -0.34260075946E+03  0.17867219530E+03  0.11016394919E+03  0.40178990712E+03  0.00000000000E+00 0.  1.
         13    1    5    5    0    0  0.60817120446E+02  0.21858097547E+03  0.13747558729E+03  0.26528456811E+03  0.00000000000E+00 0. -1.
        -13    1    5    5    0    0  0.85362050655E+02  0.10620551708E+03  0.13250463290E+03  0.19006254047E+03  0.00000000000E+00 0.  1.
          1    1    6    6  503    0  0.17341490408E+03 -0.37815365068E+03  0.34200633227E+02  0.41742376046E+03  0.00000000000E+00 0. -1.
         -1    1    6    6    0  503  0.10097528119E+03 -0.13843021277E+03 -0.38522936807E+02  0.17562160425E+03  0.00000000000E+00 0.  1.
<mgrwt>
<rscale>  0 0.14840959E+04</rscale>
<asrwt>0</asrwt>
<pdfrwt beam="1">  1        2 0.15161508E+00 0.14840959E+04</pdfrwt>
<pdfrwt beam="2">  1       -1 0.85959681E-01 0.14840959E+04</pdfrwt>
<totfact> 0.37962612E+01</totfact>
</mgrwt>
</event>
<event>
12    7  0.1909736E-007  0.1506338E+04  0.7818608E-02  0.8880249E-01
         -3   -1    0    0    0  501 -0.00000000000E+00  0.00000000000E+00  0.52453552085E+03  0.52453552085E+03  0.00000000000E+00 0.  1.
          2   -1    0    0  501    0  0.00000000000E+00 -0.00000000000E+00 -0.10814594198E+04  0.10814594198E+04  0.00000000000E+00 0. -1.
         24    2    1    2    0    0  0.25824455943E+03  0.19233194297E+03  0.19879536161E+03  0.38665492303E+03  0.79376350038E+02 0.  0.
        254    2    1    2    0    0 -0.25824455943E+03 -0.19233194297E+03 -0.75571926058E+03  0.12193400176E+04  0.90110856675E+03 0.  0.
         23    2    4    4    0    0  0.14105464968E+03 -0.43860720947E+03 -0.29817777775E+03  0.55795571438E+03  0.10065730805E+03 0.  0.
         23    2    4    4    0    0 -0.39929920911E+03  0.24627526650E+03 -0.45754148283E+03  0.66138430327E+03  0.89407062471E+02 0.  0.
          2    1    3    3  502    0  0.92921245628E+02  0.55342175335E+02  0.11015149694E+03  0.15437119724E+03  0.00000000000E+00 0. -1.
         -1    1    3    3    0  502  0.16532331380E+03  0.13698976764E+03  0.88643864669E+02  0.23228372579E+03  0.00000000000E+00 0.  1.
         13    1    5    5    0    0  0.90176702134E+02 -0.38964837424E+03 -0.26624419873E+03  0.48046193035E+03  0.00000000000E+00 0.  1.
        -13    1    5    5    0    0  0.50877947550E+02 -0.48958835226E+02 -0.31933579024E+02  0.77493784027E+02  0.00000000000E+00 0. -1.
          3    1    6    6  503    0 -0.69584011640E+02  0.25135813306E+02 -0.35847041859E+02  0.82211642707E+02  0.00000000000E+00 0. -1.
         -3    1    6    6    0  503 -0.32971519747E+03  0.22113945319E+03 -0.42169444097E+03  0.57917266056E+03  0.00000000000E+00 0.  1.
<mgrwt>
<rscale>  0 0.15063384E+04</rscale>
<asrwt>0</asrwt>
<pdfrwt beam="1">  1        2 0.16637837E+00 0.15063384E+04</pdfrwt>
<pdfrwt beam="2">  1       -3 0.80697772E-01 0.15063384E+04</pdfrwt>
<totfact> 0.19583521E+01</totfact>
</mgrwt>
</event>
<event>
12    7  0.1909736E-007  0.2055045E+04  0.7818608E-02  0.8581309E-01
          2   -1    0    0  501    0  0.00000000000E+00  0.00000000000E+00  0.14431364687E+04  0.14431364687E+04  0.00000000000E+00 0. -1.
         -3   -1    0    0    0  501 -0.00000000000E+00 -0.00000000000E+00 -0.73160268935E+03  0.73160268935E+03  0.00000000000E+00 0.  1.
         24    2    1    2    0    0 -0.24483307288E+03 -0.55655064246E+03 -0.31121637452E+03  0.68788824416E+03  0.81503088844E+02 0.  0.
        254    2    1    2    0    0  0.24483307288E+03  0.55655064246E+03  0.10227501538E+04  0.14868509139E+04  0.89163664779E+03 0.  0.
         23    2    4    4    0    0  0.44267086330E+03  0.41498116207E+03  0.23452827486E+03  0.65697334528E+03  0.91889099531E+02 0.  0.
         23    2    4    4    0    0 -0.19783779042E+03  0.14156948039E+03  0.78822187899E+03  0.82987756859E+03  0.90671601034E+02 0.  0.
          4    1    3    3  502    0 -0.42609272118E+02 -0.76388477737E+02 -0.77486636487E+02  0.11685430431E+03  0.00000000000E+00 0. -1.
         -3    1    3    3    0  502 -0.20222380076E+03 -0.48016216472E+03 -0.23372973804E+03  0.57103393985E+03  0.00000000000E+00 0.  1.
         13    1    5    5    0    0  0.10783844722E+03  0.11692871315E+03  0.10414210849E+03  0.19012373186E+03  0.00000000000E+00 0.  1.
        -13    1    5    5    0    0  0.33483241608E+03  0.29805244891E+03  0.13038616637E+03  0.46684961341E+03  0.00000000000E+00 0. -1.
          4    1    6    6  503    0 -0.11946564674E+03  0.11541069686E+03  0.40292106627E+03  0.43581768591E+03  0.00000000000E+00 0. -1.
         -4    1    6    6    0  503 -0.78372143676E+02  0.26158783527E+02  0.38530081272E+03  0.39405988268E+03  0.00000000000E+00 0.  1.
<mgrwt>
<rscale>  0 0.20550450E+04</rscale>
<asrwt>0</asrwt>
<pdfrwt beam="1">  1        2 0.22202100E+00 0.20550450E+04</pdfrwt>
<pdfrwt beam="2">  1       -3 0.11255426E+00 0.20550450E+04</pdfrwt>
<totfact> 0.53030502E+00</totfact>
</mgrwt>
</event>
<event>
12    7  0.1909736E-007  0.1978084E+04  0.7818608E-02  0.8616936E-01
         -1   -1    0    0    0  501 -0.00000000000E+00  0.00000000000E+00  0.76758217566E+03  0.76758217566E+03  0.00000000000E+00 0.  1.
          2   -1    0    0  501    0  0.00000000000E+00 -0.00000000000E+00 -0.12743967575E+04  0.12743967575E+04  0.00000000000E+00 0. -1.
         24    2    1    2    0    0 -0.30203327018E+03 -0.46347178651E+03  0.37307254013E+03  0.67245539150E+03  0.83563988481E+02 0.  0.
        254    2    1    2    0    0  0.30203327018E+03  0.46347178651E+03 -0.87988712200E+03  0.13695235417E+04  0.89183136894E+03 0.  0.
         23    2    4    4    0    0  0.57146861761E+03  0.11527662304E+03 -0.59112241740E+03  0.83515095686E+03  0.90478326965E+02 0.  0.
         23    2    4    4    0    0 -0.26943534743E+03  0.34819516347E+03 -0.28876470460E+03  0.53437258484E+03  0.91289246350E+02 0.  0.
          2    1    3    3  502    0 -0.20386321316E+03 -0.23781741003E+03  0.20106136064E+03  0.37221364958E+03  0.00000000000E+00 0. -1.
         -1    1    3    3    0  502 -0.98170057023E+02 -0.22565437648E+03  0.17201117948E+03  0.30024174191E+03  0.00000000000E+00 0.  1.
         13    1    5    5    0    0  0.32484367927E+03  0.10987352706E+03 -0.32950589911E+03  0.47557307058E+03  0.00000000000E+00 0.  1.
        -13    1    5    5    0    0  0.24662493834E+03  0.54030959811E+01 -0.26161651829E+03  0.35957788628E+03  0.00000000000E+00 0. -1.
          2    1    6    6  503    0 -0.14671700710E+03  0.22201660081E+03 -0.12521028644E+03  0.29410009698E+03  0.00000000000E+00 0. -1.
         -2    1    6    6    0  503 -0.12271834033E+03  0.12617856265E+03 -0.16355441815E+03  0.24027248787E+03  0.00000000000E+00 0.  1.
<mgrwt>
<rscale>  0 0.19780842E+04</rscale>
<asrwt>0</asrwt>
<pdfrwt beam="1">  1        2 0.19606104E+00 0.19780842E+04</pdfrwt>
<pdfrwt beam="2">  1       -1 0.11808957E+00 0.19780842E+04</pdfrwt>
<totfact> 0.11690407E+01</totfact>
</mgrwt>
</event>
<event>
12    7  0.1909736E-007  0.3283268E+04  0.7818608E-02  0.8167166E-01
         -1   -1    0    0    0  501 -0.00000000000E+00  0.00000000000E+00  0.11044668092E+04  0.11044668092E+04  0.00000000000E+00 0.  1.
          2   -1    0    0  501    0  0.00000000000E+00 -0.00000000000E+00 -0.24400571454E+04  0.24400571454E+04  0.00000000000E+00 0. -1.
         24    2    1    2    0    0  0.56129964535E+03 -0.34388444697E+03 -0.20916264612E+04  0.21942038353E+04  0.79469570733E+02 0.  0.
        254    2    1    2    0    0 -0.56129964535E+03  0.34388444697E+03  0.75603612510E+03  0.13503201194E+04  0.90468779009E+03 0.  0.
         23    2    4    4    0    0 -0.90540361948E+02  0.46874169066E+03  0.69984071460E+03  0.85183496723E+03  0.89047492335E+02 0.  0.
         23    2    4    4    0    0 -0.47075928340E+03 -0.12485724370E+03  0.56195410508E+02  0.49848515212E+03  0.90143710305E+02 0.  0.
          2    1    3    3  502    0  0.44480375285E+03 -0.28588937399E+03 -0.17686167919E+04  0.18459654572E+04  0.00000000000E+00 0. -1.
         -1    1    3    3    0  502  0.11649589250E+03 -0.57995072973E+02 -0.32300966936E+03  0.34823837806E+03  0.00000000000E+00 0.  1.
         13    1    5    5    0    0 -0.69251029767E+02  0.17473423120E+03  0.22803168043E+03  0.29551007420E+03  0.00000000000E+00 0. -1.
        -13    1    5    5    0    0 -0.21289332181E+02  0.29400745947E+03  0.47180903417E+03  0.55632489303E+03  0.00000000000E+00 0.  1.
          4    1    6    6  503    0 -0.60905488152E+02 -0.23460782348E+02  0.38772520027E+02  0.75915710526E+02  0.00000000000E+00 0. -1.
         -4    1    6    6    0  503 -0.40985379525E+03 -0.10139646135E+03  0.17422890481E+02  0.42256944159E+03  0.00000000000E+00 0.  1.
<mgrwt>
<rscale>  0 0.32832680E+04</rscale>
<asrwt>0</asrwt>
<pdfrwt beam="1">  1        2 0.37539341E+00 0.32832680E+04</pdfrwt>
<pdfrwt beam="2">  1       -1 0.16991797E+00 0.32832680E+04</pdfrwt>
<totfact> 0.88292878E-01</totfact>
</mgrwt>
</event>
<event>
12    7  0.1909736E-007  0.5022616E+04  0.7818608E-02  0.7825028E-01
          2   -1    0    0  501    0  0.00000000000E+00  0.00000000000E+00  0.32837561182E+04  0.32837561182E+04  0.00000000000E+00 0. -1.
         -1   -1    0    0    0  501 -0.00000000000E+00 -0.00000000000E+00 -0.19205655787E+04  0.19205655787E+04  0.00000000000E+00 0.  1.
         24    2    1    2    0    0  0.19211366438E+04  0.14765001063E+04  0.93074128689E+03  0.25968344399E+04  0.80319344278E+02 0.  0.
        254    2    1    2    0    0 -0.19211366438E+04 -0.14765001063E+04  0.43244925262E+03  0.26074872571E+04  0.86090584363E+03 0.  0.
         23    2    4    4    0    0 -0.13377545175E+04 -0.62534524076E+03 -0.13724919384E+02  0.14796433023E+04  0.92261093661E+02 0.  0.
         23    2    4    4    0    0 -0.58338212629E+03 -0.85115486555E+03  0.44617417200E+03  0.11278439548E+04  0.90339825657E+02 0.  0.
          2    1    3    3  502    0  0.14686526073E+04  0.11700904833E+04  0.71326930662E+03  0.20086824846E+04  0.00000000000E+00 0. -1.
         -1    1    3    3    0  502  0.45248403651E+03  0.30640962296E+03  0.21747198028E+03  0.58815195532E+03  0.00000000000E+00 0.  1.
         13    1    5    5    0    0 -0.18144810234E+02 -0.21057486922E+02  0.43836491231E+01  0.28140154114E+02  0.00000000000E+00 0. -1.
        -13    1    5    5    0    0 -0.13196097073E+04 -0.60428775384E+03 -0.18108568507E+02  0.14515031482E+04  0.00000000000E+00 0.  1.
          1    1    6    6  503    0 -0.54657455757E+02 -0.40692570319E+02  0.31057555599E+02  0.74885876564E+02  0.00000000000E+00 0. -1.
         -1    1    6    6    0  503 -0.52872467054E+03 -0.81046229523E+03  0.41511661640E+03  0.10529580782E+04  0.00000000000E+00 0.  1.
<mgrwt>
<rscale>  0 0.50226164E+04</rscale>
<asrwt>0</asrwt>
<pdfrwt beam="1">  1        2 0.50519325E+00 0.50226164E+04</pdfrwt>
<pdfrwt beam="2">  1       -1 0.29547163E+00 0.50226164E+04</pdfrwt>
<totfact> 0.33276549E-02</totfact>
</mgrwt>
</event>
<event>
12    7  0.1909736E-007  0.1704418E+04  0.7818608E-02  0.8758849E-01
         -1   -1    0    0    0  501 -0.00000000000E+00  0.00000000000E+00  0.30535909094E+03  0.30535909094E+03  0.00000000000E+00 0.  1.
          2   -1    0    0  501    0  0.00000000000E+00 -0.00000000000E+00 -0.23783803499E+04  0.23783803499E+04  0.00000000000E+00 0. -1.
         24    2    1    2    0    0  0.37280820231E+03 -0.28331964844E+02 -0.15103968797E+04  0.15579745324E+04  0.78722635898E+02 0.  0.
        254    2    1    2    0    0 -0.37280820231E+03  0.28331964844E+02 -0.56262437920E+03  0.11257649084E+04  0.90056192512E+03 0.  0.
         23    2    4    4    0    0  0.26572974209E+03 -0.96537815169E+02 -0.69026482373E+02  0.30400190941E+03  0.87867286682E+02 0.  0.
         23    2    4    4    0    0 -0.63853794440E+03  0.12486978001E+03 -0.49359789683E+03  0.82176299899E+03  0.91281840248E+02 0.  0.
          2    1    3    3  502    0  0.34241343962E+03 -0.44751987894E+02 -0.14145727819E+04  0.14561132715E+04  0.00000000000E+00 0. -1.
         -1    1    3    3    0  502  0.30394762683E+02  0.16420023050E+02 -0.95824097804E+02  0.10186126092E+03  0.00000000000E+00 0.  1.
         13    1    5    5    0    0  0.56572605667E+00 -0.95192368546E+01 -0.17897670990E+02  0.20279609048E+02  0.00000000000E+00 0.  1.
        -13    1    5    5    0    0  0.26516401603E+03 -0.87018578314E+02 -0.51128811384E+02  0.28372230037E+03  0.00000000000E+00 0. -1.
          1    1    6    6  503    0 -0.44809264858E+03  0.51932492876E+02 -0.30983955139E+03  0.54725181876E+03  0.00000000000E+00 0. -1.
         -1    1    6    6    0  503 -0.19044529582E+03  0.72937287138E+02 -0.18375834544E+03  0.27451118023E+03  0.00000000000E+00 0.  1.
<mgrwt>
<rscale>  0 0.17044179E+04</rscale>
<asrwt>0</asrwt>
<pdfrwt beam="1">  1        2 0.36590466E+00 0.17044179E+04</pdfrwt>
<pdfrwt beam="2">  1       -1 0.46978323E-01 0.17044179E+04</pdfrwt>
<totfact> 0.20037593E+01</totfact>
</mgrwt>
</event>
<event>
12    7  0.1909736E-007  0.2130265E+04  0.7818608E-02  0.8548027E-01
         -1   -1    0    0    0  501 -0.00000000000E+00  0.00000000000E+00  0.68957822120E+03  0.68957822120E+03  0.00000000000E+00 0.  1.
          2   -1    0    0  501    0  0.00000000000E+00 -0.00000000000E+00 -0.16452193123E+04  0.16452193123E+04  0.00000000000E+00 0. -1.
         24    2    1    2    0    0 -0.80721204415E+03  0.17772396055E+03 -0.71092306688E+03  0.10931024311E+04  0.79273119673E+02 0.  0.
        254    2    1    2    0    0  0.80721204415E+03 -0.17772396055E+03 -0.24471802417E+03  0.12416951023E+04  0.89372407680E+03 0.  0.
         23    2    4    4    0    0  0.55187171828E+03 -0.53156423901E+03 -0.15629807975E+03  0.78785643235E+03  0.95737843306E+02 0.  0.
         23    2    4    4    0    0  0.25534032588E+03  0.35384027845E+03 -0.88419944414E+02  0.45383866999E+03  0.88033102489E+02 0.  0.
          4    1    3    3  502    0 -0.46882196471E+03  0.82109034979E+02 -0.45237868721E+03  0.65664480875E+03  0.00000000000E+00 0. -1.
         -3    1    3    3    0  502 -0.33839007944E+03  0.95614925574E+02 -0.25854437967E+03  0.43645762236E+03  0.00000000000E+00 0.  1.
         13    1    5    5    0    0  0.29129539787E+03 -0.26047554698E+03 -0.33088429918E+02  0.39216751981E+03  0.00000000000E+00 0.  1.
        -13    1    5    5    0    0  0.26057632040E+03 -0.27108869202E+03 -0.12320964983E+03  0.39568891254E+03  0.00000000000E+00 0. -1.
          2    1    6    6  503    0  0.20760902327E+03  0.32150567347E+03 -0.53491032784E+02  0.38643071203E+03  0.00000000000E+00 0. -1.
         -2    1    6    6    0  503  0.47731302606E+02  0.32334604984E+02 -0.34928911630E+02  0.67407957955E+02  0.00000000000E+00 0.  1.
<mgrwt>
<rscale>  0 0.21302652E+04</rscale>
<asrwt>0</asrwt>
<pdfrwt beam="1">  1        2 0.25311066E+00 0.21302652E+04</pdfrwt>
<pdfrwt beam="2">  1       -1 0.10608896E+00 0.21302652E+04</pdfrwt>
<totfact> 0.91549290E+00</totfact>
</mgrwt>
</event>
<event>
12    7  0.1909736E-007  0.1402981E+04  0.7818608E-02  0.8951663E-01
         -1   -1    0    0    0  501 -0.00000000000E+00  0.00000000000E+00  0.81213387258E+03  0.81213387258E+03  0.00000000000E+00 0.  1.
          2   -1    0    0  501    0  0.00000000000E+00 -0.00000000000E+00 -0.60592110284E+03  0.60592110284E+03  0.00000000000E+00 0. -1.
         24    2    1    2    0    0  0.19735624386E+03 -0.21162061346E+03 -0.22740952401E+03  0.37634366708E+03  0.78655534517E+02 0.  0.
        254    2    1    2    0    0 -0.19735624386E+03  0.21162061346E+03  0.43362229375E+03  0.10417113083E+04  0.90188767884E+03 0.  0.
         23    2    4    4    0    0 -0.43842043980E+03 -0.17548465614E+03  0.24805719112E+03  0.54091726198E+03  0.89731642500E+02 0.  0.
         23    2    4    4    0    0  0.24106419593E+03  0.38710526960E+03  0.18556510263E+03  0.50079404637E+03  0.91639692550E+02 0.  0.
          2    1    3    3  502    0  0.20434278597E+03 -0.20874437266E+03 -0.21938300647E+03  0.36532053162E+03  0.00000000000E+00 0. -1.
         -1    1    3    3    0  502 -0.69865421033E+01 -0.28762408015E+01 -0.80265175313E+01  0.11023135461E+02  0.00000000000E+00 0.  1.
         13    1    5    5    0    0 -0.41999259923E+03 -0.14415070476E+03  0.23416125111E+03  0.50200069782E+03  0.00000000000E+00 0. -1.
        -13    1    5    5    0    0 -0.18427840566E+02 -0.31333951378E+02  0.13895940011E+02  0.38916564155E+02  0.00000000000E+00 0.  1.
          3    1    6    6  503    0  0.24246365997E+03  0.36917754259E+03  0.16048189977E+03  0.46993097845E+03  0.00000000000E+00 0. -1.
         -3    1    6    6    0  503 -0.13994640337E+01  0.17927727010E+02  0.25083202861E+02  0.30863067914E+02  0.00000000000E+00 0.  1.
<mgrwt>
<rscale>  0 0.14029812E+04</rscale>
<asrwt>0</asrwt>
<pdfrwt beam="1">  1        2 0.93218631E-01 0.14029812E+04</pdfrwt>
<pdfrwt beam="2">  1       -1 0.12494367E+00 0.14029812E+04</pdfrwt>
<totfact> 0.30542201E+01</totfact>
</mgrwt>
</event>
<event>
12    7  0.1909736E-007  0.2622065E+04  0.7818608E-02  0.8360745E-01
          2   -1    0    0  501    0  0.00000000000E+00  0.00000000000E+00  0.12230131325E+04  0.12230131325E+04  0.00000000000E+00 0. -1.
         -1   -1    0    0    0  501 -0.00000000000E+00 -0.00000000000E+00 -0.14053862684E+04  0.14053862684E+04  0.00000000000E+00 0.  1.
         24    2    1    2    0    0 -0.32369623054E+03 -0.47237219021E+03 -0.10907347228E+04  0.12345260855E+04  0.80235182001E+02 0.  0.
        254    2    1    2    0    0  0.32369623054E+03  0.47237219021E+03  0.90836158693E+03  0.13938733154E+04  0.88873354332E+03 0.  0.
         23    2    4    4    0    0  0.34928191629E+03  0.63846506103E+03  0.94761976403E+03  0.11983694111E+04  0.92035520349E+02 0.  0.
         23    2    4    4    0    0 -0.25585685753E+02 -0.16609287082E+03 -0.39258177100E+02  0.19550390433E+03  0.91864591032E+02 0.  0.
          4    1    3    3  502    0 -0.44992747397E+02 -0.34432839398E+02 -0.76830993575E+02  0.95461873652E+02  0.00000000000E+00 0. -1.
         -3    1    3    3    0  502 -0.27870348314E+03 -0.43793935081E+03 -0.10139037292E+04  0.11390642118E+04  0.00000000000E+00 0.  1.
         13    1    5    5    0    0  0.94399228887E+02  0.20550301436E+03  0.23192188754E+03  0.32392972270E+03  0.00000000000E+00 0. -1.
        -13    1    5    5    0    0  0.25488268740E+03  0.43296204667E+03  0.71569787649E+03  0.87443968837E+03  0.00000000000E+00 0.  1.
          1    1    6    6  503    0  0.19916344037E+02 -0.13036078676E+03 -0.14835922070E+02  0.13270531289E+03  0.00000000000E+00 0. -1.
         -1    1    6    6    0  503 -0.45502029790E+02 -0.35732084059E+02 -0.24422255030E+02  0.62798591441E+02  0.00000000000E+00 0.  1.
<mgrwt>
<rscale>  0 0.26220647E+04</rscale>
<asrwt>0</asrwt>
<pdfrwt beam="1">  1        2 0.18815587E+00 0.26220647E+04</pdfrwt>
<pdfrwt beam="2">  1       -1 0.21621327E+00 0.26220647E+04</pdfrwt>
<totfact> 0.21546229E+00</totfact>
</mgrwt>
</event>
<event>
12    7  0.1909736E-007  0.2243711E+04  0.7818608E-02  0.8500452E-01
          2   -1    0    0  501    0  0.00000000000E+00  0.00000000000E+00  0.30796322309E+04  0.30796322309E+04  0.00000000000E+00 0. -1.
         -1   -1    0    0    0  501 -0.00000000000E+00 -0.00000000000E+00 -0.40867216639E+03  0.40867216639E+03  0.00000000000E+00 0.  1.
         24    2    1    2    0    0 -0.40578737269E+03 -0.66671873990E+03  0.30638803153E+03  0.84188832032E+03  0.75664047301E+02 0.  0.
        254    2    1    2    0    0  0.40578737269E+03  0.66671873990E+03  0.23645720330E+04  0.26464160769E+04  0.89618072023E+03 0.  0.
         23    2    4    4    0    0  0.23443149599E+03  0.47690001064E+03  0.23066627146E+04  0.23687730632E+04  0.89449425691E+02 0.  0.
         23    2    4    4    0    0  0.17135587670E+03  0.18981872926E+03  0.57909318395E+02  0.27764301374E+03  0.91313566703E+02 0.  0.
          2    1    3    3  502    0 -0.66628091947E+02 -0.10169193164E+03  0.19426116394E+02  0.12311752757E+03  0.00000000000E+00 0. -1.
         -1    1    3    3    0  502 -0.33915928075E+03 -0.56502680826E+03  0.28696191514E+03  0.71877079275E+03  0.00000000000E+00 0.  1.
         13    1    5    5    0    0  0.10931586846E+03  0.27871558483E+03  0.11294479588E+04  0.11684541189E+04  0.00000000000E+00 0. -1.
        -13    1    5    5    0    0  0.12511562754E+03  0.19818442580E+03  0.11772147558E+04  0.12003189443E+04  0.00000000000E+00 0.  1.
          1    1    6    6  503    0  0.15375156341E+03  0.11006934877E+03  0.30732239737E+02  0.19157054927E+03  0.00000000000E+00 0. -1.
         -1    1    6    6    0  503  0.17604313290E+02  0.79749380492E+02  0.27177078658E+02  0.86072464468E+02  0.00000000000E+00 0.  1.
<mgrwt>
<rscale>  0 0.22437112E+04</rscale>
<asrwt>0</asrwt>
<pdfrwt beam="1">  1        2 0.47378956E+00 0.22437112E+04</pdfrwt>
<pdfrwt beam="2">  1       -1 0.62872643E-01 0.22437112E+04</pdfrwt>
<totfact> 0.41281492E+00</totfact>
</mgrwt>
</event>
<event>
12    7  0.1909736E-007  0.1512376E+04  0.7818608E-02  0.8876264E-01
         -1   -1    0    0    0  501 -0.00000000000E+00  0.00000000000E+00  0.56661087542E+03  0.56661087542E+03  0.00000000000E+00 0.  1.
          2   -1    0    0  501    0  0.00000000000E+00 -0.00000000000E+00 -0.10091945313E+04  0.10091945313E+04  0.00000000000E+00 0. -1.
         24    2    1    2    0    0  0.34300866545E+03  0.28359652323E+03 -0.34327828134E+03  0.56767960073E+03  0.79612926578E+02 0.  0.
        254    2    1    2    0    0 -0.34300866545E+03 -0.28359652323E+03 -0.99305374536E+02  0.10081258060E+04  0.89909629668E+03 0.  0.
         23    2    4    4    0    0  0.13831518159E+03  0.65223338196E+02 -0.32111848137E+03  0.36711493822E+03  0.90945728225E+02 0.  0.
         23    2    4    4    0    0 -0.48132384704E+03 -0.34881986143E+03  0.22181310683E+03  0.64101086777E+03  0.91356098703E+02 0.  0.
          4    1    3    3  502    0  0.34035880684E+03  0.28290122425E+03 -0.34746217926E+03  0.56267858152E+03  0.00000000000E+00 0. -1.
         -3    1    3    3    0  502  0.26498586104E+01  0.69529898329E+00  0.41838979243E+01  0.50010192134E+01  0.00000000000E+00 0.  1.
         13    1    5    5    0    0  0.10286637975E+03 -0.52204595758E+00 -0.19747661144E+03  0.22266292165E+03  0.00000000000E+00 0.  1.
        -13    1    5    5    0    0  0.35448801844E+02  0.65745384154E+02 -0.12364186993E+03  0.14445201657E+03  0.00000000000E+00 0. -1.
          2    1    6    6  503    0 -0.40209996249E+03 -0.32892629063E+03  0.19768649486E+03  0.55583885682E+03  0.00000000000E+00 0. -1.
         -2    1    6    6    0  503 -0.79223884555E+02 -0.19893570798E+02  0.24126611973E+02  0.85172010945E+02  0.00000000000E+00 0.  1.
<mgrwt>
<rscale>  0 0.15123764E+04</rscale>
<asrwt>0</asrwt>
<pdfrwt beam="1">  1        2 0.15526070E+00 0.15123764E+04</pdfrwt>
<pdfrwt beam="2">  1       -1 0.87170904E-01 0.15123764E+04</pdfrwt>
<totfact> 0.35469712E+01</totfact>
</mgrwt>
</event>
<event>
12    7  0.1909736E-007  0.1274584E+04  0.7818608E-02  0.9049967E-01
          2   -1    0    0  501    0  0.00000000000E+00  0.00000000000E+00  0.33447239091E+03  0.33447239091E+03  0.00000000000E+00 0. -1.
         -1   -1    0    0    0  501 -0.00000000000E+00 -0.00000000000E+00 -0.12142730827E+04  0.12142730827E+04  0.00000000000E+00 0.  1.
         24    2    1    2    0    0  0.16188672145E+03 -0.87834925006E+02  0.84839048379E+02  0.21811937819E+03  0.80349949467E+02 0.  0.
        254    2    1    2    0    0 -0.16188672145E+03  0.87834925006E+02 -0.96463974015E+03  0.13306260954E+04  0.89783834449E+03 0.  0.
         23    2    4    4    0    0 -0.52193468665E+03 -0.73535266867E+01 -0.61916704304E+03  0.81474443153E+03  0.89279169101E+02 0.  0.
         23    2    4    4    0    0  0.36004796519E+03  0.95188451693E+02 -0.34547269711E+03  0.51588166387E+03  0.89928460962E+02 0.  0.
          2    1    3    3  502    0  0.72841088725E+02 -0.63831677395E+02  0.80253644537E+02  0.12578137663E+03  0.00000000000E+00 0. -1.
         -1    1    3    3    0  502  0.89045632729E+02 -0.24003247610E+02  0.45854038420E+01  0.92338001562E+02  0.00000000000E+00 0.  1.
         13    1    5    5    0    0 -0.40175347405E+03 -0.32411871754E+02 -0.43126916281E+03  0.59029609023E+03  0.00000000000E+00 0.  1.
        -13    1    5    5    0    0 -0.12018121260E+03  0.25058345068E+02 -0.18789788023E+03  0.22444834130E+03  0.00000000000E+00 0. -1.
          4    1    6    6  503    0  0.19499508313E+02 -0.10837636966E+02 -0.42078764731E+02  0.47626753414E+02  0.00000000000E+00 0. -1.
         -4    1    6    6    0  503  0.34054845688E+03  0.10602608866E+03 -0.30339393238E+03  0.46825491045E+03  0.00000000000E+00 0.  1.
<mgrwt>
<rscale>  0 0.12745836E+04</rscale>
<asrwt>0</asrwt>
<pdfrwt beam="1">  1        2 0.51457291E-01 0.12745836E+04</pdfrwt>
<pdfrwt beam="2">  1       -1 0.18681124E+00 0.12745836E+04</pdfrwt>
<totfact> 0.20343379E+01</totfact>
</mgrwt>
</event>
<event>
12    7  0.1909736E-007  0.1039765E+04  0.7818608E-02  0.9265975E-01
         -3   -1    0    0    0  501 -0.00000000000E+00  0.00000000000E+00  0.36126440502E+03  0.36126440502E+03  0.00000000000E+00 0.  1.
          2   -1    0    0  501    0  0.00000000000E+00 -0.00000000000E+00 -0.74814450299E+03  0.74814450299E+03  0.00000000000E+00 0. -1.
         24    2    1    2    0    0 -0.95480023007E+02  0.61816923694E+02  0.29996852536E+02  0.14425345875E+03  0.83495403179E+02 0.  0.
        254    2    1    2    0    0  0.95480023007E+02 -0.61816923694E+02 -0.41687695050E+03  0.96515544926E+03  0.86301847172E+03 0.  0.
         23    2    4    4    0    0 -0.30146776278E+03 -0.10707243575E+03 -0.44424050298E+03  0.55468315187E+03  0.89311007094E+02 0.  0.
         23    2    4    4    0    0  0.39694778579E+03  0.45255512053E+02  0.27363552477E+02  0.41047229739E+03  0.90128446708E+02 0.  0.
          4    1    3    3  502    0 -0.46159368787E+02  0.33804205222E+01  0.46951487460E+02  0.65928421371E+02  0.00000000000E+00 0. -1.
         -3    1    3    3    0  502 -0.49320654220E+02  0.58436503171E+02 -0.16954634925E+02  0.78325037382E+02  0.00000000000E+00 0.  1.
         13    1    5    5    0    0 -0.29746461767E+03 -0.11830707395E+03 -0.42567996678E+03  0.53262106289E+03  0.00000000000E+00 0.  1.
        -13    1    5    5    0    0 -0.40031451142E+01  0.11234638205E+02 -0.18560536194E+02  0.22062088981E+02  0.00000000000E+00 0. -1.
          4    1    6    6  503    0  0.19326582666E+03  0.23012417601E+02 -0.31792630519E+02  0.19721060436E+03  0.00000000000E+00 0. -1.
         -4    1    6    6    0  503  0.20368195913E+03  0.22243094452E+02  0.59156182995E+02  0.21326169303E+03  0.00000000000E+00 0.  1.
<mgrwt>
<rscale>  0 0.10397653E+04</rscale>
<asrwt>0</asrwt>
<pdfrwt beam="1">  1        2 0.11509915E+00 0.10397653E+04</pdfrwt>
<pdfrwt beam="2">  1       -3 0.55579140E-01 0.10397653E+04</pdfrwt>
<totfact> 0.75876384E+01</totfact>
</mgrwt>
</event>
<event>
12    7  0.1909736E-007  0.1759542E+04  0.7818608E-02  0.8728115E-01
          2   -1    0    0  501    0  0.00000000000E+00  0.00000000000E+00  0.21318772092E+04  0.21318772092E+04  0.00000000000E+00 0. -1.
         -1   -1    0    0    0  501 -0.00000000000E+00 -0.00000000000E+00 -0.36305895658E+03  0.36305895658E+03  0.00000000000E+00 0.  1.
         24    2    1    2    0    0 -0.58350948016E+03  0.42968823839E+02  0.10377032022E+04  0.11939901380E+04  0.80342270370E+02 0.  0.
        254    2    1    2    0    0  0.58350948016E+03 -0.42968823839E+02  0.73111505046E+03  0.13009460279E+04  0.90310670310E+03 0.  0.
         23    2    4    4    0    0  0.17671736280E+03  0.36081367980E+03  0.56093222885E+03  0.69601269621E+03  0.91505027608E+02 0.  0.
         23    2    4    4    0    0  0.40679211735E+03 -0.40378250364E+03  0.17018282161E+03  0.60493333167E+03  0.91989162415E+02 0.  0.
          2    1    3    3  502    0 -0.16998191950E+03  0.47467006617E+02  0.28733230024E+03  0.33720441936E+03  0.00000000000E+00 0. -1.
         -1    1    3    3    0  502 -0.41352756066E+03 -0.44981827782E+01  0.75037090197E+03  0.85678571860E+03  0.00000000000E+00 0.  1.
         13    1    5    5    0    0  0.13341428632E+02  0.45608235967E+02  0.12545271604E+03  0.13415099280E+03  0.00000000000E+00 0. -1.
        -13    1    5    5    0    0  0.16337593417E+03  0.31520544383E+03  0.43547951280E+03  0.56186170341E+03  0.00000000000E+00 0.  1.
          4    1    6    6  503    0  0.45861118174E+02 -0.84575496532E+02  0.80220411418E+01  0.96543305920E+02  0.00000000000E+00 0. -1.
         -4    1    6    6    0  503  0.36093099918E+03 -0.31920700711E+03  0.16216078047E+03  0.50839002575E+03  0.00000000000E+00 0.  1.
<mgrwt>
<rscale>  0 0.17595421E+04</rscale>
<asrwt>0</asrwt>
<pdfrwt beam="1">  1        2 0.32798110E+00 0.17595421E+04</pdfrwt>
<pdfrwt beam="2">  1       -1 0.55855225E-01 0.17595421E+04</pdfrwt>
<totfact> 0.19725348E+01</totfact>
</mgrwt>
</event>
<event>
12    7  0.1909736E-007  0.2165579E+04  0.7818608E-02  0.8532893E-01
          2   -1    0    0  501    0  0.00000000000E+00  0.00000000000E+00  0.17076197280E+04  0.17076197280E+04  0.00000000000E+00 0. -1.
         -1   -1    0    0    0  501 -0.00000000000E+00 -0.00000000000E+00 -0.68658905774E+03  0.68658905774E+03  0.00000000000E+00 0.  1.
         24    2    1    2    0    0 -0.36383778061E+03 -0.37281265038E+03  0.12240253354E+04  0.13324721656E+04  0.76660598232E+02 0.  0.
        254    2    1    2    0    0  0.36383778061E+03  0.37281265038E+03 -0.20299466520E+03  0.10617366201E+04  0.90261321372E+03 0.  0.
         23    2    4    4    0    0  0.95936374309E+02 -0.63684445158E+02 -0.45940922976E+03  0.48189567652E+03  0.88921910665E+02 0.  0.
         23    2    4    4    0    0  0.26790140630E+03  0.43649709554E+03  0.25641456456E+03  0.57984094362E+03  0.90367101720E+02 0.  0.
          4    1    3    3  502    0 -0.29720108323E+03 -0.32500068326E+03  0.10862754875E+04  0.11721554345E+04  0.00000000000E+00 0. -1.
         -3    1    3    3    0  502 -0.66636697382E+02 -0.47811967124E+02  0.13774984798E+03  0.16031673106E+03  0.00000000000E+00 0.  1.
         13    1    5    5    0    0 -0.89786344498E+00 -0.25815328483E+02 -0.21140710205E+03  0.21297934205E+03  0.00000000000E+00 0.  1.
        -13    1    5    5    0    0  0.96834237754E+02 -0.37869116675E+02 -0.24800212770E+03  0.26891633447E+03  0.00000000000E+00 0. -1.
          3    1    6    6  503    0  0.14768652126E+03  0.25020846899E+03  0.19454155925E+03  0.34965984155E+03  0.00000000000E+00 0. -1.
         -3    1    6    6    0  503  0.12021488504E+03  0.18628862655E+03  0.61873005306E+02  0.23018110207E+03  0.00000000000E+00 0.  1.
<mgrwt>
<rscale>  0 0.21655789E+04</rscale>
<asrwt>0</asrwt>
<pdfrwt beam="1">  1        2 0.26271073E+00 0.21655789E+04</pdfrwt>
<pdfrwt beam="2">  1       -1 0.10562909E+00 0.21655789E+04</pdfrwt>
<totfact> 0.85107328E+00</totfact>
</mgrwt>
</event>
<event>
12    7  0.1909736E-007  0.1458560E+04  0.7818608E-02  0.8912487E-01
         -1   -1    0    0    0  501 -0.00000000000E+00  0.00000000000E+00  0.50991891604E+03  0.50991891604E+03  0.00000000000E+00 0.  1.
          2   -1    0    0  501    0  0.00000000000E+00 -0.00000000000E+00 -0.10430081480E+04  0.10430081480E+04  0.00000000000E+00 0. -1.
         24    2    1    2    0    0 -0.42399046002E+03 -0.14506463088E+03 -0.14844189312E+03  0.47918989411E+03  0.82318294835E+02 0.  0.
        254    2    1    2    0    0  0.42399046002E+03  0.14506463088E+03 -0.38464733885E+03  0.10737371699E+04  0.89674203510E+03 0.  0.
         23    2    4    4    0    0 -0.91606814926E+02  0.30450025279E+03 -0.40828317504E+03  0.52558220168E+03  0.91811149705E+02 0.  0.
         23    2    4    4    0    0  0.51559727494E+03 -0.15943562190E+03  0.23635836189E+02  0.54815496827E+03  0.93031978526E+02 0.  0.
          2    1    3    3  502    0 -0.42665158678E+03 -0.14498370382E+03 -0.14238403959E+03  0.47257281513E+03  0.00000000000E+00 0. -1.
         -1    1    3    3    0  502  0.26611267599E+01 -0.80927066088E-01 -0.60578535270E+01  0.66170789762E+01  0.00000000000E+00 0.  1.
         13    1    5    5    0    0 -0.84815995190E+02  0.30820303223E+03 -0.38157922579E+03  0.49778064212E+03  0.00000000000E+00 0. -1.
        -13    1    5    5    0    0 -0.67908197357E+01 -0.37027794410E+01 -0.26703949248E+02  0.27801559555E+02  0.00000000000E+00 0.  1.
          3    1    6    6  503    0  0.39423153142E+03 -0.15983758611E+03  0.54716678061E+01  0.42543682662E+03  0.00000000000E+00 0. -1.
         -3    1    6    6    0  503  0.12136574352E+03  0.40196421078E+00  0.18164168383E+02  0.12271814165E+03  0.00000000000E+00 0.  1.
<mgrwt>
<rscale>  0 0.14585604E+04</rscale>
<asrwt>0</asrwt>
<pdfrwt beam="1">  1        2 0.16046279E+00 0.14585604E+04</pdfrwt>
<pdfrwt beam="2">  1       -1 0.78449064E-01 0.14585604E+04</pdfrwt>
<totfact> 0.42524826E+01</totfact>
</mgrwt>
</event>
<event>
12    7  0.1909736E-007  0.2332945E+04  0.7818608E-02  0.8465044E-01
         -1   -1    0    0    0  501 -0.00000000000E+00  0.00000000000E+00  0.11756076245E+04  0.11756076245E+04  0.00000000000E+00 0.  1.
          2   -1    0    0  501    0  0.00000000000E+00 -0.00000000000E+00 -0.11574082477E+04  0.11574082477E+04  0.00000000000E+00 0. -1.
         24    2    1    2    0    0  0.70030477584E+03 -0.67666201069E+03 -0.17158866457E+03  0.99256813566E+03  0.86316732670E+02 0.  0.
        254    2    1    2    0    0 -0.70030477584E+03  0.67666201069E+03  0.18978804135E+03  0.13404477365E+04  0.90137804376E+03 0.  0.
         23    2    4    4    0    0 -0.76241856381E+03  0.83457468664E+03  0.15318064728E+03  0.11444489255E+04  0.92206607115E+02 0.  0.
         23    2    4    4    0    0  0.62113787969E+02 -0.15791267595E+03  0.36607394064E+02  0.19599881094E+03  0.90999432459E+02 0.  0.
          4    1    3    3  502    0  0.35000201261E+03 -0.38718638265E+03 -0.66594362735E+02  0.52616491036E+03  0.00000000000E+00 0. -1.
         -3    1    3    3    0  502  0.35030276323E+03 -0.28947562805E+03 -0.10499430183E+03  0.46640322531E+03  0.00000000000E+00 0.  1.
         13    1    5    5    0    0 -0.17135822976E+03  0.13923820564E+03  0.13397229480E+02  0.22120218483E+03  0.00000000000E+00 0. -1.
        -13    1    5    5    0    0 -0.59106033406E+03  0.69533648101E+03  0.13978341780E+03  0.92324674070E+03  0.00000000000E+00 0.  1.
          3    1    6    6  503    0  0.61583688508E+02 -0.56962777160E+02  0.44092232917E+02  0.94770426165E+02  0.00000000000E+00 0. -1.
         -3    1    6    6    0  503  0.53009946117E+00 -0.10094989879E+03 -0.74848388528E+01  0.10122838477E+03  0.00000000000E+00 0.  1.
<mgrwt>
<rscale>  0 0.23329449E+04</rscale>
<asrwt>0</asrwt>
<pdfrwt beam="1">  1        2 0.17806281E+00 0.23329449E+04</pdfrwt>
<pdfrwt beam="2">  1       -1 0.18086271E+00 0.23329449E+04</pdfrwt>
<totfact> 0.42491258E+00</totfact>
</mgrwt>
</event>
<event>
12    7  0.1909736E-007  0.2357421E+04  0.7818608E-02  0.8455619E-01
         -1   -1    0    0    0  501 -0.00000000000E+00  0.00000000000E+00  0.86630313955E+03  0.86630313955E+03  0.00000000000E+00 0.  1.
          2   -1    0    0  501    0  0.00000000000E+00 -0.00000000000E+00 -0.16037780673E+04  0.16037780673E+04  0.00000000000E+00 0. -1.
         24    2    1    2    0    0  0.26633960865E+03 -0.65202259637E+03 -0.10622137479E+04  0.12769618441E+04  0.79140708929E+02 0.  0.
        254    2    1    2    0    0 -0.26633960865E+03  0.65202259637E+03  0.32473882010E+03  0.11931193628E+04  0.90664671135E+03 0.  0.
         23    2    4    4    0    0 -0.19763630816E+03 -0.17380494527E+03 -0.42255141560E+02  0.28179919047E+03  0.91416724154E+02 0.  0.
         23    2    4    4    0    0 -0.68703300493E+02  0.82582754165E+03  0.36699396166E+03  0.91132017230E+03  0.95439072142E+02 0.  0.
          4    1    3    3  502    0  0.23872967663E+03 -0.62740829976E+03 -0.10165221137E+04  0.12181749631E+04  0.00000000000E+00 0. -1.
         -3    1    3    3    0  502  0.27609932016E+02 -0.24614296617E+02 -0.45691634232E+02  0.58786881042E+02  0.00000000000E+00 0.  1.
         13    1    5    5    0    0 -0.15795005689E+03 -0.17883451675E+03 -0.36997159745E+02  0.24145143338E+03  0.00000000000E+00 0. -1.
        -13    1    5    5    0    0 -0.39686251271E+02  0.50295714758E+01 -0.52579818146E+01  0.40347757087E+02  0.00000000000E+00 0.  1.
          4    1    6    6  503    0 -0.79070462199E+02  0.72215648923E+03  0.29205329400E+03  0.78297973119E+03  0.00000000000E+00 0. -1.
         -4    1    6    6    0  503  0.10367161706E+02  0.10367105242E+03  0.74940667667E+02  0.12834044110E+03  0.00000000000E+00 0.  1.
<mgrwt>
<rscale>  0 0.23574206E+04</rscale>
<asrwt>0</asrwt>
<pdfrwt beam="1">  1        2 0.24673508E+00 0.23574206E+04</pdfrwt>
<pdfrwt beam="2">  1       -1 0.13327741E+00 0.23574206E+04</pdfrwt>
<totfact> 0.54292790E+00</totfact>
</mgrwt>
</event>
<event>
12    7  0.1909736E-007  0.1979203E+04  0.7818608E-02  0.8616406E-01
          2   -1    0    0  501    0  0.00000000000E+00  0.00000000000E+00  0.61410831820E+03  0.61410831820E+03  0.00000000000E+00 0. -1.
         -1   -1    0    0    0  501 -0.00000000000E+00 -0.00000000000E+00 -0.15946883433E+04  0.15946883433E+04  0.00000000000E+00 0.  1.
         24    2    1    2    0    0 -0.66228492803E+02  0.61746569840E+03  0.14180335186E+03  0.64158609202E+03  0.76644770989E+02 0.  0.
        254    2    1    2    0    0  0.66228492803E+02 -0.61746569840E+03 -0.11223833770E+04  0.15672105695E+04  0.90041902593E+03 0.  0.
         23    2    4    4    0    0  0.16986021654E+03  0.16593020438E+03 -0.10240511737E+03  0.27425611718E+03  0.91347051719E+02 0.  0.
         23    2    4    4    0    0 -0.10363172374E+03 -0.78339590277E+03 -0.10199782596E+04  0.12929544523E+04  0.83227946194E+02 0.  0.
          4    1    3    3  502    0 -0.18928473063E+02  0.47938131567E+03  0.10962183243E+03  0.49211957800E+03  0.00000000000E+00 0. -1.
         -3    1    3    3    0  502 -0.47300019740E+02  0.13808438272E+03  0.32181519424E+02  0.14946651402E+03  0.00000000000E+00 0.  1.
         13    1    5    5    0    0  0.10945988170E+03  0.13560377763E+03 -0.32974233075E+02  0.17736163693E+03  0.00000000000E+00 0.  1.
        -13    1    5    5    0    0  0.60400334846E+02  0.30326426751E+02 -0.69430884290E+02  0.96894480247E+02  0.00000000000E+00 0. -1.
          3    1    6    6  503    0 -0.13389814672E+02 -0.10413911617E+03 -0.93373039184E+02  0.14050895737E+03  0.00000000000E+00 0. -1.
         -3    1    6    6    0  503 -0.90241909066E+02 -0.67925678660E+03 -0.92660522042E+03  0.11524454949E+04  0.00000000000E+00 0.  1.
<mgrwt>
<rscale>  0 0.19792033E+04</rscale>
<asrwt>0</asrwt>
<pdfrwt beam="1">  1        2 0.94478205E-01 0.19792033E+04</pdfrwt>
<pdfrwt beam="2">  1       -1 0.24533666E+00 0.19792033E+04</pdfrwt>
<totfact> 0.38321523E+00</totfact>
</mgrwt>
</event>
<event>
12    7  0.1909736E-007  0.1953645E+04  0.7818608E-02  0.8628605E-01
         -1   -1    0    0    0  501 -0.00000000000E+00  0.00000000000E+00  0.44806264191E+03  0.44806264191E+03  0.00000000000E+00 0.  1.
          2   -1    0    0  501    0  0.00000000000E+00 -0.00000000000E+00 -0.21295728250E+04  0.21295728250E+04  0.00000000000E+00 0. -1.
         24    2    1    2    0    0 -0.59312139864E+03 -0.92058911177E+02 -0.12903586481E+04  0.14253874261E+04  0.80224916647E+02 0.  0.
        254    2    1    2    0    0  0.59312139864E+03  0.92058911177E+02 -0.39115153497E+03  0.11522480407E+04  0.90244567007E+03 0.  0.
         23    2    4    4    0    0  0.24050532974E+02  0.14360080367E+02  0.26110741913E+03  0.27831662145E+03  0.92186861348E+02 0.  0.
         23    2    4    4    0    0  0.56907086567E+03  0.77698830810E+02 -0.65225895410E+03  0.87393141929E+03  0.91845652859E+02 0.  0.
          4    1    3    3  502    0 -0.32921662701E+03 -0.69120864156E+02 -0.80467603574E+03  0.87216099652E+03  0.00000000000E+00 0. -1.
         -3    1    3    3    0  502 -0.26390477163E+03 -0.22938047021E+02 -0.48568261235E+03  0.55322642962E+03  0.00000000000E+00 0.  1.
         13    1    5    5    0    0  0.25154679541E+02 -0.35117287744E+01  0.11182969493E+02  0.27751557587E+02  0.00000000000E+00 0.  1.
        -13    1    5    5    0    0 -0.11041465674E+01  0.17871809142E+02  0.24992444964E+03  0.25056506386E+03  0.00000000000E+00 0. -1.
          4    1    6    6  503    0  0.25107638627E+03 -0.10281884090E+02 -0.29851241469E+03  0.39019832214E+03  0.00000000000E+00 0. -1.
         -4    1    6    6    0  503  0.31799447940E+03  0.87980714900E+02 -0.35374653942E+03  0.48373309714E+03  0.00000000000E+00 0.  1.
<mgrwt>
<rscale>  0 0.19536448E+04</rscale>
<asrwt>0</asrwt>
<pdfrwt beam="1">  1        2 0.32762659E+00 0.19536448E+04</pdfrwt>
<pdfrwt beam="2">  1       -1 0.68932715E-01 0.19536448E+04</pdfrwt>
<totfact> 0.12787892E+01</totfact>
</mgrwt>
</event>
<event>
12    7  0.1909736E-007  0.1824536E+04  0.7818608E-02  0.8693360E-01
          2   -1    0    0  501    0  0.00000000000E+00  0.00000000000E+00  0.10882800833E+04  0.10882800833E+04  0.00000000000E+00 0. -1.
         -1   -1    0    0    0  501 -0.00000000000E+00 -0.00000000000E+00 -0.76472267474E+03  0.76472267474E+03  0.00000000000E+00 0.  1.
         24    2    1    2    0    0  0.26550559456E+03  0.22258046710E+03  0.72765529305E+03  0.80992593074E+03  0.80389692807E+02 0.  0.
        254    2    1    2    0    0 -0.26550559456E+03 -0.22258046710E+03 -0.40409788445E+03  0.10430768273E+04  0.89703895259E+03 0.  0.
         23    2    4    4    0    0 -0.36529420778E+03 -0.87423447921E+01 -0.60864811699E+03  0.71574155906E+03  0.91198477025E+02 0.  0.
         23    2    4    4    0    0  0.99788613221E+02 -0.21383812231E+03  0.20455023255E+03  0.32733526829E+03  0.98097249462E+02 0.  0.
          2    1    3    3  502    0  0.15999791017E+03  0.91598202212E+02  0.43362099820E+03  0.47118651507E+03  0.00000000000E+00 0. -1.
         -1    1    3    3    0  502  0.10550768439E+03  0.13098226489E+03  0.29403429485E+03  0.33873941567E+03  0.00000000000E+00 0.  1.
         13    1    5    5    0    0 -0.19892080234E+02  0.21905667597E+02 -0.41052590244E+02  0.50605022426E+02  0.00000000000E+00 0.  1.
        -13    1    5    5    0    0 -0.34540212754E+03 -0.30648012389E+02 -0.56759552675E+03  0.66513653663E+03  0.00000000000E+00 0. -1.
          1    1    6    6  503    0  0.91682771664E+02 -0.15668419018E+03  0.98365335084E+02  0.20647373978E+03  0.00000000000E+00 0. -1.
         -1    1    6    6    0  503  0.81058415565E+01 -0.57153932125E+02  0.10618489746E+03  0.12086152851E+03  0.00000000000E+00 0.  1.
<mgrwt>
<rscale>  0 0.18245355E+04</rscale>
<asrwt>0</asrwt>
<pdfrwt beam="1">  1        2 0.16742770E+00 0.18245355E+04</pdfrwt>
<pdfrwt beam="2">  1       -1 0.11764964E+00 0.18245355E+04</pdfrwt>
<totfact> 0.15469843E+01</totfact>
</mgrwt>
</event>
<event>
12    7  0.1909736E-007  0.1915276E+04  0.7818608E-02  0.8647290E-01
          2   -1    0    0  501    0  0.00000000000E+00  0.00000000000E+00  0.11074895553E+04  0.11074895553E+04  0.00000000000E+00 0. -1.
         -1   -1    0    0    0  501 -0.00000000000E+00 -0.00000000000E+00 -0.82806229508E+03  0.82806229508E+03  0.00000000000E+00 0.  1.
         24    2    1    2    0    0 -0.57292946994E+03  0.30969810795E+03 -0.25233709932E+03  0.70303832410E+03  0.80173423675E+02 0.  0.
        254    2    1    2    0    0  0.57292946994E+03 -0.30969810795E+03  0.53176435950E+03  0.12325135262E+04  0.90119651726E+03 0.  0.
         23    2    4    4    0    0  0.25030769909E+03 -0.20717256147E+00 -0.22558595343E+03  0.34826059465E+03  0.87991091900E+02 0.  0.
         23    2    4    4    0    0  0.32262177085E+03 -0.30949093539E+03  0.75735031293E+03  0.88425293158E+03  0.91947291431E+02 0.  0.
          4    1    3    3  502    0 -0.55219856146E+03  0.30104765634E+03 -0.25812823941E+03  0.67984051854E+03  0.00000000000E+00 0. -1.
         -3    1    3    3    0  502 -0.20730908480E+02  0.86504516120E+01  0.57911400816E+01  0.23197805563E+02  0.00000000000E+00 0.  1.
         13    1    5    5    0    0  0.11529662608E+03 -0.30915207027E+02 -0.63918723189E+02  0.13540555818E+03  0.00000000000E+00 0. -1.
        -13    1    5    5    0    0  0.13501107301E+03  0.30708034465E+02 -0.16166723024E+03  0.21285503647E+03  0.00000000000E+00 0.  1.
          4    1    6    6  503    0  0.52413059690E+02 -0.25922757698E+02  0.15587094239E+03  0.16647783298E+03  0.00000000000E+00 0. -1.
         -4    1    6    6    0  503  0.27020871116E+03 -0.28356817769E+03  0.60147937055E+03  0.71777509861E+03  0.00000000000E+00 0.  1.
<mgrwt>
<rscale>  0 0.19152758E+04</rscale>
<asrwt>0</asrwt>
<pdfrwt beam="1">  1        2 0.17038301E+00 0.19152758E+04</pdfrwt>
<pdfrwt beam="2">  1       -1 0.12739420E+00 0.19152758E+04</pdfrwt>
<totfact> 0.12273930E+01</totfact>
</mgrwt>
</event>
<event>
12    7  0.1909736E-007  0.1626679E+04  0.7818608E-02  0.8804324E-01
          2   -1    0    0  501    0  0.00000000000E+00  0.00000000000E+00  0.18399757323E+04  0.18399757323E+04  0.00000000000E+00 0. -1.
         -1   -1    0    0    0  501 -0.00000000000E+00 -0.00000000000E+00 -0.35952701054E+03  0.35952701054E+03  0.00000000000E+00 0.  1.
         24    2    1    2    0    0 -0.15599464279E+03 -0.36660943991E+03 -0.22008230085E+02  0.40549751364E+03  0.72159970657E+02 0.  0.
        254    2    1    2    0    0  0.15599464279E+03  0.36660943991E+03  0.15024569518E+04  0.17940052292E+04  0.89573492743E+03 0.  0.
         23    2    4    4    0    0 -0.15859187179E+03 -0.23042641842E+03  0.53836996936E+03  0.61353298014E+03  0.91284049570E+02 0.  0.
         23    2    4    4    0    0  0.31458651457E+03  0.59703585833E+03  0.96408698247E+03  0.11804722490E+04  0.92922170182E+02 0.  0.
          2    1    3    3  502    0 -0.81579510333E+02 -0.15249527802E+03 -0.41902900179E+02  0.17794909207E+03  0.00000000000E+00 0. -1.
         -1    1    3    3    0  502 -0.74415132452E+02 -0.21411416190E+03  0.19894670094E+02  0.22754842157E+03  0.00000000000E+00 0.  1.
         13    1    5    5    0    0 -0.98805640420E+02 -0.20814825052E+03  0.42546405901E+03  0.48384699470E+03  0.00000000000E+00 0.  1.
        -13    1    5    5    0    0 -0.59786231367E+02 -0.22278167893E+02  0.11290591036E+03  0.12968598544E+03  0.00000000000E+00 0. -1.
          1    1    6    6  503    0  0.16915390821E+03  0.24233830996E+03  0.37181497298E+03  0.47496028810E+03  0.00000000000E+00 0. -1.
         -1    1    6    6    0  503  0.14543260636E+03  0.35469754837E+03  0.59227200949E+03  0.70551196094E+03  0.00000000000E+00 0.  1.
<mgrwt>
<rscale>  0 0.16266788E+04</rscale>
<asrwt>0</asrwt>
<pdfrwt beam="1">  1        2 0.28307318E+00 0.16266788E+04</pdfrwt>
<pdfrwt beam="2">  1       -1 0.55311849E-01 0.16266788E+04</pdfrwt>
<totfact> 0.29534915E+01</totfact>
</mgrwt>
</event>
<event>
12    7  0.1909736E-007  0.2324112E+04  0.7818608E-02  0.8468474E-01
          2   -1    0    0  501    0  0.00000000000E+00  0.00000000000E+00  0.64048440992E+03  0.64048440992E+03  0.00000000000E+00 0. -1.
         -1   -1    0    0    0  501 -0.00000000000E+00 -0.00000000000E+00 -0.21083635561E+04  0.21083635561E+04  0.00000000000E+00 0.  1.
         24    2    1    2    0    0 -0.77310320873E+03  0.32973341016E+03 -0.12657948498E+02  0.84516730119E+03  0.87947997248E+02 0.  0.
        254    2    1    2    0    0  0.77310320873E+03 -0.32973341016E+03 -0.14552211977E+04  0.19036806649E+04  0.89438171177E+03 0.  0.
         23    2    4    4    0    0  0.35647426121E+03 -0.59305047281E+03 -0.10414524931E+04  0.12535679745E+04  0.89591344973E+02 0.  0.
         23    2    4    4    0    0  0.41662894753E+03  0.26331706265E+03 -0.41376870461E+03  0.65011269036E+03  0.92338582686E+02 0.  0.
          4    1    3    3  502    0 -0.21574407696E+03  0.66051708443E+02 -0.34199802953E+02  0.22820596279E+03  0.00000000000E+00 0. -1.
         -3    1    3    3    0  502 -0.55735913177E+03  0.26368170171E+03  0.21541854455E+02  0.61696133840E+03  0.00000000000E+00 0.  1.
         13    1    5    5    0    0  0.33539338101E+03 -0.55898290592E+03 -0.10122430654E+04  0.12039878041E+04  0.00000000000E+00 0. -1.
        -13    1    5    5    0    0  0.21080880200E+02 -0.34067566890E+02 -0.29209427724E+02  0.49580170348E+02  0.00000000000E+00 0.  1.
          4    1    6    6  503    0  0.31163630415E+03  0.14691622740E+03 -0.29176412803E+03  0.45147300068E+03  0.00000000000E+00 0. -1.
         -4    1    6    6    0  503  0.10499264338E+03  0.11640083525E+03 -0.12200457659E+03  0.19863968968E+03  0.00000000000E+00 0.  1.
<mgrwt>
<rscale>  0 0.23241119E+04</rscale>
<asrwt>0</asrwt>
<pdfrwt beam="1">  1        2 0.98536062E-01 0.23241119E+04</pdfrwt>
<pdfrwt beam="2">  1       -1 0.32436363E+00 0.23241119E+04</pdfrwt>
<totfact> 0.10841929E+00</totfact>
</mgrwt>
</event>
<event>
12    7  0.1909736E-007  0.2259071E+04  0.7818608E-02  0.8494236E-01
         -1   -1    0    0    0  501 -0.00000000000E+00  0.00000000000E+00  0.56388985947E+03  0.56388985947E+03  0.00000000000E+00 0.  1.
          2   -1    0    0  501    0  0.00000000000E+00 -0.00000000000E+00 -0.22625879804E+04  0.22625879804E+04  0.00000000000E+00 0. -1.
         24    2    1    2    0    0  0.20391199911E+03  0.90406014003E+03 -0.46598229870E+03  0.10400973148E+04  0.75882022550E+02 0.  0.
        254    2    1    2    0    0 -0.20391199911E+03 -0.90406014003E+03 -0.12327158222E+04  0.17863805251E+04  0.90147780994E+03 0.  0.
         23    2    4    4    0    0 -0.29577522325E+03 -0.77143221741E+03 -0.37991586642E+03  0.91423286752E+03  0.94313422954E+02 0.  0.
         23    2    4    4    0    0  0.91863224145E+02 -0.13262792263E+03 -0.85279995580E+03  0.87214765755E+03  0.85701541089E+02 0.  0.
          2    1    3    3  502    0  0.14624213100E+03  0.66324589348E+03 -0.30335281449E+03  0.74384461157E+03  0.00000000000E+00 0. -1.
         -1    1    3    3    0  502  0.57669868106E+02  0.24081424655E+03 -0.16262948421E+03  0.29625270322E+03  0.00000000000E+00 0.  1.
         13    1    5    5    0    0 -0.12709448514E+03 -0.25416773921E+03 -0.16952739351E+03  0.33089845113E+03  0.00000000000E+00 0. -1.
        -13    1    5    5    0    0 -0.16868073812E+03 -0.51726447819E+03 -0.21038847292E+03  0.58333441639E+03  0.00000000000E+00 0.  1.
          3    1    6    6  503    0  0.99314927340E+02 -0.11765601081E+03 -0.62315287007E+03  0.64189242958E+03  0.00000000000E+00 0. -1.
         -3    1    6    6    0  503 -0.74517031946E+01 -0.14971911815E+02 -0.22964708572E+03  0.23025522796E+03  0.00000000000E+00 0.  1.
<mgrwt>
<rscale>  0 0.22590710E+04</rscale>
<asrwt>0</asrwt>
<pdfrwt beam="1">  1        2 0.34809046E+00 0.22590710E+04</pdfrwt>
<pdfrwt beam="2">  1       -1 0.86752285E-01 0.22590710E+04</pdfrwt>
<totfact> 0.64523690E+00</totfact>
</mgrwt>
</event>
<event>
12    7  0.1909736E-007  0.1257966E+04  0.7818608E-02  0.9063579E-01
          2   -1    0    0  501    0  0.00000000000E+00  0.00000000000E+00  0.23734345206E+04  0.23734345206E+04  0.00000000000E+00 0. -1.
         -1   -1    0    0    0  501 -0.00000000000E+00 -0.00000000000E+00 -0.16668666379E+03  0.16668666379E+03  0.00000000000E+00 0.  1.
         24    2    1    2    0    0 -0.16915117067E+03 -0.14006013980E+03  0.96645390740E+03  0.99442705424E+03  0.81382122012E+02 0.  0.
        254    2    1    2    0    0  0.16915117067E+03  0.14006013980E+03  0.12402939494E+04  0.15456941302E+04  0.89588632188E+03 0.  0.
         23    2    4    4    0    0  0.50510974597E+03  0.15972306499E+03  0.95519066507E+03  0.10959363883E+04  0.89666312848E+02 0.  0.
         23    2    4    4    0    0 -0.33595857530E+03 -0.19662925187E+02  0.28510328435E+03  0.44975774183E+03  0.87996299033E+02 0.  0.
          2    1    3    3  502    0 -0.57394662262E+02 -0.45637249541E+02  0.17796976418E+03  0.19248413639E+03  0.00000000000E+00 0. -1.
         -1    1    3    3    0  502 -0.11175650841E+03 -0.94422890262E+02  0.78848414322E+03  0.80194291785E+03  0.00000000000E+00 0.  1.
         13    1    5    5    0    0  0.97629843800E+02  0.53769324805E+02  0.26467363475E+03  0.28718436521E+03  0.00000000000E+00 0. -1.
        -13    1    5    5    0    0  0.40747990217E+03  0.10595374019E+03  0.69051703032E+03  0.80875202312E+03  0.00000000000E+00 0.  1.
          1    1    6    6  503    0 -0.98504845502E+02 -0.46282886978E+02  0.93443195855E+02  0.14344664885E+03  0.00000000000E+00 0. -1.
         -1    1    6    6    0  503 -0.23745372980E+03  0.26619961791E+02  0.19166008850E+03  0.30631109298E+03  0.00000000000E+00 0.  1.
<mgrwt>
<rscale>  0 0.12579664E+04</rscale>
<asrwt>0</asrwt>
<pdfrwt beam="1">  1        2 0.36514375E+00 0.12579664E+04</pdfrwt>
<pdfrwt beam="2">  1       -1 0.25644104E-01 0.12579664E+04</pdfrwt>
<totfact> 0.62051232E+01</totfact>
</mgrwt>
</event>
<event>
12    7  0.1909736E-007  0.1536538E+04  0.7818608E-02  0.8860512E-01
         -3   -1    0    0    0  501 -0.00000000000E+00  0.00000000000E+00  0.41714565665E+03  0.41714565665E+03  0.00000000000E+00 0.  1.
          2   -1    0    0  501    0  0.00000000000E+00 -0.00000000000E+00 -0.14149433159E+04  0.14149433159E+04  0.00000000000E+00 0. -1.
         24    2    1    2    0    0  0.49368576903E+02 -0.43322480827E+03 -0.61999728644E+03  0.76205748717E+03  0.78828850530E+02 0.  0.
        254    2    1    2    0    0 -0.49368576903E+02  0.43322480827E+03 -0.37780037276E+03  0.10700314853E+04  0.90117327250E+03 0.  0.
         23    2    4    4    0    0  0.19376648223E+03  0.45047816777E+03  0.11583175952E+03  0.51215163535E+03  0.91685723045E+02 0.  0.
         23    2    4    4    0    0 -0.24313505913E+03 -0.17253359495E+02 -0.49363213228E+03  0.55787984998E+03  0.90249152900E+02 0.  0.
          2    1    3    3  502    0  0.15527751442E+02 -0.24630584138E+03 -0.28547557090E+03  0.37736451893E+03  0.00000000000E+00 0. -1.
         -1    1    3    3    0  502  0.33840825460E+02 -0.18691896689E+03 -0.33452171553E+03  0.38469296824E+03  0.00000000000E+00 0.  1.
         13    1    5    5    0    0  0.87594708593E+02  0.25388202549E+03  0.10528921509E+03  0.28846964252E+03  0.00000000000E+00 0. -1.
        -13    1    5    5    0    0  0.10617177364E+03  0.19659614228E+03  0.10542544433E+02  0.22368199283E+03  0.00000000000E+00 0.  1.
          2    1    6    6  503    0 -0.18538915364E+03  0.19252873948E+02 -0.40620841900E+03  0.44692850783E+03  0.00000000000E+00 0. -1.
         -2    1    6    6    0  503 -0.57745905493E+02 -0.36506233443E+02 -0.87423713280E+02  0.11095134215E+03  0.00000000000E+00 0.  1.
<mgrwt>
<rscale>  0 0.15365383E+04</rscale>
<asrwt>0</asrwt>
<pdfrwt beam="1">  1        2 0.21768359E+00 0.15365383E+04</pdfrwt>
<pdfrwt beam="2">  1       -3 0.64176254E-01 0.15365383E+04</pdfrwt>
<totfact> 0.20540875E+01</totfact>
</mgrwt>
</event>
<event>
12    7  0.1909736E-007  0.1443781E+04  0.7818608E-02  0.8922723E-01
         -1   -1    0    0    0  501 -0.00000000000E+00  0.00000000000E+00  0.20681874658E+03  0.20681874658E+03  0.00000000000E+00 0.  1.
          2   -1    0    0  501    0  0.00000000000E+00 -0.00000000000E+00 -0.25197233396E+04  0.25197233396E+04  0.00000000000E+00 0. -1.
         24    2    1    2    0    0  0.27370447771E+03 -0.13758145634E+03 -0.12787691854E+04  0.13174249303E+04  0.80715668189E+02 0.  0.
        254    2    1    2    0    0 -0.27370447771E+03  0.13758145634E+03 -0.10341354076E+04  0.14091171559E+04  0.90682540742E+03 0.  0.
         23    2    4    4    0    0 -0.43580266938E+03 -0.36344004966E+02 -0.12398748474E+03  0.46393863524E+03  0.92850996514E+02 0.  0.
         23    2    4    4    0    0  0.16209819167E+03  0.17392546130E+03 -0.91014792285E+03  0.94517852065E+03  0.92017958086E+02 0.  0.
          2    1    3    3  502    0  0.16116696768E+03 -0.85716528721E+02 -0.58985302732E+03  0.61745340602E+03  0.00000000000E+00 0. -1.
         -1    1    3    3    0  502  0.11253751003E+03 -0.51864927615E+02 -0.68891615807E+03  0.69997152423E+03  0.00000000000E+00 0.  1.
         13    1    5    5    0    0 -0.23547199500E+03 -0.65976214898E+02 -0.66037287757E+02  0.25329991065E+03  0.00000000000E+00 0.  1.
        -13    1    5    5    0    0 -0.20033067438E+03  0.29632209931E+02 -0.57950196987E+02  0.21063872459E+03  0.00000000000E+00 0. -1.
          1    1    6    6  503    0  0.11555912311E+03  0.94064527913E+02 -0.69868448156E+03  0.71439628437E+03  0.00000000000E+00 0. -1.
         -1    1    6    6    0  503  0.46539068558E+02  0.79860933389E+02 -0.21146344129E+03  0.23078223629E+03  0.00000000000E+00 0.  1.
<mgrwt>
<rscale>  0 0.14437812E+04</rscale>
<asrwt>0</asrwt>
<pdfrwt beam="1">  1        2 0.38764970E+00 0.14437812E+04</pdfrwt>
<pdfrwt beam="2">  1       -1 0.31818272E-01 0.14437812E+04</pdfrwt>
<totfact> 0.34575226E+01</totfact>
</mgrwt>
</event>
<event>
12    7  0.1909736E-007  0.2581350E+04  0.7818608E-02  0.8374564E-01
          2   -1    0    0  501    0  0.00000000000E+00  0.00000000000E+00  0.75162618471E+03  0.75162618471E+03  0.00000000000E+00 0. -1.
         -1   -1    0    0    0  501 -0.00000000000E+00 -0.00000000000E+00 -0.22163178674E+04  0.22163178674E+04  0.00000000000E+00 0.  1.
         24    2    1    2    0    0  0.18239605283E+03 -0.22217972454E+02 -0.19366830118E+04  0.19469375921E+04  0.77864888035E+02 0.  0.
        254    2    1    2    0    0 -0.18239605283E+03  0.22217972454E+02  0.47199132917E+03  0.10210064600E+04  0.88651927116E+03 0.  0.
         23    2    4    4    0    0  0.13098061204E+03 -0.10426289875E+03  0.61438728600E+03  0.64290171226E+03  0.88454517373E+02 0.  0.
         23    2    4    4    0    0 -0.31337666488E+03  0.12648087120E+03 -0.14239595683E+03  0.37810474773E+03  0.92109971566E+02 0.  0.
          4    1    3    3  502    0  0.51515559609E+01 -0.10481816781E+02 -0.33395809509E+02  0.35379190276E+02  0.00000000000E+00 0. -1.
         -3    1    3    3    0  502  0.17724449687E+03 -0.11736155673E+02 -0.19032872023E+04  0.19115584018E+04  0.00000000000E+00 0.  1.
         13    1    5    5    0    0  0.20522233417E+02 -0.20960040785E+02  0.27262701922E+03  0.27420061448E+03  0.00000000000E+00 0.  1.
        -13    1    5    5    0    0  0.11045837863E+03 -0.83302857961E+02  0.34176026678E+03  0.36870109778E+03  0.00000000000E+00 0. -1.
          1    1    6    6  503    0 -0.30529971106E+03  0.10826950979E+03 -0.11397242527E+03  0.34339469135E+03  0.00000000000E+00 0. -1.
         -1    1    6    6    0  503 -0.80769538172E+01  0.18211361412E+02 -0.28423531562E+02  0.34710056379E+02  0.00000000000E+00 0.  1.
<mgrwt>
<rscale>  0 0.25813505E+04</rscale>
<asrwt>0</asrwt>
<pdfrwt beam="1">  1        2 0.11563480E+00 0.25813505E+04</pdfrwt>
<pdfrwt beam="2">  1       -1 0.34097198E+00 0.25813505E+04</pdfrwt>
<totfact> 0.67375100E-01</totfact>
</mgrwt>
</event>
<event>
12    7  0.1909736E-007  0.1655715E+04  0.7818608E-02  0.8787033E-01
         -1   -1    0    0    0  501 -0.00000000000E+00  0.00000000000E+00  0.17981358303E+04  0.17981358303E+04  0.00000000000E+00 0.  1.
          2   -1    0    0  501    0  0.00000000000E+00 -0.00000000000E+00 -0.38114344666E+03  0.38114344666E+03  0.00000000000E+00 0. -1.
         24    2    1    2    0    0 -0.57300554049E+03  0.20011649354E+03  0.52650102324E+03  0.80808236444E+03  0.86091926567E+02 0.  0.
        254    2    1    2    0    0  0.57300554049E+03 -0.20011649354E+03  0.89049136042E+03  0.13711969126E+04  0.84783497780E+03 0.  0.
         23    2    4    4    0    0  0.44391479413E+03 -0.39880318062E+03  0.93528859776E+03  0.11133316765E+04  0.92942667451E+02 0.  0.
         23    2    4    4    0    0  0.12909074635E+03  0.19868668708E+03 -0.44797237338E+02  0.25786523607E+03  0.91361190247E+02 0.  0.
          4    1    3    3  502    0 -0.43963194614E+03  0.15207810266E+03  0.44893606237E+03  0.64648865842E+03  0.00000000000E+00 0. -1.
         -3    1    3    3    0  502 -0.13337359435E+03  0.48038390885E+02  0.77564960879E+02  0.16159370602E+03  0.00000000000E+00 0.  1.
         13    1    5    5    0    0  0.20118713569E+01  0.35309040795E+01  0.18626448622E+02  0.19064613771E+02  0.00000000000E+00 0.  1.
        -13    1    5    5    0    0  0.44190292277E+03 -0.40233408470E+03  0.91666214914E+03  0.10942670627E+04  0.00000000000E+00 0. -1.
          3    1    6    6  503    0  0.11008309359E+03  0.88836283304E+02 -0.36406765888E+02  0.14606719456E+03  0.00000000000E+00 0. -1.
         -3    1    6    6    0  503  0.19007652764E+02  0.10985040377E+03 -0.83904714495E+01  0.11179804150E+03  0.00000000000E+00 0.  1.
<mgrwt>
<rscale>  0 0.16557146E+04</rscale>
<asrwt>0</asrwt>
<pdfrwt beam="1">  1        2 0.58637454E-01 0.16557146E+04</pdfrwt>
<pdfrwt beam="2">  1       -1 0.27663628E+00 0.16557146E+04</pdfrwt>
<totfact> 0.42959256E+00</totfact>
</mgrwt>
</event>
<event>
12    7  0.1909736E-007  0.1566723E+04  0.7818608E-02  0.8841256E-01
         -1   -1    0    0    0  501 -0.00000000000E+00  0.00000000000E+00  0.21539038113E+04  0.21539038113E+04  0.00000000000E+00 0.  1.
          2   -1    0    0  501    0  0.00000000000E+00 -0.00000000000E+00 -0.28490362520E+03  0.28490362520E+03  0.00000000000E+00 0. -1.
         24    2    1    2    0    0  0.25846554989E+03  0.33950587595E+03  0.16135552549E+03  0.46198965360E+03  0.73007904665E+02 0.  0.
        254    2    1    2    0    0 -0.25846554989E+03 -0.33950587595E+03  0.17076446606E+04  0.19768177829E+04  0.89982752767E+03 0.  0.
         23    2    4    4    0    0  0.53886417730E+02 -0.14639701824E+03  0.15602350004E+04  0.15705709237E+04  0.89576430733E+02 0.  0.
         23    2    4    4    0    0 -0.31235196762E+03 -0.19310885772E+03  0.14740966021E+03  0.40624685918E+03  0.91935412483E+02 0.  0.
          4    1    3    3  502    0  0.25801070779E+03  0.32754095915E+03  0.14444116478E+03  0.44126619556E+03  0.00000000000E+00 0. -1.
         -3    1    3    3    0  502  0.45484210480E+00  0.11964916798E+02  0.16914360707E+02  0.20723458048E+02  0.00000000000E+00 0.  1.
         13    1    5    5    0    0  0.78571790650E+02 -0.99974575515E+02  0.11329508915E+04  0.11400641055E+04  0.00000000000E+00 0.  1.
        -13    1    5    5    0    0 -0.24685372921E+02 -0.46422442723E+02  0.42728410891E+03  0.43050681824E+03  0.00000000000E+00 0. -1.
          4    1    6    6  503    0 -0.22106422349E+03 -0.89412323145E+02  0.11295688490E+03  0.26386210847E+03  0.00000000000E+00 0.  1.
         -4    1    6    6    0  503 -0.91287744129E+02 -0.10369653457E+03  0.34452775310E+02  0.14238475072E+03  0.00000000000E+00 0. -1.
<mgrwt>
<rscale>  0 0.15667227E+04</rscale>
<asrwt>0</asrwt>
<pdfrwt beam="1">  1        2 0.43831328E-01 0.15667227E+04</pdfrwt>
<pdfrwt beam="2">  1       -1 0.33136981E+00 0.15667227E+04</pdfrwt>
<totfact> 0.26492743E+00</totfact>
</mgrwt>
</event>
<event>
12    7  0.1909736E-007  0.1431506E+04  0.7818608E-02  0.8931323E-01
          2   -1    0    0  501    0  0.00000000000E+00  0.00000000000E+00  0.94983601324E+03  0.94983601324E+03  0.00000000000E+00 0. -1.
         -1   -1    0    0    0  501 -0.00000000000E+00 -0.00000000000E+00 -0.53935907470E+03  0.53935907470E+03  0.00000000000E+00 0.  1.
         24    2    1    2    0    0  0.37209180243E+02 -0.34674834430E+03 -0.13014016386E+03  0.38073674081E+03  0.80031657387E+02 0.  0.
        254    2    1    2    0    0 -0.37209180243E+02  0.34674834430E+03  0.54061710240E+03  0.11084583471E+04  0.90265946988E+03 0.  0.
         23    2    4    4    0    0 -0.38184314478E+03 -0.90042166975E+02  0.19165986822E+03  0.44587169443E+03  0.90312146248E+02 0.  0.
         23    2    4    4    0    0  0.34463396453E+03  0.43679051127E+03  0.34895723418E+03  0.66258665271E+03  0.87700631749E+02 0.  0.
          4    1    3    3  502    0  0.11584786074E+02 -0.54114578284E+01  0.35311115055E+01  0.13264987473E+02  0.00000000000E+00 0. -1.
         -3    1    3    3    0  502  0.25624394169E+02 -0.34133688647E+03 -0.13367127536E+03  0.36747175333E+03  0.00000000000E+00 0.  1.
         13    1    5    5    0    0 -0.38000193460E+03 -0.80218373701E+02  0.19593339095E+03  0.43500155341E+03  0.00000000000E+00 0. -1.
        -13    1    5    5    0    0 -0.18412101760E+01 -0.98237932746E+01 -0.42735227321E+01  0.10870141018E+02  0.00000000000E+00 0.  1.
          2    1    6    6  503    0  0.10782479942E+03  0.20336902858E+03  0.15723773010E+03  0.27876307669E+03  0.00000000000E+00 0.  1.
         -2    1    6    6    0  503  0.23680916512E+03  0.23342148269E+03  0.19171950408E+03  0.38382357602E+03  0.00000000000E+00 0. -1.
<mgrwt>
<rscale>  0 0.14315064E+04</rscale>
<asrwt>0</asrwt>
<pdfrwt beam="1">  1        2 0.14612862E+00 0.14315064E+04</pdfrwt>
<pdfrwt beam="2">  1       -1 0.82978319E-01 0.14315064E+04</pdfrwt>
<totfact> 0.43414734E+01</totfact>
</mgrwt>
</event>
<event>
12    7  0.1909736E-007  0.4534625E+04  0.7818608E-02  0.7904603E-01
          2   -1    0    0  501    0  0.00000000000E+00  0.00000000000E+00  0.16006537078E+04  0.16006537078E+04  0.00000000000E+00 0. -1.
         -1   -1    0    0    0  501 -0.00000000000E+00 -0.00000000000E+00 -0.32116295151E+04  0.32116295151E+04  0.00000000000E+00 0.  1.
         24    2    1    2    0    0  0.20066384619E+04 -0.68948216976E+03 -0.12846179503E+04  0.24817341007E+04  0.82324292084E+02 0.  0.
        254    2    1    2    0    0 -0.20066384619E+04  0.68948216976E+03 -0.32635785698E+03  0.23305491221E+04  0.90717483456E+03 0.  0.
         23    2    4    4    0    0 -0.86087687583E+03  0.58005648573E+03 -0.51247447323E+03  0.11612475534E+04  0.91056425592E+02 0.  0.
         23    2    4    4    0    0 -0.11457615861E+04  0.10942568403E+03  0.18611661625E+03  0.11693015687E+04  0.88787224271E+02 0.  0.
          4    1    3    3  502    0  0.15362416137E+04 -0.55683023390E+03 -0.10134487182E+04  0.19228043347E+04  0.00000000000E+00 0. -1.
         -3    1    3    3    0  502  0.47039684825E+03 -0.13265193586E+03 -0.27116923212E+03  0.55892976605E+03  0.00000000000E+00 0.  1.
         13    1    5    5    0    0 -0.22448559501E+03  0.19518991347E+03 -0.16782988912E+03  0.34155490974E+03  0.00000000000E+00 0.  1.
        -13    1    5    5    0    0 -0.63639128082E+03  0.38486657226E+03 -0.34464458411E+03  0.81969264368E+03  0.00000000000E+00 0. -1.
          3    1    6    6  503    0 -0.97977898646E+03  0.12205567718E+03  0.14617141319E+03  0.99811348687E+03  0.00000000000E+00 0. -1.
         -3    1    6    6    0  503 -0.16598259966E+03 -0.12629993148E+02  0.39945203057E+02  0.17118808184E+03  0.00000000000E+00 0.  1.
<mgrwt>
<rscale>  0 0.45346253E+04</rscale>
<asrwt>0</asrwt>
<pdfrwt beam="1">  1        2 0.24625442E+00 0.45346253E+04</pdfrwt>
<pdfrwt beam="2">  1       -1 0.49409684E+00 0.45346253E+04</pdfrwt>
<totfact> 0.15668073E-02</totfact>
</mgrwt>
</event>
<event>
12    7  0.1909736E-007  0.3511634E+04  0.7818608E-02  0.8111038E-01
         -1   -1    0    0    0  501 -0.00000000000E+00  0.00000000000E+00  0.11911125145E+04  0.11911125145E+04  0.00000000000E+00 0.  1.
          2   -1    0    0  501    0  0.00000000000E+00 -0.00000000000E+00 -0.25882462442E+04  0.25882462442E+04  0.00000000000E+00 0. -1.
         24    2    1    2    0    0  0.50186228949E+03 -0.70515183181E+03  0.84547000211E+03  0.12124577422E+04  0.78290411556E+02 0.  0.
        254    2    1    2    0    0 -0.50186228949E+03  0.70515183181E+03 -0.22426037318E+04  0.25669010165E+04  0.90033575239E+03 0.  0.
         23    2    4    4    0    0 -0.30789830064E+03  0.27988631643E+03 -0.19752657098E+04  0.20206765120E+04  0.91220764106E+02 0.  0.
         23    2    4    4    0    0 -0.19396398885E+03  0.42526551538E+03 -0.26733802194E+03  0.54622450452E+03  0.91754039790E+02 0.  0.
          2    1    3    3  502    0  0.21644431573E+03 -0.34629829633E+03  0.44092947526E+03  0.60099039428E+03  0.00000000000E+00 0. -1.
         -1    1    3    3    0  502  0.28541797376E+03 -0.35885353548E+03  0.40454052684E+03  0.61146734788E+03  0.00000000000E+00 0.  1.
         13    1    5    5    0    0 -0.15417342646E+03  0.90334897160E+02 -0.71435332239E+03  0.73636302751E+03  0.00000000000E+00 0. -1.
        -13    1    5    5    0    0 -0.15372487419E+03  0.18955141927E+03 -0.12609123875E+04  0.12843134844E+04  0.00000000000E+00 0.  1.
          1    1    6    6  503    0 -0.10577253069E+03  0.14433252237E+03 -0.13084950974E+03  0.22167836941E+03  0.00000000000E+00 0. -1.
         -1    1    6    6    0  503 -0.88191458157E+02  0.28093299301E+03 -0.13648851219E+03  0.32454613511E+03  0.00000000000E+00 0.  1.
<mgrwt>
<rscale>  0 0.35116335E+04</rscale>
<asrwt>0</asrwt>
<pdfrwt beam="1">  1        2 0.39819173E+00 0.35116335E+04</pdfrwt>
<pdfrwt beam="2">  1       -1 0.18324808E+00 0.35116335E+04</pdfrwt>
<totfact> 0.56880757E-01</totfact>
</mgrwt>
</event>
<event>
12    7  0.1909736E-007  0.2758539E+04  0.7818608E-02  0.8316257E-01
          2   -1    0    0  501    0  0.00000000000E+00  0.00000000000E+00  0.13108544655E+04  0.13108544655E+04  0.00000000000E+00 0. -1.
         -1   -1    0    0    0  501 -0.00000000000E+00 -0.00000000000E+00 -0.14512556487E+04  0.14512556487E+04  0.00000000000E+00 0.  1.
         24    2    1    2    0    0  0.28764029580E+03  0.84469663483E+03  0.78617171266E+03  0.11920050589E+04  0.80998481042E+02 0.  0.
        254    2    1    2    0    0 -0.28764029580E+03 -0.84469663483E+03 -0.92657289592E+03  0.15701050553E+04  0.90024619339E+03 0.  0.
         23    2    4    4    0    0 -0.25377522110E+03  0.10866804896E+03 -0.11156111462E+03  0.31203061108E+03  0.93309229164E+02 0.  0.
         23    2    4    4    0    0 -0.33865074698E+02 -0.95336468379E+03 -0.81501178130E+03  0.12580744443E+04  0.91956729350E+02 0.  0.
          2    1    3    3  502    0  0.20647637071E+03  0.48864577388E+03  0.44958648487E+03  0.69536694728E+03  0.00000000000E+00 0. -1.
         -1    1    3    3    0  502  0.81163925086E+02  0.35605086095E+03  0.33658522780E+03  0.49663811160E+03  0.00000000000E+00 0.  1.
         13    1    5    5    0    0 -0.85446013704E+02  0.79231108739E+02 -0.20226007057E+02  0.11826952782E+03  0.00000000000E+00 0.  1.
        -13    1    5    5    0    0 -0.16832920740E+03  0.29436940225E+02 -0.91335107564E+02  0.19376108326E+03  0.00000000000E+00 0. -1.
          1    1    6    6  503    0  0.35626102162E+01 -0.57137272540E+01 -0.18129001073E+02  0.19339067986E+02  0.00000000000E+00 0. -1.
         -1    1    6    6    0  503 -0.37427684915E+02 -0.94765095654E+03 -0.79688278022E+03  0.12387353763E+04  0.00000000000E+00 0.  1.
<mgrwt>
<rscale>  0 0.27585394E+04</rscale>
<asrwt>0</asrwt>
<pdfrwt beam="1">  1        2 0.20166992E+00 0.27585394E+04</pdfrwt>
<pdfrwt beam="2">  1       -1 0.22327010E+00 0.27585394E+04</pdfrwt>
<totfact> 0.16957708E+00</totfact>
</mgrwt>
</event>
<event>
12    7  0.1909736E-007  0.1570665E+04  0.7818608E-02  0.8838775E-01
         -1   -1    0    0    0  501 -0.00000000000E+00  0.00000000000E+00  0.70311128017E+03  0.70311128017E+03  0.00000000000E+00 0.  1.
          2   -1    0    0  501    0  0.00000000000E+00 -0.00000000000E+00 -0.87716832654E+03  0.87716832654E+03  0.00000000000E+00 0. -1.
         24    2    1    2    0    0  0.38011873647E+03 -0.22243898261E+03 -0.35293523816E+03  0.56981941376E+03  0.78495395813E+02 0.  0.
        254    2    1    2    0    0 -0.38011873647E+03  0.22243898261E+03  0.17887819179E+03  0.10104601929E+04  0.89166307495E+03 0.  0.
         23    2    4    4    0    0 -0.13127530921E+03  0.21863754465E+03 -0.33533748400E+03  0.43159064406E+03  0.93721252290E+02 0.  0.
         23    2    4    4    0    0 -0.24884342726E+03  0.38014379547E+01  0.51421567579E+03  0.57886954888E+03  0.93459569750E+02 0.  0.
          2    1    3    3  502    0  0.84478475531E+02 -0.49763823840E+02 -0.39708766885E+02  0.10578202663E+03  0.00000000000E+00 0. -1.
         -1    1    3    3    0  502  0.29564026094E+03 -0.17267515877E+03 -0.31322647128E+03  0.46403738713E+03  0.00000000000E+00 0.  1.
         13    1    5    5    0    0 -0.78783273994E+02  0.77952586239E+02 -0.20370792773E+03  0.23190586405E+03  0.00000000000E+00 0. -1.
        -13    1    5    5    0    0 -0.52492035216E+02  0.14068495841E+03 -0.13162955627E+03  0.19968478001E+03  0.00000000000E+00 0.  1.
          2    1    6    6  503    0 -0.13622303462E+03 -0.42416279552E+02  0.24732701801E+03  0.28552847453E+03  0.00000000000E+00 0.  1.
         -2    1    6    6    0  503 -0.11262039264E+03  0.46217717507E+02  0.26688865778E+03  0.29334107435E+03  0.00000000000E+00 0. -1.
<mgrwt>
<rscale>  0 0.15706648E+04</rscale>
<asrwt>0</asrwt>
<pdfrwt beam="1">  1        2 0.13494897E+00 0.15706648E+04</pdfrwt>
<pdfrwt beam="2">  1       -1 0.10817097E+00 0.15706648E+04</pdfrwt>
<totfact> 0.26478778E+01</totfact>
</mgrwt>
</event>
<event>
12    7  0.1909736E-007  0.1324001E+04  0.7818608E-02  0.9010746E-01
         -1   -1    0    0    0  501 -0.00000000000E+00  0.00000000000E+00  0.29366417402E+03  0.29366417402E+03  0.00000000000E+00 0.  1.
          2   -1    0    0  501    0  0.00000000000E+00 -0.00000000000E+00 -0.14923319115E+04  0.14923319115E+04  0.00000000000E+00 0. -1.
         24    2    1    2    0    0  0.20825496643E+03 -0.14024375529E+03 -0.65939371598E+03  0.71006842038E+03  0.79741124989E+02 0.  0.
        254    2    1    2    0    0 -0.20825496643E+03  0.14024375529E+03 -0.53927402150E+03  0.10759276651E+04  0.89652965839E+03 0.  0.
         23    2    4    4    0    0 -0.11054727481E+03 -0.27481840559E+03 -0.55993730168E+03  0.63908370195E+03  0.84571509743E+02 0.  0.
         23    2    4    4    0    0 -0.97707691622E+02  0.41506216088E+03  0.20663280182E+02  0.43684396318E+03  0.92640631593E+02 0.  0.
          2    1    3    3  502    0  0.11675375651E+03 -0.47804358460E+02 -0.40739680668E+03  0.42648429565E+03  0.00000000000E+00 0. -1.
         -1    1    3    3    0  502  0.91501209918E+02 -0.92439396827E+02 -0.25199690930E+03  0.28358412473E+03  0.00000000000E+00 0.  1.
         13    1    5    5    0    0 -0.18077982670E+02 -0.56838952207E+02 -0.53906346045E+02  0.80395112347E+02  0.00000000000E+00 0. -1.
        -13    1    5    5    0    0 -0.92469292137E+02 -0.21797945339E+03 -0.50603095563E+03  0.55868858960E+03  0.00000000000E+00 0.  1.
          4    1    6    6  503    0 -0.51287361915E+02  0.35426707850E+03  0.13936232990E+01  0.35796298494E+03  0.00000000000E+00 0.  1.
         -4    1    6    6    0  503 -0.46420329707E+02  0.60795082381E+02  0.19269656883E+02  0.78880978241E+02  0.00000000000E+00 0. -1.
<mgrwt>
<rscale>  0 0.13240006E+04</rscale>
<asrwt>0</asrwt>
<pdfrwt beam="1">  1        2 0.22958952E+00 0.13240006E+04</pdfrwt>
<pdfrwt beam="2">  1       -1 0.45179105E-01 0.13240006E+04</pdfrwt>
<totfact> 0.69479345E+01</totfact>
</mgrwt>
</event>
<event>
12    7  0.1909736E-007  0.1189819E+04  0.7818608E-02  0.9121815E-01
          2   -1    0    0  501    0  0.00000000000E+00  0.00000000000E+00  0.11772200018E+04  0.11772200018E+04  0.00000000000E+00 0. -1.
         -1   -1    0    0    0  501 -0.00000000000E+00 -0.00000000000E+00 -0.30063826104E+03  0.30063826104E+03  0.00000000000E+00 0.  1.
         24    2    1    2    0    0 -0.61284677689E+02 -0.23872327294E+03  0.20344434497E+03  0.32936244155E+03  0.79658041931E+02 0.  0.
        254    2    1    2    0    0  0.61284677689E+02  0.23872327294E+03  0.67313739575E+03  0.11484958213E+04  0.89732050301E+03 0.  0.
         23    2    4    4    0    0 -0.13078425907E+03 -0.26925595888E+03  0.46410085892E+03  0.55943496391E+03  0.89300491518E+02 0.  0.
         23    2    4    4    0    0  0.19206893676E+03  0.50797923181E+03  0.20903653683E+03  0.58906085734E+03  0.91449677387E+02 0.  0.
          4    1    3    3  502    0 -0.80488568426E+02 -0.18485631379E+03  0.15288690451E+03  0.25303097037E+03  0.00000000000E+00 0. -1.
         -3    1    3    3    0  502  0.19203890738E+02 -0.53866959144E+02  0.50557440460E+02  0.76331471182E+02  0.00000000000E+00 0.  1.
         13    1    5    5    0    0 -0.12716975041E+03 -0.23812987494E+03  0.35537662682E+03  0.44628525592E+03  0.00000000000E+00 0. -1.
        -13    1    5    5    0    0 -0.36145086653E+01 -0.31126083939E+02  0.10872423210E+03  0.11314970800E+03  0.00000000000E+00 0.  1.
          3    1    6    6  503    0  0.19334819107E+03  0.42019232567E+03  0.16751712038E+03  0.49194217055E+03  0.00000000000E+00 0. -1.
         -3    1    6    6    0  503 -0.12792543048E+01  0.87786906145E+02  0.41519416444E+02  0.97118686790E+02  0.00000000000E+00 0.  1.
<mgrwt>
<rscale>  0 0.11898191E+04</rscale>
<asrwt>0</asrwt>
<pdfrwt beam="1">  1        2 0.18111077E+00 0.11898191E+04</pdfrwt>
<pdfrwt beam="2">  1       -1 0.46252041E-01 0.11898191E+04</pdfrwt>
<totfact> 0.10231175E+02</totfact>
</mgrwt>
</event>
<event>
12    7  0.1909736E-007  0.2055316E+04  0.7818608E-02  0.8581187E-01
         -1   -1    0    0    0  501 -0.00000000000E+00  0.00000000000E+00  0.32804279900E+03  0.32804279900E+03  0.00000000000E+00 0.  1.
          2   -1    0    0  501    0  0.00000000000E+00 -0.00000000000E+00 -0.32193381336E+04  0.32193381336E+04  0.00000000000E+00 0. -1.
         24    2    1    2    0    0  0.73709763921E+03  0.34978744420E+03 -0.13972502882E+04  0.16199161048E+04  0.78457841010E+02 0.  0.
        254    2    1    2    0    0 -0.73709763921E+03 -0.34978744420E+03 -0.14940450464E+04  0.19274648278E+04  0.90403864739E+03 0.  0.
         23    2    4    4    0    0 -0.29136269077E+03  0.11165132303E+03 -0.30017359099E+02  0.32660244535E+03  0.91705397629E+02 0.  0.
         23    2    4    4    0    0 -0.44573494845E+03 -0.46143876723E+03 -0.14640276873E+04  0.16008623825E+04  0.88192506898E+02 0.  0.
          2    1    3    3  502    0  0.54154125908E+03  0.26207396768E+03 -0.95952642937E+03  0.11325372702E+04  0.00000000000E+00 0. -1.
         -1    1    3    3    0  502  0.19555638014E+03  0.87713476521E+02 -0.43772385887E+03  0.48737883458E+03  0.00000000000E+00 0.  1.
         13    1    5    5    0    0 -0.11439128410E+03  0.88783648121E+02  0.44048389206E+01  0.14486995775E+03  0.00000000000E+00 0. -1.
        -13    1    5    5    0    0 -0.17697140667E+03  0.22867674914E+02 -0.34422198019E+02  0.18173248760E+03  0.00000000000E+00 0.  1.
          2    1    6    6  503    0 -0.24029893298E+03 -0.23339664933E+03 -0.86910669628E+03  0.93143116902E+03  0.00000000000E+00 0. -1.
         -2    1    6    6    0  503 -0.20543601546E+03 -0.22804211790E+03 -0.59492099102E+03  0.66943121345E+03  0.00000000000E+00 0.  1.
<mgrwt>
<rscale>  0 0.20553157E+04</rscale>
<asrwt>0</asrwt>
<pdfrwt beam="1">  1        2 0.49528279E+00 0.20553157E+04</pdfrwt>
<pdfrwt beam="2">  1       -1 0.50468122E-01 0.20553157E+04</pdfrwt>
<totfact> 0.52445286E+00</totfact>
</mgrwt>
</event>
<event>
12    7  0.1909736E-007  0.1276670E+04  0.7818608E-02  0.9048273E-01
         -1   -1    0    0    0  501 -0.00000000000E+00  0.00000000000E+00  0.47485079543E+03  0.47485079543E+03  0.00000000000E+00 0.  1.
          2   -1    0    0  501    0  0.00000000000E+00 -0.00000000000E+00 -0.85810494053E+03  0.85810494053E+03  0.00000000000E+00 0. -1.
         24    2    1    2    0    0 -0.26251891303E+03  0.11583827834E+03 -0.23430380212E+03  0.37913099081E+03  0.80668147863E+02 0.  0.
        254    2    1    2    0    0  0.26251891303E+03 -0.11583827834E+03 -0.14895034298E+03  0.95382474515E+03  0.89736322264E+03 0.  0.
         23    2    4    4    0    0  0.33140102297E+03  0.29399044203E+03 -0.24999753699E+03  0.51678126475E+03  0.91143233771E+02 0.  0.
         23    2    4    4    0    0 -0.68882109942E+02 -0.40982872037E+03  0.10104719402E+03  0.43704348040E+03  0.89956340688E+02 0.  0.
          2    1    3    3  502    0 -0.26714529395E+03  0.10940998405E+03 -0.23325832026E+03  0.37114228627E+03  0.00000000000E+00 0. -1.
         -1    1    3    3    0  502  0.46263809219E+01  0.64282942937E+01 -0.10454818676E+01  0.79887045443E+01  0.00000000000E+00 0.  1.
         13    1    5    5    0    0  0.52971272919E+02  0.36340180654E+02 -0.75764667120E+02  0.99332015325E+02  0.00000000000E+00 0. -1.
        -13    1    5    5    0    0  0.27842975005E+03  0.25765026137E+03 -0.17423286987E+03  0.41744924942E+03  0.00000000000E+00 0.  1.
          1    1    6    6  503    0 -0.64896965473E+02 -0.40606063552E+03  0.11077760385E+03  0.42587384677E+03  0.00000000000E+00 0.  1.
         -1    1    6    6    0  503 -0.39851444692E+01 -0.37680848501E+01 -0.97304098346E+01  0.11169633630E+02  0.00000000000E+00 0. -1.
<mgrwt>
<rscale>  0 0.12766704E+04</rscale>
<asrwt>0</asrwt>
<pdfrwt beam="1">  1        2 0.13201614E+00 0.12766704E+04</pdfrwt>
<pdfrwt beam="2">  1       -1 0.73053969E-01 0.12766704E+04</pdfrwt>
<totfact> 0.66326490E+01</totfact>
</mgrwt>
</event>
<event>
12    7  0.1909736E-007  0.3105732E+04  0.7818608E-02  0.8214167E-01
         -3   -1    0    0    0  501 -0.00000000000E+00  0.00000000000E+00  0.10919298242E+04  0.10919298242E+04  0.00000000000E+00 0.  1.
          2   -1    0    0  501    0  0.00000000000E+00 -0.00000000000E+00 -0.22083766048E+04  0.22083766048E+04  0.00000000000E+00 0. -1.
         24    2    1    2    0    0 -0.60766512856E+03 -0.89833041875E+03 -0.14921654881E+04  0.18463858815E+04  0.79552058065E+02 0.  0.
        254    2    1    2    0    0  0.60766512856E+03  0.89833041875E+03  0.37571870746E+03  0.14539205475E+04  0.89244941687E+03 0.  0.
         23    2    4    4    0    0  0.73910950030E+03  0.91392347728E+03  0.46763235423E+03  0.12684522545E+04  0.93552805843E+02 0.  0.
         23    2    4    4    0    0 -0.13144437174E+03 -0.15593058535E+02 -0.91913646766E+02  0.18546829302E+03  0.91812869011E+02 0.  0.
          4    1    3    3  502    0 -0.44546807540E+03 -0.63803123957E+03 -0.10111215314E+04  0.12758888745E+04  0.00000000000E+00 0. -1.
         -3    1    3    3    0  502 -0.16219705316E+03 -0.26029917918E+03 -0.48104395670E+03  0.57049700702E+03  0.00000000000E+00 0.  1.
         13    1    5    5    0    0  0.14061401972E+03  0.20599292021E+03  0.64790652567E+02  0.25768821156E+03  0.00000000000E+00 0. -1.
        -13    1    5    5    0    0  0.59849548059E+03  0.70793055708E+03  0.40284170166E+03  0.10107640430E+04  0.00000000000E+00 0.  1.
          2    1    6    6  503    0 -0.11786275669E+03 -0.45017189686E+02 -0.59010311778E+02  0.13928529599E+03  0.00000000000E+00 0. -1.
         -2    1    6    6    0  503 -0.13581615049E+02  0.29424131150E+02 -0.32903334988E+02  0.46182997030E+02  0.00000000000E+00 0.  1.
<mgrwt>
<rscale>  0 0.31057317E+04</rscale>
<asrwt>0</asrwt>
<pdfrwt beam="1">  1        2 0.33975024E+00 0.31057317E+04</pdfrwt>
<pdfrwt beam="2">  1       -3 0.16798921E+00 0.31057317E+04</pdfrwt>
<totfact> 0.65695028E-01</totfact>
</mgrwt>
</event>
<event>
12    7  0.1909736E-007  0.1318806E+04  0.7818608E-02  0.9014783E-01
          2   -1    0    0  501    0  0.00000000000E+00  0.00000000000E+00  0.77012024061E+03  0.77012024061E+03  0.00000000000E+00 0. -1.
         -1   -1    0    0    0  501 -0.00000000000E+00 -0.00000000000E+00 -0.56460329461E+03  0.56460329461E+03  0.00000000000E+00 0.  1.
         24    2    1    2    0    0  0.10008671908E+03 -0.18789233116E+03  0.35534275276E+03  0.41920925247E+03  0.64397561861E+02 0.  0.
        254    2    1    2    0    0 -0.10008671908E+03  0.18789233116E+03 -0.14982580676E+03  0.91551428275E+03  0.87772304864E+03 0.  0.
         23    2    4    4    0    0 -0.10608159157E+03  0.12117802454E+03 -0.50748787167E+03  0.53986347634E+03  0.89281663810E+02 0.  0.
         23    2    4    4    0    0  0.59948724919E+01  0.66714306621E+02  0.35766206492E+03  0.37565080641E+03  0.93298652039E+02 0.  0.
          2    1    3    3  502    0  0.85871307920E+02 -0.18360468934E+03  0.30107762233E+03  0.36294944295E+03  0.00000000000E+00 0. -1.
         -1    1    3    3    0  502  0.14215411156E+02 -0.42876418260E+01  0.54265130428E+02  0.56259809519E+02  0.00000000000E+00 0.  1.
         13    1    5    5    0    0 -0.10792111466E+03  0.71211813583E+02 -0.41565369789E+03  0.43529999535E+03  0.00000000000E+00 0.  1.
        -13    1    5    5    0    0  0.18395230906E+01  0.49966210960E+02 -0.91834173784E+02  0.10456348099E+03  0.00000000000E+00 0. -1.
          1    1    6    6  503    0  0.95284677634E+01 -0.15357046801E+01  0.23529502906E+03  0.23549288903E+03  0.00000000000E+00 0. -1.
         -1    1    6    6    0  503 -0.35335952715E+01  0.68250011301E+02  0.12236703586E+03  0.14015791738E+03  0.00000000000E+00 0.  1.
<mgrwt>
<rscale>  0 0.13188062E+04</rscale>
<asrwt>0</asrwt>
<pdfrwt beam="1">  1        2 0.11848004E+00 0.13188062E+04</pdfrwt>
<pdfrwt beam="2">  1       -1 0.86862045E-01 0.13188062E+04</pdfrwt>
<totfact> 0.52903773E+01</totfact>
</mgrwt>
</event>
<event>
12    7  0.1909736E-007  0.2601195E+04  0.7818608E-02  0.8367795E-01
          2   -1    0    0  501    0  0.00000000000E+00  0.00000000000E+00  0.28542259124E+04  0.28542259124E+04  0.00000000000E+00 0. -1.
         -1   -1    0    0    0  501 -0.00000000000E+00 -0.00000000000E+00 -0.59264893623E+03  0.59264893623E+03  0.00000000000E+00 0.  1.
         24    2    1    2    0    0  0.69302276787E+03  0.90164393103E+03  0.84223190624E+03  0.14173367946E+04  0.79035879000E+02 0.  0.
        254    2    1    2    0    0 -0.69302276787E+03 -0.90164393103E+03  0.14193450699E+04  0.20295380541E+04  0.90068970809E+03 0.  0.
         23    2    4    4    0    0  0.16271379360E+03 -0.23352736149E+02  0.62759065978E+02  0.19851362104E+03  0.91912069186E+02 0.  0.
         23    2    4    4    0    0 -0.85573656147E+03 -0.87829119488E+03  0.13565860039E+04  0.18310244330E+04  0.92975279637E+02 0.  0.
          4    1    3    3  502    0  0.46395252529E+03  0.57110119328E+03  0.50415391371E+03  0.89195273832E+03  0.00000000000E+00 0. -1.
         -3    1    3    3    0  502  0.22907024258E+03  0.33054273775E+03  0.33807799253E+03  0.52538405624E+03  0.00000000000E+00 0.  1.
         13    1    5    5    0    0  0.10430851953E+02 -0.13287605861E+02 -0.18962530605E+02  0.25395682880E+02  0.00000000000E+00 0.  1.
        -13    1    5    5    0    0  0.15228294164E+03 -0.10065130288E+02  0.81721596583E+02  0.17311793816E+03  0.00000000000E+00 0. -1.
          3    1    6    6  503    0 -0.65358713886E+03 -0.66155317693E+03  0.96824459175E+03  0.13425074836E+04  0.00000000000E+00 0. -1.
         -3    1    6    6    0  503 -0.20214942261E+03 -0.21673801796E+03  0.38834141220E+03  0.48851694947E+03  0.00000000000E+00 0.  1.
<mgrwt>
<rscale>  0 0.26011951E+04</rscale>
<asrwt>0</asrwt>
<pdfrwt beam="1">  1        2 0.43911167E+00 0.26011951E+04</pdfrwt>
<pdfrwt beam="2">  1       -1 0.91176761E-01 0.26011951E+04</pdfrwt>
<totfact> 0.25293280E+00</totfact>
</mgrwt>
</event>
<event>
12    7  0.1909736E-007  0.1839447E+04  0.7818608E-02  0.8685599E-01
          2   -1    0    0  501    0  0.00000000000E+00  0.00000000000E+00  0.58815854467E+03  0.58815854467E+03  0.00000000000E+00 0. -1.
         -1   -1    0    0    0  501 -0.00000000000E+00 -0.00000000000E+00 -0.14382026745E+04  0.14382026745E+04  0.00000000000E+00 0.  1.
         24    2    1    2    0    0  0.25619470050E+03 -0.48651197702E+03 -0.78820321046E+03  0.96444018566E+03  0.80937892125E+02 0.  0.
        254    2    1    2    0    0 -0.25619470050E+03  0.48651197702E+03 -0.61840919317E+02  0.10619210335E+04  0.90637870322E+03 0.  0.
         23    2    4    4    0    0 -0.77783058512E+02  0.45419750892E+03 -0.43321351476E+03  0.63884575394E+03  0.90024255969E+02 0.  0.
         23    2    4    4    0    0 -0.17841164199E+03  0.32314468102E+02  0.37137259544E+03  0.42307527952E+03  0.90554672133E+02 0.  0.
          2    1    3    3  502    0  0.27736271801E+02 -0.18613671712E+02 -0.67580565123E+02  0.75385027229E+02  0.00000000000E+00 0. -1.
         -1    1    3    3    0  502  0.22845842870E+03 -0.46789830531E+03 -0.72062264534E+03  0.88905515843E+03  0.00000000000E+00 0.  1.
         13    1    5    5    0    0 -0.12073839979E+02  0.13517510428E+02 -0.10813681346E+01  0.18156818473E+02  0.00000000000E+00 0.  1.
        -13    1    5    5    0    0 -0.65709218533E+02  0.44067999849E+03 -0.43213214663E+03  0.62068893547E+03  0.00000000000E+00 0. -1.
          2    1    6    6  503    0 -0.15894432689E+03  0.50243008440E+02  0.35436891271E+03  0.39161841791E+03  0.00000000000E+00 0. -1.
         -2    1    6    6    0  503 -0.19467315099E+02 -0.17928540337E+02  0.17003682729E+02  0.31456861607E+02  0.00000000000E+00 0.  1.
<mgrwt>
<rscale>  0 0.18394469E+04</rscale>
<asrwt>0</asrwt>
<pdfrwt beam="1">  1        2 0.90485931E-01 0.18394469E+04</pdfrwt>
<pdfrwt beam="2">  1       -1 0.22126195E+00 0.18394469E+04</pdfrwt>
<totfact> 0.58936666E+00</totfact>
</mgrwt>
</event>
<event>
12    7  0.1909736E-007  0.1269672E+04  0.7818608E-02  0.9053967E-01
         -1   -1    0    0    0  501 -0.00000000000E+00  0.00000000000E+00  0.16493465442E+03  0.16493465442E+03  0.00000000000E+00 0.  1.
          2   -1    0    0  501    0  0.00000000000E+00 -0.00000000000E+00 -0.24434932420E+04  0.24434932420E+04  0.00000000000E+00 0. -1.
         24    2    1    2    0    0 -0.71948838355E+02  0.21156361847E+03 -0.99731699154E+03  0.10251640250E+04  0.79901792471E+02 0.  0.
        254    2    1    2    0    0  0.71948838355E+02 -0.21156361847E+03 -0.12812415960E+04  0.15832638714E+04  0.90288906255E+03 0.  0.
         23    2    4    4    0    0  0.12434343870E+03 -0.47943198600E+03 -0.36242910023E+03  0.62037902822E+03  0.90548141915E+02 0.  0.
         23    2    4    4    0    0 -0.52394600349E+02  0.26786836754E+03 -0.91881249576E+03  0.96288484322E+03  0.91826806813E+02 0.  0.
          4    1    3    3  502    0 -0.50957547488E+02  0.12666701636E+03 -0.76171755089E+03  0.77385711343E+03  0.00000000000E+00 0. -1.
         -3    1    3    3    0  502 -0.20991290867E+02  0.84896602105E+02 -0.23559944065E+03  0.25130691152E+03  0.00000000000E+00 0.  1.
         13    1    5    5    0    0  0.18668854295E+02 -0.68921813373E+02 -0.96240279654E+02  0.11983711406E+03  0.00000000000E+00 0.  1.
        -13    1    5    5    0    0  0.10567458441E+03 -0.41051017263E+03 -0.26618882058E+03  0.50054191416E+03  0.00000000000E+00 0. -1.
          1    1    6    6  503    0 -0.10855517673E+02  0.83219626134E+02 -0.44173629374E+03  0.44963796730E+03  0.00000000000E+00 0.  1.
         -1    1    6    6    0  503 -0.41539082676E+02  0.18464874140E+03 -0.47707620203E+03  0.51324687591E+03  0.00000000000E+00 0. -1.
<mgrwt>
<rscale>  0 0.12696719E+04</rscale>
<asrwt>0</asrwt>
<pdfrwt beam="1">  1        2 0.37592203E+00 0.12696719E+04</pdfrwt>
<pdfrwt beam="2">  1       -1 0.25374563E-01 0.12696719E+04</pdfrwt>
<totfact> 0.57588629E+01</totfact>
</mgrwt>
</event>
<event>
12    7  0.1909736E-007  0.1745665E+04  0.7818608E-02  0.8735740E-01
         -1   -1    0    0    0  501 -0.00000000000E+00  0.00000000000E+00  0.38044502488E+03  0.38044502488E+03  0.00000000000E+00 0.  1.
          2   -1    0    0  501    0  0.00000000000E+00 -0.00000000000E+00 -0.20024878150E+04  0.20024878150E+04  0.00000000000E+00 0. -1.
         24    2    1    2    0    0  0.27342148102E+03  0.31006563391E+02  0.18785139105E+03  0.34234196581E+03  0.78671234753E+02 0.  0.
        254    2    1    2    0    0 -0.27342148102E+03 -0.31006563391E+02 -0.18098941812E+04  0.20405908741E+04  0.90142856349E+03 0.  0.
         23    2    4    4    0    0 -0.19903899647E+03 -0.44482940885E+03 -0.11587762347E+04  0.12602060747E+04  0.88697595695E+02 0.  0.
         23    2    4    4    0    0 -0.74382484554E+02  0.41382284546E+03 -0.65111794642E+03  0.78038479935E+03  0.90905189438E+02 0.  0.
          4    1    3    3  502    0  0.39452314191E+02  0.32061907011E+02  0.21167733706E+02  0.55068356853E+02  0.00000000000E+00 0. -1.
         -1    1    3    3    0  502  0.23396916683E+03 -0.10553436197E+01  0.16668365734E+03  0.28727360896E+03  0.00000000000E+00 0.  1.
         13    1    5    5    0    0 -0.13660959241E+01  0.25179614943E+01 -0.49977844949E+00  0.29079419972E+01  0.00000000000E+00 0. -1.
        -13    1    5    5    0    0 -0.19767290055E+03 -0.44734737034E+03 -0.11582764563E+04  0.12572981327E+04  0.00000000000E+00 0.  1.
          4    1    6    6  503    0 -0.37844974125E+02  0.56008358717E+02 -0.72798863361E+02  0.99342099934E+02  0.00000000000E+00 0. -1.
         -4    1    6    6    0  503 -0.36537510429E+02  0.35781448674E+03 -0.57831908306E+03  0.68104269941E+03  0.00000000000E+00 0.  1.
<mgrwt>
<rscale>  0 0.17456649E+04</rscale>
<asrwt>0</asrwt>
<pdfrwt beam="1">  1        2 0.30807505E+00 0.17456649E+04</pdfrwt>
<pdfrwt beam="2">  1       -1 0.58530004E-01 0.17456649E+04</pdfrwt>
<totfact> 0.21275178E+01</totfact>
</mgrwt>
</event>
<event>
12    7  0.1909736E-007  0.1732910E+04  0.7818608E-02  0.8742814E-01
          2   -1    0    0  501    0  0.00000000000E+00  0.00000000000E+00  0.15822804959E+04  0.15822804959E+04  0.00000000000E+00 0. -1.
         -1   -1    0    0    0  501 -0.00000000000E+00 -0.00000000000E+00 -0.47446951989E+03  0.47446951989E+03  0.00000000000E+00 0.  1.
         24    2    1    2    0    0 -0.37742001447E+03  0.26943765655E+02 -0.19071619281E+03  0.43211196596E+03  0.84712756407E+02 0.  0.
        254    2    1    2    0    0  0.37742001447E+03 -0.26943765655E+02  0.12985271688E+04  0.16246380498E+04  0.90005785979E+03 0.  0.
         23    2    4    4    0    0  0.65819342320E+03 -0.72509023781E+02  0.99426026564E+03  0.11979699220E+04  0.90012873509E+02 0.  0.
         23    2    4    4    0    0 -0.28077340873E+03  0.45565258126E+02  0.30426690314E+03  0.42666812776E+03  0.92506448991E+02 0.  0.
          2    1    3    3  502    0 -0.25237580826E+02  0.17153489957E+02 -0.36348229587E+02  0.47459156100E+02  0.00000000000E+00 0. -1.
         -1    1    3    3    0  502 -0.35218243364E+03  0.97902756980E+01 -0.15436796322E+03  0.38465280986E+03  0.00000000000E+00 0.  1.
         13    1    5    5    0    0  0.35300369738E+03 -0.37081280798E+02  0.45188609268E+03  0.57461958938E+03  0.00000000000E+00 0. -1.
        -13    1    5    5    0    0  0.30518972582E+03 -0.35427742983E+02  0.54237417296E+03  0.62335033265E+03  0.00000000000E+00 0.  1.
          3    1    6    6  503    0 -0.31416144290E+02  0.22333807787E+02  0.86861613555E+02  0.95030063673E+02  0.00000000000E+00 0. -1.
         -3    1    6    6    0  503 -0.24935726444E+03  0.23231450339E+02  0.21740528958E+03  0.33163806409E+03  0.00000000000E+00 0.  1.
<mgrwt>
<rscale>  0 0.17329095E+04</rscale>
<asrwt>0</asrwt>
<pdfrwt beam="1">  1        2 0.24342777E+00 0.17329095E+04</pdfrwt>
<pdfrwt beam="2">  1       -1 0.72995311E-01 0.17329095E+04</pdfrwt>
<totfact> 0.23341722E+01</totfact>
</mgrwt>
</event>
<event>
12    7  0.1909736E-007  0.3563616E+04  0.7818608E-02  0.8098877E-01
          2   -1    0    0  501    0  0.00000000000E+00  0.00000000000E+00  0.14360516336E+04  0.14360516336E+04  0.00000000000E+00 0. -1.
         -1   -1    0    0    0  501 -0.00000000000E+00 -0.00000000000E+00 -0.22108119755E+04  0.22108119755E+04  0.00000000000E+00 0.  1.
         24    2    1    2    0    0 -0.47025536121E+02 -0.11442634391E+04 -0.16013973000E+04  0.19701360347E+04  0.73569449551E+02 0.  0.
        254    2    1    2    0    0  0.47025536121E+02  0.11442634391E+04  0.82663695807E+03  0.16767275744E+04  0.90362408062E+03 0.  0.
         23    2    4    4    0    0 -0.33139170602E+03  0.89464911848E+03  0.37554136438E+03  0.10290607584E+04  0.87847709346E+02 0.  0.
         23    2    4    4    0    0  0.37841724214E+03  0.24961432066E+03  0.45109559369E+03  0.64766681602E+03  0.10236284339E+03 0.  0.
          2    1    3    3  502    0 -0.27396705163E+02 -0.66806448187E+03 -0.99666159578E+03  0.12001646003E+04  0.00000000000E+00 0. -1.
         -1    1    3    3    0  502 -0.19628830958E+02 -0.47619895727E+03 -0.60473570417E+03  0.76997143441E+03  0.00000000000E+00 0.  1.
         13    1    5    5    0    0 -0.89957345367E+02  0.15990197521E+03  0.92773200604E+02  0.20559142105E+03  0.00000000000E+00 0.  1.
        -13    1    5    5    0    0 -0.24143436065E+03  0.73474714328E+03  0.28276816377E+03  0.82346933732E+03  0.00000000000E+00 0. -1.
          2    1    6    6  503    0  0.25885681387E+03  0.13084607432E+03  0.33450388930E+03  0.44274190812E+03  0.00000000000E+00 0. -1.
         -2    1    6    6    0  503  0.11956042827E+03  0.11876824634E+03  0.11659170439E+03  0.20492490790E+03  0.00000000000E+00 0.  1.
<mgrwt>
<rscale>  0 0.35636162E+04</rscale>
<asrwt>0</asrwt>
<pdfrwt beam="1">  1        2 0.22093102E+00 0.35636162E+04</pdfrwt>
<pdfrwt beam="2">  1       -1 0.34012492E+00 0.35636162E+04</pdfrwt>
<totfact> 0.23190921E-01</totfact>
</mgrwt>
</event>
<event>
12    7  0.1909736E-007  0.2704281E+04  0.7818608E-02  0.8333617E-01
         -1   -1    0    0    0  501 -0.00000000000E+00  0.00000000000E+00  0.49975783667E+03  0.49975783667E+03  0.00000000000E+00 0.  1.
          2   -1    0    0  501    0  0.00000000000E+00 -0.00000000000E+00 -0.36583405731E+04  0.36583405731E+04  0.00000000000E+00 0. -1.
         24    2    1    2    0    0 -0.50597672051E+03 -0.64806101572E+03 -0.57306158984E+02  0.82812036252E+03  0.80646247055E+02 0.  0.
        254    2    1    2    0    0  0.50597672051E+03  0.64806101572E+03 -0.31012765774E+04  0.33299780472E+04  0.89153904208E+03 0.  0.
         23    2    4    4    0    0  0.63347365935E+03  0.12673752368E+03 -0.19566679886E+04  0.20625495666E+04  0.90608059081E+02 0.  0.
         23    2    4    4    0    0 -0.12749693884E+03  0.52132349204E+03 -0.11446085889E+04  0.12674284806E+04  0.90622728671E+02 0.  0.
          4    1    3    3  502    0 -0.17139583164E+03 -0.25736446677E+03  0.98705872811E+01  0.30937102054E+03  0.00000000000E+00 0. -1.
         -3    1    3    3    0  502 -0.33458088887E+03 -0.39069654895E+03 -0.67176746265E+02  0.51874934198E+03  0.00000000000E+00 0.  1.
         13    1    5    5    0    0  0.95907629636E+02  0.35743142581E+01 -0.39043993478E+03  0.40206267150E+03  0.00000000000E+00 0. -1.
        -13    1    5    5    0    0  0.53756602972E+03  0.12316320943E+03 -0.15662280538E+04  0.16604868951E+04  0.00000000000E+00 0.  1.
          4    1    6    6  503    0 -0.25449100639E+02  0.26950389399E+03 -0.62374999342E+03  0.67995886632E+03  0.00000000000E+00 0. -1.
         -4    1    6    6    0  503 -0.10204783820E+03  0.25181959805E+03 -0.52085859544E+03  0.58746961426E+03  0.00000000000E+00 0.  1.
<mgrwt>
<rscale>  0 0.27042813E+04</rscale>
<asrwt>0</asrwt>
<pdfrwt beam="1">  1        2 0.56282163E+00 0.27042813E+04</pdfrwt>
<pdfrwt beam="2">  1       -1 0.76885821E-01 0.27042813E+04</pdfrwt>
<totfact> 0.10601234E+00</totfact>
</mgrwt>
</event>
<event>
12    7  0.1909736E-007  0.1305965E+04  0.7818608E-02  0.9024848E-01
          2   -1    0    0  501    0  0.00000000000E+00  0.00000000000E+00  0.11382945047E+04  0.11382945047E+04  0.00000000000E+00 0. -1.
         -1   -1    0    0    0  501 -0.00000000000E+00 -0.00000000000E+00 -0.37458352094E+03  0.37458352094E+03  0.00000000000E+00 0.  1.
         24    2    1    2    0    0  0.18354000165E+03  0.15223847132E+03 -0.65290364129E+02  0.25871212828E+03  0.76194811612E+02 0.  0.
        254    2    1    2    0    0 -0.18354000165E+03 -0.15223847132E+03  0.82900134788E+03  0.12541658974E+04  0.91039847262E+03 0.  0.
         23    2    4    4    0    0 -0.14640591410E+03  0.36957934784E+03  0.40654056939E+03  0.57602739724E+03  0.92242841344E+02 0.  0.
         23    2    4    4    0    0 -0.37134087553E+02 -0.52181781916E+03  0.42246077849E+03  0.67813850012E+03  0.87897321479E+02 0.  0.
          4    1    3    3  502    0  0.17958392817E+03  0.15866350393E+03 -0.54851087807E+02  0.24583152070E+03  0.00000000000E+00 0. -1.
         -3    1    3    3    0  502  0.39560734758E+01 -0.64250326126E+01 -0.10439276322E+02  0.12880607577E+02  0.00000000000E+00 0.  1.
         13    1    5    5    0    0 -0.56168941543E+02  0.48443955278E+02  0.83205910441E+02  0.11146744067E+03  0.00000000000E+00 0. -1.
        -13    1    5    5    0    0 -0.90236972552E+02  0.32113539256E+03  0.32333465895E+03  0.46455995657E+03  0.00000000000E+00 0.  1.
          1    1    6    6  503    0 -0.20141444635E+02 -0.18622966665E+03  0.20602270161E+03  0.27844661986E+03  0.00000000000E+00 0.  1.
         -1    1    6    6    0  503 -0.16992642918E+02 -0.33558815251E+03  0.21643807689E+03  0.39969188026E+03  0.00000000000E+00 0. -1.
<mgrwt>
<rscale>  0 0.13059653E+04</rscale>
<asrwt>0</asrwt>
<pdfrwt beam="1">  1        2 0.17512223E+00 0.13059653E+04</pdfrwt>
<pdfrwt beam="2">  1       -1 0.57628234E-01 0.13059653E+04</pdfrwt>
<totfact> 0.70320222E+01</totfact>
</mgrwt>
</event>
<event>
12    7  0.1909736E-007  0.2655857E+04  0.7818608E-02  0.8349472E-01
          2   -1    0    0  501    0  0.00000000000E+00  0.00000000000E+00  0.29158517149E+04  0.29158517149E+04  0.00000000000E+00 0. -1.
         -1   -1    0    0    0  501 -0.00000000000E+00 -0.00000000000E+00 -0.60476119815E+03  0.60476119815E+03  0.00000000000E+00 0.  1.
         24    2    1    2    0    0 -0.44133420258E+03 -0.29465954673E+03 -0.36497606804E+03  0.64877547237E+03  0.78115020697E+02 0.  0.
        254    2    1    2    0    0  0.44133420258E+03  0.29465954673E+03  0.26760665848E+04  0.28718374407E+04  0.89694915830E+03 0.  0.
         23    2    4    4    0    0  0.10312035619E+03  0.55978136803E+03  0.18299867781E+04  0.19185878687E+04  0.90215375399E+02 0.  0.
         23    2    4    4    0    0  0.33821384639E+03 -0.26512182130E+03  0.84607980665E+03  0.95324957196E+03  0.90307924334E+02 0.  0.
          4    1    3    3  502    0 -0.17318580698E+03 -0.95606758312E+02 -0.95560865173E+02  0.21969491330E+03  0.00000000000E+00 0. -1.
         -3    1    3    3    0  502 -0.26814839560E+03 -0.19905278841E+03 -0.26941520287E+03  0.42908055908E+03  0.00000000000E+00 0.  1.
         13    1    5    5    0    0 -0.11720211464E+02  0.26281361435E+02  0.13039308776E+03  0.13353063563E+03  0.00000000000E+00 0. -1.
        -13    1    5    5    0    0  0.11484056765E+03  0.53350000659E+03  0.16995936903E+04  0.17850572331E+04  0.00000000000E+00 0.  1.
          2    1    6    6  503    0  0.16479152815E+02 -0.28192676745E+02  0.12142304745E+03  0.12573760755E+03  0.00000000000E+00 0. -1.
         -2    1    6    6    0  503  0.32173469358E+03 -0.23692914456E+03  0.72465675921E+03  0.82751196442E+03  0.00000000000E+00 0.  1.
<mgrwt>
<rscale>  0 0.26558569E+04</rscale>
<asrwt>0</asrwt>
<pdfrwt beam="1">  1        2 0.44859256E+00 0.26558569E+04</pdfrwt>
<pdfrwt beam="2">  1       -1 0.93040186E-01 0.26558569E+04</pdfrwt>
<totfact> 0.22056499E+00</totfact>
</mgrwt>
</event>
<event>
12    7  0.1909736E-007  0.1675058E+04  0.7818608E-02  0.8775719E-01
         -1   -1    0    0    0  501 -0.00000000000E+00  0.00000000000E+00  0.11280579101E+04  0.11280579101E+04  0.00000000000E+00 0.  1.
          2   -1    0    0  501    0  0.00000000000E+00 -0.00000000000E+00 -0.62182506203E+03  0.62182506203E+03  0.00000000000E+00 0. -1.
         24    2    1    2    0    0  0.20851685561E+03  0.39059791079E+03 -0.23255399352E+03  0.50639267663E+03  0.79411435283E+02 0.  0.
        254    2    1    2    0    0 -0.20851685561E+03 -0.39059791079E+03  0.73878684155E+03  0.12434902955E+04  0.89689247441E+03 0.  0.
         23    2    4    4    0    0 -0.81410729578E+02 -0.60764143534E+03  0.21665234416E+03  0.65700639726E+03  0.94145350296E+02 0.  0.
         23    2    4    4    0    0 -0.12710612604E+03  0.21704352455E+03  0.52213449739E+03  0.58648389819E+03  0.89861396893E+02 0.  0.
          2    1    3    3  502    0  0.17302184826E+03  0.35412020540E+03 -0.22791797558E+03  0.45528483770E+03  0.00000000000E+00 0. -1.
         -1    1    3    3    0  502  0.35495007356E+02  0.36477705392E+02 -0.46360179392E+01  0.51107838931E+02  0.00000000000E+00 0.  1.
         13    1    5    5    0    0 -0.46689950397E+02 -0.43845149429E+03  0.19780089401E+03  0.48326479076E+03  0.00000000000E+00 0. -1.
        -13    1    5    5    0    0 -0.34720779181E+02 -0.16918994104E+03  0.18851450154E+02  0.17374160650E+03  0.00000000000E+00 0.  1.
          1    1    6    6  503    0 -0.30882383628E+02  0.12007683896E+03  0.18479388484E+03  0.22253302845E+03  0.00000000000E+00 0. -1.
         -1    1    6    6    0  503 -0.96223742408E+02  0.96966685583E+02  0.33734061255E+03  0.36395086975E+03  0.00000000000E+00 0.  1.
<mgrwt>
<rscale>  0 0.16750578E+04</rscale>
<asrwt>0</asrwt>
<pdfrwt beam="1">  1        2 0.95665394E-01 0.16750578E+04</pdfrwt>
<pdfrwt beam="2">  1       -1 0.17354737E+00 0.16750578E+04</pdfrwt>
<totfact> 0.11985376E+01</totfact>
</mgrwt>
</event>
<event>
12    7  0.1909736E-007  0.1252844E+04  0.7818608E-02  0.9067819E-01
          4   -1    0    0  501    0  0.00000000000E+00  0.00000000000E+00  0.30324937935E+03  0.30324937935E+03  0.00000000000E+00 0. -1.
         -3   -1    0    0    0  501 -0.00000000000E+00 -0.00000000000E+00 -0.12939998641E+04  0.12939998641E+04  0.00000000000E+00 0.  1.
         24    2    1    2    0    0  0.67257664145E+02 -0.23245855307E+02  0.12252367172E+03  0.16240355954E+03  0.79365627586E+02 0.  0.
        254    2    1    2    0    0 -0.67257664145E+02  0.23245855307E+02 -0.11132741564E+04  0.14348456839E+04  0.90240723955E+03 0.  0.
         23    2    4    4    0    0 -0.38136426758E+03 -0.20922050954E+03 -0.32447088829E+03  0.54987813424E+03  0.88728118252E+02 0.  0.
         23    2    4    4    0    0  0.31410660344E+03  0.23246636485E+03 -0.78880326815E+03  0.88496754964E+03  0.90848219375E+02 0.  0.
          4    1    3    3  502    0 -0.88375454163E+01 -0.26883715808E+02  0.19907296985E+02  0.34599665574E+02  0.00000000000E+00 0. -1.
         -3    1    3    3    0  502  0.76095209562E+02  0.36378605004E+01  0.10261637474E+03  0.12780389396E+03  0.00000000000E+00 0.  1.
         13    1    5    5    0    0 -0.28863395127E+02  0.70653400819E+01 -0.14634093459E+02  0.33123576197E+02  0.00000000000E+00 0.  1.
        -13    1    5    5    0    0 -0.35250087246E+03 -0.21628584962E+03 -0.30983679483E+03  0.51675455804E+03  0.00000000000E+00 0. -1.
          3    1    6    6  503    0  0.21070929929E+03  0.10561591585E+03 -0.42320162245E+03  0.48440968583E+03  0.00000000000E+00 0.  1.
         -3    1    6    6    0  503  0.10339730415E+03  0.12685044900E+03 -0.36560164570E+03  0.40055786381E+03  0.00000000000E+00 0. -1.
<mgrwt>
<rscale>  0 0.12528442E+04</rscale>
<asrwt>0</asrwt>
<pdfrwt beam="1">  1        4 0.46653750E-01 0.12528442E+04</pdfrwt>
<pdfrwt beam="2">  1       -3 0.19907690E+00 0.12528442E+04</pdfrwt>
<totfact> 0.14899543E+00</totfact>
</mgrwt>
</event>
<event>
12    7  0.1909736E-007  0.1331345E+04  0.7818608E-02  0.9005071E-01
          2   -1    0    0  501    0  0.00000000000E+00  0.00000000000E+00  0.33805808532E+04  0.33805808532E+04  0.00000000000E+00 0. -1.
         -1   -1    0    0    0  501 -0.00000000000E+00 -0.00000000000E+00 -0.13107804546E+03  0.13107804546E+03  0.00000000000E+00 0.  1.
         24    2    1    2    0    0 -0.17338934057E+03 -0.16493453151E+03  0.20441552172E+03  0.32473757269E+03  0.80009514993E+02 0.  0.
        254    2    1    2    0    0  0.17338934057E+03  0.16493453151E+03  0.30450872861E+04  0.31869213260E+04  0.90919948049E+03 0.  0.
         23    2    4    4    0    0 -0.25043392171E+03 -0.14650709302E+03  0.18864712806E+04  0.19110823711E+04  0.96335140032E+02 0.  0.
         23    2    4    4    0    0  0.42382326228E+03  0.31144162453E+03  0.11586160055E+04  0.12758389549E+04  0.93551844307E+02 0.  0.
          4    1    3    3  502    0 -0.59822170325E+02 -0.85044673076E+02  0.13231729025E+03  0.16828295749E+03  0.00000000000E+00 0. -1.
         -3    1    3    3    0  502 -0.11356717025E+03 -0.79889858430E+02  0.72098231473E+02  0.15645461521E+03  0.00000000000E+00 0.  1.
         13    1    5    5    0    0 -0.16094205652E+03 -0.13516882346E+03  0.14703847092E+04  0.14853296434E+04  0.00000000000E+00 0. -1.
        -13    1    5    5    0    0 -0.89491865184E+02 -0.11338269565E+02  0.41608657141E+03  0.42575272777E+03  0.00000000000E+00 0.  1.
          3    1    6    6  503    0  0.16521565246E+03  0.17602497605E+03  0.48835104909E+03  0.54476394077E+03  0.00000000000E+00 0. -1.
         -3    1    6    6    0  503  0.25860760982E+03  0.13541664848E+03  0.67026495636E+03  0.73107501412E+03  0.00000000000E+00 0.  1.
<mgrwt>
<rscale>  0 0.13313451E+04</rscale>
<asrwt>0</asrwt>
<pdfrwt beam="1">  1        2 0.52008930E+00 0.13313451E+04</pdfrwt>
<pdfrwt beam="2">  1       -1 0.20165856E-01 0.13313451E+04</pdfrwt>
<totfact> 0.22471091E+01</totfact>
</mgrwt>
</event>
<event>
12    7  0.1909736E-007  0.1497067E+04  0.7818608E-02  0.8886406E-01
         -1   -1    0    0    0  501 -0.00000000000E+00  0.00000000000E+00  0.52476481721E+03  0.52476481721E+03  0.00000000000E+00 0.  1.
          2   -1    0    0  501    0  0.00000000000E+00 -0.00000000000E+00 -0.10677206303E+04  0.10677206303E+04  0.00000000000E+00 0. -1.
         24    2    1    2    0    0  0.14717613007E+03  0.26375946876E+03  0.21575953087E+03  0.38039129663E+03  0.83159441806E+02 0.  0.
        254    2    1    2    0    0 -0.14717613007E+03 -0.26375946876E+03 -0.75871534401E+03  0.12120941509E+04  0.89570831572E+03 0.  0.
         23    2    4    4    0    0 -0.42720146055E+03 -0.34294918828E+03 -0.22818399042E+03  0.60031895883E+03  0.90552113262E+02 0.  0.
         23    2    4    4    0    0  0.28002533048E+03  0.79189719513E+02 -0.53053135359E+03  0.61177519210E+03  0.90111992199E+02 0.  0.
          4    1    3    3  502    0 -0.30607824364E+01  0.19364344476E+01  0.20640373808E+02  0.20955743805E+02  0.00000000000E+00 0. -1.
         -3    1    3    3    0  502  0.15023691251E+03  0.26182303432E+03  0.19511915706E+03  0.35943555282E+03  0.00000000000E+00 0.  1.
         13    1    5    5    0    0 -0.65157188933E+02 -0.29946614503E+02 -0.58484940842E+02  0.92535113849E+02  0.00000000000E+00 0. -1.
        -13    1    5    5    0    0 -0.36204427161E+03 -0.31300257377E+03 -0.16969904958E+03  0.50778384498E+03  0.00000000000E+00 0.  1.
          1    1    6    6  503    0  0.14789494513E+03 -0.49397611534E+01 -0.26139249084E+03  0.30037201985E+03  0.00000000000E+00 0. -1.
         -1    1    6    6    0  503  0.13213038534E+03  0.84129480667E+02 -0.26913886275E+03  0.31140317225E+03  0.00000000000E+00 0.  1.
<mgrwt>
<rscale>  0 0.14970668E+04</rscale>
<asrwt>0</asrwt>
<pdfrwt beam="1">  1        2 0.16426471E+00 0.14970668E+04</pdfrwt>
<pdfrwt beam="2">  1       -1 0.80733050E-01 0.14970668E+04</pdfrwt>
<totfact> 0.38484821E+01</totfact>
</mgrwt>
</event>
<event>
12    7  0.1909736E-007  0.1501484E+04  0.7818608E-02  0.8883467E-01
         -1   -1    0    0    0  501 -0.00000000000E+00  0.00000000000E+00  0.33375782801E+03  0.33375782801E+03  0.00000000000E+00 0.  1.
          2   -1    0    0  501    0  0.00000000000E+00 -0.00000000000E+00 -0.16886892233E+04  0.16886892233E+04  0.00000000000E+00 0. -1.
         24    2    1    2    0    0  0.44293798945E+03 -0.17065079358E+03 -0.55587463740E+03  0.73540146666E+03  0.80640863243E+02 0.  0.
        254    2    1    2    0    0 -0.44293798945E+03  0.17065079358E+03 -0.79905675787E+03  0.12870455846E+04  0.89032515340E+03 0.  0.
         23    2    4    4    0    0  0.10263440500E+03  0.36707191272E+03 -0.47861923203E+03  0.61885432973E+03  0.92890806589E+02 0.  0.
         23    2    4    4    0    0 -0.54557239444E+03 -0.19642111915E+03 -0.32043752584E+03  0.66819125490E+03  0.86999146788E+02 0.  0.
          2    1    3    3  502    0  0.38953978790E+03 -0.16154424536E+03 -0.45152087562E+03  0.61782593882E+03  0.00000000000E+00 0. -1.
         -1    1    3    3    0  502  0.53398201547E+02 -0.91065482200E+01 -0.10435376178E+03  0.11757552784E+03  0.00000000000E+00 0.  1.
         13    1    5    5    0    0  0.51839832732E+02  0.26786349704E+03 -0.39246504731E+03  0.47798225351E+03  0.00000000000E+00 0. -1.
        -13    1    5    5    0    0  0.50794572264E+02  0.99208415681E+02 -0.86154184722E+02  0.14087207622E+03  0.00000000000E+00 0.  1.
          1    1    6    6  503    0 -0.30935756121E+03 -0.14426048400E+03 -0.15344157943E+03  0.37424257671E+03  0.00000000000E+00 0. -1.
         -1    1    6    6    0  503 -0.23621483323E+03 -0.52160635144E+02 -0.16699594640E+03  0.29394867819E+03  0.00000000000E+00 0.  1.
<mgrwt>
<rscale>  0 0.15014836E+04</rscale>
<asrwt>0</asrwt>
<pdfrwt beam="1">  1        2 0.25979834E+00 0.15014836E+04</pdfrwt>
<pdfrwt beam="2">  1       -1 0.51347359E-01 0.15014836E+04</pdfrwt>
<totfact> 0.41776657E+01</totfact>
</mgrwt>
</event>
<event>
12    7  0.1909736E-007  0.1920911E+04  0.7818608E-02  0.8644517E-01
          2   -1    0    0  501    0  0.00000000000E+00  0.00000000000E+00  0.28852924947E+03  0.28852924947E+03  0.00000000000E+00 0. -1.
         -1   -1    0    0    0  501 -0.00000000000E+00 -0.00000000000E+00 -0.31971604557E+04  0.31971604557E+04  0.00000000000E+00 0.  1.
         24    2    1    2    0    0  0.81924325025E+02  0.57365868581E+03 -0.20088418019E+04  0.20923221010E+04  0.81058661529E+02 0.  0.
        254    2    1    2    0    0 -0.81924325025E+02 -0.57365868581E+03 -0.89978940435E+03  0.13933676042E+04  0.89221994221E+03 0.  0.
         23    2    4    4    0    0 -0.17523248429E+03 -0.33410581449E+03 -0.10239940958E+04  0.10949056151E+04  0.89001566724E+02 0.  0.
         23    2    4    4    0    0  0.93308159267E+02 -0.23955287132E+03  0.12420469143E+03  0.29846198908E+03  0.86952646949E+02 0.  0.
          4    1    3    3  502    0 -0.16268454368E+02  0.64746527295E+02 -0.23916712591E+03  0.24830966457E+03  0.00000000000E+00 0. -1.
         -3    1    3    3    0  502  0.98192779394E+02  0.50891215852E+03 -0.17696746760E+04  0.18440124364E+04  0.00000000000E+00 0.  1.
         13    1    5    5    0    0 -0.48739719074E+02 -0.18866414889E+03 -0.50988700735E+03  0.54585206930E+03  0.00000000000E+00 0. -1.
        -13    1    5    5    0    0 -0.12649276522E+03 -0.14544166560E+03 -0.51410708843E+03  0.54905354577E+03  0.00000000000E+00 0.  1.
          3    1    6    6  503    0  0.62923441989E+02 -0.61953038952E+02  0.61798948658E+02  0.10778055781E+03  0.00000000000E+00 0. -1.
         -3    1    6    6    0  503  0.30384717278E+02 -0.17759983236E+03  0.62405742776E+02  0.19068143127E+03  0.00000000000E+00 0.  1.
<mgrwt>
<rscale>  0 0.19209105E+04</rscale>
<asrwt>0</asrwt>
<pdfrwt beam="1">  1        2 0.44389114E-01 0.19209105E+04</pdfrwt>
<pdfrwt beam="2">  1       -1 0.49187085E+00 0.19209105E+04</pdfrwt>
<totfact> 0.20595100E-01</totfact>
</mgrwt>
</event>
<event>
12    7  0.1909736E-007  0.2654615E+04  0.7818608E-02  0.8349883E-01
          2   -1    0    0  501    0  0.00000000000E+00  0.00000000000E+00  0.10453008404E+04  0.10453008404E+04  0.00000000000E+00 0. -1.
         -1   -1    0    0    0  501 -0.00000000000E+00 -0.00000000000E+00 -0.16853955218E+04  0.16853955218E+04  0.00000000000E+00 0.  1.
         24    2    1    2    0    0  0.97126303140E+03 -0.34463004825E+03 -0.86975084765E+03  0.13509307704E+04  0.80160234504E+02 0.  0.
        254    2    1    2    0    0 -0.97126303140E+03  0.34463004825E+03  0.22965616619E+03  0.13797655918E+04  0.88819445357E+03 0.  0.
         23    2    4    4    0    0 -0.89849859332E+03  0.28115507815E+03  0.50622180980E+03  0.10728720071E+04  0.91901701708E+02 0.  0.
         23    2    4    4    0    0 -0.72764438078E+02  0.63474970102E+02 -0.27656564360E+03  0.30689358469E+03  0.91495255744E+02 0.  0.
          4    1    3    3  502    0  0.97292420540E+02 -0.55678486645E+02 -0.75652263833E+02  0.13523747259E+03  0.00000000000E+00 0. -1.
         -3    1    3    3    0  502  0.87397061086E+03 -0.28895156161E+03 -0.79409858382E+03  0.12156932978E+04  0.00000000000E+00 0.  1.
         13    1    5    5    0    0 -0.89233768216E+03  0.28133887373E+03  0.49142497332E+03  0.10568427533E+04  0.00000000000E+00 0.  1.
        -13    1    5    5    0    0 -0.61609111655E+01 -0.18379558055E+00  0.14796836481E+02  0.16029253790E+02  0.00000000000E+00 0. -1.
          3    1    6    6  503    0 -0.78991689766E+02  0.80603485832E+02 -0.21686494011E+03  0.24447292535E+03  0.00000000000E+00 0. -1.
         -3    1    6    6    0  503  0.62272516888E+01 -0.17128515731E+02 -0.59700703492E+02  0.62420659338E+02  0.00000000000E+00 0.  1.
<mgrwt>
<rscale>  0 0.26546151E+04</rscale>
<asrwt>0</asrwt>
<pdfrwt beam="1">  1        2 0.16081552E+00 0.26546151E+04</pdfrwt>
<pdfrwt beam="2">  1       -1 0.25929162E+00 0.26546151E+04</pdfrwt>
<totfact> 0.14344921E+00</totfact>
</mgrwt>
</event>
<event>
12    7  0.1909736E-007  0.2280414E+04  0.7818608E-02  0.8485684E-01
         -1   -1    0    0    0  501 -0.00000000000E+00  0.00000000000E+00  0.91998785083E+03  0.91998785083E+03  0.00000000000E+00 0.  1.
          2   -1    0    0  501    0  0.00000000000E+00 -0.00000000000E+00 -0.14131409140E+04  0.14131409140E+04  0.00000000000E+00 0. -1.
         24    2    1    2    0    0  0.47524107443E+03 -0.17702813840E+03  0.62713673470E+03  0.81087664941E+03  0.83829684099E+02 0.  0.
        254    2    1    2    0    0 -0.47524107443E+03  0.17702813840E+03 -0.11202897979E+04  0.15222521154E+04  0.89722306652E+03 0.  0.
         23    2    4    4    0    0 -0.13579392759E+03  0.36260698444E+03 -0.10442228392E+04  0.11174360945E+04  0.91314136179E+02 0.  0.
         23    2    4    4    0    0 -0.33944714684E+03 -0.18557884604E+03 -0.76066958650E+02  0.40481602090E+03  0.91793000728E+02 0.  0.
          4    1    3    3  502    0  0.14493512707E+02 -0.24804829876E+02  0.32446254728E+02  0.43337061986E+02  0.00000000000E+00 0. -1.
         -3    1    3    3    0  502  0.46074756173E+03 -0.15222330853E+03  0.59469047997E+03  0.76753958742E+03  0.00000000000E+00 0.  1.
         13    1    5    5    0    0 -0.13748146574E+03  0.35255976373E+03 -0.10394418051E+04  0.11061820856E+04  0.00000000000E+00 0. -1.
        -13    1    5    5    0    0  0.16875381471E+01  0.10047220710E+02 -0.47810341598E+01  0.11254008914E+02  0.00000000000E+00 0.  1.
          1    1    6    6  503    0 -0.28844689653E+03 -0.17054704711E+03 -0.95125194737E+02  0.34833419308E+03  0.00000000000E+00 0. -1.
         -1    1    6    6    0  503 -0.51000250314E+02 -0.15031798926E+02  0.19058236087E+02  0.56481827819E+02  0.00000000000E+00 0.  1.
<mgrwt>
<rscale>  0 0.22804144E+04</rscale>
<asrwt>0</asrwt>
<pdfrwt beam="1">  1        2 0.21740629E+00 0.22804144E+04</pdfrwt>
<pdfrwt beam="2">  1       -1 0.14153659E+00 0.22804144E+04</pdfrwt>
<totfact> 0.59938259E+00</totfact>
</mgrwt>
</event>
<event>
12    7  0.1909736E-007  0.1602915E+04  0.7818608E-02  0.8818759E-01
         -1   -1    0    0    0  501 -0.00000000000E+00  0.00000000000E+00  0.11609867071E+04  0.11609867071E+04  0.00000000000E+00 0.  1.
          2   -1    0    0  501    0  0.00000000000E+00 -0.00000000000E+00 -0.55326574789E+03  0.55326574789E+03  0.00000000000E+00 0. -1.
         24    2    1    2    0    0  0.47742455022E+03 -0.20784703833E+03  0.35851908720E+02  0.52908764937E+03  0.86682113838E+02 0.  0.
        254    2    1    2    0    0 -0.47742455022E+03  0.20784703833E+03  0.57186905046E+03  0.11851648056E+04  0.89802383768E+03 0.  0.
         23    2    4    4    0    0 -0.52437252172E+03  0.49553760539E+03  0.34843822614E+03  0.80628053397E+03  0.90305271855E+02 0.  0.
         23    2    4    4    0    0  0.46947971495E+02 -0.28769056706E+03  0.22343082431E+03  0.37888427162E+03  0.93069778277E+02 0.  0.
          2    1    3    3  502    0  0.31184449667E+03 -0.15727500677E+03 -0.11998906258E+02  0.34946586616E+03  0.00000000000E+00 0. -1.
         -1    1    3    3    0  502  0.16558005355E+03 -0.50572031563E+02  0.47850814978E+02  0.17962178321E+03  0.00000000000E+00 0.  1.
         13    1    5    5    0    0 -0.45227143927E+03  0.42049472681E+03  0.33132709900E+03  0.70081589351E+03  0.00000000000E+00 0.  1.
        -13    1    5    5    0    0 -0.72101082445E+02  0.75042878579E+02  0.17111127142E+02  0.10546464046E+03  0.00000000000E+00 0. -1.
          2    1    6    6  503    0 -0.21394747994E+02 -0.12597163005E+03  0.69841267966E+02  0.14561727071E+03  0.00000000000E+00 0. -1.
         -2    1    6    6    0  503  0.68342719490E+02 -0.16171893701E+03  0.15358955635E+03  0.23326700091E+03  0.00000000000E+00 0.  1.
<mgrwt>
<rscale>  0 0.16029151E+04</rscale>
<asrwt>0</asrwt>
<pdfrwt beam="1">  1        2 0.85117807E-01 0.16029151E+04</pdfrwt>
<pdfrwt beam="2">  1       -1 0.17861334E+00 0.16029151E+04</pdfrwt>
<totfact> 0.12752749E+01</totfact>
</mgrwt>
</event>
<event>
12    7  0.1909736E-007  0.1426787E+04  0.7818608E-02  0.8934653E-01
          2   -1    0    0  501    0  0.00000000000E+00  0.00000000000E+00  0.11487702067E+04  0.11487702067E+04  0.00000000000E+00 0. -1.
         -1   -1    0    0    0  501 -0.00000000000E+00 -0.00000000000E+00 -0.44302213698E+03  0.44302213698E+03  0.00000000000E+00 0.  1.
         24    2    1    2    0    0 -0.69456922209E+02 -0.37495425245E+03 -0.39990816681E+01  0.38961629466E+03  0.79811709279E+02 0.  0.
        254    2    1    2    0    0  0.69456922209E+02  0.37495425245E+03  0.70974715135E+03  0.12021760490E+04  0.89222826587E+03 0.  0.
         23    2    4    4    0    0  0.12380920607E+03 -0.24672296160E+03  0.59878628489E+02  0.29655117121E+03  0.90311725205E+02 0.  0.
         23    2    4    4    0    0 -0.54352283863E+02  0.62167721405E+03  0.64986852286E+03  0.90562487777E+03  0.91600180145E+02 0.  0.
          2    1    3    3  502    0 -0.47219707017E+02 -0.35766228333E+03 -0.96093114990E+01  0.36089381889E+03  0.00000000000E+00 0. -1.
         -1    1    3    3    0  502 -0.22237215193E+02 -0.17291969124E+02  0.56102298309E+01  0.28722475772E+02  0.00000000000E+00 0.  1.
         13    1    5    5    0    0  0.79967039075E+02 -0.66941590400E+02  0.92310175467E+01  0.10469534636E+03  0.00000000000E+00 0.  1.
        -13    1    5    5    0    0  0.43842166998E+02 -0.17978137120E+03  0.50647610942E+02  0.19185582486E+03  0.00000000000E+00 0. -1.
          1    1    6    6  503    0  0.20922407828E+02  0.23961196385E+03  0.27051118323E+03  0.36197781786E+03  0.00000000000E+00 0. -1.
         -1    1    6    6    0  503 -0.75274691691E+02  0.38206525020E+03  0.37935733963E+03  0.54364705991E+03  0.00000000000E+00 0.  1.
<mgrwt>
<rscale>  0 0.14267875E+04</rscale>
<asrwt>0</asrwt>
<pdfrwt beam="1">  1        2 0.17673388E+00 0.14267875E+04</pdfrwt>
<pdfrwt beam="2">  1       -1 0.68157252E-01 0.14267875E+04</pdfrwt>
<totfact> 0.49101437E+01</totfact>
</mgrwt>
</event>
<event>
12    7  0.1909736E-007  0.3199237E+04  0.7818608E-02  0.8189019E-01
         -1   -1    0    0    0  501 -0.00000000000E+00  0.00000000000E+00  0.12381586223E+04  0.12381586223E+04  0.00000000000E+00 0.  1.
          2   -1    0    0  501    0  0.00000000000E+00 -0.00000000000E+00 -0.20666001761E+04  0.20666001761E+04  0.00000000000E+00 0. -1.
         24    2    1    2    0    0 -0.13849939461E+04  0.48191220083E+03 -0.25395798555E+03  0.14903616208E+04  0.78965196705E+02 0.  0.
        254    2    1    2    0    0  0.13849939461E+04 -0.48191220083E+03 -0.57448356823E+03  0.18143971776E+04  0.90086522183E+03 0.  0.
         23    2    4    4    0    0  0.92051767387E+03 -0.24004964468E+03  0.93394799688E+02  0.96071899030E+03  0.96341942541E+02 0.  0.
         23    2    4    4    0    0  0.46447627221E+03 -0.24186255615E+03 -0.66787836792E+03  0.85367818730E+03  0.92028417448E+02 0.  0.
          4    1    3    3  502    0 -0.39244606895E+03  0.10979263952E+03 -0.45496816720E+02  0.41004670595E+03  0.00000000000E+00 0. -1.
         -3    1    3    3    0  502 -0.99254787713E+03  0.37211956131E+03 -0.20846116883E+03  0.10803149148E+04  0.00000000000E+00 0.  1.
         13    1    5    5    0    0  0.56893263484E+03 -0.16404254697E+03  0.13592117129E+02  0.59226602625E+03  0.00000000000E+00 0.  1.
        -13    1    5    5    0    0  0.35158503903E+03 -0.76007097712E+02  0.79802682558E+02  0.36845296405E+03  0.00000000000E+00 0. -1.
          3    1    6    6  503    0  0.40099460534E+03 -0.17641197177E+03 -0.58174791225E+03  0.72825029400E+03  0.00000000000E+00 0. -1.
         -3    1    6    6    0  503  0.63481666869E+02 -0.65450584382E+02 -0.86130455667E+02  0.12542789330E+03  0.00000000000E+00 0.  1.
<mgrwt>
<rscale>  0 0.31992367E+04</rscale>
<asrwt>0</asrwt>
<pdfrwt beam="1">  1        2 0.31793848E+00 0.31992367E+04</pdfrwt>
<pdfrwt beam="2">  1       -1 0.19048594E+00 0.31992367E+04</pdfrwt>
<totfact> 0.10299289E+00</totfact>
</mgrwt>
</event>
<event>
12    7  0.1909736E-007  0.1636248E+04  0.7818608E-02  0.8798584E-01
          2   -1    0    0  501    0  0.00000000000E+00  0.00000000000E+00  0.41053269680E+04  0.41053269680E+04  0.00000000000E+00 0. -1.
         -1   -1    0    0    0  501 -0.00000000000E+00 -0.00000000000E+00 -0.16303869160E+03  0.16303869160E+03  0.00000000000E+00 0.  1.
         24    2    1    2    0    0 -0.37611276566E+03  0.37510807363E+03  0.84854772164E+03  0.10039879979E+04  0.76103775111E+02 0.  0.
        254    2    1    2    0    0  0.37611276566E+03 -0.37510807363E+03  0.30937405547E+04  0.32643776617E+04  0.89597099217E+03 0.  0.
         23    2    4    4    0    0  0.64102101039E+03 -0.11371053733E+03  0.18791188445E+04  0.19907543772E+04  0.90428626759E+02 0.  0.
         23    2    4    4    0    0 -0.26490824473E+03 -0.26139753630E+03  0.12146217102E+04  0.12736232845E+04  0.91133537886E+02 0.  0.
          4    1    3    3  502    0 -0.24467677337E+03  0.20188235425E+03  0.46073980952E+03  0.55937856632E+03  0.00000000000E+00 0. -1.
         -3    1    3    3    0  502 -0.13143599229E+03  0.17322571938E+03  0.38780791212E+03  0.44460943156E+03  0.00000000000E+00 0.  1.
         13    1    5    5    0    0  0.26787776066E+03 -0.49456644375E+02  0.92416849192E+03  0.96347903754E+03  0.00000000000E+00 0.  1.
        -13    1    5    5    0    0  0.37314324973E+03 -0.64253892953E+02  0.95495035257E+03  0.10272753396E+04  0.00000000000E+00 0. -1.
          4    1    6    6  503    0 -0.24468393923E+03 -0.24055013572E+03  0.11775801324E+04  0.12265519012E+04  0.00000000000E+00 0. -1.
         -4    1    6    6    0  503 -0.20224305502E+02 -0.20847400585E+02  0.37041577796E+02  0.47071383343E+02  0.00000000000E+00 0.  1.
<mgrwt>
<rscale>  0 0.16362483E+04</rscale>
<asrwt>0</asrwt>
<pdfrwt beam="1">  1        2 0.63158869E+00 0.16362483E+04</pdfrwt>
<pdfrwt beam="2">  1       -1 0.25082879E-01 0.16362483E+04</pdfrwt>
<totfact> 0.43379514E+00</totfact>
</mgrwt>
</event>
<event>
12    7  0.1909736E-007  0.1644196E+04  0.7818608E-02  0.8793847E-01
          2   -1    0    0  501    0  0.00000000000E+00  0.00000000000E+00  0.15346131074E+04  0.15346131074E+04  0.00000000000E+00 0. -1.
         -1   -1    0    0    0  501 -0.00000000000E+00 -0.00000000000E+00 -0.44040107937E+03  0.44040107937E+03  0.00000000000E+00 0.  1.
         24    2    1    2    0    0 -0.16932893654E+03  0.28864354134E+01  0.10383514352E+04  0.10551425751E+04  0.80445823011E+02 0.  0.
        254    2    1    2    0    0  0.16932893654E+03 -0.28864354134E+01  0.55860592878E+02  0.91987161176E+03  0.90242049845E+03 0.  0.
         23    2    4    4    0    0 -0.18220774621E+03  0.26619743906E+03  0.25974542908E+03  0.42416460936E+03  0.91581595126E+02 0.  0.
         23    2    4    4    0    0  0.35153668274E+03 -0.26908387447E+03 -0.20388483620E+03  0.49570700240E+03  0.90400414711E+02 0.  0.
          2    1    3    3  502    0 -0.10216826808E+03 -0.94711916232E+01  0.81913053097E+03  0.82553188021E+03  0.00000000000E+00 0. -1.
         -1    1    3    3    0  502 -0.67160668456E+02  0.12357627037E+02  0.21922090423E+03  0.22961069484E+03  0.00000000000E+00 0.  1.
         13    1    5    5    0    0 -0.64970175563E+02  0.17540014259E+03  0.14496120148E+03  0.23664336810E+03  0.00000000000E+00 0. -1.
        -13    1    5    5    0    0 -0.11723757064E+03  0.90797296473E+02  0.11478422760E+03  0.18752124126E+03  0.00000000000E+00 0.  1.
          4    1    6    6  503    0  0.20267370547E+03 -0.20799859844E+03 -0.11979964763E+03  0.31415283448E+03  0.00000000000E+00 0. -1.
         -4    1    6    6    0  503  0.14886297728E+03 -0.61085276037E+02 -0.84085188578E+02  0.18155416792E+03  0.00000000000E+00 0.  1.
<mgrwt>
<rscale>  0 0.16441962E+04</rscale>
<asrwt>0</asrwt>
<pdfrwt beam="1">  1        2 0.23609432E+00 0.16441962E+04</pdfrwt>
<pdfrwt beam="2">  1       -1 0.67754013E-01 0.16441962E+04</pdfrwt>
<totfact> 0.29149186E+01</totfact>
</mgrwt>
</event>
<event>
12    7  0.1909736E-007  0.1284512E+04  0.7818608E-02  0.9041939E-01
          2   -1    0    0  501    0  0.00000000000E+00  0.00000000000E+00  0.52087426646E+03  0.52087426646E+03  0.00000000000E+00 0. -1.
         -1   -1    0    0    0  501 -0.00000000000E+00 -0.00000000000E+00 -0.79192327167E+03  0.79192327167E+03  0.00000000000E+00 0.  1.
         24    2    1    2    0    0 -0.30304861004E+03 -0.70286609353E+02 -0.92118609773E+01  0.32134968761E+03  0.80013097955E+02 0.  0.
        254    2    1    2    0    0  0.30304861004E+03  0.70286609353E+02 -0.26183714423E+03  0.99144785052E+03  0.90422977318E+03 0.  0.
         23    2    4    4    0    0  0.61202313971E+03  0.51940539391E+02 -0.95257489917E+02  0.62845288356E+03  0.92784127369E+02 0.  0.
         23    2    4    4    0    0 -0.30897452967E+03  0.18346069961E+02 -0.16657965431E+03  0.36299496696E+03  0.90635128622E+02 0.  0.
          4    1    3    3  502    0 -0.21179086575E+02  0.14858898024E+02 -0.73478981962E+01  0.26894835313E+02  0.00000000000E+00 0. -1.
         -3    1    3    3    0  502 -0.28186952346E+03 -0.85145507377E+02 -0.18639627811E+01  0.29445485230E+03  0.00000000000E+00 0.  1.
         13    1    5    5    0    0  0.26270961410E+03  0.50154123338E+02 -0.78485414958E+02  0.27873237664E+03  0.00000000000E+00 0.  1.
        -13    1    5    5    0    0  0.34931352561E+03  0.17864160533E+01 -0.16772074960E+02  0.34972050691E+03  0.00000000000E+00 0. -1.
          3    1    6    6  503    0 -0.20500419131E+03  0.54385397347E+02 -0.11798254294E+03  0.24270222566E+03  0.00000000000E+00 0. -1.
         -3    1    6    6    0  503 -0.10397033836E+03 -0.36039327385E+02 -0.48597111368E+02  0.12029274131E+03  0.00000000000E+00 0.  1.
<mgrwt>
<rscale>  0 0.12845115E+04</rscale>
<asrwt>0</asrwt>
<pdfrwt beam="1">  1        2 0.80134502E-01 0.12845115E+04</pdfrwt>
<pdfrwt beam="2">  1       -1 0.12183435E+00 0.12845115E+04</pdfrwt>
<totfact> 0.39292835E+01</totfact>
</mgrwt>
</event>
<event>
12    7  0.1909736E-007  0.1930397E+04  0.7818608E-02  0.8639872E-01
         -1   -1    0    0    0  501 -0.00000000000E+00  0.00000000000E+00  0.10063415506E+04  0.10063415506E+04  0.00000000000E+00 0.  1.
          2   -1    0    0  501    0  0.00000000000E+00 -0.00000000000E+00 -0.92573768079E+03  0.92573768079E+03  0.00000000000E+00 0. -1.
         24    2    1    2    0    0  0.17474073801E+03  0.55093751402E+03 -0.44839079407E+03  0.73622603800E+03  0.83114408790E+02 0.  0.
        254    2    1    2    0    0 -0.17474073801E+03 -0.55093751402E+03  0.52899466392E+03  0.11958531934E+04  0.90341742062E+03 0.  0.
         23    2    4    4    0    0  0.77779643277E+02 -0.14231603911E+03  0.66295105235E+03  0.68765506119E+03  0.84034858692E+02 0.  0.
         23    2    4    4    0    0 -0.25252038128E+03 -0.40862147492E+03 -0.13395638842E+03  0.50819813224E+03  0.97892670220E+02 0.  0.
          4    1    3    3  502    0  0.18250061982E+03  0.50509161059E+03 -0.40520444890E+03  0.67276642064E+03  0.00000000000E+00 0. -1.
         -1    1    3    3    0  502 -0.77598818156E+01  0.45845903427E+02 -0.43186345171E+02  0.63459617364E+02  0.00000000000E+00 0.  1.
         13    1    5    5    0    0  0.43921619937E+02 -0.13597728077E+03  0.45625218120E+03  0.47810561849E+03  0.00000000000E+00 0.  1.
        -13    1    5    5    0    0  0.33858023340E+02 -0.63387583402E+01  0.20669887114E+03  0.20954944269E+03  0.00000000000E+00 0. -1.
          4    1    6    6  503    0 -0.15306196981E+03 -0.32627601624E+03 -0.86491573113E+02  0.37062757263E+03  0.00000000000E+00 0. -1.
         -4    1    6    6    0  503 -0.99458411476E+02 -0.82345458679E+02 -0.47464815309E+02  0.13757055961E+03  0.00000000000E+00 0.  1.
<mgrwt>
<rscale>  0 0.19303972E+04</rscale>
<asrwt>0</asrwt>
<pdfrwt beam="1">  1        2 0.14242118E+00 0.19303972E+04</pdfrwt>
<pdfrwt beam="2">  1       -1 0.15482178E+00 0.19303972E+04</pdfrwt>
<totfact> 0.96156020E+00</totfact>
</mgrwt>
</event>
<event>
12    7  0.1909736E-007  0.1457106E+04  0.7818608E-02  0.8913489E-01
         -1   -1    0    0    0  501 -0.00000000000E+00  0.00000000000E+00  0.23935810411E+03  0.23935810411E+03  0.00000000000E+00 0.  1.
          2   -1    0    0  501    0  0.00000000000E+00 -0.00000000000E+00 -0.22175550229E+04  0.22175550229E+04  0.00000000000E+00 0. -1.
         24    2    1    2    0    0  0.42105411184E+03 -0.71444557356E+02 -0.40598738101E+03  0.59487104270E+03  0.81577656449E+02 0.  0.
        254    2    1    2    0    0 -0.42105411184E+03  0.71444557356E+02 -0.15722095377E+04  0.18620420843E+04  0.90164682840E+03 0.  0.
         23    2    4    4    0    0  0.27078581796E+03  0.78021817190E+02 -0.40113615861E+03  0.49873601111E+03  0.91733460996E+02 0.  0.
         23    2    4    4    0    0 -0.69183992979E+03 -0.65772598340E+01 -0.11710733791E+04  0.13633060732E+04  0.92221694972E+02 0.  0.
          4    1    3    3  502    0  0.11184822698E+03  0.16882821953E+02 -0.11141520326E+03  0.15877154365E+03  0.00000000000E+00 0. -1.
         -3    1    3    3    0  502  0.30920588486E+03 -0.88327379310E+02 -0.29457217775E+03  0.43609949905E+03  0.00000000000E+00 0.  1.
         13    1    5    5    0    0  0.24084094628E+03  0.42214177594E+02 -0.36663986782E+03  0.44069398778E+03  0.00000000000E+00 0. -1.
        -13    1    5    5    0    0  0.29944871677E+02  0.35807639597E+02 -0.34496290798E+02  0.58042023328E+02  0.00000000000E+00 0.  1.
          3    1    6    6  503    0 -0.58429748290E+03  0.13954563053E+02 -0.92801238453E+03  0.10967247896E+04  0.00000000000E+00 0. -1.
         -3    1    6    6    0  503 -0.10754244689E+03 -0.20531822887E+02 -0.24306099460E+03  0.26658128353E+03  0.00000000000E+00 0.  1.
<mgrwt>
<rscale>  0 0.14571064E+04</rscale>
<asrwt>0</asrwt>
<pdfrwt beam="1">  1        2 0.34116231E+00 0.14571064E+04</pdfrwt>
<pdfrwt beam="2">  1       -1 0.36824324E-01 0.14571064E+04</pdfrwt>
<totfact> 0.39511358E+01</totfact>
</mgrwt>
</event>
<event>
12    7  0.1909736E-007  0.1378445E+04  0.7818608E-02  0.8969571E-01
          2   -1    0    0  501    0  0.00000000000E+00  0.00000000000E+00  0.14918691091E+04  0.14918691091E+04  0.00000000000E+00 0. -1.
         -1   -1    0    0    0  501 -0.00000000000E+00 -0.00000000000E+00 -0.31841110478E+03  0.31841110478E+03  0.00000000000E+00 0.  1.
         24    2    1    2    0    0 -0.89419842117E+02  0.37780720426E+03  0.28712531674E+03  0.48966619413E+03  0.81227103865E+02 0.  0.
        254    2    1    2    0    0  0.89419842117E+02 -0.37780720426E+03  0.88633268758E+03  0.13206140197E+04  0.89872218417E+03 0.  0.
         23    2    4    4    0    0  0.21225679943E+03 -0.59833666137E+02  0.93371266200E+03  0.96381314801E+03  0.92105551415E+02 0.  0.
         23    2    4    4    0    0 -0.12283695732E+03 -0.31797353812E+03 -0.47379974415E+02  0.35680087173E+03  0.94158966982E+02 0.  0.
          2    1    3    3  502    0 -0.67807883490E+02  0.21188317656E+03  0.20806205725E+03  0.30460172232E+03  0.00000000000E+00 0. -1.
         -1    1    3    3    0  502 -0.21611958627E+02  0.16592402770E+03  0.79063259485E+02  0.18506447180E+03  0.00000000000E+00 0.  1.
         13    1    5    5    0    0  0.28082971101E+02  0.23541634613E+02  0.15719320573E+03  0.16140807215E+03  0.00000000000E+00 0. -1.
        -13    1    5    5    0    0  0.18417382833E+03 -0.83375300749E+02  0.77651945627E+03  0.80240507587E+03  0.00000000000E+00 0.  1.
          3    1    6    6  503    0  0.15392619989E+02 -0.45579870745E+02 -0.89296082016E+01  0.48930514711E+02  0.00000000000E+00 0. -1.
         -3    1    6    6    0  503 -0.13822957730E+03 -0.27239366738E+03 -0.38450366214E+02  0.30787035702E+03  0.00000000000E+00 0.  1.
<mgrwt>
<rscale>  0 0.13784451E+04</rscale>
<asrwt>0</asrwt>
<pdfrwt beam="1">  1        2 0.22951832E+00 0.13784451E+04</pdfrwt>
<pdfrwt beam="2">  1       -1 0.48986324E-01 0.13784451E+04</pdfrwt>
<totfact> 0.59463321E+01</totfact>
</mgrwt>
</event>
<event>
12    7  0.1909736E-007  0.2412413E+04  0.7818608E-02  0.8434871E-01
          2   -1    0    0  501    0  0.00000000000E+00  0.00000000000E+00  0.88832679816E+03  0.88832679816E+03  0.00000000000E+00 0. -1.
         -1   -1    0    0    0  501 -0.00000000000E+00 -0.00000000000E+00 -0.16378371447E+04  0.16378371447E+04  0.00000000000E+00 0.  1.
         24    2    1    2    0    0  0.53179157048E+03  0.87602537434E+03 -0.48861116104E+03  0.11379711878E+04  0.77555314205E+02 0.  0.
        254    2    1    2    0    0 -0.53179157048E+03 -0.87602537434E+03 -0.26089918555E+03  0.13881927551E+04  0.89932641974E+03 0.  0.
         23    2    4    4    0    0 -0.52495302890E+03 -0.37749524646E+03  0.22102333907E+03  0.68905323068E+03  0.88683113608E+02 0.  0.
         23    2    4    4    0    0 -0.68385415798E+01 -0.49853012787E+03 -0.48192252462E+03  0.69913952437E+03  0.89261978189E+02 0.  0.
          2    1    3    3  502    0  0.43751456871E+02  0.66527387877E+02 -0.62037460237E+02  0.10093923810E+03  0.00000000000E+00 0. -1.
         -1    1    3    3    0  502  0.48804011361E+03  0.80949798646E+03 -0.42657370081E+03  0.10370319497E+04  0.00000000000E+00 0.  1.
         13    1    5    5    0    0 -0.94522918050E+02 -0.29415099275E+02  0.37608825287E+02  0.10589737410E+03  0.00000000000E+00 0. -1.
        -13    1    5    5    0    0 -0.43043011085E+03 -0.34808014719E+03  0.18341451379E+03  0.58315585658E+03  0.00000000000E+00 0.  1.
          3    1    6    6  503    0 -0.19873175818E+02 -0.49095673912E+03 -0.46552838871E+03  0.67686789221E+03  0.00000000000E+00 0.  1.
         -3    1    6    6    0  503  0.13034634239E+02 -0.75733887522E+01 -0.16394135907E+02  0.22271632160E+02  0.00000000000E+00 0. -1.
<mgrwt>
<rscale>  0 0.24124134E+04</rscale>
<asrwt>0</asrwt>
<pdfrwt beam="1">  1        2 0.13666566E+00 0.24124134E+04</pdfrwt>
<pdfrwt beam="2">  1       -1 0.25197495E+00 0.24124134E+04</pdfrwt>
<totfact> 0.20704545E+00</totfact>
</mgrwt>
</event>
<event>
12    7  0.1909736E-007  0.1732854E+04  0.7818608E-02  0.8742845E-01
         -1   -1    0    0    0  501 -0.00000000000E+00  0.00000000000E+00  0.70654447962E+03  0.70654447962E+03  0.00000000000E+00 0.  1.
          2   -1    0    0  501    0  0.00000000000E+00 -0.00000000000E+00 -0.10624884229E+04  0.10624884229E+04  0.00000000000E+00 0. -1.
         24    2    1    2    0    0 -0.18818978205E+03  0.46448490818E+02 -0.75999882369E+03  0.78671562224E+03  0.61240524950E+02 0.  0.
        254    2    1    2    0    0  0.18818978205E+03 -0.46448490818E+02  0.40405488036E+03  0.98231728033E+03  0.87413616589E+03 0.  0.
         23    2    4    4    0    0 -0.41025945156E+02 -0.33022792537E+03  0.48633062765E+03  0.59646165051E+03  0.92278980581E+02 0.  0.
         23    2    4    4    0    0  0.22921572721E+03  0.28377943456E+03 -0.82275747292E+02  0.38585562983E+03  0.95103372170E+02 0.  0.
          2    1    3    3  502    0 -0.14005612835E+03  0.44966396692E+02 -0.46204070517E+03  0.48489102812E+03  0.00000000000E+00 0. -1.
         -1    1    3    3    0  502 -0.48133653708E+02  0.14820941255E+01 -0.29795811852E+03  0.30182459411E+03  0.00000000000E+00 0.  1.
         13    1    5    5    0    0  0.10570222455E+02 -0.11097338978E+03  0.10258152551E+03  0.15149188829E+03  0.00000000000E+00 0.  1.
        -13    1    5    5    0    0 -0.51596167611E+02 -0.21925453560E+03  0.38374910214E+03  0.44496976222E+03  0.00000000000E+00 0. -1.
          2    1    6    6  503    0  0.11080431683E+03  0.10666448944E+03 -0.78715028454E+02  0.17277431997E+03  0.00000000000E+00 0. -1.
         -2    1    6    6    0  503  0.11841141038E+03  0.17711494512E+03 -0.35607188377E+01  0.21308130986E+03  0.00000000000E+00 0.  1.
<mgrwt>
<rscale>  0 0.17328535E+04</rscale>
<asrwt>0</asrwt>
<pdfrwt beam="1">  1        2 0.16345976E+00 0.17328535E+04</pdfrwt>
<pdfrwt beam="2">  1       -1 0.10869915E+00 0.17328535E+04</pdfrwt>
<totfact> 0.19539526E+01</totfact>
</mgrwt>
</event>
<event>
12    7  0.1909736E-007  0.1411084E+04  0.7818608E-02  0.8945835E-01
         -1   -1    0    0    0  501 -0.00000000000E+00  0.00000000000E+00  0.76145706701E+03  0.76145706701E+03  0.00000000000E+00 0.  1.
          2   -1    0    0  501    0  0.00000000000E+00 -0.00000000000E+00 -0.65373253068E+03  0.65373253068E+03  0.00000000000E+00 0. -1.
         24    2    1    2    0    0 -0.15426456551E+03  0.26462182592E+03  0.30462910735E+03  0.43929560211E+03  0.79746260525E+02 0.  0.
        254    2    1    2    0    0  0.15426456551E+03 -0.26462182592E+03 -0.19690457102E+03  0.97589399558E+03  0.90541449822E+03 0.  0.
         23    2    4    4    0    0 -0.19352369646E+03 -0.38721515509E+03  0.14411818693E+03  0.46556596162E+03  0.92707148571E+02 0.  0.
         23    2    4    4    0    0  0.34778826197E+03  0.12259332917E+03 -0.34102275794E+03  0.51032803396E+03  0.90290538188E+02 0.  0.
          2    1    3    3  502    0 -0.15280713994E+02  0.10664017732E+02 -0.55643745530E+00  0.18642186487E+02  0.00000000000E+00 0. -1.
         -1    1    3    3    0  502 -0.13898385151E+03  0.25395780818E+03  0.30518554480E+03  0.42065341562E+03  0.00000000000E+00 0.  1.
         13    1    5    5    0    0 -0.16485011998E+03 -0.37020535735E+03  0.11487058322E+03  0.42121588237E+03  0.00000000000E+00 0. -1.
        -13    1    5    5    0    0 -0.28673576476E+02 -0.17009797735E+02  0.29247603710E+02  0.44350079252E+02  0.00000000000E+00 0.  1.
          3    1    6    6  503    0  0.24485680374E+03  0.12845725762E+03 -0.24469921393E+03  0.36923410822E+03  0.00000000000E+00 0. -1.
         -3    1    6    6    0  503  0.10293145823E+03 -0.58639284423E+01 -0.96323544009E+02  0.14109392574E+03  0.00000000000E+00 0.  1.
<mgrwt>
<rscale>  0 0.14110836E+04</rscale>
<asrwt>0</asrwt>
<pdfrwt beam="1">  1        2 0.10057424E+00 0.14110836E+04</pdfrwt>
<pdfrwt beam="2">  1       -1 0.11714724E+00 0.14110836E+04</pdfrwt>
<totfact> 0.32574718E+01</totfact>
</mgrwt>
</event>
<event>
12    7  0.1909736E-007  0.1259834E+04  0.7818608E-02  0.9062038E-01
          2   -1    0    0  501    0  0.00000000000E+00  0.00000000000E+00  0.61474243111E+03  0.61474243111E+03  0.00000000000E+00 0. -1.
         -1   -1    0    0    0  501 -0.00000000000E+00 -0.00000000000E+00 -0.64546655673E+03  0.64546655673E+03  0.00000000000E+00 0.  1.
         24    2    1    2    0    0  0.12251020470E+03  0.94289951954E+02 -0.26710248025E+03  0.31841390497E+03  0.78385806287E+02 0.  0.
        254    2    1    2    0    0 -0.12251020470E+03 -0.94289951954E+02  0.23637835463E+03  0.94179508287E+03  0.89844527173E+03 0.  0.
         23    2    4    4    0    0 -0.46562477593E+03 -0.22607520420E+03  0.78563126552E+02  0.53145258602E+03  0.91396151008E+02 0.  0.
         23    2    4    4    0    0  0.34311457123E+03  0.13178525224E+03  0.15781522808E+03  0.41034249686E+03  0.91544288810E+02 0.  0.
          2    1    3    3  502    0  0.18507813626E+02 -0.13936776245E+02 -0.32833289477E+02  0.40184546722E+02  0.00000000000E+00 0. -1.
         -1    1    3    3    0  502  0.10400239107E+03  0.10822672820E+03 -0.23426919078E+03  0.27822935825E+03  0.00000000000E+00 0.  1.
         13    1    5    5    0    0 -0.44773604776E+02  0.20929340247E+01  0.20270109225E+02  0.49192818433E+02  0.00000000000E+00 0. -1.
        -13    1    5    5    0    0 -0.42085117115E+03 -0.22816813822E+03  0.58293017327E+02  0.48225976758E+03  0.00000000000E+00 0.  1.
          3    1    6    6  503    0  0.72537898720E+02 -0.52788839835E+01  0.50761277868E+02  0.88692280936E+02  0.00000000000E+00 0. -1.
         -3    1    6    6    0  503  0.27057667251E+03  0.13706413623E+03  0.10705395021E+03  0.32165021592E+03  0.00000000000E+00 0.  1.
<mgrwt>
<rscale>  0 0.12598344E+04</rscale>
<asrwt>0</asrwt>
<pdfrwt beam="1">  1        2 0.94575759E-01 0.12598344E+04</pdfrwt>
<pdfrwt beam="2">  1       -1 0.99302547E-01 0.12598344E+04</pdfrwt>
<totfact> 0.52407546E+01</totfact>
</mgrwt>
</event>
<event>
12    7  0.1909736E-007  0.1768025E+04  0.7818608E-02  0.8723490E-01
          2   -1    0    0  501    0  0.00000000000E+00  0.00000000000E+00  0.39246263858E+03  0.39246263858E+03  0.00000000000E+00 0. -1.
         -1   -1    0    0    0  501 -0.00000000000E+00 -0.00000000000E+00 -0.19912172272E+04  0.19912172272E+04  0.00000000000E+00 0.  1.
         24    2    1    2    0    0  0.23448928483E+03 -0.46836300760E+03  0.12411334209E+01  0.52948277243E+03  0.77468279336E+02 0.  0.
        254    2    1    2    0    0 -0.23448928483E+03  0.46836300760E+03 -0.15999957220E+04  0.18541970934E+04  0.77698868646E+03 0.  0.
         23    2    4    4    0    0 -0.25359294659E+03  0.39269543694E+03 -0.16547103995E+04  0.17220024717E+04  0.93310865210E+02 0.  0.
         23    2    4    4    0    0  0.19103661755E+02  0.75667570658E+02  0.54714677513E+02  0.13219462161E+03  0.91603443743E+02 0.  0.
          2    1    3    3  502    0  0.21271488511E+03 -0.39887645604E+03 -0.23270973501E+02  0.45264951976E+03  0.00000000000E+00 0. -1.
         -1    1    3    3    0  502  0.21774399724E+02 -0.69486551557E+02  0.24512106922E+02  0.76833252673E+02  0.00000000000E+00 0.  1.
         13    1    5    5    0    0 -0.15967198079E+03  0.22827313243E+03 -0.11406872184E+04  0.11742108391E+04  0.00000000000E+00 0.  1.
        -13    1    5    5    0    0 -0.93920965791E+02  0.16442230451E+03 -0.51402318115E+03  0.54779163265E+03  0.00000000000E+00 0. -1.
          4    1    6    6  503    0  0.22223441623E+02 -0.15471724678E+02  0.23359435002E+02  0.35761974577E+02  0.00000000000E+00 0. -1.
         -4    1    6    6    0  503 -0.31197798680E+01  0.91139295336E+02  0.31355242511E+02  0.96432647033E+02  0.00000000000E+00 0.  1.
<mgrwt>
<rscale>  0 0.17680253E+04</rscale>
<asrwt>0</asrwt>
<pdfrwt beam="1">  1        2 0.60378867E-01 0.17680253E+04</pdfrwt>
<pdfrwt beam="2">  1       -1 0.30634111E+00 0.17680253E+04</pdfrwt>
<totfact> 0.26451494E+00</totfact>
</mgrwt>
</event>
<event>
12    7  0.1909736E-007  0.2658775E+04  0.7818608E-02  0.8348506E-01
          2   -1    0    0  501    0  0.00000000000E+00  0.00000000000E+00  0.93481639765E+03  0.93481639765E+03  0.00000000000E+00 0. -1.
         -1   -1    0    0    0  501 -0.00000000000E+00 -0.00000000000E+00 -0.18905012954E+04  0.18905012954E+04  0.00000000000E+00 0.  1.
         24    2    1    2    0    0  0.33914618867E+03 -0.41528726242E+03  0.69220115892E+03  0.87915755274E+03  0.79321563989E+02 0.  0.
        254    2    1    2    0    0 -0.33914618867E+03  0.41528726242E+03 -0.16478860567E+04  0.19461601403E+04  0.88573539409E+03 0.  0.
         23    2    4    4    0    0 -0.34860584249E+03  0.36136556612E+03 -0.17345684760E+04  0.18080952605E+04  0.91485338007E+02 0.  0.
         23    2    4    4    0    0  0.94596538219E+01  0.53921696294E+02  0.86682419351E+02  0.13806487986E+03  0.92471805667E+02 0.  0.
          4    1    3    3  502    0  0.26449052627E+03 -0.33279881780E+03  0.49278118320E+03  0.65080226347E+03  0.00000000000E+00 0. -1.
         -3    1    3    3    0  502  0.74655662402E+02 -0.82488444615E+02  0.19941997571E+03  0.22835528927E+03  0.00000000000E+00 0.  1.
         13    1    5    5    0    0 -0.24574155111E+03  0.25543325552E+03 -0.10648553657E+04  0.11222976467E+04  0.00000000000E+00 0. -1.
        -13    1    5    5    0    0 -0.10286429138E+03  0.10593231060E+03 -0.66971311029E+03  0.68579761371E+03  0.00000000000E+00 0.  1.
          1    1    6    6  503    0 -0.39006271810E+02  0.19654171016E+02  0.56678884697E+02  0.71556073463E+02  0.00000000000E+00 0. -1.
         -1    1    6    6    0  503  0.48465925632E+02  0.34267525278E+02  0.30003534654E+02  0.66508806393E+02  0.00000000000E+00 0.  1.
<mgrwt>
<rscale>  0 0.26587754E+04</rscale>
<asrwt>0</asrwt>
<pdfrwt beam="1">  1        2 0.14381791E+00 0.26587754E+04</pdfrwt>
<pdfrwt beam="2">  1       -1 0.29084635E+00 0.26587754E+04</pdfrwt>
<totfact> 0.10556863E+00</totfact>
</mgrwt>
</event>
<event>
12    7  0.1909736E-007  0.1245198E+04  0.7818608E-02  0.9074189E-01
         -1   -1    0    0    0  501 -0.00000000000E+00  0.00000000000E+00  0.63146579222E+03  0.63146579222E+03  0.00000000000E+00 0.  1.
          2   -1    0    0  501    0  0.00000000000E+00 -0.00000000000E+00 -0.61385707374E+03  0.61385707374E+03  0.00000000000E+00 0. -1.
         24    2    1    2    0    0  0.33171062704E+02  0.11523179990E+03 -0.24553459986E+03  0.28497822869E+03  0.80911457710E+02 0.  0.
        254    2    1    2    0    0 -0.33171062704E+02 -0.11523179990E+03  0.26314331834E+03  0.96034463727E+03  0.91577220379E+03 0.  0.
         23    2    4    4    0    0  0.18965563140E+03 -0.10087076809E+02 -0.28294760037E+03  0.35455082408E+03  0.97856704739E+02 0.  0.
         23    2    4    4    0    0 -0.22282669410E+03 -0.10514472309E+03  0.54609091872E+03  0.60579381319E+03  0.89798130236E+02 0.  0.
          2    1    3    3  502    0  0.44102628385E+02  0.74354643430E+02 -0.21794482758E+03  0.23446450200E+03  0.00000000000E+00 0. -1.
         -1    1    3    3    0  502 -0.10931565680E+02  0.40877156469E+02 -0.27589772279E+02  0.50513726685E+02  0.00000000000E+00 0.  1.
         13    1    5    5    0    0  0.30649181428E+02 -0.40356090060E+02 -0.83673562163E+02  0.97822550223E+02  0.00000000000E+00 0.  1.
        -13    1    5    5    0    0  0.15900644997E+03  0.30269013251E+02 -0.19927403821E+03  0.25672827386E+03  0.00000000000E+00 0. -1.
          3    1    6    6  503    0 -0.22151520829E+03 -0.11685935183E+03  0.52081032229E+03  0.57790006698E+03  0.00000000000E+00 0. -1.
         -3    1    6    6    0  503 -0.13114858094E+01  0.11714628743E+02  0.25280596428E+02  0.27893746206E+02  0.00000000000E+00 0.  1.
<mgrwt>
<rscale>  0 0.12451984E+04</rscale>
<asrwt>0</asrwt>
<pdfrwt beam="1">  1        2 0.94439550E-01 0.12451984E+04</pdfrwt>
<pdfrwt beam="2">  1       -1 0.97148583E-01 0.12451984E+04</pdfrwt>
<totfact> 0.55240119E+01</totfact>
</mgrwt>
</event>
<event>
12    7  0.1909736E-007  0.1694341E+04  0.7818608E-02  0.8764598E-01
         -1   -1    0    0    0  501 -0.00000000000E+00  0.00000000000E+00  0.41821385089E+03  0.41821385089E+03  0.00000000000E+00 0.  1.
          2   -1    0    0  501    0  0.00000000000E+00 -0.00000000000E+00 -0.17161033504E+04  0.17161033504E+04  0.00000000000E+00 0. -1.
         24    2    1    2    0    0  0.51121310691E+03  0.28968676255E+03 -0.28840270198E+03  0.65959412385E+03  0.81431128135E+02 0.  0.
        254    2    1    2    0    0 -0.51121310691E+03 -0.28968676255E+03 -0.10094867975E+04  0.14747230774E+04  0.90027068134E+03 0.  0.
         23    2    4    4    0    0 -0.12733621810E+03  0.22465646168E+03 -0.70907638663E+03  0.76016748604E+03  0.91543686566E+02 0.  0.
         23    2    4    4    0    0 -0.38387688881E+03 -0.51434322424E+03 -0.30041041088E+03  0.71455559138E+03  0.91830605638E+02 0.  0.
          4    1    3    3  502    0  0.43363852768E+03  0.25171877618E+03 -0.21235529185E+03  0.54451766265E+03  0.00000000000E+00 0. -1.
         -3    1    3    3    0  502  0.77574579236E+02  0.37967986372E+02 -0.76047410139E+02  0.11507646120E+03  0.00000000000E+00 0.  1.
         13    1    5    5    0    0 -0.10151431015E+03  0.12462172972E+03 -0.52530612925E+03  0.54934712169E+03  0.00000000000E+00 0.  1.
        -13    1    5    5    0    0 -0.25821907953E+02  0.10003473196E+03 -0.18377025738E+03  0.21082036435E+03  0.00000000000E+00 0. -1.
          2    1    6    6  503    0 -0.17660746848E+02 -0.70932686183E+02 -0.38825576034E+02  0.82769398347E+02  0.00000000000E+00 0. -1.
         -2    1    6    6    0  503 -0.36621614196E+03 -0.44341053805E+03 -0.26158483485E+03  0.63178619304E+03  0.00000000000E+00 0.  1.
<mgrwt>
<rscale>  0 0.16943414E+04</rscale>
<asrwt>0</asrwt>
<pdfrwt beam="1">  1        2 0.26401590E+00 0.16943414E+04</pdfrwt>
<pdfrwt beam="2">  1       -1 0.64340592E-01 0.16943414E+04</pdfrwt>
<totfact> 0.25518002E+01</totfact>
</mgrwt>
</event>
<event>
12    7  0.1909736E-007  0.1274192E+04  0.7818608E-02  0.9050285E-01
          2   -1    0    0  501    0  0.00000000000E+00  0.00000000000E+00  0.21406869592E+04  0.21406869592E+04  0.00000000000E+00 0. -1.
         -1   -1    0    0    0  501 -0.00000000000E+00 -0.00000000000E+00 -0.18960809416E+03  0.18960809416E+03  0.00000000000E+00 0.  1.
         24    2    1    2    0    0 -0.10692558938E+03 -0.11240098288E+02 -0.40039423435E+02  0.14009176877E+03  0.80393574208E+02 0.  0.
        254    2    1    2    0    0  0.10692558938E+03  0.11240098288E+02  0.19911182885E+04  0.21902032846E+04  0.90602371255E+03 0.  0.
         23    2    4    4    0    0  0.28268219918E+03 -0.25555885297E+03  0.38254809334E+03  0.54761670387E+03  0.91222023505E+02 0.  0.
         23    2    4    4    0    0 -0.17575660980E+03  0.26679895126E+03  0.16085701952E+04  0.16425865808E+04  0.92306750750E+02 0.  0.
          4    1    3    3  502    0 -0.23081031069E+00  0.88001966531E+01  0.15743806690E+02  0.18037854185E+02  0.00000000000E+00 0. -1.
         -3    1    3    3    0  502 -0.10669477907E+03 -0.20040294941E+02 -0.55783230125E+02  0.12205391458E+03  0.00000000000E+00 0.  1.
         13    1    5    5    0    0  0.13237363998E+03 -0.14091142935E+03  0.13350415288E+03  0.23495142119E+03  0.00000000000E+00 0. -1.
        -13    1    5    5    0    0  0.15030855920E+03 -0.11464742362E+03  0.24904394046E+03  0.31266528267E+03  0.00000000000E+00 0.  1.
          1    1    6    6  503    0 -0.14851778972E+03  0.22698005309E+03  0.14915072532E+04  0.15159720857E+04  0.00000000000E+00 0. -1.
         -1    1    6    6    0  503 -0.27238820081E+02  0.39818898164E+02  0.11706294201E+03  0.12661449507E+03  0.00000000000E+00 0.  1.
<mgrwt>
<rscale>  0 0.12741924E+04</rscale>
<asrwt>0</asrwt>
<pdfrwt beam="1">  1        2 0.32933644E+00 0.12741924E+04</pdfrwt>
<pdfrwt beam="2">  1       -1 0.29170478E-01 0.12741924E+04</pdfrwt>
<totfact> 0.66965017E+01</totfact>
</mgrwt>
</event>
<event>
12    7  0.1909736E-007  0.2583047E+04  0.7818608E-02  0.8373983E-01
         -1   -1    0    0    0  501 -0.00000000000E+00  0.00000000000E+00  0.10105801463E+04  0.10105801463E+04  0.00000000000E+00 0.  1.
          2   -1    0    0  501    0  0.00000000000E+00 -0.00000000000E+00 -0.16505698709E+04  0.16505698709E+04  0.00000000000E+00 0. -1.
         24    2    1    2    0    0  0.52277943760E+03 -0.39358439072E+02  0.74157958833E+03  0.91164472559E+03  0.79425391188E+02 0.  0.
        254    2    1    2    0    0 -0.52277943760E+03  0.39358439072E+02 -0.13815693129E+04  0.17495052915E+04  0.93658292297E+03 0.  0.
         23    2    4    4    0    0 -0.50658780315E+03 -0.14259029549E+03 -0.14412981087E+04  0.15370910027E+04  0.91352710392E+02 0.  0.
         23    2    4    4    0    0 -0.16191634452E+02  0.18194873456E+03  0.59728795766E+02  0.21241428887E+03  0.90469829429E+02 0.  0.
          2    1    3    3  502    0  0.20978318508E+03 -0.52080548266E+02  0.27785045769E+03  0.35202591537E+03  0.00000000000E+00 0. -1.
         -1    1    3    3    0  502  0.31299625252E+03  0.12722109194E+02  0.46372913064E+03  0.55961881023E+03  0.00000000000E+00 0.  1.
         13    1    5    5    0    0 -0.47222997852E+03 -0.15585103898E+03 -0.13376221072E+04  0.14270681836E+04  0.00000000000E+00 0.  1.
        -13    1    5    5    0    0 -0.34357824629E+02  0.13260743487E+02 -0.10367600146E+03  0.11002281904E+03  0.00000000000E+00 0. -1.
          1    1    6    6  503    0 -0.17414754011E+02 -0.33956601584E+01  0.10589619793E+02  0.20662628403E+02  0.00000000000E+00 0. -1.
         -1    1    6    6    0  503  0.12231195595E+01  0.18534439472E+03  0.49139175973E+02  0.19175166047E+03  0.00000000000E+00 0.  1.
<mgrwt>
<rscale>  0 0.25830471E+04</rscale>
<asrwt>0</asrwt>
<pdfrwt beam="1">  1        2 0.25393382E+00 0.25830471E+04</pdfrwt>
<pdfrwt beam="2">  1       -1 0.15547387E+00 0.25830471E+04</pdfrwt>
<totfact> 0.33351017E+00</totfact>
</mgrwt>
</event>
<event>
12    7  0.1909736E-007  0.1241576E+04  0.7818608E-02  0.9077224E-01
          2   -1    0    0  501    0  0.00000000000E+00  0.00000000000E+00  0.17601252080E+04  0.17601252080E+04  0.00000000000E+00 0. -1.
         -3   -1    0    0    0  501 -0.00000000000E+00 -0.00000000000E+00 -0.21894888615E+03  0.21894888615E+03  0.00000000000E+00 0.  1.
         24    2    1    2    0    0  0.10609241367E+03 -0.58188488575E+02  0.77068828994E+03  0.78438180239E+03  0.81565134856E+02 0.  0.
        254    2    1    2    0    0 -0.10609241367E+03  0.58188488575E+02  0.77048803192E+03  0.11946922918E+04  0.90498417901E+03 0.  0.
         23    2    4    4    0    0  0.27299504480E+03 -0.24478620015E+03  0.16245861626E+03  0.41169318529E+03  0.93015582294E+02 0.  0.
         23    2    4    4    0    0 -0.37908745847E+03  0.30297468872E+03  0.60802941566E+03  0.78299910649E+03  0.88808036072E+02 0.  0.
          2    1    3    3  502    0  0.47606565781E+01 -0.43235244104E+02  0.22907362022E+03  0.23316662211E+03  0.00000000000E+00 0. -1.
         -1    1    3    3    0  502  0.10133175710E+03 -0.14953244470E+02  0.54161466972E+03  0.55121518028E+03  0.00000000000E+00 0.  1.
         13    1    5    5    0    0  0.17894752454E+03 -0.12442496761E+03  0.54556076941E+02  0.22467789085E+03  0.00000000000E+00 0. -1.
        -13    1    5    5    0    0  0.94047520261E+02 -0.12036123254E+03  0.10790253931E+03  0.18701529445E+03  0.00000000000E+00 0.  1.
          1    1    6    6  503    0 -0.49527700356E+02  0.32165189908E+02  0.12717122447E+03  0.14021452449E+03  0.00000000000E+00 0. -1.
         -1    1    6    6    0  503 -0.32955975812E+03  0.27080949882E+03  0.48085819120E+03  0.64278458200E+03  0.00000000000E+00 0.  1.
<mgrwt>
<rscale>  0 0.12415755E+04</rscale>
<asrwt>0</asrwt>
<pdfrwt beam="1">  1        2 0.27078848E+00 0.12415755E+04</pdfrwt>
<pdfrwt beam="2">  1       -3 0.33684445E-01 0.12415755E+04</pdfrwt>
<totfact> 0.50072403E+01</totfact>
</mgrwt>
</event>
<event>
12    7  0.1909736E-007  0.1667339E+04  0.7818608E-02  0.8780214E-01
          2   -1    0    0  501    0  0.00000000000E+00  0.00000000000E+00  0.12184354566E+04  0.12184354566E+04  0.00000000000E+00 0. -1.
         -1   -1    0    0    0  501 -0.00000000000E+00 -0.00000000000E+00 -0.57040773347E+03  0.57040773347E+03  0.00000000000E+00 0.  1.
         24    2    1    2    0    0  0.15681487261E+03 -0.39578217190E+03  0.66502292929E+03  0.79367795655E+03  0.80217020436E+02 0.  0.
        254    2    1    2    0    0 -0.15681487261E+03  0.39578217190E+03 -0.16995206186E+02  0.99516523350E+03  0.89935008371E+03 0.  0.
         23    2    4    4    0    0 -0.39289547481E+03 -0.98296531124E+02 -0.11858788731E+03  0.43064518291E+03  0.85808649836E+02 0.  0.
         23    2    4    4    0    0  0.23608060220E+03  0.49407870302E+03  0.10159268113E+03  0.56452005059E+03  0.92271334360E+02 0.  0.
          4    1    3    3  502    0  0.15054849832E+03 -0.32198290374E+03  0.50726997618E+03  0.61940347866E+03  0.00000000000E+00 0. -1.
         -3    1    3    3    0  502  0.62663742904E+01 -0.73799268153E+02  0.15775295311E+03  0.17427447789E+03  0.00000000000E+00 0.  1.
         13    1    5    5    0    0 -0.22310138630E+03 -0.15665100578E+02 -0.82580189059E+02  0.23840954588E+03  0.00000000000E+00 0.  1.
        -13    1    5    5    0    0 -0.16979408851E+03 -0.82631430547E+02 -0.36007698255E+02  0.19223563702E+03  0.00000000000E+00 0. -1.
          3    1    6    6  503    0  0.99935936852E+02  0.16415783180E+03  0.76099535021E+02  0.20670298606E+03  0.00000000000E+00 0. -1.
         -3    1    6    6    0  503  0.13614466535E+03  0.32992087122E+03  0.25493146108E+02  0.35781706453E+03  0.00000000000E+00 0.  1.
<mgrwt>
<rscale>  0 0.16673392E+04</rscale>
<asrwt>0</asrwt>
<pdfrwt beam="1">  1        2 0.18745161E+00 0.16673392E+04</pdfrwt>
<pdfrwt beam="2">  1       -1 0.87755036E-01 0.16673392E+04</pdfrwt>
<totfact> 0.25654690E+01</totfact>
</mgrwt>
</event>
<event>
12    7  0.1909736E-007  0.2365676E+04  0.7818608E-02  0.8452467E-01
          2   -1    0    0  501    0  0.00000000000E+00  0.00000000000E+00  0.13064370795E+04  0.13064370795E+04  0.00000000000E+00 0. -1.
         -1   -1    0    0    0  501 -0.00000000000E+00 -0.00000000000E+00 -0.10709325590E+04  0.10709325590E+04  0.00000000000E+00 0.  1.
         24    2    1    2    0    0 -0.25929384927E+03 -0.43957091641E+03  0.98122313263E+03  0.11085956277E+04  0.75693718343E+02 0.  0.
        254    2    1    2    0    0  0.25929384927E+03  0.43957091641E+03 -0.74571861218E+03  0.12687740108E+04  0.89063760927E+03 0.  0.
         23    2    4    4    0    0  0.54084714396E+03  0.39276154099E+03 -0.31422370684E+03  0.74422888883E+03  0.91448563787E+02 0.  0.
         23    2    4    4    0    0 -0.28155329468E+03  0.46809375417E+02 -0.43149490534E+03  0.52454512195E+03  0.86581500636E+02 0.  0.
          2    1    3    3  502    0 -0.68359483239E+02 -0.18813824608E+03  0.37348030373E+03  0.42374114252E+03  0.00000000000E+00 0. -1.
         -1    1    3    3    0  502 -0.19093436604E+03 -0.25143267033E+03  0.60774282890E+03  0.68485448522E+03  0.00000000000E+00 0.  1.
         13    1    5    5    0    0  0.28114327240E+01  0.16904765174E+02 -0.15581946013E+02  0.23161871278E+02  0.00000000000E+00 0. -1.
        -13    1    5    5    0    0  0.53803571123E+03  0.37585677582E+03 -0.29864176083E+03  0.72106701755E+03  0.00000000000E+00 0.  1.
          2    1    6    6  503    0 -0.24633501089E+01  0.17023622015E+02 -0.19162918946E+02  0.25750519661E+02  0.00000000000E+00 0. -1.
         -2    1    6    6    0  503 -0.27908994457E+03  0.29785753402E+02 -0.41233198640E+03  0.49879460229E+03  0.00000000000E+00 0.  1.
<mgrwt>
<rscale>  0 0.23656762E+04</rscale>
<asrwt>0</asrwt>
<pdfrwt beam="1">  1        2 0.20099032E+00 0.23656762E+04</pdfrwt>
<pdfrwt beam="2">  1       -1 0.16475886E+00 0.23656762E+04</pdfrwt>
<totfact> 0.45323422E+00</totfact>
</mgrwt>
</event>
<event>
12    7  0.1909736E-007  0.1305703E+04  0.7818608E-02  0.9025055E-01
          2   -1    0    0  501    0  0.00000000000E+00  0.00000000000E+00  0.22477425298E+04  0.22477425298E+04  0.00000000000E+00 0. -1.
         -1   -1    0    0    0  501 -0.00000000000E+00 -0.00000000000E+00 -0.18961908786E+03  0.18961908786E+03  0.00000000000E+00 0.  1.
         24    2    1    2    0    0 -0.14499188847E+03  0.41572786756E+02  0.11043506041E+04  0.11175286963E+04  0.80803378518E+02 0.  0.
        254    2    1    2    0    0  0.14499188847E+03 -0.41572786756E+02  0.95377283782E+03  0.13198329213E+04  0.89973627790E+03 0.  0.
         23    2    4    4    0    0  0.53467445006E+02 -0.45587406947E+03  0.39444462837E+03  0.61187665667E+03  0.90147341811E+02 0.  0.
         23    2    4    4    0    0  0.91524443459E+02  0.41430128272E+03  0.55932820945E+03  0.70795626467E+03  0.91278421236E+02 0.  0.
          4    1    3    3  502    0 -0.15301593307E+03  0.48493688580E+02  0.10371027920E+04  0.10494511493E+04  0.00000000000E+00 0. -1.
         -3    1    3    3    0  502  0.80240446028E+01 -0.69209018233E+01  0.67247812070E+02  0.68077546974E+02  0.00000000000E+00 0.  1.
         13    1    5    5    0    0  0.74953781304E+01 -0.37166205751E+03  0.30872405890E+03  0.48321776688E+03  0.00000000000E+00 0.  1.
        -13    1    5    5    0    0  0.45972066875E+02 -0.84212011963E+02  0.85720569474E+02  0.12865888979E+03  0.00000000000E+00 0. -1.
          1    1    6    6  503    0  0.53630958596E+02  0.37676123218E+03  0.49542402685E+03  0.62471615328E+03  0.00000000000E+00 0. -1.
         -1    1    6    6    0  503  0.37893484864E+02  0.37540050542E+02  0.63904182601E+02  0.83240111387E+02  0.00000000000E+00 0.  1.
<mgrwt>
<rscale>  0 0.13057027E+04</rscale>
<asrwt>0</asrwt>
<pdfrwt beam="1">  1        2 0.34580653E+00 0.13057027E+04</pdfrwt>
<pdfrwt beam="2">  1       -1 0.29172169E-01 0.13057027E+04</pdfrwt>
<totfact> 0.58190835E+01</totfact>
</mgrwt>
</event>
<event>
12    7  0.1909736E-007  0.2813535E+04  0.7818608E-02  0.8299079E-01
         -1   -1    0    0    0  501 -0.00000000000E+00  0.00000000000E+00  0.48824562162E+03  0.48824562162E+03  0.00000000000E+00 0.  1.
          2   -1    0    0  501    0  0.00000000000E+00 -0.00000000000E+00 -0.40532758749E+04  0.40532758749E+04  0.00000000000E+00 0. -1.
         24    2    1    2    0    0  0.54800947904E+03  0.47652551469E+03 -0.32695042523E+04  0.33501124138E+04  0.78766582233E+02 0.  0.
        254    2    1    2    0    0 -0.54800947904E+03 -0.47652551469E+03 -0.29552600098E+03  0.11914090827E+04  0.89706690370E+03 0.  0.
         23    2    4    4    0    0 -0.12921937952E+03 -0.23655422675E+03  0.30355284886E+03  0.41679039210E+03  0.94415828438E+02 0.  0.
         23    2    4    4    0    0 -0.41879009952E+03 -0.23997128794E+03 -0.59907884985E+03  0.77461869055E+03  0.90373009952E+02 0.  0.
          4    1    3    3  502    0  0.54726210941E+03  0.47127462370E+03 -0.32615333914E+04  0.33405382277E+04  0.00000000000E+00 0. -1.
         -3    1    3    3    0  502  0.74736962346E+00  0.52508909909E+01 -0.79708608253E+01  0.95741861194E+01  0.00000000000E+00 0.  1.
         13    1    5    5    0    0 -0.68432922042E+01 -0.10395433350E+03  0.12805428494E+03  0.16507947781E+03  0.00000000000E+00 0.  1.
        -13    1    5    5    0    0 -0.12237608731E+03 -0.13259989325E+03  0.17549856392E+03  0.25171091429E+03  0.00000000000E+00 0. -1.
          1    1    6    6  503    0 -0.95532989146E+02 -0.52771850885E+02 -0.20100501452E+03  0.22872349273E+03  0.00000000000E+00 0. -1.
         -1    1    6    6    0  503 -0.32325711038E+03 -0.18719943706E+03 -0.39807383532E+03  0.54589519783E+03  0.00000000000E+00 0.  1.
<mgrwt>
<rscale>  0 0.28135346E+04</rscale>
<asrwt>0</asrwt>
<pdfrwt beam="1">  1        2 0.62358090E+00 0.28135346E+04</pdfrwt>
<pdfrwt beam="2">  1       -1 0.75114711E-01 0.28135346E+04</pdfrwt>
<totfact> 0.54524417E-01</totfact>
</mgrwt>
</event>
<event>
12    7  0.1909736E-007  0.1652772E+04  0.7818608E-02  0.8788768E-01
         -1   -1    0    0    0  501 -0.00000000000E+00  0.00000000000E+00  0.11946995478E+04  0.11946995478E+04  0.00000000000E+00 0.  1.
          2   -1    0    0  501    0  0.00000000000E+00 -0.00000000000E+00 -0.57161974001E+03  0.57161974001E+03  0.00000000000E+00 0. -1.
         24    2    1    2    0    0 -0.43170126744E+03 -0.28771636272E+03 -0.44911678662E+02  0.52668813384E+03  0.78972411359E+02 0.  0.
        254    2    1    2    0    0  0.43170126744E+03  0.28771636272E+03  0.66799148644E+03  0.12396311540E+04  0.90627042444E+03 0.  0.
         23    2    4    4    0    0 -0.18064671795E+03 -0.11590154071E+02 -0.83776403190E+02  0.22069174924E+03  0.94439367172E+02 0.  0.
         23    2    4    4    0    0  0.61234798540E+03  0.29930651680E+03  0.75176788963E+03  0.10189394047E+04  0.92347736282E+02 0.  0.
          2    1    3    3  502    0 -0.82852437237E+02 -0.39165058985E+02  0.19047577841E+02  0.93601487290E+02  0.00000000000E+00 0. -1.
         -1    1    3    3    0  502 -0.34884883021E+03 -0.24855130374E+03 -0.63959256503E+02  0.43308664655E+03  0.00000000000E+00 0.  1.
         13    1    5    5    0    0 -0.33134274660E+02  0.24642768116E+02  0.95923655659E+01  0.42392919866E+02  0.00000000000E+00 0.  1.
        -13    1    5    5    0    0 -0.14751244329E+03 -0.36232922187E+02 -0.93368768756E+02  0.17829882937E+03  0.00000000000E+00 0. -1.
          2    1    6    6  503    0  0.46802477742E+02  0.29741182116E+02  0.10343267655E+03  0.11735982453E+03  0.00000000000E+00 0.  1.
         -2    1    6    6    0  503  0.56554550765E+03  0.26956533468E+03  0.64833521309E+03  0.90157958019E+03  0.00000000000E+00 0. -1.
<mgrwt>
<rscale>  0 0.16527720E+04</rscale>
<asrwt>0</asrwt>
<pdfrwt beam="1">  1        2 0.87941499E-01 0.16527720E+04</pdfrwt>
<pdfrwt beam="2">  1       -1 0.18379993E+00 0.16527720E+04</pdfrwt>
<totfact> 0.11214246E+01</totfact>
</mgrwt>
</event>
<event>
12    7  0.1909736E-007  0.1760101E+04  0.7818608E-02  0.8727810E-01
         -1   -1    0    0    0  501 -0.00000000000E+00  0.00000000000E+00  0.30197317022E+03  0.30197317022E+03  0.00000000000E+00 0.  1.
          2   -1    0    0  501    0  0.00000000000E+00 -0.00000000000E+00 -0.25647603771E+04  0.25647603771E+04  0.00000000000E+00 0. -1.
         24    2    1    2    0    0 -0.33430115400E+02 -0.45599987384E+03 -0.90635408210E+02  0.47300648726E+03  0.80417051742E+02 0.  0.
        254    2    1    2    0    0  0.33430115400E+02  0.45599987384E+03 -0.21721517987E+04  0.23937270601E+04  0.89589750757E+03 0.  0.
         23    2    4    4    0    0 -0.34148386093E+03  0.50757283587E+02 -0.40409335324E+03  0.53924461747E+03  0.91136108260E+02 0.  0.
         23    2    4    4    0    0  0.37491397633E+03  0.40524259025E+03 -0.17680584454E+04  0.18544824426E+04  0.91062708143E+02 0.  0.
          4    1    3    3  502    0  0.58498203232E+01 -0.68855723847E+00 -0.56640072550E+01  0.81716269536E+01  0.00000000000E+00 0. -1.
         -3    1    3    3    0  502 -0.39279935724E+02 -0.45531131660E+03 -0.84971400955E+02  0.46483486031E+03  0.00000000000E+00 0.  1.
         13    1    5    5    0    0 -0.82855742122E+02  0.21074769405E+02 -0.47704091797E+02  0.97902503963E+02  0.00000000000E+00 0.  1.
        -13    1    5    5    0    0 -0.25862811881E+03  0.29682514181E+02 -0.35638926144E+03  0.44134211351E+03  0.00000000000E+00 0. -1.
          4    1    6    6  503    0  0.98341539342E+02  0.58556813233E+02 -0.42206425123E+03  0.43730789028E+03  0.00000000000E+00 0.  1.
         -4    1    6    6    0  503  0.27657243699E+03  0.34668577702E+03 -0.13459941942E+04  0.14171745523E+04  0.00000000000E+00 0. -1.
<mgrwt>
<rscale>  0 0.17601009E+04</rscale>
<asrwt>0</asrwt>
<pdfrwt beam="1">  1        2 0.39457853E+00 0.17601009E+04</pdfrwt>
<pdfrwt beam="2">  1       -1 0.46457409E-01 0.17601009E+04</pdfrwt>
<totfact> 0.15902735E+01</totfact>
</mgrwt>
</event>
<event>
12    7  0.2547841E-007  0.1446189E+04  0.7818608E-02  0.8921047E-01
         -1   -1    0    0    0  501 -0.00000000000E+00  0.00000000000E+00  0.32076599519E+03  0.32076599519E+03  0.00000000000E+00 0.  1.
          2   -1    0    0  501    0  0.00000000000E+00 -0.00000000000E+00 -0.16300523662E+04  0.16300523662E+04  0.00000000000E+00 0. -1.
         24    2    1    2    0    0 -0.37574966189E+03  0.12056653647E+03 -0.74716254050E+03  0.84886586348E+03  0.81223728828E+02 0.  0.
        254    2    1    2    0    0  0.37574966189E+03 -0.12056653647E+03 -0.56212383054E+03  0.11019524979E+04  0.86173778421E+03 0.  0.
         23    2    4    4    0    0  0.58606229333E+03  0.68188879205E+02 -0.53675914307E+03  0.80292937671E+03  0.92013430555E+02 0.  0.
         23    2    4    4    0    0 -0.21031263144E+03 -0.18875541567E+03 -0.25364687469E+02  0.29902312123E+03  0.94400475491E+02 0.  0.
          4    1    3    3  502    0 -0.31282674654E+03  0.86925377878E+02 -0.54383311999E+03  0.63338065732E+03  0.00000000000E+00 0. -1.
         -3    1    3    3    0  502 -0.62922915351E+02  0.33641158588E+02 -0.20332942051E+03  0.21548520616E+03  0.00000000000E+00 0.  1.
         13    1    5    5    0    0  0.38406577931E+03  0.34258465577E+02 -0.40599163352E+03  0.55991907611E+03  0.00000000000E+00 0. -1.
        -13    1    5    5    0    0  0.20199651401E+03  0.33930413628E+02 -0.13076750955E+03  0.24301030060E+03  0.00000000000E+00 0.  1.
          2    1    6    6  503    0 -0.72372783090E+02 -0.94416394271E+02  0.30513143523E+02  0.12281419774E+03  0.00000000000E+00 0. -1.
         -2    1    6    6    0  503 -0.13793984835E+03 -0.94339021400E+02 -0.55877830991E+02  0.17620892349E+03  0.00000000000E+00 0.  1.
<mgrwt>
<rscale>  0 0.14461886E+04</rscale>
<asrwt>0</asrwt>
<pdfrwt beam="1">  1        2 0.25077729E+00 0.14461886E+04</pdfrwt>
<pdfrwt beam="2">  1       -1 0.49348614E-01 0.14461886E+04</pdfrwt>
<totfact> 0.48792902E+01</totfact>
</mgrwt>
</event>
<event>
12    7  0.1909736E-007  0.1262605E+04  0.7818608E-02  0.9059757E-01
         -1   -1    0    0    0  501 -0.00000000000E+00  0.00000000000E+00  0.14800893966E+03  0.14800893966E+03  0.00000000000E+00 0.  1.
          2   -1    0    0  501    0  0.00000000000E+00 -0.00000000000E+00 -0.26926940837E+04  0.26926940837E+04  0.00000000000E+00 0. -1.
         24    2    1    2    0    0 -0.30974406080E+03 -0.11780857483E+02 -0.67865345354E+03  0.75115689888E+03  0.87097674650E+02 0.  0.
        254    2    1    2    0    0  0.30974406080E+03  0.11780857483E+02 -0.18660316905E+04  0.20895461245E+04  0.88772099479E+03 0.  0.
         23    2    4    4    0    0 -0.77122838766E+02  0.31470360299E+03 -0.31907381633E+03  0.46393337372E+03  0.91868302413E+02 0.  0.
         23    2    4    4    0    0  0.38686689956E+03 -0.30292274551E+03 -0.15469578742E+04  0.16256127508E+04  0.90055334369E+02 0.  0.
          4    1    3    3  502    0 -0.95732819414E+02  0.24423945639E+01 -0.12540920146E+03  0.15779165318E+03  0.00000000000E+00 0. -1.
         -3    1    3    3    0  502 -0.21401124138E+03 -0.14223252047E+02 -0.55324425208E+03  0.59336524569E+03  0.00000000000E+00 0.  1.
         13    1    5    5    0    0 -0.29451446198E+02  0.15162197736E+03 -0.21485015515E+03  0.26460763570E+03  0.00000000000E+00 0. -1.
        -13    1    5    5    0    0 -0.47671392567E+02  0.16308162563E+03 -0.10422366118E+03  0.19932573802E+03  0.00000000000E+00 0.  1.
          2    1    6    6  503    0  0.34167151216E+03 -0.24594026138E+03 -0.12176834819E+04  0.12884017605E+04  0.00000000000E+00 0. -1.
         -2    1    6    6    0  503  0.45195387406E+02 -0.56982484128E+02 -0.32927439232E+03  0.33721099029E+03  0.00000000000E+00 0.  1.
<mgrwt>
<rscale>  0 0.12626049E+04</rscale>
<asrwt>0</asrwt>
<pdfrwt beam="1">  1        2 0.41426065E+00 0.12626049E+04</pdfrwt>
<pdfrwt beam="2">  1       -1 0.22770605E-01 0.12626049E+04</pdfrwt>
<totfact> 0.49709228E+01</totfact>
</mgrwt>
</event>
<event>
12    7  0.1909736E-007  0.1580311E+04  0.7818608E-02  0.8832736E-01
         -1   -1    0    0    0  501 -0.00000000000E+00  0.00000000000E+00  0.30361135755E+03  0.30361135755E+03  0.00000000000E+00 0.  1.
          2   -1    0    0  501    0  0.00000000000E+00 -0.00000000000E+00 -0.20563965267E+04  0.20563965267E+04  0.00000000000E+00 0. -1.
         24    2    1    2    0    0  0.10935624439E+03  0.90457837414E+02  0.16609929117E+03  0.23290211282E+03  0.80703228501E+02 0.  0.
        254    2    1    2    0    0 -0.10935624439E+03 -0.90457837414E+02 -0.19188844603E+04  0.21271057714E+04  0.90681860493E+03 0.  0.
         23    2    4    4    0    0 -0.32316355252E+03 -0.27452564611E+03 -0.43552522959E+03  0.61467040262E+03  0.91315202389E+02 0.  0.
         23    2    4    4    0    0  0.21380730813E+03  0.18406780869E+03 -0.14833592307E+04  0.15124353688E+04  0.86669569428E+02 0.  0.
          2    1    3    3  502    0  0.14191756859E+02 -0.14570461115E+02  0.31146539352E+02  0.37199613082E+02  0.00000000000E+00 0. -1.
         -1    1    3    3    0  502  0.95164487534E+02  0.10502829853E+03  0.13495275182E+03  0.19570249974E+03  0.00000000000E+00 0.  1.
         13    1    5    5    0    0 -0.36196275809E+02 -0.10594476029E+02 -0.13360563967E+02  0.40011473033E+02  0.00000000000E+00 0. -1.
        -13    1    5    5    0    0 -0.28696727671E+03 -0.26393117008E+03 -0.42216466563E+03  0.57465892958E+03  0.00000000000E+00 0.  1.
          4    1    6    6  503    0  0.21766634190E+03  0.18335408473E+03 -0.13819967141E+04  0.14109969081E+04  0.00000000000E+00 0.  1.
         -4    1    6    6    0  503 -0.38590337706E+01  0.71372395972E+00 -0.10136251655E+03  0.10143846068E+03  0.00000000000E+00 0. -1.
<mgrwt>
<rscale>  0 0.15803105E+04</rscale>
<asrwt>0</asrwt>
<pdfrwt beam="1">  1        2 0.31636871E+00 0.15803105E+04</pdfrwt>
<pdfrwt beam="2">  1       -1 0.46709438E-01 0.15803105E+04</pdfrwt>
<totfact> 0.31055863E+01</totfact>
</mgrwt>
</event>
<event>
12    7  0.1909736E-007  0.2163567E+04  0.7818608E-02  0.8533747E-01
         -1   -1    0    0    0  501 -0.00000000000E+00  0.00000000000E+00  0.10038176253E+04  0.10038176253E+04  0.00000000000E+00 0.  1.
          2   -1    0    0  501    0  0.00000000000E+00 -0.00000000000E+00 -0.11658049705E+04  0.11658049705E+04  0.00000000000E+00 0. -1.
         24    2    1    2    0    0 -0.28976321147E+03  0.69405882309E+03  0.41380574107E+03  0.86244545388E+03  0.83045776137E+02 0.  0.
        254    2    1    2    0    0  0.28976321147E+03 -0.69405882309E+03 -0.57579308622E+03  0.13071771419E+04  0.90082963623E+03 0.  0.
         23    2    4    4    0    0  0.85466085997E+02  0.16226676134E+03 -0.33030166476E+03  0.38870707380E+03  0.91427817388E+02 0.  0.
         23    2    4    4    0    0  0.20429712548E+03 -0.85632558444E+03 -0.24549142147E+03  0.91847006809E+03  0.91051666234E+02 0.  0.
          2    1    3    3  502    0 -0.39288589074E+02  0.41429837397E+02  0.40186343496E+02  0.69820962910E+02  0.00000000000E+00 0. -1.
         -1    1    3    3    0  502 -0.25047462240E+03  0.65262898570E+03  0.37361939758E+03  0.79262449097E+03  0.00000000000E+00 0.  1.
         13    1    5    5    0    0  0.92698339048E+02  0.10110524391E+03 -0.18024043898E+03  0.22649915729E+03  0.00000000000E+00 0.  1.
        -13    1    5    5    0    0 -0.72322530507E+01  0.61161517428E+02 -0.15006122578E+03  0.16220791652E+03  0.00000000000E+00 0. -1.
          4    1    6    6  503    0  0.18286572374E+03 -0.65930061153E+03 -0.16011952881E+03  0.70267733191E+03  0.00000000000E+00 0. -1.
         -4    1    6    6    0  503  0.21431401732E+02 -0.19702497291E+03 -0.85371892654E+02  0.21579273618E+03  0.00000000000E+00 0.  1.
<mgrwt>
<rscale>  0 0.21635670E+04</rscale>
<asrwt>0</asrwt>
<pdfrwt beam="1">  1        2 0.17935461E+00 0.21635670E+04</pdfrwt>
<pdfrwt beam="2">  1       -1 0.15443348E+00 0.21635670E+04</pdfrwt>
<totfact> 0.66914477E+00</totfact>
</mgrwt>
</event>
<event>
12    7  0.1909736E-007  0.1270754E+04  0.7818608E-02  0.9053085E-01
          2   -1    0    0  501    0  0.00000000000E+00  0.00000000000E+00  0.10938409664E+04  0.10938409664E+04  0.00000000000E+00 0. -1.
         -1   -1    0    0    0  501 -0.00000000000E+00 -0.00000000000E+00 -0.36906989160E+03  0.36906989160E+03  0.00000000000E+00 0.  1.
         24    2    1    2    0    0 -0.70834719370E+02  0.30563213728E+03  0.21526487462E+03  0.38874905175E+03  0.79738937693E+02 0.  0.
        254    2    1    2    0    0  0.70834719370E+02 -0.30563213728E+03  0.50950620018E+03  0.10741618062E+04  0.89207536519E+03 0.  0.
         23    2    4    4    0    0  0.45980651692E+03 -0.21109710465E+03  0.17045692387E+03  0.54169361170E+03  0.91609963808E+02 0.  0.
         23    2    4    4    0    0 -0.38897179755E+03 -0.94535032634E+02  0.33904927631E+03  0.53246819455E+03  0.91279980005E+02 0.  0.
          2    1    3    3  502    0 -0.57069326786E+02  0.15778284423E+03  0.15524159385E+03  0.22858759034E+03  0.00000000000E+00 0. -1.
         -1    1    3    3    0  502 -0.13765392584E+02  0.14784929305E+03  0.60023280764E+02  0.16016146141E+03  0.00000000000E+00 0.  1.
         13    1    5    5    0    0  0.42658345904E+03 -0.20419822580E+03  0.18064746355E+03  0.50626462352E+03  0.00000000000E+00 0. -1.
        -13    1    5    5    0    0  0.33223057885E+02 -0.68988788504E+01 -0.10190539677E+02  0.35428988181E+02  0.00000000000E+00 0.  1.
          2    1    6    6  503    0 -0.15921528855E+03  0.12925163149E+01  0.10458864057E+03  0.19049924526E+03  0.00000000000E+00 0. -1.
         -2    1    6    6    0  503 -0.22975650900E+03 -0.95827548949E+02  0.23446063574E+03  0.34196894929E+03  0.00000000000E+00 0.  1.
<mgrwt>
<rscale>  0 0.12707537E+04</rscale>
<asrwt>0</asrwt>
<pdfrwt beam="1">  1        2 0.16828322E+00 0.12707537E+04</pdfrwt>
<pdfrwt beam="2">  1       -1 0.56779984E-01 0.12707537E+04</pdfrwt>
<totfact> 0.77286205E+01</totfact>
</mgrwt>
</event>
<event>
12    7  0.1909736E-007  0.2489643E+04  0.7818608E-02  0.8406685E-01
          2   -1    0    0  501    0  0.00000000000E+00  0.00000000000E+00  0.29643952419E+04  0.29643952419E+04  0.00000000000E+00 0. -1.
         -1   -1    0    0    0  501 -0.00000000000E+00 -0.00000000000E+00 -0.52273080537E+03  0.52273080537E+03  0.00000000000E+00 0.  1.
         24    2    1    2    0    0 -0.13169063319E+03  0.10270708906E+04  0.15140454347E+04  0.18359710818E+04  0.78988591834E+02 0.  0.
        254    2    1    2    0    0  0.13169063319E+03 -0.10270708906E+04  0.92761900181E+03  0.16511549654E+04  0.89085277689E+03 0.  0.
         23    2    4    4    0    0 -0.13893695106E+03  0.10032712383E+03  0.70000273755E+02  0.20636916822E+03  0.91209577991E+02 0.  0.
         23    2    4    4    0    0  0.27062758425E+03 -0.11273980145E+04  0.85761872806E+03  0.14447857972E+04  0.87352989287E+02 0.  0.
          4    1    3    3  502    0 -0.37810894016E+02  0.20985548263E+03  0.26076398106E+03  0.33684839485E+03  0.00000000000E+00 0. -1.
         -3    1    3    3    0  502 -0.93879739171E+02  0.81721540801E+03  0.12532814536E+04  0.14991226869E+04  0.00000000000E+00 0.  1.
         13    1    5    5    0    0  0.11009957653E+01  0.35992503706E+02  0.30720522601E+02  0.47333107056E+02  0.00000000000E+00 0. -1.
        -13    1    5    5    0    0 -0.14003794683E+03  0.64334620127E+02  0.39279751154E+02  0.15903606116E+03  0.00000000000E+00 0.  1.
          4    1    6    6  503    0  0.23872240390E+02 -0.20287639983E+03  0.12319465537E+03  0.23854903182E+03  0.00000000000E+00 0. -1.
         -4    1    6    6    0  503  0.24675534386E+03 -0.92452161465E+03  0.73442407269E+03  0.12062367654E+04  0.00000000000E+00 0.  1.
<mgrwt>
<rscale>  0 0.24896431E+04</rscale>
<asrwt>0</asrwt>
<pdfrwt beam="1">  1        2 0.45606080E+00 0.24896431E+04</pdfrwt>
<pdfrwt beam="2">  1       -1 0.80420126E-01 0.24896431E+04</pdfrwt>
<totfact> 0.28703730E+00</totfact>
</mgrwt>
</event>
<event>
12    7  0.1909736E-007  0.2028027E+04  0.7818608E-02  0.8593628E-01
          2   -1    0    0  501    0  0.00000000000E+00  0.00000000000E+00  0.16762274561E+04  0.16762274561E+04  0.00000000000E+00 0. -1.
         -1   -1    0    0    0  501 -0.00000000000E+00 -0.00000000000E+00 -0.61341514741E+03  0.61341514741E+03  0.00000000000E+00 0.  1.
         24    2    1    2    0    0  0.59916813017E+03 -0.48522782809E+03  0.16111709658E+03  0.79181027127E+03  0.80970942433E+02 0.  0.
        254    2    1    2    0    0 -0.59916813017E+03  0.48522782809E+03  0.90169521208E+03  0.14978323322E+04  0.91432977999E+03 0.  0.
         23    2    4    4    0    0 -0.62684206166E+03  0.57677294136E+03  0.10116607758E+04  0.13257669862E+04  0.92750095630E+02 0.  0.
         23    2    4    4    0    0  0.27673931489E+02 -0.91545113274E+02 -0.10996556377E+03  0.17206534598E+03  0.91475154135E+02 0.  0.
          2    1    3    3  502    0  0.56431188997E+02 -0.69706773823E+02  0.63432875999E+00  0.89687879791E+02  0.00000000000E+00 0. -1.
         -1    1    3    3    0  502  0.54273694117E+03 -0.41552105426E+03  0.16048276782E+03  0.70212239148E+03  0.00000000000E+00 0.  1.
         13    1    5    5    0    0 -0.19903148884E+02  0.74098196790E+00  0.19767319954E+02  0.28061206816E+02  0.00000000000E+00 0.  1.
        -13    1    5    5    0    0 -0.60693891278E+03  0.57603195939E+03  0.99189345590E+03  0.12977057794E+04  0.00000000000E+00 0. -1.
          4    1    6    6  503    0  0.74490018877E+01 -0.10635940267E+03 -0.81986615038E+02  0.13449764017E+03  0.00000000000E+00 0. -1.
         -4    1    6    6    0  503  0.20224929602E+02  0.14814289398E+02 -0.27978948732E+02  0.37567705811E+02  0.00000000000E+00 0.  1.
<mgrwt>
<rscale>  0 0.20280269E+04</rscale>
<asrwt>0</asrwt>
<pdfrwt beam="1">  1        2 0.25788114E+00 0.20280269E+04</pdfrwt>
<pdfrwt beam="2">  1       -1 0.94371562E-01 0.20280269E+04</pdfrwt>
<totfact> 0.11601201E+01</totfact>
</mgrwt>
</event>
<event>
12    7  0.1909736E-007  0.1703122E+04  0.7818608E-02  0.8759586E-01
          2   -1    0    0  501    0  0.00000000000E+00  0.00000000000E+00  0.19116300497E+04  0.19116300497E+04  0.00000000000E+00 0. -1.
         -1   -1    0    0    0  501 -0.00000000000E+00 -0.00000000000E+00 -0.37933930339E+03  0.37933930339E+03  0.00000000000E+00 0.  1.
         24    2    1    2    0    0 -0.85365589650E+02 -0.26041984390E+03 -0.18083991160E+03  0.33800606187E+03  0.80244907852E+02 0.  0.
        254    2    1    2    0    0  0.85365589650E+02  0.26041984390E+03  0.17131306579E+04  0.19529632912E+04  0.89674031176E+03 0.  0.
         23    2    4    4    0    0  0.20354625889E+03 -0.27034386077E+03  0.94081545194E+03  0.10040551193E+04  0.92065657977E+02 0.  0.
         23    2    4    4    0    0 -0.11818066924E+03  0.53076370467E+03  0.77231520596E+03  0.94890817191E+03  0.90989892799E+02 0.  0.
          2    1    3    3  502    0 -0.14565840372E+02 -0.22175191836E+02  0.58377173590E+01  0.27165820118E+02  0.00000000000E+00 0. -1.
         -1    1    3    3    0  502 -0.70799749278E+02 -0.23824465206E+03 -0.18667762896E+03  0.31084024175E+03  0.00000000000E+00 0.  1.
         13    1    5    5    0    0  0.70427202371E+01 -0.49880281636E+02  0.20699626397E+03  0.21303777999E+03  0.00000000000E+00 0. -1.
        -13    1    5    5    0    0  0.19650353865E+03 -0.22046357914E+03  0.73381918796E+03  0.79101733929E+03  0.00000000000E+00 0.  1.
          3    1    6    6  503    0 -0.20069310798E+02  0.17761116583E+03  0.19015272416E+03  0.26097233947E+03  0.00000000000E+00 0. -1.
         -3    1    6    6    0  503 -0.98111358443E+02  0.35315253884E+03  0.58216248180E+03  0.68793583244E+03  0.00000000000E+00 0.  1.
<mgrwt>
<rscale>  0 0.17031223E+04</rscale>
<asrwt>0</asrwt>
<pdfrwt beam="1">  1        2 0.29409693E+00 0.17031223E+04</pdfrwt>
<pdfrwt beam="2">  1       -1 0.58359894E-01 0.17031223E+04</pdfrwt>
<totfact> 0.24117999E+01</totfact>
</mgrwt>
</event>
<event>
12    7  0.1909736E-007  0.1671340E+04  0.7818608E-02  0.8777881E-01
         -1   -1    0    0    0  501 -0.00000000000E+00  0.00000000000E+00  0.60783539998E+03  0.60783539998E+03  0.00000000000E+00 0.  1.
          2   -1    0    0  501    0  0.00000000000E+00 -0.00000000000E+00 -0.11489031054E+04  0.11489031054E+04  0.00000000000E+00 0. -1.
         24    2    1    2    0    0 -0.12409679191E+03  0.26668836083E+03  0.34302020311E+03  0.45868986893E+03  0.78808886248E+02 0.  0.
        254    2    1    2    0    0  0.12409679191E+03 -0.26668836083E+03 -0.88408790849E+03  0.12980486364E+04  0.90376774504E+03 0.  0.
         23    2    4    4    0    0 -0.23502981371E+03 -0.40068791146E+03 -0.74053362689E+03  0.87896585779E+03  0.91657573984E+02 0.  0.
         23    2    4    4    0    0  0.35912660562E+03  0.13399955063E+03 -0.14355428159E+03  0.41908277862E+03  0.89970801586E+02 0.  0.
          2    1    3    3  502    0 -0.63110514432E+02  0.13973478642E+03  0.23754789363E+03  0.28273264639E+03  0.00000000000E+00 0. -1.
         -1    1    3    3    0  502 -0.60986277475E+02  0.12695357441E+03  0.10547230948E+03  0.17595722254E+03  0.00000000000E+00 0.  1.
         13    1    5    5    0    0 -0.17027423739E+03 -0.33108201394E+03 -0.52718076538E+03  0.64538994047E+03  0.00000000000E+00 0. -1.
        -13    1    5    5    0    0 -0.64755576327E+02 -0.69605897527E+02 -0.21335286151E+03  0.23357591732E+03  0.00000000000E+00 0.  1.
          3    1    6    6  503    0  0.35930562040E+03  0.14049400456E+03 -0.14546684589E+03  0.41231019563E+03  0.00000000000E+00 0. -1.
         -3    1    6    6    0  503 -0.17901478290E+00 -0.64944539284E+01  0.19125642953E+01  0.67725829862E+01  0.00000000000E+00 0.  1.
<mgrwt>
<rscale>  0 0.16713396E+04</rscale>
<asrwt>0</asrwt>
<pdfrwt beam="1">  1        2 0.17675432E+00 0.16713396E+04</pdfrwt>
<pdfrwt beam="2">  1       -1 0.93513140E-01 0.16713396E+04</pdfrwt>
<totfact> 0.24536370E+01</totfact>
</mgrwt>
</event>
<event>
12    7  0.1909736E-007  0.2385315E+04  0.7818608E-02  0.8445022E-01
          2   -1    0    0  501    0  0.00000000000E+00  0.00000000000E+00  0.19633347264E+04  0.19633347264E+04  0.00000000000E+00 0. -1.
         -1   -1    0    0    0  501 -0.00000000000E+00 -0.00000000000E+00 -0.72449789769E+03  0.72449789769E+03  0.00000000000E+00 0.  1.
         24    2    1    2    0    0  0.16106940271E+03  0.99995446775E+03  0.64243806206E+03  0.12019066167E+04  0.77463292393E+02 0.  0.
        254    2    1    2    0    0 -0.16106940271E+03 -0.99995446775E+03  0.59639876666E+03  0.14859260074E+04  0.90908323076E+03 0.  0.
         23    2    4    4    0    0  0.34580740960E+03 -0.62959573383E+03  0.29151957040E+03  0.78129124654E+03  0.97256359184E+02 0.  0.
         23    2    4    4    0    0 -0.50687681231E+03 -0.37035873392E+03  0.30487919626E+03  0.70463476083E+03  0.97309440518E+02 0.  0.
          4    1    3    3  502    0  0.38309725863E+02  0.38873248745E+03  0.21332514273E+03  0.44507100379E+03  0.00000000000E+00 0. -1.
         -3    1    3    3    0  502  0.12275967684E+03  0.61122198031E+03  0.42911291933E+03  0.75683561293E+03  0.00000000000E+00 0.  1.
         13    1    5    5    0    0  0.26974459531E+03 -0.42895104535E+03  0.16876208893E+03  0.53408032042E+03  0.00000000000E+00 0.  1.
        -13    1    5    5    0    0  0.76062814285E+02 -0.20064468849E+03  0.12275748147E+03  0.24721092612E+03  0.00000000000E+00 0. -1.
          3    1    6    6  503    0 -0.14252322353E+03 -0.11677639313E+03  0.42898524024E+02  0.18918213077E+03  0.00000000000E+00 0. -1.
         -3    1    6    6    0  503 -0.36435358877E+03 -0.25358234079E+03  0.26198067224E+03  0.51545263006E+03  0.00000000000E+00 0.  1.
<mgrwt>
<rscale>  0 0.23853150E+04</rscale>
<asrwt>0</asrwt>
<pdfrwt beam="1">  1        2 0.30205149E+00 0.23853150E+04</pdfrwt>
<pdfrwt beam="2">  1       -1 0.11146122E+00 0.23853150E+04</pdfrwt>
<totfact> 0.53065921E+00</totfact>
</mgrwt>
</event>
<event>
12    7  0.1909736E-007  0.1656986E+04  0.7818608E-02  0.8786284E-01
          2   -1    0    0  501    0  0.00000000000E+00  0.00000000000E+00  0.17679520676E+04  0.17679520676E+04  0.00000000000E+00 0. -1.
         -1   -1    0    0    0  501 -0.00000000000E+00 -0.00000000000E+00 -0.38824632352E+03  0.38824632352E+03  0.00000000000E+00 0.  1.
         24    2    1    2    0    0 -0.36144025950E+03 -0.43778587553E+03  0.35670357406E+03  0.67525191980E+03  0.80200881810E+02 0.  0.
        254    2    1    2    0    0  0.36144025950E+03  0.43778587553E+03  0.10230021700E+04  0.14809464713E+04  0.90795015120E+03 0.  0.
         23    2    4    4    0    0 -0.81942774556E+02  0.44689924001E+02 -0.12750899493E+03  0.18366304658E+03  0.93604290943E+02 0.  0.
         23    2    4    4    0    0  0.44338303406E+03  0.39309595153E+03  0.11505111650E+04  0.12972834248E+04  0.90307261247E+02 0.  0.
          4    1    3    3  502    0 -0.18014557700E+03 -0.17204573281E+03  0.12429991874E+03  0.27839294691E+03  0.00000000000E+00 0. -1.
         -3    1    3    3    0  502 -0.18129468250E+03 -0.26574014272E+03  0.23240365532E+03  0.39685897288E+03  0.00000000000E+00 0.  1.
         13    1    5    5    0    0  0.18172985336E+02  0.22939890748E+02 -0.22135771506E+02  0.36694527708E+02  0.00000000000E+00 0. -1.
        -13    1    5    5    0    0 -0.10011575989E+03  0.21750033253E+02 -0.10537322342E+03  0.14696851888E+03  0.00000000000E+00 0.  1.
          2    1    6    6  503    0  0.42526772261E+02  0.45978546375E+02  0.19091183189E+03  0.20092257375E+03  0.00000000000E+00 0. -1.
         -2    1    6    6    0  503  0.40085626180E+03  0.34711740515E+03  0.95959933308E+03  0.10963608510E+04  0.00000000000E+00 0.  1.
<mgrwt>
<rscale>  0 0.16569863E+04</rscale>
<asrwt>0</asrwt>
<pdfrwt beam="1">  1        2 0.27199262E+00 0.16569863E+04</pdfrwt>
<pdfrwt beam="2">  1       -1 0.59730204E-01 0.16569863E+04</pdfrwt>
<totfact> 0.27783366E+01</totfact>
</mgrwt>
</event>
<event>
12    7  0.1909736E-007  0.1533847E+04  0.7818608E-02  0.8862252E-01
          2   -1    0    0  501    0  0.00000000000E+00  0.00000000000E+00  0.18556199556E+04  0.18556199556E+04  0.00000000000E+00 0. -1.
         -1   -1    0    0    0  501 -0.00000000000E+00 -0.00000000000E+00 -0.31696784606E+03  0.31696784606E+03  0.00000000000E+00 0.  1.
         24    2    1    2    0    0  0.15709659194E+03  0.13759176888E+03 -0.13514136264E+03  0.26139005780E+03  0.80316501153E+02 0.  0.
        254    2    1    2    0    0 -0.15709659194E+03 -0.13759176888E+03  0.16737934722E+04  0.19111977439E+04  0.89859968537E+03 0.  0.
         23    2    4    4    0    0 -0.18552631464E+02 -0.49720649849E+03  0.74255352482E+03  0.89926430848E+03  0.98651188626E+02 0.  0.
         23    2    4    4    0    0 -0.13854396048E+03  0.35961472962E+03  0.93123994742E+03  0.10119334354E+04  0.91017884572E+02 0.  0.
          2    1    3    3  502    0  0.28120992504E+02  0.85835718550E+01 -0.54528550996E+02  0.61950228401E+02  0.00000000000E+00 0. -1.
         -1    1    3    3    0  502  0.12897559944E+03  0.12900819702E+03 -0.80612811646E+02  0.19943982940E+03  0.00000000000E+00 0.  1.
         13    1    5    5    0    0  0.34965408965E+02 -0.32289364746E+03  0.46638808576E+03  0.56833153523E+03  0.00000000000E+00 0. -1.
        -13    1    5    5    0    0 -0.53518040429E+02 -0.17431285104E+03  0.27616543905E+03  0.33093277326E+03  0.00000000000E+00 0.  1.
          1    1    6    6  503    0 -0.68809516331E+02  0.71373310358E+02  0.25025735444E+03  0.26917957282E+03  0.00000000000E+00 0. -1.
         -1    1    6    6    0  503 -0.69734444147E+02  0.28824141926E+03  0.68098259297E+03  0.74275386260E+03  0.00000000000E+00 0.  1.
<mgrwt>
<rscale>  0 0.15338473E+04</rscale>
<asrwt>0</asrwt>
<pdfrwt beam="1">  1        2 0.28547999E+00 0.15338473E+04</pdfrwt>
<pdfrwt beam="2">  1       -1 0.48764285E-01 0.15338473E+04</pdfrwt>
<totfact> 0.37143250E+01</totfact>
</mgrwt>
</event>
<event>
12    7  0.1909736E-007  0.2050837E+04  0.7818608E-02  0.8583215E-01
          2   -1    0    0  501    0  0.00000000000E+00  0.00000000000E+00  0.98095097450E+03  0.98095097450E+03  0.00000000000E+00 0. -1.
         -1   -1    0    0    0  501 -0.00000000000E+00 -0.00000000000E+00 -0.10719018296E+04  0.10719018296E+04  0.00000000000E+00 0.  1.
         24    2    1    2    0    0 -0.30939749386E+03 -0.59767556566E+03  0.43946736449E+03  0.80762885447E+03  0.78675988147E+02 0.  0.
        254    2    1    2    0    0  0.30939749386E+03  0.59767556566E+03 -0.53041821964E+03  0.12452239497E+04  0.90349117657E+03 0.  0.
         23    2    4    4    0    0  0.14389260104E+03 -0.21841183001E+03 -0.56233296007E+02  0.28257826523E+03  0.90991671503E+02 0.  0.
         23    2    4    4    0    0  0.16550489282E+03  0.81608739567E+03 -0.47418492363E+03  0.96264568445E+03  0.91895946930E+02 0.  0.
          2    1    3    3  502    0 -0.26437716801E+03 -0.54472633277E+03  0.41449733971E+03  0.73377796996E+03  0.00000000000E+00 0. -1.
         -1    1    3    3    0  502 -0.45020325853E+02 -0.52949232897E+02  0.24970024782E+02  0.73850884503E+02  0.00000000000E+00 0.  1.
         13    1    5    5    0    0  0.34885003804E+01 -0.78666597991E+02 -0.12815012428E+02  0.79779871007E+02  0.00000000000E+00 0.  1.
        -13    1    5    5    0    0  0.14040410066E+03 -0.13974523202E+03 -0.43418283579E+02  0.20279839423E+03  0.00000000000E+00 0. -1.
          4    1    6    6  503    0  0.11848278061E+03  0.43579085076E+03 -0.29663200115E+03  0.54031692461E+03  0.00000000000E+00 0.  1.
         -4    1    6    6    0  503  0.47022112212E+02  0.38029654491E+03 -0.17755292248E+03  0.42232875984E+03  0.00000000000E+00 0. -1.
<mgrwt>
<rscale>  0 0.20508370E+04</rscale>
<asrwt>0</asrwt>
<pdfrwt beam="1">  1        2 0.15091553E+00 0.20508370E+04</pdfrwt>
<pdfrwt beam="2">  1       -1 0.16490797E+00 0.20508370E+04</pdfrwt>
<totfact> 0.73409221E+00</totfact>
</mgrwt>
</event>
<event>
12    7  0.1909736E-007  0.1905755E+04  0.7818608E-02  0.8651997E-01
          2   -1    0    0  501    0  0.00000000000E+00  0.00000000000E+00  0.15272752421E+04  0.15272752421E+04  0.00000000000E+00 0. -1.
         -1   -1    0    0    0  501 -0.00000000000E+00 -0.00000000000E+00 -0.59450650190E+03  0.59450650190E+03  0.00000000000E+00 0.  1.
         24    2    1    2    0    0 -0.40659403899E+02  0.54985950702E+03 -0.18067923282E+03  0.58549927705E+03  0.78522313134E+02 0.  0.
        254    2    1    2    0    0  0.40659403899E+02 -0.54985950702E+03  0.11134479731E+04  0.15362824670E+04  0.90354787647E+03 0.  0.
         23    2    4    4    0    0  0.33419545950E+03 -0.14740249028E+03  0.92251998909E+03  0.99646157544E+03  0.92078454345E+02 0.  0.
         23    2    4    4    0    0 -0.29353605560E+03 -0.40245701675E+03  0.19092798396E+03  0.53982089154E+03  0.82571384986E+02 0.  0.
          4    1    3    3  502    0  0.67128183455E+01  0.33860001925E+03 -0.87456486215E+02  0.34977660292E+03  0.00000000000E+00 0. -1.
         -3    1    3    3    0  502 -0.47372222244E+02  0.21125948777E+03 -0.93222746605E+02  0.23572267413E+03  0.00000000000E+00 0.  1.
         13    1    5    5    0    0  0.31268704573E+03 -0.14569726143E+03  0.78769475300E+03  0.85992087105E+03  0.00000000000E+00 0. -1.
        -13    1    5    5    0    0  0.21508413773E+02 -0.17052288478E+01  0.13482523609E+03  0.13654070439E+03  0.00000000000E+00 0.  1.
          3    1    6    6  503    0 -0.25099272529E+03 -0.33164328899E+03  0.18986939381E+03  0.45720346236E+03  0.00000000000E+00 0. -1.
         -3    1    6    6    0  503 -0.42543330314E+02 -0.70813727754E+02  0.10585901492E+01  0.82617429189E+02  0.00000000000E+00 0.  1.
<mgrwt>
<rscale>  0 0.19057545E+04</rscale>
<asrwt>0</asrwt>
<pdfrwt beam="1">  1        2 0.23496542E+00 0.19057545E+04</pdfrwt>
<pdfrwt beam="2">  1       -1 0.91462539E-01 0.19057545E+04</pdfrwt>
<totfact> 0.15231040E+01</totfact>
</mgrwt>
</event>
<event>
12    7  0.1909736E-007  0.1624859E+04  0.7818608E-02  0.8805420E-01
          2   -1    0    0  501    0  0.00000000000E+00  0.00000000000E+00  0.28616692135E+04  0.28616692135E+04  0.00000000000E+00 0. -1.
         -1   -1    0    0    0  501 -0.00000000000E+00 -0.00000000000E+00 -0.23064930771E+03  0.23064930771E+03  0.00000000000E+00 0.  1.
         24    2    1    2    0    0 -0.31386834678E+03  0.53570366959E+02  0.17358055322E+04  0.17665573178E+04  0.79503384952E+02 0.  0.
        254    2    1    2    0    0  0.31386834678E+03 -0.53570366959E+02  0.89521437363E+03  0.13257612034E+04  0.92458145690E+03 0.  0.
         23    2    4    4    0    0 -0.13461755931E+03  0.11830693841E+03 -0.94709804191E+02  0.22190300020E+03  0.90291613895E+02 0.  0.
         23    2    4    4    0    0  0.44848590609E+03 -0.17187730537E+03  0.98992417783E+03  0.11038582032E+04  0.88722257223E+02 0.  0.
          2    1    3    3  502    0 -0.14656847164E+03 -0.14745226009E+02  0.75183918696E+03  0.76613438875E+03  0.00000000000E+00 0. -1.
         -1    1    3    3    0  502 -0.16729987514E+03  0.68315592968E+02  0.98396634521E+03  0.10004229290E+04  0.00000000000E+00 0.  1.
         13    1    5    5    0    0 -0.62147027041E+02  0.69065924963E+02 -0.96917662237E+02  0.13425866160E+03  0.00000000000E+00 0. -1.
        -13    1    5    5    0    0 -0.72470532264E+02  0.49241013451E+02  0.22078580460E+01  0.87644338605E+02  0.00000000000E+00 0.  1.
          3    1    6    6  503    0  0.24939734378E+03 -0.10146811983E+03  0.65162112442E+03  0.70505666738E+03  0.00000000000E+00 0. -1.
         -3    1    6    6    0  503  0.19908856231E+03 -0.70409185542E+02  0.33830305340E+03  0.39880153584E+03  0.00000000000E+00 0.  1.
<mgrwt>
<rscale>  0 0.16248594E+04</rscale>
<asrwt>0</asrwt>
<pdfrwt beam="1">  1        2 0.44025678E+00 0.16248594E+04</pdfrwt>
<pdfrwt beam="2">  1       -1 0.35484511E-01 0.16248594E+04</pdfrwt>
<totfact> 0.17577343E+01</totfact>
</mgrwt>
</event>
<event>
12    7  0.1909736E-007  0.2243009E+04  0.7818608E-02  0.8500737E-01
         -1   -1    0    0    0  501 -0.00000000000E+00  0.00000000000E+00  0.42612989992E+03  0.42612989992E+03  0.00000000000E+00 0.  1.
          2   -1    0    0  501    0  0.00000000000E+00 -0.00000000000E+00 -0.29516168706E+04  0.29516168706E+04  0.00000000000E+00 0. -1.
         24    2    1    2    0    0 -0.74447217539E+03  0.21156175808E+03 -0.26568063277E+03  0.82197953527E+03  0.77890695010E+02 0.  0.
        254    2    1    2    0    0  0.74447217539E+03 -0.21156175808E+03 -0.22598063379E+04  0.25557672353E+04  0.90896879951E+03 0.  0.
         23    2    4    4    0    0 -0.15978273668E+03 -0.16665817031E+03 -0.26145724375E+03  0.36002439954E+03  0.89175160706E+02 0.  0.
         23    2    4    4    0    0  0.90425491207E+03 -0.44903587770E+02 -0.19983490942E+04  0.21957428357E+04  0.90521932169E+02 0.  0.
          4    1    3    3  502    0 -0.24548945796E+03  0.74060068056E+02 -0.49942680747E+02  0.26123598337E+03  0.00000000000E+00 0. -1.
         -3    1    3    3    0  502 -0.49898271743E+03  0.13750169002E+03 -0.21573795203E+03  0.56074355190E+03  0.00000000000E+00 0.  1.
         13    1    5    5    0    0 -0.49998668062E+02 -0.11505480636E+03 -0.11894071814E+03  0.17287096259E+03  0.00000000000E+00 0.  1.
        -13    1    5    5    0    0 -0.10978406862E+03 -0.51603363948E+02 -0.14251652560E+03  0.18715343695E+03  0.00000000000E+00 0. -1.
          3    1    6    6  503    0  0.43539521347E+03 -0.65171647157E+02 -0.99727414262E+03  0.10901247869E+04  0.00000000000E+00 0. -1.
         -3    1    6    6    0  503  0.46885969860E+03  0.20268059387E+02 -0.10010749516E+04  0.11056180488E+04  0.00000000000E+00 0.  1.
<mgrwt>
<rscale>  0 0.22430089E+04</rscale>
<asrwt>0</asrwt>
<pdfrwt beam="1">  1        2 0.45409490E+00 0.22430089E+04</pdfrwt>
<pdfrwt beam="2">  1       -1 0.65558446E-01 0.22430089E+04</pdfrwt>
<totfact> 0.45664771E+00</totfact>
</mgrwt>
</event>
<event>
12    7  0.1909736E-007  0.1755519E+04  0.7818608E-02  0.8730318E-01
          2   -1    0    0  501    0  0.00000000000E+00  0.00000000000E+00  0.39549966194E+04  0.39549966194E+04  0.00000000000E+00 0. -1.
         -1   -1    0    0    0  501 -0.00000000000E+00 -0.00000000000E+00 -0.19480724294E+03  0.19480724294E+03  0.00000000000E+00 0.  1.
         24    2    1    2    0    0  0.27080091963E+03  0.18306313503E+03  0.77202335049E+02  0.34489555982E+03  0.78405976607E+02 0.  0.
        254    2    1    2    0    0 -0.27080091963E+03 -0.18306313503E+03  0.36829870414E+04  0.38049083025E+04  0.89782425556E+03 0.  0.
         23    2    4    4    0    0  0.21338153184E+03 -0.34863904361E+03  0.12972176655E+04  0.13632107078E+04  0.92135234192E+02 0.  0.
         23    2    4    4    0    0 -0.48418245147E+03  0.16557590859E+03  0.23857693758E+04  0.24416975946E+04  0.90241903096E+02 0.  0.
          4    1    3    3  502    0 -0.34100199762E+01  0.13081785238E+02  0.28451791012E+01  0.13815078189E+02  0.00000000000E+00 0. -1.
         -3    1    3    3    0  502  0.27421093961E+03  0.16998134979E+03  0.74357155948E+02  0.33108048163E+03  0.00000000000E+00 0.  1.
         13    1    5    5    0    0  0.13266855103E+03 -0.28992517283E+03  0.10115528404E+04  0.10606114742E+04  0.00000000000E+00 0. -1.
        -13    1    5    5    0    0  0.80712980807E+02 -0.58713870779E+02  0.28566482510E+03  0.30259923363E+03  0.00000000000E+00 0.  1.
          3    1    6    6  503    0 -0.28587789275E+03  0.14387395290E+03  0.14489948033E+04  0.14839177281E+04  0.00000000000E+00 0. -1.
         -3    1    6    6    0  503 -0.19830455872E+03  0.21701955688E+02  0.93677457256E+03  0.95777986651E+03  0.00000000000E+00 0.  1.
<mgrwt>
<rscale>  0 0.17555193E+04</rscale>
<asrwt>0</asrwt>
<pdfrwt beam="1">  1        2 0.60846096E+00 0.17555193E+04</pdfrwt>
<pdfrwt beam="2">  1       -1 0.29970348E-01 0.17555193E+04</pdfrwt>
<totfact> 0.41620827E+00</totfact>
</mgrwt>
</event>
<event>
12    7  0.1909736E-007  0.1394335E+04  0.7818608E-02  0.8957930E-01
          2   -1    0    0  501    0  0.00000000000E+00  0.00000000000E+00  0.86882521280E+03  0.86882521280E+03  0.00000000000E+00 0. -1.
         -1   -1    0    0    0  501 -0.00000000000E+00 -0.00000000000E+00 -0.55942460892E+03  0.55942460892E+03  0.00000000000E+00 0.  1.
         24    2    1    2    0    0  0.35073572425E+03 -0.13201117374E+03  0.22444413500E+03  0.44369272486E+03  0.77753238504E+02 0.  0.
        254    2    1    2    0    0 -0.35073572425E+03  0.13201117374E+03  0.84956468869E+02  0.98455709686E+03  0.90647260142E+03 0.  0.
         23    2    4    4    0    0  0.36660628310E+02  0.11337098205E+03 -0.35852249987E+03  0.38853708489E+03  0.90695656919E+02 0.  0.
         23    2    4    4    0    0 -0.38739635256E+03  0.18640191683E+02  0.44347896874E+03  0.59602001197E+03  0.90237842542E+02 0.  0.
          2    1    3    3  502    0  0.30992819811E+03 -0.14154382405E+03  0.20315592689E+03  0.39668939076E+03  0.00000000000E+00 0. -1.
         -1    1    3    3    0  502  0.40807526139E+02  0.95326503146E+01  0.21288208117E+02  0.47003334099E+02  0.00000000000E+00 0.  1.
         13    1    5    5    0    0 -0.13893442099E+02 -0.91384907862E+01 -0.30215004681E+02  0.34488929457E+02  0.00000000000E+00 0.  1.
        -13    1    5    5    0    0  0.50554070408E+02  0.12250947284E+03 -0.32830749519E+03  0.35404815544E+03  0.00000000000E+00 0. -1.
          1    1    6    6  503    0 -0.38697744874E+03  0.77952571239E+01  0.43483096335E+03  0.58214283346E+03  0.00000000000E+00 0. -1.
         -1    1    6    6    0  503 -0.41890382458E+00  0.10844934559E+02  0.86480053918E+01  0.13877178505E+02  0.00000000000E+00 0.  1.
<mgrwt>
<rscale>  0 0.13943345E+04</rscale>
<asrwt>0</asrwt>
<pdfrwt beam="1">  1        2 0.13366542E+00 0.13943345E+04</pdfrwt>
<pdfrwt beam="2">  1       -1 0.86065324E-01 0.13943345E+04</pdfrwt>
<totfact> 0.45624858E+01</totfact>
</mgrwt>
</event>
<event>
12    7  0.1909736E-007  0.2567755E+04  0.7818608E-02  0.8379237E-01
          2   -1    0    0  501    0  0.00000000000E+00  0.00000000000E+00  0.18171205640E+04  0.18171205640E+04  0.00000000000E+00 0. -1.
         -1   -1    0    0    0  501 -0.00000000000E+00 -0.00000000000E+00 -0.90711724618E+03  0.90711724618E+03  0.00000000000E+00 0.  1.
         24    2    1    2    0    0  0.77301468413E+02 -0.10717387566E+04  0.82336343647E+03  0.13560666684E+04  0.79937357687E+02 0.  0.
        254    2    1    2    0    0 -0.77301468413E+02  0.10717387566E+04  0.86639881384E+02  0.13681711418E+04  0.84248817478E+03 0.  0.
         23    2    4    4    0    0 -0.33344574146E+03  0.10724566551E+03 -0.72397190586E+01  0.36181075816E+03  0.90370990481E+02 0.  0.
         23    2    4    4    0    0  0.25614427305E+03  0.96449309114E+03  0.93879600443E+02  0.10063603836E+04  0.89950157786E+02 0.  0.
          4    1    3    3  502    0  0.58087406432E+02 -0.79598895168E+03  0.56645076079E+03  0.97869250656E+03  0.00000000000E+00 0. -1.
         -3    1    3    3    0  502  0.19214061981E+02 -0.27574980497E+03  0.25691267567E+03  0.37737416186E+03  0.00000000000E+00 0.  1.
         13    1    5    5    0    0 -0.31253808104E+02 -0.16203056628E+02 -0.32224803126E+01  0.35351434829E+02  0.00000000000E+00 0. -1.
        -13    1    5    5    0    0 -0.30219193336E+03  0.12344872214E+03 -0.40172387460E+01  0.32645932333E+03  0.00000000000E+00 0.  1.
          3    1    6    6  503    0  0.39607432389E+02  0.31093688644E+03  0.32900642015E+02  0.31517129992E+03  0.00000000000E+00 0. -1.
         -3    1    6    6    0  503  0.21653684066E+03  0.65355620470E+03  0.60978958428E+02  0.69118908370E+03  0.00000000000E+00 0.  1.
<mgrwt>
<rscale>  0 0.25677550E+04</rscale>
<asrwt>0</asrwt>
<pdfrwt beam="1">  1        2 0.27955701E+00 0.25677550E+04</pdfrwt>
<pdfrwt beam="2">  1       -1 0.13955650E+00 0.25677550E+04</pdfrwt>
<totfact> 0.36019184E+00</totfact>
</mgrwt>
</event>
<event>
12    7  0.1909736E-007  0.1626409E+04  0.7818608E-02  0.8804486E-01
         -1   -1    0    0    0  501 -0.00000000000E+00  0.00000000000E+00  0.70438609483E+03  0.70438609483E+03  0.00000000000E+00 0.  1.
          2   -1    0    0  501    0  0.00000000000E+00 -0.00000000000E+00 -0.93883361583E+03  0.93883361583E+03  0.00000000000E+00 0. -1.
         24    2    1    2    0    0 -0.47583085100E+03 -0.17906782011E+03 -0.31660464830E+03  0.60436848377E+03  0.80885585157E+02 0.  0.
        254    2    1    2    0    0  0.47583085100E+03  0.17906782011E+03  0.82157127299E+02  0.10388512269E+04  0.90220939647E+03 0.  0.
         23    2    4    4    0    0  0.32481007250E+03  0.29236085677E+03 -0.34441941833E+03  0.56321853256E+03  0.87257813030E+02 0.  0.
         23    2    4    4    0    0  0.15102077850E+03 -0.11329303666E+03  0.42657654563E+03  0.47563269433E+03  0.92824150611E+02 0.  0.
          2    1    3    3  502    0 -0.35088045313E+03 -0.14251439397E+03 -0.27379417298E+03  0.46732290126E+03  0.00000000000E+00 0. -1.
         -1    1    3    3    0  502 -0.12495039787E+03 -0.36553426134E+02 -0.42810475325E+02  0.13704558252E+03  0.00000000000E+00 0.  1.
         13    1    5    5    0    0  0.19686626517E+03  0.19691777773E+03 -0.16754767736E+03  0.32496947816E+03  0.00000000000E+00 0.  1.
        -13    1    5    5    0    0  0.12794380733E+03  0.95443079038E+02 -0.17687174097E+03  0.23824905440E+03  0.00000000000E+00 0. -1.
          1    1    6    6  503    0  0.55538346619E+02  0.69950738209E+01  0.96106377322E+02  0.11121993870E+03  0.00000000000E+00 0. -1.
         -1    1    6    6    0  503  0.95482431885E+02 -0.12028811048E+03  0.33047016831E+03  0.36441275562E+03  0.00000000000E+00 0.  1.
<mgrwt>
<rscale>  0 0.16264087E+04</rscale>
<asrwt>0</asrwt>
<pdfrwt beam="1">  1        2 0.14443594E+00 0.16264087E+04</pdfrwt>
<pdfrwt beam="2">  1       -1 0.10836709E+00 0.16264087E+04</pdfrwt>
<totfact> 0.23849185E+01</totfact>
</mgrwt>
</event>
<event>
12    7  0.1909736E-007  0.4350734E+04  0.7818608E-02  0.7937303E-01
          2   -1    0    0  501    0  0.00000000000E+00  0.00000000000E+00  0.41024213561E+04  0.41024213561E+04  0.00000000000E+00 0. -1.
         -1   -1    0    0    0  501 -0.00000000000E+00 -0.00000000000E+00 -0.11535192258E+04  0.11535192258E+04  0.00000000000E+00 0.  1.
         24    2    1    2    0    0 -0.12452113841E+03  0.98574189744E+03  0.36209091346E+04  0.37556263877E+04  0.80956784009E+02 0.  0.
        254    2    1    2    0    0  0.12452113841E+03 -0.98574189744E+03 -0.67200700424E+03  0.15003141942E+04  0.90119735091E+03 0.  0.
         23    2    4    4    0    0  0.42044335489E+03 -0.23680286609E+03 -0.80582926378E+02  0.49757609449E+03  0.90775270454E+02 0.  0.
         23    2    4    4    0    0 -0.29592221648E+03 -0.74893903136E+03 -0.59142407786E+03  0.10027380997E+04  0.84980149612E+02 0.  0.
          4    1    3    3  502    0 -0.11618891912E+03  0.70406139441E+03  0.26856754131E+04  0.27788585312E+04  0.00000000000E+00 0. -1.
         -3    1    3    3    0  502 -0.83322192891E+01  0.28168050303E+03  0.93523372149E+03  0.97676785649E+03  0.00000000000E+00 0.  1.
         13    1    5    5    0    0  0.85505606929E+02 -0.42998259777E+02  0.19945194760E+02  0.97764359325E+02  0.00000000000E+00 0. -1.
        -13    1    5    5    0    0  0.33493774797E+03 -0.19380460631E+03 -0.10052812114E+03  0.39981173517E+03  0.00000000000E+00 0.  1.
          1    1    6    6  503    0 -0.87462374969E+02 -0.33550761392E+03 -0.24971959300E+03  0.42728784345E+03  0.00000000000E+00 0. -1.
         -1    1    6    6    0  503 -0.20845984152E+03 -0.41343141744E+03 -0.34170448486E+03  0.57545025626E+03  0.00000000000E+00 0.  1.
<mgrwt>
<rscale>  0 0.43507341E+04</rscale>
<asrwt>0</asrwt>
<pdfrwt beam="1">  1        2 0.63114174E+00 0.43507341E+04</pdfrwt>
<pdfrwt beam="2">  1       -1 0.17746450E+00 0.43507341E+04</pdfrwt>
<totfact> 0.52930616E-02</totfact>
</mgrwt>
</event>
<event>
12    7  0.1909736E-007  0.2134100E+04  0.7818608E-02  0.8546369E-01
         -1   -1    0    0    0  501 -0.00000000000E+00  0.00000000000E+00  0.50923467497E+03  0.50923467497E+03  0.00000000000E+00 0.  1.
          2   -1    0    0  501    0  0.00000000000E+00 -0.00000000000E+00 -0.22358964877E+04  0.22358964877E+04  0.00000000000E+00 0. -1.
         24    2    1    2    0    0  0.57414416154E+03  0.23602414888E+03  0.80865572124E+02  0.63122737389E+03  0.80992837393E+02 0.  0.
        254    2    1    2    0    0 -0.57414416154E+03 -0.23602414888E+03 -0.18075273849E+04  0.21139037888E+04  0.90337426581E+03 0.  0.
         23    2    4    4    0    0 -0.73982826354E+03 -0.26439428581E+03 -0.95281044749E+03  0.12381584674E+04  0.89097943678E+02 0.  0.
         23    2    4    4    0    0  0.16568410200E+03  0.28370136939E+02 -0.85471693739E+03  0.87574532143E+03  0.90181697826E+02 0.  0.
          2    1    3    3  502    0  0.11878879320E+03  0.15161273814E+02  0.95009111885E+01  0.12012871816E+03  0.00000000000E+00 0. -1.
         -1    1    3    3    0  502  0.45535536834E+03  0.22086287506E+03  0.71364660936E+02  0.51109865573E+03  0.00000000000E+00 0.  1.
         13    1    5    5    0    0 -0.58790906822E+03 -0.24719811763E+03 -0.77311015737E+03  0.10022191862E+04  0.00000000000E+00 0. -1.
        -13    1    5    5    0    0 -0.15191919532E+03 -0.17196168188E+02 -0.17970029012E+03  0.23593928113E+03  0.00000000000E+00 0.  1.
          1    1    6    6  503    0  0.35096736067E+01  0.27842584235E+02 -0.15070876708E+03  0.15329924912E+03  0.00000000000E+00 0. -1.
         -1    1    6    6    0  503  0.16217442839E+03  0.52755270372E+00 -0.70400817030E+03  0.72244607231E+03  0.00000000000E+00 0.  1.
<mgrwt>
<rscale>  0 0.21341003E+04</rscale>
<asrwt>0</asrwt>
<pdfrwt beam="1">  1        2 0.34398407E+00 0.21341003E+04</pdfrwt>
<pdfrwt beam="2">  1       -1 0.78343797E-01 0.21341003E+04</pdfrwt>
<totfact> 0.84073455E+00</totfact>
</mgrwt>
</event>
<event>
12    7  0.1909736E-007  0.1246331E+04  0.7818608E-02  0.9073242E-01
          2   -1    0    0  501    0  0.00000000000E+00  0.00000000000E+00  0.33669737782E+03  0.33669737782E+03  0.00000000000E+00 0. -1.
         -1   -1    0    0    0  501 -0.00000000000E+00 -0.00000000000E+00 -0.11533664736E+04  0.11533664736E+04  0.00000000000E+00 0.  1.
         24    2    1    2    0    0  0.39090770031E+02  0.23771791867E+02  0.14584840123E+03  0.17274408609E+03  0.80470968354E+02 0.  0.
        254    2    1    2    0    0 -0.39090770031E+02 -0.23771791867E+02 -0.96251749697E+03  0.13173197653E+04  0.89821948635E+03 0.  0.
         23    2    4    4    0    0 -0.49461652750E+02  0.39838594336E+03 -0.69740284896E+03  0.81020573368E+03  0.94365153440E+02 0.  0.
         23    2    4    4    0    0  0.10370882720E+02 -0.42215773523E+03 -0.26511464800E+03  0.50711403161E+03  0.92488679555E+02 0.  0.
          4    1    3    3  502    0 -0.79395792194E+01 -0.13836269891E+02  0.87333673155E+02  0.88778655933E+02  0.00000000000E+00 0. -1.
         -3    1    3    3    0  502  0.47030349250E+02  0.37608061758E+02  0.58514728076E+02  0.83965430158E+02  0.00000000000E+00 0.  1.
         13    1    5    5    0    0 -0.69934459547E+02  0.37083431620E+03 -0.65128623230E+03  0.75271686250E+03  0.00000000000E+00 0.  1.
        -13    1    5    5    0    0  0.20472806796E+02  0.27551627165E+02 -0.46116616662E+02  0.57488871183E+02  0.00000000000E+00 0. -1.
          1    1    6    6  503    0  0.38464667627E+02 -0.10190569879E+03 -0.88285032072E+02  0.14020894761E+03  0.00000000000E+00 0. -1.
         -1    1    6    6    0  503 -0.28093784908E+02 -0.32025203644E+03 -0.17682961593E+03  0.36690508400E+03  0.00000000000E+00 0.  1.
<mgrwt>
<rscale>  0 0.12463314E+04</rscale>
<asrwt>0</asrwt>
<pdfrwt beam="1">  1        2 0.51799597E-01 0.12463314E+04</pdfrwt>
<pdfrwt beam="2">  1       -1 0.17744100E+00 0.12463314E+04</pdfrwt>
<totfact> 0.23608526E+01</totfact>
</mgrwt>
</event>
<event>
12    7  0.1909736E-007  0.3999373E+04  0.7818608E-02  0.8004673E-01
         -1   -1    0    0    0  501 -0.00000000000E+00  0.00000000000E+00  0.14874674574E+04  0.14874674574E+04  0.00000000000E+00 0.  1.
          2   -1    0    0  501    0  0.00000000000E+00 -0.00000000000E+00 -0.26882915811E+04  0.26882915811E+04  0.00000000000E+00 0. -1.
         24    2    1    2    0    0  0.81428036751E+03  0.16041788214E+04 -0.11948914582E+04  0.21614768546E+04  0.88172490866E+02 0.  0.
        254    2    1    2    0    0 -0.81428036751E+03 -0.16041788214E+04 -0.59326655788E+01  0.20142821840E+04  0.90601065799E+03 0.  0.
         23    2    4    4    0    0 -0.27016448233E+03 -0.13897254385E+04 -0.59043368212E+02  0.14199302112E+04  0.91597180434E+02 0.  0.
         23    2    4    4    0    0 -0.54411588518E+03 -0.21445338286E+03  0.53110702633E+02  0.59435197277E+03  0.91548734955E+02 0.  0.
          4    1    3    3  502    0  0.75051378021E+03  0.14601027139E+04 -0.11174515335E+04  0.19859176214E+04  0.00000000000E+00 0. -1.
         -3    1    3    3    0  502  0.63766587302E+02  0.14407610749E+03 -0.77439924656E+02  0.17555923313E+03  0.00000000000E+00 0.  1.
         13    1    5    5    0    0 -0.10579111656E+03 -0.34917609548E+03 -0.46384413305E+00  0.36485054632E+03  0.00000000000E+00 0.  1.
        -13    1    5    5    0    0 -0.16437336577E+03 -0.10405493430E+04 -0.58579524079E+02  0.10550796649E+04  0.00000000000E+00 0. -1.
          1    1    6    6  503    0 -0.42589893307E+03 -0.16091499383E+03  0.78815238500E+02  0.46205560082E+03  0.00000000000E+00 0. -1.
         -1    1    6    6    0  503 -0.11821695212E+03 -0.53538389030E+02 -0.25704535867E+02  0.13229637195E+03  0.00000000000E+00 0.  1.
<mgrwt>
<rscale>  0 0.39993731E+04</rscale>
<asrwt>0</asrwt>
<pdfrwt beam="1">  1        2 0.41358332E+00 0.39993731E+04</pdfrwt>
<pdfrwt beam="2">  1       -1 0.22884115E+00 0.39993731E+04</pdfrwt>
<totfact> 0.23237594E-01</totfact>
</mgrwt>
</event>
<event>
12    7  0.2053697E-007  0.1931932E+04  0.7818608E-02  0.8639123E-01
          2   -1    0    0  501    0  0.00000000000E+00  0.00000000000E+00  0.22717352025E+04  0.22717352025E+04  0.00000000000E+00 0. -1.
         -1   -1    0    0    0  501 -0.00000000000E+00 -0.00000000000E+00 -0.41073923395E+03  0.41073923395E+03  0.00000000000E+00 0.  1.
         24    2    1    2    0    0 -0.24583124116E+03  0.59540415513E+03  0.19120998584E+03  0.67665835648E+03  0.79788255006E+02 0.  0.
        254    2    1    2    0    0  0.24583124116E+03 -0.59540415513E+03  0.16697859827E+04  0.20058160799E+04  0.90563448008E+03 0.  0.
         23    2    4    4    0    0 -0.15331793320E+03 -0.21622835901E+03  0.40168204948E+02  0.28323283167E+03  0.91357869763E+02 0.  0.
         23    2    4    4    0    0  0.39914917436E+03 -0.37917579612E+03  0.16296177777E+04  0.17225832483E+04  0.92436994483E+02 0.  0.
          2    1    3    3  502    0 -0.33708053869E+02  0.96241435015E+02  0.12250764347E+01  0.10198111355E+03  0.00000000000E+00 0. -1.
         -1    1    3    3    0  502 -0.21212318729E+03  0.49916272011E+03  0.18998490940E+03  0.57467724292E+03  0.00000000000E+00 0.  1.
         13    1    5    5    0    0 -0.10499790928E+03 -0.19613004876E+03  0.54354605787E+02  0.22901087344E+03  0.00000000000E+00 0. -1.
        -13    1    5    5    0    0 -0.48320023917E+02 -0.20098310244E+02 -0.14186400838E+02  0.54221958234E+02  0.00000000000E+00 0.  1.
          2    1    6    6  503    0  0.34130278455E+03 -0.27344657588E+03  0.12502756888E+04  0.13245564989E+04  0.00000000000E+00 0. -1.
         -2    1    6    6    0  503  0.57846389805E+02 -0.10572922024E+03  0.37934208890E+03  0.39802674940E+03  0.00000000000E+00 0.  1.
<mgrwt>
<rscale>  0 0.19319325E+04</rscale>
<asrwt>0</asrwt>
<pdfrwt beam="1">  1        2 0.34949772E+00 0.19319325E+04</pdfrwt>
<pdfrwt beam="2">  1       -1 0.63190653E-01 0.19319325E+04</pdfrwt>
<totfact> 0.12710581E+01</totfact>
</mgrwt>
</event>
<event>
12    7  0.1909736E-007  0.1292009E+04  0.7818608E-02  0.9035926E-01
          2   -1    0    0  501    0  0.00000000000E+00  0.00000000000E+00  0.94211045588E+03  0.94211045588E+03  0.00000000000E+00 0. -1.
         -1   -1    0    0    0  501 -0.00000000000E+00 -0.00000000000E+00 -0.44296470711E+03  0.44296470711E+03  0.00000000000E+00 0.  1.
         24    2    1    2    0    0 -0.29886798720E+03  0.81938895647E+02  0.41211455493E+02  0.32266839527E+03  0.79877736869E+02 0.  0.
        254    2    1    2    0    0  0.29886798720E+03 -0.81938895647E+02  0.45793429328E+03  0.10624067677E+04  0.90717598444E+03 0.  0.
         23    2    4    4    0    0  0.13161043777E+03  0.35280274061E+03  0.44275887694E+03  0.58757821759E+03  0.86149042786E+02 0.  0.
         23    2    4    4    0    0  0.16725754943E+03 -0.43474163625E+03  0.15175416343E+02  0.47482855013E+03  0.90865178265E+02 0.  0.
          2    1    3    3  502    0  0.50113434770E+01 -0.74652565768E+00  0.12209584868E+01  0.52116795401E+01  0.00000000000E+00 0. -1.
         -1    1    3    3    0  502 -0.30387933068E+03  0.82685421304E+02  0.39990497006E+02  0.31745671573E+03  0.00000000000E+00 0.  1.
         13    1    5    5    0    0  0.12814876743E+02  0.48254773339E+01  0.24177845965E+01  0.13905106249E+02  0.00000000000E+00 0.  1.
        -13    1    5    5    0    0  0.11879556102E+03  0.34797726327E+03  0.44034109234E+03  0.57367311134E+03  0.00000000000E+00 0. -1.
          3    1    6    6  503    0  0.87241926518E+02 -0.33756080882E+03  0.14201519990E+02  0.34894145148E+03  0.00000000000E+00 0. -1.
         -3    1    6    6    0  503  0.80015622915E+02 -0.97180827437E+02  0.97389635303E+00  0.12588709865E+03  0.00000000000E+00 0.  1.
<mgrwt>
<rscale>  0 0.12920088E+04</rscale>
<asrwt>0</asrwt>
<pdfrwt beam="1">  1        2 0.14494007E+00 0.12920088E+04</pdfrwt>
<pdfrwt beam="2">  1       -1 0.68148417E-01 0.12920088E+04</pdfrwt>
<totfact> 0.67038900E+01</totfact>
</mgrwt>
</event>
<event>
12    7  0.1909736E-007  0.2358915E+04  0.7818608E-02  0.8455047E-01
          2   -1    0    0  501    0  0.00000000000E+00  0.00000000000E+00  0.11549103847E+04  0.11549103847E+04  0.00000000000E+00 0. -1.
         -1   -1    0    0    0  501 -0.00000000000E+00 -0.00000000000E+00 -0.12045260590E+04  0.12045260590E+04  0.00000000000E+00 0.  1.
         24    2    1    2    0    0  0.79348746624E+03  0.41522719796E+02 -0.63551252271E+03  0.10205973537E+04  0.79976849804E+02 0.  0.
        254    2    1    2    0    0 -0.79348746624E+03 -0.41522719796E+02  0.58589684837E+03  0.13388390900E+04  0.90436082216E+03 0.  0.
         23    2    4    4    0    0 -0.25987227510E+03  0.34477343399E+03 -0.15707131701E+02  0.44190675462E+03  0.92911493559E+02 0.  0.
         23    2    4    4    0    0 -0.53361519114E+03 -0.38629615379E+03  0.60160398007E+03  0.89693233539E+03  0.92684274750E+02 0.  0.
          2    1    3    3  502    0  0.32231809269E+02  0.11081804991E+02 -0.12063242656E+02  0.36155466447E+02  0.00000000000E+00 0. -1.
         -1    1    3    3    0  502  0.76125565697E+03  0.30440914805E+02 -0.62344928006E+03  0.98444188725E+03  0.00000000000E+00 0.  1.
         13    1    5    5    0    0 -0.17460645691E+03  0.16104968227E+03 -0.26874353422E+02  0.23905364634E+03  0.00000000000E+00 0. -1.
        -13    1    5    5    0    0 -0.85265818192E+02  0.18372375172E+03  0.11167221721E+02  0.20285310828E+03  0.00000000000E+00 0.  1.
          1    1    6    6  503    0 -0.78046595441E+02 -0.87679052850E+02  0.75070184849E+02  0.13933563802E+03  0.00000000000E+00 0. -1.
         -1    1    6    6    0  503 -0.45556859570E+03 -0.29861710094E+03  0.52653379522E+03  0.75759669737E+03  0.00000000000E+00 0.  1.
<mgrwt>
<rscale>  0 0.23589147E+04</rscale>
<asrwt>0</asrwt>
<pdfrwt beam="1">  1        2 0.17767852E+00 0.23589147E+04</pdfrwt>
<pdfrwt beam="2">  1       -1 0.18531170E+00 0.23589147E+04</pdfrwt>
<totfact> 0.39548400E+00</totfact>
</mgrwt>
</event>
<event>
12    7  0.1909736E-007  0.2264589E+04  0.7818608E-02  0.8492016E-01
         -1   -1    0    0    0  501 -0.00000000000E+00  0.00000000000E+00  0.51125806419E+03  0.51125806419E+03  0.00000000000E+00 0.  1.
          2   -1    0    0  501    0  0.00000000000E+00 -0.00000000000E+00 -0.25077170536E+04  0.25077170536E+04  0.00000000000E+00 0. -1.
         24    2    1    2    0    0  0.27691607051E+03  0.46688084759E+03  0.20082211088E+03  0.58418611921E+03  0.79269576161E+02 0.  0.
        254    2    1    2    0    0 -0.27691607051E+03 -0.46688084759E+03 -0.21972811003E+04  0.24347889986E+04  0.89749261724E+03 0.  0.
         23    2    4    4    0    0 -0.15402507943E+03  0.17992698489E+03 -0.18092503150E+03  0.31195539135E+03  0.92113268254E+02 0.  0.
         23    2    4    4    0    0 -0.12289099108E+03 -0.64680783247E+03 -0.20163560688E+04  0.21228336072E+04  0.85253504439E+02 0.  0.
          2    1    3    3  502    0  0.80190136526E+01  0.29147902380E+02  0.30542149579E+02  0.42973569715E+02  0.00000000000E+00 0. -1.
         -1    1    3    3    0  502  0.26889705686E+03  0.43773294521E+03  0.17027996130E+03  0.54121254949E+03  0.00000000000E+00 0.  1.
         13    1    5    5    0    0 -0.80557064920E+00  0.58338751205E+02 -0.36634331649E+02  0.68892184546E+02  0.00000000000E+00 0.  1.
        -13    1    5    5    0    0 -0.15321950878E+03  0.12158823368E+03 -0.14429069985E+03  0.24306320681E+03  0.00000000000E+00 0. -1.
          1    1    6    6  503    0 -0.66175936452E+02 -0.46126955192E+03 -0.15232029290E+04  0.15928892043E+04  0.00000000000E+00 0. -1.
         -1    1    6    6    0  503 -0.56715054632E+02 -0.18553828055E+03 -0.49315313979E+03  0.52994440299E+03  0.00000000000E+00 0.  1.
<mgrwt>
<rscale>  0 0.22645888E+04</rscale>
<asrwt>0</asrwt>
<pdfrwt beam="1">  1        2 0.38580262E+00 0.22645888E+04</pdfrwt>
<pdfrwt beam="2">  1       -1 0.78655087E-01 0.22645888E+04</pdfrwt>
<totfact> 0.57646011E+00</totfact>
</mgrwt>
</event>
<event>
12    7  0.1909736E-007  0.2408718E+04  0.7818608E-02  0.8436247E-01
          2   -1    0    0  501    0  0.00000000000E+00  0.00000000000E+00  0.22986915597E+04  0.22986915597E+04  0.00000000000E+00 0. -1.
         -1   -1    0    0    0  501 -0.00000000000E+00 -0.00000000000E+00 -0.63100247434E+03  0.63100247434E+03  0.00000000000E+00 0.  1.
         24    2    1    2    0    0 -0.42481784142E+03  0.34665249585E+03 -0.34673288988E+03  0.65375949442E+03  0.80867968620E+02 0.  0.
        254    2    1    2    0    0  0.42481784142E+03 -0.34665249585E+03  0.20144219753E+04  0.22759345397E+04  0.90628030049E+03 0.  0.
         23    2    4    4    0    0  0.18378577054E+03  0.29815174822E+03  0.61875178942E+03  0.71702424559E+03  0.92727112731E+02 0.  0.
         23    2    4    4    0    0  0.24103207088E+03 -0.64480424407E+03  0.13956701859E+04  0.15589102941E+04  0.91853496868E+02 0.  0.
          2    1    3    3  502    0 -0.10098473325E+03  0.11419283790E+03 -0.65534934277E+02  0.16592994964E+03  0.00000000000E+00 0. -1.
         -1    1    3    3    0  502 -0.32383310817E+03  0.23245965795E+03 -0.28119795561E+03  0.48782954478E+03  0.00000000000E+00 0.  1.
         13    1    5    5    0    0  0.22782489628E+02  0.17692876681E+02  0.11376669358E+03  0.11736669156E+03  0.00000000000E+00 0.  1.
        -13    1    5    5    0    0  0.16100328091E+03  0.28045887154E+03  0.50498509583E+03  0.59965755403E+03  0.00000000000E+00 0. -1.
          4    1    6    6  503    0  0.10946957512E+03 -0.23843018862E+03  0.62399109105E+03  0.67690281757E+03  0.00000000000E+00 0. -1.
         -4    1    6    6    0  503  0.13156249575E+03 -0.40637405545E+03  0.77167909481E+03  0.88200747649E+03  0.00000000000E+00 0.  1.
<mgrwt>
<rscale>  0 0.24087176E+04</rscale>
<asrwt>0</asrwt>
<pdfrwt beam="1">  1        2 0.35364485E+00 0.24087176E+04</pdfrwt>
<pdfrwt beam="2">  1       -1 0.97077305E-01 0.24087176E+04</pdfrwt>
<totfact> 0.47335003E+00</totfact>
</mgrwt>
</event>
<event>
12    7  0.1909736E-007  0.1757295E+04  0.7818608E-02  0.8729345E-01
          2   -1    0    0  501    0  0.00000000000E+00  0.00000000000E+00  0.45346622223E+03  0.45346622223E+03  0.00000000000E+00 0. -1.
         -1   -1    0    0    0  501 -0.00000000000E+00 -0.00000000000E+00 -0.17024895835E+04  0.17024895835E+04  0.00000000000E+00 0.  1.
         24    2    1    2    0    0  0.50187432754E+02  0.20565493839E+03 -0.11782876934E+04  0.11996960463E+04  0.78076777054E+02 0.  0.
        254    2    1    2    0    0 -0.50187432754E+02 -0.20565493839E+03 -0.70735667885E+02  0.95625975940E+03  0.92984754699E+03 0.  0.
         23    2    4    4    0    0 -0.44674681882E+03 -0.18154104035E+03 -0.19857974210E+03  0.52965072914E+03  0.92499251047E+02 0.  0.
         23    2    4    4    0    0  0.39655938607E+03 -0.24113898041E+02  0.12784407422E+03  0.42660903027E+03  0.88376075019E+02 0.  0.
          2    1    3    3  502    0  0.62349423681E+02  0.14771125996E+03 -0.72229645810E+03  0.73987717922E+03  0.00000000000E+00 0. -1.
         -1    1    3    3    0  502 -0.12161990927E+02  0.57943678428E+02 -0.45599123529E+03  0.45981886711E+03  0.00000000000E+00 0.  1.
         13    1    5    5    0    0 -0.48546481026E+02 -0.43817200751E+02 -0.51955380999E+02  0.83522868225E+02  0.00000000000E+00 0. -1.
        -13    1    5    5    0    0 -0.39820033779E+03 -0.13772383959E+03 -0.14662436110E+03  0.44612786091E+03  0.00000000000E+00 0.  1.
          1    1    6    6  503    0  0.26522552732E+03 -0.38896840865E+02  0.12144849406E+03  0.29429115053E+03  0.00000000000E+00 0. -1.
         -1    1    6    6    0  503  0.13133385875E+03  0.14782942824E+02  0.63955801561E+01  0.13231787973E+03  0.00000000000E+00 0.  1.
<mgrwt>
<rscale>  0 0.17572951E+04</rscale>
<asrwt>0</asrwt>
<pdfrwt beam="1">  1        2 0.69764034E-01 0.17572951E+04</pdfrwt>
<pdfrwt beam="2">  1       -1 0.26192147E+00 0.17572951E+04</pdfrwt>
<totfact> 0.43538013E+00</totfact>
</mgrwt>
</event>
<event>
12    7  0.1909736E-007  0.1582797E+04  0.7818608E-02  0.8831187E-01
         -1   -1    0    0    0  501 -0.00000000000E+00  0.00000000000E+00  0.76487575436E+03  0.76487575436E+03  0.00000000000E+00 0.  1.
          2   -1    0    0  501    0  0.00000000000E+00 -0.00000000000E+00 -0.81884071295E+03  0.81884071295E+03  0.00000000000E+00 0. -1.
         24    2    1    2    0    0  0.17296350075E+03 -0.41912798165E+02  0.48266125777E+03  0.52141996206E+03  0.85110703421E+02 0.  0.
        254    2    1    2    0    0 -0.17296350075E+03  0.41912798165E+02 -0.53662621637E+03  0.10622965052E+04  0.89935149621E+03 0.  0.
         23    2    4    4    0    0 -0.92005797682E+01  0.24418385990E+03 -0.69592732454E+03  0.74422228919E+03  0.99204670150E+02 0.  0.
         23    2    4    4    0    0 -0.16376292098E+03 -0.20227106174E+03  0.15930110818E+03  0.31807421606E+03  0.89791353424E+02 0.  0.
          2    1    3    3  502    0  0.42774666655E+02 -0.53379839760E+01  0.23801586278E+03  0.24188781928E+03  0.00000000000E+00 0. -1.
         -1    1    3    3    0  502  0.13018883410E+03 -0.36574814189E+02  0.24464539499E+03  0.27953214278E+03  0.00000000000E+00 0.  1.
         13    1    5    5    0    0 -0.92321004308E+00  0.23343371300E+03 -0.69167418495E+03  0.73000364986E+03  0.00000000000E+00 0. -1.
        -13    1    5    5    0    0 -0.82773697251E+01  0.10750146906E+02 -0.42531395907E+01  0.14218639332E+02  0.00000000000E+00 0.  1.
          4    1    6    6  503    0 -0.21413345628E+02 -0.24402256660E+02 -0.10297572636E+02  0.34059382015E+02  0.00000000000E+00 0.  1.
         -4    1    6    6    0  503 -0.14234957536E+03 -0.17786880508E+03  0.16959868081E+03  0.28401483404E+03  0.00000000000E+00 0. -1.
<mgrwt>
<rscale>  0 0.15827968E+04</rscale>
<asrwt>0</asrwt>
<pdfrwt beam="1">  1        2 0.12597549E+00 0.15827968E+04</pdfrwt>
<pdfrwt beam="2">  1       -1 0.11767319E+00 0.15827968E+04</pdfrwt>
<totfact> 0.23773142E+01</totfact>
</mgrwt>
</event>
<event>
12    7  0.1909736E-007  0.1135241E+04  0.7818608E-02  0.9171508E-01
         -1   -1    0    0    0  501 -0.00000000000E+00  0.00000000000E+00  0.26484967191E+03  0.26484967191E+03  0.00000000000E+00 0.  1.
          2   -1    0    0  501    0  0.00000000000E+00 -0.00000000000E+00 -0.12165128187E+04  0.12165128187E+04  0.00000000000E+00 0. -1.
         24    2    1    2    0    0  0.33515103356E+02  0.18021122444E+03 -0.85497208935E+02  0.21721969933E+03  0.79216648975E+02 0.  0.
        254    2    1    2    0    0 -0.33515103356E+02 -0.18021122444E+03 -0.86616593781E+03  0.12641427912E+04  0.90233819449E+03 0.  0.
         23    2    4    4    0    0 -0.11687713130E+03 -0.88048144611E+02  0.15521467491E+03  0.23152093168E+03  0.89986704083E+02 0.  0.
         23    2    4    4    0    0  0.83362027940E+02 -0.92163079832E+02 -0.10213806127E+04  0.10326218595E+04  0.87443054572E+02 0.  0.
          2    1    3    3  502    0  0.48617076178E+01  0.31056702697E+02 -0.53427370844E+02  0.61989022727E+02  0.00000000000E+00 0. -1.
         -1    1    3    3    0  502  0.28653395739E+02  0.14915452175E+03 -0.32069838091E+02  0.15523067661E+03  0.00000000000E+00 0.  1.
         13    1    5    5    0    0 -0.23464842468E+02 -0.58497656528E+02  0.23288540140E+02  0.67193234430E+02  0.00000000000E+00 0. -1.
        -13    1    5    5    0    0 -0.93412288828E+02 -0.29550488084E+02  0.13192613477E+03  0.16432769726E+03  0.00000000000E+00 0.  1.
          3    1    6    6  503    0  0.19733287219E+02 -0.12998636370E+02 -0.43697400020E+02  0.49677257780E+02  0.00000000000E+00 0. -1.
         -3    1    6    6    0  503  0.63628740721E+02 -0.79164443461E+02 -0.97768321269E+03  0.98294460177E+03  0.00000000000E+00 0.  1.
<mgrwt>
<rscale>  0 0.11352410E+04</rscale>
<asrwt>0</asrwt>
<pdfrwt beam="1">  1        2 0.18715582E+00 0.11352410E+04</pdfrwt>
<pdfrwt beam="2">  1       -1 0.40746103E-01 0.11352410E+04</pdfrwt>
<totfact> 0.12302835E+02</totfact>
</mgrwt>
</event>
<event>
12    7  0.1909736E-007  0.2165900E+04  0.7818608E-02  0.8532757E-01
          2   -1    0    0  501    0  0.00000000000E+00  0.00000000000E+00  0.90879334921E+03  0.90879334921E+03  0.00000000000E+00 0. -1.
         -1   -1    0    0    0  501 -0.00000000000E+00 -0.00000000000E+00 -0.12904810989E+04  0.12904810989E+04  0.00000000000E+00 0.  1.
         24    2    1    2    0    0 -0.11846469608E+03 -0.45097675763E+03  0.61375025932E+03  0.77523179025E+03  0.82951959922E+02 0.  0.
        254    2    1    2    0    0  0.11846469608E+03  0.45097675763E+03 -0.99543800900E+03  0.14240426578E+04  0.90531030121E+03 0.  0.
         23    2    4    4    0    0  0.17598475214E+03 -0.16974624021E+03 -0.18129410788E+02  0.26142949753E+03  0.90731954635E+02 0.  0.
         23    2    4    4    0    0 -0.57520056067E+02  0.62072299784E+03 -0.97730859821E+03  0.11626131603E+04  0.89059909694E+02 0.  0.
          2    1    3    3  502    0 -0.83430894609E+02 -0.29572296065E+03  0.33755223288E+03  0.45645842478E+03  0.00000000000E+00 0. -1.
         -1    1    3    3    0  502 -0.35033801468E+02 -0.15525379699E+03  0.27619802644E+03  0.31877336547E+03  0.00000000000E+00 0.  1.
         13    1    5    5    0    0  0.92263032509E+02 -0.14517526428E+03  0.13978001877E+01  0.17201825011E+03  0.00000000000E+00 0.  1.
        -13    1    5    5    0    0  0.83721719635E+02 -0.24570975930E+02 -0.19527210976E+02  0.89411247420E+02  0.00000000000E+00 0. -1.
          1    1    6    6  503    0 -0.43674206652E+02  0.10408798679E+03 -0.17797899457E+03  0.21075641824E+03  0.00000000000E+00 0. -1.
         -1    1    6    6    0  503 -0.13845849414E+02  0.51663501105E+03 -0.79932960364E+03  0.95185674208E+03  0.00000000000E+00 0.  1.
<mgrwt>
<rscale>  0 0.21658999E+04</rscale>
<asrwt>0</asrwt>
<pdfrwt beam="1">  1        2 0.13981436E+00 0.21658999E+04</pdfrwt>
<pdfrwt beam="2">  1       -1 0.19853555E+00 0.21658999E+04</pdfrwt>
<totfact> 0.46585856E+00</totfact>
</mgrwt>
</event>
<event>
12    7  0.1909736E-007  0.1560242E+04  0.7818608E-02  0.8845352E-01
          2   -1    0    0  501    0  0.00000000000E+00  0.00000000000E+00  0.21835687555E+04  0.21835687555E+04  0.00000000000E+00 0. -1.
         -1   -1    0    0    0  501 -0.00000000000E+00 -0.00000000000E+00 -0.27871285312E+03  0.27871285312E+03  0.00000000000E+00 0.  1.
         24    2    1    2    0    0 -0.51255299107E+03  0.18038568184E+03  0.70994798209E+03  0.89758227137E+03  0.79863844943E+02 0.  0.
        254    2    1    2    0    0  0.51255299107E+03 -0.18038568184E+03  0.11949079203E+04  0.15646993373E+04  0.85160408357E+03 0.  0.
         23    2    4    4    0    0  0.45365783077E+03  0.17839037909E+03  0.26609783013E+03  0.56307396294E+03  0.92820675351E+02 0.  0.
         23    2    4    4    0    0  0.58895160300E+02 -0.35877606092E+03  0.92881009017E+03  0.10016253743E+04  0.91522156187E+02 0.  0.
          4    1    3    3  502    0 -0.46130739535E+03  0.14621933776E+03  0.59291462035E+03  0.76533153259E+03  0.00000000000E+00 0. -1.
         -3    1    3    3    0  502 -0.51245595716E+02  0.34166344075E+02  0.11703336174E+03  0.13225073878E+03  0.00000000000E+00 0.  1.
         13    1    5    5    0    0  0.71098240820E+02  0.15220384499E+02  0.77935389183E+02  0.10658585666E+03  0.00000000000E+00 0. -1.
        -13    1    5    5    0    0  0.38255958995E+03  0.16316999459E+03  0.18816244095E+03  0.45648810629E+03  0.00000000000E+00 0.  1.
          3    1    6    6  503    0 -0.64870764394E+00 -0.21327131403E+03  0.45711128999E+03  0.50441630193E+03  0.00000000000E+00 0. -1.
         -3    1    6    6    0  503  0.59543867944E+02 -0.14550474689E+03  0.47169880018E+03  0.49720907239E+03  0.00000000000E+00 0.  1.
<mgrwt>
<rscale>  0 0.15602419E+04</rscale>
<asrwt>0</asrwt>
<pdfrwt beam="1">  1        2 0.33593364E+00 0.15602419E+04</pdfrwt>
<pdfrwt beam="2">  1       -1 0.42878902E-01 0.15602419E+04</pdfrwt>
<totfact> 0.30988292E+01</totfact>
</mgrwt>
</event>
<event>
12    7  0.1909736E-007  0.1707247E+04  0.7818608E-02  0.8757242E-01
          2   -1    0    0  501    0  0.00000000000E+00  0.00000000000E+00  0.14820868118E+04  0.14820868118E+04  0.00000000000E+00 0. -1.
         -3   -1    0    0    0  501 -0.00000000000E+00 -0.00000000000E+00 -0.49165315904E+03  0.49165315904E+03  0.00000000000E+00 0.  1.
         24    2    1    2    0    0  0.59750498340E+03 -0.41838457141E+02  0.19416423172E+03  0.63448103467E+03  0.78126645840E+02 0.  0.
        254    2    1    2    0    0 -0.59750498340E+03  0.41838457141E+02  0.79626942104E+03  0.13392589362E+04  0.89487811771E+03 0.  0.
         23    2    4    4    0    0 -0.93439602071E+01  0.28905770890E+03  0.58903077730E+03  0.66251686669E+03  0.91267044278E+02 0.  0.
         23    2    4    4    0    0 -0.58816102319E+03 -0.24721925176E+03  0.20723864374E+03  0.67674206949E+03  0.89337704853E+02 0.  0.
          2    1    3    3  502    0  0.21432019849E+03 -0.26249934305E+02  0.32737306075E+02  0.21838941765E+03  0.00000000000E+00 0. -1.
         -1    1    3    3    0  502  0.38318478491E+03 -0.15588522836E+02  0.16142692564E+03  0.41609161702E+03  0.00000000000E+00 0.  1.
         13    1    5    5    0    0  0.10485501870E+02  0.27789574989E+03  0.56303641357E+03  0.62796974176E+03  0.00000000000E+00 0. -1.
        -13    1    5    5    0    0 -0.19829462077E+02  0.11161959009E+02  0.25994363729E+02  0.34547124929E+02  0.00000000000E+00 0.  1.
          2    1    6    6  503    0 -0.45741428882E+03 -0.22801645651E+03  0.17959666438E+03  0.54173268123E+03  0.00000000000E+00 0. -1.
         -2    1    6    6    0  503 -0.13074673438E+03 -0.19202795255E+02  0.27641979362E+02  0.13500938826E+03  0.00000000000E+00 0.  1.
<mgrwt>
<rscale>  0 0.17072465E+04</rscale>
<asrwt>0</asrwt>
<pdfrwt beam="1">  1        2 0.22801335E+00 0.17072465E+04</pdfrwt>
<pdfrwt beam="2">  1       -3 0.75638948E-01 0.17072465E+04</pdfrwt>
<totfact> 0.12978773E+01</totfact>
</mgrwt>
</event>
<event>
12    7  0.1909736E-007  0.2553470E+04  0.7818608E-02  0.8384180E-01
         -1   -1    0    0    0  501 -0.00000000000E+00  0.00000000000E+00  0.15492204754E+04  0.15492204754E+04  0.00000000000E+00 0.  1.
          2   -1    0    0  501    0  0.00000000000E+00 -0.00000000000E+00 -0.10521761045E+04  0.10521761045E+04  0.00000000000E+00 0. -1.
         24    2    1    2    0    0 -0.47779888936E+03  0.10072226201E+04  0.24474422607E+03  0.11439150772E+04  0.76503480531E+02 0.  0.
        254    2    1    2    0    0  0.47779888936E+03 -0.10072226201E+04  0.25230014487E+03  0.14574815027E+04  0.90432725413E+03 0.  0.
         23    2    4    4    0    0 -0.15531600323E+03  0.61029268359E+02  0.30517115085E+02  0.19282947823E+03  0.91674865176E+02 0.  0.
         23    2    4    4    0    0  0.63311489259E+03 -0.10682518884E+04  0.22178302978E+03  0.12646520245E+04  0.90335299596E+02 0.  0.
          4    1    3    3  502    0 -0.44239356563E+03  0.87715959188E+03  0.22265432786E+03  0.10073211833E+04  0.00000000000E+00 0. -1.
         -3    1    3    3    0  502 -0.35405323735E+02  0.13006302819E+03  0.22089898212E+02  0.13659389391E+03  0.00000000000E+00 0.  1.
         13    1    5    5    0    0 -0.43229768171E+02  0.38791845102E+02 -0.27963263670E+02  0.64463665872E+02  0.00000000000E+00 0.  1.
        -13    1    5    5    0    0 -0.11208623506E+03  0.22237423257E+02  0.58480378755E+02  0.12836581236E+03  0.00000000000E+00 0. -1.
          3    1    6    6  503    0  0.10677379142E+03 -0.12365686272E+03  0.19203193568E+02  0.16450053153E+03  0.00000000000E+00 0. -1.
         -3    1    6    6    0  503  0.52634110118E+03 -0.94459502571E+03  0.20257983622E+03  0.11001514929E+04  0.00000000000E+00 0.  1.
<mgrwt>
<rscale>  0 0.25534704E+04</rscale>
<asrwt>0</asrwt>
<pdfrwt beam="1">  1        2 0.16187325E+00 0.25534704E+04</pdfrwt>
<pdfrwt beam="2">  1       -1 0.23834161E+00 0.25534704E+04</pdfrwt>
<totfact> 0.19635992E+00</totfact>
</mgrwt>
</event>
<event>
12    7  0.1909736E-007  0.3669714E+04  0.7818608E-02  0.8074707E-01
          2   -1    0    0  501    0  0.00000000000E+00  0.00000000000E+00  0.17880941023E+04  0.17880941023E+04  0.00000000000E+00 0. -1.
         -1   -1    0    0    0  501 -0.00000000000E+00 -0.00000000000E+00 -0.18828424113E+04  0.18828424113E+04  0.00000000000E+00 0.  1.
         24    2    1    2    0    0  0.42446932279E+03  0.16548695708E+04 -0.26202793544E+03  0.17312438904E+04  0.98890175036E+02 0.  0.
        254    2    1    2    0    0 -0.42446932279E+03 -0.16548695708E+04  0.16727962644E+03  0.19396926232E+04  0.90313758461E+03 0.  0.
         23    2    4    4    0    0 -0.66759481913E+03 -0.14606140477E+04  0.13762307844E+03  0.16144154540E+04  0.91219007670E+02 0.  0.
         23    2    4    4    0    0  0.24312549634E+03 -0.19425552306E+03  0.29656547999E+02  0.32527716921E+03  0.89891661251E+02 0.  0.
          2    1    3    3  502    0  0.21423143994E+03  0.73502021766E+03 -0.16031032747E+03  0.78220792078E+03  0.00000000000E+00 0. -1.
         -1    1    3    3    0  502  0.21023788285E+03  0.91984935313E+03 -0.10171760797E+03  0.94903596960E+03  0.00000000000E+00 0.  1.
         13    1    5    5    0    0 -0.40043942876E+03 -0.76846903257E+03  0.82259506548E+02  0.87043840479E+03  0.00000000000E+00 0. -1.
        -13    1    5    5    0    0 -0.26715539037E+03 -0.69214501517E+03  0.55363571894E+02  0.74397704919E+03  0.00000000000E+00 0.  1.
          1    1    6    6  503    0  0.24358685819E+02 -0.65486829497E+02  0.16953609832E+01  0.69890948350E+02  0.00000000000E+00 0. -1.
         -1    1    6    6    0  503  0.21876681052E+03 -0.12876869356E+03  0.27961187016E+02  0.25538622086E+03  0.00000000000E+00 0.  1.
<mgrwt>
<rscale>  0 0.36697136E+04</rscale>
<asrwt>0</asrwt>
<pdfrwt beam="1">  1        2 0.27509140E+00 0.36697136E+04</pdfrwt>
<pdfrwt beam="2">  1       -1 0.28966806E+00 0.36697136E+04</pdfrwt>
<totfact> 0.31130546E-01</totfact>
</mgrwt>
</event>
<event>
12    7  0.1909736E-007  0.1500900E+04  0.7818608E-02  0.8883855E-01
          2   -1    0    0  501    0  0.00000000000E+00  0.00000000000E+00  0.88946657562E+03  0.88946657562E+03  0.00000000000E+00 0. -1.
         -1   -1    0    0    0  501 -0.00000000000E+00 -0.00000000000E+00 -0.63316033591E+03  0.63316033591E+03  0.00000000000E+00 0.  1.
         24    2    1    2    0    0 -0.31266127394E+03 -0.14462065102E+03  0.41235922299E+03  0.54324977784E+03  0.80049905740E+02 0.  0.
        254    2    1    2    0    0  0.31266127394E+03  0.14462065102E+03 -0.15605298329E+03  0.97937713369E+03  0.90341287985E+03 0.  0.
         23    2    4    4    0    0  0.27008912199E+03  0.39857700530E+03 -0.38273513994E+03  0.62183363828E+03  0.91537551749E+02 0.  0.
         23    2    4    4    0    0  0.42572151947E+02 -0.25395635427E+03  0.22668215666E+03  0.35754349541E+03  0.10072900756E+03 0.  0.
          4    1    3    3  502    0 -0.28345116147E+03 -0.14107659655E+03  0.40273480630E+03  0.51229141242E+03  0.00000000000E+00 0. -1.
         -3    1    3    3    0  502 -0.29210112470E+02 -0.35440544688E+01  0.96244166920E+01  0.30958365417E+02  0.00000000000E+00 0.  1.
         13    1    5    5    0    0  0.27223064665E+03  0.37383656846E+03 -0.37622502559E+03  0.59616153413E+03  0.00000000000E+00 0. -1.
        -13    1    5    5    0    0 -0.21415246637E+01  0.24740436832E+02 -0.65101143567E+01  0.25672104149E+02  0.00000000000E+00 0.  1.
          3    1    6    6  503    0  0.64387027524E+02 -0.21414896938E+03  0.21601361128E+03  0.31091373508E+03  0.00000000000E+00 0. -1.
         -3    1    6    6    0  503 -0.21814875576E+02 -0.39807384891E+02  0.10668545380E+02  0.46629760333E+02  0.00000000000E+00 0.  1.
<mgrwt>
<rscale>  0 0.15008997E+04</rscale>
<asrwt>0</asrwt>
<pdfrwt beam="1">  1        2 0.13684101E+00 0.15008997E+04</pdfrwt>
<pdfrwt beam="2">  1       -1 0.97409282E-01 0.15008997E+04</pdfrwt>
<totfact> 0.33270560E+01</totfact>
</mgrwt>
</event>
<event>
12    7  0.1909736E-007  0.1268457E+04  0.7818608E-02  0.9054960E-01
         -1   -1    0    0    0  501 -0.00000000000E+00  0.00000000000E+00  0.59629236975E+03  0.59629236975E+03  0.00000000000E+00 0.  1.
          2   -1    0    0  501    0  0.00000000000E+00 -0.00000000000E+00 -0.67457844217E+03  0.67457844217E+03  0.00000000000E+00 0. -1.
         24    2    1    2    0    0 -0.96682569421E+02 -0.13324755145E+03  0.23783184288E+03  0.30002855851E+03  0.79691412566E+02 0.  0.
        254    2    1    2    0    0  0.96682569421E+02  0.13324755145E+03 -0.31611791531E+03  0.97084225341E+03  0.90305133599E+03 0.  0.
         23    2    4    4    0    0 -0.34056329450E+03  0.26976962861E+03 -0.21415412704E+03  0.49294219455E+03  0.91493207180E+02 0.  0.
         23    2    4    4    0    0  0.43724586392E+03 -0.13652207716E+03 -0.10196378826E+03  0.47790005886E+03  0.90386000410E+02 0.  0.
          2    1    3    3  502    0  0.68767037821E+01 -0.11723706575E+02  0.57886263493E+02  0.59460523475E+02  0.00000000000E+00 0. -1.
         -1    1    3    3    0  502 -0.10355927320E+03 -0.12152384488E+03  0.17994557939E+03  0.24056803504E+03  0.00000000000E+00 0.  1.
         13    1    5    5    0    0 -0.23379159821E+03  0.12819244625E+03 -0.12547957431E+03  0.29468107886E+03  0.00000000000E+00 0. -1.
        -13    1    5    5    0    0 -0.10677169629E+03  0.14157718236E+03 -0.88674552729E+02  0.19826111569E+03  0.00000000000E+00 0.  1.
          3    1    6    6  503    0  0.51290228956E+02 -0.13449758264E+02 -0.43531471021E+02  0.68604464526E+02  0.00000000000E+00 0. -1.
         -3    1    6    6    0  503  0.38595563497E+03 -0.12307231889E+03 -0.58432317243E+02  0.40929559433E+03  0.00000000000E+00 0.  1.
<mgrwt>
<rscale>  0 0.12684573E+04</rscale>
<asrwt>0</asrwt>
<pdfrwt beam="1">  1        2 0.10378130E+00 0.12684573E+04</pdfrwt>
<pdfrwt beam="2">  1       -1 0.91737288E-01 0.12684573E+04</pdfrwt>
<totfact> 0.55803451E+01</totfact>
</mgrwt>
</event>
<event>
12    7  0.1909736E-007  0.1549161E+04  0.7818608E-02  0.8852404E-01
          2   -1    0    0  501    0  0.00000000000E+00  0.00000000000E+00  0.35866353004E+03  0.35866353004E+03  0.00000000000E+00 0. -1.
         -3   -1    0    0    0  501 -0.00000000000E+00 -0.00000000000E+00 -0.16728068655E+04  0.16728068655E+04  0.00000000000E+00 0.  1.
         24    2    1    2    0    0  0.46704462774E+03  0.75977896051E+02 -0.66406932040E+03  0.82145046699E+03  0.99445876861E+02 0.  0.
        254    2    1    2    0    0 -0.46704462774E+03 -0.75977896051E+02 -0.65007401508E+03  0.12100199286E+04  0.90423928110E+03 0.  0.
         23    2    4    4    0    0 -0.40764174530E+03 -0.43628013978E+03 -0.55835954027E+03  0.82249414130E+03  0.90659160583E+02 0.  0.
         23    2    4    4    0    0 -0.59402882449E+02  0.36030224372E+03 -0.91714474810E+02  0.38752578728E+03  0.91751194206E+02 0.  0.
          2    1    3    3  502    0  0.64947687679E+02  0.36648984500E+02 -0.15094045523E+03  0.16835786654E+03  0.00000000000E+00 0. -1.
         -1    1    3    3    0  502  0.40209694006E+03  0.39328911551E+02 -0.51312886517E+03  0.65309260045E+03  0.00000000000E+00 0.  1.
         13    1    5    5    0    0 -0.36240441836E+03 -0.33742716367E+03 -0.45387354207E+03  0.67171068580E+03  0.00000000000E+00 0.  1.
        -13    1    5    5    0    0 -0.45237326936E+02 -0.98852976103E+02 -0.10448599820E+03  0.15078345550E+03  0.00000000000E+00 0. -1.
          3    1    6    6  503    0  0.65579533503E+01  0.14367762661E+03 -0.70249252404E+02  0.16006631315E+03  0.00000000000E+00 0.  1.
         -3    1    6    6    0  503 -0.65960835799E+02  0.21662461711E+03 -0.21465222406E+02  0.22745947413E+03  0.00000000000E+00 0. -1.
<mgrwt>
<rscale>  0 0.15491608E+04</rscale>
<asrwt>0</asrwt>
<pdfrwt beam="1">  1        2 0.55179004E-01 0.15491608E+04</pdfrwt>
<pdfrwt beam="2">  1       -3 0.25735490E+00 0.15491608E+04</pdfrwt>
<totfact> 0.35776877E+00</totfact>
</mgrwt>
</event>
<event>
12    7  0.1909736E-007  0.1818074E+04  0.7818608E-02  0.8696746E-01
          2   -1    0    0  501    0  0.00000000000E+00  0.00000000000E+00  0.34823741201E+04  0.34823741201E+04  0.00000000000E+00 0. -1.
         -1   -1    0    0    0  501 -0.00000000000E+00 -0.00000000000E+00 -0.23729463751E+03  0.23729463751E+03  0.00000000000E+00 0.  1.
         24    2    1    2    0    0 -0.18516355369E+03  0.54124992230E+03  0.20062889615E+04  0.20877550004E+04  0.79300218590E+02 0.  0.
        254    2    1    2    0    0  0.18516355369E+03 -0.54124992230E+03  0.12387905211E+04  0.16319137572E+04  0.89515559309E+03 0.  0.
         23    2    4    4    0    0 -0.24352215164E+03  0.64097594882E+02  0.56729049143E+03  0.62737544954E+03  0.91487228679E+02 0.  0.
         23    2    4    4    0    0  0.42868570532E+03 -0.60534751718E+03  0.67150002966E+03  0.10045383077E+04  0.89262933204E+02 0.  0.
          4    1    3    3  502    0 -0.14490176048E+03  0.43254279096E+03  0.14732607438E+04  0.15422668399E+04  0.00000000000E+00 0. -1.
         -3    1    3    3    0  502 -0.40261793209E+02  0.10870713134E+03  0.53302821768E+03  0.54548816050E+03  0.00000000000E+00 0.  1.
         13    1    5    5    0    0 -0.18885521796E+03  0.66127663522E+02  0.34859975857E+03  0.40194645527E+03  0.00000000000E+00 0.  1.
        -13    1    5    5    0    0 -0.54666933678E+02 -0.20300686400E+01  0.21869073286E+03  0.22542899427E+03  0.00000000000E+00 0. -1.
          4    1    6    6  503    0  0.15049730213E+03 -0.19220279009E+03  0.16819602578E+03  0.29644772483E+03  0.00000000000E+00 0. -1.
         -4    1    6    6    0  503  0.27818840319E+03 -0.41314472709E+03  0.50330400388E+03  0.70809058285E+03  0.00000000000E+00 0.  1.
<mgrwt>
<rscale>  0 0.18180745E+04</rscale>
<asrwt>0</asrwt>
<pdfrwt beam="1">  1        2 0.53574983E+00 0.18180745E+04</pdfrwt>
<pdfrwt beam="2">  1       -1 0.36506870E-01 0.18180745E+04</pdfrwt>
<totfact> 0.65064372E+00</totfact>
</mgrwt>
</event>
<event>
12    7  0.1909736E-007  0.2275717E+04  0.7818608E-02  0.8487557E-01
          2   -1    0    0  501    0  0.00000000000E+00  0.00000000000E+00  0.13490183576E+04  0.13490183576E+04  0.00000000000E+00 0. -1.
         -1   -1    0    0    0  501 -0.00000000000E+00 -0.00000000000E+00 -0.95975146981E+03  0.95975146981E+03  0.00000000000E+00 0.  1.
         24    2    1    2    0    0  0.79756467702E+03 -0.53090683037E+03  0.12729673304E+03  0.96970686437E+03  0.78456790693E+02 0.  0.
        254    2    1    2    0    0 -0.79756467702E+03  0.53090683037E+03  0.26197015472E+03  0.13390629630E+04  0.89804776064E+03 0.  0.
         23    2    4    4    0    0 -0.81064476707E+03  0.66531279003E+03  0.26876504612E+02  0.10529957767E+04  0.91058839547E+02 0.  0.
         23    2    4    4    0    0  0.13080090051E+02 -0.13440595966E+03  0.23509365011E+03  0.28606718633E+03  0.91265327632E+02 0.  0.
          2    1    3    3  502    0  0.69705147796E+03 -0.46814926754E+03  0.13717035111E+03  0.85079974426E+03  0.00000000000E+00 0. -1.
         -1    1    3    3    0  502  0.10051319906E+03 -0.62757562839E+02 -0.98736180711E+01  0.11890712011E+03  0.00000000000E+00 0.  1.
         13    1    5    5    0    0 -0.67878814129E+03  0.52173710486E+03  0.44331805419E+02  0.85727956719E+03  0.00000000000E+00 0.  1.
        -13    1    5    5    0    0 -0.13185662578E+03  0.14357568517E+03 -0.17455300807E+02  0.19571620949E+03  0.00000000000E+00 0. -1.
          4    1    6    6  503    0 -0.35557993491E+02 -0.32349536272E+02  0.90997618425E+02  0.10291467319E+03  0.00000000000E+00 0. -1.
         -4    1    6    6    0  503  0.48638083542E+02 -0.10205642338E+03  0.14409603169E+03  0.18315251315E+03  0.00000000000E+00 0.  1.
<mgrwt>
<rscale>  0 0.22757173E+04</rscale>
<asrwt>0</asrwt>
<pdfrwt beam="1">  1        2 0.20754129E+00 0.22757173E+04</pdfrwt>
<pdfrwt beam="2">  1       -1 0.14765407E+00 0.22757173E+04</pdfrwt>
<totfact> 0.58342917E+00</totfact>
</mgrwt>
</event>
<event>
12    7  0.1909736E-007  0.1366265E+04  0.7818608E-02  0.8978607E-01
         -1   -1    0    0    0  501 -0.00000000000E+00  0.00000000000E+00  0.97619378727E+03  0.97619378727E+03  0.00000000000E+00 0.  1.
          2   -1    0    0  501    0  0.00000000000E+00 -0.00000000000E+00 -0.47805030769E+03  0.47805030769E+03  0.00000000000E+00 0. -1.
         24    2    1    2    0    0 -0.23370919784E+03  0.28300350991E+03  0.26897421717E+02  0.37641440577E+03  0.79078175244E+02 0.  0.
        254    2    1    2    0    0  0.23370919784E+03 -0.28300350991E+03  0.47124605787E+03  0.10778296892E+04  0.89718059279E+03 0.  0.
         23    2    4    4    0    0  0.51881213186E+02  0.30909285121E+03  0.25639879447E+03  0.41509774064E+03  0.91300282232E+02 0.  0.
         23    2    4    4    0    0  0.18182798465E+03 -0.59209636111E+03  0.21484726340E+03  0.66273194855E+03  0.97029749013E+02 0.  0.
          4    1    3    3  502    0 -0.21127581477E+03  0.23138039616E+03 -0.15841943158E+01  0.31333188045E+03  0.00000000000E+00 0. -1.
         -3    1    3    3    0  502 -0.22433383072E+02  0.51623113744E+02  0.28481616033E+02  0.63082525318E+02  0.00000000000E+00 0.  1.
         13    1    5    5    0    0  0.74207601147E+01  0.64095018160E+02  0.10631988347E+03  0.12436702398E+03  0.00000000000E+00 0.  1.
        -13    1    5    5    0    0  0.44460453072E+02  0.24499783305E+03  0.15007891100E+03  0.29073071666E+03  0.00000000000E+00 0. -1.
          3    1    6    6  503    0  0.12729925235E+03 -0.49971138460E+03  0.20528281827E+03  0.55502937132E+03  0.00000000000E+00 0. -1.
         -3    1    6    6    0  503  0.54528732304E+02 -0.92384976512E+02  0.95644451260E+01  0.10770257723E+03  0.00000000000E+00 0.  1.
<mgrwt>
<rscale>  0 0.13662646E+04</rscale>
<asrwt>0</asrwt>
<pdfrwt beam="1">  1        2 0.73546202E-01 0.13662646E+04</pdfrwt>
<pdfrwt beam="2">  1       -1 0.15018366E+00 0.13662646E+04</pdfrwt>
<totfact> 0.25173693E+01</totfact>
</mgrwt>
</event>
<event>
12    7  0.1909736E-007  0.3099084E+04  0.7818608E-02  0.8215989E-01
          2   -1    0    0  501    0  0.00000000000E+00  0.00000000000E+00  0.12758340649E+04  0.12758340649E+04  0.00000000000E+00 0. -1.
         -1   -1    0    0    0  501 -0.00000000000E+00 -0.00000000000E+00 -0.18819694377E+04  0.18819694377E+04  0.00000000000E+00 0.  1.
         24    2    1    2    0    0 -0.71619222574E+03  0.68306842053E+03 -0.13098645447E+04  0.16436820769E+04  0.80198958799E+02 0.  0.
        254    2    1    2    0    0  0.71619222574E+03 -0.68306842053E+03  0.70372917190E+03  0.15141214257E+04  0.90433134027E+03 0.  0.
         23    2    4    4    0    0  0.36688403827E+03 -0.33099372668E+03 -0.14982093736E+03  0.52282176873E+03  0.82070359763E+02 0.  0.
         23    2    4    4    0    0  0.34930818747E+03 -0.35207469386E+03  0.85355010926E+03  0.99129965695E+03  0.90301832552E+02 0.  0.
          2    1    3    3  502    0 -0.51111237718E+01  0.13108150821E+02 -0.86190122185E+01  0.16499532593E+02  0.00000000000E+00 0. -1.
         -1    1    3    3    0  502 -0.71108110197E+03  0.66996026971E+03 -0.13012455325E+04  0.16271825443E+04  0.00000000000E+00 0.  1.
         13    1    5    5    0    0  0.35917482086E+03 -0.29926494268E+03 -0.13283342461E+03  0.48601520198E+03  0.00000000000E+00 0.  1.
        -13    1    5    5    0    0  0.77092174100E+01 -0.31728783994E+02 -0.16987512754E+02  0.36806566756E+02  0.00000000000E+00 0. -1.
          1    1    6    6  503    0  0.27281724434E+03 -0.25194874406E+03  0.56108782028E+03  0.67284987962E+03  0.00000000000E+00 0. -1.
         -1    1    6    6    0  503  0.76490943133E+02 -0.10012594980E+03  0.29246228898E+03  0.31844977733E+03  0.00000000000E+00 0.  1.
<mgrwt>
<rscale>  0 0.30990842E+04</rscale>
<asrwt>0</asrwt>
<pdfrwt beam="1">  1        2 0.19628217E+00 0.30990842E+04</pdfrwt>
<pdfrwt beam="2">  1       -1 0.28953376E+00 0.30990842E+04</pdfrwt>
<totfact> 0.63765884E-01</totfact>
</mgrwt>
</event>
<event>
12    7  0.1909736E-007  0.1476589E+04  0.7818608E-02  0.8900172E-01
          2   -1    0    0  501    0  0.00000000000E+00  0.00000000000E+00  0.16887141537E+04  0.16887141537E+04  0.00000000000E+00 0. -1.
         -1   -1    0    0    0  501 -0.00000000000E+00 -0.00000000000E+00 -0.32277725172E+03  0.32277725172E+03  0.00000000000E+00 0.  1.
         24    2    1    2    0    0 -0.27410123364E+03 -0.14451618412E+03  0.88095640625E+03  0.93723608318E+03  0.79440997823E+02 0.  0.
        254    2    1    2    0    0  0.27410123364E+03  0.14451618412E+03  0.48498049578E+03  0.10742553223E+04  0.90708434140E+03 0.  0.
         23    2    4    4    0    0  0.52872731122E+03  0.12384989517E+03  0.38910809981E+02  0.55226994495E+03  0.92718254945E+02 0.  0.
         23    2    4    4    0    0 -0.25462607758E+03  0.20666288957E+02  0.44606968580E+03  0.52198537733E+03  0.90714026932E+02 0.  0.
          2    1    3    3  502    0 -0.19872707840E+03 -0.13584857533E+03  0.60766310711E+03  0.65360671573E+03  0.00000000000E+00 0. -1.
         -1    1    3    3    0  502 -0.75374155238E+02 -0.86676087920E+01  0.27329329915E+03  0.28362936745E+03  0.00000000000E+00 0.  1.
         13    1    5    5    0    0  0.39943164268E+03  0.82738695381E+02 -0.10041801455E+02  0.40803451651E+03  0.00000000000E+00 0. -1.
        -13    1    5    5    0    0  0.12929566854E+03  0.41111199785E+02  0.48952611435E+02  0.14423542844E+03  0.00000000000E+00 0.  1.
          3    1    6    6  503    0 -0.18986685769E+03 -0.25226824357E+02  0.30650186117E+03  0.36142662771E+03  0.00000000000E+00 0. -1.
         -3    1    6    6    0  503 -0.64759219884E+02  0.45893113314E+02  0.13956782463E+03  0.16055874963E+03  0.00000000000E+00 0.  1.
<mgrwt>
<rscale>  0 0.14765887E+04</rscale>
<asrwt>0</asrwt>
<pdfrwt beam="1">  1        2 0.25980217E+00 0.14765887E+04</pdfrwt>
<pdfrwt beam="2">  1       -1 0.49658040E-01 0.14765887E+04</pdfrwt>
<totfact> 0.44615401E+01</totfact>
</mgrwt>
</event>
<event>
12    7  0.1909736E-007  0.3005847E+04  0.7818608E-02  0.8242063E-01
          2   -1    0    0  501    0  0.00000000000E+00  0.00000000000E+00  0.27699559518E+04  0.27699559518E+04  0.00000000000E+00 0. -1.
         -1   -1    0    0    0  501 -0.00000000000E+00 -0.00000000000E+00 -0.81545681873E+03  0.81545681873E+03  0.00000000000E+00 0.  1.
         24    2    1    2    0    0 -0.72306023032E+03 -0.36967578772E+03  0.22052222345E+04  0.23513189305E+04  0.78862695280E+02 0.  0.
        254    2    1    2    0    0  0.72306023032E+03  0.36967578772E+03 -0.25072310144E+03  0.12340938400E+04  0.89479005789E+03 0.  0.
         23    2    4    4    0    0  0.30337442902E+02  0.18561517259E+03 -0.44007094847E+03  0.48714898219E+03  0.90985374811E+02 0.  0.
         23    2    4    4    0    0  0.69272278742E+03  0.18406061513E+03  0.18934784703E+03  0.74694485783E+03  0.91273452956E+02 0.  0.
          4    1    3    3  502    0 -0.59204441470E+03 -0.26989206136E+03  0.17241009092E+04  0.18427919738E+04  0.00000000000E+00 0. -1.
         -3    1    3    3    0  502 -0.13101581563E+03 -0.99783726357E+02  0.48112132531E+03  0.50852695667E+03  0.00000000000E+00 0.  1.
         13    1    5    5    0    0  0.54523145243E+01  0.66801044105E+02 -0.66769263769E+02  0.94605717647E+02  0.00000000000E+00 0.  1.
        -13    1    5    5    0    0  0.24885128378E+02  0.11881412848E+03 -0.37330168470E+03  0.39254326455E+03  0.00000000000E+00 0. -1.
          4    1    6    6  503    0  0.23315098434E+01 -0.16461081241E+01 -0.52736289777E+01  0.59963966430E+01  0.00000000000E+00 0.  1.
         -4    1    6    6    0  503  0.69039127758E+03  0.18570672325E+03  0.19462147601E+03  0.74094846119E+03  0.00000000000E+00 0. -1.
<mgrwt>
<rscale>  0 0.30058473E+04</rscale>
<asrwt>0</asrwt>
<pdfrwt beam="1">  1        2 0.42614706E+00 0.30058473E+04</pdfrwt>
<pdfrwt beam="2">  1       -1 0.12545490E+00 0.30058473E+04</pdfrwt>
<totfact> 0.12994851E+00</totfact>
</mgrwt>
</event>
<event>
12    7  0.1909736E-007  0.3196585E+04  0.7818608E-02  0.8189720E-01
         -1   -1    0    0    0  501 -0.00000000000E+00  0.00000000000E+00  0.22752333375E+04  0.22752333375E+04  0.00000000000E+00 0.  1.
          2   -1    0    0  501    0  0.00000000000E+00 -0.00000000000E+00 -0.11227588963E+04  0.11227588963E+04  0.00000000000E+00 0. -1.
         24    2    1    2    0    0 -0.99875240403E+03 -0.94814518236E+03  0.10836338330E+04  0.17540794909E+04  0.77761975662E+02 0.  0.
        254    2    1    2    0    0  0.99875240403E+03  0.94814518236E+03  0.68840608177E+02  0.16439127430E+04  0.89511140414E+03 0.  0.
         23    2    4    4    0    0  0.15472073313E+03  0.17971728921E+03 -0.34298539066E+03  0.42699627760E+03  0.91924064154E+02 0.  0.
         23    2    4    4    0    0  0.84403167090E+03  0.76842789315E+03  0.41182599884E+03  0.12169164654E+04  0.91728632191E+02 0.  0.
          2    1    3    3  502    0 -0.21188882681E+03 -0.18573845462E+03  0.25986260834E+03  0.38330695750E+03  0.00000000000E+00 0. -1.
         -1    1    3    3    0  502 -0.78686357722E+03 -0.76240672774E+03  0.82377122468E+03  0.13707725334E+04  0.00000000000E+00 0.  1.
         13    1    5    5    0    0  0.29613051669E+02  0.96318572912E+01 -0.99899091937E+01  0.32703268792E+02  0.00000000000E+00 0.  1.
        -13    1    5    5    0    0  0.12510768146E+03  0.17008543192E+03 -0.33299548147E+03  0.39429300880E+03  0.00000000000E+00 0. -1.
          3    1    6    6  503    0  0.66959888838E+03  0.64657077053E+03  0.31046737518E+03  0.98122699905E+03  0.00000000000E+00 0. -1.
         -3    1    6    6    0  503  0.17443278253E+03  0.12185712262E+03  0.10135862366E+03  0.23568946634E+03  0.00000000000E+00 0.  1.
<mgrwt>
<rscale>  0 0.31965847E+04</rscale>
<asrwt>0</asrwt>
<pdfrwt beam="1">  1        2 0.17273214E+00 0.31965847E+04</pdfrwt>
<pdfrwt beam="2">  1       -1 0.35003590E+00 0.31965847E+04</pdfrwt>
<totfact> 0.31423853E-01</totfact>
</mgrwt>
</event>
<event>
12    7  0.1909736E-007  0.1499901E+04  0.7818608E-02  0.8884519E-01
          2   -1    0    0  501    0  0.00000000000E+00  0.00000000000E+00  0.77279976057E+03  0.77279976057E+03  0.00000000000E+00 0. -1.
         -1   -1    0    0    0  501 -0.00000000000E+00 -0.00000000000E+00 -0.72777694194E+03  0.72777694194E+03  0.00000000000E+00 0.  1.
         24    2    1    2    0    0 -0.81914262596E+02  0.15840397190E+03  0.39339219974E+03  0.43905270226E+03  0.78791419669E+02 0.  0.
        254    2    1    2    0    0  0.81914262596E+02 -0.15840397190E+03 -0.34836938111E+03  0.10615240003E+04  0.98674728917E+03 0.  0.
         23    2    4    4    0    0 -0.37286848641E+03  0.16597639528E+03 -0.25129755135E+03  0.48779907429E+03  0.90655422424E+02 0.  0.
         23    2    4    4    0    0  0.45478274901E+03 -0.32438036718E+03 -0.97071829759E+02  0.57372492596E+03  0.87677700293E+02 0.  0.
          4    1    3    3  502    0 -0.73652667676E+02  0.11920460890E+03  0.36195037613E+03  0.38812694962E+03  0.00000000000E+00 0. -1.
         -3    1    3    3    0  502 -0.82615949197E+01  0.39199362993E+02  0.31441823605E+02  0.50925752634E+02  0.00000000000E+00 0.  1.
         13    1    5    5    0    0 -0.11302111086E+03  0.16974459890E+02 -0.10168603522E+03  0.15297697064E+03  0.00000000000E+00 0. -1.
        -13    1    5    5    0    0 -0.25984737555E+03  0.14900193539E+03 -0.14961151613E+03  0.33482210365E+03  0.00000000000E+00 0.  1.
          1    1    6    6  503    0  0.41974953795E+03 -0.26637627619E+03 -0.77105353141E+02  0.50308173353E+03  0.00000000000E+00 0. -1.
         -1    1    6    6    0  503  0.35033211057E+02 -0.58004090989E+02 -0.19966476618E+02  0.70643192432E+02  0.00000000000E+00 0.  1.
<mgrwt>
<rscale>  0 0.14999011E+04</rscale>
<asrwt>0</asrwt>
<pdfrwt beam="1">  1        2 0.11889227E+00 0.14999011E+04</pdfrwt>
<pdfrwt beam="2">  1       -1 0.11196568E+00 0.14999011E+04</pdfrwt>
<totfact> 0.29120927E+01</totfact>
</mgrwt>
</event>
<event>
12    7  0.1909736E-007  0.1774313E+04  0.7818608E-02  0.8720080E-01
         -1   -1    0    0    0  501 -0.00000000000E+00  0.00000000000E+00  0.34081219132E+03  0.34081219132E+03  0.00000000000E+00 0.  1.
          2   -1    0    0  501    0  0.00000000000E+00 -0.00000000000E+00 -0.23093270177E+04  0.23093270177E+04  0.00000000000E+00 0. -1.
         24    2    1    2    0    0  0.11599792164E+03 -0.63138156474E+03 -0.53258627562E+03  0.83778724140E+03  0.78365316049E+02 0.  0.
        254    2    1    2    0    0 -0.11599792164E+03  0.63138156474E+03 -0.14359285507E+04  0.18123519676E+04  0.90035029488E+03 0.  0.
         23    2    4    4    0    0 -0.20740033151E+03  0.85788951840E+02 -0.11645506682E+04  0.11895237243E+04  0.91726713904E+02 0.  0.
         23    2    4    4    0    0  0.91402409874E+02  0.54559261290E+03 -0.27137788253E+03  0.62282824331E+03  0.90792982980E+02 0.  0.
          2    1    3    3  502    0  0.16411951217E+02 -0.27839736305E+03 -0.20629873093E+03  0.34689135227E+03  0.00000000000E+00 0. -1.
         -1    1    3    3    0  502  0.99585970424E+02 -0.35298420169E+03 -0.32628754469E+03  0.49089588913E+03  0.00000000000E+00 0.  1.
         13    1    5    5    0    0 -0.85002953749E+02  0.22052161780E+02 -0.25814157668E+03  0.27266989859E+03  0.00000000000E+00 0. -1.
        -13    1    5    5    0    0 -0.12239737777E+03  0.63736790060E+02 -0.90640909151E+03  0.91685382568E+03  0.00000000000E+00 0.  1.
          3    1    6    6  503    0  0.58818092595E+01 -0.21134444718E+01 -0.32895649910E+01  0.70628298528E+01  0.00000000000E+00 0. -1.
         -3    1    6    6    0  503  0.85520600615E+02  0.54770605737E+03 -0.26808831754E+03  0.61576541346E+03  0.00000000000E+00 0.  1.
<mgrwt>
<rscale>  0 0.17743132E+04</rscale>
<asrwt>0</asrwt>
<pdfrwt beam="1">  1        2 0.35528108E+00 0.17743132E+04</pdfrwt>
<pdfrwt beam="2">  1       -1 0.52432644E-01 0.17743132E+04</pdfrwt>
<totfact> 0.17691281E+01</totfact>
</mgrwt>
</event>
<event>
12    7  0.1909736E-007  0.1280833E+04  0.7818608E-02  0.9044905E-01
          4   -1    0    0  501    0  0.00000000000E+00  0.00000000000E+00  0.28815988162E+03  0.28815988162E+03  0.00000000000E+00 0. -1.
         -3   -1    0    0    0  501 -0.00000000000E+00 -0.00000000000E+00 -0.14232829573E+04  0.14232829573E+04  0.00000000000E+00 0.  1.
         24    2    1    2    0    0 -0.15898888278E+03  0.79102645148E+02  0.62442328782E+02  0.20473266839E+03  0.80509178136E+02 0.  0.
        254    2    1    2    0    0  0.15898888278E+03 -0.79102645148E+02 -0.11975654045E+04  0.15067101706E+04  0.89692694614E+03 0.  0.
         23    2    4    4    0    0  0.31575020020E+02 -0.37093934585E+03 -0.10921284067E+04  0.11573687570E+04  0.90360405280E+02 0.  0.
         23    2    4    4    0    0  0.12741386276E+03  0.29183670070E+03 -0.10543699780E+03  0.34934141353E+03  0.97567978349E+02 0.  0.
          2    1    3    3  502    0 -0.15448380117E+03  0.92825632087E+02  0.54702057245E+02  0.18834584642E+03  0.00000000000E+00 0. -1.
         -1    1    3    3    0  502 -0.45050816150E+01 -0.13722986939E+02  0.77402715364E+01  0.16386821972E+02  0.00000000000E+00 0.  1.
         13    1    5    5    0    0  0.38631748520E+02 -0.18716556041E+03 -0.67424494964E+03  0.70080640060E+03  0.00000000000E+00 0. -1.
        -13    1    5    5    0    0 -0.70567285002E+01 -0.18377378544E+03 -0.41788345707E+03  0.45656235645E+03  0.00000000000E+00 0.  1.
          1    1    6    6  503    0 -0.51610933409E+01  0.94916582977E+02 -0.20721735344E+02  0.97289181948E+02  0.00000000000E+00 0. -1.
         -1    1    6    6    0  503  0.13257495611E+03  0.19692011773E+03 -0.84715262453E+02  0.25205223158E+03  0.00000000000E+00 0.  1.
<mgrwt>
<rscale>  0 0.12808326E+04</rscale>
<asrwt>0</asrwt>
<pdfrwt beam="1">  1        4 0.44332289E-01 0.12808326E+04</pdfrwt>
<pdfrwt beam="2">  1       -3 0.21896661E+00 0.12808326E+04</pdfrwt>
<totfact> 0.12443102E+00</totfact>
</mgrwt>
</event>
<event>
12    7  0.1909736E-007  0.1642687E+04  0.7818608E-02  0.8794745E-01
          2   -1    0    0  501    0  0.00000000000E+00  0.00000000000E+00  0.14113190071E+04  0.14113190071E+04  0.00000000000E+00 0. -1.
         -1   -1    0    0    0  501 -0.00000000000E+00 -0.00000000000E+00 -0.47799593361E+03  0.47799593361E+03  0.00000000000E+00 0.  1.
         24    2    1    2    0    0 -0.28106936389E+02 -0.42781604505E+03  0.73371668018E+03  0.85333981360E+03  0.77666610703E+02 0.  0.
        254    2    1    2    0    0  0.28106936389E+02  0.42781604505E+03  0.19960639331E+03  0.10359751271E+04  0.92172945242E+03 0.  0.
         23    2    4    4    0    0  0.18154571028E+03  0.19474057472E+03  0.52614975450E+03  0.59711147021E+03  0.93945768084E+02 0.  0.
         23    2    4    4    0    0 -0.15343877390E+03  0.23307547033E+03 -0.32654336119E+03  0.43886365689E+03  0.90017278337E+02 0.  0.
          2    1    3    3  502    0 -0.41167301570E+02 -0.17830140537E+03  0.26263745642E+03  0.32010087690E+03  0.00000000000E+00 0. -1.
         -1    1    3    3    0  502  0.13060365181E+02 -0.24951463968E+03  0.47107922376E+03  0.53323893670E+03  0.00000000000E+00 0.  1.
         13    1    5    5    0    0  0.70446513267E+02  0.11017406730E+03  0.34101577935E+03  0.36522978808E+03  0.00000000000E+00 0. -1.
        -13    1    5    5    0    0  0.11109919702E+03  0.84566507421E+02  0.18513397514E+03  0.23188168213E+03  0.00000000000E+00 0.  1.
          2    1    6    6  503    0 -0.36680722018E+02  0.88683154215E+02 -0.17332340901E+03  0.19811910892E+03  0.00000000000E+00 0. -1.
         -2    1    6    6    0  503 -0.11675805188E+03  0.14439231612E+03 -0.15321995218E+03  0.24074454797E+03  0.00000000000E+00 0.  1.
<mgrwt>
<rscale>  0 0.16426865E+04</rscale>
<asrwt>0</asrwt>
<pdfrwt beam="1">  1        2 0.21712600E+00 0.16426865E+04</pdfrwt>
<pdfrwt beam="2">  1       -1 0.73537837E-01 0.16426865E+04</pdfrwt>
<totfact> 0.28932143E+01</totfact>
</mgrwt>
</event>
<event>
12    7  0.1909736E-007  0.3302105E+04  0.7818608E-02  0.8162360E-01
          2   -1    0    0  501    0  0.00000000000E+00  0.00000000000E+00  0.27401448878E+04  0.27401448878E+04  0.00000000000E+00 0. -1.
         -1   -1    0    0    0  501 -0.00000000000E+00 -0.00000000000E+00 -0.99482825511E+03  0.99482825511E+03  0.00000000000E+00 0.  1.
         24    2    1    2    0    0 -0.63316473939E+03  0.29657078412E+03  0.23446416109E+04  0.24479655484E+04  0.79619254990E+02 0.  0.
        254    2    1    2    0    0  0.63316473939E+03 -0.29657078412E+03 -0.59932497817E+03  0.12870075945E+04  0.89908080925E+03 0.  0.
         23    2    4    4    0    0  0.59646816342E+03  0.19479115412E+03 -0.27824379576E+03  0.69261968277E+03  0.92652854218E+02 0.  0.
         23    2    4    4    0    0  0.36696575975E+02 -0.49136193824E+03 -0.32108118240E+03  0.59438791169E+03  0.86143315650E+02 0.  0.
          4    1    3    3  502    0 -0.60085442842E+03  0.28383323256E+03  0.21535907065E+04  0.22537835476E+04  0.00000000000E+00 0. -1.
         -3    1    3    3    0  502 -0.32310310970E+02  0.12737551559E+02  0.19105090434E+03  0.19418200088E+03  0.00000000000E+00 0.  1.
         13    1    5    5    0    0  0.39568645780E+03  0.14997973892E+03 -0.22874909143E+03  0.48102790127E+03  0.00000000000E+00 0.  1.
        -13    1    5    5    0    0  0.20078170562E+03  0.44811415198E+02 -0.49494704333E+02  0.21159178150E+03  0.00000000000E+00 0. -1.
          1    1    6    6  503    0  0.15847434380E+02 -0.17983412878E+02 -0.29551212762E+02  0.38050210129E+02  0.00000000000E+00 0. -1.
         -1    1    6    6    0  503  0.20849141594E+02 -0.47337852536E+03 -0.29152996964E+03  0.55633770156E+03  0.00000000000E+00 0.  1.
<mgrwt>
<rscale>  0 0.33021045E+04</rscale>
<asrwt>0</asrwt>
<pdfrwt beam="1">  1        2 0.42156075E+00 0.33021045E+04</pdfrwt>
<pdfrwt beam="2">  1       -1 0.15305050E+00 0.33021045E+04</pdfrwt>
<totfact> 0.78717794E-01</totfact>
</mgrwt>
</event>
<event>
12    7  0.1909736E-007  0.1424873E+04  0.7818608E-02  0.8936008E-01
          2   -1    0    0  501    0  0.00000000000E+00  0.00000000000E+00  0.10066126237E+04  0.10066126237E+04  0.00000000000E+00 0. -1.
         -1   -1    0    0    0  501 -0.00000000000E+00 -0.00000000000E+00 -0.50423163263E+03  0.50423163263E+03  0.00000000000E+00 0.  1.
         24    2    1    2    0    0  0.13533762294E+03  0.20441910279E+03  0.52189559859E+03  0.58220003341E+03  0.80488640836E+02 0.  0.
        254    2    1    2    0    0 -0.13533762294E+03 -0.20441910279E+03 -0.19514607567E+02  0.92864422288E+03  0.89548636562E+03 0.  0.
         23    2    4    4    0    0  0.50791933700E+02  0.19842064076E+03 -0.31520214313E+03  0.38772106341E+03  0.94998214543E+02 0.  0.
         23    2    4    4    0    0 -0.18612955664E+03 -0.40283974355E+03  0.29568753557E+03  0.54092315947E+03  0.90789178416E+02 0.  0.
          2    1    3    3  502    0  0.85902224442E+02  0.70924676863E+02  0.28259749434E+03  0.30376116565E+03  0.00000000000E+00 0. -1.
         -1    1    3    3    0  502  0.49435398500E+02  0.13349442593E+03  0.23929810425E+03  0.27843886776E+03  0.00000000000E+00 0.  1.
         13    1    5    5    0    0  0.48329173504E+02  0.20759374611E+03 -0.28388402246E+03  0.35499438114E+03  0.00000000000E+00 0. -1.
        -13    1    5    5    0    0  0.24627601959E+01 -0.91731053502E+01 -0.31318120674E+02  0.32726682265E+02  0.00000000000E+00 0.  1.
          3    1    6    6  503    0 -0.16132538384E+03 -0.39078316246E+03  0.26195214239E+03  0.49734925801E+03  0.00000000000E+00 0. -1.
         -3    1    6    6    0  503 -0.24804172803E+02 -0.12056581091E+02  0.33735393173E+02  0.43573901462E+02  0.00000000000E+00 0.  1.
<mgrwt>
<rscale>  0 0.14248732E+04</rscale>
<asrwt>0</asrwt>
<pdfrwt beam="1">  1        2 0.15486348E+00 0.14248732E+04</pdfrwt>
<pdfrwt beam="2">  1       -1 0.77574097E-01 0.14248732E+04</pdfrwt>
<totfact> 0.46052653E+01</totfact>
</mgrwt>
</event>
<event>
12    7  0.1909736E-007  0.1205875E+04  0.7818608E-02  0.9107730E-01
          2   -1    0    0  501    0  0.00000000000E+00  0.00000000000E+00  0.12202172545E+04  0.12202172545E+04  0.00000000000E+00 0. -1.
         -1   -1    0    0    0  501 -0.00000000000E+00 -0.00000000000E+00 -0.29792523095E+03  0.29792523095E+03  0.00000000000E+00 0.  1.
         24    2    1    2    0    0 -0.12750977686E+03 -0.35946121317E+02 -0.74391298814E+02  0.17124251704E+03  0.78987767840E+02 0.  0.
        254    2    1    2    0    0  0.12750977686E+03  0.35946121317E+02  0.99668332240E+03  0.13468999685E+04  0.89622040428E+03 0.  0.
         23    2    4    4    0    0  0.13347428993E+03 -0.18805315829E+03 -0.66050802246E+02  0.25680531434E+03  0.91689064695E+02 0.  0.
         23    2    4    4    0    0 -0.59645130645E+01  0.22399927960E+03  0.10627341246E+04  0.10900946541E+04  0.93227048470E+02 0.  0.
          4    1    3    3  502    0 -0.96220347877E+02 -0.48967956626E+02 -0.24138512022E+02  0.11062948922E+03  0.00000000000E+00 0. -1.
         -3    1    3    3    0  502 -0.31289428984E+02  0.13021835308E+02 -0.50252786793E+02  0.60613027819E+02  0.00000000000E+00 0.  1.
         13    1    5    5    0    0  0.13875861235E+03 -0.19499179451E+03 -0.62219977386E+02  0.24727935218E+03  0.00000000000E+00 0.  1.
        -13    1    5    5    0    0 -0.52843224231E+01  0.69386362221E+01 -0.38308248600E+01  0.95259621668E+01  0.00000000000E+00 0. -1.
          1    1    6    6  503    0  0.12688911827E+02  0.96431490081E+02  0.27084921210E+03  0.28778348886E+03  0.00000000000E+00 0. -1.
         -1    1    6    6    0  503 -0.18653424892E+02  0.12756778952E+03  0.79188491254E+03  0.80231116526E+03  0.00000000000E+00 0.  1.
<mgrwt>
<rscale>  0 0.12058748E+04</rscale>
<asrwt>0</asrwt>
<pdfrwt beam="1">  1        2 0.18772573E+00 0.12058748E+04</pdfrwt>
<pdfrwt beam="2">  1       -1 0.45834652E-01 0.12058748E+04</pdfrwt>
<totfact> 0.97968587E+01</totfact>
</mgrwt>
</event>
<event>
12    7  0.1909736E-007  0.2329463E+04  0.7818608E-02  0.8466394E-01
          2   -1    0    0  501    0  0.00000000000E+00  0.00000000000E+00  0.17411991006E+04  0.17411991006E+04  0.00000000000E+00 0. -1.
         -1   -1    0    0    0  501 -0.00000000000E+00 -0.00000000000E+00 -0.77911792595E+03  0.77911792595E+03  0.00000000000E+00 0.  1.
         24    2    1    2    0    0  0.16522246505E+03 -0.97215580097E+03  0.29264084918E+03  0.10317597694E+04  0.80648563193E+02 0.  0.
        254    2    1    2    0    0 -0.16522246505E+03  0.97215580097E+03  0.66944032550E+03  0.14885572572E+04  0.89177743541E+03 0.  0.
         23    2    4    4    0    0 -0.76156219557E+02  0.36249932978E+03 -0.18982546064E+03  0.42685006790E+03  0.94666472887E+02 0.  0.
         23    2    4    4    0    0 -0.89066245491E+02  0.60965647119E+03  0.85926578613E+03  0.10617071893E+04  0.96284244236E+02 0.  0.
          2    1    3    3  502    0  0.12105254048E+03 -0.67200818106E+03  0.16406292934E+03  0.70225733016E+03  0.00000000000E+00 0. -1.
         -1    1    3    3    0  502  0.44169924567E+02 -0.30014761991E+03  0.12857791984E+03  0.32950243921E+03  0.00000000000E+00 0.  1.
         13    1    5    5    0    0 -0.79254586186E+02  0.17711340430E+03 -0.12312980066E+03  0.22980730020E+03  0.00000000000E+00 0. -1.
        -13    1    5    5    0    0  0.30983666291E+01  0.18538592548E+03 -0.66695659979E+02  0.19704276770E+03  0.00000000000E+00 0.  1.
          1    1    6    6  503    0 -0.11851398258E+02  0.35860946371E+03  0.53914007302E+03  0.64762120213E+03  0.00000000000E+00 0. -1.
         -1    1    6    6    0  503 -0.77214847234E+02  0.25104700748E+03  0.32012571311E+03  0.41408598720E+03  0.00000000000E+00 0.  1.
<mgrwt>
<rscale>  0 0.23294630E+04</rscale>
<asrwt>0</asrwt>
<pdfrwt beam="1">  1        2 0.26787678E+00 0.23294630E+04</pdfrwt>
<pdfrwt beam="2">  1       -1 0.11986430E+00 0.23294630E+04</pdfrwt>
<totfact> 0.59470068E+00</totfact>
</mgrwt>
</event>
<event>
12    7  0.1909736E-007  0.1215219E+04  0.7818608E-02  0.9099638E-01
          2   -1    0    0  501    0  0.00000000000E+00  0.00000000000E+00  0.14396825323E+04  0.14396825323E+04  0.00000000000E+00 0. -1.
         -1   -1    0    0    0  501 -0.00000000000E+00 -0.00000000000E+00 -0.25643816835E+03  0.25643816835E+03  0.00000000000E+00 0.  1.
         24    2    1    2    0    0  0.12338232620E+03 -0.23037246062E+03  0.18195704773E+03  0.32851564309E+03  0.80743368203E+02 0.  0.
        254    2    1    2    0    0 -0.12338232620E+03  0.23037246062E+03  0.10012873162E+04  0.13676050576E+04  0.89413233630E+03 0.  0.
         23    2    4    4    0    0 -0.45785750172E+03 -0.54223320021E+02  0.62787895046E+03  0.78493877656E+03  0.96556958314E+02 0.  0.
         23    2    4    4    0    0  0.33447517552E+03  0.28459578064E+03  0.37340836576E+03  0.58266628100E+03  0.84839766598E+02 0.  0.
          4    1    3    3  502    0  0.88257160576E+02 -0.11517405854E+03  0.59702261456E+02  0.15690363341E+03  0.00000000000E+00 0. -1.
         -3    1    3    3    0  502  0.35125165625E+02 -0.11519840208E+03  0.12225478628E+03  0.17161200969E+03  0.00000000000E+00 0.  1.
         13    1    5    5    0    0 -0.30027776834E+02 -0.27313956822E+02  0.75669588512E+02  0.85869705045E+02  0.00000000000E+00 0.  1.
        -13    1    5    5    0    0 -0.42782972489E+03 -0.26909363198E+02  0.55220936195E+03  0.69906907152E+03  0.00000000000E+00 0. -1.
          3    1    6    6  503    0  0.99427308335E+02  0.13015277552E+03  0.16611305272E+03  0.23327897655E+03  0.00000000000E+00 0. -1.
         -3    1    6    6    0  503  0.23504786719E+03  0.15444300512E+03  0.20729531304E+03  0.34938730445E+03  0.00000000000E+00 0.  1.
<mgrwt>
<rscale>  0 0.12152194E+04</rscale>
<asrwt>0</asrwt>
<pdfrwt beam="1">  1        2 0.22148961E+00 0.12152194E+04</pdfrwt>
<pdfrwt beam="2">  1       -1 0.39452027E-01 0.12152194E+04</pdfrwt>
<totfact> 0.96327484E+01</totfact>
</mgrwt>
</event>
<event>
12    7  0.1909736E-007  0.1911848E+04  0.7818608E-02  0.8648981E-01
          2   -1    0    0  501    0  0.00000000000E+00  0.00000000000E+00  0.93465828338E+03  0.93465828338E+03  0.00000000000E+00 0. -1.
         -1   -1    0    0    0  501 -0.00000000000E+00 -0.00000000000E+00 -0.97767388405E+03  0.97767388405E+03  0.00000000000E+00 0.  1.
         24    2    1    2    0    0  0.62930728984E+03  0.22287254482E+03 -0.33019885699E+03  0.74921272982E+03  0.81170148940E+02 0.  0.
        254    2    1    2    0    0 -0.62930728984E+03 -0.22287254482E+03  0.28718325632E+03  0.11631194376E+04  0.90811495261E+03 0.  0.
         23    2    4    4    0    0 -0.73693178254E+02 -0.46233291283E+03 -0.23328809317E+02  0.47732047930E+03  0.90045542960E+02 0.  0.
         23    2    4    4    0    0 -0.55561411158E+03  0.23946036800E+03  0.31051206564E+03  0.68579895831E+03  0.88623695916E+02 0.  0.
          2    1    3    3  502    0  0.35994686128E+01  0.52412323411E+01  0.36920015322E+01  0.73523850594E+01  0.00000000000E+00 0. -1.
         -3    1    3    3    0  502  0.62570782123E+03  0.21763131248E+03 -0.33389085852E+03  0.74186034476E+03  0.00000000000E+00 0.  1.
         13    1    5    5    0    0 -0.54797220430E+02 -0.17077260786E+03  0.25315487260E+02  0.18112673148E+03  0.00000000000E+00 0. -1.
        -13    1    5    5    0    0 -0.18895957824E+02 -0.29156030497E+03 -0.48644296577E+02  0.29619374782E+03  0.00000000000E+00 0.  1.
          4    1    6    6  503    0 -0.31010015547E+03  0.89563006093E+02  0.14416029637E+03  0.35350506295E+03  0.00000000000E+00 0.  1.
         -4    1    6    6    0  503 -0.24551395612E+03  0.14989736191E+03  0.16635176927E+03  0.33229389536E+03  0.00000000000E+00 0. -1.
<mgrwt>
<rscale>  0 0.19118483E+04</rscale>
<asrwt>0</asrwt>
<pdfrwt beam="1">  1        2 0.14379358E+00 0.19118483E+04</pdfrwt>
<pdfrwt beam="2">  1       -1 0.15041137E+00 0.19118483E+04</pdfrwt>
<totfact> 0.10276339E+01</totfact>
</mgrwt>
</event>
<event>
12    7  0.1909736E-007  0.1310415E+04  0.7818608E-02  0.9021347E-01
          2   -1    0    0  501    0  0.00000000000E+00  0.00000000000E+00  0.14904879561E+04  0.14904879561E+04  0.00000000000E+00 0. -1.
         -1   -1    0    0    0  501 -0.00000000000E+00 -0.00000000000E+00 -0.28802424619E+03  0.28802424619E+03  0.00000000000E+00 0.  1.
         24    2    1    2    0    0 -0.14976875859E+03  0.31175850229E+03  0.41096696086E+03  0.54333406157E+03  0.81816958796E+02 0.  0.
        254    2    1    2    0    0  0.14976875859E+03 -0.31175850229E+03  0.79149674905E+03  0.12351781407E+04  0.88293481684E+03 0.  0.
         23    2    4    4    0    0  0.32990557834E+03 -0.16435654182E+03 -0.25256955211E+02  0.38066043047E+03  0.91726147215E+02 0.  0.
         23    2    4    4    0    0 -0.18013681974E+03 -0.14740196047E+03  0.81675370426E+03  0.85451771026E+03  0.94537251645E+02 0.  0.
          2    1    3    3  502    0 -0.58898338241E+02  0.18903346824E+03  0.18759684962E+03  0.27275491627E+03  0.00000000000E+00 0. -1.
         -1    1    3    3    0  502 -0.90870420350E+02  0.12272503405E+03  0.22337011124E+03  0.27057914530E+03  0.00000000000E+00 0.  1.
         13    1    5    5    0    0  0.87404763239E+02 -0.91268344555E+02 -0.29582416738E+01  0.12640512074E+03  0.00000000000E+00 0.  1.
        -13    1    5    5    0    0  0.24250081510E+03 -0.73088197264E+02 -0.22298713537E+02  0.25425530973E+03  0.00000000000E+00 0. -1.
          4    1    6    6  503    0 -0.17460490785E+03 -0.16033898577E+03  0.76518684788E+03  0.80106577531E+03  0.00000000000E+00 0. -1.
         -4    1    6    6    0  503 -0.55319118952E+01  0.12937025307E+02  0.51566856377E+02  0.53451934947E+02  0.00000000000E+00 0.  1.
<mgrwt>
<rscale>  0 0.13104147E+04</rscale>
<asrwt>0</asrwt>
<pdfrwt beam="1">  1        2 0.22930583E+00 0.13104147E+04</pdfrwt>
<pdfrwt beam="2">  1       -1 0.44311423E-01 0.13104147E+04</pdfrwt>
<totfact> 0.72282240E+01</totfact>
</mgrwt>
</event>
<event>
12    7  0.1909736E-007  0.1089620E+04  0.7818608E-02  0.9215369E-01
         -1   -1    0    0    0  501 -0.00000000000E+00  0.00000000000E+00  0.25638701863E+03  0.25638701863E+03  0.00000000000E+00 0.  1.
          2   -1    0    0  501    0  0.00000000000E+00 -0.00000000000E+00 -0.11576938291E+04  0.11576938291E+04  0.00000000000E+00 0. -1.
         24    2    1    2    0    0  0.14732244434E+03 -0.39536096968E+02 -0.63002464434E+02  0.18377994021E+03  0.80862539726E+02 0.  0.
        254    2    1    2    0    0 -0.14732244434E+03  0.39536096968E+02 -0.83830434602E+03  0.12303009075E+04  0.88747909319E+03 0.  0.
         23    2    4    4    0    0  0.11327032899E+03  0.39767426482E+03 -0.26192457454E+03  0.49790885058E+03  0.91289388256E+02 0.  0.
         23    2    4    4    0    0 -0.26059277333E+03 -0.35813816785E+03 -0.57637977147E+03  0.73239205691E+03  0.89515044980E+02 0.  0.
          2    1    3    3  502    0  0.65138586480E+02 -0.45069251854E+02 -0.63321369499E+02  0.10140941153E+03  0.00000000000E+00 0. -1.
         -1    1    3    3    0  502  0.82183857859E+02  0.55331548861E+01  0.31890506539E+00  0.82370528686E+02  0.00000000000E+00 0.  1.
         13    1    5    5    0    0  0.86911387994E+02  0.35502297290E+03 -0.25844736257E+03  0.44764934923E+03  0.00000000000E+00 0. -1.
        -13    1    5    5    0    0  0.26358940997E+02  0.42651291918E+02 -0.34772119781E+01  0.50259501350E+02  0.00000000000E+00 0.  1.
          1    1    6    6  503    0 -0.24232304070E+03 -0.35664016994E+03 -0.56531374828E+03  0.71097981748E+03  0.00000000000E+00 0. -1.
         -1    1    6    6    0  503 -0.18269732632E+02 -0.14979979167E+01 -0.11066023189E+02  0.21412239431E+02  0.00000000000E+00 0.  1.
<mgrwt>
<rscale>  0 0.10896195E+04</rscale>
<asrwt>0</asrwt>
<pdfrwt beam="1">  1        2 0.17810674E+00 0.10896195E+04</pdfrwt>
<pdfrwt beam="2">  1       -1 0.39444157E-01 0.10896195E+04</pdfrwt>
<totfact> 0.14202376E+02</totfact>
</mgrwt>
</event>
<event>
12    7  0.1909736E-007  0.1625519E+04  0.7818608E-02  0.8805023E-01
          2   -1    0    0  501    0  0.00000000000E+00  0.00000000000E+00  0.11134428777E+04  0.11134428777E+04  0.00000000000E+00 0. -1.
         -1   -1    0    0    0  501 -0.00000000000E+00 -0.00000000000E+00 -0.59327485557E+03  0.59327485557E+03  0.00000000000E+00 0.  1.
         24    2    1    2    0    0 -0.35787872778E+03  0.28438687853E+02 -0.27693553622E+03  0.46004984177E+03  0.77888528845E+02 0.  0.
        254    2    1    2    0    0  0.35787872778E+03 -0.28438687853E+02  0.79710355832E+03  0.12466678915E+04  0.88877489060E+03 0.  0.
         23    2    4    4    0    0  0.81899875001E+02  0.55812965752E+02 -0.17961787276E+03  0.22416149898E+03  0.90349990238E+02 0.  0.
         23    2    4    4    0    0  0.27597885277E+03 -0.84251653605E+02  0.97672143109E+03  0.10225063925E+04  0.90949988593E+02 0.  0.
          4    1    3    3  502    0 -0.43384793478E+02  0.17274433684E+02 -0.10847520637E+02  0.47940745386E+02  0.00000000000E+00 0. -1.
         -3    1    3    3    0  502 -0.31449393430E+03  0.11164254168E+02 -0.26608801558E+03  0.41210909638E+03  0.00000000000E+00 0.  1.
         13    1    5    5    0    0  0.65101568814E+02  0.28093080910E+02 -0.17812063430E+03  0.19171435998E+03  0.00000000000E+00 0. -1.
        -13    1    5    5    0    0  0.16798306187E+02  0.27719884842E+02 -0.14972384639E+01  0.32447139002E+02  0.00000000000E+00 0.  1.
          3    1    6    6  503    0  0.25843138715E+03 -0.63850825099E+02  0.94009178597E+03  0.97705489906E+03  0.00000000000E+00 0. -1.
         -3    1    6    6    0  503  0.17547465625E+02 -0.20400828505E+02  0.36629645115E+02  0.45451493428E+02  0.00000000000E+00 0.  1.
<mgrwt>
<rscale>  0 0.16255186E+04</rscale>
<asrwt>0</asrwt>
<pdfrwt beam="1">  1        2 0.17129890E+00 0.16255186E+04</pdfrwt>
<pdfrwt beam="2">  1       -1 0.91273055E-01 0.16255186E+04</pdfrwt>
<totfact> 0.27324351E+01</totfact>
</mgrwt>
</event>
<event>
12    7  0.1909736E-007  0.1538270E+04  0.7818608E-02  0.8859395E-01
         -1   -1    0    0    0  501 -0.00000000000E+00  0.00000000000E+00  0.65457893838E+03  0.65457893838E+03  0.00000000000E+00 0.  1.
          2   -1    0    0  501    0  0.00000000000E+00 -0.00000000000E+00 -0.90373947685E+03  0.90373947685E+03  0.00000000000E+00 0. -1.
         24    2    1    2    0    0  0.79984013096E+02  0.28095930570E+03 -0.49367826465E+03  0.57940608937E+03  0.81594200799E+02 0.  0.
        254    2    1    2    0    0 -0.79984013096E+02 -0.28095930570E+03  0.24451772618E+03  0.97891232585E+03  0.90174544605E+03 0.  0.
         23    2    4    4    0    0  0.34263571426E+03 -0.35577285382E+03  0.74404318825E+02  0.50814320835E+03  0.93273583236E+02 0.  0.
         23    2    4    4    0    0 -0.42261972736E+03  0.74813548115E+02  0.17011340736E+03  0.47076911750E+03  0.92089574314E+02 0.  0.
          4    1    3    3  502    0  0.71023227260E+02  0.20844305989E+03 -0.29803798657E+03  0.37056639009E+03  0.00000000000E+00 0. -1.
         -1    1    3    3    0  502  0.89607858359E+01  0.72516245816E+02 -0.19564027808E+03  0.20883969928E+03  0.00000000000E+00 0.  1.
         13    1    5    5    0    0  0.10460415654E+03 -0.68098405486E+02  0.48337490136E+02  0.13385042155E+03  0.00000000000E+00 0. -1.
        -13    1    5    5    0    0  0.23803155771E+03 -0.28767444833E+03  0.26066828688E+02  0.37429278680E+03  0.00000000000E+00 0.  1.
          3    1    6    6  503    0 -0.11452398859E+03  0.65712233744E+01  0.54829901056E+01  0.11484331987E+03  0.00000000000E+00 0. -1.
         -3    1    6    6    0  503 -0.30809573877E+03  0.68242324741E+02  0.16463041725E+03  0.35592579763E+03  0.00000000000E+00 0.  1.
<mgrwt>
<rscale>  0 0.15382702E+04</rscale>
<asrwt>0</asrwt>
<pdfrwt beam="1">  1        2 0.13903684E+00 0.15382702E+04</pdfrwt>
<pdfrwt beam="2">  1       -1 0.10070445E+00 0.15382702E+04</pdfrwt>
<totfact> 0.30070251E+01</totfact>
</mgrwt>
</event>
<event>
12    7  0.1909736E-007  0.2525405E+04  0.7818608E-02  0.8393990E-01
         -1   -1    0    0    0  501 -0.00000000000E+00  0.00000000000E+00  0.68669872553E+03  0.68669872553E+03  0.00000000000E+00 0.  1.
          2   -1    0    0  501    0  0.00000000000E+00 -0.00000000000E+00 -0.23218585921E+04  0.23218585921E+04  0.00000000000E+00 0. -1.
         24    2    1    2    0    0  0.52097806598E+03 -0.52516487622E+03  0.25608588209E+03  0.78677949570E+03  0.78903126735E+02 0.  0.
        254    2    1    2    0    0 -0.52097806598E+03  0.52516487622E+03 -0.18912457487E+04  0.22217778219E+04  0.90126018204E+03 0.  0.
         23    2    4    4    0    0 -0.11366070115E+03  0.24653505934E+03 -0.22469080870E+02  0.28685317245E+03  0.89897677818E+02 0.  0.
         23    2    4    4    0    0 -0.40731736483E+03  0.27862981688E+03 -0.18687766678E+04  0.19349246495E+04  0.89806205480E+02 0.  0.
          2    1    3    3  502    0  0.88034994045E+02 -0.10818856829E+03  0.78266443537E+02  0.15993924681E+03  0.00000000000E+00 0. -1.
         -1    1    3    3    0  502  0.43294307193E+03 -0.41697630792E+03  0.17781943855E+03  0.62684024889E+03  0.00000000000E+00 0.  1.
         13    1    5    5    0    0  0.62407802569E+01  0.78323286607E+02  0.35401460938E+01  0.78651237737E+02  0.00000000000E+00 0. -1.
        -13    1    5    5    0    0 -0.11990148140E+03  0.16821177273E+03 -0.26009226964E+02  0.20820193471E+03  0.00000000000E+00 0.  1.
          4    1    6    6  503    0 -0.67969558724E+02  0.13597698870E+02 -0.20837155815E+03  0.21959841661E+03  0.00000000000E+00 0. -1.
         -4    1    6    6    0  503 -0.33934780611E+03  0.26503211801E+03 -0.16604051096E+04  0.17153262329E+04  0.00000000000E+00 0.  1.
<mgrwt>
<rscale>  0 0.25254048E+04</rscale>
<asrwt>0</asrwt>
<pdfrwt beam="1">  1        2 0.35720901E+00 0.25254048E+04</pdfrwt>
<pdfrwt beam="2">  1       -1 0.10564596E+00 0.25254048E+04</pdfrwt>
<totfact> 0.37425379E+00</totfact>
</mgrwt>
</event>
<event>
12    7  0.2575354E-007  0.3253709E+04  0.7818608E-02  0.8174775E-01
          2   -1    0    0  501    0  0.00000000000E+00  0.00000000000E+00  0.24907457401E+04  0.24907457401E+04  0.00000000000E+00 0. -1.
         -1   -1    0    0    0  501 -0.00000000000E+00 -0.00000000000E+00 -0.10625955725E+04  0.10625955725E+04  0.00000000000E+00 0.  1.
         24    2    1    2    0    0 -0.22834904808E+03  0.11936532815E+04  0.16616489020E+04  0.20601764587E+04  0.79363235210E+02 0.  0.
        254    2    1    2    0    0  0.22834904808E+03 -0.11936532815E+04 -0.23349873436E+03  0.14931648539E+04  0.83550474423E+03 0.  0.
         23    2    4    4    0    0  0.41755245615E+03 -0.22745355241E+03 -0.53871615156E+02  0.48750495866E+03  0.93133032024E+02 0.  0.
         23    2    4    4    0    0 -0.18920340807E+03 -0.96619972913E+03 -0.17962711921E+03  0.10056598952E+04  0.98722219982E+02 0.  0.
          4    1    3    3  502    0 -0.22157678866E+03  0.11579104021E+04  0.15853488588E+04  0.19756476853E+04  0.00000000000E+00 0. -1.
         -3    1    3    3    0  502 -0.67722594204E+01  0.35742879476E+02  0.76300043202E+02  0.84528773346E+02  0.00000000000E+00 0.  1.
         13    1    5    5    0    0  0.18514706152E+03 -0.13653369596E+03  0.87475409215E+01  0.23021165043E+03  0.00000000000E+00 0. -1.
        -13    1    5    5    0    0  0.23240539463E+03 -0.90919856457E+02 -0.62619156078E+02  0.25729330823E+03  0.00000000000E+00 0.  1.
          1    1    6    6  503    0 -0.98176351025E+02 -0.28943599456E+03 -0.76462969836E+02  0.31505297429E+03  0.00000000000E+00 0. -1.
         -1    1    6    6    0  503 -0.91027057044E+02 -0.67676373457E+03 -0.10316414937E+03  0.69060692094E+03  0.00000000000E+00 0.  1.
<mgrwt>
<rscale>  0 0.32537089E+04</rscale>
<asrwt>0</asrwt>
<pdfrwt beam="1">  1        2 0.38319165E+00 0.32537089E+04</pdfrwt>
<pdfrwt beam="2">  1       -1 0.16347624E+00 0.32537089E+04</pdfrwt>
<totfact> 0.92364050E-01</totfact>
</mgrwt>
</event>
<event>
12    7  0.1909736E-007  0.1862117E+04  0.7818608E-02  0.8673946E-01
          2   -1    0    0  501    0  0.00000000000E+00  0.00000000000E+00  0.13656922541E+04  0.13656922541E+04  0.00000000000E+00 0. -1.
         -1   -1    0    0    0  501 -0.00000000000E+00 -0.00000000000E+00 -0.63474796292E+03  0.63474796292E+03  0.00000000000E+00 0.  1.
         24    2    1    2    0    0  0.59994026548E+03 -0.29152770071E+03  0.61537821264E+01  0.67171490933E+03  0.79033714072E+02 0.  0.
        254    2    1    2    0    0 -0.59994026548E+03  0.29152770071E+03  0.72479050901E+03  0.13287253076E+04  0.89178076836E+03 0.  0.
         23    2    4    4    0    0  0.22255351301E+03  0.25441666836E+02  0.19651364595E+03  0.31178970892E+03  0.91748923569E+02 0.  0.
         23    2    4    4    0    0 -0.82249377849E+03  0.26608603387E+03  0.52827686305E+03  0.10169355987E+04  0.88225704033E+02 0.  0.
          4    1    3    3  502    0  0.56848662231E+03 -0.28886956125E+03 -0.65117336106E+01  0.63770296051E+03  0.00000000000E+00 0. -1.
         -3    1    3    3    0  502  0.31453643166E+02 -0.26581394545E+01  0.12665515737E+02  0.34011948821E+02  0.00000000000E+00 0.  1.
         13    1    5    5    0    0  0.13050793020E+03 -0.12305379315E+02  0.63416062486E+02  0.14562053147E+03  0.00000000000E+00 0. -1.
        -13    1    5    5    0    0  0.92045582813E+02  0.37747046150E+02  0.13309758347E+03  0.16616917745E+03  0.00000000000E+00 0.  1.
          1    1    6    6  503    0 -0.50878401182E+02  0.37840096710E+02  0.50993578670E+02  0.81368480946E+02  0.00000000000E+00 0. -1.
         -1    1    6    6    0  503 -0.77161537731E+03  0.22824593716E+03  0.47728328438E+03  0.93556711778E+03  0.00000000000E+00 0.  1.
<mgrwt>
<rscale>  0 0.18621175E+04</rscale>
<asrwt>0</asrwt>
<pdfrwt beam="1">  1        2 0.21010650E+00 0.18621175E+04</pdfrwt>
<pdfrwt beam="2">  1       -1 0.97653533E-01 0.18621175E+04</pdfrwt>
<totfact> 0.16313665E+01</totfact>
</mgrwt>
</event>
<event>
12    7  0.1909736E-007  0.2135478E+04  0.7818608E-02  0.8545774E-01
          2   -1    0    0  501    0  0.00000000000E+00  0.00000000000E+00  0.17107886997E+04  0.17107886997E+04  0.00000000000E+00 0. -1.
         -1   -1    0    0    0  501 -0.00000000000E+00 -0.00000000000E+00 -0.66639830964E+03  0.66639830964E+03  0.00000000000E+00 0.  1.
         24    2    1    2    0    0 -0.22485006698E+02 -0.84729028907E+03  0.19453426476E+03  0.87337600099E+03  0.80843363733E+02 0.  0.
        254    2    1    2    0    0  0.22485006698E+02  0.84729028907E+03  0.84985612533E+03  0.15038110084E+04  0.90597224335E+03 0.  0.
         23    2    4    4    0    0  0.43871409663E+03  0.31986237915E+03  0.27861584533E+03  0.61727531520E+03  0.92844091424E+02 0.  0.
         23    2    4    4    0    0 -0.41622908993E+03  0.52742790992E+03  0.57124028001E+03  0.88653569319E+03  0.90571641995E+02 0.  0.
          4    1    3    3  502    0 -0.41202677564E+02 -0.37378871055E+03  0.60278454287E+02  0.38085319065E+03  0.00000000000E+00 0. -1.
         -3    1    3    3    0  502  0.18717670866E+02 -0.47350157852E+03  0.13425581048E+03  0.49252281034E+03  0.00000000000E+00 0.  1.
         13    1    5    5    0    0  0.31932400644E+02  0.36633034908E+02 -0.13981105788E+00  0.48597088438E+02  0.00000000000E+00 0. -1.
        -13    1    5    5    0    0  0.40678169598E+03  0.28322934424E+03  0.27875565638E+03  0.56867822676E+03  0.00000000000E+00 0.  1.
          1    1    6    6  503    0 -0.68393939433E+02  0.14846899488E+03  0.13117853739E+03  0.20959146467E+03  0.00000000000E+00 0. -1.
         -1    1    6    6    0  503 -0.34783515050E+03  0.37895891504E+03  0.44006174262E+03  0.67694422852E+03  0.00000000000E+00 0.  1.
<mgrwt>
<rscale>  0 0.21354781E+04</rscale>
<asrwt>0</asrwt>
<pdfrwt beam="1">  1        2 0.26319826E+00 0.21354781E+04</pdfrwt>
<pdfrwt beam="2">  1       -1 0.10252282E+00 0.21354781E+04</pdfrwt>
<totfact> 0.91082335E+00</totfact>
</mgrwt>
</event>
<event>
12    7  0.1909736E-007  0.1418261E+04  0.7818608E-02  0.8940705E-01
         -1   -1    0    0    0  501 -0.00000000000E+00  0.00000000000E+00  0.72980372774E+03  0.72980372774E+03  0.00000000000E+00 0.  1.
          2   -1    0    0  501    0  0.00000000000E+00 -0.00000000000E+00 -0.68904306518E+03  0.68904306518E+03  0.00000000000E+00 0. -1.
         24    2    1    2    0    0 -0.18356693508E+03  0.35506356219E+03  0.13207952679E+03  0.42856611302E+03  0.80355205070E+02 0.  0.
        254    2    1    2    0    0  0.18356693508E+03 -0.35506356219E+03 -0.91318864222E+02  0.99028067990E+03  0.90141540767E+03 0.  0.
         23    2    4    4    0    0 -0.17725560882E+03 -0.26808187533E+03  0.29614985210E+03  0.44650201387E+03  0.91497927614E+02 0.  0.
         23    2    4    4    0    0  0.36082254390E+03 -0.86981686862E+02 -0.38746871632E+03  0.54377866603E+03  0.88343134808E+02 0.  0.
          2    1    3    3  502    0 -0.77600191238E+02  0.13041902182E+03  0.10766632558E+02  0.15214082723E+03  0.00000000000E+00 0. -1.
         -1    1    3    3    0  502 -0.10596674384E+03  0.22464454037E+03  0.12131289423E+03  0.27642528579E+03  0.00000000000E+00 0.  1.
         13    1    5    5    0    0 -0.66222060829E+02 -0.45352211723E+02  0.41196807341E+02  0.90218409339E+02  0.00000000000E+00 0.  1.
        -13    1    5    5    0    0 -0.11103354799E+03 -0.22272966361E+03  0.25495304476E+03  0.35628360454E+03  0.00000000000E+00 0. -1.
          4    1    6    6  503    0  0.32635220241E+03 -0.49854883317E+02 -0.34680319351E+03  0.47881491669E+03  0.00000000000E+00 0. -1.
         -4    1    6    6    0  503  0.34470341483E+02 -0.37126803545E+02 -0.40665522809E+02  0.64963749343E+02  0.00000000000E+00 0.  1.
<mgrwt>
<rscale>  0 0.14182612E+04</rscale>
<asrwt>0</asrwt>
<pdfrwt beam="1">  1        2 0.10600663E+00 0.14182612E+04</pdfrwt>
<pdfrwt beam="2">  1       -1 0.11227750E+00 0.14182612E+04</pdfrwt>
<totfact> 0.33749360E+01</totfact>
</mgrwt>
</event>
<event>
12    7  0.1909736E-007  0.2130919E+04  0.7818608E-02  0.8547744E-01
          2   -1    0    0  501    0  0.00000000000E+00  0.00000000000E+00  0.22285675257E+04  0.22285675257E+04  0.00000000000E+00 0. -1.
         -1   -1    0    0    0  501 -0.00000000000E+00 -0.00000000000E+00 -0.50938719865E+03  0.50938719865E+03  0.00000000000E+00 0.  1.
         24    2    1    2    0    0  0.24564100967E+03  0.39927833249E+03 -0.23780403440E+03  0.53135442282E+03  0.77614891923E+02 0.  0.
        254    2    1    2    0    0 -0.24564100967E+03 -0.39927833249E+03  0.19569843615E+04  0.22066003015E+04  0.90528139676E+03 0.  0.
         23    2    4    4    0    0 -0.24162798083E+03  0.25083351028E+03  0.61255823807E+03  0.71049267226E+03  0.90943451162E+02 0.  0.
         23    2    4    4    0    0 -0.40130288449E+01 -0.65011184277E+03  0.13444261234E+04  0.14961076293E+04  0.90525822987E+02 0.  0.
          2    1    3    3  502    0  0.45141829541E+02  0.46290367747E+02 -0.59855734620E+02  0.88109544814E+02  0.00000000000E+00 0. -1.
         -1    1    3    3    0  502  0.20049918013E+03  0.35298796474E+03 -0.17794829978E+03  0.44324487801E+03  0.00000000000E+00 0.  1.
         13    1    5    5    0    0 -0.67709878861E+02  0.19629613371E+02  0.12829627941E+03  0.14638949665E+03  0.00000000000E+00 0.  1.
        -13    1    5    5    0    0 -0.17391810196E+03  0.23120389690E+03  0.48426195866E+03  0.56410317561E+03  0.00000000000E+00 0. -1.
          3    1    6    6  503    0  0.30545615947E+02 -0.39774837995E+03  0.75243552944E+03  0.85164313793E+03  0.00000000000E+00 0.  1.
         -3    1    6    6    0  503 -0.34558644792E+02 -0.25236346282E+03  0.59199059394E+03  0.64446449134E+03  0.00000000000E+00 0. -1.
<mgrwt>
<rscale>  0 0.21309188E+04</rscale>
<asrwt>0</asrwt>
<pdfrwt beam="1">  1        2 0.34285654E+00 0.21309188E+04</pdfrwt>
<pdfrwt beam="2">  1       -1 0.78367263E-01 0.21309188E+04</pdfrwt>
<totfact> 0.84846798E+00</totfact>
</mgrwt>
</event>
<event>
12    7  0.1909736E-007  0.1284431E+04  0.7818608E-02  0.9042003E-01
          2   -1    0    0  501    0  0.00000000000E+00  0.00000000000E+00  0.25677362733E+04  0.25677362733E+04  0.00000000000E+00 0. -1.
         -1   -1    0    0    0  501 -0.00000000000E+00 -0.00000000000E+00 -0.16062437453E+03  0.16062437453E+03  0.00000000000E+00 0.  1.
         24    2    1    2    0    0 -0.20999537582E+03  0.92813743389E+02  0.10948425574E+04  0.11218604514E+04  0.84724246937E+02 0.  0.
        254    2    1    2    0    0  0.20999537582E+03 -0.92813743389E+02  0.13122693414E+04  0.16065001965E+04  0.89781936274E+03 0.  0.
         23    2    4    4    0    0  0.11662879095E+03 -0.38368850313E+03  0.21629324407E+03  0.46518035235E+03  0.93759535345E+02 0.  0.
         23    2    4    4    0    0  0.93366584868E+02  0.29087475975E+03  0.10959760973E+04  0.11413198441E+04  0.90121782426E+02 0.  0.
          2    1    3    3  502    0 -0.12988012362E+03  0.19123211029E+02  0.48893648301E+03  0.50625431171E+03  0.00000000000E+00 0. -1.
         -1    1    3    3    0  502 -0.80115252199E+02  0.73690532359E+02  0.60590607438E+03  0.61560613964E+03  0.00000000000E+00 0.  1.
         13    1    5    5    0    0  0.18489926886E+02 -0.32859336694E+02  0.55215785363E+02  0.66861022708E+02  0.00000000000E+00 0. -1.
        -13    1    5    5    0    0  0.98138864065E+02 -0.35082916644E+03  0.16107745870E+03  0.39831932964E+03  0.00000000000E+00 0.  1.
          1    1    6    6  503    0  0.27164364368E+00  0.29198989839E+02  0.40608053687E+02  0.50016685438E+02  0.00000000000E+00 0. -1.
         -1    1    6    6    0  503  0.93094941224E+02  0.26167576991E+03  0.10553680436E+04  0.10913031587E+04  0.00000000000E+00 0.  1.
<mgrwt>
<rscale>  0 0.12844314E+04</rscale>
<asrwt>0</asrwt>
<pdfrwt beam="1">  1        2 0.39503632E+00 0.12844314E+04</pdfrwt>
<pdfrwt beam="2">  1       -1 0.24711444E-01 0.12844314E+04</pdfrwt>
<totfact> 0.51054433E+01</totfact>
</mgrwt>
</event>
<event>
12    7  0.1909736E-007  0.2400597E+04  0.7818608E-02  0.8439280E-01
         -1   -1    0    0    0  501 -0.00000000000E+00  0.00000000000E+00  0.61579407739E+03  0.61579407739E+03  0.00000000000E+00 0.  1.
          2   -1    0    0  501    0  0.00000000000E+00 -0.00000000000E+00 -0.23396068762E+04  0.23396068762E+04  0.00000000000E+00 0. -1.
         24    2    1    2    0    0 -0.27311242098E+02  0.92652841204E+02  0.52117207725E+03  0.53602643293E+03  0.79834514859E+02 0.  0.
        254    2    1    2    0    0  0.27311242098E+02 -0.92652841204E+02 -0.22449848761E+04  0.24193745207E+04  0.89670816017E+03 0.  0.
         23    2    4    4    0    0  0.42999230731E+03  0.38474478230E+02 -0.14331948749E+04  0.14993654898E+04  0.87610801966E+02 0.  0.
         23    2    4    4    0    0 -0.40268106521E+03 -0.13112731943E+03 -0.81179000121E+03  0.92000903094E+03  0.89817574917E+02 0.  0.
          4    1    3    3  502    0 -0.10416934505E+02 -0.23520011209E+00  0.22345893084E+03  0.22370172466E+03  0.00000000000E+00 0. -1.
         -3    1    3    3    0  502 -0.16894307592E+02  0.92888041316E+02  0.29771314641E+03  0.31232470827E+03  0.00000000000E+00 0.  1.
         13    1    5    5    0    0  0.22912253674E+03  0.12124918225E+02 -0.90552748539E+03  0.93414355283E+03  0.00000000000E+00 0.  1.
        -13    1    5    5    0    0  0.20086977057E+03  0.26349560005E+02 -0.52766738951E+03  0.56522193694E+03  0.00000000000E+00 0. -1.
          4    1    6    6  503    0 -0.26470162067E+03 -0.55889207660E+02 -0.57962347580E+03  0.63965140914E+03  0.00000000000E+00 0. -1.
         -4    1    6    6    0  503 -0.13797944454E+03 -0.75238111773E+02 -0.23216652541E+03  0.28035762179E+03  0.00000000000E+00 0.  1.
<mgrwt>
<rscale>  0 0.24005966E+04</rscale>
<asrwt>0</asrwt>
<pdfrwt beam="1">  1        2 0.35993952E+00 0.24005966E+04</pdfrwt>
<pdfrwt beam="2">  1       -1 0.94737550E-01 0.24005966E+04</pdfrwt>
<totfact> 0.47435453E+00</totfact>
</mgrwt>
</event>
<event>
12    7  0.1909736E-007  0.1780690E+04  0.7818608E-02  0.8716636E-01
          2   -1    0    0  501    0  0.00000000000E+00  0.00000000000E+00  0.64124226369E+03  0.64124226369E+03  0.00000000000E+00 0. -1.
         -1   -1    0    0    0  501 -0.00000000000E+00 -0.00000000000E+00 -0.12362163729E+04  0.12362163729E+04  0.00000000000E+00 0.  1.
         24    2    1    2    0    0 -0.21440683858E+03 -0.59981267843E+03 -0.61017933339E+02  0.64493862255E+03  0.80480413986E+02 0.  0.
        254    2    1    2    0    0  0.21440683858E+03  0.59981267843E+03 -0.53395617584E+03  0.12325200140E+04  0.91008287843E+03 0.  0.
         23    2    4    4    0    0 -0.11614753832E+03 -0.18084528181E+03 -0.22901987673E+03  0.32700228375E+03  0.91022651171E+02 0.  0.
         23    2    4    4    0    0  0.33055437690E+03  0.78065796024E+03 -0.30493629911E+03  0.90551773027E+03  0.91011902198E+02 0.  0.
          2    1    3    3  502    0 -0.16666289636E+03 -0.53718209929E+03 -0.42552352389E+02  0.56404949385E+03  0.00000000000E+00 0. -1.
         -1    1    3    3    0  502 -0.47743942220E+02 -0.62630579141E+02 -0.18465580951E+02  0.80889128701E+02  0.00000000000E+00 0.  1.
         13    1    5    5    0    0 -0.34319403528E+02 -0.10971030147E+03 -0.16497565678E+03  0.20107495875E+03  0.00000000000E+00 0. -1.
        -13    1    5    5    0    0 -0.81828134789E+02 -0.71134980349E+02 -0.64044219958E+02  0.12592732500E+03  0.00000000000E+00 0.  1.
          2    1    6    6  503    0  0.30435768754E+03  0.74661030383E+03 -0.30643328291E+03  0.86253226294E+03  0.00000000000E+00 0. -1.
         -2    1    6    6    0  503  0.26196689361E+02  0.34047656416E+02  0.14969837968E+01  0.42985467328E+02  0.00000000000E+00 0.  1.
<mgrwt>
<rscale>  0 0.17806900E+04</rscale>
<asrwt>0</asrwt>
<pdfrwt beam="1">  1        2 0.98652657E-01 0.17806900E+04</pdfrwt>
<pdfrwt beam="2">  1       -1 0.19018713E+00 0.17806900E+04</pdfrwt>
<totfact> 0.86970501E+00</totfact>
</mgrwt>
</event>
<event>
12    7  0.1909736E-007  0.1664887E+04  0.7818608E-02  0.8781648E-01
          2   -1    0    0  501    0  0.00000000000E+00  0.00000000000E+00  0.18546037814E+04  0.18546037814E+04  0.00000000000E+00 0. -1.
         -1   -1    0    0    0  501 -0.00000000000E+00 -0.00000000000E+00 -0.37364428109E+03  0.37364428109E+03  0.00000000000E+00 0.  1.
         24    2    1    2    0    0  0.46247749754E+03  0.12901307345E+03  0.79733305821E+02  0.49405361270E+03  0.84863203514E+02 0.  0.
        254    2    1    2    0    0 -0.46247749754E+03 -0.12901307345E+03  0.14012261945E+04  0.17341944498E+04  0.90192335190E+03 0.  0.
         23    2    4    4    0    0 -0.18600749293E+03  0.25849620100E+03  0.11326108062E+04  0.11799583816E+04  0.89863623019E+02 0.  0.
         23    2    4    4    0    0 -0.27647000461E+03 -0.38750927445E+03  0.26861538832E+03  0.55423606817E+03  0.91783937487E+02 0.  0.
          4    1    3    3  502    0  0.97287745950E+02  0.45948203963E+02 -0.12584212576E+02  0.10832592195E+03  0.00000000000E+00 0. -1.
         -3    1    3    3    0  502  0.36518975159E+03  0.83064869489E+02  0.92317518397E+02  0.38572769075E+03  0.00000000000E+00 0.  1.
         13    1    5    5    0    0 -0.11399390774E+03  0.13819402471E+03  0.47718567363E+03  0.50970419518E+03  0.00000000000E+00 0. -1.
        -13    1    5    5    0    0 -0.72013585192E+02  0.12030217629E+03  0.65542513256E+03  0.67025418646E+03  0.00000000000E+00 0.  1.
          3    1    6    6  503    0 -0.25175282965E+02 -0.98291788282E+02  0.62584527381E+02  0.11921364680E+03  0.00000000000E+00 0. -1.
         -3    1    6    6    0  503 -0.25129472164E+03 -0.28921748617E+03  0.20603086094E+03  0.43502242136E+03  0.00000000000E+00 0.  1.
<mgrwt>
<rscale>  0 0.16648869E+04</rscale>
<asrwt>0</asrwt>
<pdfrwt beam="1">  1        2 0.28532365E+00 0.16648869E+04</pdfrwt>
<pdfrwt beam="2">  1       -1 0.57483736E-01 0.16648869E+04</pdfrwt>
<totfact> 0.26806079E+01</totfact>
</mgrwt>
</event>
<event>
12    7  0.1909736E-007  0.2277616E+04  0.7818608E-02  0.8486800E-01
          2   -1    0    0  501    0  0.00000000000E+00  0.00000000000E+00  0.22891325958E+04  0.22891325958E+04  0.00000000000E+00 0. -1.
         -1   -1    0    0    0  501 -0.00000000000E+00 -0.00000000000E+00 -0.56653915951E+03  0.56653915951E+03  0.00000000000E+00 0.  1.
         24    2    1    2    0    0  0.54718029557E+03  0.48440586410E+03  0.15153928644E+04  0.16841780664E+04  0.77362192189E+02 0.  0.
        254    2    1    2    0    0 -0.54718029557E+03 -0.48440586410E+03  0.20720057187E+03  0.11714936889E+04  0.89185765070E+03 0.  0.
         23    2    4    4    0    0 -0.39515815649E+03 -0.60291039750E+03 -0.16290672168E+03  0.74466387921E+03  0.91294999716E+02 0.  0.
         23    2    4    4    0    0 -0.15202213907E+03  0.11850453340E+03  0.37010729355E+03  0.42682980969E+03  0.89723032163E+02 0.  0.
          4    1    3    3  502    0  0.52364633031E+03  0.44006692178E+03  0.13923883529E+04  0.15513251433E+04  0.00000000000E+00 0. -1.
         -3    1    3    3    0  502  0.23533965254E+02  0.44338942318E+02  0.12300451148E+03  0.13285292308E+03  0.00000000000E+00 0.  1.
         13    1    5    5    0    0 -0.13759331167E+03 -0.28373443529E+03 -0.50064959004E+02  0.31928615583E+03  0.00000000000E+00 0. -1.
        -13    1    5    5    0    0 -0.25756484483E+03 -0.31917596221E+03 -0.11284176267E+03  0.42537772338E+03  0.00000000000E+00 0.  1.
          4    1    6    6  503    0 -0.10216651808E+03  0.65472019303E+02  0.13891645790E+03  0.18445152481E+03  0.00000000000E+00 0. -1.
         -4    1    6    6    0  503 -0.49855620988E+02  0.53032514093E+02  0.23119083564E+03  0.24237828488E+03  0.00000000000E+00 0.  1.
<mgrwt>
<rscale>  0 0.22776156E+04</rscale>
<asrwt>0</asrwt>
<pdfrwt beam="1">  1        2 0.35217424E+00 0.22776156E+04</pdfrwt>
<pdfrwt beam="2">  1       -1 0.87159872E-01 0.22776156E+04</pdfrwt>
<totfact> 0.61596380E+00</totfact>
</mgrwt>
</event>
<event>
12    7  0.1909736E-007  0.4088009E+04  0.7818608E-02  0.7987024E-01
          2   -1    0    0  501    0  0.00000000000E+00  0.00000000000E+00  0.15791031708E+04  0.15791031708E+04  0.00000000000E+00 0. -1.
         -1   -1    0    0    0  501 -0.00000000000E+00 -0.00000000000E+00 -0.26457760793E+04  0.26457760793E+04  0.00000000000E+00 0.  1.
         24    2    1    2    0    0  0.43092649372E+03 -0.79338456280E+03 -0.22540164440E+04  0.24294207449E+04  0.79613556382E+02 0.  0.
        254    2    1    2    0    0 -0.43092649372E+03  0.79338456280E+03  0.11873435356E+04  0.17954585052E+04  0.99936473068E+03 0.  0.
         23    2    4    4    0    0 -0.49750807361E+03  0.43276735226E+02  0.18944429373E+03  0.54192256379E+03  0.91672054647E+02 0.  0.
         23    2    4    4    0    0  0.66581579887E+02  0.75010782758E+03  0.99789924185E+03  0.12535359414E+04  0.91948897431E+02 0.  0.
          4    1    3    3  502    0  0.22581167416E+03 -0.33968885770E+03 -0.10576279896E+04  0.11335591721E+04  0.00000000000E+00 0. -1.
         -3    1    3    3    0  502  0.20511481956E+03 -0.45369570510E+03 -0.11963884544E+04  0.12958615728E+04  0.00000000000E+00 0.  1.
         13    1    5    5    0    0 -0.46249563779E+02 -0.22962931830E+02  0.19030091780E+02  0.55031470825E+02  0.00000000000E+00 0. -1.
        -13    1    5    5    0    0 -0.45125850983E+03  0.66239667056E+02  0.17041420195E+03  0.48689109296E+03  0.00000000000E+00 0.  1.
          2    1    6    6  503    0  0.94409422434E+01  0.55420321945E+03  0.71359864823E+03  0.90357809325E+03  0.00000000000E+00 0. -1.
         -2    1    6    6    0  503  0.57140637644E+02  0.19590460813E+03  0.28430059362E+03  0.34995784816E+03  0.00000000000E+00 0.  1.
<mgrwt>
<rscale>  0 0.40880085E+04</rscale>
<asrwt>0</asrwt>
<pdfrwt beam="1">  1        2 0.24293895E+00 0.40880085E+04</pdfrwt>
<pdfrwt beam="2">  1       -1 0.40704247E+00 0.40880085E+04</pdfrwt>
<totfact> 0.65389589E-02</totfact>
</mgrwt>
</event>
<event>
12    7  0.1909736E-007  0.1670546E+04  0.7818608E-02  0.8778344E-01
         -1   -1    0    0    0  501 -0.00000000000E+00  0.00000000000E+00  0.33354579944E+03  0.33354579944E+03  0.00000000000E+00 0.  1.
          2   -1    0    0  501    0  0.00000000000E+00 -0.00000000000E+00 -0.20917086203E+04  0.20917086203E+04  0.00000000000E+00 0. -1.
         24    2    1    2    0    0  0.23644844190E+03  0.48892288873E+03 -0.96158798854E+03  0.11071848377E+04  0.79078115418E+02 0.  0.
        254    2    1    2    0    0 -0.23644844190E+03 -0.48892288873E+03 -0.79657483236E+03  0.13180695821E+04  0.89878946525E+03 0.  0.
         23    2    4    4    0    0 -0.36474956747E+03  0.17155904367E+02 -0.67621909732E+03  0.77458991643E+03  0.96854008854E+02 0.  0.
         23    2    4    4    0    0  0.12830112557E+03 -0.50607879309E+03 -0.12035573504E+03  0.54347966565E+03  0.91146697004E+02 0.  0.
          4    1    3    3  502    0  0.18477920524E+03  0.38946635395E+03 -0.69278670843E+03  0.81595393187E+03  0.00000000000E+00 0. -1.
         -3    1    3    3    0  502  0.51669236655E+02  0.99456534777E+02 -0.26880128011E+03  0.29123090584E+03  0.00000000000E+00 0.  1.
         13    1    5    5    0    0 -0.34960480299E+03  0.20139949096E+02 -0.58288713451E+03  0.67999010831E+03  0.00000000000E+00 0. -1.
        -13    1    5    5    0    0 -0.15144764477E+02 -0.29840447293E+01 -0.93331962811E+02  0.94599808119E+02  0.00000000000E+00 0.  1.
          2    1    6    6  503    0  0.58042883669E+02 -0.23806518969E+03 -0.10318661368E+03  0.26587870943E+03  0.00000000000E+00 0. -1.
         -2    1    6    6    0  503  0.70258241899E+02 -0.26801360340E+03 -0.17169121363E+02  0.27760095621E+03  0.00000000000E+00 0.  1.
<mgrwt>
<rscale>  0 0.16705456E+04</rscale>
<asrwt>0</asrwt>
<pdfrwt beam="1">  1        2 0.32180132E+00 0.16705456E+04</pdfrwt>
<pdfrwt beam="2">  1       -1 0.51314739E-01 0.16705456E+04</pdfrwt>
<totfact> 0.24648005E+01</totfact>
</mgrwt>
</event>
<event>
12    7  0.1909736E-007  0.1799620E+04  0.7818608E-02  0.8706502E-01
         -1   -1    0    0    0  501 -0.00000000000E+00  0.00000000000E+00  0.51104658065E+03  0.51104658065E+03  0.00000000000E+00 0.  1.
          2   -1    0    0  501    0  0.00000000000E+00 -0.00000000000E+00 -0.15843129632E+04  0.15843129632E+04  0.00000000000E+00 0. -1.
         24    2    1    2    0    0  0.25377499588E+03 -0.59790868413E+03 -0.56907296954E+03  0.86733287531E+03  0.80781983381E+02 0.  0.
        254    2    1    2    0    0 -0.25377499588E+03  0.59790868413E+03 -0.50419341298E+03  0.12280266685E+04  0.91210852303E+03 0.  0.
         23    2    4    4    0    0 -0.13610609169E+03  0.82484960893E+03 -0.31724360251E+03  0.89884621632E+03  0.91538362002E+02 0.  0.
         23    2    4    4    0    0 -0.11766890419E+03 -0.22694092480E+03 -0.18694981047E+03  0.32918045218E+03  0.89785210933E+02 0.  0.
          2    1    3    3  502    0  0.20851432881E+03 -0.51116688044E+03 -0.44347723437E+03  0.70812559789E+03  0.00000000000E+00 0. -1.
         -1    1    3    3    0  502  0.45260667077E+02 -0.86741803684E+02 -0.12559573517E+03  0.15920727742E+03  0.00000000000E+00 0.  1.
         13    1    5    5    0    0 -0.83624709615E+02  0.70492780575E+03 -0.27535884182E+03  0.76140580189E+03  0.00000000000E+00 0.  1.
        -13    1    5    5    0    0 -0.52481382077E+02  0.11992180318E+03 -0.41884760692E+02  0.13744041444E+03  0.00000000000E+00 0. -1.
          1    1    6    6  503    0 -0.39168053180E+01 -0.98844308237E+02 -0.57117247105E+02  0.11422748597E+03  0.00000000000E+00 0. -1.
         -1    1    6    6    0  503 -0.11375209887E+03 -0.12809661656E+03 -0.12983256336E+03  0.21495296621E+03  0.00000000000E+00 0.  1.
<mgrwt>
<rscale>  0 0.17996197E+04</rscale>
<asrwt>0</asrwt>
<pdfrwt beam="1">  1        2 0.24374045E+00 0.17996197E+04</pdfrwt>
<pdfrwt beam="2">  1       -1 0.78622551E-01 0.17996197E+04</pdfrwt>
<totfact> 0.19811906E+01</totfact>
</mgrwt>
</event>
<event>
12    7  0.1909736E-007  0.1316224E+04  0.7818608E-02  0.9016797E-01
          2   -1    0    0  501    0  0.00000000000E+00  0.00000000000E+00  0.34674548560E+03  0.34674548560E+03  0.00000000000E+00 0. -1.
         -1   -1    0    0    0  501 -0.00000000000E+00 -0.00000000000E+00 -0.12490756448E+04  0.12490756448E+04  0.00000000000E+00 0.  1.
         24    2    1    2    0    0 -0.22220375048E+03  0.33491757776E+02 -0.56109795644E+03  0.60977281421E+03  0.80596300545E+02 0.  0.
        254    2    1    2    0    0  0.22220375048E+03 -0.33491757776E+02 -0.34123220278E+03  0.98604831620E+03  0.89741610255E+03 0.  0.
         23    2    4    4    0    0 -0.13181611225E+02 -0.41716830116E+03 -0.23152529529E+02  0.42740002392E+03  0.89059499539E+02 0.  0.
         23    2    4    4    0    0  0.23538536171E+03  0.38367654338E+03 -0.31807967325E+03  0.55864829228E+03  0.91100370425E+02 0.  0.
          2    1    3    3  502    0 -0.67609495301E+02 -0.26310824475E+02 -0.18791213145E+03  0.20143056493E+03  0.00000000000E+00 0. -1.
         -1    1    3    3    0  502 -0.15459425518E+03  0.59802582251E+02 -0.37318582499E+03  0.40834224929E+03  0.00000000000E+00 0.  1.
         13    1    5    5    0    0 -0.48873332405E+02 -0.30839213954E+03 -0.19826080328E+02  0.31286960193E+03  0.00000000000E+00 0.  1.
        -13    1    5    5    0    0  0.35691721180E+02 -0.10877616162E+03 -0.33264492011E+01  0.11453042199E+03  0.00000000000E+00 0. -1.
          1    1    6    6  503    0  0.44444992747E+02  0.20916658585E+02 -0.39100287223E+02  0.62782931180E+02  0.00000000000E+00 0. -1.
         -1    1    6    6    0  503  0.19094036896E+03  0.36275988480E+03 -0.27897938602E+03  0.49586536110E+03  0.00000000000E+00 0.  1.
<mgrwt>
<rscale>  0 0.13162239E+04</rscale>
<asrwt>0</asrwt>
<pdfrwt beam="1">  1        2 0.53345459E-01 0.13162239E+04</pdfrwt>
<pdfrwt beam="2">  1       -1 0.19216548E+00 0.13162239E+04</pdfrwt>
<totfact> 0.17860878E+01</totfact>
</mgrwt>
</event>
<event>
12    7  0.1909736E-007  0.1935091E+04  0.7818608E-02  0.8637584E-01
          2   -1    0    0  501    0  0.00000000000E+00  0.00000000000E+00  0.48480856762E+03  0.48480856762E+03  0.00000000000E+00 0. -1.
         -1   -1    0    0    0  501 -0.00000000000E+00 -0.00000000000E+00 -0.19309565389E+04  0.19309565389E+04  0.00000000000E+00 0.  1.
         24    2    1    2    0    0  0.42930925541E+03  0.24524000192E+03  0.14403726796E+03  0.52061224977E+03  0.76428297998E+02 0.  0.
        254    2    1    2    0    0 -0.42930925541E+03 -0.24524000192E+03 -0.15901852392E+04  0.18951528567E+04  0.90469119592E+03 0.  0.
         23    2    4    4    0    0 -0.48491533974E+03 -0.45509950563E+03 -0.68306244010E+03  0.95790626812E+03  0.93550385809E+02 0.  0.
         23    2    4    4    0    0  0.55606084328E+02  0.20985950371E+03 -0.90712279911E+03  0.93724658860E+03  0.91795137433E+02 0.  0.
          2    1    3    3  502    0  0.39137368086E+03  0.20343936871E+03  0.10965172304E+03  0.45451560499E+03  0.00000000000E+00 0. -1.
         -1    1    3    3    0  502  0.37935574546E+02  0.41800633200E+02  0.34385544921E+02  0.66096644783E+02  0.00000000000E+00 0.  1.
         13    1    5    5    0    0 -0.45982725760E+03 -0.42547070941E+03 -0.60596183311E+03  0.87158256900E+03  0.00000000000E+00 0.  1.
        -13    1    5    5    0    0 -0.25088082140E+02 -0.29628796214E+02 -0.77100606998E+02  0.86323699122E+02  0.00000000000E+00 0. -1.
          4    1    6    6  503    0  0.52685617297E+02  0.44999057615E+02 -0.22196710387E+03  0.23252975005E+03  0.00000000000E+00 0. -1.
         -4    1    6    6    0  503  0.29204670308E+01  0.16486044610E+03 -0.68515569524E+03  0.70471683855E+03  0.00000000000E+00 0.  1.
<mgrwt>
<rscale>  0 0.19350910E+04</rscale>
<asrwt>0</asrwt>
<pdfrwt beam="1">  1        2 0.74585934E-01 0.19350910E+04</pdfrwt>
<pdfrwt beam="2">  1       -1 0.29707023E+00 0.19350910E+04</pdfrwt>
<totfact> 0.23516803E+00</totfact>
</mgrwt>
</event>
<event>
12    7  0.1909736E-007  0.1572682E+04  0.7818608E-02  0.8837509E-01
          4   -1    0    0  501    0  0.00000000000E+00  0.00000000000E+00  0.11136651337E+04  0.11136651337E+04  0.00000000000E+00 0. -1.
         -3   -1    0    0    0  501 -0.00000000000E+00 -0.00000000000E+00 -0.55522261620E+03  0.55522261620E+03  0.00000000000E+00 0.  1.
         24    2    1    2    0    0  0.81370179666E+02  0.25980023239E+03  0.66528198124E+03  0.72294874920E+03  0.77055256196E+02 0.  0.
        254    2    1    2    0    0 -0.81370179666E+02 -0.25980023239E+03 -0.10683946379E+03  0.94593900066E+03  0.89959360550E+03 0.  0.
         23    2    4    4    0    0 -0.24348188041E+03  0.39152922106E+01 -0.42157700097E+03  0.49536576897E+03  0.91440263113E+02 0.  0.
         23    2    4    4    0    0  0.16211170074E+03 -0.26371552460E+03  0.31473753718E+03  0.45057323169E+03  0.90168943535E+02 0.  0.
          2    1    3    3  502    0  0.31281764296E+02  0.18926717391E+03  0.39423324137E+03  0.43842953881E+03  0.00000000000E+00 0. -1.
         -3    1    3    3    0  502  0.50088415370E+02  0.70533058476E+02  0.27104873987E+03  0.28451921039E+03  0.00000000000E+00 0.  1.
         13    1    5    5    0    0 -0.16591124924E+03  0.22184433157E+02 -0.35118229016E+03  0.38903430776E+03  0.00000000000E+00 0.  1.
        -13    1    5    5    0    0 -0.77570631172E+02 -0.18269140947E+02 -0.70394710814E+02  0.10633146120E+03  0.00000000000E+00 0. -1.
          4    1    6    6  503    0  0.75403367568E+02 -0.12156026243E+03  0.83541226699E+02  0.16565537058E+03  0.00000000000E+00 0. -1.
         -4    1    6    6    0  503  0.86708333174E+02 -0.14215526217E+03  0.23119631048E+03  0.28491786112E+03  0.00000000000E+00 0.  1.
<mgrwt>
<rscale>  0 0.15726819E+04</rscale>
<asrwt>0</asrwt>
<pdfrwt beam="1">  1        4 0.17133310E+00 0.15726819E+04</pdfrwt>
<pdfrwt beam="2">  1       -3 0.85418864E-01 0.15726819E+04</pdfrwt>
<totfact> 0.57044507E-01</totfact>
</mgrwt>
</event>
<event>
12    7  0.1909736E-007  0.1468682E+04  0.7818608E-02  0.8905550E-01
          2   -1    0    0  501    0  0.00000000000E+00  0.00000000000E+00  0.16266667670E+04  0.16266667670E+04  0.00000000000E+00 0. -1.
         -1   -1    0    0    0  501 -0.00000000000E+00 -0.00000000000E+00 -0.33151021506E+03  0.33151021506E+03  0.00000000000E+00 0.  1.
         24    2    1    2    0    0 -0.29794202557E+03 -0.19149752164E+03  0.77666975882E+03  0.85714659900E+03  0.77740764814E+02 0.  0.
        254    2    1    2    0    0  0.29794202557E+03  0.19149752164E+03  0.51848679315E+03  0.11010303831E+04  0.90443274953E+03 0.  0.
         23    2    4    4    0    0 -0.15588062947E+03  0.40769750294E+03  0.15624241373E+03  0.47480823025E+03  0.10254335236E+03 0.  0.
         23    2    4    4    0    0  0.45382265505E+03 -0.21619998130E+03  0.36224437942E+03  0.62622215285E+03  0.90751088945E+02 0.  0.
          2    1    3    3  502    0 -0.22280845476E+03 -0.17623396595E+03  0.64487062864E+03  0.70467023915E+03  0.00000000000E+00 0. -1.
         -1    1    3    3    0  502 -0.75133570809E+02 -0.15263555681E+02  0.13179913019E+03  0.15247635985E+03  0.00000000000E+00 0.  1.
         13    1    5    5    0    0 -0.16138850916E+03  0.30901581917E+03  0.13409612734E+03  0.37352215296E+03  0.00000000000E+00 0.  1.
        -13    1    5    5    0    0  0.55078796908E+01  0.98681683770E+02  0.22146286393E+02  0.10128607728E+03  0.00000000000E+00 0. -1.
          3    1    6    6  503    0  0.49760497590E+01 -0.43731924168E+01 -0.54176224947E+01  0.85578336402E+01  0.00000000000E+00 0. -1.
         -3    1    6    6    0  503  0.44884660529E+03 -0.21182678889E+03  0.36766200192E+03  0.61766431921E+03  0.00000000000E+00 0.  1.
<mgrwt>
<rscale>  0 0.14686819E+04</rscale>
<asrwt>0</asrwt>
<pdfrwt beam="1">  1        2 0.25025642E+00 0.14686819E+04</pdfrwt>
<pdfrwt beam="2">  1       -1 0.51001572E-01 0.14686819E+04</pdfrwt>
<totfact> 0.45944131E+01</totfact>
</mgrwt>
</event>
<event>
12    7  0.1909736E-007  0.1323178E+04  0.7818608E-02  0.9011384E-01
          2   -1    0    0  501    0  0.00000000000E+00  0.00000000000E+00  0.19084107008E+04  0.19084107008E+04  0.00000000000E+00 0. -1.
         -1   -1    0    0    0  501 -0.00000000000E+00 -0.00000000000E+00 -0.22935327179E+03  0.22935327179E+03  0.00000000000E+00 0.  1.
         24    2    1    2    0    0  0.45449802620E+02 -0.15478293355E+03  0.95230564270E+03  0.96934497910E+03  0.81976888858E+02 0.  0.
        254    2    1    2    0    0 -0.45449802620E+02  0.15478293355E+03  0.72675178635E+03  0.11684189935E+04  0.90056168273E+03 0.  0.
         23    2    4    4    0    0  0.37765366444E+03  0.24199886340E+03  0.47551590657E+03  0.66019235150E+03  0.92481476090E+02 0.  0.
         23    2    4    4    0    0 -0.42310346706E+03 -0.87215929850E+02  0.25123587978E+03  0.50822664204E+03  0.92475348766E+02 0.  0.
          4    1    3    3  502    0  0.21707353646E+02 -0.15373056547E+02  0.33471135098E+03  0.33576662810E+03  0.00000000000E+00 0. -1.
         -3    1    3    3    0  502  0.23742448974E+02 -0.13940987700E+03  0.61759429172E+03  0.63357835100E+03  0.00000000000E+00 0.  1.
         13    1    5    5    0    0  0.19869476029E+02  0.45761509635E+02  0.50079758781E+02  0.70688712546E+02  0.00000000000E+00 0.  1.
        -13    1    5    5    0    0  0.35778418841E+03  0.19623735376E+03  0.42543614779E+03  0.58950363895E+03  0.00000000000E+00 0. -1.
          1    1    6    6  503    0 -0.42519407862E+03 -0.84447603279E+02  0.23798321037E+03  0.49452746194E+03  0.00000000000E+00 0. -1.
         -1    1    6    6    0  503  0.20906115639E+01 -0.27683265709E+01  0.13252669416E+02  0.13699180098E+02  0.00000000000E+00 0.  1.
<mgrwt>
<rscale>  0 0.13231784E+04</rscale>
<asrwt>0</asrwt>
<pdfrwt beam="1">  1        2 0.29360164E+00 0.13231784E+04</pdfrwt>
<pdfrwt beam="2">  1       -1 0.35285120E-01 0.13231784E+04</pdfrwt>
<totfact> 0.64073829E+01</totfact>
</mgrwt>
</event>
<event>
12    7  0.1909736E-007  0.2002921E+04  0.7818608E-02  0.8605256E-01
         -3   -1    0    0    0  501 -0.00000000000E+00  0.00000000000E+00  0.17287243388E+04  0.17287243388E+04  0.00000000000E+00 0.  1.
          4   -1    0    0  501    0  0.00000000000E+00 -0.00000000000E+00 -0.58015215204E+03  0.58015215204E+03  0.00000000000E+00 0. -1.
         24    2    1    2    0    0 -0.42859271516E+03  0.15271574062E+03  0.12243288997E+04  0.13087105773E+04  0.82026261765E+02 0.  0.
        254    2    1    2    0    0  0.42859271516E+03 -0.15271574062E+03 -0.75756712967E+02  0.10001659135E+04  0.88745645643E+03 0.  0.
         23    2    4    4    0    0 -0.22647663794E+03  0.11997147823E+03 -0.83592279443E+02  0.28464868702E+03  0.91391371139E+02 0.  0.
         23    2    4    4    0    0  0.65506935309E+03 -0.27268721884E+03  0.78355664755E+01  0.71551722649E+03  0.91811375188E+02 0.  0.
          2    1    3    3  502    0 -0.10609121614E+03  0.74427997742E+02  0.30896390778E+03  0.33504263804E+03  0.00000000000E+00 0. -1.
         -1    1    3    3    0  502 -0.32250149902E+03  0.78287742877E+02  0.91536499193E+03  0.97366793929E+03  0.00000000000E+00 0.  1.
         13    1    5    5    0    0 -0.10420994008E+03  0.95702126681E+01 -0.52216740152E+02  0.11695250546E+03  0.00000000000E+00 0.  1.
        -13    1    5    5    0    0 -0.12226669786E+03  0.11040126556E+03 -0.31375539290E+02  0.16769618155E+03  0.00000000000E+00 0. -1.
          3    1    6    6  503    0  0.38126161918E+03 -0.17627448131E+03 -0.37508766894E+02  0.42171082820E+03  0.00000000000E+00 0. -1.
         -3    1    6    6    0  503  0.27380773391E+03 -0.96412737531E+02  0.45344333370E+02  0.29380639829E+03  0.00000000000E+00 0.  1.
<mgrwt>
<rscale>  0 0.20029210E+04</rscale>
<asrwt>0</asrwt>
<pdfrwt beam="1">  1        4 0.89254178E-01 0.20029210E+04</pdfrwt>
<pdfrwt beam="2">  1       -3 0.26595759E+00 0.20029210E+04</pdfrwt>
<totfact> 0.13584765E-01</totfact>
</mgrwt>
</event>
<event>
12    7  0.1909736E-007  0.1402702E+04  0.7818608E-02  0.8951865E-01
         -1   -1    0    0    0  501 -0.00000000000E+00  0.00000000000E+00  0.70657735848E+03  0.70657735848E+03  0.00000000000E+00 0.  1.
          2   -1    0    0  501    0  0.00000000000E+00 -0.00000000000E+00 -0.69616330772E+03  0.69616330772E+03  0.00000000000E+00 0. -1.
         24    2    1    2    0    0  0.14333345050E+03 -0.75504128176E+02 -0.36794808397E+03  0.41065854234E+03  0.83721529487E+02 0.  0.
        254    2    1    2    0    0 -0.14333345050E+03  0.75504128176E+02  0.37836213473E+03  0.99208212386E+03  0.90267584663E+03 0.  0.
         23    2    4    4    0    0 -0.64659682835E+02  0.47309622999E+03  0.10774572925E+03  0.49739719742E+03  0.88283137775E+02 0.  0.
         23    2    4    4    0    0 -0.78673767665E+02 -0.39759210181E+03  0.27061640548E+03  0.49468492644E+03  0.84916997096E+02 0.  0.
          4    1    3    3  502    0  0.11985123472E+03 -0.90716660931E+02 -0.33661812414E+03  0.36865375698E+03  0.00000000000E+00 0. -1.
         -3    1    3    3    0  502  0.23482215781E+02  0.15212532755E+02 -0.31329959830E+02  0.42004785367E+02  0.00000000000E+00 0.  1.
         13    1    5    5    0    0 -0.55788827053E+02  0.13818229770E+03  0.15040891874E+02  0.14977639684E+03  0.00000000000E+00 0. -1.
        -13    1    5    5    0    0 -0.88708557816E+01  0.33491393229E+03  0.92704837378E+02  0.34762080058E+03  0.00000000000E+00 0.  1.
          3    1    6    6  503    0 -0.26896974017E+02 -0.22335031519E+02  0.28525647443E+02  0.45122205246E+02  0.00000000000E+00 0. -1.
         -3    1    6    6    0  503 -0.51776793648E+02 -0.37525707029E+03  0.24209075803E+03  0.44956272120E+03  0.00000000000E+00 0.  1.
<mgrwt>
<rscale>  0 0.14027020E+04</rscale>
<asrwt>0</asrwt>
<pdfrwt beam="1">  1        2 0.10710205E+00 0.14027020E+04</pdfrwt>
<pdfrwt beam="2">  1       -1 0.10870421E+00 0.14027020E+04</pdfrwt>
<totfact> 0.36009539E+01</totfact>
</mgrwt>
</event>
<event>
12    7  0.1909736E-007  0.3323635E+04  0.7818608E-02  0.8156907E-01
          2   -1    0    0  501    0  0.00000000000E+00  0.00000000000E+00  0.19468534713E+04  0.19468534713E+04  0.00000000000E+00 0. -1.
         -1   -1    0    0    0  501 -0.00000000000E+00 -0.00000000000E+00 -0.14185135525E+04  0.14185135525E+04  0.00000000000E+00 0.  1.
         24    2    1    2    0    0  0.70785825160E+03  0.62342746935E+03  0.14754449440E+04  0.17528978786E+04  0.77382660057E+02 0.  0.
        254    2    1    2    0    0 -0.70785825160E+03 -0.62342746935E+03 -0.94710502522E+03  0.16124691452E+04  0.90184461061E+03 0.  0.
         23    2    4    4    0    0 -0.20313558595E+03  0.13189848864E+03 -0.56812505655E+03  0.62423631160E+03  0.90794356990E+02 0.  0.
         23    2    4    4    0    0 -0.50472266565E+03 -0.75532595799E+03 -0.37897996867E+03  0.98823283365E+03  0.87841020085E+02 0.  0.
          2    1    3    3  502    0  0.56429675533E+03  0.47257768394E+03  0.10993872434E+04  0.13230316724E+04  0.00000000000E+00 0. -1.
         -1    1    3    3    0  502  0.14356149627E+03  0.15084978542E+03  0.37605770065E+03  0.42986620615E+03  0.00000000000E+00 0.  1.
         13    1    5    5    0    0 -0.39406537665E+01  0.26036827814E+02 -0.11612822811E+03  0.11907649020E+03  0.00000000000E+00 0. -1.
        -13    1    5    5    0    0 -0.19919493218E+03  0.10586166082E+03 -0.45199682844E+03  0.50515982140E+03  0.00000000000E+00 0.  1.
          1    1    6    6  503    0 -0.14188411363E+03 -0.15323439112E+03 -0.68835781807E+02  0.21988689178E+03  0.00000000000E+00 0. -1.
         -1    1    6    6    0  503 -0.36283855202E+03 -0.60209156688E+03 -0.31014418686E+03  0.76834594187E+03  0.00000000000E+00 0.  1.
<mgrwt>
<rscale>  0 0.33236354E+04</rscale>
<asrwt>0</asrwt>
<pdfrwt beam="1">  1        2 0.29951592E+00 0.33236354E+04</pdfrwt>
<pdfrwt beam="2">  1       -1 0.21823285E+00 0.33236354E+04</pdfrwt>
<totfact> 0.76703781E-01</totfact>
</mgrwt>
</event>
<event>
12    7  0.1909736E-007  0.1043131E+04  0.7818608E-02  0.9262464E-01
          2   -1    0    0  501    0  0.00000000000E+00  0.00000000000E+00  0.30642824040E+03  0.30642824040E+03  0.00000000000E+00 0. -1.
         -1   -1    0    0    0  501 -0.00000000000E+00 -0.00000000000E+00 -0.88774706697E+03  0.88774706697E+03  0.00000000000E+00 0.  1.
         24    2    1    2    0    0 -0.59144309124E+02 -0.88798071976E+02 -0.48484641068E+02  0.14219854479E+03  0.80538927430E+02 0.  0.
        254    2    1    2    0    0  0.59144309124E+02  0.88798071976E+02 -0.53283418550E+03  0.10519767626E+04  0.90075506819E+03 0.  0.
         23    2    4    4    0    0  0.33239430842E+03 -0.25401600523E+03 -0.39597016954E+03  0.58351941264E+03  0.93233162415E+02 0.  0.
         23    2    4    4    0    0 -0.27324999930E+03  0.34281407721E+03 -0.13686401596E+03  0.46845734994E+03  0.92376816332E+02 0.  0.
          2    1    3    3  502    0 -0.47903963954E+02 -0.82230306344E+02 -0.33513804226E+01  0.95225231923E+02  0.00000000000E+00 0. -1.
         -1    1    3    3    0  502 -0.11240345170E+02 -0.65677656320E+01 -0.45133260646E+02  0.46973312864E+02  0.00000000000E+00 0.  1.
         13    1    5    5    0    0  0.28984374779E+03 -0.21661853280E+03 -0.37986810539E+03  0.52462630927E+03  0.00000000000E+00 0. -1.
        -13    1    5    5    0    0  0.42550560628E+02 -0.37397472438E+02 -0.16102064152E+02  0.58893103370E+02  0.00000000000E+00 0.  1.
          2    1    6    6  503    0 -0.24889915166E+03  0.33878191892E+03 -0.11588998467E+03  0.43606704167E+03  0.00000000000E+00 0. -1.
         -2    1    6    6    0  503 -0.24350847637E+02  0.40321582914E+01 -0.20974031289E+02  0.32390308267E+02  0.00000000000E+00 0.  1.
<mgrwt>
<rscale>  0 0.10431314E+04</rscale>
<asrwt>0</asrwt>
<pdfrwt beam="1">  1        2 0.47142808E-01 0.10431314E+04</pdfrwt>
<pdfrwt beam="2">  1       -1 0.13657647E+00 0.10431314E+04</pdfrwt>
<totfact> 0.54731247E+01</totfact>
</mgrwt>
</event>
<event>
12    7  0.1909736E-007  0.1688627E+04  0.7818608E-02  0.8767878E-01
         -1   -1    0    0    0  501 -0.00000000000E+00  0.00000000000E+00  0.63331533553E+03  0.63331533553E+03  0.00000000000E+00 0.  1.
          2   -1    0    0  501    0  0.00000000000E+00 -0.00000000000E+00 -0.11256081133E+04  0.11256081133E+04  0.00000000000E+00 0. -1.
         24    2    1    2    0    0 -0.30407564276E+03  0.59068158579E+02  0.36010245919E+03  0.48184646345E+03  0.80939417789E+02 0.  0.
        254    2    1    2    0    0  0.30407564276E+03 -0.59068158579E+02 -0.85239523694E+03  0.12770769854E+04  0.89910897153E+03 0.  0.
         23    2    4    4    0    0 -0.29656083356E+03  0.84899095777E+02 -0.22942826391E+03  0.39519307976E+03  0.91564499346E+02 0.  0.
         23    2    4    4    0    0  0.60063647632E+03 -0.14396725436E+03 -0.62296697302E+03  0.88188390560E+03  0.90225420245E+02 0.  0.
          2    1    3    3  502    0 -0.13170164991E+02 -0.57749700975E+01  0.48784033713E+02  0.50859467858E+02  0.00000000000E+00 0. -1.
         -1    1    3    3    0  502 -0.29090547777E+03  0.64843128677E+02  0.31131842548E+03  0.43098699560E+03  0.00000000000E+00 0.  1.
         13    1    5    5    0    0 -0.14288207994E+03  0.83482724360E+02 -0.93794655113E+02  0.19021590723E+03  0.00000000000E+00 0. -1.
        -13    1    5    5    0    0 -0.15367875362E+03  0.14163714166E+01 -0.13563360880E+03  0.20497717253E+03  0.00000000000E+00 0.  1.
          4    1    6    6  503    0  0.59816687129E+03 -0.14628131838E+03 -0.62542543219E+03  0.87770086091E+03  0.00000000000E+00 0. -1.
         -4    1    6    6    0  503  0.24696050338E+01  0.23140640224E+01  0.24584591716E+01  0.41830446831E+01  0.00000000000E+00 0.  1.
<mgrwt>
<rscale>  0 0.16886265E+04</rscale>
<asrwt>0</asrwt>
<pdfrwt beam="1">  1        2 0.17317048E+00 0.16886265E+04</pdfrwt>
<pdfrwt beam="2">  1       -1 0.97433128E-01 0.16886265E+04</pdfrwt>
<totfact> 0.23082880E+01</totfact>
</mgrwt>
</event>
<event>
12    7  0.1909736E-007  0.1391727E+04  0.7818608E-02  0.8959829E-01
         -1   -1    0    0    0  501 -0.00000000000E+00  0.00000000000E+00  0.61353903916E+03  0.61353903916E+03  0.00000000000E+00 0.  1.
          2   -1    0    0  501    0  0.00000000000E+00 -0.00000000000E+00 -0.78923387817E+03  0.78923387817E+03  0.00000000000E+00 0. -1.
         24    2    1    2    0    0 -0.13113255887E+03 -0.19722627983E+03  0.27348865213E+03  0.37045280095E+03  0.79657274860E+02 0.  0.
        254    2    1    2    0    0  0.13113255887E+03  0.19722627983E+03 -0.44918349115E+03  0.10323201164E+04  0.89879088809E+03 0.  0.
         23    2    4    4    0    0  0.33090862803E+03  0.29066288067E+03 -0.59918070233E+03  0.74997045748E+03  0.97225216560E+02 0.  0.
         23    2    4    4    0    0 -0.19977606915E+03 -0.93436600849E+02  0.14999721119E+03  0.28234965890E+03  0.92635254274E+02 0.  0.
          2    1    3    3  502    0 -0.98708811189E+02 -0.96797675858E+02  0.19452258677E+03  0.23864671844E+03  0.00000000000E+00 0. -1.
         -1    1    3    3    0  502 -0.32423747683E+02 -0.10042860397E+03  0.78966065360E+02  0.13180608251E+03  0.00000000000E+00 0.  1.
         13    1    5    5    0    0  0.17567983393E+03  0.17728917010E+03 -0.26205872839E+03  0.36189726583E+03  0.00000000000E+00 0. -1.
        -13    1    5    5    0    0  0.15522879409E+03  0.11337371058E+03 -0.33712197394E+03  0.38807319165E+03  0.00000000000E+00 0.  1.
          4    1    6    6  503    0 -0.10720305578E+03 -0.89346254703E+02  0.56038345664E+02  0.15038465541E+03  0.00000000000E+00 0.  1.
         -4    1    6    6    0  503 -0.92573013377E+02 -0.40903461458E+01  0.93958865524E+02  0.13196500350E+03  0.00000000000E+00 0. -1.
<mgrwt>
<rscale>  0 0.13917267E+04</rscale>
<asrwt>0</asrwt>
<pdfrwt beam="1">  1        2 0.12142060E+00 0.13917267E+04</pdfrwt>
<pdfrwt beam="2">  1       -1 0.94390622E-01 0.13917267E+04</pdfrwt>
<totfact> 0.42384478E+01</totfact>
</mgrwt>
</event>
<event>
12    7  0.1909736E-007  0.1787076E+04  0.7818608E-02  0.8713203E-01
         -1   -1    0    0    0  501 -0.00000000000E+00  0.00000000000E+00  0.26511843983E+03  0.26511843983E+03  0.00000000000E+00 0.  1.
          2   -1    0    0  501    0  0.00000000000E+00 -0.00000000000E+00 -0.30115209694E+04  0.30115209694E+04  0.00000000000E+00 0. -1.
         24    2    1    2    0    0 -0.51067367415E+03  0.39892631042E+03 -0.77890274920E+03  0.10164351741E+04  0.80753747517E+02 0.  0.
        254    2    1    2    0    0  0.51067367415E+03 -0.39892631042E+03 -0.19674997804E+04  0.22602042352E+04  0.90417807777E+03 0.  0.
         23    2    4    4    0    0  0.62415632611E+03 -0.59134952973E+03 -0.14259370814E+04  0.16676737592E+04  0.92594931602E+02 0.  0.
         23    2    4    4    0    0 -0.11348265195E+03  0.19242321931E+03 -0.54156269895E+03  0.59253047593E+03  0.88866193721E+02 0.  0.
          4    1    3    3  502    0 -0.62654676947E+02  0.18913738211E+02 -0.83697865773E+02  0.10624815656E+03  0.00000000000E+00 0. -1.
         -3    1    3    3    0  502 -0.44801899721E+03  0.38001257221E+03 -0.69520488342E+03  0.91018701750E+03  0.00000000000E+00 0.  1.
         13    1    5    5    0    0  0.21558112887E+03 -0.26341561786E+03 -0.53439857178E+03  0.63359675218E+03  0.00000000000E+00 0. -1.
        -13    1    5    5    0    0  0.40857519723E+03 -0.32793391187E+03 -0.89153850963E+03  0.10340770070E+04  0.00000000000E+00 0.  1.
          3    1    6    6  503    0  0.14959894123E+02  0.13869087729E+02 -0.42142663885E+02  0.46820445811E+02  0.00000000000E+00 0. -1.
         -3    1    6    6    0  503 -0.12844254608E+03  0.17855413158E+03 -0.49942003507E+03  0.54571003012E+03  0.00000000000E+00 0.  1.
<mgrwt>
<rscale>  0 0.17870755E+04</rscale>
<asrwt>0</asrwt>
<pdfrwt beam="1">  1        2 0.46331091E+00 0.17870755E+04</pdfrwt>
<pdfrwt beam="2">  1       -1 0.40787453E-01 0.17870755E+04</pdfrwt>
<totfact> 0.10871394E+01</totfact>
</mgrwt>
</event>
<event>
12    7  0.1909736E-007  0.1808775E+04  0.7818608E-02  0.8701647E-01
          2   -1    0    0  501    0  0.00000000000E+00  0.00000000000E+00  0.29447691597E+04  0.29447691597E+04  0.00000000000E+00 0. -1.
         -1   -1    0    0    0  501 -0.00000000000E+00 -0.00000000000E+00 -0.27775252853E+03  0.27775252853E+03  0.00000000000E+00 0.  1.
         24    2    1    2    0    0 -0.12521635265E+03  0.66046820534E+03  0.82020221710E+03  0.10632853888E+04  0.77115211410E+02 0.  0.
        254    2    1    2    0    0  0.12521635265E+03 -0.66046820534E+03  0.18468144140E+04  0.21592362994E+04  0.89424858489E+03 0.  0.
         23    2    4    4    0    0  0.14913771154E+02  0.21099201009E+03  0.42687812782E+03  0.48722804331E+03  0.10210867389E+03 0.  0.
         23    2    4    4    0    0  0.11030258150E+03 -0.87146021543E+03  0.14199362862E+04  0.16720082561E+04  0.88221227649E+02 0.  0.
          4    1    3    3  502    0 -0.46503902014E+02  0.27641522768E+03  0.28375119701E+03  0.39885176796E+03  0.00000000000E+00 0. -1.
         -3    1    3    3    0  502 -0.78712450640E+02  0.38405297767E+03  0.53645102009E+03  0.66443362083E+03  0.00000000000E+00 0.  1.
         13    1    5    5    0    0 -0.32314398552E+02  0.84220682787E+02  0.24102219422E+03  0.25735003763E+03  0.00000000000E+00 0.  1.
        -13    1    5    5    0    0  0.47228169706E+02  0.12677132730E+03  0.18585593360E+03  0.22987800568E+03  0.00000000000E+00 0. -1.
          2    1    6    6  503    0  0.40793222494E+02 -0.62497585571E+03  0.10311872263E+04  0.12064849783E+04  0.00000000000E+00 0. -1.
         -2    1    6    6    0  503  0.69509359006E+02 -0.24648435972E+03  0.38874905989E+03  0.46552327777E+03  0.00000000000E+00 0.  1.
<mgrwt>
<rscale>  0 0.18087754E+04</rscale>
<asrwt>0</asrwt>
<pdfrwt beam="1">  1        2 0.45304139E+00 0.18087754E+04</pdfrwt>
<pdfrwt beam="2">  1       -1 0.42731160E-01 0.18087754E+04</pdfrwt>
<totfact> 0.10955134E+01</totfact>
</mgrwt>
</event>
<event>
12    7  0.1909736E-007  0.3847345E+04  0.7818608E-02  0.8036071E-01
         -1   -1    0    0    0  501 -0.00000000000E+00  0.00000000000E+00  0.73453167985E+03  0.73453167985E+03  0.00000000000E+00 0.  1.
          2   -1    0    0  501    0  0.00000000000E+00 -0.00000000000E+00 -0.50379243163E+04  0.50379243163E+04  0.00000000000E+00 0. -1.
         24    2    1    2    0    0 -0.58589241114E+03  0.15315250114E+04 -0.30964145771E+04  0.35047016368E+04  0.79445276373E+02 0.  0.
        254    2    1    2    0    0  0.58589241114E+03 -0.15315250114E+04 -0.12069780593E+04  0.22677543593E+04  0.99853643929E+03 0.  0.
         23    2    4    4    0    0  0.32485187774E+03 -0.63104998236E+02  0.53703574094E+01  0.34374721419E+03  0.92856465853E+02 0.  0.
         23    2    4    4    0    0  0.26104053340E+03 -0.14684200131E+04 -0.12123484167E+04  0.19240071451E+04  0.87265777029E+02 0.  0.
          2    1    3    3  502    0 -0.56750532414E+03  0.14749426276E+04 -0.29495995008E+04  0.33462897756E+04  0.00000000000E+00 0. -1.
         -1    1    3    3    0  502 -0.18387087001E+02  0.56582383765E+02 -0.14681507636E+03  0.15841186120E+03  0.00000000000E+00 0.  1.
         13    1    5    5    0    0  0.19823735903E+03  0.39465567966E+01 -0.15859384785E+02  0.19890989395E+03  0.00000000000E+00 0. -1.
        -13    1    5    5    0    0  0.12661451871E+03 -0.67051555032E+02  0.21229742194E+02  0.14483732024E+03  0.00000000000E+00 0.  1.
          4    1    6    6  503    0  0.25236464884E+03 -0.14047829921E+04 -0.11810506588E+04  0.18525614240E+04  0.00000000000E+00 0. -1.
         -4    1    6    6    0  503  0.86758845596E+01 -0.63637021061E+02 -0.31297757915E+02  0.71445721166E+02  0.00000000000E+00 0.  1.
<mgrwt>
<rscale>  0 0.38473445E+04</rscale>
<asrwt>0</asrwt>
<pdfrwt beam="1">  1        2 0.77506528E+00 0.38473445E+04</pdfrwt>
<pdfrwt beam="2">  1       -1 0.11300487E+00 0.38473445E+04</pdfrwt>
<totfact> 0.19687133E-02</totfact>
</mgrwt>
</event>
<event>
12    7  0.1909736E-007  0.2117977E+04  0.7818608E-02  0.8553365E-01
         -1   -1    0    0    0  501 -0.00000000000E+00  0.00000000000E+00  0.70383379402E+03  0.70383379402E+03  0.00000000000E+00 0.  1.
          2   -1    0    0  501    0  0.00000000000E+00 -0.00000000000E+00 -0.15933542132E+04  0.15933542132E+04  0.00000000000E+00 0. -1.
         24    2    1    2    0    0 -0.36502179739E+03 -0.31522851656E+03  0.41167050678E+03  0.63919966803E+03  0.80583368251E+02 0.  0.
        254    2    1    2    0    0  0.36502179739E+03  0.31522851656E+03 -0.13011909260E+04  0.16579883392E+04  0.90731338406E+03 0.  0.
         23    2    4    4    0    0  0.60856636188E+03  0.25590469242E+03 -0.12007890917E+04  0.13734421068E+04  0.92782269985E+02 0.  0.
         23    2    4    4    0    0 -0.24354456449E+03  0.59323824134E+02 -0.10040183427E+03  0.28454623238E+03  0.89737166404E+02 0.  0.
          2    1    3    3  502    0 -0.46192167435E+01 -0.26841481131E+02  0.19246734471E+02  0.33350248281E+02  0.00000000000E+00 0. -1.
         -3    1    3    3    0  502 -0.36040258065E+03 -0.28838703543E+03  0.39242377231E+03  0.60584941975E+03  0.00000000000E+00 0.  1.
         13    1    5    5    0    0  0.56037912241E+03  0.25146633293E+03 -0.11468980719E+04  0.13010131686E+04  0.00000000000E+00 0. -1.
        -13    1    5    5    0    0  0.48187239473E+02  0.44383594932E+01 -0.53891019802E+02  0.72428938266E+02  0.00000000000E+00 0.  1.
          2    1    6    6  503    0 -0.24982792900E+03  0.55668525753E+02 -0.10419069115E+03  0.27634883570E+03  0.00000000000E+00 0. -1.
         -2    1    6    6    0  503  0.62833645096E+01  0.36552983812E+01  0.37888568898E+01  0.81973966811E+01  0.00000000000E+00 0.  1.
<mgrwt>
<rscale>  0 0.21179769E+04</rscale>
<asrwt>0</asrwt>
<pdfrwt beam="1">  1        2 0.24513141E+00 0.21179769E+04</pdfrwt>
<pdfrwt beam="2">  1       -1 0.10828212E+00 0.21179769E+04</pdfrwt>
<totfact> 0.93385089E+00</totfact>
</mgrwt>
</event>
<event>
12    7  0.1909736E-007  0.1349455E+04  0.7818608E-02  0.8991241E-01
          2   -1    0    0  501    0  0.00000000000E+00  0.00000000000E+00  0.17156067922E+04  0.17156067922E+04  0.00000000000E+00 0. -1.
         -1   -1    0    0    0  501 -0.00000000000E+00 -0.00000000000E+00 -0.26536232617E+03  0.26536232617E+03  0.00000000000E+00 0.  1.
         24    2    1    2    0    0  0.28516868210E+03  0.14642185684E+03  0.40802113581E+03  0.52497272806E+03  0.79715622859E+02 0.  0.
        254    2    1    2    0    0 -0.28516868210E+03 -0.14642185684E+03  0.10422233302E+04  0.14559963903E+04  0.96484997858E+03 0.  0.
         23    2    4    4    0    0 -0.42649569699E+03 -0.45317385110E+03  0.84718951734E+03  0.10550600088E+04  0.90312927739E+02 0.  0.
         23    2    4    4    0    0  0.14132701489E+03  0.30675199426E+03  0.19503381290E+03  0.40093638158E+03  0.92960651787E+02 0.  0.
          4    1    3    3  502    0  0.21833646617E+03  0.89195238218E+02  0.33983043969E+03  0.41365605365E+03  0.00000000000E+00 0. -1.
         -3    1    3    3    0  502  0.66832215926E+02  0.57226618618E+02  0.68190696124E+02  0.11131667441E+03  0.00000000000E+00 0.  1.
         13    1    5    5    0    0 -0.32327464551E+03 -0.30185996187E+03  0.54758540033E+03  0.70390035066E+03  0.00000000000E+00 0.  1.
        -13    1    5    5    0    0 -0.10322105147E+03 -0.15131388923E+03  0.29960411701E+03  0.35115965809E+03  0.00000000000E+00 0. -1.
          3    1    6    6  503    0 -0.12805693232E+02  0.12965753814E+02  0.65214575378E+01  0.19355256638E+02  0.00000000000E+00 0. -1.
         -3    1    6    6    0  503  0.15413270812E+03  0.29378624045E+03  0.18851235536E+03  0.38158112494E+03  0.00000000000E+00 0.  1.
<mgrwt>
<rscale>  0 0.13494553E+04</rscale>
<asrwt>0</asrwt>
<pdfrwt beam="1">  1        2 0.26393950E+00 0.13494553E+04</pdfrwt>
<pdfrwt beam="2">  1       -1 0.40824974E-01 0.13494553E+04</pdfrwt>
<totfact> 0.62756908E+01</totfact>
</mgrwt>
</event>
<event>
12    7  0.1909736E-007  0.1359698E+04  0.7818608E-02  0.8983520E-01
          2   -1    0    0  501    0  0.00000000000E+00  0.00000000000E+00  0.25190623780E+04  0.25190623780E+04  0.00000000000E+00 0. -1.
         -1   -1    0    0    0  501 -0.00000000000E+00 -0.00000000000E+00 -0.18347871508E+03  0.18347871508E+03  0.00000000000E+00 0.  1.
         24    2    1    2    0    0  0.18221757259E+03  0.12566560708E+03  0.59994846825E+02  0.24317175142E+03  0.80858088508E+02 0.  0.
        254    2    1    2    0    0 -0.18221757259E+03 -0.12566560708E+03  0.22755888161E+04  0.24593693417E+04  0.90619976288E+03 0.  0.
         23    2    4    4    0    0 -0.18712204305E+03  0.20234204699E+03  0.20023018696E+04  0.20231145795E+04  0.88446943626E+02 0.  0.
         23    2    4    4    0    0  0.49044704608E+01 -0.32800765407E+03  0.27328694657E+03  0.43625476223E+03  0.89551032625E+02 0.  0.
          2    1    3    3  502    0  0.37454087686E+02 -0.33240033470E+01  0.27475332056E+02  0.46569856713E+02  0.00000000000E+00 0. -1.
         -1    1    3    3    0  502  0.14476348490E+03  0.12898961043E+03  0.32519514770E+02  0.19660189470E+03  0.00000000000E+00 0.  1.
         13    1    5    5    0    0 -0.18659959575E+03  0.16302616887E+03  0.18054868655E+04  0.18224104264E+04  0.00000000000E+00 0.  1.
        -13    1    5    5    0    0 -0.52244729975E+00  0.39315878117E+02  0.19681500411E+03  0.20070415308E+03  0.00000000000E+00 0. -1.
          1    1    6    6  503    0 -0.11363666109E+02 -0.25917703063E+02  0.59269173527E+02  0.65678726921E+02  0.00000000000E+00 0. -1.
         -1    1    6    6    0  503  0.16268136570E+02 -0.30208995101E+03  0.21401777304E+03  0.37057603531E+03  0.00000000000E+00 0.  1.
<mgrwt>
<rscale>  0 0.13596975E+04</rscale>
<asrwt>0</asrwt>
<pdfrwt beam="1">  1        2 0.38754803E+00 0.13596975E+04</pdfrwt>
<pdfrwt beam="2">  1       -1 0.28227496E-01 0.13596975E+04</pdfrwt>
<totfact> 0.43010484E+01</totfact>
</mgrwt>
</event>
<event>
12    7  0.1909736E-007  0.2064770E+04  0.7818608E-02  0.8576923E-01
          2   -1    0    0  501    0  0.00000000000E+00  0.00000000000E+00  0.11858461187E+04  0.11858461187E+04  0.00000000000E+00 0. -1.
         -1   -1    0    0    0  501 -0.00000000000E+00 -0.00000000000E+00 -0.89878359239E+03  0.89878359239E+03  0.00000000000E+00 0.  1.
         24    2    1    2    0    0  0.39881857632E+03  0.19268111917E+03 -0.59673979605E+03  0.74673829278E+03  0.73057670447E+02 0.  0.
        254    2    1    2    0    0 -0.39881857632E+03 -0.19268111917E+03  0.88380232238E+03  0.13378914183E+04  0.90147913547E+03 0.  0.
         23    2    4    4    0    0  0.15292206196E+03  0.14777642354E+02 -0.86513337528E+02  0.19887604813E+03  0.91997767388E+02 0.  0.
         23    2    4    4    0    0 -0.55174063828E+03 -0.20745876152E+03  0.97031565991E+03  0.11390153702E+04  0.91578731180E+02 0.  0.
          2    1    3    3  502    0  0.33545971879E+03  0.13806381834E+03 -0.45203590972E+03  0.57959581136E+03  0.00000000000E+00 0. -1.
         -1    1    3    3    0  502  0.63358857531E+02  0.54617300824E+02 -0.14470388633E+03  0.16714248142E+03  0.00000000000E+00 0.  1.
         13    1    5    5    0    0  0.96380588723E+02  0.53793468342E+02 -0.53148159564E+02  0.12250584469E+03  0.00000000000E+00 0.  1.
        -13    1    5    5    0    0  0.56541473235E+02 -0.39015825988E+02 -0.33365177964E+02  0.76370203442E+02  0.00000000000E+00 0. -1.
          1    1    6    6  503    0 -0.27053045127E+03 -0.55478446770E+02  0.47761293011E+03  0.55170526019E+03  0.00000000000E+00 0. -1.
         -1    1    6    6    0  503 -0.28121018702E+03 -0.15198031475E+03  0.49270272980E+03  0.58731010999E+03  0.00000000000E+00 0.  1.
<mgrwt>
<rscale>  0 0.20647702E+04</rscale>
<asrwt>0</asrwt>
<pdfrwt beam="1">  1        2 0.18243786E+00 0.20647702E+04</pdfrwt>
<pdfrwt beam="2">  1       -1 0.13827440E+00 0.20647702E+04</pdfrwt>
<totfact> 0.88124521E+00</totfact>
</mgrwt>
</event>
<event>
12    7  0.1909736E-007  0.1623248E+04  0.7818608E-02  0.8806392E-01
         -1   -1    0    0    0  501 -0.00000000000E+00  0.00000000000E+00  0.48503019150E+03  0.48503019150E+03  0.00000000000E+00 0.  1.
          2   -1    0    0  501    0  0.00000000000E+00 -0.00000000000E+00 -0.13581294354E+04  0.13581294354E+04  0.00000000000E+00 0. -1.
         24    2    1    2    0    0 -0.13948857171E+03 -0.23516861443E+03  0.24924095918E+03  0.37850728528E+03  0.79908512874E+02 0.  0.
        254    2    1    2    0    0  0.13948857171E+03  0.23516861443E+03 -0.11223402031E+04  0.14646523416E+04  0.90044300848E+03 0.  0.
         23    2    4    4    0    0  0.46200190209E+03  0.24574930546E+03 -0.38854513009E+03  0.65812879194E+03  0.91256287397E+02 0.  0.
         23    2    4    4    0    0 -0.32251333038E+03 -0.10580691030E+02 -0.73379507300E+03  0.80652354969E+03  0.88871973952E+02 0.  0.
          4    1    3    3  502    0 -0.11623226544E+02 -0.54642321761E+02  0.18495655766E+02  0.58847022056E+02  0.00000000000E+00 0. -1.
         -3    1    3    3    0  502 -0.12786534517E+03 -0.18052629267E+03  0.23074530341E+03  0.31966026323E+03  0.00000000000E+00 0.  1.
         13    1    5    5    0    0  0.32926158730E+03  0.13416802979E+03 -0.23226517129E+03  0.42468972543E+03  0.00000000000E+00 0. -1.
        -13    1    5    5    0    0  0.13274031480E+03  0.11158127567E+03 -0.15627995880E+03  0.23343906652E+03  0.00000000000E+00 0.  1.
          3    1    6    6  503    0 -0.11586462905E+03  0.38248102584E+02 -0.25029148201E+03  0.27844812009E+03  0.00000000000E+00 0. -1.
         -3    1    6    6    0  503 -0.20664870133E+03 -0.48828793614E+02 -0.48350359099E+03  0.52807542961E+03  0.00000000000E+00 0.  1.
<mgrwt>
<rscale>  0 0.16232483E+04</rscale>
<asrwt>0</asrwt>
<pdfrwt beam="1">  1        2 0.20894299E+00 0.16232483E+04</pdfrwt>
<pdfrwt beam="2">  1       -1 0.74620029E-01 0.16232483E+04</pdfrwt>
<totfact> 0.30157859E+01</totfact>
</mgrwt>
</event>
<event>
12    7  0.1909736E-007  0.2130914E+04  0.7818608E-02  0.8547747E-01
          2   -1    0    0  501    0  0.00000000000E+00  0.00000000000E+00  0.19763452516E+04  0.19763452516E+04  0.00000000000E+00 0. -1.
         -1   -1    0    0    0  501 -0.00000000000E+00 -0.00000000000E+00 -0.57439262783E+03  0.57439262783E+03  0.00000000000E+00 0.  1.
         24    2    1    2    0    0  0.79406502371E+03  0.27548102581E+03  0.29808389036E+03  0.89556118039E+03  0.82138691686E+02 0.  0.
        254    2    1    2    0    0 -0.79406502371E+03 -0.27548102581E+03  0.11038687334E+04  0.16551766991E+04  0.90258222176E+03 0.  0.
         23    2    4    4    0    0 -0.77312669982E+03 -0.26747704169E+03  0.12409993645E+04  0.14891618414E+04  0.90855409865E+02 0.  0.
         23    2    4    4    0    0 -0.20938323887E+02 -0.80039841215E+01 -0.13713063103E+03  0.16601485766E+03  0.90849578043E+02 0.  0.
          2    1    3    3  502    0  0.35326593709E+03  0.83447383976E+02  0.11025649234E+03  0.37936365443E+03  0.00000000000E+00 0. -1.
         -1    1    3    3    0  502  0.44079908662E+03  0.19203364183E+03  0.18782739802E+03  0.51619752596E+03  0.00000000000E+00 0.  1.
         13    1    5    5    0    0 -0.76664967775E+03 -0.25731356640E+03  0.12050275211E+04  0.14512247677E+04  0.00000000000E+00 0. -1.
        -13    1    5    5    0    0 -0.64770220733E+01 -0.10163475290E+02  0.35971843360E+02  0.37937073683E+02  0.00000000000E+00 0.  1.
          2    1    6    6  503    0 -0.24171081186E+02 -0.18992088882E+02 -0.14743655164E+03  0.15060702960E+03  0.00000000000E+00 0. -1.
         -2    1    6    6    0  503  0.32327572991E+01  0.10988104760E+02  0.10305920613E+02  0.15407828064E+02  0.00000000000E+00 0.  1.
<mgrwt>
<rscale>  0 0.21309136E+04</rscale>
<asrwt>0</asrwt>
<pdfrwt beam="1">  1        2 0.30405311E+00 0.21309136E+04</pdfrwt>
<pdfrwt beam="2">  1       -1 0.88368098E-01 0.21309136E+04</pdfrwt>
<totfact> 0.90627926E+00</totfact>
</mgrwt>
</event>
<event>
12    7  0.1909736E-007  0.1988768E+04  0.7818608E-02  0.8611890E-01
         -1   -1    0    0    0  501 -0.00000000000E+00  0.00000000000E+00  0.15231225522E+04  0.15231225522E+04  0.00000000000E+00 0.  1.
          2   -1    0    0  501    0  0.00000000000E+00 -0.00000000000E+00 -0.64919231715E+03  0.64919231715E+03  0.00000000000E+00 0. -1.
         24    2    1    2    0    0 -0.40082980576E+03 -0.49609926307E+03  0.85421838272E+03  0.10691514256E+04  0.81343183745E+02 0.  0.
        254    2    1    2    0    0  0.40082980576E+03  0.49609926307E+03  0.19711852322E+02  0.11031634437E+04  0.89989000129E+03 0.  0.
         23    2    4    4    0    0  0.54544831805E+03  0.66352774408E+03  0.29919047220E+01  0.86336589940E+03  0.87228377958E+02 0.  0.
         23    2    4    4    0    0 -0.14461851229E+03 -0.16742848102E+03  0.16719947600E+02  0.23979754432E+03  0.90975245318E+02 0.  0.
          4    1    3    3  502    0 -0.16371769262E+03 -0.15150222540E+03  0.26178946228E+03  0.34393332164E+03  0.00000000000E+00 0. -1.
         -3    1    3    3    0  502 -0.23711211314E+03 -0.34459703767E+03  0.59242892044E+03  0.72521810398E+03  0.00000000000E+00 0.  1.
         13    1    5    5    0    0  0.15231706609E+03  0.21520789625E+03  0.36394532869E+02  0.26615688842E+03  0.00000000000E+00 0. -1.
        -13    1    5    5    0    0  0.39313125196E+03  0.44831984783E+03 -0.33402628147E+02  0.59720901098E+03  0.00000000000E+00 0.  1.
          1    1    6    6  503    0 -0.62243681599E+02 -0.10780247487E+03 -0.29758511876E+02  0.12798913437E+03  0.00000000000E+00 0. -1.
         -1    1    6    6    0  503 -0.82374830690E+02 -0.59626006145E+02  0.46478459475E+02  0.11180840995E+03  0.00000000000E+00 0.  1.
<mgrwt>
<rscale>  0 0.19887679E+04</rscale>
<asrwt>0</asrwt>
<pdfrwt beam="1">  1        2 0.99875742E-01 0.19887679E+04</pdfrwt>
<pdfrwt beam="2">  1       -1 0.23432654E+00 0.19887679E+04</pdfrwt>
<totfact> 0.42245367E+00</totfact>
</mgrwt>
</event>
<event>
12    7  0.1909736E-007  0.1335738E+04  0.7818608E-02  0.9001695E-01
         -1   -1    0    0    0  501 -0.00000000000E+00  0.00000000000E+00  0.21604354466E+03  0.21604354466E+03  0.00000000000E+00 0.  1.
          2   -1    0    0  501    0  0.00000000000E+00 -0.00000000000E+00 -0.20646266425E+04  0.20646266425E+04  0.00000000000E+00 0. -1.
         24    2    1    2    0    0 -0.30837724566E+03 -0.11672592936E+02 -0.23311211138E+03  0.39470947827E+03  0.78876743726E+02 0.  0.
        254    2    1    2    0    0  0.30837724566E+03  0.11672592936E+02 -0.16154709864E+04  0.18859607089E+04  0.92296723250E+03 0.  0.
         23    2    4    4    0    0  0.56131757517E+02  0.44688629540E+03 -0.82953608452E+03  0.94834023542E+03  0.91438237997E+02 0.  0.
         23    2    4    4    0    0  0.25224548814E+03 -0.43521370247E+03 -0.78593490192E+03  0.93762047344E+03  0.91650035795E+02 0.  0.
          2    1    3    3  502    0 -0.89637352116E+02  0.11960471289E+02 -0.11067592360E+03  0.14292329352E+03  0.00000000000E+00 0. -1.
         -1    1    3    3    0  502 -0.21873989354E+03 -0.23633064225E+02 -0.12243618778E+03  0.25178618475E+03  0.00000000000E+00 0.  1.
         13    1    5    5    0    0 -0.10646614941E+02  0.96846717111E+02 -0.24610516428E+03  0.26468923081E+03  0.00000000000E+00 0.  1.
        -13    1    5    5    0    0  0.66778372458E+02  0.35003957829E+03 -0.58343092024E+03  0.68365100460E+03  0.00000000000E+00 0. -1.
          3    1    6    6  503    0  0.23343638023E+03 -0.33203656563E+03 -0.60647983458E+03  0.72976613671E+03  0.00000000000E+00 0. -1.
         -3    1    6    6    0  503  0.18809107907E+02 -0.10317713684E+03 -0.17945506733E+03  0.20785433673E+03  0.00000000000E+00 0.  1.
<mgrwt>
<rscale>  0 0.13357384E+04</rscale>
<asrwt>0</asrwt>
<pdfrwt beam="1">  1        2 0.31763486E+00 0.13357384E+04</pdfrwt>
<pdfrwt beam="2">  1       -1 0.33237470E-01 0.13357384E+04</pdfrwt>
<totfact> 0.58356614E+01</totfact>
</mgrwt>
</event>
<event>
12    7  0.2386694E-007  0.3449039E+04  0.7818608E-02  0.8125974E-01
         -1   -1    0    0    0  501 -0.00000000000E+00  0.00000000000E+00  0.87057942078E+03  0.87057942078E+03  0.00000000000E+00 0.  1.
          2   -1    0    0  501    0  0.00000000000E+00 -0.00000000000E+00 -0.34160792370E+04  0.34160792370E+04  0.00000000000E+00 0. -1.
         24    2    1    2    0    0  0.13867683556E+04  0.44950367281E+03 -0.34947077195E+03  0.15012393043E+04  0.80060005134E+02 0.  0.
        254    2    1    2    0    0 -0.13867683556E+04 -0.44950367281E+03 -0.21960290443E+04  0.27854193535E+04  0.90046509517E+03 0.  0.
         23    2    4    4    0    0  0.91302168321E+02  0.64344515773E+02 -0.21609784604E+03  0.26007184645E+03  0.91993388907E+02 0.  0.
         23    2    4    4    0    0 -0.14780705239E+04 -0.51384818858E+03 -0.19799311982E+04  0.25253475070E+04  0.92304100994E+02 0.  0.
          4    1    3    3  502    0  0.65721874891E+02  0.33853477909E+02 -0.47111510425E+01  0.74078456719E+02  0.00000000000E+00 0. -1.
         -3    1    3    3    0  502  0.13210464807E+04  0.41565019490E+03 -0.34475962090E+03  0.14271608476E+04  0.00000000000E+00 0.  1.
         13    1    5    5    0    0  0.70091268200E+02  0.21457261626E+02 -0.19396692959E+03  0.20735565999E+03  0.00000000000E+00 0. -1.
        -13    1    5    5    0    0  0.21210900121E+02  0.42887254146E+02 -0.22130916450E+02  0.52716186462E+02  0.00000000000E+00 0.  1.
          1    1    6    6  503    0 -0.10541665495E+04 -0.35788336110E+03 -0.13409505384E+04  0.17428413470E+04  0.00000000000E+00 0. -1.
         -1    1    6    6    0  503 -0.42390397435E+03 -0.15596482748E+03 -0.63898065982E+03  0.78250616004E+03  0.00000000000E+00 0.  1.
<mgrwt>
<rscale>  0 0.34490395E+04</rscale>
<asrwt>0</asrwt>
<pdfrwt beam="1">  1        2 0.52555066E+00 0.34490395E+04</pdfrwt>
<pdfrwt beam="2">  1       -1 0.13393529E+00 0.34490395E+04</pdfrwt>
<totfact> 0.40874624E-01</totfact>
</mgrwt>
</event>
<event>
12    7  0.1909736E-007  0.3169550E+04  0.7818608E-02  0.8196906E-01
          2   -1    0    0  501    0  0.00000000000E+00  0.00000000000E+00  0.20990760325E+04  0.20990760325E+04  0.00000000000E+00 0. -1.
         -1   -1    0    0    0  501 -0.00000000000E+00 -0.00000000000E+00 -0.11964843005E+04  0.11964843005E+04  0.00000000000E+00 0.  1.
         24    2    1    2    0    0 -0.27018668169E+03  0.63509836705E+03 -0.91995806465E+03  0.11528459012E+04  0.79875230653E+02 0.  0.
        254    2    1    2    0    0  0.27018668169E+03 -0.63509836705E+03  0.18225497967E+04  0.21427144318E+04  0.89061023808E+03 0.  0.
         23    2    4    4    0    0  0.20857270565E+03  0.16845104827E+03  0.72179903772E+03  0.77523543947E+03  0.90098871000E+02 0.  0.
         23    2    4    4    0    0  0.61613976044E+02 -0.80354941532E+03  0.11007507589E+04  0.13674789923E+04  0.94120222396E+02 0.  0.
          4    1    3    3  502    0 -0.98767107499E+02  0.16112277252E+03 -0.28871492350E+03  0.34506781420E+03  0.00000000000E+00 0. -1.
         -3    1    3    3    0  502 -0.17141957419E+03  0.47397559454E+03 -0.63124314115E+03  0.80777808703E+03  0.00000000000E+00 0.  1.
         13    1    5    5    0    0  0.19134950203E+03  0.17447333525E+03  0.62147491548E+03  0.67326565872E+03  0.00000000000E+00 0.  1.
        -13    1    5    5    0    0  0.17223203618E+02 -0.60222869830E+01  0.10032412224E+03  0.10196978075E+03  0.00000000000E+00 0. -1.
          3    1    6    6  503    0  0.61357821774E+02 -0.24112062270E+03  0.32548534200E+03  0.40968847291E+03  0.00000000000E+00 0. -1.
         -3    1    6    6    0  503  0.25615426995E+00 -0.56242879262E+03  0.77526541694E+03  0.95779051942E+03  0.00000000000E+00 0.  1.
<mgrwt>
<rscale>  0 0.31695498E+04</rscale>
<asrwt>0</asrwt>
<pdfrwt beam="1">  1        2 0.32293477E+00 0.31695498E+04</pdfrwt>
<pdfrwt beam="2">  1       -1 0.18407451E+00 0.31695498E+04</pdfrwt>
<totfact> 0.10990396E+00</totfact>
</mgrwt>
</event>
<event>
12    7  0.1909736E-007  0.1547809E+04  0.7818608E-02  0.8853269E-01
         -1   -1    0    0    0  501 -0.00000000000E+00  0.00000000000E+00  0.61151736886E+03  0.61151736886E+03  0.00000000000E+00 0.  1.
          2   -1    0    0  501    0  0.00000000000E+00 -0.00000000000E+00 -0.97941273042E+03  0.97941273042E+03  0.00000000000E+00 0. -1.
         24    2    1    2    0    0  0.22421440256E+03  0.11427177045E+03  0.32947867993E+03  0.42149494677E+03  0.75971401130E+02 0.  0.
        254    2    1    2    0    0 -0.22421440256E+03 -0.11427177045E+03 -0.69737404149E+03  0.11694351525E+04  0.90438812815E+03 0.  0.
         23    2    4    4    0    0  0.27818581108E+02 -0.21657502367E+02  0.20280309067E+03  0.22543116898E+03  0.91908636690E+02 0.  0.
         23    2    4    4    0    0 -0.25203298367E+03 -0.92614268083E+02 -0.90017713216E+03  0.94400398353E+03  0.93416401867E+02 0.  0.
          4    1    3    3  502    0  0.14600174230E+02 -0.32438490347E+01  0.16848325981E+01  0.15050790843E+02  0.00000000000E+00 0. -1.
         -3    1    3    3    0  502  0.20961422833E+03  0.11751561949E+03  0.32779384733E+03  0.40644415593E+03  0.00000000000E+00 0.  1.
         13    1    5    5    0    0  0.41831807073E+02 -0.86730042868E+01  0.31532016313E+02  0.53097920290E+02  0.00000000000E+00 0. -1.
        -13    1    5    5    0    0 -0.14013225965E+02 -0.12984498081E+02  0.17127107436E+03  0.17233324869E+03  0.00000000000E+00 0.  1.
          2    1    6    6  503    0 -0.29674753547E+02  0.87533622566E+01 -0.20062863704E+03  0.20300015357E+03  0.00000000000E+00 0. -1.
         -2    1    6    6    0  503 -0.22235823012E+03 -0.10136763034E+03 -0.69954849512E+03  0.74100382996E+03  0.00000000000E+00 0.  1.
<mgrwt>
<rscale>  0 0.15478086E+04</rscale>
<asrwt>0</asrwt>
<pdfrwt beam="1">  1        2 0.15067888E+00 0.15478086E+04</pdfrwt>
<pdfrwt beam="2">  1       -1 0.94079595E-01 0.15478086E+04</pdfrwt>
<totfact> 0.31232220E+01</totfact>
</mgrwt>
</event>
<event>
12    7  0.1909736E-007  0.2788586E+04  0.7818608E-02  0.8306821E-01
         -1   -1    0    0    0  501 -0.00000000000E+00  0.00000000000E+00  0.10246233327E+04  0.10246233327E+04  0.00000000000E+00 0.  1.
          2   -1    0    0  501    0  0.00000000000E+00 -0.00000000000E+00 -0.18973336021E+04  0.18973336021E+04  0.00000000000E+00 0. -1.
         24    2    1    2    0    0  0.11464058818E+04  0.46243657212E+03 -0.56583071119E+03  0.13617036931E+04  0.77320921362E+02 0.  0.
        254    2    1    2    0    0 -0.11464058818E+04 -0.46243657212E+03 -0.30687955820E+03  0.15602532418E+04  0.90117761072E+03 0.  0.
         23    2    4    4    0    0 -0.10329487879E+04 -0.68663670416E+03 -0.34427116595E+03  0.12906730975E+04  0.94134196473E+02 0.  0.
         23    2    4    4    0    0 -0.11345709393E+03  0.22420013203E+03  0.37391607750E+02  0.26958014428E+03  0.90205933797E+02 0.  0.
          4    1    3    3  502    0  0.98292874659E+03  0.42466059994E+03 -0.48492236900E+03  0.11754298150E+04  0.00000000000E+00 0. -1.
         -1    1    3    3    0  502  0.16347713526E+03  0.37775972185E+02 -0.80908342189E+02  0.18627387810E+03  0.00000000000E+00 0.  1.
         13    1    5    5    0    0 -0.51112699030E+02 -0.16033376230E+02 -0.29206482418E+01  0.53647994759E+02  0.00000000000E+00 0.  1.
        -13    1    5    5    0    0 -0.98183608889E+03 -0.67060332793E+03 -0.34135051771E+03  0.12370251027E+04  0.00000000000E+00 0. -1.
          1    1    6    6  503    0 -0.69818097322E+02  0.18826301879E+03  0.58651412691E+02  0.20918298011E+03  0.00000000000E+00 0. -1.
         -1    1    6    6    0  503 -0.43638996607E+02  0.35937113241E+02 -0.21259804941E+02  0.60397164164E+02  0.00000000000E+00 0.  1.
<mgrwt>
<rscale>  0 0.27885855E+04</rscale>
<asrwt>0</asrwt>
<pdfrwt beam="1">  1        2 0.29189748E+00 0.27885855E+04</pdfrwt>
<pdfrwt beam="2">  1       -1 0.15763436E+00 0.27885855E+04</pdfrwt>
<totfact> 0.23002073E+00</totfact>
</mgrwt>
</event>
<event>
12    7  0.1909736E-007  0.1789788E+04  0.7818608E-02  0.8711749E-01
         -1   -1    0    0    0  501 -0.00000000000E+00  0.00000000000E+00  0.40852318081E+03  0.40852318081E+03  0.00000000000E+00 0.  1.
          2   -1    0    0  501    0  0.00000000000E+00 -0.00000000000E+00 -0.19603188056E+04  0.19603188056E+04  0.00000000000E+00 0. -1.
         24    2    1    2    0    0 -0.28549599609E+03 -0.21873541147E+02 -0.13797919186E+04  0.14114333425E+04  0.79573401822E+02 0.  0.
        254    2    1    2    0    0  0.28549599609E+03  0.21873541147E+02 -0.17200370624E+03  0.95740864390E+03  0.89725114704E+03 0.  0.
         23    2    4    4    0    0  0.50734958427E+03 -0.14045693171E+02 -0.37667588351E+03  0.63925490768E+03  0.95714333448E+02 0.  0.
         23    2    4    4    0    0 -0.22185358817E+03  0.35919234317E+02  0.20467217727E+03  0.31815373621E+03  0.93924936724E+02 0.  0.
          4    1    3    3  502    0 -0.10558772754E+03 -0.11465231568E+02 -0.34202477198E+03  0.35813567875E+03  0.00000000000E+00 0. -1.
         -3    1    3    3    0  502 -0.17990826855E+03 -0.10408309578E+02 -0.10377671466E+04  0.10532976638E+04  0.00000000000E+00 0.  1.
         13    1    5    5    0    0  0.47510573690E+03 -0.13381579818E+02 -0.31665215064E+03  0.57111567341E+03  0.00000000000E+00 0.  1.
        -13    1    5    5    0    0  0.32243847371E+02 -0.66411335230E+00 -0.60023732868E+02  0.68139234272E+02  0.00000000000E+00 0. -1.
          3    1    6    6  503    0 -0.75878669455E+02  0.39865954097E+02  0.30764777905E+02  0.91067767810E+02  0.00000000000E+00 0. -1.
         -3    1    6    6    0  503 -0.14597491872E+03 -0.39467197796E+01  0.17390739936E+03  0.22708596840E+03  0.00000000000E+00 0.  1.
<mgrwt>
<rscale>  0 0.17897884E+04</rscale>
<asrwt>0</asrwt>
<pdfrwt beam="1">  1        2 0.30158751E+00 0.17897884E+04</pdfrwt>
<pdfrwt beam="2">  1       -1 0.62849719E-01 0.17897884E+04</pdfrwt>
<totfact> 0.19422541E+01</totfact>
</mgrwt>
</event>
<event>
12    7  0.1909736E-007  0.2027065E+04  0.7818608E-02  0.8594071E-01
         -1   -1    0    0    0  501 -0.00000000000E+00  0.00000000000E+00  0.53939701527E+03  0.53939701527E+03  0.00000000000E+00 0.  1.
          2   -1    0    0  501    0  0.00000000000E+00 -0.00000000000E+00 -0.19044375979E+04  0.19044375979E+04  0.00000000000E+00 0. -1.
         24    2    1    2    0    0  0.61804104147E+03 -0.34200148025E+03 -0.67215218579E+02  0.71386388297E+03  0.78383776127E+02 0.  0.
        254    2    1    2    0    0 -0.61804104147E+03  0.34200148025E+03 -0.12978253641E+04  0.17299707302E+04  0.89972679765E+03 0.  0.
         23    2    4    4    0    0 -0.81769750405E+03  0.16348605299E+03 -0.11064525774E+04  0.13885432323E+04  0.91967952935E+02 0.  0.
         23    2    4    4    0    0  0.19965646258E+03  0.17851542726E+03 -0.19137278672E+03  0.34142749794E+03  0.90657222732E+02 0.  0.
          4    1    3    3  502    0  0.43718539825E+03 -0.26338105996E+03 -0.18486054561E+02  0.51072731413E+03  0.00000000000E+00 0. -1.
         -3    1    3    3    0  502  0.18085564322E+03 -0.78620420291E+02 -0.48729164019E+02  0.20313656883E+03  0.00000000000E+00 0.  1.
         13    1    5    5    0    0 -0.30469722808E+03  0.74606474398E+02 -0.34717711302E+03  0.46790861781E+03  0.00000000000E+00 0. -1.
        -13    1    5    5    0    0 -0.51300027597E+03  0.88879578594E+02 -0.75927546435E+03  0.92063461449E+03  0.00000000000E+00 0.  1.
          2    1    6    6  503    0  0.68349142381E+02  0.17074272679E+02 -0.75419636463E+02  0.10320493019E+03  0.00000000000E+00 0. -1.
         -2    1    6    6    0  503  0.13130732020E+03  0.16144115458E+03 -0.11595315025E+03  0.23822256775E+03  0.00000000000E+00 0.  1.
<mgrwt>
<rscale>  0 0.20270648E+04</rscale>
<asrwt>0</asrwt>
<pdfrwt beam="1">  1        2 0.29299040E+00 0.20270648E+04</pdfrwt>
<pdfrwt beam="2">  1       -1 0.82984156E-01 0.20270648E+04</pdfrwt>
<totfact> 0.11492382E+01</totfact>
</mgrwt>
</event>
<event>
12    7  0.1909736E-007  0.2486019E+04  0.7818608E-02  0.8407983E-01
          2   -1    0    0  501    0  0.00000000000E+00  0.00000000000E+00  0.23505084233E+04  0.23505084233E+04  0.00000000000E+00 0. -1.
         -1   -1    0    0    0  501 -0.00000000000E+00 -0.00000000000E+00 -0.65733574414E+03  0.65733574414E+03  0.00000000000E+00 0.  1.
         24    2    1    2    0    0  0.98476498165E+02 -0.10725188661E+04  0.73026768251E+03  0.13037667016E+04  0.80761286265E+02 0.  0.
        254    2    1    2    0    0 -0.98476498165E+02  0.10725188661E+04  0.96290499660E+03  0.17040774657E+04  0.90371435637E+03 0.  0.
         23    2    4    4    0    0 -0.10030793000E+03 -0.13269431190E+03  0.73738982980E+02  0.20359369343E+03  0.91342723640E+02 0.  0.
         23    2    4    4    0    0  0.18314318389E+01  0.12052131780E+04  0.88916601362E+03  0.15004837723E+04  0.91066967680E+02 0.  0.
          2    1    3    3  502    0  0.82830693548E+02 -0.76255382373E+03  0.47774747855E+03  0.90365475218E+03  0.00000000000E+00 0. -1.
         -1    1    3    3    0  502  0.15645804617E+02 -0.30996504238E+03  0.25252020395E+03  0.40011194946E+03  0.00000000000E+00 0.  1.
         13    1    5    5    0    0 -0.51916966979E+02 -0.72861157274E+01  0.37239462501E+02  0.64305804637E+02  0.00000000000E+00 0. -1.
        -13    1    5    5    0    0 -0.48390963025E+02 -0.12540819617E+03  0.36499520479E+02  0.13928788879E+03  0.00000000000E+00 0.  1.
          3    1    6    6  503    0 -0.96285917688E+01  0.18728612295E+03  0.10072779814E+03  0.21287294555E+03  0.00000000000E+00 0. -1.
         -3    1    6    6    0  503  0.11460023608E+02  0.10179270551E+04  0.78843821549E+03  0.12876108268E+04  0.00000000000E+00 0.  1.
<mgrwt>
<rscale>  0 0.24860195E+04</rscale>
<asrwt>0</asrwt>
<pdfrwt beam="1">  1        2 0.36161668E+00 0.24860195E+04</pdfrwt>
<pdfrwt beam="2">  1       -1 0.10112858E+00 0.24860195E+04</pdfrwt>
<totfact> 0.40023988E+00</totfact>
</mgrwt>
</event>
<event>
12    7  0.1909736E-007  0.1981598E+04  0.7818608E-02  0.8615273E-01
          2   -1    0    0  501    0  0.00000000000E+00  0.00000000000E+00  0.19181766240E+04  0.19181766240E+04  0.00000000000E+00 0. -1.
         -1   -1    0    0    0  501 -0.00000000000E+00 -0.00000000000E+00 -0.51177916046E+03  0.51177916046E+03  0.00000000000E+00 0.  1.
         24    2    1    2    0    0  0.12848285092E+03 -0.46664205349E+03  0.13154161672E+04  0.14043910229E+04  0.87930672995E+02 0.  0.
        254    2    1    2    0    0 -0.12848285092E+03  0.46664205349E+03  0.90981296378E+02  0.10255647616E+04  0.89957925433E+03 0.  0.
         23    2    4    4    0    0  0.20554221757E+03  0.38731307867E+03  0.36432282838E+03  0.57765482778E+03  0.93246730014E+02 0.  0.
         23    2    4    4    0    0 -0.33402506850E+03  0.79328974816E+02 -0.27334153200E+03  0.44790993380E+03  0.89676546794E+02 0.  0.
          4    1    3    3  502    0  0.13981474264E+03 -0.42523182365E+03  0.11675128955E+04  0.12503825924E+04  0.00000000000E+00 0. -1.
         -3    1    3    3    0  502 -0.11331891720E+02 -0.41410229836E+02  0.14790327162E+03  0.15400843048E+03  0.00000000000E+00 0.  1.
         13    1    5    5    0    0  0.17305583278E+03  0.23190850464E+03  0.22797191332E+03  0.36837626016E+03  0.00000000000E+00 0. -1.
        -13    1    5    5    0    0  0.32486384790E+02  0.15540457403E+03  0.13635091507E+03  0.20927856762E+03  0.00000000000E+00 0.  1.
          4    1    6    6  503    0 -0.25093644362E+03  0.50122393902E+02 -0.15086497150E+03  0.29705486485E+03  0.00000000000E+00 0. -1.
         -4    1    6    6    0  503 -0.83088624877E+02  0.29206580914E+02 -0.12247656051E+03  0.15085506894E+03  0.00000000000E+00 0.  1.
<mgrwt>
<rscale>  0 0.19815982E+04</rscale>
<asrwt>0</asrwt>
<pdfrwt beam="1">  1        2 0.29510409E+00 0.19815982E+04</pdfrwt>
<pdfrwt beam="2">  1       -1 0.78735256E-01 0.19815982E+04</pdfrwt>
<totfact> 0.12683237E+01</totfact>
</mgrwt>
</event>
<event>
12    7  0.1909736E-007  0.2099887E+04  0.7818608E-02  0.8561293E-01
          2   -1    0    0  501    0  0.00000000000E+00  0.00000000000E+00  0.23802594130E+04  0.23802594130E+04  0.00000000000E+00 0. -1.
         -1   -1    0    0    0  501 -0.00000000000E+00 -0.00000000000E+00 -0.46313498248E+03  0.46313498248E+03  0.00000000000E+00 0.  1.
         24    2    1    2    0    0 -0.40676102117E+03  0.20232195278E+03  0.17652737240E+04  0.18246125494E+04  0.81430546414E+02 0.  0.
        254    2    1    2    0    0  0.40676102117E+03 -0.20232195278E+03  0.15185070648E+03  0.10187818460E+04  0.89914910433E+03 0.  0.
         23    2    4    4    0    0 -0.20177119554E+03 -0.30543514171E+03  0.20688534573E+01  0.37699807629E+03  0.90116747771E+02 0.  0.
         23    2    4    4    0    0  0.60853221671E+03  0.10311318892E+03  0.14978185303E+03  0.64178376975E+03  0.92238902352E+02 0.  0.
          4    1    3    3  502    0 -0.15589350278E+03  0.50460185226E+02  0.75863288494E+03  0.77612683797E+03  0.00000000000E+00 0. -1.
         -3    1    3    3    0  502 -0.25086751839E+03  0.15186176755E+03  0.10066408390E+04  0.10484857114E+04  0.00000000000E+00 0.  1.
         13    1    5    5    0    0 -0.13029425126E+03 -0.25320550640E+03 -0.20938008451E+02  0.28553112016E+03  0.00000000000E+00 0. -1.
        -13    1    5    5    0    0 -0.71476944279E+02 -0.52229635308E+02  0.23006861908E+02  0.91466956125E+02  0.00000000000E+00 0.  1.
          1    1    6    6  503    0  0.17163064458E+03  0.53490260787E+02  0.79194263414E+02  0.19644342065E+03  0.00000000000E+00 0. -1.
         -1    1    6    6    0  503  0.43690157213E+03  0.49622928138E+02  0.70587589613E+02  0.44534034910E+03  0.00000000000E+00 0.  1.
<mgrwt>
<rscale>  0 0.20998870E+04</rscale>
<asrwt>0</asrwt>
<pdfrwt beam="1">  1        2 0.36619375E+00 0.20998870E+04</pdfrwt>
<pdfrwt beam="2">  1       -1 0.71251537E-01 0.20998870E+04</pdfrwt>
<totfact> 0.85147245E+00</totfact>
</mgrwt>
</event>
<event>
12    7  0.1921618E-007  0.1534965E+04  0.7818608E-02  0.8861529E-01
         -1   -1    0    0    0  501 -0.00000000000E+00  0.00000000000E+00  0.33068736462E+03  0.33068736462E+03  0.00000000000E+00 0.  1.
          2   -1    0    0  501    0  0.00000000000E+00 -0.00000000000E+00 -0.17812279591E+04  0.17812279591E+04  0.00000000000E+00 0. -1.
         24    2    1    2    0    0  0.11652582337E+03  0.56048305273E+02 -0.11711958695E+04  0.11810762971E+04  0.80757506028E+02 0.  0.
        254    2    1    2    0    0 -0.11652582337E+03 -0.56048305273E+02 -0.27934472499E+03  0.93083902664E+03  0.87846920156E+03 0.  0.
         23    2    4    4    0    0  0.15566617777E+03  0.72848591591E+02  0.24889069995E+03  0.31591125866E+03  0.91183697167E+02 0.  0.
         23    2    4    4    0    0 -0.27219200115E+03 -0.12889689686E+03 -0.52823542494E+03  0.61492776798E+03  0.91654787985E+02 0.  0.
          2    1    3    3  502    0  0.12803502859E+03  0.51483884543E+02 -0.11165392000E+04  0.11250348190E+04  0.00000000000E+00 0. -1.
         -1    1    3    3    0  502 -0.11509205219E+02  0.45644207297E+01 -0.54656669482E+02  0.56041478034E+02  0.00000000000E+00 0.  1.
         13    1    5    5    0    0  0.83143994682E+02  0.23066295455E+02  0.53219547050E+02  0.10137700936E+03  0.00000000000E+00 0. -1.
        -13    1    5    5    0    0  0.72522183093E+02  0.49782296136E+02  0.19567115290E+03  0.21453424930E+03  0.00000000000E+00 0.  1.
          2    1    6    6  503    0 -0.11116337632E+03 -0.17646209555E+02 -0.13570335768E+03  0.17630679576E+03  0.00000000000E+00 0. -1.
         -2    1    6    6    0  503 -0.16102862483E+03 -0.11125068731E+03 -0.39253206726E+03  0.43862097222E+03  0.00000000000E+00 0.  1.
<mgrwt>
<rscale>  0 0.15349652E+04</rscale>
<asrwt>0</asrwt>
<pdfrwt beam="1">  1        2 0.27403507E+00 0.15349652E+04</pdfrwt>
<pdfrwt beam="2">  1       -1 0.50874979E-01 0.15349652E+04</pdfrwt>
<totfact> 0.37675705E+01</totfact>
</mgrwt>
</event>
<event>
12    7  0.1909736E-007  0.3883954E+04  0.7818608E-02  0.8028375E-01
          2   -1    0    0  501    0  0.00000000000E+00  0.00000000000E+00  0.32156617386E+04  0.32156617386E+04  0.00000000000E+00 0. -1.
         -1   -1    0    0    0  501 -0.00000000000E+00 -0.00000000000E+00 -0.11727833034E+04  0.11727833034E+04  0.00000000000E+00 0.  1.
         24    2    1    2    0    0 -0.16810697916E+04  0.40163445987E+03  0.16503513024E+04  0.23909976111E+04  0.76839255097E+02 0.  0.
        254    2    1    2    0    0  0.16810697916E+04 -0.40163445987E+03  0.39252713284E+03  0.19974474310E+04  0.92109326664E+03 0.  0.
         23    2    4    4    0    0  0.26212547113E+02 -0.23681154324E+03  0.19209008458E+03  0.31940539837E+03  0.91402424877E+02 0.  0.
         23    2    4    4    0    0  0.16548572445E+04 -0.16482291663E+03  0.20043704826E+03  0.16780420326E+04  0.99654198911E+02 0.  0.
          4    1    3    3  502    0 -0.11725181191E+04  0.26233078195E+03  0.11038666201E+04  0.16316058634E+04  0.00000000000E+00 0. -1.
         -3    1    3    3    0  502 -0.50855167253E+03  0.13930367792E+03  0.54648468235E+03  0.75939174763E+03  0.00000000000E+00 0.  1.
         13    1    5    5    0    0 -0.32663315089E+02 -0.10449636135E+03  0.95938517334E+02  0.14556984851E+03  0.00000000000E+00 0. -1.
        -13    1    5    5    0    0  0.58875862202E+02 -0.13231518189E+03  0.96151567246E+02  0.17383554985E+03  0.00000000000E+00 0.  1.
          1    1    6    6  503    0  0.11363327852E+04 -0.15934569831E+03  0.13387161973E+03  0.11552336824E+04  0.00000000000E+00 0. -1.
         -1    1    6    6    0  503  0.51852445924E+03 -0.54772183195E+01  0.66565428536E+02  0.52280835018E+03  0.00000000000E+00 0.  1.
<mgrwt>
<rscale>  0 0.38839539E+04</rscale>
<asrwt>0</asrwt>
<pdfrwt beam="1">  1        2 0.49471719E+00 0.38839539E+04</pdfrwt>
<pdfrwt beam="2">  1       -1 0.18042820E+00 0.38839539E+04</pdfrwt>
<totfact> 0.23634781E-01</totfact>
</mgrwt>
</event>
<event>
12    7  0.1909736E-007  0.1543998E+04  0.7818608E-02  0.8855710E-01
         -1   -1    0    0    0  501 -0.00000000000E+00  0.00000000000E+00  0.14341401453E+04  0.14341401453E+04  0.00000000000E+00 0.  1.
          2   -1    0    0  501    0  0.00000000000E+00 -0.00000000000E+00 -0.41556792434E+03  0.41556792434E+03  0.00000000000E+00 0. -1.
         24    2    1    2    0    0  0.72963291051E+02 -0.33770720443E+03  0.60836922313E+03  0.70433757293E+03  0.81292725546E+02 0.  0.
        254    2    1    2    0    0 -0.72963291051E+02  0.33770720443E+03  0.41020299781E+03  0.11453704967E+04  0.10120460847E+04 0.  0.
         23    2    4    4    0    0 -0.24525601272E+03  0.51985401938E+03  0.58578916283E+03  0.82565399066E+03  0.90315312979E+02 0.  0.
         23    2    4    4    0    0  0.17229272167E+03 -0.18214681496E+03 -0.17558616502E+03  0.31971650604E+03  0.92335793444E+02 0.  0.
          4    1    3    3  502    0 -0.62886533332E+01  0.53389822951E+00  0.47975256775E+01  0.79277021066E+01  0.00000000000E+00 0. -1.
         -3    1    3    3    0  502  0.79251944384E+02 -0.33824110266E+03  0.60357169745E+03  0.69640987082E+03  0.00000000000E+00 0.  1.
         13    1    5    5    0    0 -0.12805433462E+03  0.21190230831E+03  0.19979707927E+03  0.31814992340E+03  0.00000000000E+00 0.  1.
        -13    1    5    5    0    0 -0.11720167810E+03  0.30795171108E+03  0.38599208356E+03  0.50750406725E+03  0.00000000000E+00 0. -1.
          1    1    6    6  503    0  0.94228220550E+02 -0.82870511838E+02 -0.14104375544E+03  0.18878511655E+03  0.00000000000E+00 0. -1.
         -1    1    6    6    0  503  0.78064501118E+02 -0.99276303119E+02 -0.34542409575E+02  0.13093138949E+03  0.00000000000E+00 0.  1.
<mgrwt>
<rscale>  0 0.15439982E+04</rscale>
<asrwt>0</asrwt>
<pdfrwt beam="1">  1        2 0.63933527E-01 0.15439982E+04</pdfrwt>
<pdfrwt beam="2">  1       -1 0.22063694E+00 0.15439982E+04</pdfrwt>
<totfact> 0.91410243E+00</totfact>
</mgrwt>
</event>
<event>
12    7  0.1909736E-007  0.2324381E+04  0.7818608E-02  0.8468369E-01
          2   -1    0    0  501    0  0.00000000000E+00  0.00000000000E+00  0.16915089249E+04  0.16915089249E+04  0.00000000000E+00 0. -1.
         -1   -1    0    0    0  501 -0.00000000000E+00 -0.00000000000E+00 -0.79851020088E+03  0.79851020088E+03  0.00000000000E+00 0.  1.
         24    2    1    2    0    0  0.60477668717E+03 -0.77819958598E+03  0.36922404964E+03  0.10558146321E+04  0.84075571102E+02 0.  0.
        254    2    1    2    0    0 -0.60477668717E+03  0.77819958598E+03  0.52377467441E+03  0.14342044937E+04  0.90069594376E+03 0.  0.
         23    2    4    4    0    0 -0.20982367937E+03 -0.11614197536E+03 -0.95054672642E+02  0.27358221945E+03  0.91087348987E+02 0.  0.
         23    2    4    4    0    0 -0.39495300781E+03  0.89434156134E+03  0.61882934705E+03  0.11606222742E+04  0.90882318952E+02 0.  0.
          4    1    3    3  502    0  0.17376559307E+03 -0.24399363135E+03  0.73571673359E+02  0.30844799334E+03  0.00000000000E+00 0. -1.
         -3    1    3    3    0  502  0.43101109410E+03 -0.53420595463E+03  0.29565237628E+03  0.74736663881E+03  0.00000000000E+00 0.  1.
         13    1    5    5    0    0 -0.20209886219E+03 -0.12476155388E+03 -0.72658619468E+02  0.24837204032E+03  0.00000000000E+00 0.  1.
        -13    1    5    5    0    0 -0.77248171738E+01  0.86195785247E+01 -0.22396053174E+02  0.25210179136E+02  0.00000000000E+00 0. -1.
          3    1    6    6  503    0 -0.67695756514E+02  0.11365310132E+03  0.53483785810E+02  0.14268937674E+03  0.00000000000E+00 0. -1.
         -3    1    6    6    0  503 -0.32725725129E+03  0.78068846002E+03  0.56534556124E+03  0.10179328975E+04  0.00000000000E+00 0.  1.
<mgrwt>
<rscale>  0 0.23243813E+04</rscale>
<asrwt>0</asrwt>
<pdfrwt beam="1">  1        2 0.26023214E+00 0.23243813E+04</pdfrwt>
<pdfrwt beam="2">  1       -1 0.12284772E+00 0.23243813E+04</pdfrwt>
<totfact> 0.59683810E+00</totfact>
</mgrwt>
</event>
<event>
12    7  0.1909736E-007  0.1672925E+04  0.7818608E-02  0.8776959E-01
          2   -1    0    0  501    0  0.00000000000E+00  0.00000000000E+00  0.10085723013E+04  0.10085723013E+04  0.00000000000E+00 0. -1.
         -1   -1    0    0    0  501 -0.00000000000E+00 -0.00000000000E+00 -0.69372236606E+03  0.69372236606E+03  0.00000000000E+00 0.  1.
         24    2    1    2    0    0 -0.38533760238E+03 -0.29184027231E+02  0.57091349565E+03  0.69376577224E+03  0.77665642068E+02 0.  0.
        254    2    1    2    0    0  0.38533760238E+03  0.29184027231E+02 -0.25606356044E+03  0.10085288951E+04  0.89567025741E+03 0.  0.
         23    2    4    4    0    0 -0.20106104062E+03 -0.22324432660E+03 -0.17197011863E+03  0.35821393427E+03  0.92086533165E+02 0.  0.
         23    2    4    4    0    0  0.58639864300E+03  0.25242835383E+03 -0.84093441807E+02  0.65031496082E+03  0.90853723023E+02 0.  0.
          2    1    3    3  502    0 -0.34052225060E+03 -0.29421026129E+02  0.54086230858E+03  0.63980703089E+03  0.00000000000E+00 0. -1.
         -1    1    3    3    0  502 -0.44815351774E+02  0.23699889748E+00  0.30051187069E+02  0.53958741344E+02  0.00000000000E+00 0.  1.
         13    1    5    5    0    0 -0.20323653864E+03 -0.22319575117E+03 -0.17893850072E+03  0.35091369454E+03  0.00000000000E+00 0. -1.
        -13    1    5    5    0    0  0.21754980160E+01 -0.48575434193E-01  0.69683820903E+01  0.73002397322E+01  0.00000000000E+00 0.  1.
          4    1    6    6  503    0  0.16364013203E+03  0.40797342456E+02 -0.51876893323E+02  0.17644752201E+03  0.00000000000E+00 0.  1.
         -4    1    6    6    0  503  0.42275851096E+03  0.21163101138E+03 -0.32216548484E+02  0.47386743881E+03  0.00000000000E+00 0. -1.
<mgrwt>
<rscale>  0 0.16729246E+04</rscale>
<asrwt>0</asrwt>
<pdfrwt beam="1">  1        2 0.15516497E+00 0.16729246E+04</pdfrwt>
<pdfrwt beam="2">  1       -1 0.10672652E+00 0.16729246E+04</pdfrwt>
<totfact> 0.22177669E+01</totfact>
</mgrwt>
</event>
<event>
12    7  0.1909736E-007  0.1490845E+04  0.7818608E-02  0.8890564E-01
          2   -1    0    0  501    0  0.00000000000E+00  0.00000000000E+00  0.24277505494E+04  0.24277505494E+04  0.00000000000E+00 0. -1.
         -1   -1    0    0    0  501 -0.00000000000E+00 -0.00000000000E+00 -0.22887628988E+03  0.22887628988E+03  0.00000000000E+00 0.  1.
         24    2    1    2    0    0  0.43755123153E+03  0.16831417930E+03  0.87569175330E+03  0.99650873985E+03  0.80080450997E+02 0.  0.
        254    2    1    2    0    0 -0.43755123153E+03 -0.16831417930E+03  0.13231825062E+04  0.16601180995E+04  0.88622763224E+03 0.  0.
         23    2    4    4    0    0  0.11863254176E+01 -0.24364144899E+03  0.32049345604E+01  0.26422312493E+03  0.10218133445E+03 0.  0.
         23    2    4    4    0    0 -0.43873755694E+03  0.75327269693E+02  0.13199775717E+04  0.13958949745E+04  0.89538531991E+02 0.  0.
          2    1    3    3  502    0  0.28291287695E+02 -0.76819834001E+01  0.69178059414E+02  0.75133306414E+02  0.00000000000E+00 0. -1.
         -1    1    3    3    0  502  0.40925994383E+03  0.17599616270E+03  0.80651369389E+03  0.92137543344E+03  0.00000000000E+00 0.  1.
         13    1    5    5    0    0 -0.96811034531E+00  0.25351232240E+01 -0.16994539089E+02  0.17209835742E+02  0.00000000000E+00 0. -1.
        -13    1    5    5    0    0  0.21544357629E+01 -0.24617657222E+03  0.20199473650E+02  0.24701328919E+03  0.00000000000E+00 0.  1.
          3    1    6    6  503    0 -0.28278388362E+03  0.88057843191E+02  0.91494755114E+03  0.96169118220E+03  0.00000000000E+00 0.  1.
         -3    1    6    6    0  503 -0.15595367332E+03 -0.12730573498E+02  0.40503002055E+03  0.43420379232E+03  0.00000000000E+00 0. -1.
<mgrwt>
<rscale>  0 0.14908448E+04</rscale>
<asrwt>0</asrwt>
<pdfrwt beam="1">  1        2 0.37350007E+00 0.14908448E+04</pdfrwt>
<pdfrwt beam="2">  1       -1 0.35211739E-01 0.14908448E+04</pdfrwt>
<totfact> 0.32469227E+01</totfact>
</mgrwt>
</event>
<event>
12    7  0.1909736E-007  0.1848216E+04  0.7818608E-02  0.8681071E-01
         -1   -1    0    0    0  501 -0.00000000000E+00  0.00000000000E+00  0.26426579283E+03  0.26426579283E+03  0.00000000000E+00 0.  1.
          2   -1    0    0  501    0  0.00000000000E+00 -0.00000000000E+00 -0.32315043228E+04  0.32315043228E+04  0.00000000000E+00 0. -1.
         24    2    1    2    0    0 -0.55310800895E+03  0.23660559000E+03 -0.64564872605E+03  0.88619165014E+03  0.81010422507E+02 0.  0.
        254    2    1    2    0    0  0.55310800895E+03 -0.23660559000E+03 -0.23215898039E+04  0.26095784654E+04  0.10286932852E+04 0.  0.
         23    2    4    4    0    0  0.22762795496E+03 -0.62632527772E+03 -0.14108012522E+04  0.15629607458E+04  0.91587554290E+02 0.  0.
         23    2    4    4    0    0  0.32548005399E+03  0.38971968772E+03 -0.91078855164E+03  0.10466177197E+04  0.89744998750E+02 0.  0.
          2    1    3    3  502    0 -0.27024905344E+03  0.83108923663E+02 -0.26237922488E+03  0.38572594121E+03  0.00000000000E+00 0. -1.
         -1    1    3    3    0  502 -0.28285895551E+03  0.15349666634E+03 -0.38326950117E+03  0.50046570893E+03  0.00000000000E+00 0.  1.
         13    1    5    5    0    0  0.14945152414E+03 -0.36485213208E+03 -0.92960160206E+03  0.10097583745E+04  0.00000000000E+00 0.  1.
        -13    1    5    5    0    0  0.78176430824E+02 -0.26147314564E+03 -0.48119965018E+03  0.55320237125E+03  0.00000000000E+00 0. -1.
          2    1    6    6  503    0  0.23510104378E+03  0.23674249225E+03 -0.65629046327E+03  0.73623140425E+03  0.00000000000E+00 0. -1.
         -2    1    6    6    0  503  0.90379010208E+02  0.15297719547E+03 -0.25449808837E+03  0.31038631543E+03  0.00000000000E+00 0.  1.
<mgrwt>
<rscale>  0 0.18482165E+04</rscale>
<asrwt>0</asrwt>
<pdfrwt beam="1">  1        2 0.49715453E+00 0.18482165E+04</pdfrwt>
<pdfrwt beam="2">  1       -1 0.40656274E-01 0.18482165E+04</pdfrwt>
<totfact> 0.78662063E+00</totfact>
</mgrwt>
</event>
<event>
12    7  0.1909736E-007  0.1484672E+04  0.7818608E-02  0.8894710E-01
          2   -1    0    0  501    0  0.00000000000E+00  0.00000000000E+00  0.13295658621E+04  0.13295658621E+04  0.00000000000E+00 0. -1.
         -1   -1    0    0    0  501 -0.00000000000E+00 -0.00000000000E+00 -0.41446832549E+03  0.41446832549E+03  0.00000000000E+00 0.  1.
         24    2    1    2    0    0  0.13096845890E+03 -0.35632331819E+03 -0.34959257740E+02  0.38876778764E+03  0.76152470024E+02 0.  0.
        254    2    1    2    0    0 -0.13096845890E+03  0.35632331819E+03  0.95005679437E+03  0.13552664000E+04  0.88883072519E+03 0.  0.
         23    2    4    4    0    0 -0.17863923257E+03 -0.14155438662E+03 -0.33401918623E+02  0.24818115359E+03  0.92350295323E+02 0.  0.
         23    2    4    4    0    0  0.47670773667E+02  0.49787770481E+03  0.98345871299E+03  0.11070852464E+04  0.91060369918E+02 0.  0.
          4    1    3    3  502    0  0.37518593143E+02 -0.30906487338E+02 -0.55057418038E+01  0.48920026409E+02  0.00000000000E+00 0. -1.
         -3    1    3    3    0  502  0.93449865760E+02 -0.32541683085E+03 -0.29453515937E+02  0.33984776123E+03  0.00000000000E+00 0.  1.
         13    1    5    5    0    0 -0.15007798053E+03 -0.89343515524E+02  0.93434835988E+01  0.17490844660E+03  0.00000000000E+00 0.  1.
        -13    1    5    5    0    0 -0.28561252036E+02 -0.52210871094E+02 -0.42745402222E+02  0.73272706988E+02  0.00000000000E+00 0. -1.
          4    1    6    6  503    0 -0.89773969279E+01  0.62296557407E+01  0.90054237052E+01  0.14159799517E+02  0.00000000000E+00 0. -1.
         -4    1    6    6    0  503  0.56648170595E+02  0.49164804907E+03  0.97445328929E+03  0.10929254469E+04  0.00000000000E+00 0.  1.
<mgrwt>
<rscale>  0 0.14846723E+04</rscale>
<asrwt>0</asrwt>
<pdfrwt beam="1">  1        2 0.20454859E+00 0.14846723E+04</pdfrwt>
<pdfrwt beam="2">  1       -1 0.63764358E-01 0.14846723E+04</pdfrwt>
<totfact> 0.43698484E+01</totfact>
</mgrwt>
</event>
<event>
12    7  0.1909736E-007  0.1440871E+04  0.7818608E-02  0.8924754E-01
          2   -1    0    0  501    0  0.00000000000E+00  0.00000000000E+00  0.44685984645E+03  0.44685984645E+03  0.00000000000E+00 0. -1.
         -3   -1    0    0    0  501 -0.00000000000E+00 -0.00000000000E+00 -0.11614986959E+04  0.11614986959E+04  0.00000000000E+00 0.  1.
         24    2    1    2    0    0  0.10376683249E+03 -0.27979016120E+03 -0.57791847057E+03  0.65528871652E+03  0.79771257613E+02 0.  0.
        254    2    1    2    0    0 -0.10376683249E+03  0.27979016120E+03 -0.13672037884E+03  0.95306982580E+03  0.89476228185E+03 0.  0.
         23    2    4    4    0    0  0.22985052989E+03  0.47924067181E+03 -0.31341650916E+02  0.54010776088E+03  0.90725997762E+02 0.  0.
         23    2    4    4    0    0 -0.33361736238E+03 -0.19945051061E+03 -0.10537872793E+03  0.41296206492E+03  0.91388949563E+02 0.  0.
          4    1    3    3  502    0  0.13684379952E+02 -0.21762349148E+02 -0.15594068425E+02  0.30067209135E+02  0.00000000000E+00 0. -1.
         -3    1    3    3    0  502  0.90082452541E+02 -0.25802781205E+03 -0.56232440215E+03  0.62522150739E+03  0.00000000000E+00 0.  1.
         13    1    5    5    0    0  0.23361391193E+03  0.44133746433E+03 -0.17761093374E+02  0.49966956452E+03  0.00000000000E+00 0.  1.
        -13    1    5    5    0    0 -0.37633820387E+01  0.37903207478E+02 -0.13580557542E+02  0.40438196357E+02  0.00000000000E+00 0. -1.
          2    1    6    6  503    0 -0.99613641238E+02 -0.38273172638E+02  0.80528616287E+01  0.10701664284E+03  0.00000000000E+00 0. -1.
         -2    1    6    6    0  503 -0.23400372114E+03 -0.16117733797E+03 -0.11343158956E+03  0.30594542208E+03  0.00000000000E+00 0.  1.
<mgrwt>
<rscale>  0 0.14408707E+04</rscale>
<asrwt>0</asrwt>
<pdfrwt beam="1">  1        2 0.68747670E-01 0.14408707E+04</pdfrwt>
<pdfrwt beam="2">  1       -3 0.17869210E+00 0.14408707E+04</pdfrwt>
<totfact> 0.85873904E+00</totfact>
</mgrwt>
</event>
<event>
12    7  0.1909736E-007  0.2208298E+04  0.7818608E-02  0.8514982E-01
          2   -1    0    0  501    0  0.00000000000E+00  0.00000000000E+00  0.11090045604E+04  0.11090045604E+04  0.00000000000E+00 0. -1.
         -1   -1    0    0    0  501 -0.00000000000E+00 -0.00000000000E+00 -0.10993149558E+04  0.10993149558E+04  0.00000000000E+00 0.  1.
         24    2    1    2    0    0 -0.36484618190E+03 -0.52621370188E+03 -0.65952017918E+03  0.92268822763E+03  0.79831711573E+02 0.  0.
        254    2    1    2    0    0  0.36484618190E+03  0.52621370188E+03  0.66920978371E+03  0.12856312885E+04  0.89162350741E+03 0.  0.
         23    2    4    4    0    0  0.35548215441E+03  0.43568896236E+03  0.87406198745E+03  0.10432920615E+04  0.91002931963E+02 0.  0.
         23    2    4    4    0    0  0.93640274998E+01  0.90524739521E+02 -0.20485220374E+03  0.24233922706E+03  0.92094853911E+02 0.  0.
          2    1    3    3  502    0 -0.37220796210E+02 -0.62606490490E+02 -0.11462280240E+03  0.13580628539E+03  0.00000000000E+00 0. -1.
         -1    1    3    3    0  502 -0.32762538569E+03 -0.46360721139E+03 -0.54489737678E+03  0.78688194224E+03  0.00000000000E+00 0.  1.
         13    1    5    5    0    0  0.23648612730E+03  0.21985432554E+03  0.51144556952E+03  0.60484558645E+03  0.00000000000E+00 0. -1.
        -13    1    5    5    0    0  0.11899602710E+03  0.21583463682E+03  0.36261641793E+03  0.43844647504E+03  0.00000000000E+00 0.  1.
          4    1    6    6  503    0 -0.24236095797E+02  0.29997534371E+01 -0.10552634306E+02  0.26603476295E+02  0.00000000000E+00 0. -1.
         -4    1    6    6    0  503  0.33600123297E+02  0.87524986084E+02 -0.19429956944E+03  0.21573575076E+03  0.00000000000E+00 0.  1.
<mgrwt>
<rscale>  0 0.22082983E+04</rscale>
<asrwt>0</asrwt>
<pdfrwt beam="1">  1        2 0.17061609E+00 0.22082983E+04</pdfrwt>
<pdfrwt beam="2">  1       -1 0.16912538E+00 0.22082983E+04</pdfrwt>
<totfact> 0.55947480E+00</totfact>
</mgrwt>
</event>
<event>
12    7  0.1909736E-007  0.1270631E+04  0.7818608E-02  0.9053185E-01
          2   -1    0    0  501    0  0.00000000000E+00  0.00000000000E+00  0.57690057603E+03  0.57690057603E+03  0.00000000000E+00 0. -1.
         -1   -1    0    0    0  501 -0.00000000000E+00 -0.00000000000E+00 -0.69964533983E+03  0.69964533983E+03  0.00000000000E+00 0.  1.
         24    2    1    2    0    0 -0.24470491534E+02  0.17329718685E+03 -0.34001841195E+03  0.39034512932E+03  0.78269276145E+02 0.  0.
        254    2    1    2    0    0  0.24470491534E+02 -0.17329718685E+03  0.21727364815E+03  0.88620078654E+03  0.84113808376E+03 0.  0.
         23    2    4    4    0    0  0.34542740796E+03  0.58848177859E+02 -0.93519568677E+02  0.37405386318E+03  0.91581551794E+02 0.  0.
         23    2    4    4    0    0 -0.32095691643E+03 -0.23214536471E+03  0.31079321682E+03  0.51214692336E+03  0.93793576107E+02 0.  0.
          4    1    3    3  502    0 -0.25991511281E+02  0.77655869069E+02 -0.85240410081E+02  0.11820287717E+03  0.00000000000E+00 0. -1.
         -3    1    3    3    0  502  0.15210197467E+01  0.95641317782E+02 -0.25477800187E+03  0.27214225215E+03  0.00000000000E+00 0.  1.
         13    1    5    5    0    0  0.13561465770E+03  0.33096317552E+02 -0.82998041825E+02  0.16240497704E+03  0.00000000000E+00 0.  1.
        -13    1    5    5    0    0  0.20981275026E+03  0.25751860307E+02 -0.10521526852E+02  0.21164888615E+03  0.00000000000E+00 0. -1.
          2    1    6    6  503    0 -0.31975286941E+03 -0.20486007719E+03  0.29050585122E+03  0.47812466818E+03  0.00000000000E+00 0. -1.
         -2    1    6    6    0  503 -0.12040470128E+01 -0.27285287522E+02  0.20287365602E+02  0.34022255178E+02  0.00000000000E+00 0.  1.
<mgrwt>
<rscale>  0 0.12706310E+04</rscale>
<asrwt>0</asrwt>
<pdfrwt beam="1">  1        2 0.88753935E-01 0.12706310E+04</pdfrwt>
<pdfrwt beam="2">  1       -1 0.10763774E+00 0.12706310E+04</pdfrwt>
<totfact> 0.46915995E+01</totfact>
</mgrwt>
</event>
<event>
12    7  0.1909736E-007  0.4580615E+04  0.7818608E-02  0.7896674E-01
         -1   -1    0    0    0  501 -0.00000000000E+00  0.00000000000E+00  0.21498553344E+04  0.21498553344E+04  0.00000000000E+00 0.  1.
          2   -1    0    0  501    0  0.00000000000E+00 -0.00000000000E+00 -0.24399351996E+04  0.24399351996E+04  0.00000000000E+00 0. -1.
         24    2    1    2    0    0  0.19096297905E+04  0.91578715181E+03 -0.70653021412E+03  0.22339205235E+04  0.76576222339E+02 0.  0.
        254    2    1    2    0    0 -0.19096297905E+04 -0.91578715181E+03  0.41645034892E+03  0.23558700105E+04  0.94410834621E+03 0.  0.
         23    2    4    4    0    0 -0.13178881948E+03 -0.42318532040E+03 -0.35570905550E+02  0.45422778819E+03  0.92754977772E+02 0.  0.
         23    2    4    4    0    0 -0.17778409710E+04 -0.49260183141E+03  0.45202125447E+03  0.19016422224E+04  0.92438330215E+02 0.  0.
          2    1    3    3  502    0  0.19578698686E+03  0.68708098597E+02 -0.68103430599E+02  0.21838366307E+03  0.00000000000E+00 0. -1.
         -1    1    3    3    0  502  0.17138428036E+04  0.84707905321E+03 -0.63842678352E+03  0.20155368604E+04  0.00000000000E+00 0.  1.
         13    1    5    5    0    0 -0.13324769501E+03 -0.42768599412E+03 -0.34034607062E+02  0.44925339427E+03  0.00000000000E+00 0.  1.
        -13    1    5    5    0    0  0.14588755343E+01  0.45006737198E+01 -0.15362984877E+01  0.49743939128E+01  0.00000000000E+00 0. -1.
          4    1    6    6  503    0 -0.12540991074E+04 -0.39093620129E+03  0.32055782904E+03  0.13521660424E+04  0.00000000000E+00 0. -1.
         -4    1    6    6    0  503 -0.52374186363E+03 -0.10166563012E+03  0.13146342543E+03  0.54947617991E+03  0.00000000000E+00 0.  1.
<mgrwt>
<rscale>  0 0.45806147E+04</rscale>
<asrwt>0</asrwt>
<pdfrwt beam="1">  1        2 0.37537464E+00 0.45806147E+04</pdfrwt>
<pdfrwt beam="2">  1       -1 0.33074698E+00 0.45806147E+04</pdfrwt>
<totfact> 0.67201422E-02</totfact>
</mgrwt>
</event>
<event>
12    7  0.1909736E-007  0.4180175E+04  0.7818608E-02  0.7969154E-01
          2   -1    0    0  501    0  0.00000000000E+00  0.00000000000E+00  0.39755866002E+04  0.39755866002E+04  0.00000000000E+00 0. -1.
         -1   -1    0    0    0  501 -0.00000000000E+00 -0.00000000000E+00 -0.10988230005E+04  0.10988230005E+04  0.00000000000E+00 0.  1.
         24    2    1    2    0    0 -0.18814664207E+04  0.46188897191E+02  0.57608501943E+03  0.19698624430E+04  0.80217131982E+02 0.  0.
        254    2    1    2    0    0  0.18814664207E+04 -0.46188897191E+02  0.23006785802E+04  0.31045471577E+04  0.89612600569E+03 0.  0.
         23    2    4    4    0    0  0.44035574986E+03 -0.39463592290E+03  0.70772702698E+03  0.92650982046E+03  0.88838080877E+02 0.  0.
         23    2    4    4    0    0  0.14411106708E+04  0.34844702571E+03  0.15929515533E+04  0.21780373372E+04  0.90203635322E+02 0.  0.
          2    1    3    3  502    0 -0.56875959712E+03 -0.12460118917E+02  0.14731160860E+03  0.58765929237E+03  0.00000000000E+00 0. -1.
         -1    1    3    3    0  502 -0.13127068236E+04  0.58649016108E+02  0.42877341083E+03  0.13822031506E+04  0.00000000000E+00 0.  1.
         13    1    5    5    0    0  0.15600162419E+03 -0.86672587259E+02  0.22542518737E+03  0.28751549390E+03  0.00000000000E+00 0.  1.
        -13    1    5    5    0    0  0.28435412567E+03 -0.30796333565E+03  0.48230183961E+03  0.63899432656E+03  0.00000000000E+00 0. -1.
          3    1    6    6  503    0  0.91033014093E+03  0.17876083786E+03  0.10201256990E+04  0.13788810117E+04  0.00000000000E+00 0. -1.
         -3    1    6    6    0  503  0.53078052992E+03  0.16968618785E+03  0.57282585426E+03  0.79915632550E+03  0.00000000000E+00 0.  1.
<mgrwt>
<rscale>  0 0.41801751E+04</rscale>
<asrwt>0</asrwt>
<pdfrwt beam="1">  1        2 0.61162870E+00 0.41801751E+04</pdfrwt>
<pdfrwt beam="2">  1       -1 0.16904969E+00 0.41801751E+04</pdfrwt>
<totfact> 0.78658779E-02</totfact>
</mgrwt>
</event>
<event>
12    7  0.1909736E-007  0.2159127E+04  0.7818608E-02  0.8535636E-01
          2   -1    0    0  501    0  0.00000000000E+00  0.00000000000E+00  0.24768798104E+04  0.24768798104E+04  0.00000000000E+00 0. -1.
         -3   -1    0    0    0  501 -0.00000000000E+00 -0.00000000000E+00 -0.47053442253E+03  0.47053442253E+03  0.00000000000E+00 0.  1.
         24    2    1    2    0    0  0.52255754269E+03 -0.36867899511E+03  0.16102313207E+04  0.17339339251E+04  0.68493529155E+02 0.  0.
        254    2    1    2    0    0 -0.52255754269E+03  0.36867899511E+03  0.39611406721E+03  0.12134803079E+04  0.95217515011E+03 0.  0.
         23    2    4    4    0    0 -0.29983346295E+03  0.57364322430E+03  0.55511911712E+03  0.85757898080E+03  0.91202082412E+02 0.  0.
         23    2    4    4    0    0 -0.22272407974E+03 -0.20496422919E+03 -0.15900504991E+03  0.35590132707E+03  0.98827110506E+02 0.  0.
          4    1    3    3  502    0  0.48151446004E+03 -0.35393998221E+03  0.14620332594E+04  0.15794527336E+04  0.00000000000E+00 0. -1.
         -3    1    3    3    0  502  0.41043082653E+02 -0.14739012900E+02  0.14819806129E+03  0.15448119143E+03  0.00000000000E+00 0.  1.
         13    1    5    5    0    0 -0.28061727542E+03  0.47855299529E+03  0.44805819733E+03  0.71310249808E+03  0.00000000000E+00 0.  1.
        -13    1    5    5    0    0 -0.19216187532E+02  0.95090229008E+02  0.10706091978E+03  0.14447648272E+03  0.00000000000E+00 0. -1.
          4    1    6    6  503    0 -0.48053992905E+02  0.10329910864E+01 -0.18961614340E+02  0.51670069896E+02  0.00000000000E+00 0. -1.
         -4    1    6    6    0  503 -0.17467008684E+03 -0.20599722027E+03 -0.14004343557E+03  0.30423125718E+03  0.00000000000E+00 0.  1.
<mgrwt>
<rscale>  0 0.21591269E+04</rscale>
<asrwt>0</asrwt>
<pdfrwt beam="1">  1        2 0.38105842E+00 0.21591269E+04</pdfrwt>
<pdfrwt beam="2">  1       -3 0.72389913E-01 0.21591269E+04</pdfrwt>
<totfact> 0.38302178E+00</totfact>
</mgrwt>
</event>
<event>
12    7  0.1909736E-007  0.3183244E+04  0.7818608E-02  0.8193257E-01
         -1   -1    0    0    0  501 -0.00000000000E+00  0.00000000000E+00  0.97216257655E+03  0.97216257655E+03  0.00000000000E+00 0.  1.
          2   -1    0    0  501    0  0.00000000000E+00 -0.00000000000E+00 -0.26057989983E+04  0.26057989983E+04  0.00000000000E+00 0. -1.
         24    2    1    2    0    0  0.10532655269E+04 -0.98422716546E+03 -0.10131228703E+04  0.17637600659E+04  0.79751089171E+02 0.  0.
        254    2    1    2    0    0 -0.10532655269E+04  0.98422716546E+03 -0.62051355142E+03  0.18142015090E+04  0.91006519777E+03 0.  0.
         23    2    4    4    0    0 -0.23676604545E+02 -0.24435481008E+01  0.16153869488E+03  0.18530695093E+03  0.87620566020E+02 0.  0.
         23    2    4    4    0    0 -0.10295889224E+04  0.98667071356E+03 -0.78205224630E+03  0.16288945580E+04  0.90107264784E+02 0.  0.
          2    1    3    3  502    0  0.49236036767E+03 -0.42331639742E+03 -0.42043805209E+03  0.77355262239E+03  0.00000000000E+00 0. -1.
         -1    1    3    3    0  502  0.56090515923E+03 -0.56091076805E+03 -0.59268481820E+03  0.99020744346E+03  0.00000000000E+00 0.  1.
         13    1    5    5    0    0 -0.89042315175E+01  0.38531650789E+02  0.40218746266E+02  0.56404973209E+02  0.00000000000E+00 0. -1.
        -13    1    5    5    0    0 -0.14772373028E+02 -0.40975198890E+02  0.12131994862E+03  0.12890197772E+03  0.00000000000E+00 0.  1.
          4    1    6    6  503    0 -0.29066920657E+03  0.33342364745E+03 -0.25685029584E+03  0.51149974662E+03  0.00000000000E+00 0. -1.
         -4    1    6    6    0  503 -0.73891971579E+03  0.65324706612E+03 -0.52520195046E+03  0.11173948114E+04  0.00000000000E+00 0.  1.
<mgrwt>
<rscale>  0 0.31832438E+04</rscale>
<asrwt>0</asrwt>
<pdfrwt beam="1">  1        2 0.40089215E+00 0.31832438E+04</pdfrwt>
<pdfrwt beam="2">  1       -1 0.14956347E+00 0.31832438E+04</pdfrwt>
<totfact> 0.10170862E+00</totfact>
</mgrwt>
</event>
<event>
12    7  0.1909736E-007  0.1171390E+04  0.7818608E-02  0.9138274E-01
          2   -1    0    0  501    0  0.00000000000E+00  0.00000000000E+00  0.21006511522E+04  0.21006511522E+04  0.00000000000E+00 0. -1.
         -1   -1    0    0    0  501 -0.00000000000E+00 -0.00000000000E+00 -0.16330113964E+03  0.16330113964E+03  0.00000000000E+00 0.  1.
         24    2    1    2    0    0  0.88471599495E+02  0.20789732492E+03  0.29238917639E+03  0.37797572098E+03  0.79534228798E+02 0.  0.
        254    2    1    2    0    0 -0.88471599495E+02 -0.20789732492E+03  0.16449608361E+04  0.18859765708E+04  0.89440648012E+03 0.  0.
         23    2    4    4    0    0  0.31154702497E+03  0.10614605381E+03  0.33716748469E+03  0.47977981258E+03  0.90433524326E+02 0.  0.
         23    2    4    4    0    0 -0.40001862447E+03 -0.31404337873E+03  0.13077933514E+04  0.14061967582E+04  0.91802664375E+02 0.  0.
          4    1    3    3  502    0 -0.24776844879E+01  0.87924483137E+02  0.91339283780E+02  0.12680582958E+03  0.00000000000E+00 0. -1.
         -3    1    3    3    0  502  0.90949283983E+02  0.11997284179E+03  0.20104989261E+03  0.25116989139E+03  0.00000000000E+00 0.  1.
         13    1    5    5    0    0  0.35318315322E+02  0.40879292344E+02  0.81473220684E+02  0.97756767686E+02  0.00000000000E+00 0. -1.
        -13    1    5    5    0    0  0.27622870965E+03  0.65266761463E+02  0.25569426400E+03  0.38202304489E+03  0.00000000000E+00 0.  1.
          1    1    6    6  503    0  0.32251794120E+01 -0.13398067821E+02  0.32971922519E+02  0.35735943785E+02  0.00000000000E+00 0. -1.
         -1    1    6    6    0  503 -0.40324380388E+03 -0.30064531091E+03  0.12748214289E+04  0.13704608145E+04  0.00000000000E+00 0.  1.
<mgrwt>
<rscale>  0 0.11713902E+04</rscale>
<asrwt>0</asrwt>
<pdfrwt beam="1">  1        2 0.32317708E+00 0.11713902E+04</pdfrwt>
<pdfrwt beam="2">  1       -1 0.25123254E-01 0.11713902E+04</pdfrwt>
<totfact> 0.92042437E+01</totfact>
</mgrwt>
</event>
<event>
12    7  0.1909736E-007  0.1912713E+04  0.7818608E-02  0.8648554E-01
          2   -1    0    0  501    0  0.00000000000E+00  0.00000000000E+00  0.95257545043E+03  0.95257545043E+03  0.00000000000E+00 0. -1.
         -1   -1    0    0    0  501 -0.00000000000E+00 -0.00000000000E+00 -0.96015243308E+03  0.96015243308E+03  0.00000000000E+00 0.  1.
         24    2    1    2    0    0  0.14614630467E+03 -0.42470437666E+03 -0.59503511008E+03  0.74967130893E+03  0.78789207895E+02 0.  0.
        254    2    1    2    0    0 -0.14614630467E+03  0.42470437666E+03  0.58745812742E+03  0.11630565746E+04  0.89769760736E+03 0.  0.
         23    2    4    4    0    0 -0.24828187911E+03  0.43242832285E+03 -0.51406056747E+02  0.50961154014E+03  0.91777956342E+02 0.  0.
         23    2    4    4    0    0  0.10213557443E+03 -0.77239461879E+01  0.63886418417E+03  0.65344503444E+03  0.91387265612E+02 0.  0.
          4    1    3    3  502    0  0.43397614518E+02 -0.14182156876E+03 -0.13894521229E+03  0.20323012161E+03  0.00000000000E+00 0. -1.
         -3    1    3    3    0  502  0.10274869016E+03 -0.28288280791E+03 -0.45608989779E+03  0.54644118732E+03  0.00000000000E+00 0.  1.
         13    1    5    5    0    0 -0.72398583079E+02  0.12802589168E+03 -0.57703375900E+02  0.15799323835E+03  0.00000000000E+00 0. -1.
        -13    1    5    5    0    0 -0.17588329603E+03  0.30440243117E+03  0.62973191529E+01  0.35161830179E+03  0.00000000000E+00 0.  1.
          4    1    6    6  503    0  0.23472989693E+01  0.18157615382E+02  0.25013801581E+02  0.30998372188E+02  0.00000000000E+00 0. -1.
         -4    1    6    6    0  503  0.99788275464E+02 -0.25881561570E+02  0.61385038259E+03  0.62244666225E+03  0.00000000000E+00 0.  1.
<mgrwt>
<rscale>  0 0.19127129E+04</rscale>
<asrwt>0</asrwt>
<pdfrwt beam="1">  1        2 0.14655007E+00 0.19127129E+04</pdfrwt>
<pdfrwt beam="2">  1       -1 0.14771576E+00 0.19127129E+04</pdfrwt>
<totfact> 0.10497413E+01</totfact>
</mgrwt>
</event>
<event>
12    7  0.1909736E-007  0.1700060E+04  0.7818608E-02  0.8761330E-01
          2   -1    0    0  501    0  0.00000000000E+00  0.00000000000E+00  0.12379404023E+04  0.12379404023E+04  0.00000000000E+00 0. -1.
         -1   -1    0    0    0  501 -0.00000000000E+00 -0.00000000000E+00 -0.58367170152E+03  0.58367170152E+03  0.00000000000E+00 0.  1.
         24    2    1    2    0    0 -0.15580292978E+03 -0.11086884255E+03  0.85393613072E+03  0.87869982241E+03  0.79624175745E+02 0.  0.
        254    2    1    2    0    0  0.15580292978E+03  0.11086884255E+03 -0.19966742993E+03  0.94291228143E+03  0.90147103931E+03 0.  0.
         23    2    4    4    0    0 -0.20113009521E+03 -0.29653981048E+03 -0.98177691923E+02  0.38442680872E+03  0.98772150284E+02 0.  0.
         23    2    4    4    0    0  0.35693302499E+03  0.40740865303E+03 -0.10148973801E+03  0.55848547271E+03  0.90679994617E+02 0.  0.
          2    1    3    3  502    0 -0.13855608093E+03 -0.68432807124E+02  0.54871413383E+03  0.57005967874E+03  0.00000000000E+00 0. -1.
         -1    1    3    3    0  502 -0.17246848853E+02 -0.42436035422E+02  0.30522199689E+03  0.30864014367E+03  0.00000000000E+00 0.  1.
         13    1    5    5    0    0 -0.15247968800E+03 -0.27931977919E+03 -0.70812083003E+02  0.32601218597E+03  0.00000000000E+00 0.  1.
        -13    1    5    5    0    0 -0.48650407212E+02 -0.17220031285E+02 -0.27365608921E+02  0.58414622749E+02  0.00000000000E+00 0. -1.
          2    1    6    6  503    0  0.31928460926E+03  0.31225365660E+03 -0.75823703715E+02  0.45298371032E+03  0.00000000000E+00 0. -1.
         -2    1    6    6    0  503  0.37648415728E+02  0.95154996430E+02 -0.25666034294E+02  0.10550176240E+03  0.00000000000E+00 0.  1.
<mgrwt>
<rscale>  0 0.17000597E+04</rscale>
<asrwt>0</asrwt>
<pdfrwt beam="1">  1        2 0.19045237E+00 0.17000597E+04</pdfrwt>
<pdfrwt beam="2">  1       -1 0.89795647E-01 0.17000597E+04</pdfrwt>
<totfact> 0.23685097E+01</totfact>
</mgrwt>
</event>
<event>
12    7  0.1909736E-007  0.1949065E+04  0.7818608E-02  0.8630812E-01
         -1   -1    0    0    0  501 -0.00000000000E+00  0.00000000000E+00  0.43854592065E+03  0.43854592065E+03  0.00000000000E+00 0.  1.
          2   -1    0    0  501    0  0.00000000000E+00 -0.00000000000E+00 -0.21655961466E+04  0.21655961466E+04  0.00000000000E+00 0. -1.
         24    2    1    2    0    0  0.40787086358E+03 -0.91592939592E+02 -0.15249494012E+04  0.15830816133E+04  0.76998768148E+02 0.  0.
        254    2    1    2    0    0 -0.40787086358E+03  0.91592939592E+02 -0.20210082478E+03  0.10210604539E+04  0.90937989822E+03 0.  0.
         23    2    4    4    0    0  0.21107661859E+03  0.35092328412E+02 -0.30551317343E+03  0.38435624954E+03  0.92771854518E+02 0.  0.
         23    2    4    4    0    0 -0.61894748216E+03  0.56500611179E+02  0.10341234865E+03  0.63670420441E+03  0.91705099721E+02 0.  0.
          2    1    3    3  502    0  0.33911742241E+03 -0.65567919112E+02 -0.13462402061E+04  0.13898426065E+04  0.00000000000E+00 0. -1.
         -1    1    3    3    0  502  0.68753441166E+02 -0.26025020479E+02 -0.17870919508E+03  0.19323900686E+03  0.00000000000E+00 0.  1.
         13    1    5    5    0    0  0.69877684581E+02  0.45067620849E+02 -0.66076315075E+02  0.10620762998E+03  0.00000000000E+00 0. -1.
        -13    1    5    5    0    0  0.14119893400E+03 -0.99752924369E+01 -0.23943685836E+03  0.27814861956E+03  0.00000000000E+00 0.  1.
          4    1    6    6  503    0 -0.37652176875E+03  0.78754352765E+02  0.69762739851E+02  0.39094466398E+03  0.00000000000E+00 0. -1.
         -4    1    6    6    0  503 -0.24242571342E+03 -0.22253741586E+02  0.33649608802E+02  0.24575954043E+03  0.00000000000E+00 0.  1.
<mgrwt>
<rscale>  0 0.19490648E+04</rscale>
<asrwt>0</asrwt>
<pdfrwt beam="1">  1        2 0.33316864E+00 0.19490648E+04</pdfrwt>
<pdfrwt beam="2">  1       -1 0.67468603E-01 0.19490648E+04</pdfrwt>
<totfact> 0.12759140E+01</totfact>
</mgrwt>
</event>
<event>
12    7  0.1909736E-007  0.1356016E+04  0.7818608E-02  0.8986286E-01
         -1   -1    0    0    0  501 -0.00000000000E+00  0.00000000000E+00  0.19967849300E+03  0.19967849300E+03  0.00000000000E+00 0.  1.
          2   -1    0    0  501    0  0.00000000000E+00 -0.00000000000E+00 -0.23021754069E+04  0.23021754069E+04  0.00000000000E+00 0. -1.
         24    2    1    2    0    0 -0.34712944587E+03 -0.75664866202E+02 -0.77347310021E+03  0.85511274228E+03  0.82055719438E+02 0.  0.
        254    2    1    2    0    0  0.34712944587E+03  0.75664866202E+02 -0.13290238137E+04  0.16467411576E+04  0.90511221331E+03 0.  0.
         23    2    4    4    0    0  0.33065125989E+02 -0.12439867854E+02 -0.13038649359E+04  0.13073973651E+04  0.89308713108E+02 0.  0.
         23    2    4    4    0    0  0.31406431988E+03  0.88104734056E+02 -0.25158877817E+02  0.33934379258E+03  0.90124354348E+02 0.  0.
          2    1    3    3  502    0 -0.32816769440E+03 -0.55031514367E+02 -0.67243925687E+03  0.75026465824E+03  0.00000000000E+00 0. -1.
         -1    1    3    3    0  502 -0.18961751464E+02 -0.20633351834E+02 -0.10103384334E+03  0.10484808404E+03  0.00000000000E+00 0.  1.
         13    1    5    5    0    0 -0.52383820306E+01 -0.33405397229E+02 -0.98223216021E+03  0.98281400975E+03  0.00000000000E+00 0.  1.
        -13    1    5    5    0    0  0.38303508019E+02  0.20965529375E+02 -0.32163277569E+03  0.32458335532E+03  0.00000000000E+00 0. -1.
          1    1    6    6  503    0  0.24428298119E+02  0.35547897672E+02  0.50729777698E+01  0.43429596836E+02  0.00000000000E+00 0. -1.
         -1    1    6    6    0  503  0.28963602176E+03  0.52556836384E+02 -0.30231855587E+02  0.29591419575E+03  0.00000000000E+00 0.  1.
<mgrwt>
<rscale>  0 0.13560161E+04</rscale>
<asrwt>0</asrwt>
<pdfrwt beam="1">  1        2 0.35418082E+00 0.13560161E+04</pdfrwt>
<pdfrwt beam="2">  1       -1 0.30719769E-01 0.13560161E+04</pdfrwt>
<totfact> 0.49322893E+01</totfact>
</mgrwt>
</event>
<event>
12    7  0.1909736E-007  0.1265373E+04  0.7818608E-02  0.9057485E-01
          2   -1    0    0  501    0  0.00000000000E+00  0.00000000000E+00  0.12738561616E+04  0.12738561616E+04  0.00000000000E+00 0. -1.
         -1   -1    0    0    0  501 -0.00000000000E+00 -0.00000000000E+00 -0.31423633943E+03  0.31423633943E+03  0.00000000000E+00 0.  1.
         24    2    1    2    0    0 -0.29901379209E+03 -0.73352845426E+01  0.26930703861E+03  0.40995382034E+03  0.77928168919E+02 0.  0.
        254    2    1    2    0    0  0.29901379209E+03  0.73352845426E+01  0.69031278353E+03  0.11781386807E+04  0.90665095681E+03 0.  0.
         23    2    4    4    0    0  0.10090768922E+03  0.26867912456E+03  0.77150892132E+03  0.82827610732E+03  0.91893746085E+02 0.  0.
         23    2    4    4    0    0  0.19810610286E+03 -0.26134384002E+03 -0.81196137787E+02  0.34986257333E+03  0.90908617384E+02 0.  0.
          4    1    3    3  502    0 -0.53178529343E+02 -0.52179746335E+01  0.93586591803E+02  0.10776656906E+03  0.00000000000E+00 0. -1.
         -3    1    3    3    0  502 -0.24583526274E+03 -0.21173099091E+01  0.17572044680E+03  0.30218725128E+03  0.00000000000E+00 0.  1.
         13    1    5    5    0    0  0.10099035797E+03  0.23189444420E+03  0.57231872635E+03  0.62571783591E+03  0.00000000000E+00 0. -1.
        -13    1    5    5    0    0 -0.82668752172E-01  0.36784680365E+02  0.19919019497E+03  0.20255827141E+03  0.00000000000E+00 0.  1.
          1    1    6    6  503    0  0.13712694162E+03 -0.22662178426E+03 -0.88591570299E+02  0.27930216173E+03  0.00000000000E+00 0. -1.
         -1    1    6    6    0  503  0.60979161248E+02 -0.34722055757E+02  0.73954325120E+01  0.70560411596E+02  0.00000000000E+00 0.  1.
<mgrwt>
<rscale>  0 0.12653725E+04</rscale>
<asrwt>0</asrwt>
<pdfrwt beam="1">  1        2 0.19597787E+00 0.12653725E+04</pdfrwt>
<pdfrwt beam="2">  1       -1 0.48344053E-01 0.12653725E+04</pdfrwt>
<totfact> 0.82042605E+01</totfact>
</mgrwt>
</event>
<event>
12    7  0.1909736E-007  0.3134174E+04  0.7818608E-02  0.8206421E-01
          2   -1    0    0  501    0  0.00000000000E+00  0.00000000000E+00  0.24005580827E+04  0.24005580827E+04  0.00000000000E+00 0. -1.
         -1   -1    0    0    0  501 -0.00000000000E+00 -0.00000000000E+00 -0.10229962409E+04  0.10229962409E+04  0.00000000000E+00 0.  1.
         24    2    1    2    0    0  0.47530772144E+02 -0.88011185745E+03 -0.60389466973E+03  0.10713006037E+04  0.78359144541E+02 0.  0.
        254    2    1    2    0    0 -0.47530772144E+02  0.88011185745E+03  0.19814565116E+04  0.23522537198E+04  0.91108265224E+03 0.  0.
         23    2    4    4    0    0 -0.37197468746E+03  0.96125697607E+02  0.82950352022E+03  0.91867104655E+03  0.90967487957E+02 0.  0.
         23    2    4    4    0    0  0.32444391531E+03  0.78398615985E+03  0.11519529914E+04  0.14335826733E+04  0.90914431120E+02 0.  0.
          2    1    3    3  502    0  0.25145327006E+02 -0.16929793836E+03 -0.15039559216E+03  0.22784405532E+03  0.00000000000E+00 0. -1.
         -1    1    3    3    0  502  0.22385445138E+02 -0.71081391910E+03 -0.45349907757E+03  0.84345654843E+03  0.00000000000E+00 0.  1.
         13    1    5    5    0    0 -0.37601555731E+03  0.94240623563E+02  0.80157001452E+03  0.89038389622E+03  0.00000000000E+00 0. -1.
        -13    1    5    5    0    0  0.40408698502E+01  0.18850740436E+01  0.27933505700E+02  0.28287150333E+02  0.00000000000E+00 0.  1.
          3    1    6    6  503    0  0.32042351399E+03  0.78557214789E+03  0.11413879443E+04  0.14221678056E+04  0.00000000000E+00 0. -1.
         -3    1    6    6    0  503  0.40204013279E+01 -0.15859880387E+01  0.10565047071E+02  0.11414867696E+02  0.00000000000E+00 0.  1.
<mgrwt>
<rscale>  0 0.31341741E+04</rscale>
<asrwt>0</asrwt>
<pdfrwt beam="1">  1        2 0.36931663E+00 0.31341741E+04</pdfrwt>
<pdfrwt beam="2">  1       -1 0.15738404E+00 0.31341741E+04</pdfrwt>
<totfact> 0.11695001E+00</totfact>
</mgrwt>
</event>
<event>
12    7  0.1909736E-007  0.2434599E+04  0.7818608E-02  0.8426663E-01
          2   -1    0    0  501    0  0.00000000000E+00  0.00000000000E+00  0.11182206643E+04  0.11182206643E+04  0.00000000000E+00 0. -1.
         -1   -1    0    0    0  501 -0.00000000000E+00 -0.00000000000E+00 -0.13251572304E+04  0.13251572304E+04  0.00000000000E+00 0.  1.
         24    2    1    2    0    0 -0.37269586063E+03 -0.63577730579E+03  0.65803736812E+03  0.99131346549E+03  0.81081575828E+02 0.  0.
        254    2    1    2    0    0  0.37269586063E+03  0.63577730579E+03 -0.86497393425E+03  0.14520644293E+04  0.90398905564E+03 0.  0.
         23    2    4    4    0    0  0.48592062849E+03  0.57860648453E+03 -0.99148131956E+03  0.12504311550E+04  0.98176093462E+02 0.  0.
         23    2    4    4    0    0 -0.11322476786E+03  0.57170821257E+02  0.12650738530E+03  0.20163327423E+03  0.92539223472E+02 0.  0.
          4    1    3    3  502    0 -0.31410028073E+03 -0.52149676331E+03  0.50085349336E+03  0.78833500640E+03  0.00000000000E+00 0. -1.
         -3    1    3    3    0  502 -0.58595579907E+02 -0.11428054247E+03  0.15718387476E+03  0.20297845910E+03  0.00000000000E+00 0.  1.
         13    1    5    5    0    0  0.47272919055E+03  0.52546383407E+03 -0.90978102101E+03  0.11520792658E+04  0.00000000000E+00 0. -1.
        -13    1    5    5    0    0  0.13191437943E+02  0.53142650454E+02 -0.81700298546E+02  0.98351889229E+02  0.00000000000E+00 0.  1.
          3    1    6    6  503    0 -0.96609505877E+02  0.59635014092E+02  0.51321314853E+02  0.12459377549E+03  0.00000000000E+00 0. -1.
         -3    1    6    6    0  503 -0.16615261979E+02 -0.24641928344E+01  0.75186070449E+02  0.77039498743E+02  0.00000000000E+00 0.  1.
<mgrwt>
<rscale>  0 0.24345991E+04</rscale>
<asrwt>0</asrwt>
<pdfrwt beam="1">  1        2 0.17203395E+00 0.24345991E+04</pdfrwt>
<pdfrwt beam="2">  1       -1 0.20387034E+00 0.24345991E+04</pdfrwt>
<totfact> 0.30717677E+00</totfact>
</mgrwt>
</event>
<event>
12    7  0.1909736E-007  0.1667514E+04  0.7818608E-02  0.8780112E-01
          2   -1    0    0  501    0  0.00000000000E+00  0.00000000000E+00  0.17787842786E+04  0.17787842786E+04  0.00000000000E+00 0. -1.
         -1   -1    0    0    0  501 -0.00000000000E+00 -0.00000000000E+00 -0.39080103960E+03  0.39080103960E+03  0.00000000000E+00 0.  1.
         24    2    1    2    0    0 -0.43612608494E+03 -0.43045158702E+02  0.10017909694E+04  0.10964041412E+04  0.80361973806E+02 0.  0.
        254    2    1    2    0    0  0.43612608494E+03  0.43045158702E+02  0.38619226953E+03  0.10731811769E+04  0.90028580007E+03 0.  0.
         23    2    4    4    0    0 -0.21150686582E+03 -0.60108092731E+02 -0.92286726131E+02  0.25632153119E+03  0.93998672500E+02 0.  0.
         23    2    4    4    0    0  0.64763295076E+03  0.10315325143E+03  0.47847899566E+03  0.81685964574E+03  0.90821249438E+02 0.  0.
          4    1    3    3  502    0 -0.40268963546E+03 -0.33647464187E+02  0.96294144889E+03  0.10442927407E+04  0.00000000000E+00 0. -1.
         -1    1    3    3    0  502 -0.33436449487E+02 -0.93976945156E+01  0.38849520532E+02  0.52111400500E+02  0.00000000000E+00 0.  1.
         13    1    5    5    0    0 -0.10588486856E+03 -0.34269595232E+02  0.35933058954E+01  0.11135044856E+03  0.00000000000E+00 0. -1.
        -13    1    5    5    0    0 -0.10562199726E+03 -0.25838497499E+02 -0.95880032026E+02  0.14497108264E+03  0.00000000000E+00 0.  1.
          3    1    6    6  503    0  0.25868850547E+03  0.82589989074E+02  0.17443971535E+03  0.32275387442E+03  0.00000000000E+00 0. -1.
         -3    1    6    6    0  503  0.38894444529E+03  0.20563262360E+02  0.30403928031E+03  0.49410577132E+03  0.00000000000E+00 0.  1.
<mgrwt>
<rscale>  0 0.16675140E+04</rscale>
<asrwt>0</asrwt>
<pdfrwt beam="1">  1        2 0.27365912E+00 0.16675140E+04</pdfrwt>
<pdfrwt beam="2">  1       -1 0.60123238E-01 0.16675140E+04</pdfrwt>
<totfact> 0.27024802E+01</totfact>
</mgrwt>
</event>
<event>
12    7  0.1909736E-007  0.5824383E+04  0.7818608E-02  0.7712566E-01
         -1   -1    0    0    0  501 -0.00000000000E+00  0.00000000000E+00  0.29935364223E+04  0.29935364223E+04  0.00000000000E+00 0.  1.
          2   -1    0    0  501    0  0.00000000000E+00 -0.00000000000E+00 -0.28330569542E+04  0.28330569542E+04  0.00000000000E+00 0. -1.
         24    2    1    2    0    0 -0.39560854954E+03  0.28041796878E+04 -0.17670779712E+03  0.28385678986E+04  0.79449503494E+02 0.  0.
        254    2    1    2    0    0  0.39560854954E+03 -0.28041796878E+04  0.33718726514E+03  0.29880254779E+04  0.89144330085E+03 0.  0.
         23    2    4    4    0    0  0.28544424852E+02 -0.22204307817E+04  0.20603394156E+02  0.22225850565E+04  0.91280847035E+02 0.  0.
         23    2    4    4    0    0  0.36706412469E+03 -0.58374890614E+03  0.31658387099E+03  0.76544042139E+03  0.10087038357E+03 0.  0.
          2    1    3    3  502    0 -0.92743084953E+02  0.48780210189E+03 -0.12216783119E+02  0.49669046719E+03  0.00000000000E+00 0. -1.
         -1    1    3    3    0  502 -0.30286546459E+03  0.23163775859E+04 -0.16449101400E+03  0.23418774314E+04  0.00000000000E+00 0.  1.
         13    1    5    5    0    0  0.45376750164E+01 -0.35054926034E+03  0.36573898415E+02  0.35248123987E+03  0.00000000000E+00 0.  1.
        -13    1    5    5    0    0  0.24006749835E+02 -0.18698815213E+04 -0.15970504259E+02  0.18701038166E+04  0.00000000000E+00 0. -1.
          2    1    6    6  503    0  0.25642550206E+03 -0.47516671968E+03  0.26927663726E+03  0.60336337060E+03  0.00000000000E+00 0. -1.
         -2    1    6    6    0  503  0.11063862263E+03 -0.10858218645E+03  0.47307233730E+02  0.16207705080E+03  0.00000000000E+00 0.  1.
<mgrwt>
<rscale>  0 0.58243829E+04</rscale>
<asrwt>0</asrwt>
<pdfrwt beam="1">  1        2 0.43585492E+00 0.58243829E+04</pdfrwt>
<pdfrwt beam="2">  1       -1 0.46054407E+00 0.58243829E+04</pdfrwt>
<totfact> 0.47180579E-03</totfact>
</mgrwt>
</event>
<event>
12    7  0.1909736E-007  0.1441260E+04  0.7818608E-02  0.8924483E-01
          2   -1    0    0  501    0  0.00000000000E+00  0.00000000000E+00  0.13877230828E+04  0.13877230828E+04  0.00000000000E+00 0. -1.
         -1   -1    0    0    0  501 -0.00000000000E+00 -0.00000000000E+00 -0.37421538209E+03  0.37421538209E+03  0.00000000000E+00 0.  1.
         24    2    1    2    0    0 -0.15314082746E+03  0.31926133129E+03  0.62975198181E+03  0.72693612254E+03  0.80427961383E+02 0.  0.
        254    2    1    2    0    0  0.15314082746E+03 -0.31926133129E+03  0.38375571886E+03  0.10350023423E+04  0.89363386581E+03 0.  0.
         23    2    4    4    0    0  0.10374345847E+03  0.13534607963E+03  0.51525309128E+03  0.55054566002E+03  0.92376995201E+02 0.  0.
         23    2    4    4    0    0  0.49397368988E+02 -0.45460741092E+03 -0.13149737243E+03  0.48445668228E+03  0.91097310186E+02 0.  0.
          4    1    3    3  502    0 -0.12581957199E+03  0.27173623136E+03  0.58075425366E+03  0.65341154510E+03  0.00000000000E+00 0. -1.
         -3    1    3    3    0  502 -0.27321255471E+02  0.47525099934E+02  0.48997728152E+02  0.73524577445E+02  0.00000000000E+00 0.  1.
         13    1    5    5    0    0 -0.10680100230E+02  0.32363419844E+02  0.15634474254E+03  0.16001604296E+03  0.00000000000E+00 0. -1.
        -13    1    5    5    0    0  0.11442355870E+03  0.10298265979E+03  0.35890834874E+03  0.39052961706E+03  0.00000000000E+00 0.  1.
          2    1    6    6  503    0  0.38013603786E+02 -0.44755018397E+03 -0.13756070631E+03  0.46975434980E+03  0.00000000000E+00 0.  1.
         -2    1    6    6    0  503  0.11383765203E+02 -0.70572269534E+01  0.60633338785E+01  0.14702332474E+02  0.00000000000E+00 0. -1.
<mgrwt>
<rscale>  0 0.14412596E+04</rscale>
<asrwt>0</asrwt>
<pdfrwt beam="1">  1        2 0.21349586E+00 0.14412596E+04</pdfrwt>
<pdfrwt beam="2">  1       -1 0.57571598E-01 0.14412596E+04</pdfrwt>
<totfact> 0.49701927E+01</totfact>
</mgrwt>
</event>
<event>
12    7  0.1909736E-007  0.1689875E+04  0.7818608E-02  0.8767160E-01
         -1   -1    0    0    0  501 -0.00000000000E+00  0.00000000000E+00  0.21572224978E+03  0.21572224978E+03  0.00000000000E+00 0.  1.
          2   -1    0    0  501    0  0.00000000000E+00 -0.00000000000E+00 -0.33094361420E+04  0.33094361420E+04  0.00000000000E+00 0. -1.
         24    2    1    2    0    0  0.45762325058E+03 -0.88644593074E+02 -0.31871874664E+03  0.57058123639E+03  0.81880428116E+02 0.  0.
        254    2    1    2    0    0 -0.45762325058E+03  0.88644593074E+02 -0.27749951456E+04  0.29545771554E+04  0.90091686958E+03 0.  0.
         23    2    4    4    0    0 -0.60605342290E+03 -0.54533613115E+02 -0.25930062581E+04  0.26650441472E+04  0.92218142093E+02 0.  0.
         23    2    4    4    0    0  0.14843017233E+03  0.14317820619E+03 -0.18198888748E+03  0.28953300818E+03  0.90431702818E+02 0.  0.
          4    1    3    3  502    0  0.36861947590E+02 -0.24669061666E+02 -0.51856708841E+02  0.68238435177E+02  0.00000000000E+00 0. -1.
         -3    1    3    3    0  502  0.42076130299E+03 -0.63975531408E+02 -0.26686203780E+03  0.50234280121E+03  0.00000000000E+00 0.  1.
         13    1    5    5    0    0 -0.35075616853E+02 -0.95199510568E+01 -0.27183669957E+03  0.27425557350E+03  0.00000000000E+00 0.  1.
        -13    1    5    5    0    0 -0.57097780605E+03 -0.45013662058E+02 -0.23211695585E+04  0.23907885737E+04  0.00000000000E+00 0. -1.
          3    1    6    6  503    0  0.14505229673E+03  0.98237290844E+02 -0.16701503641E+03  0.24204288151E+03  0.00000000000E+00 0. -1.
         -3    1    6    6    0  503  0.33778755953E+01  0.44940915345E+02 -0.14973851064E+02  0.47490126672E+02  0.00000000000E+00 0.  1.
<mgrwt>
<rscale>  0 0.16898746E+04</rscale>
<asrwt>0</asrwt>
<pdfrwt beam="1">  1        2 0.50914397E+00 0.16898746E+04</pdfrwt>
<pdfrwt beam="2">  1       -1 0.33188042E-01 0.16898746E+04</pdfrwt>
<totfact> 0.10238464E+01</totfact>
</mgrwt>
</event>
<event>
12    7  0.1909736E-007  0.2333933E+04  0.7818608E-02  0.8464661E-01
          2   -1    0    0  501    0  0.00000000000E+00  0.00000000000E+00  0.18633583201E+04  0.18633583201E+04  0.00000000000E+00 0. -1.
         -1   -1    0    0    0  501 -0.00000000000E+00 -0.00000000000E+00 -0.73083675722E+03  0.73083675722E+03  0.00000000000E+00 0.  1.
         24    2    1    2    0    0 -0.17132532190E+03  0.73146695704E+03 -0.23427055518E+03  0.79113598650E+03  0.81346056717E+02 0.  0.
        254    2    1    2    0    0  0.17132532190E+03 -0.73146695704E+03  0.13667921181E+04  0.18030590908E+04  0.90471272560E+03 0.  0.
         23    2    4    4    0    0  0.28202294205E+03 -0.19770029482E+03  0.11585443456E+04  0.12126272734E+04  0.98069144109E+02 0.  0.
         23    2    4    4    0    0 -0.11069762015E+03 -0.53376666222E+03  0.20824777247E+03  0.59043181745E+03  0.89898740292E+02 0.  0.
          4    1    3    3  502    0 -0.87936252720E+01  0.61401381294E+02  0.26133185911E+01  0.62082903479E+02  0.00000000000E+00 0. -1.
         -3    1    3    3    0  502 -0.16253169663E+03  0.67006557575E+03 -0.23688387377E+03  0.72905308302E+03  0.00000000000E+00 0.  1.
         13    1    5    5    0    0  0.89146078469E+02 -0.15192835289E+02  0.35539599046E+03  0.36672081423E+03  0.00000000000E+00 0.  1.
        -13    1    5    5    0    0  0.19287686358E+03 -0.18250745953E+03  0.80314835515E+03  0.84590645917E+03  0.00000000000E+00 0. -1.
          1    1    6    6  503    0 -0.41844905278E+02 -0.96392713571E+02  0.10787650380E+02  0.10563581177E+03  0.00000000000E+00 0. -1.
         -1    1    6    6    0  503 -0.68852714869E+02 -0.43737394865E+03  0.19746012209E+03  0.48479600568E+03  0.00000000000E+00 0.  1.
<mgrwt>
<rscale>  0 0.23339329E+04</rscale>
<asrwt>0</asrwt>
<pdfrwt beam="1">  1        2 0.28667051E+00 0.23339329E+04</pdfrwt>
<pdfrwt beam="2">  1       -1 0.11243642E+00 0.23339329E+04</pdfrwt>
<totfact> 0.59327669E+00</totfact>
</mgrwt>
</event>
<event>
12    7  0.1909736E-007  0.1768944E+04  0.7818608E-02  0.8722991E-01
         -1   -1    0    0    0  501 -0.00000000000E+00  0.00000000000E+00  0.48910958556E+03  0.48910958556E+03  0.00000000000E+00 0.  1.
          2   -1    0    0  501    0  0.00000000000E+00 -0.00000000000E+00 -0.15994181461E+04  0.15994181461E+04  0.00000000000E+00 0. -1.
         24    2    1    2    0    0 -0.63356411580E+03  0.12754954232E+03 -0.30335854416E+03  0.71844996989E+03  0.80446120729E+02 0.  0.
        254    2    1    2    0    0  0.63356411580E+03 -0.12754954232E+03 -0.80695001642E+03  0.13700777618E+04  0.89903969315E+03 0.  0.
         23    2    4    4    0    0 -0.16763155287E+03 -0.20443098635E+03 -0.31757627660E+03  0.42358560332E+03  0.93154206480E+02 0.  0.
         23    2    4    4    0    0  0.80119566866E+03  0.76881444026E+02 -0.48937373981E+03  0.94649215850E+03  0.92387731652E+02 0.  0.
          2    1    3    3  502    0 -0.19797835291E+03  0.22618322017E+02 -0.57577803048E+02  0.20741798407E+03  0.00000000000E+00 0. -1.
         -1    1    3    3    0  502 -0.43558576289E+03  0.10493122030E+03 -0.24578074111E+03  0.51103198582E+03  0.00000000000E+00 0.  1.
         13    1    5    5    0    0 -0.13527004548E+02 -0.10184784110E+02  0.41162848178E+01  0.17425655802E+02  0.00000000000E+00 0. -1.
        -13    1    5    5    0    0 -0.15410454832E+03 -0.19424620223E+03 -0.32169256142E+03  0.40615994752E+03  0.00000000000E+00 0.  1.
          3    1    6    6  503    0  0.34827623550E+03  0.12329149033E+02 -0.25945369898E+03  0.43447044323E+03  0.00000000000E+00 0. -1.
         -3    1    6    6    0  503  0.45291943316E+03  0.64552294993E+02 -0.22992004084E+03  0.51202171526E+03  0.00000000000E+00 0.  1.
<mgrwt>
<rscale>  0 0.17689440E+04</rscale>
<asrwt>0</asrwt>
<pdfrwt beam="1">  1        2 0.24606433E+00 0.17689440E+04</pdfrwt>
<pdfrwt beam="2">  1       -1 0.75247628E-01 0.17689440E+04</pdfrwt>
<totfact> 0.21365456E+01</totfact>
</mgrwt>
</event>
<event>
12    7  0.1909736E-007  0.1585969E+04  0.7818608E-02  0.8829215E-01
         -1   -1    0    0    0  501 -0.00000000000E+00  0.00000000000E+00  0.51138233921E+03  0.51138233921E+03  0.00000000000E+00 0.  1.
          2   -1    0    0  501    0  0.00000000000E+00 -0.00000000000E+00 -0.12296557587E+04  0.12296557587E+04  0.00000000000E+00 0. -1.
         24    2    1    2    0    0  0.38836043114E+03 -0.20226026420E+03  0.92826140777E+02  0.45406263855E+03  0.76309556188E+02 0.  0.
        254    2    1    2    0    0 -0.38836043114E+03  0.20226026420E+03 -0.81109956026E+03  0.12869754594E+04  0.89815939420E+03 0.  0.
         23    2    4    4    0    0 -0.60078267898E+03  0.30012219333E+03 -0.35560799571E+03  0.76540257591E+03  0.91492613372E+02 0.  0.
         23    2    4    4    0    0  0.21242224784E+03 -0.97861929123E+02 -0.45549156455E+03  0.52157288345E+03  0.99325418814E+02 0.  0.
          2    1    3    3  502    0  0.12109381265E+03 -0.46232663629E+02 -0.43354463266E+01  0.12969181448E+03  0.00000000000E+00 0. -1.
         -1    1    3    3    0  502  0.26726661849E+03 -0.15602760057E+03  0.97161587104E+02  0.32437082407E+03  0.00000000000E+00 0.  1.
         13    1    5    5    0    0 -0.55221551462E+03  0.25187579022E+03 -0.29913397595E+03  0.67665687305E+03  0.00000000000E+00 0. -1.
        -13    1    5    5    0    0 -0.48567164363E+02  0.48246403108E+02 -0.56474019759E+02  0.88745702853E+02  0.00000000000E+00 0.  1.
          1    1    6    6  503    0  0.18680168506E+03 -0.11509744188E+03 -0.36405009384E+03  0.42505853890E+03  0.00000000000E+00 0. -1.
         -1    1    6    6    0  503  0.25620562786E+02  0.17235512762E+02 -0.91441470712E+02  0.96514344549E+02  0.00000000000E+00 0.  1.
<mgrwt>
<rscale>  0 0.15859688E+04</rscale>
<asrwt>0</asrwt>
<pdfrwt beam="1">  1        2 0.18917781E+00 0.15859688E+04</pdfrwt>
<pdfrwt beam="2">  1       -1 0.78674208E-01 0.15859688E+04</pdfrwt>
<totfact> 0.32175761E+01</totfact>
</mgrwt>
</event>
<event>
12    7  0.1909736E-007  0.1731095E+04  0.7818608E-02  0.8743826E-01
         -1   -1    0    0    0  501 -0.00000000000E+00  0.00000000000E+00  0.11769865439E+04  0.11769865439E+04  0.00000000000E+00 0.  1.
          2   -1    0    0  501    0  0.00000000000E+00 -0.00000000000E+00 -0.63651759291E+03  0.63651759291E+03  0.00000000000E+00 0. -1.
         24    2    1    2    0    0 -0.29940135867E+03 -0.54693064045E+03  0.14750334788E+03  0.64867358790E+03  0.10122196879E+03 0.  0.
        254    2    1    2    0    0  0.29940135867E+03  0.54693064045E+03  0.39296560313E+03  0.11648305489E+04  0.90201659821E+03 0.  0.
         23    2    4    4    0    0  0.25977987154E+01  0.67537081064E+03  0.47981464192E+02  0.68308292066E+03  0.90374637873E+02 0.  0.
         23    2    4    4    0    0  0.29680355996E+03 -0.12844017020E+03  0.34498413894E+03  0.48174762827E+03  0.92073289829E+02 0.  0.
          4    1    3    3  502    0 -0.15959501558E+02 -0.23654506599E+02 -0.14357526581E+02  0.31943386514E+02  0.00000000000E+00 0. -1.
         -3    1    3    3    0  502 -0.28344185712E+03 -0.52327613385E+03  0.16186087446E+03  0.61673020139E+03  0.00000000000E+00 0.  1.
         13    1    5    5    0    0 -0.14029350557E+02  0.46609266251E+02  0.22399457110E+02  0.53581545856E+02  0.00000000000E+00 0.  1.
        -13    1    5    5    0    0  0.16627149272E+02  0.62876154439E+03  0.25582007082E+02  0.62950137481E+03  0.00000000000E+00 0. -1.
          1    1    6    6  503    0  0.22201568034E+03 -0.60711354605E+02  0.19886782347E+03  0.30417962145E+03  0.00000000000E+00 0. -1.
         -1    1    6    6    0  503  0.74787879619E+02 -0.67728815591E+02  0.14611631547E+03  0.17756800682E+03  0.00000000000E+00 0.  1.
<mgrwt>
<rscale>  0 0.17310952E+04</rscale>
<asrwt>0</asrwt>
<pdfrwt beam="1">  1        2 0.97925784E-01 0.17310952E+04</pdfrwt>
<pdfrwt beam="2">  1       -1 0.18107485E+00 0.17310952E+04</pdfrwt>
<totfact> 0.10226779E+01</totfact>
</mgrwt>
</event>
<event>
12    7  0.1909736E-007  0.1356869E+04  0.7818608E-02  0.8985645E-01
         -1   -1    0    0    0  501 -0.00000000000E+00  0.00000000000E+00  0.74273527116E+03  0.74273527116E+03  0.00000000000E+00 0.  1.
          2   -1    0    0  501    0  0.00000000000E+00 -0.00000000000E+00 -0.61970021798E+03  0.61970021798E+03  0.00000000000E+00 0. -1.
         24    2    1    2    0    0  0.76001939631E+02  0.29930182747E+03  0.25120931153E+03  0.40603287512E+03  0.79991866613E+02 0.  0.
        254    2    1    2    0    0 -0.76001939631E+02 -0.29930182747E+03 -0.12817425835E+03  0.95640261401E+03  0.89605772182E+03 0.  0.
         23    2    4    4    0    0 -0.35573402732E+03 -0.37446079150E+03  0.14863049673E+03  0.54534949875E+03  0.92452521116E+02 0.  0.
         23    2    4    4    0    0  0.27973208769E+03  0.75158964025E+02 -0.27680475509E+03  0.41105311527E+03  0.91896030253E+02 0.  0.
          2    1    3    3  502    0 -0.11446381976E+02  0.39349387122E+02  0.13669597372E+02  0.43200136800E+02  0.00000000000E+00 0. -1.
         -1    1    3    3    0  502  0.87448321607E+02  0.25995244035E+03  0.23753971416E+03  0.36283273832E+03  0.00000000000E+00 0.  1.
         13    1    5    5    0    0 -0.23685223504E+03 -0.29350362174E+03  0.13617143071E+03  0.40098131598E+03  0.00000000000E+00 0. -1.
        -13    1    5    5    0    0 -0.11888179228E+03 -0.80957169757E+02  0.12459066022E+02  0.14436818277E+03  0.00000000000E+00 0.  1.
          4    1    6    6  503    0 -0.25354722004E+01 -0.68476904585E+01 -0.17965579743E+02  0.19392821852E+02  0.00000000000E+00 0. -1.
         -4    1    6    6    0  503  0.28226755989E+03  0.82006654484E+02 -0.25883917534E+03  0.39166029342E+03  0.00000000000E+00 0.  1.
<mgrwt>
<rscale>  0 0.13568688E+04</rscale>
<asrwt>0</asrwt>
<pdfrwt beam="1">  1        2 0.95338495E-01 0.13568688E+04</pdfrwt>
<pdfrwt beam="2">  1       -1 0.11426697E+00 0.13568688E+04</pdfrwt>
<totfact> 0.37094131E+01</totfact>
</mgrwt>
</event>
<event>
12    7  0.1909736E-007  0.1428459E+04  0.7818608E-02  0.8933472E-01
         -1   -1    0    0    0  501 -0.00000000000E+00  0.00000000000E+00  0.19720335734E+03  0.19720335734E+03  0.00000000000E+00 0.  1.
          2   -1    0    0  501    0  0.00000000000E+00 -0.00000000000E+00 -0.25867913518E+04  0.25867913518E+04  0.00000000000E+00 0. -1.
         24    2    1    2    0    0 -0.11133924606E+03 -0.17853309181E+02  0.76493232323E+02  0.15746593844E+03  0.78924893501E+02 0.  0.
        254    2    1    2    0    0  0.11133924606E+03  0.17853309181E+02 -0.24660812268E+04  0.26265287707E+04  0.89687323401E+03 0.  0.
         23    2    4    4    0    0  0.69829822071E+02  0.20584186666E+03 -0.10893860013E+03  0.25974486782E+03  0.91393104969E+02 0.  0.
         23    2    4    4    0    0  0.41509423992E+02 -0.18798855748E+03 -0.23571426267E+04  0.23667839029E+04  0.92097505822E+02 0.  0.
          4    1    3    3  502    0  0.70961247604E+01 -0.88891923105E+01  0.26048349642E+02  0.28423392578E+02  0.00000000000E+00 0. -1.
         -3    1    3    3    0  502 -0.11843537082E+03 -0.89641168703E+01  0.50444882681E+02  0.12904254586E+03  0.00000000000E+00 0.  1.
         13    1    5    5    0    0  0.79082443838E+02  0.20514606846E+03 -0.11552647255E+03  0.24836527170E+03  0.00000000000E+00 0. -1.
        -13    1    5    5    0    0 -0.92526217670E+01  0.69579820237E+00  0.65878724169E+01  0.11379596113E+02  0.00000000000E+00 0.  1.
          2    1    6    6  503    0  0.47860894115E+02 -0.19653857762E+03 -0.21996139539E+04  0.22088955665E+04  0.00000000000E+00 0. -1.
         -2    1    6    6    0  503 -0.63514701237E+01  0.85500201432E+01 -0.15752867275E+03  0.15788833635E+03  0.00000000000E+00 0.  1.
<mgrwt>
<rscale>  0 0.14284592E+04</rscale>
<asrwt>0</asrwt>
<pdfrwt beam="1">  1        2 0.39796792E+00 0.14284592E+04</pdfrwt>
<pdfrwt beam="2">  1       -1 0.30338977E-01 0.14284592E+04</pdfrwt>
<totfact> 0.34427131E+01</totfact>
</mgrwt>
</event>
<event>
12    7  0.1909736E-007  0.1691256E+04  0.7818608E-02  0.8766367E-01
          2   -1    0    0  501    0  0.00000000000E+00  0.00000000000E+00  0.10667071802E+04  0.10667071802E+04  0.00000000000E+00 0. -1.
         -1   -1    0    0    0  501 -0.00000000000E+00 -0.00000000000E+00 -0.67036823581E+03  0.67036823581E+03  0.00000000000E+00 0.  1.
         24    2    1    2    0    0 -0.18773941884E+03 -0.28963556158E+03 -0.35618623107E+03  0.50237500821E+03  0.79857183509E+02 0.  0.
        254    2    1    2    0    0  0.18773941884E+03  0.28963556158E+03  0.75252517544E+03  0.12347004078E+04  0.91600005971E+03 0.  0.
         23    2    4    4    0    0  0.12146309980E+03 -0.14977892530E+03  0.75132169493E+03  0.78096595761E+03  0.90755311703E+02 0.  0.
         23    2    4    4    0    0  0.66276319033E+02  0.43941448687E+03  0.12034805091E+01  0.45373445016E+03  0.91628931901E+02 0.  0.
          2    1    3    3  502    0 -0.26876191048E+00  0.48082828501E+01 -0.80653038904E+01  0.93936650875E+01  0.00000000000E+00 0. -1.
         -1    1    3    3    0  502 -0.18747065693E+03 -0.29444384443E+03 -0.34812092718E+03  0.49298134313E+03  0.00000000000E+00 0.  1.
         13    1    5    5    0    0  0.12263928515E+03 -0.13447523098E+03  0.55573763129E+03  0.58478055443E+03  0.00000000000E+00 0. -1.
        -13    1    5    5    0    0 -0.11761853508E+01 -0.15303694318E+02  0.19558406364E+03  0.19618540318E+03  0.00000000000E+00 0.  1.
          3    1    6    6  503    0  0.21728524847E+02  0.27692563407E+03  0.40537546842E+02  0.28071912707E+03  0.00000000000E+00 0. -1.
         -3    1    6    6    0  503  0.44547794186E+02  0.16248885280E+03 -0.39334066332E+02  0.17301532310E+03  0.00000000000E+00 0.  1.
<mgrwt>
<rscale>  0 0.16912559E+04</rscale>
<asrwt>0</asrwt>
<pdfrwt beam="1">  1        2 0.16410880E+00 0.16912559E+04</pdfrwt>
<pdfrwt beam="2">  1       -1 0.10313357E+00 0.16912559E+04</pdfrwt>
<totfact> 0.22033586E+01</totfact>
</mgrwt>
</event>
<event>
12    7  0.1909736E-007  0.1687756E+04  0.7818608E-02  0.8768378E-01
         -1   -1    0    0    0  501 -0.00000000000E+00  0.00000000000E+00  0.75913585972E+03  0.75913585972E+03  0.00000000000E+00 0.  1.
          2   -1    0    0  501    0  0.00000000000E+00 -0.00000000000E+00 -0.93808037192E+03  0.93808037192E+03  0.00000000000E+00 0. -1.
         24    2    1    2    0    0 -0.15720527979E+03  0.41850101658E+02 -0.64792473258E+03  0.67283313398E+03  0.80206209816E+02 0.  0.
        254    2    1    2    0    0  0.15720527979E+03 -0.41850101658E+02  0.46898022037E+03  0.10243830977E+04  0.89607664441E+03 0.  0.
         23    2    4    4    0    0 -0.22483191332E+02  0.18459018544E+03 -0.20159752857E+03  0.28880041704E+03  0.90471470118E+02 0.  0.
         23    2    4    4    0    0  0.17968847113E+03 -0.22644028710E+03  0.67057774894E+03  0.73558268062E+03  0.88567558258E+02 0.  0.
          2    1    3    3  502    0 -0.90671523758E+02  0.93692661920E+01 -0.21351151899E+03  0.23215571738E+03  0.00000000000E+00 0. -1.
         -1    1    3    3    0  502 -0.66533756036E+02  0.32480835466E+02 -0.43441321359E+03  0.44067741661E+03  0.00000000000E+00 0.  1.
         13    1    5    5    0    0  0.35092484101E+02  0.65808570493E+02 -0.66526374129E+02  0.99940026243E+02  0.00000000000E+00 0. -1.
        -13    1    5    5    0    0 -0.57575675433E+02  0.11878161495E+03 -0.13507115444E+03  0.18886039080E+03  0.00000000000E+00 0.  1.
          3    1    6    6  503    0  0.10917422510E+03 -0.15734691414E+03  0.53211621245E+03  0.56553048226E+03  0.00000000000E+00 0. -1.
         -3    1    6    6    0  503  0.70514246020E+02 -0.69093372955E+02  0.13846153649E+03  0.17005219836E+03  0.00000000000E+00 0.  1.
<mgrwt>
<rscale>  0 0.16877564E+04</rscale>
<asrwt>0</asrwt>
<pdfrwt beam="1">  1        2 0.14432006E+00 0.16877564E+04</pdfrwt>
<pdfrwt beam="2">  1       -1 0.11679013E+00 0.16877564E+04</pdfrwt>
<totfact> 0.19876146E+01</totfact>
</mgrwt>
</event>
<event>
12    7  0.1909736E-007  0.4118983E+04  0.7818608E-02  0.7980965E-01
          2   -1    0    0  501    0  0.00000000000E+00  0.00000000000E+00  0.10189595818E+04  0.10189595818E+04  0.00000000000E+00 0. -1.
         -1   -1    0    0    0  501 -0.00000000000E+00 -0.00000000000E+00 -0.41625849740E+04  0.41625849740E+04  0.00000000000E+00 0.  1.
         24    2    1    2    0    0 -0.47055464637E+03  0.16056368545E+04 -0.21270006283E+03  0.16885232445E+04  0.79862673502E+02 0.  0.
        254    2    1    2    0    0  0.47055464637E+03 -0.16056368545E+04 -0.29309253293E+04  0.34930213113E+04  0.90076812281E+03 0.  0.
         23    2    4    4    0    0 -0.13202696386E+03 -0.89387535420E+03 -0.10258674100E+04  0.13700108398E+04  0.89897109391E+02 0.  0.
         23    2    4    4    0    0  0.60258161023E+03 -0.71176150033E+03 -0.19050579193E+04  0.21230104715E+04  0.90657352589E+02 0.  0.
          2    1    3    3  502    0 -0.38595407722E+03  0.13188885557E+04 -0.20539855411E+03  0.13894661342E+04  0.00000000000E+00 0. -1.
         -1    1    3    3    0  502 -0.84600569149E+02  0.28674829885E+03 -0.73015087211E+01  0.29905711031E+03  0.00000000000E+00 0.  1.
         13    1    5    5    0    0 -0.15541962824E+02 -0.18611093927E+03 -0.16251057991E+03  0.24756518921E+03  0.00000000000E+00 0.  1.
        -13    1    5    5    0    0 -0.11648500104E+03 -0.70776441493E+03 -0.86335683006E+03  0.11224456506E+04  0.00000000000E+00 0. -1.
          1    1    6    6  503    0  0.55159416330E+03 -0.68322476615E+03 -0.18013729915E+04  0.20039952237E+04  0.00000000000E+00 0. -1.
         -1    1    6    6    0  503  0.50987446932E+02 -0.28536734184E+02 -0.10368492783E+03  0.11901524777E+03  0.00000000000E+00 0.  1.
<mgrwt>
<rscale>  0 0.41189833E+04</rscale>
<asrwt>0</asrwt>
<pdfrwt beam="1">  1        2 0.15676301E+00 0.41189833E+04</pdfrwt>
<pdfrwt beam="2">  1       -1 0.64039769E+00 0.41189833E+04</pdfrwt>
<totfact> 0.68790183E-03</totfact>
</mgrwt>
</event>
<event>
12    7  0.1909736E-007  0.1937988E+04  0.7818608E-02  0.8636175E-01
         -1   -1    0    0    0  501 -0.00000000000E+00  0.00000000000E+00  0.14725044542E+04  0.14725044542E+04  0.00000000000E+00 0.  1.
          2   -1    0    0  501    0  0.00000000000E+00 -0.00000000000E+00 -0.63765454421E+03  0.63765454421E+03  0.00000000000E+00 0. -1.
         24    2    1    2    0    0 -0.51440444550E+03  0.16447018476E+03 -0.24784857191E+03  0.59972959739E+03  0.81143700680E+02 0.  0.
        254    2    1    2    0    0  0.51440444550E+03 -0.16447018476E+03  0.10826984819E+04  0.15104294011E+04  0.90415629046E+03 0.  0.
         23    2    4    4    0    0  0.10637045704E+02 -0.44759194487E+03  0.36445096413E+03  0.58404149971E+03  0.88477524131E+02 0.  0.
         23    2    4    4    0    0  0.50376739980E+03  0.28312176012E+03  0.71824751780E+03  0.92638790134E+03  0.91517882255E+02 0.  0.
          4    1    3    3  502    0 -0.31763006246E+03  0.13436700116E+03 -0.13112020265E+03  0.36896592678E+03  0.00000000000E+00 0. -1.
         -3    1    3    3    0  502 -0.19677438304E+03  0.30103183593E+02 -0.11672836925E+03  0.23076367061E+03  0.00000000000E+00 0.  1.
         13    1    5    5    0    0  0.23708437519E+02 -0.10104463723E+03  0.47164725661E+02  0.11400271957E+03  0.00000000000E+00 0.  1.
        -13    1    5    5    0    0 -0.13071391815E+02 -0.34654730765E+03  0.31728623847E+03  0.47003878015E+03  0.00000000000E+00 0. -1.
          2    1    6    6  503    0  0.43414866379E+03  0.21972212108E+03  0.55647544824E+03  0.73920754681E+03  0.00000000000E+00 0. -1.
         -2    1    6    6    0  503  0.69618736007E+02  0.63399639035E+02  0.16177206956E+03  0.18718035453E+03  0.00000000000E+00 0.  1.
<mgrwt>
<rscale>  0 0.19379878E+04</rscale>
<asrwt>0</asrwt>
<pdfrwt beam="1">  1        2 0.98100700E-01 0.19379878E+04</pdfrwt>
<pdfrwt beam="2">  1       -1 0.22653915E+00 0.19379878E+04</pdfrwt>
<totfact> 0.48849266E+00</totfact>
</mgrwt>
</event>
<event>
12    7  0.1909736E-007  0.2149988E+04  0.7818608E-02  0.8539537E-01
          2   -1    0    0  501    0  0.00000000000E+00  0.00000000000E+00  0.34138322379E+04  0.34138322379E+04  0.00000000000E+00 0. -1.
         -1   -1    0    0    0  501 -0.00000000000E+00 -0.00000000000E+00 -0.33850890796E+03  0.33850890796E+03  0.00000000000E+00 0.  1.
         24    2    1    2    0    0  0.96146647724E+02  0.65543864448E+03  0.23043399644E+04  0.23989483465E+04  0.78271980096E+02 0.  0.
        254    2    1    2    0    0 -0.96146647724E+02 -0.65543864448E+03  0.77098336557E+03  0.13533927994E+04  0.89353943675E+03 0.  0.
         23    2    4    4    0    0  0.12264825713E+03 -0.40109225614E+03 -0.77622969425E+02  0.43647753058E+03  0.92572762749E+02 0.  0.
         23    2    4    4    0    0 -0.21879490485E+03 -0.25434638833E+03  0.84860633499E+03  0.91691526885E+03  0.89652678797E+02 0.  0.
          2    1    3    3  502    0  0.10824058110E+03  0.55265221994E+03  0.19762078891E+04  0.20548815344E+04  0.00000000000E+00 0. -1.
         -1    1    3    3    0  502 -0.12093933379E+02  0.10278642454E+03  0.32813207534E+03  0.34406681206E+03  0.00000000000E+00 0.  1.
         13    1    5    5    0    0  0.12850261800E+03 -0.28912320952E+03 -0.44108520000E+02  0.31945377545E+03  0.00000000000E+00 0.  1.
        -13    1    5    5    0    0 -0.58543608723E+01 -0.11196904662E+03 -0.33514449425E+02  0.11702375512E+03  0.00000000000E+00 0. -1.
          4    1    6    6  503    0 -0.12319491345E+03 -0.11422412605E+03  0.52968393178E+03  0.55568804672E+03  0.00000000000E+00 0. -1.
         -4    1    6    6    0  503 -0.95599991398E+02 -0.14012226229E+03  0.31892240321E+03  0.36122722214E+03  0.00000000000E+00 0.  1.
<mgrwt>
<rscale>  0 0.21499885E+04</rscale>
<asrwt>0</asrwt>
<pdfrwt beam="1">  1        2 0.52520494E+00 0.21499885E+04</pdfrwt>
<pdfrwt beam="2">  1       -1 0.52078296E-01 0.21499885E+04</pdfrwt>
<totfact> 0.36298656E+00</totfact>
</mgrwt>
</event>
<event>
12    7  0.1909736E-007  0.1264769E+04  0.7818608E-02  0.9057980E-01
         -1   -1    0    0    0  501 -0.00000000000E+00  0.00000000000E+00  0.32210291692E+03  0.32210291692E+03  0.00000000000E+00 0.  1.
          2   -1    0    0  501    0  0.00000000000E+00 -0.00000000000E+00 -0.12415603799E+04  0.12415603799E+04  0.00000000000E+00 0. -1.
         24    2    1    2    0    0 -0.20929584735E+03 -0.25888810277E+03 -0.20767201968E+03  0.40089025926E+03  0.82204201450E+02 0.  0.
        254    2    1    2    0    0  0.20929584735E+03  0.25888810277E+03 -0.71178544329E+03  0.11627730376E+04  0.85707340299E+03 0.  0.
         23    2    4    4    0    0  0.20870313938E+03  0.97214646620E+02 -0.87907228803E+03  0.91325662240E+03  0.90894900137E+02 0.  0.
         23    2    4    4    0    0  0.59270796951E+00  0.16167345615E+03  0.16728684473E+03  0.24951641516E+03  0.90193654363E+02 0.  0.
          2    1    3    3  502    0 -0.19088197603E+03 -0.22040494633E+03 -0.20811477001E+03  0.35822622271E+03  0.00000000000E+00 0. -1.
         -1    1    3    3    0  502 -0.18413871321E+02 -0.38483156440E+02  0.44275033535E+00  0.42664036547E+02  0.00000000000E+00 0.  1.
         13    1    5    5    0    0  0.14101603056E+03  0.34541658903E+02 -0.40361327202E+03  0.42893160343E+03  0.00000000000E+00 0. -1.
        -13    1    5    5    0    0  0.67687108818E+02  0.62672987717E+02 -0.47545901601E+03  0.48432501897E+03  0.00000000000E+00 0.  1.
          4    1    6    6  503    0 -0.35440450372E+02  0.24002222153E+02  0.37179939088E+02  0.56696384907E+02  0.00000000000E+00 0. -1.
         -4    1    6    6    0  503  0.36033158342E+02  0.13767123400E+03  0.13010690565E+03  0.19282003026E+03  0.00000000000E+00 0.  1.
<mgrwt>
<rscale>  0 0.12647691E+04</rscale>
<asrwt>0</asrwt>
<pdfrwt beam="1">  1        2 0.19100929E+00 0.12647691E+04</pdfrwt>
<pdfrwt beam="2">  1       -1 0.49554295E-01 0.12647691E+04</pdfrwt>
<totfact> 0.81799102E+01</totfact>
</mgrwt>
</event>
<event>
12    7  0.1909736E-007  0.1959101E+04  0.7818608E-02  0.8625985E-01
          2   -1    0    0  501    0  0.00000000000E+00  0.00000000000E+00  0.11126990600E+04  0.11126990600E+04  0.00000000000E+00 0. -1.
         -1   -1    0    0    0  501 -0.00000000000E+00 -0.00000000000E+00 -0.86233482684E+03  0.86233482684E+03  0.00000000000E+00 0.  1.
         24    2    1    2    0    0 -0.23027349311E+03 -0.27893580257E+03  0.79108291768E+03  0.87335529304E+03  0.78142316603E+02 0.  0.
        254    2    1    2    0    0  0.23027349311E+03  0.27893580257E+03 -0.54071868447E+03  0.11016785938E+04  0.88909390101E+03 0.  0.
         23    2    4    4    0    0 -0.20719847861E+03 -0.85798511043E+02  0.78391650852E+02  0.25542527903E+03  0.93830848930E+02 0.  0.
         23    2    4    4    0    0  0.43747197172E+03  0.36473431361E+03 -0.61911033532E+03  0.84625331481E+03  0.91838009349E+02 0.  0.
          2    1    3    3  502    0 -0.19778766513E+03 -0.19204305210E+03  0.62549082374E+03  0.68354902160E+03  0.00000000000E+00 0. -1.
         -1    1    3    3    0  502 -0.32485827975E+02 -0.86892750465E+02  0.16559209394E+03  0.18980627144E+03  0.00000000000E+00 0.  1.
         13    1    5    5    0    0 -0.13125547523E+03 -0.97132356209E+02  0.71746144682E+02  0.17835415239E+03  0.00000000000E+00 0. -1.
        -13    1    5    5    0    0 -0.75943003385E+02  0.11333845167E+02  0.66455061696E+01  0.77071126640E+02  0.00000000000E+00 0.  1.
          3    1    6    6  503    0  0.38469344101E+03  0.27688324968E+03 -0.49569847335E+03  0.68583551526E+03  0.00000000000E+00 0. -1.
         -3    1    6    6    0  503  0.52778530708E+02  0.87851063930E+02 -0.12341186197E+03  0.16041779955E+03  0.00000000000E+00 0.  1.
<mgrwt>
<rscale>  0 0.19591010E+04</rscale>
<asrwt>0</asrwt>
<pdfrwt beam="1">  1        2 0.17118447E+00 0.19591010E+04</pdfrwt>
<pdfrwt beam="2">  1       -1 0.13266690E+00 0.19591010E+04</pdfrwt>
<totfact> 0.10956434E+01</totfact>
</mgrwt>
</event>
<event>
12    7  0.1909736E-007  0.3081646E+04  0.7818608E-02  0.8220793E-01
          2   -1    0    0  501    0  0.00000000000E+00  0.00000000000E+00  0.11475017577E+04  0.11475017577E+04  0.00000000000E+00 0. -1.
         -1   -1    0    0    0  501 -0.00000000000E+00 -0.00000000000E+00 -0.20689602195E+04  0.20689602195E+04  0.00000000000E+00 0.  1.
         24    2    1    2    0    0 -0.53971536770E+02 -0.35476550818E+03  0.10025713532E+04  0.10678674611E+04  0.80125549437E+02 0.  0.
        254    2    1    2    0    0  0.53971536770E+02  0.35476550818E+03 -0.19240298149E+04  0.21485945161E+04  0.88645145018E+03 0.  0.
         23    2    4    4    0    0 -0.15294907618E+03  0.20266365204E+03 -0.18445159528E+04  0.18640087675E+04  0.88451170710E+02 0.  0.
         23    2    4    4    0    0  0.20692061295E+03  0.15210185613E+03 -0.79513862120E+02  0.28458574860E+03  0.93356731595E+02 0.  0.
          4    1    3    3  502    0 -0.70324869695E+02 -0.22302617424E+03  0.67808274904E+03  0.71727433820E+03  0.00000000000E+00 0. -1.
         -3    1    3    3    0  502  0.16353332925E+02 -0.13173933394E+03  0.32448860412E+03  0.35059312287E+03  0.00000000000E+00 0.  1.
         13    1    5    5    0    0 -0.84983414235E+02  0.13460745198E+03 -0.14109852452E+04  0.14199368679E+04  0.00000000000E+00 0. -1.
        -13    1    5    5    0    0 -0.67965661942E+02  0.68056200067E+02 -0.43353070759E+03  0.44407189958E+03  0.00000000000E+00 0.  1.
          1    1    6    6  503    0  0.18564562821E+03  0.14874321636E+03 -0.42339597952E+02  0.24162260913E+03  0.00000000000E+00 0. -1.
         -1    1    6    6    0  503  0.21274984741E+02  0.33586397700E+01 -0.37174264168E+02  0.42963139472E+02  0.00000000000E+00 0.  1.
<mgrwt>
<rscale>  0 0.30816460E+04</rscale>
<asrwt>0</asrwt>
<pdfrwt beam="1">  1        2 0.17653873E+00 0.30816460E+04</pdfrwt>
<pdfrwt beam="2">  1       -1 0.31830157E+00 0.30816460E+04</pdfrwt>
<totfact> 0.49546551E-01</totfact>
</mgrwt>
</event>
<event>
12    7  0.1909736E-007  0.2014969E+04  0.7818608E-02  0.8599654E-01
          2   -1    0    0  501    0  0.00000000000E+00  0.00000000000E+00  0.12685871591E+04  0.12685871591E+04  0.00000000000E+00 0. -1.
         -1   -1    0    0    0  501 -0.00000000000E+00 -0.00000000000E+00 -0.80012270354E+03  0.80012270354E+03  0.00000000000E+00 0.  1.
         24    2    1    2    0    0  0.23623789218E+03  0.72828849319E+03  0.42415083915E+03  0.87888542114E+03  0.79518413742E+02 0.  0.
        254    2    1    2    0    0 -0.23623789218E+03 -0.72828849319E+03  0.44313616393E+02  0.11898244415E+04  0.90967358649E+03 0.  0.
         23    2    4    4    0    0  0.54486751134E+02 -0.25792985461E+03 -0.39040188708E+03  0.48021499660E+03  0.93253383743E+02 0.  0.
         23    2    4    4    0    0 -0.29072464331E+03 -0.47035863859E+03  0.43471550347E+03  0.70960944489E+03  0.93861217776E+02 0.  0.
          4    1    3    3  502    0  0.78710163874E+02  0.31442248429E+03  0.14244525629E+03  0.35404440338E+03  0.00000000000E+00 0. -1.
         -1    1    3    3    0  502  0.15752772830E+03  0.41386600890E+03  0.28170558287E+03  0.52484101776E+03  0.00000000000E+00 0.  1.
         13    1    5    5    0    0  0.28751755083E+02 -0.24537050879E+03 -0.37061154392E+03  0.44540573244E+03  0.00000000000E+00 0. -1.
        -13    1    5    5    0    0  0.25734996051E+02 -0.12559345814E+02 -0.19790343161E+02  0.34809264161E+02  0.00000000000E+00 0.  1.
          3    1    6    6  503    0 -0.28116916892E+03 -0.47330156281E+03  0.43003169003E+03  0.69856833978E+03  0.00000000000E+00 0. -1.
         -3    1    6    6    0  503 -0.95554743896E+01  0.29429242245E+01  0.46838134420E+01  0.11041105115E+02  0.00000000000E+00 0.  1.
<mgrwt>
<rscale>  0 0.20149694E+04</rscale>
<asrwt>0</asrwt>
<pdfrwt beam="1">  1        2 0.19516725E+00 0.20149694E+04</pdfrwt>
<pdfrwt beam="2">  1       -1 0.12309580E+00 0.20149694E+04</pdfrwt>
<totfact> 0.10607846E+01</totfact>
</mgrwt>
</event>
<event>
12    7  0.1909736E-007  0.3172902E+04  0.7818608E-02  0.8196011E-01
          2   -1    0    0  501    0  0.00000000000E+00  0.00000000000E+00  0.23273253161E+04  0.23273253161E+04  0.00000000000E+00 0. -1.
         -1   -1    0    0    0  501 -0.00000000000E+00 -0.00000000000E+00 -0.10814245902E+04  0.10814245902E+04  0.00000000000E+00 0.  1.
         24    2    1    2    0    0  0.17720023638E+03 -0.12256812966E+03 -0.97027739250E+03  0.99716857681E+03  0.80523797649E+02 0.  0.
        254    2    1    2    0    0 -0.17720023638E+03  0.12256812966E+03  0.22161781185E+04  0.24115813294E+04  0.92620526107E+03 0.  0.
         23    2    4    4    0    0 -0.51938352359E+03  0.42304363657E+02  0.87921561887E+03  0.10259485253E+04  0.89450367986E+02 0.  0.
         23    2    4    4    0    0  0.34218328721E+03  0.80263765998E+02  0.13369624996E+04  0.13856328042E+04  0.94751614603E+02 0.  0.
          4    1    3    3  502    0  0.64814741993E+02 -0.67359841136E+02 -0.26847430950E+03  0.28428287645E+03  0.00000000000E+00 0. -1.
         -3    1    3    3    0  502  0.11238549439E+03 -0.55208288519E+02 -0.70180308300E+03  0.71288570036E+03  0.00000000000E+00 0.  1.
         13    1    5    5    0    0 -0.37512854936E+03 -0.19622129437E+01  0.57823504091E+03  0.68926122868E+03  0.00000000000E+00 0. -1.
        -13    1    5    5    0    0 -0.14425497422E+03  0.44266576601E+02  0.30098057796E+03  0.33668729661E+03  0.00000000000E+00 0.  1.
          3    1    6    6  503    0  0.22387963659E+03  0.53509481469E+02  0.10336018125E+04  0.10589230676E+04  0.00000000000E+00 0. -1.
         -3    1    6    6    0  503  0.11830365062E+03  0.26754284529E+02  0.30336068706E+03  0.32670973653E+03  0.00000000000E+00 0.  1.
<mgrwt>
<rscale>  0 0.31729020E+04</rscale>
<asrwt>0</asrwt>
<pdfrwt beam="1">  1        2 0.35805005E+00 0.31729020E+04</pdfrwt>
<pdfrwt beam="2">  1       -1 0.16637301E+00 0.31729020E+04</pdfrwt>
<totfact> 0.10983335E+00</totfact>
</mgrwt>
</event>
<event>
12    7  0.1909736E-007  0.1777123E+04  0.7818608E-02  0.8718560E-01
          2   -1    0    0  501    0  0.00000000000E+00  0.00000000000E+00  0.17563792647E+04  0.17563792647E+04  0.00000000000E+00 0. -1.
         -1   -1    0    0    0  501 -0.00000000000E+00 -0.00000000000E+00 -0.44952808936E+03  0.44952808936E+03  0.00000000000E+00 0.  1.
         24    2    1    2    0    0 -0.42014173973E+03  0.76222266458E+02 -0.13403642489E+03  0.45906167124E+03  0.10219070134E+03 0.  0.
        254    2    1    2    0    0  0.42014173973E+03 -0.76222266458E+02  0.14408876002E+04  0.17468456828E+04  0.89049640522E+03 0.  0.
         23    2    4    4    0    0 -0.14628019917E+03 -0.11568812707E+03  0.14149039846E+02  0.20853847005E+03  0.92230465401E+02 0.  0.
         23    2    4    4    0    0  0.56642193890E+03  0.39465860608E+02  0.14267385604E+04  0.15383072128E+04  0.91732187087E+02 0.  0.
          4    1    3    3  502    0 -0.34560917252E+03  0.77965999643E+02 -0.70793972899E+02  0.36129791562E+03  0.00000000000E+00 0. -1.
         -3    1    3    3    0  502 -0.74532567207E+02 -0.17437331844E+01 -0.63242451993E+02  0.97763755626E+02  0.00000000000E+00 0.  1.
         13    1    5    5    0    0  0.33535377436E+01  0.98707382358E+01 -0.62298955596E+01  0.12144516763E+02  0.00000000000E+00 0. -1.
        -13    1    5    5    0    0 -0.14963373691E+03 -0.12555886530E+03  0.20378935406E+02  0.19639395329E+03  0.00000000000E+00 0.  1.
          3    1    6    6  503    0  0.31104009472E+03  0.51345857520E+02  0.69390782007E+03  0.76216166288E+03  0.00000000000E+00 0. -1.
         -3    1    6    6    0  503  0.25538184418E+03 -0.11879996912E+02  0.73283074032E+03  0.77614554989E+03  0.00000000000E+00 0.  1.
<mgrwt>
<rscale>  0 0.17771233E+04</rscale>
<asrwt>0</asrwt>
<pdfrwt beam="1">  1        2 0.27021219E+00 0.17771233E+04</pdfrwt>
<pdfrwt beam="2">  1       -1 0.69158169E-01 0.17771233E+04</pdfrwt>
<totfact> 0.20789010E+01</totfact>
</mgrwt>
</event>
<event>
12    7  0.1909736E-007  0.3794680E+04  0.7818608E-02  0.8047297E-01
          2   -1    0    0  501    0  0.00000000000E+00  0.00000000000E+00  0.27901080721E+04  0.27901080721E+04  0.00000000000E+00 0. -1.
         -1   -1    0    0    0  501 -0.00000000000E+00 -0.00000000000E+00 -0.12902364732E+04  0.12902364732E+04  0.00000000000E+00 0.  1.
         24    2    1    2    0    0  0.58029780012E+03  0.25179684565E+03  0.25084379069E+04  0.25882057835E+04  0.80007851831E+02 0.  0.
        254    2    1    2    0    0 -0.58029780012E+03 -0.25179684565E+03 -0.10085663080E+04  0.14921387618E+04  0.89951370116E+03 0.  0.
         23    2    4    4    0    0 -0.60262250408E+03 -0.14975167653E+03 -0.18058884178E+03  0.65291028886E+03  0.90000380412E+02 0.  0.
         23    2    4    4    0    0  0.22324703957E+02 -0.10204516912E+03 -0.82797746625E+03  0.83922847297E+03  0.88578418881E+02 0.  0.
          4    1    3    3  502    0  0.42300904593E+03  0.22120427413E+03  0.18868969780E+04  0.19463422590E+04  0.00000000000E+00 0. -1.
         -3    1    3    3    0  502  0.15728875419E+03  0.30592571524E+02  0.62154092896E+03  0.64186352444E+03  0.00000000000E+00 0.  1.
         13    1    5    5    0    0 -0.72281060539E+02  0.56090305607E+00  0.17495061714E+01  0.72304405790E+02  0.00000000000E+00 0.  1.
        -13    1    5    5    0    0 -0.53034144354E+03 -0.15031257959E+03 -0.18233834795E+03  0.58060588307E+03  0.00000000000E+00 0. -1.
          3    1    6    6  503    0  0.20709465562E+02  0.98883980335E+01 -0.20420499569E+03  0.20549049283E+03  0.00000000000E+00 0. -1.
         -3    1    6    6    0  503  0.16152383945E+01 -0.11193356715E+03 -0.62377247055E+03  0.63373798014E+03  0.00000000000E+00 0.  1.
<mgrwt>
<rscale>  0 0.37946801E+04</rscale>
<asrwt>0</asrwt>
<pdfrwt beam="1">  1        2 0.42924739E+00 0.37946801E+04</pdfrwt>
<pdfrwt beam="2">  1       -1 0.19849792E+00 0.37946801E+04</pdfrwt>
<totfact> 0.32920033E-01</totfact>
</mgrwt>
</event>
<event>
12    7  0.1909736E-007  0.3005732E+04  0.7818608E-02  0.8242096E-01
          2   -1    0    0  501    0  0.00000000000E+00  0.00000000000E+00  0.15027886892E+04  0.15027886892E+04  0.00000000000E+00 0. -1.
         -1   -1    0    0    0  501 -0.00000000000E+00 -0.00000000000E+00 -0.15029431110E+04  0.15029431110E+04  0.00000000000E+00 0.  1.
         24    2    1    2    0    0  0.49080651407E+03 -0.63849743789E+03  0.10967972404E+04  0.13628240850E+04  0.75863611724E+02 0.  0.
        254    2    1    2    0    0 -0.49080651407E+03  0.63849743789E+03 -0.10969516622E+04  0.16429077153E+04  0.92047422518E+03 0.  0.
         23    2    4    4    0    0  0.95267688104E+01 -0.11677603424E+03 -0.57220987651E+03  0.59211818151E+03  0.97223436501E+02 0.  0.
         23    2    4    4    0    0 -0.50033328288E+03  0.75527347214E+03 -0.52474178570E+03  0.10507895338E+04  0.89628627790E+02 0.  0.
          4    1    3    3  502    0  0.29272121759E+03 -0.37643190077E+03  0.71119058258E+03  0.85625856603E+03  0.00000000000E+00 0. -1.
         -3    1    3    3    0  502  0.19808529648E+03 -0.26206553712E+03  0.38560665781E+03  0.50656551893E+03  0.00000000000E+00 0.  1.
         13    1    5    5    0    0 -0.15844497901E+01 -0.18343673365E+02 -0.94287733230E+01  0.20685806729E+02  0.00000000000E+00 0. -1.
        -13    1    5    5    0    0  0.11111218600E+02 -0.98432360879E+02 -0.56278110319E+03  0.57143237478E+03  0.00000000000E+00 0.  1.
          4    1    6    6  503    0 -0.10231226492E+03  0.22666681441E+03 -0.14360998306E+03  0.28717498419E+03  0.00000000000E+00 0. -1.
         -4    1    6    6    0  503 -0.39802101795E+03  0.52860665772E+03 -0.38113180264E+03  0.76361454957E+03  0.00000000000E+00 0.  1.
<mgrwt>
<rscale>  0 0.30057318E+04</rscale>
<asrwt>0</asrwt>
<pdfrwt beam="1">  1        2 0.23119826E+00 0.30057318E+04</pdfrwt>
<pdfrwt beam="2">  1       -1 0.23122202E+00 0.30057318E+04</pdfrwt>
<totfact> 0.11415998E+00</totfact>
</mgrwt>
</event>
<event>
12    7  0.1909736E-007  0.1998096E+04  0.7818608E-02  0.8607511E-01
         -3   -1    0    0    0  501 -0.00000000000E+00  0.00000000000E+00  0.48245458796E+03  0.48245458796E+03  0.00000000000E+00 0.  1.
          2   -1    0    0  501    0  0.00000000000E+00 -0.00000000000E+00 -0.20687899491E+04  0.20687899491E+04  0.00000000000E+00 0. -1.
         24    2    1    2    0    0  0.60355656629E+03 -0.41933226798E+03 -0.10331573209E+04  0.12704159440E+04  0.80140759541E+02 0.  0.
        254    2    1    2    0    0 -0.60355656629E+03  0.41933226798E+03 -0.55317804016E+03  0.12808285930E+04  0.89128887620E+03 0.  0.
         23    2    4    4    0    0 -0.21295642398E+03  0.44012569256E+03 -0.69575515123E+03  0.85534685854E+03  0.92097525462E+02 0.  0.
         23    2    4    4    0    0 -0.39060014231E+03 -0.20793424581E+02  0.14257711107E+03  0.42548173445E+03  0.87781752510E+02 0.  0.
          4    1    3    3  502    0  0.41220304154E+03 -0.31258491651E+03 -0.67316006000E+03  0.84897888305E+03  0.00000000000E+00 0. -1.
         -3    1    3    3    0  502  0.19135352475E+03 -0.10674735147E+03 -0.35999726093E+03  0.42143706097E+03  0.00000000000E+00 0.  1.
         13    1    5    5    0    0 -0.14498041334E+02  0.36621936480E+02 -0.11038156076E+03  0.11719832930E+03  0.00000000000E+00 0. -1.
        -13    1    5    5    0    0 -0.19845838265E+03  0.40350375608E+03 -0.58537359046E+03  0.73814852924E+03  0.00000000000E+00 0.  1.
          1    1    6    6  503    0 -0.35304567087E+03 -0.40480820351E+02  0.10994998340E+03  0.37197975938E+03  0.00000000000E+00 0. -1.
         -1    1    6    6    0  503 -0.37554471440E+02  0.19687395769E+02  0.32627127662E+02  0.53501975074E+02  0.00000000000E+00 0.  1.
<mgrwt>
<rscale>  0 0.19980963E+04</rscale>
<asrwt>0</asrwt>
<pdfrwt beam="1">  1        2 0.31827538E+00 0.19980963E+04</pdfrwt>
<pdfrwt beam="2">  1       -3 0.74223783E-01 0.19980963E+04</pdfrwt>
<totfact> 0.62447041E+00</totfact>
</mgrwt>
</event>
<event>
12    7  0.1909736E-007  0.2157070E+04  0.7818608E-02  0.8536512E-01
          2   -1    0    0  501    0  0.00000000000E+00  0.00000000000E+00  0.20792820814E+04  0.20792820814E+04  0.00000000000E+00 0. -1.
         -1   -1    0    0    0  501 -0.00000000000E+00 -0.00000000000E+00 -0.55944225668E+03  0.55944225668E+03  0.00000000000E+00 0.  1.
         24    2    1    2    0    0 -0.12131137019E+03 -0.16763770127E+03 -0.43025365477E+03  0.48359139691E+03  0.76964825067E+02 0.  0.
        254    2    1    2    0    0  0.12131137019E+03  0.16763770127E+03  0.19500934794E+04  0.21551329411E+04  0.89382021007E+03 0.  0.
         23    2    4    4    0    0 -0.23478901872E+03 -0.70915970239E+02  0.14766441675E+03  0.30016730220E+03  0.90225668100E+02 0.  0.
         23    2    4    4    0    0  0.35610038891E+03  0.23855367151E+03  0.18024290627E+04  0.18549656389E+04  0.91824040404E+02 0.  0.
          2    1    3    3  502    0 -0.74213293883E+02 -0.39794832884E+02 -0.15175762092E+03  0.17355580434E+03  0.00000000000E+00 0. -1.
         -1    1    3    3    0  502 -0.47098076304E+02 -0.12784286838E+03 -0.27849603385E+03  0.31003559256E+03  0.00000000000E+00 0.  1.
         13    1    5    5    0    0 -0.69056626524E+01 -0.28649356385E+02  0.19254424907E+02  0.35202367483E+02  0.00000000000E+00 0. -1.
        -13    1    5    5    0    0 -0.22788335607E+03 -0.42266613853E+02  0.12840999185E+03  0.26496493471E+03  0.00000000000E+00 0.  1.
          3    1    6    6  503    0  0.54349095512E+02  0.80861788371E+02  0.43682926394E+03  0.44756257533E+03  0.00000000000E+00 0. -1.
         -3    1    6    6    0  503  0.30175129340E+03  0.15769188314E+03  0.13655997988E+04  0.14074030636E+04  0.00000000000E+00 0.  1.
<mgrwt>
<rscale>  0 0.21570705E+04</rscale>
<asrwt>0</asrwt>
<pdfrwt beam="1">  1        2 0.31988955E+00 0.21570705E+04</pdfrwt>
<pdfrwt beam="2">  1       -1 0.86068040E-01 0.21570705E+04</pdfrwt>
<totfact> 0.83941750E+00</totfact>
</mgrwt>
</event>
<event>
12    7  0.1909736E-007  0.1402457E+04  0.7818608E-02  0.8952042E-01
         -1   -1    0    0    0  501 -0.00000000000E+00  0.00000000000E+00  0.30330427962E+03  0.30330427962E+03  0.00000000000E+00 0.  1.
          2   -1    0    0  501    0  0.00000000000E+00 -0.00000000000E+00 -0.16212152277E+04  0.16212152277E+04  0.00000000000E+00 0. -1.
         24    2    1    2    0    0  0.24576057090E+03 -0.20550804868E+03 -0.74862090232E+03  0.81808539920E+03  0.78731497513E+02 0.  0.
        254    2    1    2    0    0 -0.24576057090E+03  0.20550804868E+03 -0.56929004577E+03  0.11064341081E+04  0.89301369706E+03 0.  0.
         23    2    4    4    0    0  0.20771967643E+03 -0.20677121900E+03 -0.30494483257E+03  0.43295680770E+03  0.92511866515E+02 0.  0.
         23    2    4    4    0    0 -0.45348024734E+03  0.41227926768E+03 -0.26434521320E+03  0.67347730043E+03  0.89859630329E+02 0.  0.
          4    1    3    3  502    0  0.24998948121E+03 -0.19090011979E+03 -0.71886931237E+03  0.78467234227E+03  0.00000000000E+00 0. -1.
         -3    1    3    3    0  502 -0.42289103001E+01 -0.14607928890E+02 -0.29751589953E+02  0.33413056931E+02  0.00000000000E+00 0.  1.
         13    1    5    5    0    0  0.24641490691E+02 -0.42840608808E+02 -0.12517978595E+02  0.50982552060E+02  0.00000000000E+00 0.  1.
        -13    1    5    5    0    0  0.18307818574E+03 -0.16393061019E+03 -0.29242685397E+03  0.38197425564E+03  0.00000000000E+00 0. -1.
          3    1    6    6  503    0 -0.40848625404E+03  0.37164774757E+03 -0.20624893785E+03  0.58950970507E+03  0.00000000000E+00 0. -1.
         -3    1    6    6    0  503 -0.44993993297E+02  0.40631520118E+02 -0.58096275356E+02  0.83967595358E+02  0.00000000000E+00 0.  1.
<mgrwt>
<rscale>  0 0.14024572E+04</rscale>
<asrwt>0</asrwt>
<pdfrwt beam="1">  1        2 0.24941773E+00 0.14024572E+04</pdfrwt>
<pdfrwt beam="2">  1       -1 0.46662197E-01 0.14024572E+04</pdfrwt>
<totfact> 0.55038691E+01</totfact>
</mgrwt>
</event>
<event>
12    7  0.1909736E-007  0.1979797E+04  0.7818608E-02  0.8616125E-01
          2   -1    0    0  501    0  0.00000000000E+00  0.00000000000E+00  0.19520716632E+04  0.19520716632E+04  0.00000000000E+00 0. -1.
         -1   -1    0    0    0  501 -0.00000000000E+00 -0.00000000000E+00 -0.50197901267E+03  0.50197901267E+03  0.00000000000E+00 0.  1.
         24    2    1    2    0    0  0.40604861088E+03  0.66863666719E+03  0.66762217520E+03  0.10314022447E+04  0.78235251116E+02 0.  0.
        254    2    1    2    0    0 -0.40604861088E+03 -0.66863666719E+03  0.78247047531E+03  0.14226484311E+04  0.89426956043E+03 0.  0.
         23    2    4    4    0    0  0.28823312901E+02 -0.73165794506E+03  0.51232018681E+03  0.89865483145E+03  0.94627693354E+02 0.  0.
         23    2    4    4    0    0 -0.43487192378E+03  0.63021277868E+02  0.27015028850E+03  0.52399359966E+03  0.92210859192E+02 0.  0.
          4    1    3    3  502    0  0.14534441282E+03  0.17273289661E+03  0.18205325518E+03  0.29000868889E+03  0.00000000000E+00 0. -1.
         -3    1    3    3    0  502  0.26070419806E+03  0.49590377058E+03  0.48556892002E+03  0.74139355584E+03  0.00000000000E+00 0.  1.
         13    1    5    5    0    0  0.17044488162E+02 -0.26904139013E+03  0.24470191740E+03  0.36407803087E+03  0.00000000000E+00 0. -1.
        -13    1    5    5    0    0  0.11778824739E+02 -0.46261655492E+03  0.26761826941E+03  0.53457680058E+03  0.00000000000E+00 0.  1.
          2    1    6    6  503    0 -0.38306927612E+03  0.45410645156E+02  0.19845918983E+03  0.43380899833E+03  0.00000000000E+00 0. -1.
         -2    1    6    6    0  503 -0.51802647655E+02  0.17610632712E+02  0.71691098672E+02  0.90184601332E+02  0.00000000000E+00 0.  1.
<mgrwt>
<rscale>  0 0.19797970E+04</rscale>
<asrwt>0</asrwt>
<pdfrwt beam="1">  1        2 0.30031871E+00 0.19797970E+04</pdfrwt>
<pdfrwt beam="2">  1       -1 0.77227542E-01 0.19797970E+04</pdfrwt>
<totfact> 0.12654132E+01</totfact>
</mgrwt>
</event>
<event>
12    7  0.1909736E-007  0.1735086E+04  0.7818608E-02  0.8741603E-01
         -1   -1    0    0    0  501 -0.00000000000E+00  0.00000000000E+00  0.59160822288E+03  0.59160822288E+03  0.00000000000E+00 0.  1.
          2   -1    0    0  501    0  0.00000000000E+00 -0.00000000000E+00 -0.12721780261E+04  0.12721780261E+04  0.00000000000E+00 0. -1.
         24    2    1    2    0    0 -0.41568028618E+02 -0.57315867404E+03  0.29338927908E+02  0.58096471486E+03  0.80127776626E+02 0.  0.
        254    2    1    2    0    0  0.41568028618E+02  0.57315867404E+03 -0.70990873114E+03  0.12828215341E+04  0.90078960655E+03 0.  0.
         23    2    4    4    0    0 -0.20268898753E+03 -0.86071629334E+02 -0.48330210577E+03  0.53892571678E+03  0.91481428289E+02 0.  0.
         23    2    4    4    0    0  0.24425701615E+03  0.65923030337E+03 -0.22660662537E+03  0.74389581736E+03  0.88228915864E+02 0.  0.
          4    1    3    3  502    0  0.20727581790E+02 -0.16154156832E+03  0.24009668176E+02  0.16462616775E+03  0.00000000000E+00 0. -1.
         -3    1    3    3    0  502 -0.62295610408E+02 -0.41161710572E+03  0.53292597322E+01  0.41633854711E+03  0.00000000000E+00 0.  1.
         13    1    5    5    0    0 -0.11644750976E+03 -0.67695376388E+02 -0.19174549693E+03  0.23432674220E+03  0.00000000000E+00 0.  1.
        -13    1    5    5    0    0 -0.86241477767E+02 -0.18376252946E+02 -0.29155660884E+03  0.30459897459E+03  0.00000000000E+00 0. -1.
          2    1    6    6  503    0  0.12738954584E+03  0.22355165089E+03 -0.89924517883E+02  0.27256165526E+03  0.00000000000E+00 0. -1.
         -2    1    6    6    0  503  0.11686747031E+03  0.43567865249E+03 -0.13668210748E+03  0.47133416209E+03  0.00000000000E+00 0.  1.
<mgrwt>
<rscale>  0 0.17350861E+04</rscale>
<asrwt>0</asrwt>
<pdfrwt beam="1">  1        2 0.19571969E+00 0.17350861E+04</pdfrwt>
<pdfrwt beam="2">  1       -1 0.91016651E-01 0.17350861E+04</pdfrwt>
<totfact> 0.21880263E+01</totfact>
</mgrwt>
</event>
<event>
12    7  0.1909736E-007  0.1211736E+04  0.7818608E-02  0.9102645E-01
         -1   -1    0    0    0  501 -0.00000000000E+00  0.00000000000E+00  0.66529015038E+03  0.66529015038E+03  0.00000000000E+00 0.  1.
          2   -1    0    0  501    0  0.00000000000E+00 -0.00000000000E+00 -0.55175356044E+03  0.55175356044E+03  0.00000000000E+00 0. -1.
         24    2    1    2    0    0  0.18904368931E+03  0.17829751402E+03 -0.80870716489E+01  0.27090437170E+03  0.76133159048E+02 0.  0.
        254    2    1    2    0    0 -0.18904368931E+03 -0.17829751402E+03  0.12162366158E+03  0.94613933911E+03  0.90158738566E+03 0.  0.
         23    2    4    4    0    0 -0.49648139501E+03 -0.10803166137E+02  0.24902937138E+03  0.56285800904E+03  0.90460082553E+02 0.  0.
         23    2    4    4    0    0  0.30743770571E+03 -0.16749434789E+03 -0.12740570980E+03  0.38328133008E+03  0.90000353507E+02 0.  0.
          4    1    3    3  502    0  0.91663350167E+02  0.13722381679E+03 -0.18680930511E+01  0.16503343730E+03  0.00000000000E+00 0. -1.
         -3    1    3    3    0  502  0.97380339140E+02  0.41073697239E+02 -0.62189785978E+01  0.10587093440E+03  0.00000000000E+00 0.  1.
         13    1    5    5    0    0 -0.31055408860E+03 -0.33330945697E+01  0.10600310058E+03  0.32816399680E+03  0.00000000000E+00 0. -1.
        -13    1    5    5    0    0 -0.18592730642E+03 -0.74700715675E+01  0.14302627081E+03  0.23469401224E+03  0.00000000000E+00 0.  1.
          4    1    6    6  503    0  0.14466192458E+03 -0.99853217876E+02 -0.20112116502E+02  0.17692437586E+03  0.00000000000E+00 0. -1.
         -4    1    6    6    0  503  0.16277578113E+03 -0.67641130011E+02 -0.10729359330E+03  0.20635695422E+03  0.00000000000E+00 0.  1.
<mgrwt>
<rscale>  0 0.12117363E+04</rscale>
<asrwt>0</asrwt>
<pdfrwt beam="1">  1        2 0.84885163E-01 0.12117363E+04</pdfrwt>
<pdfrwt beam="2">  1       -1 0.10235233E+00 0.12117363E+04</pdfrwt>
<totfact> 0.55877349E+01</totfact>
</mgrwt>
</event>
<event>
12    7  0.1909736E-007  0.3584769E+04  0.7818608E-02  0.8093990E-01
         -1   -1    0    0    0  501 -0.00000000000E+00  0.00000000000E+00  0.13537434824E+04  0.13537434824E+04  0.00000000000E+00 0.  1.
          2   -1    0    0  501    0  0.00000000000E+00 -0.00000000000E+00 -0.23731538691E+04  0.23731538691E+04  0.00000000000E+00 0. -1.
         24    2    1    2    0    0  0.50012852486E+03  0.15270774685E+04  0.25575320216E+02  0.16089904201E+04  0.78114909128E+02 0.  0.
        254    2    1    2    0    0 -0.50012852486E+03 -0.15270774685E+04 -0.10449857069E+04  0.21179069313E+04  0.90079992558E+03 0.  0.
         23    2    4    4    0    0  0.22315782589E+03 -0.31163817249E+03 -0.39743695603E+03  0.55967406415E+03  0.91439369282E+02 0.  0.
         23    2    4    4    0    0 -0.72328635075E+03 -0.12154392960E+04 -0.64754875089E+03  0.15582328672E+04  0.91293242465E+02 0.  0.
          4    1    3    3  502    0  0.35042044785E+03  0.11125758529E+04  0.50788689374E+02  0.11675611374E+04  0.00000000000E+00 0. -1.
         -3    1    3    3    0  502  0.14970807701E+03  0.41450161560E+03 -0.25213369158E+02  0.44142928272E+03  0.00000000000E+00 0.  1.
         13    1    5    5    0    0 -0.42567277362E+01 -0.30630528806E+02 -0.18866344258E+02  0.36225515478E+02  0.00000000000E+00 0. -1.
        -13    1    5    5    0    0  0.22741455362E+03 -0.28100764369E+03 -0.37857061177E+03  0.52344854867E+03  0.00000000000E+00 0.  1.
          2    1    6    6  503    0 -0.38535268214E+03 -0.73480078891E+03 -0.37285037853E+03  0.90964074985E+03  0.00000000000E+00 0. -1.
         -2    1    6    6    0  503 -0.33793366861E+03 -0.48063850707E+03 -0.27469837236E+03  0.64859211731E+03  0.00000000000E+00 0.  1.
<mgrwt>
<rscale>  0 0.35847687E+04</rscale>
<asrwt>0</asrwt>
<pdfrwt beam="1">  1        2 0.36510059E+00 0.35847687E+04</pdfrwt>
<pdfrwt beam="2">  1       -1 0.20826823E+00 0.35847687E+04</pdfrwt>
<totfact> 0.50463879E-01</totfact>
</mgrwt>
</event>
<event>
12    7  0.1909736E-007  0.1753573E+04  0.7818608E-02  0.8731386E-01
          2   -1    0    0  501    0  0.00000000000E+00  0.00000000000E+00  0.64417327922E+03  0.64417327922E+03  0.00000000000E+00 0. -1.
         -1   -1    0    0    0  501 -0.00000000000E+00 -0.00000000000E+00 -0.11933969648E+04  0.11933969648E+04  0.00000000000E+00 0.  1.
         24    2    1    2    0    0  0.48281642126E+03 -0.36329204017E+03 -0.45636152748E+03  0.76144001854E+03  0.80201340274E+02 0.  0.
        254    2    1    2    0    0 -0.48281642126E+03  0.36329204017E+03 -0.92862158077E+02  0.10761302255E+04  0.88562976387E+03 0.  0.
         23    2    4    4    0    0 -0.44322818433E+03  0.60900797632E+02 -0.41929901082E+03  0.62019454962E+03  0.93110087374E+02 0.  0.
         23    2    4    4    0    0 -0.39588236929E+02  0.30239124254E+03  0.32643685274E+03  0.45593567584E+03  0.91151684634E+02 0.  0.
          2    1    3    3  502    0  0.13418025896E+03 -0.14233567510E+03 -0.12511251375E+03  0.23220018819E+03  0.00000000000E+00 0. -1.
         -1    1    3    3    0  502  0.34863616230E+03 -0.22095636507E+03 -0.33124901373E+03  0.52923983035E+03  0.00000000000E+00 0.  1.
         13    1    5    5    0    0 -0.22714269813E+02  0.22361030274E+02 -0.49556991264E+02  0.58922399061E+02  0.00000000000E+00 0. -1.
        -13    1    5    5    0    0 -0.42051391452E+03  0.38539767358E+02 -0.36974201955E+03  0.56127215056E+03  0.00000000000E+00 0.  1.
          3    1    6    6  503    0 -0.12729744967E+02  0.68321093331E+02  0.13699249468E+03  0.15361237515E+03  0.00000000000E+00 0. -1.
         -3    1    6    6    0  503 -0.26858491962E+02  0.23407014921E+03  0.18944435806E+03  0.30232330069E+03  0.00000000000E+00 0.  1.
<mgrwt>
<rscale>  0 0.17535729E+04</rscale>
<asrwt>0</asrwt>
<pdfrwt beam="1">  1        2 0.99103582E-01 0.17535729E+04</pdfrwt>
<pdfrwt beam="2">  1       -1 0.18359953E+00 0.17535729E+04</pdfrwt>
<totfact> 0.96490275E+00</totfact>
</mgrwt>
</event>
<event>
12    7  0.2556471E-007  0.2732990E+04  0.7818608E-02  0.8324380E-01
         -1   -1    0    0    0  501 -0.00000000000E+00  0.00000000000E+00  0.13899376508E+04  0.13899376508E+04  0.00000000000E+00 0.  1.
          2   -1    0    0  501    0  0.00000000000E+00 -0.00000000000E+00 -0.13434476677E+04  0.13434476677E+04  0.00000000000E+00 0. -1.
         24    2    1    2    0    0  0.79717346449E+03 -0.72681947844E+03  0.46218372695E+03  0.11763640217E+04  0.80414099319E+02 0.  0.
        254    2    1    2    0    0 -0.79717346449E+03  0.72681947844E+03 -0.41569374386E+03  0.15570212969E+04  0.10429582655E+04 0.  0.
         23    2    4    4    0    0 -0.76258821861E+02  0.25099065511E+03 -0.60710745354E+03  0.66768347681E+03  0.91706314909E+02 0.  0.
         23    2    4    4    0    0 -0.72091464263E+03  0.47582882333E+03  0.19141370968E+03  0.88933782008E+03  0.90285983940E+02 0.  0.
          4    1    3    3  502    0  0.38506218860E+03 -0.39660407653E+03  0.26028661437E+03  0.61099656646E+03  0.00000000000E+00 0. -1.
         -3    1    3    3    0  502  0.41211127589E+03 -0.33021540191E+03  0.20189711258E+03  0.56536745524E+03  0.00000000000E+00 0.  1.
         13    1    5    5    0    0 -0.91041129358E+02  0.24527166571E+03 -0.58013533690E+03  0.63639899934E+03  0.00000000000E+00 0. -1.
        -13    1    5    5    0    0  0.14782307497E+02  0.57189894008E+01 -0.26972116642E+02  0.31284477475E+02  0.00000000000E+00 0.  1.
          3    1    6    6  503    0 -0.54827017054E+03  0.37134722166E+03  0.18452710294E+03  0.68742213425E+03  0.00000000000E+00 0. -1.
         -3    1    6    6    0  503 -0.17264447209E+03  0.10448160167E+03  0.68866067464E+01  0.20191568583E+03  0.00000000000E+00 0.  1.
<mgrwt>
<rscale>  0 0.27329899E+04</rscale>
<asrwt>0</asrwt>
<pdfrwt beam="1">  1        2 0.20668426E+00 0.27329899E+04</pdfrwt>
<pdfrwt beam="2">  1       -1 0.21383656E+00 0.27329899E+04</pdfrwt>
<totfact> 0.18824091E+00</totfact>
</mgrwt>
</event>
<event>
12    7  0.1909736E-007  0.2789560E+04  0.7818608E-02  0.8306517E-01
         -1   -1    0    0    0  501 -0.00000000000E+00  0.00000000000E+00  0.15246564876E+04  0.15246564876E+04  0.00000000000E+00 0.  1.
          2   -1    0    0  501    0  0.00000000000E+00 -0.00000000000E+00 -0.12759665792E+04  0.12759665792E+04  0.00000000000E+00 0. -1.
         24    2    1    2    0    0  0.71757809197E+03  0.80060545473E+02  0.11359472842E+04  0.13483963928E+04  0.80427549369E+02 0.  0.
        254    2    1    2    0    0 -0.71757809197E+03 -0.80060545473E+02 -0.88725737580E+03  0.14522266740E+04  0.89465560563E+03 0.  0.
         23    2    4    4    0    0 -0.51660124835E+02 -0.38353417460E+03 -0.20330183750E+03  0.44644092297E+03  0.90612521123E+02 0.  0.
         23    2    4    4    0    0 -0.66591796714E+03  0.30347362913E+03 -0.68395553829E+03  0.10057857510E+04  0.90922032709E+02 0.  0.
          4    1    3    3  502    0  0.31683386638E+02  0.11480939038E+02  0.86275584909E+02  0.92623568823E+02  0.00000000000E+00 0. -1.
         -3    1    3    3    0  502  0.68589470534E+03  0.68579606435E+02  0.10496716993E+04  0.12557728240E+04  0.00000000000E+00 0.  1.
         13    1    5    5    0    0 -0.57690108038E+02 -0.38642502427E+03 -0.19876970791E+03  0.43836268629E+03  0.00000000000E+00 0.  1.
        -13    1    5    5    0    0  0.60299832033E+01  0.28908496679E+01 -0.45321295890E+01  0.80782366793E+01  0.00000000000E+00 0. -1.
          4    1    6    6  503    0 -0.49550288667E+03  0.25200558522E+03 -0.55848308349E+03  0.78799319808E+03  0.00000000000E+00 0.  1.
         -4    1    6    6    0  503 -0.17041508047E+03  0.51468043909E+02 -0.12547245480E+03  0.21779255293E+03  0.00000000000E+00 0. -1.
<mgrwt>
<rscale>  0 0.27895596E+04</rscale>
<asrwt>0</asrwt>
<pdfrwt beam="1">  1        2 0.19630255E+00 0.27895596E+04</pdfrwt>
<pdfrwt beam="2">  1       -1 0.23456254E+00 0.27895596E+04</pdfrwt>
<totfact> 0.14917254E+00</totfact>
</mgrwt>
</event>
<event>
12    7  0.1909736E-007  0.2209900E+04  0.7818608E-02  0.8514319E-01
         -1   -1    0    0    0  501 -0.00000000000E+00  0.00000000000E+00  0.43786474888E+03  0.43786474888E+03  0.00000000000E+00 0.  1.
          2   -1    0    0  501    0  0.00000000000E+00 -0.00000000000E+00 -0.27883362713E+04  0.27883362713E+04  0.00000000000E+00 0. -1.
         24    2    1    2    0    0 -0.15454440871E+03  0.52870364687E+03 -0.20643046920E+04  0.21380275568E+04  0.79977821267E+02 0.  0.
        254    2    1    2    0    0  0.15454440871E+03 -0.52870364687E+03 -0.28616683046E+03  0.10881734634E+04  0.89376647458E+03 0.  0.
         23    2    4    4    0    0 -0.51697093875E+02  0.14853762074E+03  0.16566374379E+03  0.24379418173E+03  0.85176949637E+02 0.  0.
         23    2    4    4    0    0  0.20624150258E+03 -0.67724126761E+03 -0.45183057425E+03  0.84437928166E+03  0.87373975128E+02 0.  0.
          4    1    3    3  502    0 -0.77554278889E+02  0.36438980287E+03 -0.12880058428E+04  0.13408033583E+04  0.00000000000E+00 0. -1.
         -3    1    3    3    0  502 -0.76990129820E+02  0.16431384399E+03 -0.77629884915E+03  0.79722419846E+03  0.00000000000E+00 0.  1.
         13    1    5    5    0    0  0.21989664841E+02  0.19090851496E+02  0.19087941882E+02  0.34818895674E+02  0.00000000000E+00 0. -1.
        -13    1    5    5    0    0 -0.73686758717E+02  0.12944676924E+03  0.14657580190E+03  0.20897528605E+03  0.00000000000E+00 0.  1.
          1    1    6    6  503    0  0.55756940518E+01 -0.13458802344E+03 -0.81436793370E+02  0.15740703838E+03  0.00000000000E+00 0. -1.
         -1    1    6    6    0  503  0.20066580853E+03 -0.54265324416E+03 -0.37039378088E+03  0.68697224327E+03  0.00000000000E+00 0.  1.
<mgrwt>
<rscale>  0 0.22098997E+04</rscale>
<asrwt>0</asrwt>
<pdfrwt beam="1">  1        2 0.42897480E+00 0.22098997E+04</pdfrwt>
<pdfrwt beam="2">  1       -1 0.67363810E-01 0.22098997E+04</pdfrwt>
<totfact> 0.54546721E+00</totfact>
</mgrwt>
</event>
<event>
12    7  0.1909736E-007  0.1390914E+04  0.7818608E-02  0.8960422E-01
          2   -1    0    0  501    0  0.00000000000E+00  0.00000000000E+00  0.58067523793E+03  0.58067523793E+03  0.00000000000E+00 0. -1.
         -1   -1    0    0    0  501 -0.00000000000E+00 -0.00000000000E+00 -0.83292722157E+03  0.83292722157E+03  0.00000000000E+00 0.  1.
         24    2    1    2    0    0  0.11298143669E+03 -0.19618202106E+03  0.25645075861E+03  0.35126690315E+03  0.79807613879E+02 0.  0.
        254    2    1    2    0    0 -0.11298143669E+03  0.19618202106E+03 -0.50870274225E+03  0.10623355564E+04  0.90472435797E+03 0.  0.
         23    2    4    4    0    0 -0.27456841133E+03  0.10975895090E+03 -0.71056625955E+03  0.77512451686E+03  0.92080223916E+02 0.  0.
         23    2    4    4    0    0  0.16158697464E+03  0.86423070156E+02  0.20186351730E+03  0.28721103949E+03  0.90343810871E+02 0.  0.
          2    1    3    3  502    0  0.53380856657E+02 -0.12406332192E+03  0.20207285961E+03  0.24305280146E+03  0.00000000000E+00 0. -1.
         -1    1    3    3    0  502  0.59600580030E+02 -0.72118699142E+02  0.54377898992E+02  0.10821410169E+03  0.00000000000E+00 0.  1.
         13    1    5    5    0    0 -0.17045182550E+03  0.68166967671E+02 -0.54567543244E+03  0.57572757261E+03  0.00000000000E+00 0.  1.
        -13    1    5    5    0    0 -0.10411658583E+03  0.41591983233E+02 -0.16489082711E+03  0.19939694425E+03  0.00000000000E+00 0. -1.
          2    1    6    6  503    0  0.11576116685E+03  0.14703509970E+02  0.13849480707E+03  0.18110122181E+03  0.00000000000E+00 0. -1.
         -2    1    6    6    0  503  0.45825807792E+02  0.71719560186E+02  0.63368710226E+02  0.10610981768E+03  0.00000000000E+00 0.  1.
<mgrwt>
<rscale>  0 0.13909137E+04</rscale>
<asrwt>0</asrwt>
<pdfrwt beam="1">  1        2 0.89334651E-01 0.13909137E+04</pdfrwt>
<pdfrwt beam="2">  1       -1 0.12814265E+00 0.13909137E+04</pdfrwt>
<totfact> 0.30211866E+01</totfact>
</mgrwt>
</event>
<event>
12    7  0.1909736E-007  0.1111890E+04  0.7818608E-02  0.9193680E-01
          2   -1    0    0  501    0  0.00000000000E+00  0.00000000000E+00  0.18214966603E+04  0.18214966603E+04  0.00000000000E+00 0. -1.
         -1   -1    0    0    0  501 -0.00000000000E+00 -0.00000000000E+00 -0.16968187984E+03  0.16968187984E+03  0.00000000000E+00 0.  1.
         24    2    1    2    0    0 -0.18258744079E+03  0.44219342351E+02  0.33001706303E+03  0.38795530873E+03  0.79401107738E+02 0.  0.
        254    2    1    2    0    0  0.18258744079E+03 -0.44219342351E+02  0.13217977175E+04  0.16032232314E+04  0.88762717407E+03 0.  0.
         23    2    4    4    0    0 -0.66463107968E+02 -0.39877495541E+03  0.37899443497E+03  0.56159260966E+03  0.91162863605E+02 0.  0.
         23    2    4    4    0    0  0.24905054876E+03  0.35455561306E+03  0.94280328251E+03  0.10416306218E+04  0.91544875095E+02 0.  0.
          4    1    3    3  502    0 -0.17967507533E+03  0.58769898982E+02  0.30316879524E+03  0.35727909557E+03  0.00000000000E+00 0. -1.
         -3    1    3    3    0  502 -0.29123654584E+01 -0.14550556631E+02  0.26848267790E+02  0.30676213165E+02  0.00000000000E+00 0.  1.
         13    1    5    5    0    0 -0.46484511307E+01 -0.18830279969E+02  0.55438207695E+02  0.58733145787E+02  0.00000000000E+00 0.  1.
        -13    1    5    5    0    0 -0.61814656837E+02 -0.37994467544E+03  0.32355622728E+03  0.50285946387E+03  0.00000000000E+00 0. -1.
          1    1    6    6  503    0  0.14665344210E+03  0.28031305332E+03  0.67004138531E+03  0.74097105070E+03  0.00000000000E+00 0. -1.
         -1    1    6    6    0  503  0.10239710665E+03  0.74242559743E+02  0.27276189719E+03  0.30065957109E+03  0.00000000000E+00 0.  1.
<mgrwt>
<rscale>  0 0.11118902E+04</rscale>
<asrwt>0</asrwt>
<pdfrwt beam="1">  1        2 0.28023024E+00 0.11118902E+04</pdfrwt>
<pdfrwt beam="2">  1       -1 0.26104906E-01 0.11118902E+04</pdfrwt>
<totfact> 0.12345052E+02</totfact>
</mgrwt>
</event>
<event>
12    7  0.1909736E-007  0.1120155E+04  0.7818608E-02  0.9185767E-01
         -3   -1    0    0    0  501 -0.00000000000E+00  0.00000000000E+00  0.92108313046E+02  0.92108313046E+02  0.00000000000E+00 0.  1.
          2   -1    0    0  501    0  0.00000000000E+00 -0.00000000000E+00 -0.34056315269E+04  0.34056315269E+04  0.00000000000E+00 0. -1.
         24    2    1    2    0    0 -0.15130739586E+03 -0.11155599697E+03 -0.56536826546E+03  0.60096828474E+03  0.78631642306E+02 0.  0.
        254    2    1    2    0    0  0.15130739586E+03  0.11155599697E+03 -0.27481549484E+04  0.28967715552E+04  0.89643245934E+03 0.  0.
         23    2    4    4    0    0 -0.36289369217E+03  0.68369282169E+02 -0.93377767496E+03  0.10083143631E+04  0.91601954603E+02 0.  0.
         23    2    4    4    0    0  0.51420108803E+03  0.43186714803E+02 -0.18143772734E+04  0.18884571920E+04  0.89653916037E+02 0.  0.
          2    1    3    3  502    0 -0.24685780572E+02 -0.59155697883E+02 -0.22776627344E+03  0.23661415780E+03  0.00000000000E+00 0. -1.
         -1    1    3    3    0  502 -0.12662161529E+03 -0.52400299089E+02 -0.33760199202E+03  0.36435412694E+03  0.00000000000E+00 0.  1.
         13    1    5    5    0    0 -0.28583470273E+03  0.34162865105E+02 -0.79967284466E+03  0.84990895814E+03  0.00000000000E+00 0.  1.
        -13    1    5    5    0    0 -0.77058989443E+02  0.34206417063E+02 -0.13410483030E+03  0.15840540499E+03  0.00000000000E+00 0. -1.
          3    1    6    6  503    0  0.16400135575E+03 -0.27193754448E+02 -0.54688409474E+03  0.57159265045E+03  0.00000000000E+00 0. -1.
         -3    1    6    6    0  503  0.35019973229E+03  0.70380469251E+02 -0.12674931787E+04  0.13168645416E+04  0.00000000000E+00 0.  1.
<mgrwt>
<rscale>  0 0.11201553E+04</rscale>
<asrwt>0</asrwt>
<pdfrwt beam="1">  1        2 0.52394318E+00 0.11201553E+04</pdfrwt>
<pdfrwt beam="2">  1       -3 0.14170513E-01 0.11201553E+04</pdfrwt>
<totfact> 0.26719389E+01</totfact>
</mgrwt>
</event>
<event>
12    7  0.1909736E-007  0.1697457E+04  0.7818608E-02  0.8762816E-01
         -1   -1    0    0    0  501 -0.00000000000E+00  0.00000000000E+00  0.36997246214E+03  0.36997246214E+03  0.00000000000E+00 0.  1.
          2   -1    0    0  501    0  0.00000000000E+00 -0.00000000000E+00 -0.19470103339E+04  0.19470103339E+04  0.00000000000E+00 0. -1.
         24    2    1    2    0    0  0.30236756357E+03  0.29483533175E+03  0.29570126127E+02  0.43077705905E+03  0.79627042484E+02 0.  0.
        254    2    1    2    0    0 -0.30236756357E+03 -0.29483533175E+03 -0.16066079979E+04  0.18862057370E+04  0.89343651538E+03 0.  0.
         23    2    4    4    0    0 -0.19876965071E+03 -0.60631481277E+03 -0.11105977107E+04  0.12844669846E+04  0.96442382968E+02 0.  0.
         23    2    4    4    0    0 -0.10359791286E+03  0.31147948102E+03 -0.49601028719E+03  0.60173875241E+03  0.91166476875E+02 0.  0.
          2    1    3    3  502    0  0.11883007123E+03  0.16570525632E+03  0.31682223735E+02  0.20635547268E+03  0.00000000000E+00 0. -1.
         -1    1    3    3    0  502  0.18353749234E+03  0.12913007543E+03 -0.21120976076E+01  0.22442158637E+03  0.00000000000E+00 0.  1.
         13    1    5    5    0    0 -0.11186295301E+03 -0.19594428453E+03 -0.37278817654E+03  0.43575051058E+03  0.00000000000E+00 0. -1.
        -13    1    5    5    0    0 -0.86906697704E+02 -0.41037052824E+03 -0.73780953417E+03  0.84871647402E+03  0.00000000000E+00 0.  1.
          1    1    6    6  503    0 -0.29016050217E+02  0.18166607416E+03 -0.33279530178E+03  0.38025939378E+03  0.00000000000E+00 0. -1.
         -1    1    6    6    0  503 -0.74581862647E+02  0.12981340686E+03 -0.16321498541E+03  0.22147935863E+03  0.00000000000E+00 0.  1.
<mgrwt>
<rscale>  0 0.16974572E+04</rscale>
<asrwt>0</asrwt>
<pdfrwt beam="1">  1        2 0.29954005E+00 0.16974572E+04</pdfrwt>
<pdfrwt beam="2">  1       -1 0.56918841E-01 0.16974572E+04</pdfrwt>
<totfact> 0.24222547E+01</totfact>
</mgrwt>
</event>
<event>
12    7  0.1909736E-007  0.3180129E+04  0.7818608E-02  0.8194085E-01
         -1   -1    0    0    0  501 -0.00000000000E+00  0.00000000000E+00  0.13202231016E+04  0.13202231016E+04  0.00000000000E+00 0.  1.
          2   -1    0    0  501    0  0.00000000000E+00 -0.00000000000E+00 -0.19150587213E+04  0.19150587213E+04  0.00000000000E+00 0. -1.
         24    2    1    2    0    0  0.11325950927E+04 -0.38755053775E+03 -0.11286956337E+04  0.16471117871E+04  0.77822506030E+02 0.  0.
        254    2    1    2    0    0 -0.11325950927E+04  0.38755053775E+03  0.53386001400E+03  0.15881700359E+04  0.89683358818E+03 0.  0.
         23    2    4    4    0    0 -0.96861774063E+03  0.40545393310E+03  0.34634959971E+02  0.10546323104E+04  0.91850478382E+02 0.  0.
         23    2    4    4    0    0 -0.16397735208E+03 -0.17903395347E+02  0.49922505403E+03  0.53353772544E+03  0.90706925542E+02 0.  0.
          4    1    3    3  502    0  0.52771510338E+03 -0.16432050330E+03 -0.47221286553E+03  0.72695904185E+03  0.00000000000E+00 0. -1.
         -3    1    3    3    0  502  0.60487998933E+03 -0.22323003445E+03 -0.65648276814E+03  0.92015274527E+03  0.00000000000E+00 0.  1.
         13    1    5    5    0    0 -0.48456006751E+03  0.17342094760E+03  0.54017146909E+02  0.51748539714E+03  0.00000000000E+00 0. -1.
        -13    1    5    5    0    0 -0.48405767312E+03  0.23203298550E+03 -0.19382186938E+02  0.53714691327E+03  0.00000000000E+00 0.  1.
          2    1    6    6  503    0 -0.88953021069E+02 -0.26912548831E+02  0.38866990953E+03  0.39962635526E+03  0.00000000000E+00 0. -1.
         -2    1    6    6    0  503 -0.75024331010E+02  0.90091534840E+01  0.11055514450E+03  0.13391137018E+03  0.00000000000E+00 0.  1.
<mgrwt>
<rscale>  0 0.31801288E+04</rscale>
<asrwt>0</asrwt>
<pdfrwt beam="1">  1        2 0.29462442E+00 0.31801288E+04</pdfrwt>
<pdfrwt beam="2">  1       -1 0.20311125E+00 0.31801288E+04</pdfrwt>
<totfact> 0.10239545E+00</totfact>
</mgrwt>
</event>
<event>
12    7  0.1909736E-007  0.3357982E+04  0.7818608E-02  0.8148297E-01
          2   -1    0    0  501    0  0.00000000000E+00  0.00000000000E+00  0.10213706769E+04  0.10213706769E+04  0.00000000000E+00 0. -1.
         -1   -1    0    0    0  501 -0.00000000000E+00 -0.00000000000E+00 -0.27600270153E+04  0.27600270153E+04  0.00000000000E+00 0.  1.
         24    2    1    2    0    0  0.42034168678E+03 -0.12948608909E+04 -0.16603751328E+04  0.21484993537E+04  0.76498567843E+02 0.  0.
        254    2    1    2    0    0 -0.42034168678E+03  0.12948608909E+04 -0.78281205661E+02  0.16328983385E+04  0.89826342260E+03 0.  0.
         23    2    4    4    0    0  0.62264736218E+02  0.65367425913E+03  0.31592771663E+03  0.73426063132E+03  0.90340567546E+02 0.  0.
         23    2    4    4    0    0 -0.48260642300E+03  0.64118663174E+03 -0.39420892229E+03  0.89863770719E+03  0.90109922427E+02 0.  0.
          4    1    3    3  502    0  0.11180861076E+03 -0.37250132528E+03 -0.52806611523E+03  0.65582941748E+03  0.00000000000E+00 0. -1.
         -3    1    3    3    0  502  0.30853307601E+03 -0.92235956559E+03 -0.11323090176E+04  0.14926699362E+04  0.00000000000E+00 0.  1.
         13    1    5    5    0    0  0.47490299401E+02  0.18533184568E+03  0.60894206206E+02  0.20077680620E+03  0.00000000000E+00 0. -1.
        -13    1    5    5    0    0  0.14774436818E+02  0.46834241345E+03  0.25503351043E+03  0.53348382512E+03  0.00000000000E+00 0.  1.
          1    1    6    6  503    0 -0.34498964950E+03  0.38903656831E+03 -0.24159228548E+03  0.57335341819E+03  0.00000000000E+00 0. -1.
         -1    1    6    6    0  503 -0.13761677349E+03  0.25215006344E+03 -0.15261663681E+03  0.32528428900E+03  0.00000000000E+00 0.  1.
<mgrwt>
<rscale>  0 0.33579819E+04</rscale>
<asrwt>0</asrwt>
<pdfrwt beam="1">  1        2 0.15713395E+00 0.33579819E+04</pdfrwt>
<pdfrwt beam="2">  1       -1 0.42461953E+00 0.33579819E+04</pdfrwt>
<totfact> 0.11189817E-01</totfact>
</mgrwt>
</event>
<event>
12    7  0.1909736E-007  0.3038394E+04  0.7818608E-02  0.8232852E-01
         -1   -1    0    0    0  501 -0.00000000000E+00  0.00000000000E+00  0.96024112018E+03  0.96024112018E+03  0.00000000000E+00 0.  1.
          2   -1    0    0  501    0  0.00000000000E+00 -0.00000000000E+00 -0.24035205452E+04  0.24035205452E+04  0.00000000000E+00 0. -1.
         24    2    1    2    0    0  0.13019664895E+04 -0.46662913755E+03 -0.72507875003E+03  0.15635812468E+04  0.78661487711E+02 0.  0.
        254    2    1    2    0    0 -0.13019664895E+04  0.46662913755E+03 -0.71820067504E+03  0.18001804186E+04  0.90109812902E+03 0.  0.
         23    2    4    4    0    0 -0.31748146049E+03 -0.26167440115E+03 -0.21613498824E+03  0.47351576750E+03  0.90746233864E+02 0.  0.
         23    2    4    4    0    0 -0.98448502905E+03  0.72830353870E+03 -0.50206568680E+03  0.13266646511E+04  0.91281574309E+02 0.  0.
          2    1    3    3  502    0  0.72923341786E+02 -0.29479926626E+02 -0.21871242322E+02  0.81640866555E+02  0.00000000000E+00 0. -1.
         -1    1    3    3    0  502  0.12290431478E+04 -0.43714921093E+03 -0.70320750771E+03  0.14819403802E+04  0.00000000000E+00 0.  1.
         13    1    5    5    0    0 -0.99141089451E+02 -0.32655913391E+02 -0.63802191181E+02  0.12233594687E+03  0.00000000000E+00 0.  1.
        -13    1    5    5    0    0 -0.21834037104E+03 -0.22901848776E+03 -0.15233279706E+03  0.35117982063E+03  0.00000000000E+00 0. -1.
          3    1    6    6  503    0 -0.93323881747E+03  0.70663335304E+03 -0.49355165142E+03  0.12703773529E+04  0.00000000000E+00 0. -1.
         -3    1    6    6    0  503 -0.51246211581E+02  0.21670185654E+02 -0.85140353807E+01  0.56287298267E+02  0.00000000000E+00 0.  1.
<mgrwt>
<rscale>  0 0.30383938E+04</rscale>
<asrwt>0</asrwt>
<pdfrwt beam="1">  1        2 0.36977239E+00 0.30383938E+04</pdfrwt>
<pdfrwt beam="2">  1       -1 0.14772940E+00 0.30383938E+04</pdfrwt>
<totfact> 0.13950727E+00</totfact>
</mgrwt>
</event>
<event>
12    7  0.1909736E-007  0.1372952E+04  0.7818608E-02  0.8973633E-01
          2   -1    0    0  501    0  0.00000000000E+00  0.00000000000E+00  0.66075201099E+03  0.66075201099E+03  0.00000000000E+00 0. -1.
         -1   -1    0    0    0  501 -0.00000000000E+00 -0.00000000000E+00 -0.71320178502E+03  0.71320178502E+03  0.00000000000E+00 0.  1.
         24    2    1    2    0    0 -0.10598935217E+03 -0.26161438300E+03 -0.28242292494E+03  0.40711062766E+03  0.79375855622E+02 0.  0.
        254    2    1    2    0    0  0.10598935217E+03  0.26161438300E+03  0.22997315091E+03  0.96684316836E+03  0.89566859602E+03 0.  0.
         23    2    4    4    0    0 -0.32332442380E+03  0.32643529656E+03  0.14019233800E+01  0.46805451440E+03  0.89299368388E+02 0.  0.
         23    2    4    4    0    0  0.42931377597E+03 -0.64820913556E+02  0.22857122753E+03  0.49878865396E+03  0.89628378269E+02 0.  0.
          4    1    3    3  502    0 -0.33530904767E+02 -0.92241540298E+02 -0.48850413265E+02  0.10963204918E+03  0.00000000000E+00 0. -1.
         -3    1    3    3    0  502 -0.72458447405E+02 -0.16937284271E+03 -0.23357251167E+03  0.29747857848E+03  0.00000000000E+00 0.  1.
         13    1    5    5    0    0 -0.30856838442E+02  0.55947658278E+02  0.25869138958E+02  0.68931105431E+02  0.00000000000E+00 0.  1.
        -13    1    5    5    0    0 -0.29246758536E+03  0.27048763828E+03 -0.24467215578E+02  0.39912340897E+03  0.00000000000E+00 0. -1.
          3    1    6    6  503    0  0.38405994469E+03 -0.29044908826E+02  0.20651372231E+03  0.43702810590E+03  0.00000000000E+00 0. -1.
         -3    1    6    6    0  503  0.45253831279E+02 -0.35776004730E+02  0.22057505219E+02  0.61760548057E+02  0.00000000000E+00 0.  1.
<mgrwt>
<rscale>  0 0.13729523E+04</rscale>
<asrwt>0</asrwt>
<pdfrwt beam="1">  1        2 0.10165416E+00 0.13729523E+04</pdfrwt>
<pdfrwt beam="2">  1       -1 0.10972335E+00 0.13729523E+04</pdfrwt>
<totfact> 0.37698503E+01</totfact>
</mgrwt>
</event>
<event>
12    7  0.1909736E-007  0.1869209E+04  0.7818608E-02  0.8670337E-01
         -1   -1    0    0    0  501 -0.00000000000E+00  0.00000000000E+00  0.33354768381E+03  0.33354768381E+03  0.00000000000E+00 0.  1.
          2   -1    0    0  501    0  0.00000000000E+00 -0.00000000000E+00 -0.26187717244E+04  0.26187717244E+04  0.00000000000E+00 0. -1.
         24    2    1    2    0    0  0.45237079393E+03  0.23291902390E+03 -0.16715753755E+04  0.17492201797E+04  0.81953610312E+02 0.  0.
        254    2    1    2    0    0 -0.45237079393E+03 -0.23291902390E+03 -0.61364866512E+03  0.12030992285E+04  0.90110624378E+03 0.  0.
         23    2    4    4    0    0  0.23599279541E+03  0.91448513757E+02 -0.15575130966E+03  0.31008424015E+03  0.88534373977E+02 0.  0.
         23    2    4    4    0    0 -0.68836358934E+03 -0.32436753766E+03 -0.45789735546E+03  0.89301498838E+03  0.93525668753E+02 0.  0.
          2    1    3    3  502    0  0.32202916363E+03  0.13955113776E+03 -0.10405550309E+04  0.10981493863E+04  0.00000000000E+00 0. -1.
         -1    1    3    3    0  502  0.13034163031E+03  0.93367886143E+02 -0.63102034455E+03  0.65107079338E+03  0.00000000000E+00 0.  1.
         13    1    5    5    0    0  0.22734367897E+03  0.10010804977E+03 -0.12733285291E+03  0.27914230318E+03  0.00000000000E+00 0.  1.
        -13    1    5    5    0    0  0.86491164367E+01 -0.86595360132E+01 -0.28418456750E+02  0.30941936965E+02  0.00000000000E+00 0. -1.
          4    1    6    6  503    0 -0.62091619847E+03 -0.32112565792E+03 -0.42195440704E+03  0.81651952537E+03  0.00000000000E+00 0.  1.
         -4    1    6    6    0  503 -0.67447390869E+02 -0.32418797439E+01 -0.35942948423E+02  0.76495463007E+02  0.00000000000E+00 0. -1.
<mgrwt>
<rscale>  0 0.18692086E+04</rscale>
<asrwt>0</asrwt>
<pdfrwt beam="1">  1        2 0.40288794E+00 0.18692086E+04</pdfrwt>
<pdfrwt beam="2">  1       -1 0.51315030E-01 0.18692086E+04</pdfrwt>
<totfact> 0.12128778E+01</totfact>
</mgrwt>
</event>
<event>
12    7  0.1909736E-007  0.1925146E+04  0.7818608E-02  0.8642440E-01
          2   -1    0    0  501    0  0.00000000000E+00  0.00000000000E+00  0.28013878977E+04  0.28013878977E+04  0.00000000000E+00 0. -1.
         -1   -1    0    0    0  501 -0.00000000000E+00 -0.00000000000E+00 -0.33074549100E+03  0.33074549100E+03  0.00000000000E+00 0.  1.
         24    2    1    2    0    0 -0.46139913507E+03  0.49052137918E+03  0.14935913061E+04  0.16403077864E+04  0.79336367248E+02 0.  0.
        254    2    1    2    0    0  0.46139913507E+03 -0.49052137918E+03  0.97705110056E+03  0.14918256023E+04  0.90410972189E+03 0.  0.
         23    2    4    4    0    0  0.10940149199E+03 -0.52573202454E+03  0.98532726455E+03  0.11258192234E+04  0.90753829069E+02 0.  0.
         23    2    4    4    0    0  0.35199764308E+03  0.35210645362E+02 -0.82761639879E+01  0.36600637884E+03  0.93541670861E+02 0.  0.
          4    1    3    3  502    0 -0.27262504248E+03  0.24409756305E+03  0.74947093238E+03  0.83403519863E+03  0.00000000000E+00 0. -1.
         -3    1    3    3    0  502 -0.18877409258E+03  0.24642381614E+03  0.74412037372E+03  0.80627258776E+03  0.00000000000E+00 0.  1.
         13    1    5    5    0    0  0.47626132520E+02 -0.16991379254E+03  0.24308196868E+03  0.30037940823E+03  0.00000000000E+00 0.  1.
        -13    1    5    5    0    0  0.61775359473E+02 -0.35581823201E+03  0.74224529587E+03  0.82543981520E+03  0.00000000000E+00 0. -1.
          2    1    6    6  503    0  0.29045319500E+03  0.62155281122E+02  0.69819062114E+01  0.29711123249E+03  0.00000000000E+00 0. -1.
         -2    1    6    6    0  503  0.61544448078E+02 -0.26944635760E+02 -0.15258070199E+02  0.68895146358E+02  0.00000000000E+00 0.  1.
<mgrwt>
<rscale>  0 0.19251456E+04</rscale>
<asrwt>0</asrwt>
<pdfrwt beam="1">  1        2 0.43098274E+00 0.19251456E+04</pdfrwt>
<pdfrwt beam="2">  1       -1 0.50883924E-01 0.19251456E+04</pdfrwt>
<totfact> 0.95501271E+00</totfact>
</mgrwt>
</event>
<event>
12    7  0.1909736E-007  0.1297914E+04  0.7818608E-02  0.9031221E-01
         -1   -1    0    0    0  501 -0.00000000000E+00  0.00000000000E+00  0.64281919358E+03  0.64281919358E+03  0.00000000000E+00 0.  1.
          2   -1    0    0  501    0  0.00000000000E+00 -0.00000000000E+00 -0.65515318499E+03  0.65515318499E+03  0.00000000000E+00 0. -1.
         24    2    1    2    0    0 -0.44282920640E+02 -0.30019466786E+03 -0.67393254280E+02  0.32096548799E+03  0.79994862887E+02 0.  0.
        254    2    1    2    0    0  0.44282920640E+02  0.30019466786E+03  0.55059262878E+02  0.97700689058E+03  0.92705616126E+03 0.  0.
         23    2    4    4    0    0  0.19339380189E+03  0.56409044432E+03  0.19132934462E+03  0.63263336960E+03  0.89548144803E+02 0.  0.
         23    2    4    4    0    0 -0.14911088125E+03 -0.26389577646E+03 -0.13627008174E+03  0.34437352098E+03  0.90269325009E+02 0.  0.
          4    1    3    3  502    0 -0.28934396434E+02 -0.16197108931E+03  0.41121808768E+01  0.16458658239E+03  0.00000000000E+00 0. -1.
         -3    1    3    3    0  502 -0.15348524206E+02 -0.13822357855E+03 -0.71505435157E+02  0.15637890561E+03  0.00000000000E+00 0.  1.
         13    1    5    5    0    0  0.12097937239E+03  0.22587221177E+03  0.98480755993E+02  0.27450450614E+03  0.00000000000E+00 0.  1.
        -13    1    5    5    0    0  0.72414429498E+02  0.33821823255E+03  0.92848588625E+02  0.35812886345E+03  0.00000000000E+00 0. -1.
          3    1    6    6  503    0 -0.13522405067E+03 -0.24497906643E+03 -0.92508355066E+02  0.29471695341E+03  0.00000000000E+00 0. -1.
         -3    1    6    6    0  503 -0.13886830584E+02 -0.18916710023E+02 -0.43761726674E+02  0.49656567574E+02  0.00000000000E+00 0.  1.
<mgrwt>
<rscale>  0 0.12979138E+04</rscale>
<asrwt>0</asrwt>
<pdfrwt beam="1">  1        2 0.10079280E+00 0.12979138E+04</pdfrwt>
<pdfrwt beam="2">  1       -1 0.98895261E-01 0.12979138E+04</pdfrwt>
<totfact> 0.48775631E+01</totfact>
</mgrwt>
</event>
<event>
12    7  0.1909736E-007  0.2379385E+04  0.7818608E-02  0.8447262E-01
         -1   -1    0    0    0  501 -0.00000000000E+00  0.00000000000E+00  0.19155328909E+04  0.19155328909E+04  0.00000000000E+00 0.  1.
          2   -1    0    0  501    0  0.00000000000E+00 -0.00000000000E+00 -0.73889012302E+03  0.73889012302E+03  0.00000000000E+00 0. -1.
         24    2    1    2    0    0  0.69152676435E+03 -0.53388101929E+03 -0.75036605592E+02  0.88081139694E+03  0.83426711758E+02 0.  0.
        254    2    1    2    0    0 -0.69152676435E+03  0.53388101929E+03  0.12516793734E+04  0.17736116169E+04  0.90319361452E+03 0.  0.
         23    2    4    4    0    0  0.15551203365E+02  0.53328104058E+03  0.47882562141E+03  0.72205796082E+03  0.86389900384E+02 0.  0.
         23    2    4    4    0    0 -0.70707796771E+03  0.59997870762E+00  0.77285375201E+03  0.10515536561E+04  0.92209312448E+02 0.  0.
          4    1    3    3  502    0  0.51301298537E+03 -0.41776539282E+03 -0.88197676791E+02  0.66744968109E+03  0.00000000000E+00 0. -1.
         -3    1    3    3    0  502  0.17851377898E+03 -0.11611562647E+03  0.13161071200E+02  0.21336171585E+03  0.00000000000E+00 0.  1.
         13    1    5    5    0    0  0.22461239598E+02  0.41460490583E+03  0.32293060073E+03  0.52600941827E+03  0.00000000000E+00 0. -1.
        -13    1    5    5    0    0 -0.69100362327E+01  0.11867613475E+03  0.15589502068E+03  0.19604854254E+03  0.00000000000E+00 0.  1.
          3    1    6    6  503    0 -0.46493165231E+03  0.21817227854E+02  0.56249687719E+03  0.73009600026E+03  0.00000000000E+00 0. -1.
         -3    1    6    6    0  503 -0.24214631540E+03 -0.21217249146E+02  0.21035687482E+03  0.32145765586E+03  0.00000000000E+00 0.  1.
<mgrwt>
<rscale>  0 0.23793851E+04</rscale>
<asrwt>0</asrwt>
<pdfrwt beam="1">  1        2 0.11367540E+00 0.23793851E+04</pdfrwt>
<pdfrwt beam="2">  1       -1 0.29469736E+00 0.23793851E+04</pdfrwt>
<totfact> 0.14046186E+00</totfact>
</mgrwt>
</event>
