<event>
12    4  0.4413110E-008  0.3485440E+04  0.7818608E-02  0.8117249E-01
          1   -1    0    0  501    0  0.00000000000E+00  0.00000000000E+00  0.28701811750E+04  0.28701811750E+04  0.00000000000E+00 0. -1.
         -2   -1    0    0    0  501 -0.00000000000E+00 -0.00000000000E+00 -0.10581466369E+04  0.10581466369E+04  0.00000000000E+00 0.  1.
        -24    2    1    2    0    0 -0.44724051774E+03  0.96599954961E+03 -0.53802476759E+03  0.11954241223E+04  0.79931039897E+02 0.  0.
        254    2    1    2    0    0  0.44724051774E+03 -0.96599954961E+03  0.23500593057E+04  0.27329036896E+04  0.90155677885E+03 0.  0.
         23    2    4    4    0    0 -0.86919305887E+02 -0.60804954883E+03  0.58946645742E+03  0.85636303895E+03  0.92777855583E+02 0.  0.
         23    2    4    4    0    0  0.53415982363E+03 -0.35795000078E+03  0.17605928483E+04  0.18765406506E+04  0.90899481236E+02 0.  0.
          1    1    3    3  502    0 -0.49781376586E+02  0.97460228954E+02 -0.83361240650E+02  0.13757099304E+03  0.00000000000E+00 0. -1.
         -2    1    3    3    0  502 -0.39745914115E+03  0.86853932066E+03 -0.45466352694E+03  0.10578531293E+04  0.00000000000E+00 0.  1.
         11    1    5    5    0    0  0.27055203395E+01 -0.15376012032E+02  0.41075623290E+02  0.43942558130E+02  0.00000000000E+00 0.  1.
        -11    1    5    5    0    0 -0.89624826227E+02 -0.59267353680E+03  0.54839083413E+03  0.81242048082E+03  0.00000000000E+00 0. -1.
          3    1    6    6  503    0  0.51861588488E+03 -0.35879928116E+03  0.17397834419E+04  0.18505528323E+04  0.00000000000E+00 0. -1.
         -3    1    6    6    0  503  0.15543938750E+02  0.84928037616E+00  0.20809406387E+02  0.25987818361E+02  0.00000000000E+00 0.  1.
<mgrwt>
<rscale>  0 0.34854397E+04</rscale>
<asrwt>0</asrwt>
<pdfrwt beam="1">  1        1 0.44156633E+00 0.34854397E+04</pdfrwt>
<pdfrwt beam="2">  1       -2 0.16279179E+00 0.34854397E+04</pdfrwt>
<totfact> 0.12818211E-01</totfact>
</mgrwt>
</event>
<event>
12    4  0.4413110E-008  0.1514815E+04  0.7818608E-02  0.8874661E-01
         -2   -1    0    0    0  501 -0.00000000000E+00  0.00000000000E+00  0.95337717055E+03  0.95337717055E+03  0.00000000000E+00 0.  1.
          1   -1    0    0  501    0  0.00000000000E+00 -0.00000000000E+00 -0.60171970909E+03  0.60171970909E+03  0.00000000000E+00 0. -1.
        -24    2    1    2    0    0  0.12808775276E+03 -0.15168428377E+03  0.56888217395E+03  0.60765070202E+03  0.78726447070E+02 0.  0.
        254    2    1    2    0    0 -0.12808775276E+03  0.15168428377E+03 -0.21722471249E+03  0.94744617762E+03  0.90058485965E+03 0.  0.
         23    2    4    4    0    0 -0.12934438205E+02 -0.29487384179E+03  0.15557044142E+03  0.34594464939E+03  0.91420216211E+02 0.  0.
         23    2    4    4    0    0 -0.11515331456E+03  0.44655812556E+03 -0.37279515391E+03  0.60150152823E+03  0.10076416192E+03 0.  0.
          3    1    3    3  502    0  0.10989635085E+02 -0.66333395297E+02  0.21440085604E+03  0.22469672557E+03  0.00000000000E+00 0. -1.
         -4    1    3    3    0  502  0.11709811768E+03 -0.85350888473E+02  0.35448131792E+03  0.38295397645E+03  0.00000000000E+00 0.  1.
         11    1    5    5    0    0 -0.38023761258E+02 -0.21262025064E+03  0.14298759507E+03  0.25903403203E+03  0.00000000000E+00 0. -1.
        -11    1    5    5    0    0  0.25089323053E+02 -0.82253591149E+02  0.12582846352E+02  0.86910617364E+02  0.00000000000E+00 0.  1.
          2    1    6    6  503    0 -0.13254517395E+03  0.37786058742E+03 -0.30420957685E+03  0.50288200734E+03  0.00000000000E+00 0. -1.
         -2    1    6    6    0  503  0.17391859388E+02  0.68697538142E+02 -0.68585577061E+02  0.98619520890E+02  0.00000000000E+00 0.  1.
<mgrwt>
<rscale>  0 0.15148146E+04</rscale>
<asrwt>0</asrwt>
<pdfrwt beam="1">  1        1 0.92572262E-01 0.15148146E+04</pdfrwt>
<pdfrwt beam="2">  1       -2 0.14667341E+00 0.15148146E+04</pdfrwt>
<totfact> 0.91627864E+00</totfact>
</mgrwt>
</event>
<event>
12    4  0.4413110E-008  0.1764075E+04  0.7818608E-02  0.8725640E-01
          1   -1    0    0  501    0  0.00000000000E+00  0.00000000000E+00  0.23052264384E+04  0.23052264384E+04  0.00000000000E+00 0. -1.
         -2   -1    0    0    0  501 -0.00000000000E+00 -0.00000000000E+00 -0.33748985727E+03  0.33748985727E+03  0.00000000000E+00 0.  1.
        -24    2    1    2    0    0 -0.59015252580E+03  0.18781022459E+03  0.43176702140E+03  0.75916128070E+03  0.79689429528E+02 0.  0.
        254    2    1    2    0    0  0.59015252580E+03 -0.18781022459E+03  0.15359695597E+04  0.18835550150E+04  0.89723147618E+03 0.  0.
         23    2    4    4    0    0  0.47313019355E+01  0.27823852309E+03  0.69463131473E+03  0.75382279431E+03  0.91088313546E+02 0.  0.
         23    2    4    4    0    0  0.58542122387E+03 -0.46604874768E+03  0.84133824498E+03  0.11297322207E+04  0.92333110752E+02 0.  0.
          1    1    3    3  502    0 -0.64493347857E+02  0.21063178093E+02  0.80680062920E+02  0.10541499866E+03  0.00000000000E+00 0. -1.
         -2    1    3    3    0  502 -0.52565917794E+03  0.16674704649E+03  0.35108695848E+03  0.65374628204E+03  0.00000000000E+00 0.  1.
         11    1    5    5    0    0 -0.33976434667E+02  0.21569260819E+03  0.54421319053E+03  0.58638357420E+03  0.00000000000E+00 0.  1.
        -11    1    5    5    0    0  0.38707736603E+02  0.62545914901E+02  0.15041812420E+03  0.16743922011E+03  0.00000000000E+00 0. -1.
          3    1    6    6  503    0  0.10760271936E+02 -0.68321242726E+01  0.39878980349E+02  0.41866388045E+02  0.00000000000E+00 0. -1.
         -3    1    6    6    0  503  0.57466095193E+03 -0.45921662341E+03  0.80145926463E+03  0.10878658326E+04  0.00000000000E+00 0.  1.
<mgrwt>
<rscale>  0 0.17640754E+04</rscale>
<asrwt>0</asrwt>
<pdfrwt beam="1">  1        1 0.35465021E+00 0.17640754E+04</pdfrwt>
<pdfrwt beam="2">  1       -2 0.51921518E-01 0.17640754E+04</pdfrwt>
<totfact> 0.53778021E+00</totfact>
</mgrwt>
</event>
<event>
12    4  0.4413110E-008  0.2246093E+04  0.7818608E-02  0.8499484E-01
         -2   -1    0    0    0  501 -0.00000000000E+00  0.00000000000E+00  0.23055373413E+04  0.23055373413E+04  0.00000000000E+00 0.  1.
          1   -1    0    0  501    0  0.00000000000E+00 -0.00000000000E+00 -0.54704526035E+03  0.54704526035E+03  0.00000000000E+00 0. -1.
        -24    2    1    2    0    0 -0.16570634596E+03 -0.84646990055E+03  0.26527074201E+03  0.90588425254E+03  0.79295818330E+02 0.  0.
        254    2    1    2    0    0  0.16570634596E+03  0.84646990055E+03  0.14932213389E+04  0.19466983491E+04  0.90330205893E+03 0.  0.
         23    2    4    4    0    0  0.75330705819E+02  0.79892870601E+02 -0.99775695999E+02  0.17415591409E+03  0.91200366720E+02 0.  0.
         23    2    4    4    0    0  0.90375640142E+02  0.76657702995E+03  0.15929970349E+04  0.17725424350E+04  0.91972992720E+02 0.  0.
          3    1    3    3  502    0 -0.95630466060E+02 -0.55658827522E+03  0.13629082293E+03  0.58095686807E+03  0.00000000000E+00 0. -1.
         -4    1    3    3    0  502 -0.70075879900E+02 -0.28988162534E+03  0.12897991908E+03  0.32492738447E+03  0.00000000000E+00 0.  1.
         11    1    5    5    0    0  0.34873498326E+02  0.18692374446E+02 -0.92286016239E+02  0.10041053003E+03  0.00000000000E+00 0.  1.
        -11    1    5    5    0    0  0.40457207493E+02  0.61200496155E+02 -0.74896797607E+01  0.73745384064E+02  0.00000000000E+00 0. -1.
          1    1    6    6  503    0  0.58380843583E+02  0.37844271152E+03  0.68973206883E+03  0.78889640358E+03  0.00000000000E+00 0. -1.
         -1    1    6    6    0  503  0.31994796559E+02  0.38813431843E+03  0.90326496607E+03  0.98364603139E+03  0.00000000000E+00 0.  1.
<mgrwt>
<rscale>  0 0.22460929E+04</rscale>
<asrwt>0</asrwt>
<pdfrwt beam="1">  1        1 0.84160811E-01 0.22460929E+04</pdfrwt>
<pdfrwt beam="2">  1       -2 0.35469805E+00 0.22460929E+04</pdfrwt>
<totfact> 0.45233892E-01</totfact>
</mgrwt>
</event>
<event>
12    4  0.4413110E-008  0.1509683E+04  0.7818608E-02  0.8878040E-01
         -4   -1    0    0    0  501 -0.00000000000E+00  0.00000000000E+00  0.11312057928E+04  0.11312057928E+04  0.00000000000E+00 0.  1.
          1   -1    0    0  501    0  0.00000000000E+00 -0.00000000000E+00 -0.50369739805E+03  0.50369739805E+03  0.00000000000E+00 0. -1.
        -24    2    1    2    0    0  0.40652205392E+03 -0.22616644867E+03  0.59940888550E+02  0.47555727002E+03  0.78424257237E+02 0.  0.
        254    2    1    2    0    0 -0.40652205392E+03  0.22616644867E+03  0.56756750616E+03  0.11593459208E+04  0.89751804839E+03 0.  0.
         23    2    4    4    0    0 -0.60154840341E+03  0.39126825420E+03  0.31626251131E+03  0.78930365675E+03  0.89593292712E+02 0.  0.
         23    2    4    4    0    0  0.19502634949E+03 -0.16510180554E+03  0.25130499485E+03  0.37004226405E+03  0.92104253750E+02 0.  0.
          1    1    3    3  502    0  0.35526294448E+03 -0.21125233604E+03  0.30156051605E+02  0.41442574322E+03  0.00000000000E+00 0. -1.
         -2    1    3    3    0  502  0.51259109447E+02 -0.14914112630E+02  0.29784836946E+02  0.61131526798E+02  0.00000000000E+00 0.  1.
         11    1    5    5    0    0 -0.50863472994E+03  0.30982947929E+03  0.29236475544E+03  0.66346118572E+03  0.00000000000E+00 0.  1.
        -11    1    5    5    0    0 -0.92913673468E+02  0.81438774917E+02  0.23897755870E+02  0.12584247102E+03  0.00000000000E+00 0. -1.
          2    1    6    6  503    0  0.57015903218E+02 -0.79378964455E+02  0.14852077351E+03  0.17779272590E+03  0.00000000000E+00 0. -1.
         -2    1    6    6    0  503  0.13801044627E+03 -0.85722841083E+02  0.10278422134E+03  0.19224953815E+03  0.00000000000E+00 0.  1.
<mgrwt>
<rscale>  0 0.15096826E+04</rscale>
<asrwt>0</asrwt>
<pdfrwt beam="1">  1        1 0.77491908E-01 0.15096826E+04</pdfrwt>
<pdfrwt beam="2">  1       -4 0.17403166E+00 0.15096826E+04</pdfrwt>
<totfact> 0.40187959E+00</totfact>
</mgrwt>
</event>
<event>
12    4  0.4413110E-008  0.1708717E+04  0.7818608E-02  0.8756408E-01
         -2   -1    0    0    0  501 -0.00000000000E+00  0.00000000000E+00  0.90310455596E+03  0.90310455596E+03  0.00000000000E+00 0.  1.
          1   -1    0    0  501    0  0.00000000000E+00 -0.00000000000E+00 -0.80824363973E+03  0.80824363973E+03  0.00000000000E+00 0. -1.
        -24    2    1    2    0    0 -0.39878471988E+03 -0.16424436442E+03 -0.41710625961E+03  0.60525144252E+03  0.79663120814E+02 0.  0.
        254    2    1    2    0    0  0.39878471988E+03  0.16424436442E+03  0.51196717583E+03  0.11060967532E+04  0.88053062081E+03 0.  0.
         23    2    4    4    0    0  0.34016480402E+03 -0.27667847189E+03  0.47339161014E+03  0.65115021963E+03  0.87372314107E+02 0.  0.
         23    2    4    4    0    0  0.58619915863E+02  0.44092283631E+03  0.38575565690E+02  0.45494653354E+03  0.87401556015E+02 0.  0.
          1    1    3    3  502    0 -0.26109125731E+03 -0.14663832344E+03 -0.29551778002E+03  0.42071629497E+03  0.00000000000E+00 0. -1.
         -2    1    3    3    0  502 -0.13769346258E+03 -0.17606040981E+02 -0.12158847958E+03  0.18453514755E+03  0.00000000000E+00 0.  1.
         11    1    5    5    0    0  0.20163670384E+03 -0.21696983894E+03  0.30892796653E+03  0.42798336399E+03  0.00000000000E+00 0. -1.
        -11    1    5    5    0    0  0.13852810017E+03 -0.59708632945E+02  0.16446364362E+03  0.22316685564E+03  0.00000000000E+00 0.  1.
          1    1    6    6  503    0  0.34347866191E+02  0.37660347555E+03  0.44428298974E+01  0.37819266578E+03  0.00000000000E+00 0. -1.
         -1    1    6    6    0  503  0.24272049672E+02  0.64319360761E+02  0.34132735792E+02  0.76753867763E+02  0.00000000000E+00 0.  1.
<mgrwt>
<rscale>  0 0.17087171E+04</rscale>
<asrwt>0</asrwt>
<pdfrwt beam="1">  1        1 0.12434517E+00 0.17087171E+04</pdfrwt>
<pdfrwt beam="2">  1       -2 0.13893916E+00 0.17087171E+04</pdfrwt>
<totfact> 0.66344034E+00</totfact>
</mgrwt>
</event>
<event>
12    4  0.4413110E-008  0.1200116E+04  0.7818608E-02  0.9112755E-01
         -2   -1    0    0    0  501 -0.00000000000E+00  0.00000000000E+00  0.54973955298E+03  0.54973955298E+03  0.00000000000E+00 0.  1.
          1   -1    0    0  501    0  0.00000000000E+00 -0.00000000000E+00 -0.65498260583E+03  0.65498260583E+03  0.00000000000E+00 0. -1.
        -24    2    1    2    0    0 -0.18610522774E+02 -0.11517055015E+03  0.20319017543E+03  0.24411053129E+03  0.68506181571E+02 0.  0.
        254    2    1    2    0    0  0.18610522774E+02  0.11517055015E+03 -0.30843322828E+03  0.96061162752E+03  0.90223779318E+03 0.  0.
         23    2    4    4    0    0 -0.43030339581E+03  0.60860650656E+02 -0.19577906588E+03  0.48557712641E+03  0.92685877089E+02 0.  0.
         23    2    4    4    0    0  0.44891391858E+03  0.54309899492E+02 -0.11265416240E+03  0.47503450112E+03  0.92160433287E+02 0.  0.
          1    1    3    3  502    0 -0.35513622079E+02 -0.36928121035E+02  0.10941848831E+03  0.12081932404E+03  0.00000000000E+00 0. -1.
         -2    1    3    3    0  502  0.16903099305E+02 -0.78242429112E+02  0.93771687122E+02  0.12329120725E+03  0.00000000000E+00 0.  1.
         11    1    5    5    0    0 -0.24292558876E+03  0.75893076689E+02 -0.90451079184E+02  0.27009997869E+03  0.00000000000E+00 0. -1.
        -11    1    5    5    0    0 -0.18737780705E+03 -0.15032426033E+02 -0.10532798670E+03  0.21547714772E+03  0.00000000000E+00 0.  1.
          2    1    6    6  503    0  0.23005642594E+03 -0.18061458433E+02 -0.63453989832E+02  0.23932944705E+03  0.00000000000E+00 0. -1.
         -2    1    6    6    0  503  0.21885749264E+03  0.72371357925E+02 -0.49200172569E+02  0.23570505407E+03  0.00000000000E+00 0.  1.
<mgrwt>
<rscale>  0 0.12001164E+04</rscale>
<asrwt>0</asrwt>
<pdfrwt beam="1">  1        1 0.10076655E+00 0.12001164E+04</pdfrwt>
<pdfrwt beam="2">  1       -2 0.84575316E-01 0.12001164E+04</pdfrwt>
<totfact> 0.31808089E+01</totfact>
</mgrwt>
</event>
<event>
12    4  0.4413110E-008  0.1437354E+04  0.7818608E-02  0.8927215E-01
          1   -1    0    0  501    0  0.00000000000E+00  0.00000000000E+00  0.93845093336E+03  0.93845093336E+03  0.00000000000E+00 0. -1.
         -2   -1    0    0    0  501 -0.00000000000E+00 -0.00000000000E+00 -0.55037175943E+03  0.55037175943E+03  0.00000000000E+00 0.  1.
        -24    2    1    2    0    0  0.16006457086E+03  0.31641531629E+03 -0.13318961301E+03  0.38675724947E+03  0.78117717422E+02 0.  0.
        254    2    1    2    0    0 -0.16006457086E+03 -0.31641531629E+03  0.52126878694E+03  0.11020654433E+04  0.90392907569E+03 0.  0.
         23    2    4    4    0    0 -0.47061493441E+03 -0.40337032789E+03  0.40802498121E+03  0.74808705402E+03  0.94677437612E+02 0.  0.
         23    2    4    4    0    0  0.31055036354E+03  0.86955011598E+02  0.11324380573E+03  0.35397838929E+03  0.92053452997E+02 0.  0.
          3    1    3    3  502    0  0.17025485292E+02  0.11191139676E+03 -0.49332053329E+02  0.12348149400E+03  0.00000000000E+00 0. -1.
         -4    1    3    3    0  502  0.14303908557E+03  0.20450391954E+03 -0.83857559683E+02  0.26327575548E+03  0.00000000000E+00 0.  1.
         11    1    5    5    0    0 -0.46445685844E+03 -0.37295769414E+03  0.39283870907E+03  0.71354037468E+03  0.00000000000E+00 0. -1.
        -11    1    5    5    0    0 -0.61580759702E+01 -0.30412633755E+02  0.15186272144E+02  0.34546679337E+02  0.00000000000E+00 0.  1.
          4    1    6    6  503    0  0.16628392215E+03  0.86751419998E+02  0.38363757621E+02  0.19143648956E+03  0.00000000000E+00 0. -1.
         -4    1    6    6    0  503  0.14426644140E+03  0.20359160032E+00  0.74880048111E+02  0.16254189973E+03  0.00000000000E+00 0.  1.
<mgrwt>
<rscale>  0 0.14373544E+04</rscale>
<asrwt>0</asrwt>
<pdfrwt beam="1">  1        1 0.14437707E+00 0.14373544E+04</pdfrwt>
<pdfrwt beam="2">  1       -2 0.84672579E-01 0.14373544E+04</pdfrwt>
<totfact> 0.17540340E+01</totfact>
</mgrwt>
</event>
<event>
12    4  0.4413110E-008  0.1494654E+04  0.7818608E-02  0.8888016E-01
         -2   -1    0    0    0  501 -0.00000000000E+00  0.00000000000E+00  0.48611689390E+03  0.48611689390E+03  0.00000000000E+00 0.  1.
          1   -1    0    0  501    0  0.00000000000E+00 -0.00000000000E+00 -0.11488956230E+04  0.11488956230E+04  0.00000000000E+00 0. -1.
        -24    2    1    2    0    0  0.11742941673E+03 -0.37039863919E+03  0.72516460396E+02  0.40322679603E+03  0.79676798257E+02 0.  0.
        254    2    1    2    0    0 -0.11742941673E+03  0.37039863919E+03 -0.73529518951E+03  0.12317857209E+04  0.90865407422E+03 0.  0.
         23    2    4    4    0    0 -0.14939255355E+03  0.41108820834E+03 -0.91815726734E+03  0.10211515969E+04  0.91794151045E+02 0.  0.
         23    2    4    4    0    0  0.31963136821E+02 -0.40689569142E+02  0.18286207783E+03  0.21063412399E+03  0.90834528263E+02 0.  0.
          1    1    3    3  502    0 -0.10454437632E+02 -0.36290210240E+02 -0.19328902414E+01  0.37815482148E+02  0.00000000000E+00 0. -1.
         -2    1    3    3    0  502  0.12788385436E+03 -0.33410842896E+03  0.74449350637E+02  0.36541131388E+03  0.00000000000E+00 0.  1.
         11    1    5    5    0    0 -0.82792373843E+02  0.20215653142E+03 -0.35529924880E+03  0.41708439980E+03  0.00000000000E+00 0. -1.
        -11    1    5    5    0    0 -0.66600179707E+02  0.20893167692E+03 -0.56285801855E+03  0.60406719709E+03  0.00000000000E+00 0.  1.
          3    1    6    6  503    0  0.15261273217E+02 -0.69477748950E+02  0.11976523928E+03  0.13929743931E+03  0.00000000000E+00 0. -1.
         -3    1    6    6    0  503  0.16701863604E+02  0.28788179808E+02  0.63096838554E+02  0.71336684672E+02  0.00000000000E+00 0.  1.
<mgrwt>
<rscale>  0 0.14946539E+04</rscale>
<asrwt>0</asrwt>
<pdfrwt beam="1">  1        1 0.17675317E+00 0.14946539E+04</pdfrwt>
<pdfrwt beam="2">  1       -2 0.74787215E-01 0.14946539E+04</pdfrwt>
<totfact> 0.15894355E+01</totfact>
</mgrwt>
</event>
<event>
12    4  0.4413110E-008  0.2920483E+04  0.7818608E-02  0.8266809E-01
          1   -1    0    0  501    0  0.00000000000E+00  0.00000000000E+00  0.12735995542E+04  0.12735995542E+04  0.00000000000E+00 0. -1.
         -2   -1    0    0    0  501 -0.00000000000E+00 -0.00000000000E+00 -0.16742347081E+04  0.16742347081E+04  0.00000000000E+00 0.  1.
        -24    2    1    2    0    0  0.49133969386E+03 -0.88714040981E+03  0.67134384357E+03  0.12188495141E+04  0.80366536942E+02 0.  0.
        254    2    1    2    0    0 -0.49133969386E+03  0.88714040981E+03 -0.10719789974E+04  0.17289847482E+04  0.90100859440E+03 0.  0.
         23    2    4    4    0    0 -0.41530412296E+03  0.98679476657E+02 -0.61045629311E+02  0.44100933262E+03  0.92452738949E+02 0.  0.
         23    2    4    4    0    0 -0.76035570906E+02  0.78846093315E+03 -0.10109333681E+04  0.12879754156E+04  0.97171730880E+02 0.  0.
          3    1    3    3  502    0  0.45957625848E+03 -0.86160398769E+03  0.64257598987E+03  0.11689635032E+04  0.00000000000E+00 0. -1.
         -4    1    3    3    0  502  0.31763435382E+02 -0.25536422124E+02  0.28767853695E+02  0.49886010949E+02  0.00000000000E+00 0.  1.
         11    1    5    5    0    0 -0.19388463930E+03  0.91709306004E+02 -0.42982810825E+02  0.21874499352E+03  0.00000000000E+00 0. -1.
        -11    1    5    5    0    0 -0.22141948366E+03  0.69701706530E+01 -0.18062818486E+02  0.22226433910E+03  0.00000000000E+00 0.  1.
          2    1    6    6  503    0 -0.59721298442E+02  0.70743322363E+03 -0.85360286426E+03  0.11102550379E+04  0.00000000000E+00 0.  1.
         -2    1    6    6    0  503 -0.16314272464E+02  0.81027709526E+02 -0.15733050386E+03  0.17772037767E+03  0.00000000000E+00 0. -1.
<mgrwt>
<rscale>  0 0.29204825E+04</rscale>
<asrwt>0</asrwt>
<pdfrwt beam="1">  1        1 0.19593839E+00 0.29204825E+04</pdfrwt>
<pdfrwt beam="2">  1       -2 0.25757457E+00 0.29204825E+04</pdfrwt>
<totfact> 0.41033235E-01</totfact>
</mgrwt>
</event>
<event>
12    4  0.4413110E-008  0.1625340E+04  0.7818608E-02  0.8805130E-01
         -2   -1    0    0    0  501 -0.00000000000E+00  0.00000000000E+00  0.33421651332E+03  0.33421651332E+03  0.00000000000E+00 0.  1.
          1   -1    0    0  501    0  0.00000000000E+00 -0.00000000000E+00 -0.19760608328E+04  0.19760608328E+04  0.00000000000E+00 0. -1.
        -24    2    1    2    0    0 -0.56475571204E+03  0.70736785872E+02 -0.64016200932E+03  0.86036036494E+03  0.80373205915E+02 0.  0.
        254    2    1    2    0    0  0.56475571204E+03 -0.70736785872E+02 -0.10016823101E+04  0.14499169812E+04  0.88030625049E+03 0.  0.
         23    2    4    4    0    0  0.51721460395E+03 -0.39171676284E+03 -0.42329747279E+03  0.78020525974E+03  0.92663520443E+02 0.  0.
         23    2    4    4    0    0  0.47541108087E+02  0.32097997697E+03 -0.57838483733E+03  0.66971172141E+03  0.93254850644E+02 0.  0.
          1    1    3    3  502    0 -0.40449419145E+03  0.83414322613E+02 -0.48361154631E+03  0.63596668769E+03  0.00000000000E+00 0. -1.
         -2    1    3    3    0  502 -0.16026152059E+03 -0.12677536741E+02 -0.15655046302E+03  0.22439367725E+03  0.00000000000E+00 0.  1.
         11    1    5    5    0    0  0.67622506309E+01 -0.21420225174E+02 -0.37463022334E+01  0.22772546202E+02  0.00000000000E+00 0. -1.
        -11    1    5    5    0    0  0.51045235332E+03 -0.37029653767E+03 -0.41955117056E+03  0.75743271354E+03  0.00000000000E+00 0.  1.
          1    1    6    6  503    0  0.41003219979E+02  0.89846938692E+02 -0.24340186494E+03  0.26267509265E+03  0.00000000000E+00 0. -1.
         -1    1    6    6    0  503  0.65378881082E+01  0.23113303828E+03 -0.33498297239E+03  0.40703662877E+03  0.00000000000E+00 0.  1.
<mgrwt>
<rscale>  0 0.16253395E+04</rscale>
<asrwt>0</asrwt>
<pdfrwt beam="1">  1        1 0.30400936E+00 0.16253395E+04</pdfrwt>
<pdfrwt beam="2">  1       -2 0.51417924E-01 0.16253395E+04</pdfrwt>
<totfact> 0.92967614E+00</totfact>
</mgrwt>
</event>
<event>
12    4  0.4413110E-008  0.2337851E+04  0.7818608E-02  0.8463145E-01
          1   -1    0    0  501    0  0.00000000000E+00  0.00000000000E+00  0.24293899325E+04  0.24293899325E+04  0.00000000000E+00 0. -1.
         -2   -1    0    0    0  501 -0.00000000000E+00 -0.00000000000E+00 -0.56244053298E+03  0.56244053298E+03  0.00000000000E+00 0.  1.
        -24    2    1    2    0    0  0.13683643286E+03  0.56313933179E+02 -0.45902497790E+03  0.48894435200E+03  0.80418782542E+02 0.  0.
        254    2    1    2    0    0 -0.13683643286E+03 -0.56313933179E+02  0.23259743774E+04  0.25028861135E+04  0.91235224789E+03 0.  0.
         23    2    4    4    0    0  0.28012814443E+03  0.20108905576E+03  0.14667971619E+04  0.15096299723E+04  0.92629116838E+02 0.  0.
         23    2    4    4    0    0 -0.41696457729E+03 -0.25740298894E+03  0.85917721548E+03  0.99325614120E+03  0.90865378492E+02 0.  0.
          3    1    3    3  502    0  0.28319029067E+02 -0.15634584546E+02 -0.48760968491E+02  0.58515294491E+02  0.00000000000E+00 0. -1.
         -4    1    3    3    0  502  0.10851740380E+03  0.71948517725E+02 -0.41026400941E+03  0.43042905751E+03  0.00000000000E+00 0.  1.
         11    1    5    5    0    0  0.10489802857E+03  0.11847438282E+03  0.53520594586E+03  0.55810857391E+03  0.00000000000E+00 0.  1.
        -11    1    5    5    0    0  0.17523011586E+03  0.82614672937E+02  0.93159121608E+03  0.95152139837E+03  0.00000000000E+00 0. -1.
          1    1    6    6  503    0 -0.38388051376E+03 -0.21839124795E+03  0.71646394412E+03  0.84165287931E+03  0.00000000000E+00 0. -1.
         -1    1    6    6    0  503 -0.33084063531E+02 -0.39011740993E+02  0.14271327136E+03  0.15160326190E+03  0.00000000000E+00 0.  1.
<mgrwt>
<rscale>  0 0.23378515E+04</rscale>
<asrwt>0</asrwt>
<pdfrwt beam="1">  1        1 0.37375229E+00 0.23378515E+04</pdfrwt>
<pdfrwt beam="2">  1       -2 0.86529314E-01 0.23378515E+04</pdfrwt>
<totfact> 0.13886703E+00</totfact>
</mgrwt>
</event>
<event>
12    4  0.4413110E-008  0.2832851E+04  0.7818608E-02  0.8293141E-01
          1   -1    0    0  501    0  0.00000000000E+00  0.00000000000E+00  0.23134037319E+04  0.23134037319E+04  0.00000000000E+00 0. -1.
         -2   -1    0    0    0  501 -0.00000000000E+00 -0.00000000000E+00 -0.86723342450E+03  0.86723342450E+03  0.00000000000E+00 0.  1.
        -24    2    1    2    0    0  0.89538902673E+03 -0.90052048081E+03  0.55806066272E+03  0.13893659645E+04  0.79040713581E+02 0.  0.
        254    2    1    2    0    0 -0.89538902673E+03  0.90052048081E+03  0.88810964468E+03  0.17912711919E+04  0.89847375953E+03 0.  0.
         23    2    4    4    0    0 -0.47092325198E+03 -0.59840744342E+02  0.40524791631E+03  0.63117087424E+03  0.93814577156E+02 0.  0.
         23    2    4    4    0    0 -0.42446577475E+03  0.96036122515E+03  0.48286172838E+03  0.11601003177E+04  0.10105652722E+03 0.  0.
          3    1    3    3  502    0  0.46845757408E+03 -0.42058663177E+03  0.25759805975E+03  0.68022229743E+03  0.00000000000E+00 0. -1.
         -4    1    3    3    0  502  0.42693145265E+03 -0.47993384903E+03  0.30046260297E+03  0.70914366703E+03  0.00000000000E+00 0.  1.
         11    1    5    5    0    0 -0.46495115667E+03 -0.47583939205E+02  0.40343433016E+03  0.61741644626E+03  0.00000000000E+00 0. -1.
        -11    1    5    5    0    0 -0.59720953100E+01 -0.12256805137E+02  0.18135861472E+01  0.13754427988E+02  0.00000000000E+00 0.  1.
          4    1    6    6  503    0 -0.31133859974E+03  0.59979036052E+03  0.33554620285E+03  0.75450079821E+03  0.00000000000E+00 0. -1.
         -4    1    6    6    0  503 -0.11312717501E+03  0.36057086463E+03  0.14731552553E+03  0.40559951949E+03  0.00000000000E+00 0.  1.
<mgrwt>
<rscale>  0 0.28328509E+04</rscale>
<asrwt>0</asrwt>
<pdfrwt beam="1">  1        1 0.35590826E+00 0.28328509E+04</pdfrwt>
<pdfrwt beam="2">  1       -2 0.13342053E+00 0.28328509E+04</pdfrwt>
<totfact> 0.56230833E-01</totfact>
</mgrwt>
</event>
<event>
12    4  0.4413110E-008  0.1832830E+04  0.7818608E-02  0.8689033E-01
         -2   -1    0    0    0  501 -0.00000000000E+00  0.00000000000E+00  0.12580234602E+04  0.12580234602E+04  0.00000000000E+00 0.  1.
          1   -1    0    0  501    0  0.00000000000E+00 -0.00000000000E+00 -0.66756828240E+03  0.66756828240E+03  0.00000000000E+00 0. -1.
        -24    2    1    2    0    0  0.10894874523E+03  0.59756671065E+03  0.62084993749E+03  0.87217215448E+03  0.79207445356E+02 0.  0.
        254    2    1    2    0    0 -0.10894874523E+03 -0.59756671065E+03 -0.30394759697E+02  0.10534195881E+04  0.86012393552E+03 0.  0.
         23    2    4    4    0    0 -0.46258292426E+03 -0.46114044211E+03 -0.67730580746E+02  0.66295283098E+03  0.91025026032E+02 0.  0.
         23    2    4    4    0    0  0.35363417903E+03 -0.13642626853E+03  0.37335821049E+02  0.39046675714E+03  0.86029445964E+02 0.  0.
          3    1    3    3  502    0 -0.10058111193E+02  0.98982381871E+02  0.88534096294E+02  0.13318019270E+03  0.00000000000E+00 0. -1.
         -4    1    3    3    0  502  0.11900685642E+03  0.49858432878E+03  0.53231584120E+03  0.73899196178E+03  0.00000000000E+00 0.  1.
         11    1    5    5    0    0 -0.11061795371E+03 -0.84098798631E+02  0.17892604843E+02  0.14010383621E+03  0.00000000000E+00 0.  1.
        -11    1    5    5    0    0 -0.35196497055E+03 -0.37704164348E+03 -0.85623185589E+02  0.52284899477E+03  0.00000000000E+00 0. -1.
          3    1    6    6  503    0  0.18467519272E+03 -0.64657629672E+02  0.61983051718E+02  0.20524968838E+03  0.00000000000E+00 0. -1.
         -3    1    6    6    0  503  0.16895898631E+03 -0.71768638862E+02 -0.24647230669E+02  0.18521706876E+03  0.00000000000E+00 0.  1.
<mgrwt>
<rscale>  0 0.18328301E+04</rscale>
<asrwt>0</asrwt>
<pdfrwt beam="1">  1        1 0.10270281E+00 0.18328301E+04</pdfrwt>
<pdfrwt beam="2">  1       -2 0.19354207E+00 0.18328301E+04</pdfrwt>
<totfact> 0.35369002E+00</totfact>
</mgrwt>
</event>
<event>
12    4  0.4413110E-008  0.1676307E+04  0.7818608E-02  0.8774994E-01
         -2   -1    0    0    0  501 -0.00000000000E+00  0.00000000000E+00  0.22967703651E+03  0.22967703651E+03  0.00000000000E+00 0.  1.
          1   -1    0    0  501    0  0.00000000000E+00 -0.00000000000E+00 -0.30586480368E+04  0.30586480368E+04  0.00000000000E+00 0. -1.
        -24    2    1    2    0    0 -0.12439451643E+03  0.58341467252E+03 -0.77662886236E+03  0.98407688041E+03  0.96996086941E+02 0.  0.
        254    2    1    2    0    0  0.12439451643E+03 -0.58341467252E+03 -0.20523421380E+04  0.23042481929E+04  0.86116479696E+03 0.  0.
         23    2    4    4    0    0  0.22708439974E+03  0.15128495382E+03 -0.42924876985E+03  0.51730803171E+03  0.94332557431E+02 0.  0.
         23    2    4    4    0    0 -0.10268988331E+03 -0.73469962634E+03 -0.16230933681E+04  0.17869401612E+04  0.91620440437E+02 0.  0.
          1    1    3    3  502    0 -0.91185877455E+02  0.22865468768E+03 -0.35595703688E+03  0.43278544632E+03  0.00000000000E+00 0. -1.
         -2    1    3    3    0  502 -0.33208638974E+02  0.35475998484E+03 -0.42067182548E+03  0.55129143409E+03  0.00000000000E+00 0.  1.
         11    1    5    5    0    0  0.91060466847E+02  0.24080276885E+02 -0.20646658589E+03  0.22693681818E+03  0.00000000000E+00 0. -1.
        -11    1    5    5    0    0  0.13602393289E+03  0.12720467693E+03 -0.22278218396E+03  0.29037121353E+03  0.00000000000E+00 0.  1.
          1    1    6    6  503    0 -0.11511143262E+03 -0.53804290941E+03 -0.12135583177E+04  0.13324656111E+04  0.00000000000E+00 0. -1.
         -1    1    6    6    0  503  0.12421549307E+02 -0.19665671693E+03 -0.40953505043E+03  0.45447455015E+03  0.00000000000E+00 0.  1.
<mgrwt>
<rscale>  0 0.16763069E+04</rscale>
<asrwt>0</asrwt>
<pdfrwt beam="1">  1        1 0.47056122E+00 0.16763069E+04</pdfrwt>
<pdfrwt beam="2">  1       -2 0.35334930E-01 0.16763069E+04</pdfrwt>
<totfact> 0.34262501E+00</totfact>
</mgrwt>
</event>
<event>
12    4  0.4413110E-008  0.2626515E+04  0.7818608E-02  0.8359250E-01
         -2   -1    0    0    0  501 -0.00000000000E+00  0.00000000000E+00  0.86542153733E+03  0.86542153733E+03  0.00000000000E+00 0.  1.
          1   -1    0    0  501    0  0.00000000000E+00 -0.00000000000E+00 -0.19928386130E+04  0.19928386130E+04  0.00000000000E+00 0. -1.
        -24    2    1    2    0    0  0.90040370323E+03  0.62370394293E+03 -0.89130388276E+03  0.14144285953E+04  0.80325602760E+02 0.  0.
        254    2    1    2    0    0 -0.90040370323E+03 -0.62370394293E+03 -0.23611319288E+03  0.14438315550E+04  0.91058590053E+03 0.  0.
         23    2    4    4    0    0 -0.82691465534E+03 -0.10462517879E+03  0.49328219084E+02  0.83997174451E+03  0.91569553490E+02 0.  0.
         23    2    4    4    0    0 -0.73489047897E+02 -0.51907876414E+03 -0.28544141196E+03  0.60385981053E+03  0.91249479830E+02 0.  0.
          1    1    3    3  502    0  0.47838871660E+03  0.30071836780E+03 -0.41903270512E+03  0.70347402857E+03  0.00000000000E+00 0. -1.
         -2    1    3    3    0  502  0.42201498663E+03  0.32298557513E+03 -0.47227117764E+03  0.71095456670E+03  0.00000000000E+00 0.  1.
         11    1    5    5    0    0 -0.69188386499E+03 -0.52894609613E+02  0.38710889817E+02  0.69498176620E+03  0.00000000000E+00 0. -1.
        -11    1    5    5    0    0 -0.13503079034E+03 -0.51730569176E+02  0.10617329267E+02  0.14498997830E+03  0.00000000000E+00 0.  1.
          3    1    6    6  503    0 -0.93819686567E+02 -0.44793770128E+03 -0.23654522834E+03  0.51517372105E+03  0.00000000000E+00 0. -1.
         -3    1    6    6    0  503  0.20330638670E+02 -0.71141062864E+02 -0.48896183626E+02  0.88686089480E+02  0.00000000000E+00 0.  1.
<mgrwt>
<rscale>  0 0.26265151E+04</rscale>
<asrwt>0</asrwt>
<pdfrwt beam="1">  1        1 0.30659055E+00 0.26265151E+04</pdfrwt>
<pdfrwt beam="2">  1       -2 0.13314178E+00 0.26265151E+04</pdfrwt>
<totfact> 0.95120279E-01</totfact>
</mgrwt>
</event>
<event>
12    4  0.4413110E-008  0.1447550E+04  0.7818608E-02  0.8920101E-01
          1   -1    0    0  501    0  0.00000000000E+00  0.00000000000E+00  0.10083496482E+04  0.10083496482E+04  0.00000000000E+00 0. -1.
         -2   -1    0    0    0  501 -0.00000000000E+00 -0.00000000000E+00 -0.51951259749E+03  0.51951259749E+03  0.00000000000E+00 0.  1.
        -24    2    1    2    0    0 -0.10508163825E+03  0.17146657995E+03  0.54407021072E+03  0.58702882118E+03  0.90263525129E+02 0.  0.
        254    2    1    2    0    0  0.10508163825E+03 -0.17146657995E+03 -0.55233160042E+02  0.94083342448E+03  0.91742786741E+03 0.  0.
         23    2    4    4    0    0  0.33087054338E+03 -0.22003679613E+03  0.29943066836E+03  0.50578998853E+03  0.90957568207E+02 0.  0.
         23    2    4    4    0    0 -0.22578890513E+03  0.48570216187E+02 -0.35466382840E+03  0.43504343595E+03  0.10068100322E+03 0.  0.
          3    1    3    3  502    0 -0.53509591259E+02  0.92051894225E+02  0.16546993004E+03  0.19676667740E+03  0.00000000000E+00 0. -1.
         -4    1    3    3    0  502 -0.51572046989E+02  0.79414685721E+02  0.37860028067E+03  0.39026214378E+03  0.00000000000E+00 0.  1.
         11    1    5    5    0    0  0.42565900570E+02 -0.48686427934E+02  0.15840860609E+02  0.66581957174E+02  0.00000000000E+00 0.  1.
        -11    1    5    5    0    0  0.28830464281E+03 -0.17135036820E+03  0.28358980775E+03  0.43920803135E+03  0.00000000000E+00 0. -1.
          3    1    6    6  503    0 -0.22359177447E+03  0.28243160693E+02 -0.29030998428E+03  0.36751985621E+03  0.00000000000E+00 0. -1.
         -3    1    6    6    0  503 -0.21971306619E+01  0.20327055494E+02 -0.64353844122E+02  0.67523579744E+02  0.00000000000E+00 0.  1.
<mgrwt>
<rscale>  0 0.14475501E+04</rscale>
<asrwt>0</asrwt>
<pdfrwt beam="1">  1        1 0.15513071E+00 0.14475501E+04</pdfrwt>
<pdfrwt beam="2">  1       -2 0.79925016E-01 0.14475501E+04</pdfrwt>
<totfact> 0.17584726E+01</totfact>
</mgrwt>
</event>
<event>
12    4  0.4413110E-008  0.1681790E+04  0.7818608E-02  0.8771819E-01
          1   -1    0    0  501    0  0.00000000000E+00  0.00000000000E+00  0.48357454697E+03  0.48357454697E+03  0.00000000000E+00 0. -1.
         -2   -1    0    0    0  501 -0.00000000000E+00 -0.00000000000E+00 -0.14622455420E+04  0.14622455420E+04  0.00000000000E+00 0.  1.
        -24    2    1    2    0    0  0.48840108826E+03  0.71203757346E+02  0.36074698703E+02  0.50104082098E+03  0.78325745009E+02 0.  0.
        254    2    1    2    0    0 -0.48840108826E+03 -0.71203757346E+02 -0.10147456937E+04  0.14447792680E+04  0.90225978087E+03 0.  0.
         23    2    4    4    0    0 -0.35339978097E+03 -0.93904040445E+02  0.38623357584E+02  0.37861161512E+03  0.90253073945E+02 0.  0.
         23    2    4    4    0    0 -0.13500130729E+03  0.22700283098E+02 -0.10533690513E+04  0.10661676529E+04  0.91577562179E+02 0.  0.
          1    1    3    3  502    0  0.40442430654E+03  0.77689566422E+02  0.52736699307E+02  0.41518170468E+03  0.00000000000E+00 0. -1.
         -2    1    3    3    0  502  0.83976781723E+02 -0.64858090756E+01 -0.16662000604E+02  0.85859116301E+02  0.00000000000E+00 0.  1.
         11    1    5    5    0    0 -0.27687602687E+03 -0.67401204541E+02  0.67121820858E+02  0.29276030377E+03  0.00000000000E+00 0. -1.
        -11    1    5    5    0    0 -0.76523754101E+02 -0.26502835903E+02 -0.28498463274E+02  0.85851311356E+02  0.00000000000E+00 0.  1.
          1    1    6    6  503    0 -0.12734188465E+03  0.15910068469E+02 -0.64354840776E+03  0.65621920042E+03  0.00000000000E+00 0. -1.
         -1    1    6    6    0  503 -0.76594226438E+01  0.67902146296E+01 -0.40982064357E+03  0.40994845245E+03  0.00000000000E+00 0.  1.
<mgrwt>
<rscale>  0 0.16817904E+04</rscale>
<asrwt>0</asrwt>
<pdfrwt beam="1">  1        1 0.74396083E-01 0.16817904E+04</pdfrwt>
<pdfrwt beam="2">  1       -2 0.22496086E+00 0.16817904E+04</pdfrwt>
<totfact> 0.35562001E+00</totfact>
</mgrwt>
</event>
<event>
12    4  0.4413110E-008  0.1662525E+04  0.7818608E-02  0.8783031E-01
         -2   -1    0    0    0  501 -0.00000000000E+00  0.00000000000E+00  0.31186700876E+03  0.31186700876E+03  0.00000000000E+00 0.  1.
          1   -1    0    0  501    0  0.00000000000E+00 -0.00000000000E+00 -0.22156803619E+04  0.22156803619E+04  0.00000000000E+00 0. -1.
        -24    2    1    2    0    0 -0.36803246387E+03  0.37658137604E+03 -0.85944587738E+03  0.10112443727E+04  0.81893455073E+02 0.  0.
        254    2    1    2    0    0  0.36803246387E+03 -0.37658137604E+03 -0.10443674758E+04  0.15163029979E+04  0.96499219161E+03 0.  0.
         23    2    4    4    0    0 -0.28630060644E+02 -0.52035734110E+03 -0.93083921947E+03  0.10707563306E+04  0.92011000544E+02 0.  0.
         23    2    4    4    0    0  0.39666252451E+03  0.14377596506E+03 -0.11352825631E+03  0.44554666734E+03  0.87238072627E+02 0.  0.
          3    1    3    3  502    0 -0.26241243721E+03  0.30045920506E+03 -0.69676940026E+03  0.80288456097E+03  0.00000000000E+00 0. -1.
         -4    1    3    3    0  502 -0.10562002666E+03  0.76122170987E+02 -0.16267647712E+03  0.20835981175E+03  0.00000000000E+00 0.  1.
         11    1    5    5    0    0 -0.43881051624E+02 -0.50441549146E+03 -0.90267808208E+03  0.10349822484E+04  0.00000000000E+00 0.  1.
        -11    1    5    5    0    0  0.15250990980E+02 -0.15941849639E+02 -0.28161137389E+02  0.35774082166E+02  0.00000000000E+00 0. -1.
          4    1    6    6  503    0  0.72408931475E+02 -0.22911333112E+01 -0.38666340004E+02  0.82118137451E+02  0.00000000000E+00 0. -1.
         -4    1    6    6    0  503  0.32425359304E+03  0.14606709837E+03 -0.74861916307E+02  0.36342852989E+03  0.00000000000E+00 0.  1.
<mgrwt>
<rscale>  0 0.16625253E+04</rscale>
<asrwt>0</asrwt>
<pdfrwt beam="1">  1        1 0.34087392E+00 0.16625253E+04</pdfrwt>
<pdfrwt beam="2">  1       -2 0.47979538E-01 0.16625253E+04</pdfrwt>
<totfact> 0.73381926E+00</totfact>
</mgrwt>
</event>
<event>
12    4  0.4413110E-008  0.1604773E+04  0.7818608E-02  0.8817621E-01
          1   -1    0    0  501    0  0.00000000000E+00  0.00000000000E+00  0.25557836433E+04  0.25557836433E+04  0.00000000000E+00 0. -1.
         -2   -1    0    0    0  501 -0.00000000000E+00 -0.00000000000E+00 -0.25190869037E+03  0.25190869037E+03  0.00000000000E+00 0.  1.
        -24    2    1    2    0    0 -0.25297117983E+03  0.11942974994E+03 -0.26482941409E+02  0.29145673279E+03  0.77380862682E+02 0.  0.
        254    2    1    2    0    0  0.25297117983E+03 -0.11942974994E+03  0.23303578944E+04  0.25162356009E+04  0.90698169798E+03 0.  0.
         23    2    4    4    0    0 -0.86605722886E+02  0.27694240546E+03  0.15042067382E+04  0.15344947590E+04  0.88535908365E+02 0.  0.
         23    2    4    4    0    0  0.33957690272E+03 -0.39637215539E+03  0.82615115618E+03  0.98174084189E+03  0.94159382741E+02 0.  0.
          1    1    3    3  502    0 -0.61718546401E+02  0.15989077695E+01 -0.25552194652E+02  0.66818037441E+02  0.00000000000E+00 0. -1.
         -2    1    3    3    0  502 -0.19125263343E+03  0.11783084217E+03 -0.93074675656E+00  0.22463869535E+03  0.00000000000E+00 0.  1.
         11    1    5    5    0    0 -0.72505458262E+02  0.18024796607E+03  0.78524265366E+03  0.80892051271E+03  0.00000000000E+00 0. -1.
        -11    1    5    5    0    0 -0.14100264624E+02  0.96694439384E+02  0.71896408453E+03  0.72557424632E+03  0.00000000000E+00 0.  1.
          2    1    6    6  503    0  0.14160319328E+03 -0.16188222388E+03  0.42843555894E+03  0.47938955654E+03  0.00000000000E+00 0. -1.
         -2    1    6    6    0  503  0.19797370944E+03 -0.23448993151E+03  0.39771559723E+03  0.50235128535E+03  0.00000000000E+00 0.  1.
<mgrwt>
<rscale>  0 0.16047730E+04</rscale>
<asrwt>0</asrwt>
<pdfrwt beam="1">  1        1 0.39319746E+00 0.16047730E+04</pdfrwt>
<pdfrwt beam="2">  1       -2 0.38755185E-01 0.16047730E+04</pdfrwt>
<totfact> 0.65798389E+00</totfact>
</mgrwt>
</event>
<event>
12    4  0.4413110E-008  0.2088329E+04  0.7818608E-02  0.8566402E-01
          1   -1    0    0  501    0  0.00000000000E+00  0.00000000000E+00  0.53445468692E+03  0.53445468692E+03  0.00000000000E+00 0. -1.
         -2   -1    0    0    0  501 -0.00000000000E+00 -0.00000000000E+00 -0.20399843612E+04  0.20399843612E+04  0.00000000000E+00 0.  1.
        -24    2    1    2    0    0  0.12942865407E+03 -0.83393790524E+03 -0.65471731179E+03  0.10710390515E+04  0.79156081080E+02 0.  0.
        254    2    1    2    0    0 -0.12942865407E+03  0.83393790524E+03 -0.85081236244E+03  0.15033999966E+04  0.90781367435E+03 0.  0.
         23    2    4    4    0    0  0.29723422805E+03  0.47259438820E+03 -0.73080975317E+03  0.92427627355E+03  0.92250162211E+02 0.  0.
         23    2    4    4    0    0 -0.42666288212E+03  0.36134351704E+03 -0.12000260927E+03  0.57912372303E+03  0.91505781574E+02 0.  0.
          1    1    3    3  502    0  0.44954143176E+02 -0.12560935417E+03 -0.85954680033E+02  0.15870347149E+03  0.00000000000E+00 0. -1.
         -2    1    3    3    0  502  0.84474510893E+02 -0.70832855107E+03 -0.56876263176E+03  0.91233558000E+03  0.00000000000E+00 0.  1.
         11    1    5    5    0    0  0.14185028314E+03  0.14271714302E+03 -0.25824858309E+03  0.32738664665E+03  0.00000000000E+00 0. -1.
        -11    1    5    5    0    0  0.15538394491E+03  0.32987724518E+03 -0.47256117008E+03  0.59688962689E+03  0.00000000000E+00 0.  1.
          3    1    6    6  503    0 -0.40701381881E+03  0.35104055533E+03 -0.95207850991E+02  0.54585186184E+03  0.00000000000E+00 0. -1.
         -3    1    6    6    0  503 -0.19649063309E+02  0.10302961712E+02 -0.24794758275E+02  0.33271861188E+02  0.00000000000E+00 0.  1.
<mgrwt>
<rscale>  0 0.20883287E+04</rscale>
<asrwt>0</asrwt>
<pdfrwt beam="1">  1        1 0.82223797E-01 0.20883287E+04</pdfrwt>
<pdfrwt beam="2">  1       -2 0.31384375E+00 0.20883287E+04</pdfrwt>
<totfact> 0.85182389E-01</totfact>
</mgrwt>
</event>
<event>
12    4  0.4413110E-008  0.1694811E+04  0.7818608E-02  0.8764329E-01
         -2   -1    0    0    0  501 -0.00000000000E+00  0.00000000000E+00  0.47541375471E+03  0.47541375471E+03  0.00000000000E+00 0.  1.
          1   -1    0    0  501    0  0.00000000000E+00 -0.00000000000E+00 -0.15104660951E+04  0.15104660951E+04  0.00000000000E+00 0. -1.
        -24    2    1    2    0    0  0.27434547779E+02 -0.33620862885E+03  0.21314356694E+03  0.40754129553E+03  0.82890475344E+02 0.  0.
        254    2    1    2    0    0 -0.27434547779E+02  0.33620862885E+03 -0.12481959073E+04  0.15783385543E+04  0.90519095904E+03 0.  0.
         23    2    4    4    0    0 -0.35977335510E+03 -0.94500126345E+02 -0.71632550711E+03  0.81226453027E+03  0.91018097519E+02 0.  0.
         23    2    4    4    0    0  0.33233880732E+03  0.43070875520E+03 -0.53187040021E+03  0.76607402400E+03  0.89577748221E+02 0.  0.
          1    1    3    3  502    0 -0.12182749978E+01  0.39266783227E+01 -0.14386942090E+01  0.43557820936E+01  0.00000000000E+00 0. -1.
         -2    1    3    3    0  502  0.28652822777E+02 -0.34013530718E+03  0.21458226115E+03  0.40318551343E+03  0.00000000000E+00 0.  1.
         11    1    5    5    0    0 -0.24023456256E+03 -0.10304111107E+03 -0.45437415687E+03  0.52420033389E+03  0.00000000000E+00 0. -1.
        -11    1    5    5    0    0 -0.11953879254E+03  0.85409847295E+01 -0.26195135024E+03  0.28806419638E+03  0.00000000000E+00 0.  1.
          2    1    6    6  503    0  0.17513466933E+03  0.28617630300E+03 -0.35849806863E+03  0.49100905696E+03  0.00000000000E+00 0. -1.
         -2    1    6    6    0  503  0.15720413799E+03  0.14453245220E+03 -0.17337233158E+03  0.27506496705E+03  0.00000000000E+00 0.  1.
<mgrwt>
<rscale>  0 0.16948113E+04</rscale>
<asrwt>0</asrwt>
<pdfrwt beam="1">  1        1 0.23237940E+00 0.16948113E+04</pdfrwt>
<pdfrwt beam="2">  1       -2 0.73140577E-01 0.16948113E+04</pdfrwt>
<totfact> 0.90723776E+00</totfact>
</mgrwt>
</event>
<event>
12    4  0.4413110E-008  0.2275381E+04  0.7818608E-02  0.8487692E-01
          1   -1    0    0  501    0  0.00000000000E+00  0.00000000000E+00  0.88762216301E+03  0.88762216301E+03  0.00000000000E+00 0. -1.
         -2   -1    0    0    0  501 -0.00000000000E+00 -0.00000000000E+00 -0.14582107050E+04  0.14582107050E+04  0.00000000000E+00 0.  1.
        -24    2    1    2    0    0  0.51290728947E+03 -0.82350623766E+03 -0.27151805329E+03  0.10105994482E+04  0.79704331481E+02 0.  0.
        254    2    1    2    0    0 -0.51290728947E+03  0.82350623766E+03 -0.29907048867E+03  0.13352334197E+04  0.86727660925E+03 0.  0.
         23    2    4    4    0    0 -0.54646707432E+03  0.97110218195E+03 -0.30100484483E+03  0.11575893447E+04  0.87996949546E+02 0.  0.
         23    2    4    4    0    0  0.33559784854E+02 -0.14759594429E+03  0.19343561674E+01  0.17764407509E+03  0.92966949772E+02 0.  0.
          3    1    3    3  502    0  0.43655096802E+03 -0.65349215068E+03 -0.23882169524E+03  0.82137965692E+03  0.00000000000E+00 0. -1.
         -4    1    3    3    0  502  0.76356321448E+02 -0.17001408698E+03 -0.32696358045E+02  0.18921979131E+03  0.00000000000E+00 0.  1.
         11    1    5    5    0    0 -0.11809507368E+03  0.15567563976E+03 -0.31918800224E+02  0.19799030544E+03  0.00000000000E+00 0. -1.
        -11    1    5    5    0    0 -0.42837200064E+03  0.81542654219E+03 -0.26908604461E+03  0.95959903921E+03  0.00000000000E+00 0.  1.
          4    1    6    6  503    0  0.24203374005E+02  0.16859588845E+01 -0.12646602095E+02  0.27360232366E+02  0.00000000000E+00 0. -1.
         -4    1    6    6    0  503  0.93564108490E+01 -0.14928190318E+03  0.14580958262E+02  0.15028384273E+03  0.00000000000E+00 0.  1.
<mgrwt>
<rscale>  0 0.22753814E+04</rscale>
<asrwt>0</asrwt>
<pdfrwt beam="1">  1        1 0.13655726E+00 0.22753814E+04</pdfrwt>
<pdfrwt beam="2">  1       -2 0.22434011E+00 0.22753814E+04</pdfrwt>
<totfact> 0.13722687E+00</totfact>
</mgrwt>
</event>
<event>
12    4  0.4413110E-008  0.1811450E+04  0.7818608E-02  0.8700234E-01
          1   -1    0    0  501    0  0.00000000000E+00  0.00000000000E+00  0.32054119679E+04  0.32054119679E+04  0.00000000000E+00 0. -1.
         -2   -1    0    0    0  501 -0.00000000000E+00 -0.00000000000E+00 -0.25592277454E+03  0.25592277454E+03  0.00000000000E+00 0.  1.
        -24    2    1    2    0    0  0.49500335501E+03 -0.47188215125E+03  0.11568499489E+04  0.13462110077E+04  0.79253938950E+02 0.  0.
        254    2    1    2    0    0 -0.49500335501E+03  0.47188215125E+03  0.17926392444E+04  0.21151237347E+04  0.89022012240E+03 0.  0.
         23    2    4    4    0    0 -0.49017932852E+03  0.46976645644E+03  0.18729027743E+04  0.19942259553E+04  0.90642491745E+02 0.  0.
         23    2    4    4    0    0 -0.48240264813E+01  0.21156948074E+01 -0.80263529869E+02  0.12089777936E+03  0.90256808224E+02 0.  0.
          3    1    3    3  502    0  0.22348427447E+03 -0.21210699710E+03  0.59905733279E+03  0.67364997374E+03  0.00000000000E+00 0. -1.
         -2    1    3    3    0  502  0.27151908053E+03 -0.25977515415E+03  0.55779261615E+03  0.67256103399E+03  0.00000000000E+00 0.  1.
         11    1    5    5    0    0 -0.47412572119E+03  0.46112185549E+03  0.18516489458E+04  0.19662228723E+04  0.00000000000E+00 0. -1.
        -11    1    5    5    0    0 -0.16053607337E+02  0.86446009530E+01  0.21253828503E+02  0.28003083049E+02  0.00000000000E+00 0.  1.
          2    1    6    6  503    0 -0.15086382856E+02  0.40562767310E+02 -0.65393356773E+02  0.78417014414E+02  0.00000000000E+00 0. -1.
         -2    1    6    6    0  503  0.10262356374E+02 -0.38447072503E+02 -0.14870173096E+02  0.42480764945E+02  0.00000000000E+00 0.  1.
<mgrwt>
<rscale>  0 0.18114502E+04</rscale>
<asrwt>0</asrwt>
<pdfrwt beam="1">  1        1 0.49314027E+00 0.18114502E+04</pdfrwt>
<pdfrwt beam="2">  1       -2 0.39372737E-01 0.18114502E+04</pdfrwt>
<totfact> 0.21362287E+00</totfact>
</mgrwt>
</event>
<event>
12    4  0.4413110E-008  0.2005552E+04  0.7818608E-02  0.8604029E-01
         -2   -1    0    0    0  501 -0.00000000000E+00  0.00000000000E+00  0.84214106442E+03  0.84214106442E+03  0.00000000000E+00 0.  1.
          1   -1    0    0  501    0  0.00000000000E+00 -0.00000000000E+00 -0.11940519086E+04  0.11940519086E+04  0.00000000000E+00 0. -1.
        -24    2    1    2    0    0 -0.47732338248E+03  0.17665051825E+03 -0.76791089405E+03  0.92484422344E+03  0.81281482325E+02 0.  0.
        254    2    1    2    0    0  0.47732338248E+03 -0.17665051825E+03  0.41600004982E+03  0.11113487496E+04  0.89610099029E+03 0.  0.
         23    2    4    4    0    0  0.49526459051E+03 -0.38592440518E+03  0.55490795190E+03  0.84298596191E+03  0.92075163669E+02 0.  0.
         23    2    4    4    0    0 -0.17941208030E+02  0.20927388693E+03 -0.13890790208E+03  0.26836278772E+03  0.92767094802E+02 0.  0.
          1    1    3    3  502    0 -0.45298311452E+03  0.18548969485E+03 -0.72722472903E+03  0.87661618480E+03  0.00000000000E+00 0. -1.
         -2    1    3    3    0  502 -0.24340267958E+02 -0.88391765980E+01 -0.40686165017E+02  0.48228038639E+02  0.00000000000E+00 0.  1.
         11    1    5    5    0    0  0.32640156374E+03 -0.30681279786E+03  0.40004577093E+03  0.60059028679E+03  0.00000000000E+00 0.  1.
        -11    1    5    5    0    0  0.16886302677E+03 -0.79111607319E+02  0.15486218097E+03  0.24239567512E+03  0.00000000000E+00 0. -1.
          4    1    6    6  503    0  0.23247469949E+02  0.54030380479E+02 -0.46105447635E+01  0.58999864379E+02  0.00000000000E+00 0. -1.
         -4    1    6    6    0  503 -0.41188677979E+02  0.15524350645E+03 -0.13429735732E+03  0.20936292335E+03  0.00000000000E+00 0.  1.
<mgrwt>
<rscale>  0 0.20055524E+04</rscale>
<asrwt>0</asrwt>
<pdfrwt beam="1">  1        1 0.18370029E+00 0.20055524E+04</pdfrwt>
<pdfrwt beam="2">  1       -2 0.12956016E+00 0.20055524E+04</pdfrwt>
<totfact> 0.38454836E+00</totfact>
</mgrwt>
</event>
<event>
12    4  0.4413110E-008  0.2033819E+04  0.7818608E-02  0.8590971E-01
         -2   -1    0    0    0  501 -0.00000000000E+00  0.00000000000E+00  0.46113515273E+03  0.46113515273E+03  0.00000000000E+00 0.  1.
          1   -1    0    0  501    0  0.00000000000E+00 -0.00000000000E+00 -0.22425195806E+04  0.22425195806E+04  0.00000000000E+00 0. -1.
        -24    2    1    2    0    0  0.72574838505E+03  0.32863982936E+03 -0.86157080010E+03  0.11762100867E+04  0.80318544894E+02 0.  0.
        254    2    1    2    0    0 -0.72574838505E+03 -0.32863982936E+03 -0.91981362778E+03  0.15274446466E+04  0.92320917608E+03 0.  0.
         23    2    4    4    0    0 -0.16132185313E+03 -0.45431881650E+03 -0.70018607350E+02  0.49564384849E+03  0.91268241171E+02 0.  0.
         23    2    4    4    0    0 -0.56442653192E+03  0.12567898714E+03 -0.84979502043E+03  0.10318007981E+04  0.89937714783E+02 0.  0.
          1    1    3    3  502    0  0.37951725509E+03  0.20326505628E+03 -0.42307662621E+03  0.60360903047E+03  0.00000000000E+00 0. -1.
         -2    1    3    3    0  502  0.34623112996E+03  0.12537477308E+03 -0.43849417389E+03  0.57260105624E+03  0.00000000000E+00 0.  1.
         11    1    5    5    0    0 -0.98975942280E+02 -0.32796508966E+03 -0.10625700348E+02  0.34273932178E+03  0.00000000000E+00 0.  1.
        -11    1    5    5    0    0 -0.62345910854E+02 -0.12635372684E+03 -0.59392907001E+02  0.15290452671E+03  0.00000000000E+00 0. -1.
          4    1    6    6  503    0 -0.69901865215E+02 -0.13952676789E+02 -0.98690578309E+02  0.12174061852E+03  0.00000000000E+00 0. -1.
         -4    1    6    6    0  503 -0.49452466670E+03  0.13963166393E+03 -0.75110444212E+03  0.91006017961E+03  0.00000000000E+00 0.  1.
<mgrwt>
<rscale>  0 0.20338187E+04</rscale>
<asrwt>0</asrwt>
<pdfrwt beam="1">  1        1 0.34500301E+00 0.20338187E+04</pdfrwt>
<pdfrwt beam="2">  1       -2 0.70943870E-01 0.20338187E+04</pdfrwt>
<totfact> 0.29888725E+00</totfact>
</mgrwt>
</event>
<event>
12    4  0.4413110E-008  0.1558714E+04  0.7818608E-02  0.8846321E-01
         -2   -1    0    0    0  501 -0.00000000000E+00  0.00000000000E+00  0.27147593981E+03  0.27147593981E+03  0.00000000000E+00 0.  1.
          1   -1    0    0  501    0  0.00000000000E+00 -0.00000000000E+00 -0.22373893749E+04  0.22373893749E+04  0.00000000000E+00 0. -1.
        -24    2    1    2    0    0  0.12679602443E+03  0.12704394091E+03 -0.14356783763E+04  0.14491374367E+04  0.81298926201E+02 0.  0.
        254    2    1    2    0    0 -0.12679602443E+03 -0.12704394091E+03 -0.53023505877E+03  0.10597278780E+04  0.89980918154E+03 0.  0.
         23    2    4    4    0    0 -0.49297944298E+03 -0.18590346867E+03 -0.32672192166E+03  0.62685835124E+03  0.92818896607E+02 0.  0.
         23    2    4    4    0    0  0.36618341855E+03  0.58859527762E+02 -0.20351313712E+03  0.43286952679E+03  0.91671643457E+02 0.  0.
          3    1    3    3  502    0  0.13868364954E+03  0.11771242631E+03 -0.13318761377E+04  0.13442408327E+04  0.00000000000E+00 0. -1.
         -4    1    3    3    0  502 -0.11887625110E+02  0.93315145961E+01 -0.10380223862E+03  0.10489660404E+03  0.00000000000E+00 0.  1.
         11    1    5    5    0    0 -0.37699922333E+03 -0.15030515420E+03 -0.20381254369E+03  0.45415812966E+03  0.00000000000E+00 0.  1.
        -11    1    5    5    0    0 -0.11598021965E+03 -0.35598314473E+02 -0.12290937796E+03  0.17270022159E+03  0.00000000000E+00 0. -1.
          1    1    6    6  503    0  0.26642060090E+03  0.30347620193E+02 -0.99654068206E+02  0.28606266437E+03  0.00000000000E+00 0. -1.
         -1    1    6    6    0  503  0.99762817646E+02  0.28511907569E+02 -0.10385906891E+03  0.14680686242E+03  0.00000000000E+00 0.  1.
<mgrwt>
<rscale>  0 0.15587141E+04</rscale>
<asrwt>0</asrwt>
<pdfrwt beam="1">  1        1 0.34421375E+00 0.15587141E+04</pdfrwt>
<pdfrwt beam="2">  1       -2 0.41765529E-01 0.15587141E+04</pdfrwt>
<totfact> 0.94438922E+00</totfact>
</mgrwt>
</event>
<event>
12    4  0.4413110E-008  0.3224729E+04  0.7818608E-02  0.8182317E-01
         -2   -1    0    0    0  501 -0.00000000000E+00  0.00000000000E+00  0.79607557433E+03  0.79607557433E+03  0.00000000000E+00 0.  1.
          1   -1    0    0  501    0  0.00000000000E+00 -0.00000000000E+00 -0.32656692761E+04  0.32656692761E+04  0.00000000000E+00 0. -1.
        -24    2    1    2    0    0  0.53081041110E+02 -0.29259448345E+03 -0.29763786902E+04  0.29919045874E+04  0.65067839166E+02 0.  0.
        254    2    1    2    0    0 -0.53081041110E+02  0.29259448345E+03  0.50678498843E+03  0.10698402631E+04  0.89403469470E+03 0.  0.
         23    2    4    4    0    0  0.82307743917E+02  0.18743612253E+03 -0.22225119876E+03  0.31547275891E+03  0.90667532920E+02 0.  0.
         23    2    4    4    0    0 -0.13538878503E+03  0.10515836092E+03  0.72903618718E+03  0.75436750417E+03  0.90488480707E+02 0.  0.
          3    1    3    3  502    0  0.52805666483E+02 -0.11232482017E+03 -0.12296438090E+04  0.12358920667E+04  0.00000000000E+00 0. -1.
         -4    1    3    3    0  502  0.27537462650E+00 -0.18026966328E+03 -0.17467348813E+04  0.17560125207E+04  0.00000000000E+00 0.  1.
         11    1    5    5    0    0  0.11580904154E+02  0.68668758018E+01 -0.63334331906E+02  0.64749586271E+02  0.00000000000E+00 0. -1.
        -11    1    5    5    0    0  0.70726839764E+02  0.18056924673E+03 -0.15891686685E+03  0.25072317264E+03  0.00000000000E+00 0.  1.
          4    1    6    6  503    0 -0.50656224511E+02  0.79108396608E+02  0.24723933098E+03  0.26448341778E+03  0.00000000000E+00 0. -1.
         -4    1    6    6    0  503 -0.84732560517E+02  0.26049964311E+02  0.48179685621E+03  0.48988408639E+03  0.00000000000E+00 0.  1.
<mgrwt>
<rscale>  0 0.32247292E+04</rscale>
<asrwt>0</asrwt>
<pdfrwt beam="1">  1        1 0.50241065E+00 0.32247292E+04</pdfrwt>
<pdfrwt beam="2">  1       -2 0.12247317E+00 0.32247292E+04</pdfrwt>
<totfact> 0.14054793E-01</totfact>
</mgrwt>
</event>
<event>
12    4  0.4413110E-008  0.1099100E+04  0.7818608E-02  0.9206069E-01
          1   -1    0    0  501    0  0.00000000000E+00  0.00000000000E+00  0.16470544647E+03  0.16470544647E+03  0.00000000000E+00 0. -1.
         -2   -1    0    0    0  501 -0.00000000000E+00 -0.00000000000E+00 -0.18336094863E+04  0.18336094863E+04  0.00000000000E+00 0.  1.
        -24    2    1    2    0    0  0.76871788107E+02  0.62504851057E+02 -0.38583935297E+02  0.13214476746E+03  0.78469046713E+02 0.  0.
        254    2    1    2    0    0 -0.76871788107E+02 -0.62504851057E+02 -0.16303201046E+04  0.18661701653E+04  0.90268007313E+03 0.  0.
         23    2    4    4    0    0  0.35533526594E+03  0.14674233588E+03 -0.94699386342E+03  0.10260597359E+04  0.90580018869E+02 0.  0.
         23    2    4    4    0    0 -0.43220705405E+03 -0.20924718694E+03 -0.68332624113E+03  0.84011042947E+03  0.90903570214E+02 0.  0.
          1    1    3    3  502    0  0.83753315770E+02  0.23916460965E+02 -0.24317453858E+02  0.90432038403E+02  0.00000000000E+00 0. -1.
         -2    1    3    3    0  502 -0.68815276633E+01  0.38588390092E+02 -0.14266481439E+02  0.41712729059E+02  0.00000000000E+00 0.  1.
         11    1    5    5    0    0  0.13086559077E+03  0.85944617598E+01 -0.33196489215E+03  0.35693186639E+03  0.00000000000E+00 0.  1.
        -11    1    5    5    0    0  0.22446967518E+03  0.13814787412E+03 -0.61502897127E+03  0.66912786947E+03  0.00000000000E+00 0. -1.
          1    1    6    6  503    0 -0.41059299997E+03 -0.19130603097E+03 -0.67064771645E+03  0.80929164625E+03  0.00000000000E+00 0. -1.
         -1    1    6    6    0  503 -0.21614054077E+02 -0.17941155971E+02 -0.12678524683E+02  0.30818783223E+02  0.00000000000E+00 0.  1.
<mgrwt>
<rscale>  0 0.10991005E+04</rscale>
<asrwt>0</asrwt>
<pdfrwt beam="1">  1        1 0.25339301E-01 0.10991005E+04</pdfrwt>
<pdfrwt beam="2">  1       -2 0.28209375E+00 0.10991005E+04</pdfrwt>
<totfact> 0.68680049E+00</totfact>
</mgrwt>
</event>
<event>
12    4  0.4413110E-008  0.2228084E+04  0.7818608E-02  0.8506829E-01
         -2   -1    0    0    0  501 -0.00000000000E+00  0.00000000000E+00  0.41352384288E+03  0.41352384288E+03  0.00000000000E+00 0.  1.
          1   -1    0    0  501    0  0.00000000000E+00 -0.00000000000E+00 -0.30012534804E+04  0.30012534804E+04  0.00000000000E+00 0. -1.
        -24    2    1    2    0    0 -0.34842391446E+03  0.43864678909E+03  0.60187313403E+02  0.56978520712E+03  0.84984938715E+02 0.  0.
        254    2    1    2    0    0  0.34842391446E+03 -0.43864678909E+03 -0.26479169509E+04  0.28449921162E+04  0.87675865109E+03 0.  0.
         23    2    4    4    0    0  0.49363737717E+03  0.76110844072E+01 -0.18318792971E+04  0.18994108632E+04  0.90796913453E+02 0.  0.
         23    2    4    4    0    0 -0.14521346270E+03 -0.44625787350E+03 -0.81603765384E+03  0.94558125294E+03  0.89293975257E+02 0.  0.
          1    1    3    3  502    0 -0.24750282409E+02  0.72102105954E+02  0.21772250031E+02  0.79280016610E+02  0.00000000000E+00 0. -1.
         -2    1    3    3    0  502 -0.32367363206E+03  0.36654468314E+03  0.38415063372E+02  0.49050519051E+03  0.00000000000E+00 0.  1.
         11    1    5    5    0    0  0.79818126552E+02 -0.27463523594E+02 -0.38261626916E+03  0.39181677846E+03  0.00000000000E+00 0.  1.
        -11    1    5    5    0    0  0.41381925061E+03  0.35074608001E+02 -0.14492630279E+04  0.15075940848E+04  0.00000000000E+00 0. -1.
          3    1    6    6  503    0 -0.12023315779E+03 -0.23566935084E+03 -0.48429803035E+03  0.55185200676E+03  0.00000000000E+00 0. -1.
         -3    1    6    6    0  503 -0.24980304913E+02 -0.21058852266E+03 -0.33173962349E+03  0.39372924618E+03  0.00000000000E+00 0.  1.
<mgrwt>
<rscale>  0 0.22280843E+04</rscale>
<asrwt>0</asrwt>
<pdfrwt beam="1">  1        1 0.46173131E+00 0.22280843E+04</pdfrwt>
<pdfrwt beam="2">  1       -2 0.63619052E-01 0.22280843E+04</pdfrwt>
<totfact> 0.10909136E+00</totfact>
</mgrwt>
</event>
<event>
12    4  0.4413110E-008  0.1523611E+04  0.7818608E-02  0.8868902E-01
         -2   -1    0    0    0  501 -0.00000000000E+00  0.00000000000E+00  0.59095263924E+03  0.59095263924E+03  0.00000000000E+00 0.  1.
          1   -1    0    0  501    0  0.00000000000E+00 -0.00000000000E+00 -0.98205390062E+03  0.98205390062E+03  0.00000000000E+00 0. -1.
        -24    2    1    2    0    0  0.40506466720E+03  0.25616902726E+03 -0.16232567736E+02  0.48616508986E+03  0.79956508207E+02 0.  0.
        254    2    1    2    0    0 -0.40506466720E+03 -0.25616902726E+03 -0.37486869365E+03  0.10868414500E+04  0.90055418760E+03 0.  0.
         23    2    4    4    0    0 -0.60772595994E+03  0.42542491695E+02 -0.10123584623E+03  0.62439988845E+03  0.92118500566E+02 0.  0.
         23    2    4    4    0    0  0.20266129274E+03 -0.29871151896E+03 -0.27363284742E+03  0.46244156154E+03  0.93150907248E+02 0.  0.
          1    1    3    3  502    0  0.31049936290E+03  0.19432328291E+03 -0.46380916186E+02  0.36921888092E+03  0.00000000000E+00 0. -1.
         -2    1    3    3    0  502  0.94565304299E+02  0.61845744355E+02  0.30148348450E+02  0.11694620894E+03  0.00000000000E+00 0.  1.
         11    1    5    5    0    0 -0.11525828081E+03 -0.26169102217E+02 -0.31314379146E+02  0.12226971640E+03  0.00000000000E+00 0.  1.
        -11    1    5    5    0    0 -0.49246767913E+03  0.68711593912E+02 -0.69921467079E+02  0.50213017205E+03  0.00000000000E+00 0. -1.
          4    1    6    6  503    0  0.19938136606E+03 -0.24985436567E+03 -0.25876900281E+03  0.41126819715E+03  0.00000000000E+00 0. -1.
         -4    1    6    6    0  503  0.32799266824E+01 -0.48857153286E+02 -0.14863844617E+02  0.51173364391E+02  0.00000000000E+00 0.  1.
<mgrwt>
<rscale>  0 0.15236106E+04</rscale>
<asrwt>0</asrwt>
<pdfrwt beam="1">  1        1 0.15108521E+00 0.15236106E+04</pdfrwt>
<pdfrwt beam="2">  1       -2 0.90915791E-01 0.15236106E+04</pdfrwt>
<totfact> 0.13657813E+01</totfact>
</mgrwt>
</event>
<event>
12    4  0.4413110E-008  0.2062968E+04  0.7818608E-02  0.8577734E-01
         -2   -1    0    0    0  501 -0.00000000000E+00  0.00000000000E+00  0.89813955906E+03  0.89813955906E+03  0.00000000000E+00 0.  1.
          1   -1    0    0  501    0  0.00000000000E+00 -0.00000000000E+00 -0.11846255164E+04  0.11846255164E+04  0.00000000000E+00 0. -1.
        -24    2    1    2    0    0 -0.31917976963E+03 -0.60145306235E+03 -0.59398170161E+03  0.90717821129E+03  0.80848832019E+02 0.  0.
        254    2    1    2    0    0  0.31917976963E+03  0.60145306235E+03  0.30749574425E+03  0.11755868642E+04  0.90765044536E+03 0.  0.
         23    2    4    4    0    0  0.11033661435E+03 -0.18606937018E+01  0.48433430285E+03  0.50693486527E+03  0.10112175861E+03 0.  0.
         23    2    4    4    0    0  0.20884315528E+03  0.60331375605E+03 -0.17683855860E+03  0.66865199891E+03  0.90667899991E+02 0.  0.
          3    1    3    3  502    0 -0.30612270068E+03 -0.57787392499E+03 -0.58830952955E+03  0.87963485812E+03  0.00000000000E+00 0. -1.
         -4    1    3    3    0  502 -0.13057068943E+02 -0.23579137361E+02 -0.56721720633E+01  0.27543353173E+02  0.00000000000E+00 0.  1.
         11    1    5    5    0    0  0.10789583098E+03 -0.12348761420E+02  0.48413362878E+03  0.49616466295E+03  0.00000000000E+00 0. -1.
        -11    1    5    5    0    0  0.24407833656E+01  0.10488067718E+02  0.20067407485E+00  0.10770202319E+02  0.00000000000E+00 0.  1.
          4    1    6    6  503    0  0.20839497732E+03  0.53892174201E+03 -0.17681382325E+03  0.60425842044E+03  0.00000000000E+00 0. -1.
         -4    1    6    6    0  503  0.44817795803E+00  0.64392014046E+02 -0.24735352316E-01  0.64393578471E+02  0.00000000000E+00 0.  1.
<mgrwt>
<rscale>  0 0.20629678E+04</rscale>
<asrwt>0</asrwt>
<pdfrwt beam="1">  1        1 0.18225008E+00 0.20629678E+04</pdfrwt>
<pdfrwt beam="2">  1       -2 0.13817532E+00 0.20629678E+04</pdfrwt>
<totfact> 0.32982258E+00</totfact>
</mgrwt>
</event>
<event>
12    4  0.4413110E-008  0.1562779E+04  0.7818608E-02  0.8843747E-01
         -4   -1    0    0    0  501 -0.00000000000E+00  0.00000000000E+00  0.25672625706E+03  0.25672625706E+03  0.00000000000E+00 0.  1.
          1   -1    0    0  501    0  0.00000000000E+00 -0.00000000000E+00 -0.23782889536E+04  0.23782889536E+04  0.00000000000E+00 0. -1.
        -24    2    1    2    0    0 -0.29128285043E+02  0.50104946435E+03 -0.88609377728E+03  0.10214966052E+04  0.79963176683E+02 0.  0.
        254    2    1    2    0    0  0.29128285043E+02 -0.50104946435E+03 -0.12354689192E+04  0.16135186054E+04  0.90838307828E+03 0.  0.
         23    2    4    4    0    0  0.81884084540E+02  0.25057610902E+03 -0.36165154343E+03  0.45610899780E+03  0.88035159467E+02 0.  0.
         23    2    4    4    0    0 -0.52755799496E+02 -0.75162557336E+03 -0.87381737582E+03  0.11574096076E+04  0.91192196001E+02 0.  0.
          3    1    3    3  502    0 -0.49230579966E+02  0.38304505904E+03 -0.71585334360E+03  0.81338378199E+03  0.00000000000E+00 0. -1.
         -4    1    3    3    0  502  0.20102294923E+02  0.11800440530E+03 -0.17024043368E+03  0.20811282323E+03  0.00000000000E+00 0.  1.
         11    1    5    5    0    0  0.33399358800E+02  0.21475892491E+03 -0.29174213487E+03  0.36379992614E+03  0.00000000000E+00 0.  1.
        -11    1    5    5    0    0  0.48484725740E+02  0.35817184105E+02 -0.69909408556E+02  0.92309071667E+02  0.00000000000E+00 0. -1.
          2    1    6    6  503    0 -0.43201579890E+02 -0.13407125054E+03 -0.17872521065E+03  0.22756137116E+03  0.00000000000E+00 0. -1.
         -2    1    6    6    0  503 -0.95542196062E+01 -0.61755432283E+03 -0.69509216518E+03  0.92984823646E+03  0.00000000000E+00 0.  1.
<mgrwt>
<rscale>  0 0.15627786E+04</rscale>
<asrwt>0</asrwt>
<pdfrwt beam="1">  1        1 0.36589061E+00 0.15627786E+04</pdfrwt>
<pdfrwt beam="2">  1       -4 0.39496347E-01 0.15627786E+04</pdfrwt>
<totfact> 0.49254747E+00</totfact>
</mgrwt>
</event>
<event>
12    4  0.4413110E-008  0.1412130E+04  0.7818608E-02  0.8945085E-01
          3   -1    0    0  501    0  0.00000000000E+00  0.00000000000E+00  0.12761888743E+04  0.12761888743E+04  0.00000000000E+00 0. -1.
         -4   -1    0    0    0  501 -0.00000000000E+00 -0.00000000000E+00 -0.39063779193E+03  0.39063779193E+03  0.00000000000E+00 0.  1.
        -24    2    1    2    0    0 -0.34378051071E+03 -0.33866531228E+02  0.52387107004E+03  0.63231792754E+03  0.77801555173E+02 0.  0.
        254    2    1    2    0    0  0.34378051071E+03  0.33866531228E+02  0.36168001233E+03  0.10345087387E+04  0.90557380574E+03 0.  0.
         23    2    4    4    0    0  0.16441838568E+03 -0.18068724165E+03  0.60131157687E+03  0.65531295659E+03  0.90433255822E+02 0.  0.
         23    2    4    4    0    0  0.17936212503E+03  0.21455377288E+03 -0.23963156453E+03  0.37919578210E+03  0.90344125924E+02 0.  0.
          3    1    3    3  502    0 -0.10437681637E+03  0.16049006396E+02  0.20356698090E+03  0.22932859855E+03  0.00000000000E+00 0. -1.
         -4    1    3    3    0  502 -0.23940369434E+03 -0.49915537624E+02  0.32030408914E+03  0.40298932899E+03  0.00000000000E+00 0.  1.
         11    1    5    5    0    0  0.13107399077E+03 -0.13933912889E+03  0.35421780471E+03  0.40257426280E+03  0.00000000000E+00 0.  1.
        -11    1    5    5    0    0  0.33344394907E+02 -0.41348112767E+02  0.24709377216E+03  0.25273869379E+03  0.00000000000E+00 0. -1.
          2    1    6    6  503    0  0.93238360682E+02  0.53015361379E+02 -0.11771686422E+03  0.15925225451E+03  0.00000000000E+00 0. -1.
         -2    1    6    6    0  503  0.86123764351E+02  0.16153841150E+03 -0.12191470031E+03  0.21994352759E+03  0.00000000000E+00 0.  1.
<mgrwt>
<rscale>  0 0.14121297E+04</rscale>
<asrwt>0</asrwt>
<pdfrwt beam="1">  1        3 0.19633675E+00 0.14121297E+04</pdfrwt>
<pdfrwt beam="2">  1       -4 0.60098123E-01 0.14121297E+04</pdfrwt>
<totfact> 0.90513312E-01</totfact>
</mgrwt>
</event>
<event>
12    4  0.4413110E-008  0.1271822E+04  0.7818608E-02  0.9052214E-01
          1   -1    0    0  501    0  0.00000000000E+00  0.00000000000E+00  0.85517136388E+03  0.85517136388E+03  0.00000000000E+00 0. -1.
         -2   -1    0    0    0  501 -0.00000000000E+00 -0.00000000000E+00 -0.47286756842E+03  0.47286756842E+03  0.00000000000E+00 0.  1.
        -24    2    1    2    0    0 -0.21795760715E+03  0.14233870823E+03 -0.76807564282E+02  0.28260649369E+03  0.78747710873E+02 0.  0.
        254    2    1    2    0    0  0.21795760715E+03 -0.14233870823E+03  0.45911135975E+03  0.10454324386E+04  0.90243000653E+03 0.  0.
         23    2    4    4    0    0 -0.91415464862E+02 -0.46331180792E+03  0.18801274235E+03  0.51594550681E+03  0.88523195505E+02 0.  0.
         23    2    4    4    0    0  0.30937307201E+03  0.32097309968E+03  0.27109861739E+03  0.52948693180E+03  0.90147225082E+02 0.  0.
          1    1    3    3  502    0 -0.28690988567E+02  0.12037555250E+02  0.15761377768E+02  0.34878311176E+02  0.00000000000E+00 0. -1.
         -2    1    3    3    0  502 -0.18926661858E+03  0.13030115298E+03 -0.92568942050E+02  0.24772818251E+03  0.00000000000E+00 0.  1.
         11    1    5    5    0    0 -0.73015684603E+02 -0.34105031543E+03  0.17886705989E+03  0.39196942861E+03  0.00000000000E+00 0.  1.
        -11    1    5    5    0    0 -0.18399780259E+02 -0.12226149249E+03  0.91456824669E+01  0.12397607820E+03  0.00000000000E+00 0. -1.
          2    1    6    6  503    0  0.48290032975E+02  0.46467485099E+02  0.63675797562E+01  0.67317906444E+02  0.00000000000E+00 0. -1.
         -2    1    6    6    0  503  0.26108303903E+03  0.27450561459E+03  0.26473103764E+03  0.46216902536E+03  0.00000000000E+00 0.  1.
<mgrwt>
<rscale>  0 0.12718220E+04</rscale>
<asrwt>0</asrwt>
<pdfrwt beam="1">  1        1 0.13156482E+00 0.12718220E+04</pdfrwt>
<pdfrwt beam="2">  1       -2 0.72748857E-01 0.12718220E+04</pdfrwt>
<totfact> 0.29226389E+01</totfact>
</mgrwt>
</event>
<event>
12    4  0.4413110E-008  0.1251316E+04  0.7818608E-02  0.9069089E-01
         -2   -1    0    0    0  501 -0.00000000000E+00  0.00000000000E+00  0.28431069860E+03  0.28431069860E+03  0.00000000000E+00 0.  1.
          1   -1    0    0  501    0  0.00000000000E+00 -0.00000000000E+00 -0.13768315257E+04  0.13768315257E+04  0.00000000000E+00 0. -1.
        -24    2    1    2    0    0 -0.89326612148E+01 -0.20068635357E+03  0.14369559543E+02  0.21655996285E+03  0.79604825990E+02 0.  0.
        254    2    1    2    0    0  0.89326612148E+01  0.20068635357E+03 -0.11068903866E+04  0.14445822614E+04  0.90623218720E+03 0.  0.
         23    2    4    4    0    0  0.12876392111E+03  0.50076366633E+03 -0.92379603704E+03  0.10626183589E+04  0.91729284436E+02 0.  0.
         23    2    4    4    0    0 -0.11983125990E+03 -0.30007731276E+03 -0.18309434958E+03  0.38196390258E+03  0.89257815036E+02 0.  0.
          1    1    3    3  502    0 -0.22639192516E+01 -0.52984766423E+01 -0.17548247898E+02  0.18469980764E+02  0.00000000000E+00 0. -1.
         -2    1    3    3    0  502 -0.66687419632E+01 -0.19538787693E+03  0.31917807441E+02  0.19808998208E+03  0.00000000000E+00 0.  1.
         11    1    5    5    0    0  0.66405509525E+02  0.22194842517E+03 -0.32458690115E+03  0.39878246141E+03  0.00000000000E+00 0. -1.
        -11    1    5    5    0    0  0.62358411589E+02  0.27881524116E+03 -0.59920913589E+03  0.66383589744E+03  0.00000000000E+00 0.  1.
          1    1    6    6  503    0 -0.12996360198E+02 -0.14162423601E+03 -0.98341576245E+02  0.17290863259E+03  0.00000000000E+00 0. -1.
         -1    1    6    6    0  503 -0.10683489970E+03 -0.15845307675E+03 -0.84752773336E+02  0.20905527000E+03  0.00000000000E+00 0.  1.
<mgrwt>
<rscale>  0 0.12513160E+04</rscale>
<asrwt>0</asrwt>
<pdfrwt beam="1">  1        1 0.21182023E+00 0.12513160E+04</pdfrwt>
<pdfrwt beam="2">  1       -2 0.43740108E-01 0.12513160E+04</pdfrwt>
<totfact> 0.34198136E+01</totfact>
</mgrwt>
</event>
<event>
12    4  0.4413110E-008  0.1382634E+04  0.7818608E-02  0.8966486E-01
         -2   -1    0    0    0  501 -0.00000000000E+00  0.00000000000E+00  0.10548040112E+04  0.10548040112E+04  0.00000000000E+00 0.  1.
          1   -1    0    0  501    0  0.00000000000E+00 -0.00000000000E+00 -0.45308794002E+03  0.45308794002E+03  0.00000000000E+00 0. -1.
        -24    2    1    2    0    0  0.91745444604E+02 -0.23241467801E+03 -0.15562845206E+03  0.30907812826E+03  0.94208625503E+02 0.  0.
        254    2    1    2    0    0 -0.91745444604E+02  0.23241467801E+03  0.75734452319E+03  0.11988138229E+04  0.89506985540E+03 0.  0.
         23    2    4    4    0    0  0.11498668644E+03 -0.19220657355E+03 -0.60853267498E+02  0.24957926176E+03  0.91768092274E+02 0.  0.
         23    2    4    4    0    0 -0.20673213105E+03  0.42462125156E+03  0.81819779069E+03  0.94923456115E+03  0.92505384277E+02 0.  0.
          1    1    3    3  502    0  0.51376843465E+02 -0.86491449641E+02 -0.11403045801E+03  0.15206346129E+03  0.00000000000E+00 0. -1.
         -2    1    3    3    0  502  0.40368601139E+02 -0.14592322837E+03 -0.41597994048E+02  0.15701466697E+03  0.00000000000E+00 0.  1.
         11    1    5    5    0    0  0.10879060599E+03 -0.19827519411E+03 -0.70223097793E+02  0.23681159603E+03  0.00000000000E+00 0.  1.
        -11    1    5    5    0    0  0.61960804556E+01  0.60686205560E+01  0.93698302957E+01  0.12767665732E+02  0.00000000000E+00 0. -1.
          3    1    6    6  503    0 -0.84821431939E+01  0.18109375478E+02  0.83872650401E+01  0.21685074319E+02  0.00000000000E+00 0. -1.
         -3    1    6    6    0  503 -0.19824998785E+03  0.40651187608E+03  0.80981052565E+03  0.92754948684E+03  0.00000000000E+00 0.  1.
<mgrwt>
<rscale>  0 0.13826337E+04</rscale>
<asrwt>0</asrwt>
<pdfrwt beam="1">  1        1 0.69705837E-01 0.13826337E+04</pdfrwt>
<pdfrwt beam="2">  1       -2 0.16227754E+00 0.13826337E+04</pdfrwt>
<totfact> 0.10483229E+01</totfact>
</mgrwt>
</event>
<event>
12    4  0.4413110E-008  0.1673145E+04  0.7818608E-02  0.8776831E-01
          1   -1    0    0  501    0  0.00000000000E+00  0.00000000000E+00  0.15836334422E+04  0.15836334422E+04  0.00000000000E+00 0. -1.
         -2   -1    0    0    0  501 -0.00000000000E+00 -0.00000000000E+00 -0.44192876827E+03  0.44192876827E+03  0.00000000000E+00 0.  1.
        -24    2    1    2    0    0 -0.10885448868E+03 -0.35584549888E+02  0.11141990660E+04  0.11229997973E+04  0.81076668893E+02 0.  0.
        254    2    1    2    0    0  0.10885448868E+03  0.35584549888E+02  0.27505607919E+02  0.90256241313E+03  0.89484456261E+03 0.  0.
         23    2    4    4    0    0  0.86200710487E+02 -0.13056599988E+03  0.42505306772E+03  0.46182413512E+03  0.90185245940E+02 0.  0.
         23    2    4    4    0    0  0.22653778196E+02  0.16615054977E+03 -0.39754745980E+03  0.44073827802E+03  0.89928016016E+02 0.  0.
          3    1    3    3  502    0 -0.11331618086E+03 -0.48030622824E+02  0.10637791339E+04  0.10708751296E+04  0.00000000000E+00 0. -1.
         -4    1    3    3    0  502  0.44616921791E+01  0.12446072935E+02  0.50419932128E+02  0.52124667715E+02  0.00000000000E+00 0.  1.
         11    1    5    5    0    0  0.32059318651E+02 -0.18124688544E+02  0.20982216319E+03  0.21302967965E+03  0.00000000000E+00 0.  1.
        -11    1    5    5    0    0  0.54141391836E+02 -0.11244131134E+03  0.21523090453E+03  0.24879445546E+03  0.00000000000E+00 0. -1.
          4    1    6    6  503    0  0.85289725648E+01  0.16746515180E+03 -0.31374117399E+03  0.35573985537E+03  0.00000000000E+00 0. -1.
         -4    1    6    6    0  503  0.14124805631E+02 -0.13146020286E+01 -0.83806285804E+02  0.84998422649E+02  0.00000000000E+00 0.  1.
<mgrwt>
<rscale>  0 0.16731446E+04</rscale>
<asrwt>0</asrwt>
<pdfrwt beam="1">  1        1 0.24363591E+00 0.16731446E+04</pdfrwt>
<pdfrwt beam="2">  1       -2 0.67989042E-01 0.16731446E+04</pdfrwt>
<totfact> 0.94947806E+00</totfact>
</mgrwt>
</event>
<event>
12    4  0.4413110E-008  0.1234253E+04  0.7818608E-02  0.9083392E-01
         -2   -1    0    0    0  501 -0.00000000000E+00  0.00000000000E+00  0.16203374205E+03  0.16203374205E+03  0.00000000000E+00 0.  1.
          1   -1    0    0  501    0  0.00000000000E+00 -0.00000000000E+00 -0.23504057101E+04  0.23504057101E+04  0.00000000000E+00 0. -1.
        -24    2    1    2    0    0  0.19949732415E+03 -0.15197705473E+03 -0.25492022329E+03  0.36732286188E+03  0.83937816921E+02 0.  0.
        254    2    1    2    0    0 -0.19949732415E+03  0.15197705473E+03 -0.19334517447E+04  0.21451165902E+04  0.89464704156E+03 0.  0.
         23    2    4    4    0    0  0.69331658722E+02  0.44963116812E+02  0.54267020241E+02  0.13419579494E+03  0.90747127328E+02 0.  0.
         23    2    4    4    0    0 -0.26882898288E+03  0.10701393792E+03 -0.19877187650E+04  0.20109207953E+04  0.95160660961E+02 0.  0.
          1    1    3    3  502    0  0.49358391861E+02 -0.35481499476E+02 -0.11918349195E+03  0.13379047951E+03  0.00000000000E+00 0. -1.
         -2    1    3    3    0  502  0.15013893229E+03 -0.11649555525E+03 -0.13573673133E+03  0.23353238237E+03  0.00000000000E+00 0.  1.
         11    1    5    5    0    0 -0.18291292830E+02  0.28023255814E+02  0.15984749806E+02  0.37086203448E+02  0.00000000000E+00 0. -1.
        -11    1    5    5    0    0  0.87622951553E+02  0.16939860998E+02  0.38282270435E+02  0.97109591489E+02  0.00000000000E+00 0.  1.
          3    1    6    6  503    0 -0.10505661307E+03  0.50466852359E+01 -0.51591495077E+03  0.52652691993E+03  0.00000000000E+00 0. -1.
         -3    1    6    6    0  503 -0.16377236980E+03  0.10196725268E+03 -0.14718038142E+04  0.14843938754E+04  0.00000000000E+00 0.  1.
<mgrwt>
<rscale>  0 0.12342529E+04</rscale>
<asrwt>0</asrwt>
<pdfrwt beam="1">  1        1 0.36160087E+00 0.12342529E+04</pdfrwt>
<pdfrwt beam="2">  1       -2 0.24928269E-01 0.12342529E+04</pdfrwt>
<totfact> 0.21574357E+01</totfact>
</mgrwt>
</event>
<event>
12    4  0.4413110E-008  0.2882494E+04  0.7818608E-02  0.8278105E-01
          1   -1    0    0  501    0  0.00000000000E+00  0.00000000000E+00  0.96793442337E+03  0.96793442337E+03  0.00000000000E+00 0. -1.
         -2   -1    0    0    0  501 -0.00000000000E+00 -0.00000000000E+00 -0.21460065711E+04  0.21460065711E+04  0.00000000000E+00 0.  1.
        -24    2    1    2    0    0 -0.17197980860E+03 -0.80698889329E+03 -0.16163866635E+04  0.18171807454E+04  0.92907949534E+02 0.  0.
        254    2    1    2    0    0  0.17197980860E+03  0.80698889329E+03  0.43831451574E+03  0.12967602491E+04  0.89925491404E+03 0.  0.
         23    2    4    4    0    0 -0.26716819626E+03 -0.12885668814E+02  0.61311713263E+02  0.28916868103E+03  0.91183958843E+02 0.  0.
         23    2    4    4    0    0  0.43914800486E+03  0.81987456210E+03  0.37700280248E+03  0.10075915681E+04  0.89801933033E+02 0.  0.
          1    1    3    3  502    0  0.31823290950E+01 -0.35905396261E+02 -0.41765432833E+02  0.55169521285E+02  0.00000000000E+00 0. -1.
         -2    1    3    3    0  502 -0.17516213769E+03 -0.77108349703E+03 -0.15746212306E+04  0.17620112241E+04  0.00000000000E+00 0.  1.
         11    1    5    5    0    0 -0.25429568231E+02  0.24600364738E+02 -0.49491965821E+01  0.35725837044E+02  0.00000000000E+00 0. -1.
        -11    1    5    5    0    0 -0.24173862803E+03 -0.37486033552E+02  0.66260909845E+02  0.25344284399E+03  0.00000000000E+00 0.  1.
          1    1    6    6  503    0  0.38979329803E+02  0.31058788171E+02  0.22449354192E+02  0.54662692745E+02  0.00000000000E+00 0. -1.
         -1    1    6    6    0  503  0.40016867506E+03  0.78881577393E+03  0.35455344828E+03  0.95292887531E+03  0.00000000000E+00 0.  1.
<mgrwt>
<rscale>  0 0.28824945E+04</rscale>
<asrwt>0</asrwt>
<pdfrwt beam="1">  1        1 0.14891299E+00 0.28824945E+04</pdfrwt>
<pdfrwt beam="2">  1       -2 0.33015485E+00 0.28824945E+04</pdfrwt>
<totfact> 0.25051679E-01</totfact>
</mgrwt>
</event>
<event>
12    4  0.4413110E-008  0.1371148E+04  0.7818608E-02  0.8974972E-01
         -2   -1    0    0    0  501 -0.00000000000E+00  0.00000000000E+00  0.13552244206E+04  0.13552244206E+04  0.00000000000E+00 0.  1.
          1   -1    0    0  501    0  0.00000000000E+00 -0.00000000000E+00 -0.34681481685E+03  0.34681481685E+03  0.00000000000E+00 0. -1.
        -24    2    1    2    0    0 -0.65629183731E+02  0.10899735421E+02  0.75046888523E+03  0.75762346009E+03  0.79773213478E+02 0.  0.
        254    2    1    2    0    0  0.65629183731E+02 -0.10899735421E+02  0.25794071851E+03  0.94441577736E+03  0.90606939705E+03 0.  0.
         23    2    4    4    0    0  0.27065116866E+03 -0.35281751279E+03 -0.11874920555E+02  0.45447727651E+03  0.93146812595E+02 0.  0.
         23    2    4    4    0    0 -0.20502198493E+03  0.34191777737E+03  0.26981563907E+03  0.48993850085E+03  0.91090475624E+02 0.  0.
          3    1    3    3  502    0  0.11793242527E+02  0.21359887369E+02  0.13159879191E+03  0.13384157571E+03  0.00000000000E+00 0. -1.
         -4    1    3    3    0  502 -0.77422426258E+02 -0.10460151948E+02  0.61887009332E+03  0.62378188438E+03  0.00000000000E+00 0.  1.
         11    1    5    5    0    0  0.15756232010E+03 -0.14536640110E+03  0.23147180790E+02  0.21562251103E+03  0.00000000000E+00 0. -1.
        -11    1    5    5    0    0  0.11308884856E+03 -0.20745111168E+03 -0.35022101345E+02  0.23885476547E+03  0.00000000000E+00 0.  1.
          2    1    6    6  503    0 -0.18522165337E+03  0.30582384912E+03  0.20214349420E+03  0.41072774415E+03  0.00000000000E+00 0. -1.
         -2    1    6    6    0  503 -0.19800331554E+02  0.36093928247E+02  0.67672144870E+02  0.79210756701E+02  0.00000000000E+00 0.  1.
<mgrwt>
<rscale>  0 0.13711483E+04</rscale>
<asrwt>0</asrwt>
<pdfrwt beam="1">  1        1 0.53356126E-01 0.13711483E+04</pdfrwt>
<pdfrwt beam="2">  1       -2 0.20849606E+00 0.13711483E+04</pdfrwt>
<totfact> 0.72399632E+00</totfact>
</mgrwt>
</event>
<event>
12    4  0.4413110E-008  0.1402241E+04  0.7818608E-02  0.8952198E-01
         -2   -1    0    0    0  501 -0.00000000000E+00  0.00000000000E+00  0.45041912588E+03  0.45041912588E+03  0.00000000000E+00 0.  1.
          1   -1    0    0  501    0  0.00000000000E+00 -0.00000000000E+00 -0.10913617460E+04  0.10913617460E+04  0.00000000000E+00 0. -1.
        -24    2    1    2    0    0  0.29756631972E+02  0.15132501442E+03 -0.67572431800E+03  0.69760436535E+03  0.79144042676E+02 0.  0.
        254    2    1    2    0    0 -0.29756631972E+02 -0.15132501442E+03  0.34781697903E+02  0.84417650650E+03  0.82924030925E+03 0.  0.
         23    2    4    4    0    0 -0.22519825292E+03  0.27252179633E+03  0.51361427538E+02  0.36842703159E+03  0.90100492640E+02 0.  0.
         23    2    4    4    0    0  0.19544162094E+03 -0.42384681075E+03 -0.16579729635E+02  0.47574947492E+03  0.90659413563E+02 0.  0.
          3    1    3    3  502    0  0.44739245280E+02  0.84118511466E+02 -0.49750600951E+03  0.50654689175E+03  0.00000000000E+00 0. -1.
         -4    1    3    3    0  502 -0.14982613308E+02  0.67206502953E+02 -0.17821830849E+03  0.19105747361E+03  0.00000000000E+00 0.  1.
         11    1    5    5    0    0 -0.28677614564E+02  0.25445867203E+02  0.35622846280E+02  0.52334356897E+02  0.00000000000E+00 0.  1.
        -11    1    5    5    0    0 -0.19652063835E+03  0.24707592913E+03  0.15738581258E+02  0.31609267469E+03  0.00000000000E+00 0. -1.
          1    1    6    6  503    0  0.17981397898E+03 -0.29496654045E+03 -0.17919796369E+02  0.34591826509E+03  0.00000000000E+00 0. -1.
         -1    1    6    6    0  503  0.15627641968E+02 -0.12888027030E+03  0.13400667348E+01  0.12983120983E+03  0.00000000000E+00 0.  1.
<mgrwt>
<rscale>  0 0.14022414E+04</rscale>
<asrwt>0</asrwt>
<pdfrwt beam="1">  1        1 0.16790181E+00 0.14022414E+04</pdfrwt>
<pdfrwt beam="2">  1       -2 0.69295250E-01 0.14022414E+04</pdfrwt>
<totfact> 0.20910284E+01</totfact>
</mgrwt>
</event>
<event>
12    4  0.4413110E-008  0.1651132E+04  0.7818608E-02  0.8789737E-01
          1   -1    0    0  501    0  0.00000000000E+00  0.00000000000E+00  0.21145571136E+04  0.21145571136E+04  0.00000000000E+00 0. -1.
         -2   -1    0    0    0  501 -0.00000000000E+00 -0.00000000000E+00 -0.32231766471E+03  0.32231766471E+03  0.00000000000E+00 0.  1.
        -24    2    1    2    0    0 -0.42415682876E+01  0.23926482769E+03 -0.14570146056E+03  0.29063874328E+03  0.77306628526E+02 0.  0.
        254    2    1    2    0    0  0.42415682876E+01 -0.23926482769E+03  0.19379409094E+04  0.21462360350E+04  0.89075726261E+03 0.  0.
         23    2    4    4    0    0 -0.16687977259E+03  0.15048750115E+03  0.15318825226E+04  0.15508784316E+04  0.89802562430E+02 0.  0.
         23    2    4    4    0    0  0.17112134088E+03 -0.38975232884E+03  0.40605838689E+03  0.59535760343E+03  0.91530712074E+02 0.  0.
          1    1    3    3  502    0 -0.16408285859E+02  0.17942316805E+03 -0.14210246123E+03  0.22946680493E+03  0.00000000000E+00 0. -1.
         -2    1    3    3    0  502  0.12166717571E+02  0.59841659642E+02 -0.35989993308E+01  0.61171938349E+02  0.00000000000E+00 0.  1.
         11    1    5    5    0    0 -0.15186098034E+02  0.35505454508E+01  0.26456927833E+02  0.30711447001E+02  0.00000000000E+00 0. -1.
        -11    1    5    5    0    0 -0.15169367455E+03  0.14693695570E+03  0.15054255947E+04  0.15201669846E+04  0.00000000000E+00 0.  1.
          4    1    6    6  503    0  0.15025362140E+02 -0.41027546096E+02  0.95433843472E+01  0.44722446611E+02  0.00000000000E+00 0. -1.
         -4    1    6    6    0  503  0.15609597874E+03 -0.34872478274E+03  0.39651500255E+03  0.55063515681E+03  0.00000000000E+00 0.  1.
<mgrwt>
<rscale>  0 0.16511319E+04</rscale>
<asrwt>0</asrwt>
<pdfrwt beam="1">  1        1 0.32531647E+00 0.16511319E+04</pdfrwt>
<pdfrwt beam="2">  1       -2 0.49587334E-01 0.16511319E+04</pdfrwt>
<totfact> 0.80479437E+00</totfact>
</mgrwt>
</event>
<event>
12    4  0.4413110E-008  0.1290620E+04  0.7818608E-02  0.9037037E-01
         -4   -1    0    0    0  501 -0.00000000000E+00  0.00000000000E+00  0.28698678425E+03  0.28698678425E+03  0.00000000000E+00 0.  1.
          3   -1    0    0  501    0  0.00000000000E+00 -0.00000000000E+00 -0.14510238750E+04  0.14510238750E+04  0.00000000000E+00 0. -1.
        -24    2    1    2    0    0 -0.10180766796E+03 -0.58267291732E+02  0.86824690461E+02  0.16322370748E+03  0.73099748761E+02 0.  0.
        254    2    1    2    0    0  0.10180766796E+03  0.58267291732E+02 -0.12508617812E+04  0.15747869518E+04  0.94949400695E+03 0.  0.
         23    2    4    4    0    0 -0.18206192746E+03  0.38220128353E+03 -0.94205911243E+03  0.10368687960E+04  0.91636031041E+02 0.  0.
         23    2    4    4    0    0  0.28386959542E+03 -0.32393399179E+03 -0.30880266880E+03  0.53791815582E+03  0.92096014323E+02 0.  0.
          3    1    3    3  502    0 -0.14845738322E+02 -0.20667084191E+02  0.59354204018E+02  0.64578989229E+02  0.00000000000E+00 0. -1.
         -4    1    3    3    0  502 -0.86961929639E+02 -0.37600207541E+02  0.27470486444E+02  0.98644718252E+02  0.00000000000E+00 0.  1.
         11    1    5    5    0    0 -0.11758950625E+03  0.31103409734E+03 -0.78863084086E+03  0.85586687332E+03  0.00000000000E+00 0. -1.
        -11    1    5    5    0    0 -0.64472421215E+02  0.71167186187E+02 -0.15342827157E+03  0.18100192265E+03  0.00000000000E+00 0.  1.
          3    1    6    6  503    0  0.13720485677E+03 -0.20158404321E+03 -0.13022452633E+03  0.27644118083E+03  0.00000000000E+00 0. -1.
         -3    1    6    6    0  503  0.14666473866E+03 -0.12234994858E+03 -0.17857814247E+03  0.26147697499E+03  0.00000000000E+00 0.  1.
<mgrwt>
<rscale>  0 0.12906195E+04</rscale>
<asrwt>0</asrwt>
<pdfrwt beam="1">  1        3 0.22323444E+00 0.12906195E+04</pdfrwt>
<pdfrwt beam="2">  1       -4 0.44151814E-01 0.12906195E+04</pdfrwt>
<totfact> 0.11918670E+00</totfact>
</mgrwt>
</event>
<event>
12    4  0.4413110E-008  0.1146961E+04  0.7818608E-02  0.9160592E-01
          1   -1    0    0  501    0  0.00000000000E+00  0.00000000000E+00  0.17596854911E+04  0.17596854911E+04  0.00000000000E+00 0. -1.
         -2   -1    0    0    0  501 -0.00000000000E+00 -0.00000000000E+00 -0.18689691272E+03  0.18689691272E+03  0.00000000000E+00 0.  1.
        -24    2    1    2    0    0  0.20125048330E+03 -0.21420249709E+02  0.20671341404E+03  0.29966075747E+03  0.78138018256E+02 0.  0.
        254    2    1    2    0    0 -0.20125048330E+03  0.21420249709E+02  0.13660751643E+04  0.16469216463E+04  0.89734551342E+03 0.  0.
         23    2    4    4    0    0 -0.10896367481E+03  0.13774547711E+03 -0.63570133658E+02  0.20685375211E+03  0.88884272939E+02 0.  0.
         23    2    4    4    0    0 -0.92286808493E+02 -0.11632522740E+03  0.14296452980E+04  0.14400678942E+04  0.88664809157E+02 0.  0.
          1    1    3    3  502    0  0.59162155609E+02 -0.35506186135E+02  0.99598332376E+02  0.12116384660E+03  0.00000000000E+00 0. -1.
         -2    1    3    3    0  502  0.14208832769E+03  0.14085936426E+02  0.10711508167E+03  0.17849691088E+03  0.00000000000E+00 0.  1.
         11    1    5    5    0    0 -0.68754547831E+02  0.13328958064E+03 -0.27140826599E+02  0.15241366285E+03  0.00000000000E+00 0. -1.
        -11    1    5    5    0    0 -0.40209126978E+02  0.44558964695E+01 -0.36429307059E+02  0.54440089258E+02  0.00000000000E+00 0.  1.
          3    1    6    6  503    0 -0.10584461543E+03 -0.86914199916E+02  0.12544817465E+04  0.12619356612E+04  0.00000000000E+00 0. -1.
         -3    1    6    6    0  503  0.13557806936E+02 -0.29411027486E+02  0.17516355147E+03  0.17813223299E+03  0.00000000000E+00 0.  1.
<mgrwt>
<rscale>  0 0.11469608E+04</rscale>
<asrwt>0</asrwt>
<pdfrwt beam="1">  1        1 0.27072083E+00 0.11469608E+04</pdfrwt>
<pdfrwt beam="2">  1       -2 0.28753372E-01 0.11469608E+04</pdfrwt>
<totfact> 0.42026095E+01</totfact>
</mgrwt>
</event>
<event>
12    4  0.4413110E-008  0.1957963E+04  0.7818608E-02  0.8626531E-01
          1   -1    0    0  501    0  0.00000000000E+00  0.00000000000E+00  0.11515627954E+04  0.11515627954E+04  0.00000000000E+00 0. -1.
         -2   -1    0    0    0  501 -0.00000000000E+00 -0.00000000000E+00 -0.83226417983E+03  0.83226417983E+03  0.00000000000E+00 0.  1.
        -24    2    1    2    0    0  0.61441899259E+03  0.45094641661E+03  0.19124907217E+03  0.78987107301E+03  0.80353813030E+02 0.  0.
        254    2    1    2    0    0 -0.61441899259E+03 -0.45094641661E+03  0.12804954339E+03  0.11939559022E+04  0.91009375436E+03 0.  0.
         23    2    4    4    0    0 -0.76248947737E+03 -0.48403861327E+03 -0.90029114305E+02  0.91224141565E+03  0.91627380021E+02 0.  0.
         23    2    4    4    0    0  0.14807048477E+03  0.33092196662E+02  0.21807865770E+03  0.28171448655E+03  0.93727205492E+02 0.  0.
          3    1    3    3  502    0  0.34758346857E+02  0.30925844254E+02  0.32188817685E+02  0.56574468650E+02  0.00000000000E+00 0. -1.
         -4    1    3    3    0  502  0.57966064574E+03  0.42002057235E+03  0.15906025448E+03  0.73329660436E+03  0.00000000000E+00 0.  1.
         11    1    5    5    0    0 -0.44068305859E+03 -0.29710502175E+03 -0.95743960264E+02  0.54003690429E+03  0.00000000000E+00 0. -1.
        -11    1    5    5    0    0 -0.32180641878E+03 -0.18693359152E+03  0.57148459595E+01  0.37220451135E+03  0.00000000000E+00 0.  1.
          4    1    6    6  503    0  0.46446583696E+02  0.40622827570E+02  0.31877064997E+02  0.69452476771E+02  0.00000000000E+00 0.  1.
         -4    1    6    6    0  503  0.10162390108E+03 -0.75306309081E+01  0.18620159270E+03  0.21226200978E+03  0.00000000000E+00 0. -1.
<mgrwt>
<rscale>  0 0.19579627E+04</rscale>
<asrwt>0</asrwt>
<pdfrwt beam="1">  1        1 0.17716351E+00 0.19579627E+04</pdfrwt>
<pdfrwt beam="2">  1       -2 0.12804064E+00 0.19579627E+04</pdfrwt>
<totfact> 0.42753000E+00</totfact>
</mgrwt>
</event>
<event>
12    4  0.4413110E-008  0.1861784E+04  0.7818608E-02  0.8674116E-01
          1   -1    0    0  501    0  0.00000000000E+00  0.00000000000E+00  0.17281940173E+04  0.17281940173E+04  0.00000000000E+00 0. -1.
         -2   -1    0    0    0  501 -0.00000000000E+00 -0.00000000000E+00 -0.50142499246E+03  0.50142499246E+03  0.00000000000E+00 0.  1.
        -24    2    1    2    0    0  0.32833782247E+03 -0.62658818831E+03  0.37540558587E+03  0.80487994674E+03  0.80522613992E+02 0.  0.
        254    2    1    2    0    0 -0.32833782247E+03  0.62658818831E+03  0.85136343896E+03  0.14247390630E+04  0.89701906840E+03 0.  0.
         23    2    4    4    0    0 -0.41837626392E+02 -0.11012898904E+03  0.55697416824E+03  0.57678059798E+03  0.92611300084E+02 0.  0.
         23    2    4    4    0    0 -0.28650019608E+03  0.73671717736E+03  0.29438927071E+03  0.84795846503E+03  0.86798352171E+02 0.  0.
          3    1    3    3  502    0  0.31386288838E+03 -0.55553543496E+03  0.32123627283E+03  0.71436844498E+03  0.00000000000E+00 0. -1.
         -4    1    3    3    0  502  0.14474934088E+02 -0.71052753350E+02  0.54169313039E+02  0.90511501758E+02  0.00000000000E+00 0.  1.
         11    1    5    5    0    0 -0.85220825671E+01 -0.30178890019E+02  0.36294285170E+03  0.36429507942E+03  0.00000000000E+00 0.  1.
        -11    1    5    5    0    0 -0.33315543825E+02 -0.79950099026E+02  0.19403131655E+03  0.21248551855E+03  0.00000000000E+00 0. -1.
          3    1    6    6  503    0 -0.12152948589E+03  0.22841766828E+03  0.67556003346E+02  0.26740953744E+03  0.00000000000E+00 0. -1.
         -3    1    6    6    0  503 -0.16497071019E+03  0.50829950907E+03  0.22683326737E+03  0.58054892759E+03  0.00000000000E+00 0.  1.
<mgrwt>
<rscale>  0 0.18617837E+04</rscale>
<asrwt>0</asrwt>
<pdfrwt beam="1">  1        1 0.26587600E+00 0.18617837E+04</pdfrwt>
<pdfrwt beam="2">  1       -2 0.77142307E-01 0.18617837E+04</pdfrwt>
<totfact> 0.56345983E+00</totfact>
</mgrwt>
</event>
<event>
12    4  0.4413110E-008  0.1555932E+04  0.7818608E-02  0.8848088E-01
         -2   -1    0    0    0  501 -0.00000000000E+00  0.00000000000E+00  0.62145331253E+03  0.62145331253E+03  0.00000000000E+00 0.  1.
          1   -1    0    0  501    0  0.00000000000E+00 -0.00000000000E+00 -0.97389606211E+03  0.97389606211E+03  0.00000000000E+00 0. -1.
        -24    2    1    2    0    0 -0.47545113840E+03  0.18477566705E+03 -0.10696087581E+03  0.52728328940E+03  0.79945019769E+02 0.  0.
        254    2    1    2    0    0  0.47545113840E+03 -0.18477566705E+03 -0.24548187376E+03  0.10680660852E+04  0.90570855134E+03 0.  0.
         23    2    4    4    0    0  0.88048078934E+02 -0.48466261440E+03 -0.27084017666E+03  0.56937104906E+03  0.90436033838E+02 0.  0.
         23    2    4    4    0    0  0.38740305947E+03  0.29988694735E+03  0.25358302898E+02  0.49869503618E+03  0.89668187850E+02 0.  0.
          3    1    3    3  502    0 -0.24136009300E+03  0.92641278429E+02 -0.94995148913E+02  0.27542908212E+03  0.00000000000E+00 0. -1.
         -4    1    3    3    0  502 -0.23409104540E+03  0.92134388620E+02 -0.11965726902E+02  0.25185420728E+03  0.00000000000E+00 0.  1.
         11    1    5    5    0    0  0.34820543857E+01 -0.26730391629E+03 -0.13527943662E+03  0.29960646578E+03  0.00000000000E+00 0.  1.
        -11    1    5    5    0    0  0.84566024549E+02 -0.21735869811E+03 -0.13556074004E+03  0.26976458328E+03  0.00000000000E+00 0. -1.
          3    1    6    6  503    0  0.20332100451E+03  0.11922210506E+03 -0.21016914614E+02  0.23663273634E+03  0.00000000000E+00 0.  1.
         -3    1    6    6    0  503  0.18408205495E+03  0.18066484229E+03  0.46375217512E+02  0.26206229984E+03  0.00000000000E+00 0. -1.
<mgrwt>
<rscale>  0 0.15559318E+04</rscale>
<asrwt>0</asrwt>
<pdfrwt beam="1">  1        1 0.14983016E+00 0.15559318E+04</pdfrwt>
<pdfrwt beam="2">  1       -2 0.95608202E-01 0.15559318E+04</pdfrwt>
<totfact> 0.12296386E+01</totfact>
</mgrwt>
</event>
<event>
12    4  0.4413110E-008  0.1853223E+04  0.7818608E-02  0.8678497E-01
          1   -1    0    0  501    0  0.00000000000E+00  0.00000000000E+00  0.15266438167E+04  0.15266438167E+04  0.00000000000E+00 0. -1.
         -4   -1    0    0    0  501 -0.00000000000E+00 -0.00000000000E+00 -0.56241625663E+03  0.56241625663E+03  0.00000000000E+00 0.  1.
        -24    2    1    2    0    0 -0.32136010464E+03  0.39239342663E+03  0.90731323851E+03  0.10425454698E+04  0.80242293789E+02 0.  0.
        254    2    1    2    0    0  0.32136010464E+03 -0.39239342663E+03  0.56914321606E+02  0.10465146036E+04  0.91362391462E+03 0.  0.
         23    2    4    4    0    0  0.56648764313E+03 -0.12546213671E+00  0.40421737870E+02  0.57501953367E+03  0.90029337754E+02 0.  0.
         23    2    4    4    0    0 -0.24512753849E+03 -0.39226796450E+03  0.16492583736E+02  0.47149506990E+03  0.89855047299E+02 0.  0.
          1    1    3    3  502    0 -0.21028495832E+03  0.19440749253E+03  0.49562991300E+03  0.57241859466E+03  0.00000000000E+00 0. -1.
         -2    1    3    3    0  502 -0.11107514632E+03  0.19798593410E+03  0.41168332551E+03  0.47012687515E+03  0.00000000000E+00 0.  1.
         11    1    5    5    0    0  0.12546622717E+03 -0.29467117189E+02  0.32664399318E+02  0.13295506060E+03  0.00000000000E+00 0.  1.
        -11    1    5    5    0    0  0.44102141596E+03  0.29341655052E+02  0.77573385521E+01  0.44206447307E+03  0.00000000000E+00 0. -1.
          2    1    6    6  503    0 -0.19006150755E+03 -0.30519065573E+03  0.50359367040E+02  0.36304376988E+03  0.00000000000E+00 0. -1.
         -2    1    6    6    0  503 -0.55066030940E+02 -0.87077308762E+02 -0.33866783304E+02  0.10845130002E+03  0.00000000000E+00 0.  1.
<mgrwt>
<rscale>  0 0.18532235E+04</rscale>
<asrwt>0</asrwt>
<pdfrwt beam="1">  1        1 0.23486828E+00 0.18532235E+04</pdfrwt>
<pdfrwt beam="2">  1       -4 0.86525578E-01 0.18532235E+04</pdfrwt>
<totfact> 0.33461831E+00</totfact>
</mgrwt>
</event>
<event>
12    4  0.4413110E-008  0.1443243E+04  0.7818608E-02  0.8923098E-01
          1   -1    0    0  501    0  0.00000000000E+00  0.00000000000E+00  0.13050087384E+04  0.13050087384E+04  0.00000000000E+00 0. -1.
         -4   -1    0    0    0  501 -0.00000000000E+00 -0.00000000000E+00 -0.39902997774E+03  0.39902997774E+03  0.00000000000E+00 0.  1.
        -24    2    1    2    0    0  0.42203270133E+01  0.86143755149E+01  0.78675185379E+03  0.79082895399E+03  0.79623717574E+02 0.  0.
        254    2    1    2    0    0 -0.42203270133E+01 -0.86143755149E+01  0.11922690692E+03  0.91320976220E+03  0.90534247432E+03 0.  0.
         23    2    4    4    0    0  0.35497295270E+02  0.53613112098E+02 -0.38230643710E+03  0.39814341690E+03  0.90694789359E+02 0.  0.
         23    2    4    4    0    0 -0.39717622283E+02 -0.62227487612E+02  0.50153334402E+03  0.51506634530E+03  0.91147655811E+02 0.  0.
          1    1    3    3  502    0 -0.69491751401E+01  0.79484669295E+01  0.77312379969E+03  0.77319588644E+03  0.00000000000E+00 0. -1.
         -2    1    3    3    0  502  0.11169502153E+02  0.66590858543E+00  0.13628054097E+02  0.17633067546E+02  0.00000000000E+00 0.  1.
         11    1    5    5    0    0  0.56016136561E+02  0.20272335476E+02 -0.13233858280E+03  0.14512847976E+03  0.00000000000E+00 0.  1.
        -11    1    5    5    0    0 -0.20518841291E+02  0.33340776621E+02 -0.24996785430E+03  0.25301493714E+03  0.00000000000E+00 0. -1.
          4    1    6    6  503    0 -0.15192895423E+02  0.13079823243E+01  0.33221103722E+03  0.33256083374E+03  0.00000000000E+00 0. -1.
         -4    1    6    6    0  503 -0.24524726860E+02 -0.63535469937E+02  0.16932230680E+03  0.18250551155E+03  0.00000000000E+00 0.  1.
<mgrwt>
<rscale>  0 0.14432430E+04</rscale>
<asrwt>0</asrwt>
<pdfrwt beam="1">  1        1 0.20077057E+00 0.14432430E+04</pdfrwt>
<pdfrwt beam="2">  1       -4 0.61389228E-01 0.14432430E+04</pdfrwt>
<totfact> 0.10653329E+01</totfact>
</mgrwt>
</event>
<event>
12    4  0.4413110E-008  0.2614992E+04  0.7818608E-02  0.8363126E-01
         -2   -1    0    0    0  501 -0.00000000000E+00  0.00000000000E+00  0.45569602388E+03  0.45569602388E+03  0.00000000000E+00 0.  1.
          1   -1    0    0  501    0  0.00000000000E+00 -0.00000000000E+00 -0.37515058529E+04  0.37515058529E+04  0.00000000000E+00 0. -1.
        -24    2    1    2    0    0 -0.20395522375E+03  0.97917096921E+02  0.36011177749E+03  0.43446238044E+03  0.88834546002E+02 0.  0.
        254    2    1    2    0    0  0.20395522375E+03 -0.97917096921E+02 -0.36559216065E+04  0.37727394963E+04  0.90366754015E+03 0.  0.
         23    2    4    4    0    0  0.21284876392E+02 -0.18345588013E+02  0.14288694306E+02  0.96037013131E+02  0.90715679701E+02 0.  0.
         23    2    4    4    0    0  0.18267034736E+03 -0.79571508908E+02 -0.36702103008E+04  0.36767024832E+04  0.89428278333E+02 0.  0.
          3    1    3    3  502    0 -0.28415093051E+02  0.17749328402E+02  0.10472241530E+02  0.35101624101E+02  0.00000000000E+00 0. -1.
         -4    1    3    3    0  502 -0.17554013070E+03  0.80167768519E+02  0.34963953596E+03  0.39936075634E+03  0.00000000000E+00 0.  1.
         11    1    5    5    0    0  0.57088911622E+02 -0.84694400503E+01  0.64020607050E+01  0.58067733090E+02  0.00000000000E+00 0.  1.
        -11    1    5    5    0    0 -0.35804035230E+02 -0.98761479626E+01  0.78866336009E+01  0.37969280042E+02  0.00000000000E+00 0. -1.
          4    1    6    6  503    0  0.38088078473E+02  0.27699374081E+00 -0.29434613297E+03  0.29680031071E+03  0.00000000000E+00 0. -1.
         -4    1    6    6    0  503  0.14458226889E+03 -0.79848502649E+02 -0.33758641679E+04  0.33799021725E+04  0.00000000000E+00 0.  1.
<mgrwt>
<rscale>  0 0.26149924E+04</rscale>
<asrwt>0</asrwt>
<pdfrwt beam="1">  1        1 0.57715476E+00 0.26149924E+04</pdfrwt>
<pdfrwt beam="2">  1       -2 0.70107079E-01 0.26149924E+04</pdfrwt>
<totfact> 0.22443791E-01</totfact>
</mgrwt>
</event>
<event>
12    4  0.4413110E-008  0.1581347E+04  0.7818608E-02  0.8832090E-01
          1   -1    0    0  501    0  0.00000000000E+00  0.00000000000E+00  0.24932245735E+04  0.24932245735E+04  0.00000000000E+00 0. -1.
         -2   -1    0    0    0  501 -0.00000000000E+00 -0.00000000000E+00 -0.25074527868E+03  0.25074527868E+03  0.00000000000E+00 0.  1.
        -24    2    1    2    0    0  0.17335505121E+03  0.22272968794E+03  0.14822569463E+04  0.15109904329E+04  0.79661443794E+02 0.  0.
        254    2    1    2    0    0 -0.17335505121E+03 -0.22272968794E+03  0.76022234849E+03  0.12329794193E+04  0.92878401237E+03 0.  0.
         23    2    4    4    0    0 -0.10551462014E+03  0.45802108868E+02 -0.18979023692E+03  0.23926188014E+03  0.89413338015E+02 0.  0.
         23    2    4    4    0    0 -0.67840431064E+02 -0.26853179680E+03  0.95001258541E+03  0.99371753917E+03  0.90768856107E+02 0.  0.
          1    1    3    3  502    0  0.51228417625E+02  0.38583164337E+02  0.50549716735E+03  0.50954921012E+03  0.00000000000E+00 0. -1.
         -2    1    3    3    0  502  0.12212663358E+03  0.18414652360E+03  0.97675977897E+03  0.10014412227E+04  0.00000000000E+00 0.  1.
         11    1    5    5    0    0 -0.42876063574E+02  0.67014829879E+02 -0.10408499494E+03  0.13100774948E+03  0.00000000000E+00 0.  1.
        -11    1    5    5    0    0 -0.62638556569E+02 -0.21212721011E+02 -0.85705241983E+02  0.10825413066E+03  0.00000000000E+00 0. -1.
          2    1    6    6  503    0 -0.16745968124E+02 -0.16977668578E+03  0.69288869492E+03  0.71358201633E+03  0.00000000000E+00 0. -1.
         -2    1    6    6    0  503 -0.51094462940E+02 -0.98755111026E+02  0.25712389049E+03  0.28013552284E+03  0.00000000000E+00 0.  1.
<mgrwt>
<rscale>  0 0.15813466E+04</rscale>
<asrwt>0</asrwt>
<pdfrwt beam="1">  1        1 0.38357299E+00 0.15813466E+04</pdfrwt>
<pdfrwt beam="2">  1       -2 0.38576199E-01 0.15813466E+04</pdfrwt>
<totfact> 0.73519172E+00</totfact>
</mgrwt>
</event>
<event>
12    4  0.4413110E-008  0.2272877E+04  0.7818608E-02  0.8488693E-01
          3   -1    0    0  501    0  0.00000000000E+00  0.00000000000E+00  0.23209871976E+04  0.23209871976E+04  0.00000000000E+00 0. -1.
         -2   -1    0    0    0  501 -0.00000000000E+00 -0.00000000000E+00 -0.55644120093E+03  0.55644120093E+03  0.00000000000E+00 0.  1.
        -24    2    1    2    0    0  0.78893327385E+03 -0.21073469227E+03  0.11568461177E+03  0.82874350472E+03  0.81289889301E+02 0.  0.
        254    2    1    2    0    0 -0.78893327385E+03  0.21073469227E+03  0.16488613849E+04  0.20486848938E+04  0.90085576336E+03 0.  0.
         23    2    4    4    0    0 -0.79989433587E+02 -0.10469874244E+03  0.10546684197E+04  0.10667176778E+04  0.90559331157E+02 0.  0.
         23    2    4    4    0    0 -0.70894384026E+03  0.31543343471E+03  0.59419296520E+03  0.98196721600E+03  0.95366204887E+02 0.  0.
          3    1    3    3  502    0  0.15526169518E+03 -0.16019202177E+02  0.16554545627E+01  0.15609468075E+03  0.00000000000E+00 0. -1.
         -4    1    3    3    0  502  0.63367157867E+03 -0.19471549009E+03  0.11402915720E+03  0.67264882397E+03  0.00000000000E+00 0.  1.
         11    1    5    5    0    0 -0.94109912807E+02 -0.58005528374E+02  0.68971857863E+03  0.69852203595E+03  0.00000000000E+00 0.  1.
        -11    1    5    5    0    0  0.14120479221E+02 -0.46693214065E+02  0.36494984109E+03  0.36819564186E+03  0.00000000000E+00 0. -1.
          1    1    6    6  503    0 -0.60142558337E+02  0.56666288488E+02  0.75630603427E+02  0.11201867589E+03  0.00000000000E+00 0. -1.
         -1    1    6    6    0  503 -0.64880128192E+03  0.25876714622E+03  0.51856236177E+03  0.86994854011E+03  0.00000000000E+00 0.  1.
<mgrwt>
<rscale>  0 0.22728774E+04</rscale>
<asrwt>0</asrwt>
<pdfrwt beam="1">  1        3 0.35707495E+00 0.22728774E+04</pdfrwt>
<pdfrwt beam="2">  1       -2 0.85606340E-01 0.22728774E+04</pdfrwt>
<totfact> 0.83058171E-02</totfact>
</mgrwt>
</event>
<event>
12    4  0.4413110E-008  0.2005007E+04  0.7818608E-02  0.8604283E-01
         -2   -1    0    0    0  501 -0.00000000000E+00  0.00000000000E+00  0.25287038965E+03  0.25287038965E+03  0.00000000000E+00 0.  1.
          1   -1    0    0  501    0  0.00000000000E+00 -0.00000000000E+00 -0.39744224877E+04  0.39744224877E+04  0.00000000000E+00 0. -1.
        -24    2    1    2    0    0  0.65638491294E+03 -0.34570901189E+03 -0.87106347468E+03  0.11469948042E+04  0.80558234211E+02 0.  0.
        254    2    1    2    0    0 -0.65638491294E+03  0.34570901189E+03 -0.28504886233E+04  0.30802980731E+04  0.90144048759E+03 0.  0.
         23    2    4    4    0    0 -0.60359615734E+03 -0.62325540562E+02 -0.23387248951E+04  0.24179030557E+04  0.91696552601E+02 0.  0.
         23    2    4    4    0    0 -0.52788755599E+02  0.40803455245E+03 -0.51176372829E+03  0.66239501745E+03  0.87098776312E+02 0.  0.
          1    1    3    3  502    0  0.24353500232E+02 -0.24383933612E+02 -0.22290278944E+02  0.41042974153E+02  0.00000000000E+00 0. -1.
         -2    1    3    3    0  502  0.63203141271E+03 -0.32132507827E+03 -0.84877319574E+03  0.11059518300E+04  0.00000000000E+00 0.  1.
         11    1    5    5    0    0 -0.23026893004E+02 -0.22868036725E+01 -0.18684635531E+03  0.18827381062E+03  0.00000000000E+00 0. -1.
        -11    1    5    5    0    0 -0.58056926433E+03 -0.60038736890E+02 -0.21518785397E+04  0.22296292451E+04  0.00000000000E+00 0.  1.
          1    1    6    6  503    0 -0.50777563721E+02  0.11057805315E+03 -0.17390898017E+03  0.21225032438E+03  0.00000000000E+00 0. -1.
         -1    1    6    6    0  503 -0.20111918789E+01  0.29745649930E+03 -0.33785474812E+03  0.45014469307E+03  0.00000000000E+00 0.  1.
<mgrwt>
<rscale>  0 0.20050075E+04</rscale>
<asrwt>0</asrwt>
<pdfrwt beam="1">  1        1 0.61144960E+00 0.20050075E+04</pdfrwt>
<pdfrwt beam="2">  1       -2 0.38903138E-01 0.20050075E+04</pdfrwt>
<totfact> 0.51816797E-01</totfact>
</mgrwt>
</event>
<event>
12    4  0.4413110E-008  0.1739339E+04  0.7818608E-02  0.8739241E-01
         -2   -1    0    0    0  501 -0.00000000000E+00  0.00000000000E+00  0.10567455302E+04  0.10567455302E+04  0.00000000000E+00 0.  1.
          1   -1    0    0  501    0  0.00000000000E+00 -0.00000000000E+00 -0.71571133683E+03  0.71571133683E+03  0.00000000000E+00 0. -1.
        -24    2    1    2    0    0  0.97608940473E+02  0.59899826119E+03  0.31914941045E+03  0.69034089492E+03  0.79923606303E+02 0.  0.
        254    2    1    2    0    0 -0.97608940473E+02 -0.59899826119E+03  0.21884782925E+02  0.10821159721E+04  0.89563921933E+03 0.  0.
         23    2    4    4    0    0  0.63582915758E+02 -0.77587927285E+03  0.14681904548E+03  0.79740288688E+03  0.90907088162E+02 0.  0.
         23    2    4    4    0    0 -0.16119185623E+03  0.17688101166E+03 -0.12493426256E+03  0.28471308523E+03  0.90461395832E+02 0.  0.
          1    1    3    3  502    0  0.59397093518E+02  0.36801409234E+03  0.23930103618E+03  0.44297558939E+03  0.00000000000E+00 0. -1.
         -2    1    3    3    0  502  0.38211846955E+02  0.23098416885E+03  0.79848374262E+02  0.24736530553E+03  0.00000000000E+00 0.  1.
         11    1    5    5    0    0  0.77104012469E+02 -0.39032347257E+03  0.67826514937E+02  0.40360609276E+03  0.00000000000E+00 0.  1.
        -11    1    5    5    0    0 -0.13521096711E+02 -0.38555580028E+03  0.78992530547E+02  0.39379679413E+03  0.00000000000E+00 0. -1.
          1    1    6    6  503    0 -0.95625356503E+02  0.16070760067E+03 -0.10416556288E+03  0.21405981923E+03  0.00000000000E+00 0. -1.
         -1    1    6    6    0  503 -0.65566499728E+02  0.16173410996E+02 -0.20768699684E+02  0.70653265999E+02  0.00000000000E+00 0.  1.
<mgrwt>
<rscale>  0 0.17393387E+04</rscale>
<asrwt>0</asrwt>
<pdfrwt beam="1">  1        1 0.11010944E+00 0.17393387E+04</pdfrwt>
<pdfrwt beam="2">  1       -2 0.16257624E+00 0.17393387E+04</pdfrwt>
<totfact> 0.52712770E+00</totfact>
</mgrwt>
</event>
<event>
12    4  0.4413110E-008  0.2351061E+04  0.7818608E-02  0.8458056E-01
         -2   -1    0    0    0  501 -0.00000000000E+00  0.00000000000E+00  0.48729203924E+03  0.48729203924E+03  0.00000000000E+00 0.  1.
          1   -1    0    0  501    0  0.00000000000E+00 -0.00000000000E+00 -0.28358186906E+04  0.28358186906E+04  0.00000000000E+00 0. -1.
        -24    2    1    2    0    0 -0.89786528677E+03  0.36316538909E+03 -0.65397353755E+03  0.11714355306E+04  0.80800009543E+02 0.  0.
        254    2    1    2    0    0  0.89786528677E+03 -0.36316538909E+03 -0.16945531138E+04  0.21516751993E+04  0.90561842655E+03 0.  0.
         23    2    4    4    0    0  0.10049728944E+04 -0.50028833883E+03 -0.14996332110E+04  0.18754287128E+04  0.89856267255E+02 0.  0.
         23    2    4    4    0    0 -0.10710760765E+03  0.13712294974E+03 -0.19491990281E+03  0.27624648645E+03  0.89686173959E+02 0.  0.
          3    1    3    3  502    0 -0.70753447527E+02  0.14209377813E+02 -0.69724583020E+02  0.10034676991E+03  0.00000000000E+00 0. -1.
         -4    1    3    3    0  502 -0.82711183924E+03  0.34895601127E+03 -0.58424895453E+03  0.10710887607E+04  0.00000000000E+00 0.  1.
         11    1    5    5    0    0  0.68651993797E+03 -0.38395788603E+03 -0.10750561445E+04  0.13320957163E+04  0.00000000000E+00 0. -1.
        -11    1    5    5    0    0  0.31845295645E+03 -0.11633045280E+03 -0.42457706653E+03  0.54333299655E+03  0.00000000000E+00 0.  1.
          1    1    6    6  503    0  0.37324555540E+01  0.60235865546E+02 -0.69586555990E+02  0.92111777190E+02  0.00000000000E+00 0.  1.
         -1    1    6    6    0  503 -0.11084006321E+03  0.76887084197E+02 -0.12533334682E+03  0.18413470926E+03  0.00000000000E+00 0. -1.
<mgrwt>
<rscale>  0 0.23510609E+04</rscale>
<asrwt>0</asrwt>
<pdfrwt beam="1">  1        1 0.43627980E+00 0.23510609E+04</pdfrwt>
<pdfrwt beam="2">  1       -2 0.74968006E-01 0.23510609E+04</pdfrwt>
<totfact> 0.99353457E-01</totfact>
</mgrwt>
</event>
<event>
12    4  0.4413110E-008  0.2428288E+04  0.7818608E-02  0.8428988E-01
          1   -1    0    0  501    0  0.00000000000E+00  0.00000000000E+00  0.72593155669E+03  0.72593155669E+03  0.00000000000E+00 0. -1.
         -2   -1    0    0    0  501 -0.00000000000E+00 -0.00000000000E+00 -0.20306953168E+04  0.20306953168E+04  0.00000000000E+00 0.  1.
        -24    2    1    2    0    0 -0.70720493673E+03 -0.39670250934E+03  0.18312390854E+03  0.83494139417E+03  0.77981166769E+02 0.  0.
        254    2    1    2    0    0  0.70720493673E+03  0.39670250934E+03 -0.14878876687E+04  0.19216854794E+04  0.90639597498E+03 0.  0.
         23    2    4    4    0    0  0.54004073202E+03  0.42092888249E+03 -0.15688617765E+04  0.17140597668E+04  0.88591726403E+02 0.  0.
         23    2    4    4    0    0  0.16716420471E+03 -0.24226373148E+02  0.80974107810E+02  0.20762571257E+03  0.89559153043E+02 0.  0.
          3    1    3    3  502    0 -0.67842537433E+03 -0.39374988330E+03  0.16762610830E+03  0.80212123231E+03  0.00000000000E+00 0. -1.
         -4    1    3    3    0  502 -0.28779562399E+02 -0.29526260405E+01  0.15497800247E+02  0.32820161866E+02  0.00000000000E+00 0.  1.
         11    1    5    5    0    0  0.32761046141E+02  0.54454148007E+01 -0.10304735861E+03  0.10826678532E+03  0.00000000000E+00 0.  1.
        -11    1    5    5    0    0  0.50727968588E+03  0.41548346769E+03 -0.14658144179E+04  0.16057929815E+04  0.00000000000E+00 0. -1.
          4    1    6    6  503    0  0.32179631677E+02 -0.33175186158E+02 -0.62858314381E+01  0.46643684978E+02  0.00000000000E+00 0.  1.
         -4    1    6    6    0  503  0.13498457303E+03  0.89488130093E+01  0.87259939248E+02  0.16098202759E+03  0.00000000000E+00 0. -1.
<mgrwt>
<rscale>  0 0.24282881E+04</rscale>
<asrwt>0</asrwt>
<pdfrwt beam="1">  1        1 0.11168178E+00 0.24282881E+04</pdfrwt>
<pdfrwt beam="2">  1       -2 0.31241466E+00 0.24282881E+04</pdfrwt>
<totfact> 0.53859864E-01</totfact>
</mgrwt>
</event>
<event>
12    4  0.4413110E-008  0.2283008E+04  0.7818608E-02  0.8484651E-01
         -4   -1    0    0    0  501 -0.00000000000E+00  0.00000000000E+00  0.41595026364E+03  0.41595026364E+03  0.00000000000E+00 0.  1.
          3   -1    0    0  501    0  0.00000000000E+00 -0.00000000000E+00 -0.31326623618E+04  0.31326623618E+04  0.00000000000E+00 0. -1.
        -24    2    1    2    0    0 -0.14582901688E+03  0.16903086116E+03 -0.27001307413E+04  0.27106262288E+04  0.83372644732E+02 0.  0.
        254    2    1    2    0    0  0.14582901688E+03 -0.16903086116E+03 -0.16581356832E+02  0.83798639663E+03  0.80753249183E+03 0.  0.
         23    2    4    4    0    0  0.40444278801E+03  0.84217366736E+02  0.12043524829E+03  0.44022749011E+03  0.92892735922E+02 0.  0.
         23    2    4    4    0    0 -0.25861377113E+03 -0.25324822789E+03 -0.13701660512E+03  0.39775890652E+03  0.91776086685E+02 0.  0.
          3    1    3    3  502    0 -0.85530376449E+02  0.15303400588E+03 -0.20732342717E+04  0.20806333646E+04  0.00000000000E+00 0. -1.
         -4    1    3    3    0  502 -0.60298640428E+02  0.15996855281E+02 -0.62689646957E+03  0.62999286423E+03  0.00000000000E+00 0.  1.
         11    1    5    5    0    0  0.21131063926E+02 -0.16591886577E+02  0.42328154009E+01  0.27197964796E+02  0.00000000000E+00 0.  1.
        -11    1    5    5    0    0  0.38331172408E+03  0.10080925331E+03  0.11620243289E+03  0.41302952532E+03  0.00000000000E+00 0. -1.
          3    1    6    6  503    0 -0.24984629714E+03 -0.26111400907E+03 -0.13513665340E+03  0.38583106798E+03  0.00000000000E+00 0. -1.
         -3    1    6    6    0  503 -0.87674739881E+01  0.78657811786E+01 -0.18799517262E+01  0.11927838537E+02  0.00000000000E+00 0.  1.
<mgrwt>
<rscale>  0 0.22830083E+04</rscale>
<asrwt>0</asrwt>
<pdfrwt beam="1">  1        3 0.48194805E+00 0.22830083E+04</pdfrwt>
<pdfrwt beam="2">  1       -4 0.63992349E-01 0.22830083E+04</pdfrwt>
<totfact> 0.20001354E-02</totfact>
</mgrwt>
</event>
<event>
12    4  0.4413110E-008  0.1051997E+04  0.7818608E-02  0.9253284E-01
         -2   -1    0    0    0  501 -0.00000000000E+00  0.00000000000E+00  0.51064335579E+03  0.51064335579E+03  0.00000000000E+00 0.  1.
          1   -1    0    0  501    0  0.00000000000E+00 -0.00000000000E+00 -0.54181576303E+03  0.54181576303E+03  0.00000000000E+00 0. -1.
        -24    2    1    2    0    0  0.43352880709E+02 -0.85895990722E+02  0.24914544423E+02  0.14549309699E+03  0.10625400350E+03 0.  0.
        254    2    1    2    0    0 -0.43352880709E+02  0.85895990722E+02 -0.56086951664E+02  0.90696602184E+03  0.90010223038E+03 0.  0.
         23    2    4    4    0    0 -0.41125749301E+03  0.21495865792E+03 -0.14905246022E+03  0.49586851794E+03  0.91263360775E+02 0.  0.
         23    2    4    4    0    0  0.36790461230E+03 -0.12906266719E+03  0.92965508560E+02  0.41109750390E+03  0.91365179982E+02 0.  0.
          1    1    3    3  502    0  0.59653868834E+01 -0.21586024467E+02 -0.40600733409E+02  0.46367681054E+02  0.00000000000E+00 0. -1.
         -2    1    3    3    0  502  0.37387493826E+02 -0.64309966255E+02  0.65515277832E+02  0.99125415932E+02  0.00000000000E+00 0.  1.
         11    1    5    5    0    0 -0.23901601291E+03  0.77231249171E+02 -0.97081628922E+02  0.26929196599E+03  0.00000000000E+00 0. -1.
        -11    1    5    5    0    0 -0.17224148010E+03  0.13772740875E+03 -0.51970831301E+02  0.22657655195E+03  0.00000000000E+00 0.  1.
          2    1    6    6  503    0  0.26018696100E+02 -0.25290756328E+02  0.32534981453E+02  0.48735202067E+02  0.00000000000E+00 0. -1.
         -2    1    6    6    0  503  0.34188591620E+03 -0.10377191087E+03  0.60430527107E+02  0.36236230183E+03  0.00000000000E+00 0.  1.
<mgrwt>
<rscale>  0 0.10519974E+04</rscale>
<asrwt>0</asrwt>
<pdfrwt beam="1">  1        1 0.83356272E-01 0.10519974E+04</pdfrwt>
<pdfrwt beam="2">  1       -2 0.78560516E-01 0.10519974E+04</pdfrwt>
<totfact> 0.49912454E+01</totfact>
</mgrwt>
</event>
<event>
12    4  0.4544938E-008  0.1435222E+04  0.7818608E-02  0.8928711E-01
          1   -1    0    0  501    0  0.00000000000E+00  0.00000000000E+00  0.19713772587E+04  0.19713772587E+04  0.00000000000E+00 0. -1.
         -2   -1    0    0    0  501 -0.00000000000E+00 -0.00000000000E+00 -0.26122114162E+03  0.26122114162E+03  0.00000000000E+00 0.  1.
        -24    2    1    2    0    0  0.12855150792E+03  0.16636116953E+03 -0.62189242769E+02  0.23351309794E+03  0.80369994882E+02 0.  0.
        254    2    1    2    0    0 -0.12855150792E+03 -0.16636116953E+03  0.17723453599E+04  0.19990853024E+04  0.90051787475E+03 0.  0.
         23    2    4    4    0    0  0.35246643198E+03 -0.21724216659E+03  0.94169211524E+03  0.10326723012E+04  0.90561013404E+02 0.  0.
         23    2    4    4    0    0 -0.48101793990E+03  0.50880997063E+02  0.83065324464E+03  0.96641300121E+03  0.10001070800E+03 0.  0.
          3    1    3    3  502    0  0.11757090091E+02 -0.85623287924E+01 -0.65235854722E+01  0.15940508435E+02  0.00000000000E+00 0. -1.
         -4    1    3    3    0  502  0.11679441782E+03  0.17492349832E+03 -0.55665657296E+02  0.21757258950E+03  0.00000000000E+00 0.  1.
         11    1    5    5    0    0  0.20051924203E+02 -0.21494278861E+01  0.15611844097E+02  0.25503517025E+02  0.00000000000E+00 0. -1.
        -11    1    5    5    0    0  0.33241450778E+03 -0.21509273871E+03  0.92608027115E+03  0.10071687842E+04  0.00000000000E+00 0.  1.
          1    1    6    6  503    0 -0.32598358944E+02 -0.14625118808E+02  0.31134254929E+02  0.47390810670E+02  0.00000000000E+00 0. -1.
         -1    1    6    6    0  503 -0.44841958096E+03  0.65506115871E+02  0.79951898971E+03  0.91902219054E+03  0.00000000000E+00 0.  1.
<mgrwt>
<rscale>  0 0.14352218E+04</rscale>
<asrwt>0</asrwt>
<pdfrwt beam="1">  1        1 0.30328880E+00 0.14352218E+04</pdfrwt>
<pdfrwt beam="2">  1       -2 0.40187869E-01 0.14352218E+04</pdfrwt>
<totfact> 0.15600052E+01</totfact>
</mgrwt>
</event>
<event>
12    4  0.4413110E-008  0.2887380E+04  0.7818608E-02  0.8276642E-01
          1   -1    0    0  501    0  0.00000000000E+00  0.00000000000E+00  0.25175490868E+04  0.25175490868E+04  0.00000000000E+00 0. -1.
         -2   -1    0    0    0  501 -0.00000000000E+00 -0.00000000000E+00 -0.82788506258E+03  0.82788506258E+03  0.00000000000E+00 0.  1.
        -24    2    1    2    0    0 -0.87588453482E+03 -0.29419583182E+03 -0.29711444372E+03  0.97414285586E+03  0.83381083963E+02 0.  0.
        254    2    1    2    0    0  0.87588453482E+03  0.29419583182E+03  0.19867784680E+04  0.23712912936E+04  0.90664701637E+03 0.  0.
         23    2    4    4    0    0 -0.17905956343E+03  0.79689396592E+02  0.30424851021E+03  0.37161571701E+03  0.84370361976E+02 0.  0.
         23    2    4    4    0    0  0.10549440982E+04  0.21450643523E+03  0.16825299578E+04  0.19996755765E+04  0.94208765419E+02 0.  0.
          3    1    3    3  502    0  0.10564573730E+01 -0.29095687626E+01  0.89857010694E+00  0.32232159100E+01  0.00000000000E+00 0. -1.
         -4    1    3    3    0  502 -0.87694099219E+03 -0.29128626306E+03 -0.29801301382E+03  0.97091963995E+03  0.00000000000E+00 0.  1.
         11    1    5    5    0    0 -0.12624450784E+03  0.34281815268E+02  0.25407628261E+03  0.28577556929E+03  0.00000000000E+00 0. -1.
        -11    1    5    5    0    0 -0.52815055588E+02  0.45407581324E+02  0.50172227601E+02  0.85840147722E+02  0.00000000000E+00 0.  1.
          3    1    6    6  503    0  0.61584290644E+03  0.17180823162E+03  0.98125652511E+03  0.11711724561E+04  0.00000000000E+00 0. -1.
         -3    1    6    6    0  503  0.43910119180E+03  0.42698203614E+02  0.70127343265E+03  0.82850312044E+03  0.00000000000E+00 0.  1.
<mgrwt>
<rscale>  0 0.28873803E+04</rscale>
<asrwt>0</asrwt>
<pdfrwt beam="1">  1        1 0.38731524E+00 0.28873803E+04</pdfrwt>
<pdfrwt beam="2">  1       -2 0.12736693E+00 0.28873803E+04</pdfrwt>
<totfact> 0.45522271E-01</totfact>
</mgrwt>
</event>
<event>
12    4  0.4413110E-008  0.1673969E+04  0.7818608E-02  0.8776352E-01
         -2   -1    0    0    0  501 -0.00000000000E+00  0.00000000000E+00  0.97761241553E+03  0.97761241553E+03  0.00000000000E+00 0.  1.
          1   -1    0    0  501    0  0.00000000000E+00 -0.00000000000E+00 -0.71658564503E+03  0.71658564503E+03  0.00000000000E+00 0. -1.
        -24    2    1    2    0    0  0.46880570628E+03 -0.15916943165E+03 -0.23483785114E+03  0.55312085646E+03  0.75366884700E+02 0.  0.
        254    2    1    2    0    0 -0.46880570628E+03  0.15916943165E+03  0.49586462164E+03  0.11410772041E+04  0.90058967600E+03 0.  0.
         23    2    4    4    0    0 -0.44315874211E+02 -0.17057044825E+03 -0.18361972262E+03  0.26993383842E+03  0.89943871758E+02 0.  0.
         23    2    4    4    0    0 -0.42448983207E+03  0.32973987989E+03  0.67948434426E+03  0.87114336569E+03  0.90949346160E+02 0.  0.
          3    1    3    3  502    0  0.37633778770E+03 -0.12914390166E+03 -0.15385774570E+03  0.42659170609E+03  0.00000000000E+00 0. -1.
         -4    1    3    3    0  502  0.92467918577E+02 -0.30025529991E+02 -0.80980105440E+02  0.12652915037E+03  0.00000000000E+00 0.  1.
         11    1    5    5    0    0 -0.40445609056E+02 -0.17238850561E+02 -0.33085687971E+02  0.55024431020E+02  0.00000000000E+00 0. -1.
        -11    1    5    5    0    0 -0.38702651551E+01 -0.15333159768E+03 -0.15053403465E+03  0.21490940740E+03  0.00000000000E+00 0.  1.
          3    1    6    6  503    0 -0.86324224149E+02  0.11551751051E+03  0.19888410977E+03  0.24566451927E+03  0.00000000000E+00 0. -1.
         -3    1    6    6    0  503 -0.33816560792E+03  0.21422236938E+03  0.48060023448E+03  0.62547884641E+03  0.00000000000E+00 0.  1.
<mgrwt>
<rscale>  0 0.16739690E+04</rscale>
<asrwt>0</asrwt>
<pdfrwt beam="1">  1        1 0.11024395E+00 0.16739690E+04</pdfrwt>
<pdfrwt beam="2">  1       -2 0.15040191E+00 0.16739690E+04</pdfrwt>
<totfact> 0.65272176E+00</totfact>
</mgrwt>
</event>
<event>
12    4  0.4413110E-008  0.2924701E+04  0.7818608E-02  0.8265566E-01
         -2   -1    0    0    0  501 -0.00000000000E+00  0.00000000000E+00  0.92403514132E+03  0.92403514132E+03  0.00000000000E+00 0.  1.
          1   -1    0    0  501    0  0.00000000000E+00 -0.00000000000E+00 -0.23142724321E+04  0.23142724321E+04  0.00000000000E+00 0. -1.
        -24    2    1    2    0    0  0.36204237659E+03  0.35188074812E+03  0.72673142069E+03  0.88847452316E+03  0.79709956439E+02 0.  0.
        254    2    1    2    0    0 -0.36204237659E+03 -0.35188074812E+03 -0.21169687115E+04  0.23498330502E+04  0.88615128245E+03 0.  0.
         23    2    4    4    0    0 -0.43485980301E+03  0.14059151357E+03 -0.66432556649E+03  0.81134179521E+03  0.89877852614E+02 0.  0.
         23    2    4    4    0    0  0.72817426420E+02 -0.49247226169E+03 -0.14526431450E+04  0.15384912550E+04  0.94614634653E+02 0.  0.
          3    1    3    3  502    0  0.19395829935E+03  0.14306534368E+03  0.38391848722E+03  0.45330003230E+03  0.00000000000E+00 0. -1.
         -4    1    3    3    0  502  0.16808407724E+03  0.20881540443E+03  0.34281293347E+03  0.43517449087E+03  0.00000000000E+00 0.  1.
         11    1    5    5    0    0 -0.19244875814E+03  0.65943958690E+02 -0.37460244477E+03  0.42627704820E+03  0.00000000000E+00 0. -1.
        -11    1    5    5    0    0 -0.24241104486E+03  0.74647554884E+02 -0.28972312173E+03  0.38506474700E+03  0.00000000000E+00 0.  1.
          2    1    6    6  503    0  0.23170863047E+02 -0.39782937530E+03 -0.11892631611E+04  0.12542535498E+04  0.00000000000E+00 0. -1.
         -2    1    6    6    0  503  0.49646563372E+02 -0.94642886387E+02 -0.26337998387E+03  0.28423770528E+03  0.00000000000E+00 0.  1.
<mgrwt>
<rscale>  0 0.29247010E+04</rscale>
<asrwt>0</asrwt>
<pdfrwt beam="1">  1        1 0.35604191E+00 0.29247010E+04</pdfrwt>
<pdfrwt beam="2">  1       -2 0.14215925E+00 0.29247010E+04</pdfrwt>
<totfact> 0.47300007E-01</totfact>
</mgrwt>
</event>
<event>
12    4  0.4413110E-008  0.1670760E+04  0.7818608E-02  0.8778219E-01
          1   -1    0    0  501    0  0.00000000000E+00  0.00000000000E+00  0.11826719226E+04  0.11826719226E+04  0.00000000000E+00 0. -1.
         -2   -1    0    0    0  501 -0.00000000000E+00 -0.00000000000E+00 -0.59007047976E+03  0.59007047976E+03  0.00000000000E+00 0.  1.
        -24    2    1    2    0    0 -0.35445351435E+03 -0.43574779286E+03  0.39195907075E+03  0.68980704297E+03  0.81782703375E+02 0.  0.
        254    2    1    2    0    0  0.35445351435E+03  0.43574779286E+03  0.20064237204E+03  0.10829353593E+04  0.90386846290E+03 0.  0.
         23    2    4    4    0    0 -0.34993105381E+02 -0.19159374422E+03  0.25771587827E+03  0.33578703253E+03  0.91666662720E+02 0.  0.
         23    2    4    4    0    0  0.38944661973E+03  0.62734153708E+03 -0.57073506224E+02  0.74714832681E+03  0.98727723433E+02 0.  0.
          3    1    3    3  502    0 -0.22541473453E+03 -0.24182798026E+03  0.18866819608E+03  0.38064190887E+03  0.00000000000E+00 0. -1.
         -4    1    3    3    0  502 -0.12903877982E+03 -0.19391981260E+03  0.20329087467E+03  0.30916513410E+03  0.00000000000E+00 0.  1.
         11    1    5    5    0    0 -0.15643974838E+02 -0.13518388300E+03  0.23579932940E+03  0.27225124411E+03  0.00000000000E+00 0. -1.
        -11    1    5    5    0    0 -0.19349130543E+02 -0.56409861225E+02  0.21916548863E+02  0.63535788421E+02  0.00000000000E+00 0.  1.
          4    1    6    6  503    0  0.14511325466E+03  0.15093155737E+03 -0.23397872881E+02  0.21067902634E+03  0.00000000000E+00 0. -1.
         -4    1    6    6    0  503  0.24433336508E+03  0.47640997972E+03 -0.33675633343E+02  0.53646930047E+03  0.00000000000E+00 0.  1.
<mgrwt>
<rscale>  0 0.16707601E+04</rscale>
<asrwt>0</asrwt>
<pdfrwt beam="1">  1        1 0.18194953E+00 0.16707601E+04</pdfrwt>
<pdfrwt beam="2">  1       -2 0.90780074E-01 0.16707601E+04</pdfrwt>
<totfact> 0.95369362E+00</totfact>
</mgrwt>
</event>
<event>
12    4  0.4413110E-008  0.1849256E+04  0.7818608E-02  0.8680535E-01
          1   -1    0    0  501    0  0.00000000000E+00  0.00000000000E+00  0.57854711715E+03  0.57854711715E+03  0.00000000000E+00 0. -1.
         -2   -1    0    0    0  501 -0.00000000000E+00 -0.00000000000E+00 -0.14777311515E+04  0.14777311515E+04  0.00000000000E+00 0.  1.
        -24    2    1    2    0    0 -0.59537567658E+03 -0.12826439778E+03 -0.74209298259E+03  0.96323353682E+03  0.78694978508E+02 0.  0.
        254    2    1    2    0    0  0.59537567658E+03  0.12826439778E+03 -0.15709105172E+03  0.10930447318E+04  0.89394923523E+03 0.  0.
         23    2    4    4    0    0  0.76088909625E+03 -0.99352503012E+02 -0.36677525148E+02  0.77361462841E+03  0.91165869714E+02 0.  0.
         23    2    4    4    0    0 -0.16551341966E+03  0.22761690079E+03 -0.12041352657E+03  0.31943010339E+03  0.91279942777E+02 0.  0.
          3    1    3    3  502    0 -0.50674770608E+02  0.94451868083E+01 -0.75977355512E+02  0.91813411225E+02  0.00000000000E+00 0. -1.
         -4    1    3    3    0  502 -0.54470090598E+03 -0.13770958459E+03 -0.66611562708E+03  0.87142012560E+03  0.00000000000E+00 0.  1.
         11    1    5    5    0    0  0.56220877200E+03 -0.50519920331E+02  0.65146277949E+01  0.56451165270E+03  0.00000000000E+00 0. -1.
        -11    1    5    5    0    0  0.19868032425E+03 -0.48832582681E+02 -0.43192152943E+02  0.20910297571E+03  0.00000000000E+00 0.  1.
          1    1    6    6  503    0 -0.15990238343E+03  0.23520154144E+03 -0.10890080012E+03  0.30454543436E+03  0.00000000000E+00 0. -1.
         -1    1    6    6    0  503 -0.56110362308E+01 -0.75846406549E+01 -0.11512726457E+02  0.14884669023E+02  0.00000000000E+00 0.  1.
<mgrwt>
<rscale>  0 0.18492562E+04</rscale>
<asrwt>0</asrwt>
<pdfrwt beam="1">  1        1 0.89007249E-01 0.18492562E+04</pdfrwt>
<pdfrwt beam="2">  1       -2 0.22734325E+00 0.18492562E+04</pdfrwt>
<totfact> 0.26362614E+00</totfact>
</mgrwt>
</event>
<event>
12    4  0.4413110E-008  0.1508257E+04  0.7818608E-02  0.8878980E-01
          1   -1    0    0  501    0  0.00000000000E+00  0.00000000000E+00  0.53162700503E+03  0.53162700503E+03  0.00000000000E+00 0. -1.
         -2   -1    0    0    0  501 -0.00000000000E+00 -0.00000000000E+00 -0.10697539512E+04  0.10697539512E+04  0.00000000000E+00 0.  1.
        -24    2    1    2    0    0  0.40524066142E+03 -0.19459795452E+03  0.22754203991E+02  0.45755405715E+03  0.82155972624E+02 0.  0.
        254    2    1    2    0    0 -0.40524066142E+03  0.19459795452E+03 -0.56088115012E+03  0.11438268990E+04  0.88975499595E+03 0.  0.
         23    2    4    4    0    0 -0.63024607956E+03  0.32001672981E+03 -0.32799630756E+03  0.78484490303E+03  0.93696936321E+02 0.  0.
         23    2    4    4    0    0  0.22500541814E+03 -0.12541877529E+03 -0.23288484256E+03  0.35898199600E+03  0.90969314468E+02 0.  0.
          1    1    3    3  502    0  0.40648349198E+03 -0.18395889203E+03  0.20733844285E+02  0.44665377588E+03  0.00000000000E+00 0. -1.
         -2    1    3    3    0  502 -0.12428305521E+01 -0.10639062489E+02  0.20203597052E+01  0.10900281270E+02  0.00000000000E+00 0.  1.
         11    1    5    5    0    0 -0.32015673807E+03  0.13513664412E+03 -0.20488278481E+03  0.40340947563E+03  0.00000000000E+00 0. -1.
        -11    1    5    5    0    0 -0.31008934149E+03  0.18488008569E+03 -0.12311352275E+03  0.38143542740E+03  0.00000000000E+00 0.  1.
          4    1    6    6  503    0  0.10625041019E+03 -0.11007376535E+03 -0.12026136433E+03  0.19459748003E+03  0.00000000000E+00 0.  1.
         -4    1    6    6    0  503  0.11875500795E+03 -0.15345009936E+02 -0.11262347822E+03  0.16438451597E+03  0.00000000000E+00 0. -1.
<mgrwt>
<rscale>  0 0.15082574E+04</rscale>
<asrwt>0</asrwt>
<pdfrwt beam="1">  1        1 0.81788771E-01 0.15082574E+04</pdfrwt>
<pdfrwt beam="2">  1       -2 0.16457753E+00 0.15082574E+04</pdfrwt>
<totfact> 0.80161627E+00</totfact>
</mgrwt>
</event>
<event>
12    4  0.4413110E-008  0.1823547E+04  0.7818608E-02  0.8693877E-01
          1   -1    0    0  501    0  0.00000000000E+00  0.00000000000E+00  0.57753452200E+03  0.57753452200E+03  0.00000000000E+00 0. -1.
         -2   -1    0    0    0  501 -0.00000000000E+00 -0.00000000000E+00 -0.14394480731E+04  0.14394480731E+04  0.00000000000E+00 0.  1.
        -24    2    1    2    0    0  0.44068578535E+03  0.32004607214E+03 -0.77902703146E+03  0.95386246820E+03  0.79605544960E+02 0.  0.
        254    2    1    2    0    0 -0.44068578535E+03 -0.32004607214E+03 -0.82886519621E+02  0.10631201269E+04  0.90924187066E+03 0.  0.
         23    2    4    4    0    0  0.27263932836E+03 -0.81619560867E+02 -0.32638622966E+02  0.30397484749E+03  0.10169302884E+03 0.  0.
         23    2    4    4    0    0 -0.71332511371E+03 -0.23842651127E+03 -0.50247896655E+02  0.75914527940E+03  0.89982137076E+02 0.  0.
          1    1    3    3  502    0  0.14689381631E+03  0.15437716433E+03 -0.29550593209E+03  0.36432658157E+03  0.00000000000E+00 0. -1.
         -2    1    3    3    0  502  0.29379196904E+03  0.16566890780E+03 -0.48352109937E+03  0.58953588663E+03  0.00000000000E+00 0.  1.
         11    1    5    5    0    0  0.10524372136E+02 -0.21210773351E+02 -0.25635716976E+02  0.34897697630E+02  0.00000000000E+00 0. -1.
        -11    1    5    5    0    0  0.26211495622E+03 -0.60408787516E+02 -0.70029059905E+01  0.26907714986E+03  0.00000000000E+00 0.  1.
          4    1    6    6  503    0 -0.15290148141E+03 -0.71029179599E+02  0.21140934770E+02  0.16991452702E+03  0.00000000000E+00 0. -1.
         -4    1    6    6    0  503 -0.56042363230E+03 -0.16739733167E+03 -0.71388831425E+02  0.58923075238E+03  0.00000000000E+00 0.  1.
<mgrwt>
<rscale>  0 0.18235470E+04</rscale>
<asrwt>0</asrwt>
<pdfrwt beam="1">  1        1 0.88851466E-01 0.18235470E+04</pdfrwt>
<pdfrwt beam="2">  1       -2 0.22145355E+00 0.18235470E+04</pdfrwt>
<totfact> 0.28844936E+00</totfact>
</mgrwt>
</event>
<event>
12    4  0.4413110E-008  0.3020894E+04  0.7818608E-02  0.8237789E-01
          1   -1    0    0  501    0  0.00000000000E+00  0.00000000000E+00  0.25974416013E+04  0.25974416013E+04  0.00000000000E+00 0. -1.
         -2   -1    0    0    0  501 -0.00000000000E+00 -0.00000000000E+00 -0.87834520797E+03  0.87834520797E+03  0.00000000000E+00 0.  1.
        -24    2    1    2    0    0 -0.25343536296E+03 -0.30927157781E+03  0.23000185445E+04  0.23358950954E+04  0.80263313947E+02 0.  0.
        254    2    1    2    0    0  0.25343536296E+03  0.30927157781E+03 -0.58092215119E+03  0.11398917139E+04  0.89554686173E+03 0.  0.
         23    2    4    4    0    0  0.49090610300E+03  0.20936757938E+03 -0.66089752828E+03  0.85469370307E+03  0.94298451354E+02 0.  0.
         23    2    4    4    0    0 -0.23747074004E+03  0.99903998428E+02  0.79975377088E+02  0.28519801079E+03  0.92567181785E+02 0.  0.
          3    1    3    3  502    0 -0.25113652488E+03 -0.27280338548E+03  0.21240899634E+04  0.21562118203E+04  0.00000000000E+00 0. -1.
         -4    1    3    3    0  502 -0.22988380785E+01 -0.36468192334E+02  0.17592858115E+03  0.17968327516E+03  0.00000000000E+00 0.  1.
         11    1    5    5    0    0  0.67559785739E+02  0.36885700347E+02 -0.50364391137E+02  0.91986148054E+02  0.00000000000E+00 0. -1.
        -11    1    5    5    0    0  0.42334631726E+03  0.17248187904E+03 -0.61053313714E+03  0.76270755502E+03  0.00000000000E+00 0.  1.
          3    1    6    6  503    0  0.18112774304E+01  0.13642906468E+02  0.19301759519E+02  0.23705854622E+02  0.00000000000E+00 0. -1.
         -3    1    6    6    0  503 -0.23928201747E+03  0.86261091960E+02  0.60673617569E+02  0.26149215617E+03  0.00000000000E+00 0.  1.
<mgrwt>
<rscale>  0 0.30208942E+04</rscale>
<asrwt>0</asrwt>
<pdfrwt beam="1">  1        1 0.39960640E+00 0.30208942E+04</pdfrwt>
<pdfrwt beam="2">  1       -2 0.13513003E+00 0.30208942E+04</pdfrwt>
<totfact> 0.34068565E-01</totfact>
</mgrwt>
</event>
<event>
12    4  0.4413110E-008  0.1678780E+04  0.7818608E-02  0.8773560E-01
          1   -1    0    0  501    0  0.00000000000E+00  0.00000000000E+00  0.17163796385E+04  0.17163796385E+04  0.00000000000E+00 0. -1.
         -2   -1    0    0    0  501 -0.00000000000E+00 -0.00000000000E+00 -0.41050119999E+03  0.41050119999E+03  0.00000000000E+00 0.  1.
        -24    2    1    2    0    0  0.25396729289E+03 -0.37516906402E+03 -0.62475276200E+01  0.46016238268E+03  0.80368988896E+02 0.  0.
        254    2    1    2    0    0 -0.25396729289E+03  0.37516906402E+03  0.13121259661E+04  0.16667184558E+04  0.92250997147E+03 0.  0.
         23    2    4    4    0    0  0.28091537243E+03  0.23409447700E+03  0.21154881841E+03  0.43174546125E+03  0.89093041871E+02 0.  0.
         23    2    4    4    0    0 -0.53488266532E+03  0.14107458702E+03  0.11005771477E+04  0.12349729945E+04  0.88807288157E+02 0.  0.
          3    1    3    3  502    0  0.82770476437E+02 -0.64036810323E+02  0.60780234019E+01  0.10482655777E+03  0.00000000000E+00 0. -1.
         -4    1    3    3    0  502  0.17119681646E+03 -0.31113225370E+03 -0.12325551022E+02  0.35533582491E+03  0.00000000000E+00 0.  1.
         11    1    5    5    0    0  0.10707810611E+03  0.14645413520E+03  0.11010608841E+03  0.21222131191E+03  0.00000000000E+00 0. -1.
        -11    1    5    5    0    0  0.17383726632E+03  0.87640341801E+02  0.10144273000E+03  0.21952414934E+03  0.00000000000E+00 0.  1.
          3    1    6    6  503    0 -0.19332753202E+03  0.96204227289E+01  0.41077600779E+03  0.45409802438E+03  0.00000000000E+00 0. -1.
         -3    1    6    6    0  503 -0.34155513330E+03  0.13145416430E+03  0.68980113992E+03  0.78087497016E+03  0.00000000000E+00 0.  1.
<mgrwt>
<rscale>  0 0.16787804E+04</rscale>
<asrwt>0</asrwt>
<pdfrwt beam="1">  1        1 0.26405840E+00 0.16787804E+04</pdfrwt>
<pdfrwt beam="2">  1       -2 0.63154031E-01 0.16787804E+04</pdfrwt>
<totfact> 0.90265181E+00</totfact>
</mgrwt>
</event>
<event>
12    4  0.4413110E-008  0.2331135E+04  0.7818608E-02  0.8465745E-01
         -2   -1    0    0    0  501 -0.00000000000E+00  0.00000000000E+00  0.22100128914E+04  0.22100128914E+04  0.00000000000E+00 0.  1.
          1   -1    0    0  501    0  0.00000000000E+00 -0.00000000000E+00 -0.61472361633E+03  0.61472361633E+03  0.00000000000E+00 0. -1.
        -24    2    1    2    0    0  0.78903278335E+03 -0.47574374853E+02 -0.41715522140E+02  0.79576128171E+03  0.81607464966E+02 0.  0.
        254    2    1    2    0    0 -0.78903278335E+03  0.47574374853E+02  0.16370047972E+04  0.20289752260E+04  0.90117684580E+03 0.  0.
         23    2    4    4    0    0 -0.33596958097E+03  0.94872694129E+02  0.15019488696E+04  0.15451273461E+04  0.98446540656E+02 0.  0.
         23    2    4    4    0    0 -0.45306320238E+03 -0.47298319276E+02  0.13505592761E+03  0.48384787992E+03  0.91461855255E+02 0.  0.
          1    1    3    3  502    0  0.74341282899E+03 -0.39447677383E+02 -0.20355246332E+02  0.74473692645E+03  0.00000000000E+00 0. -1.
         -2    1    3    3    0  502  0.45619954354E+02 -0.81266974698E+01 -0.21360275808E+02  0.51024355259E+02  0.00000000000E+00 0.  1.
         11    1    5    5    0    0 -0.18394578605E+02  0.34892895181E+02  0.17432576601E+03  0.17873261412E+03  0.00000000000E+00 0.  1.
        -11    1    5    5    0    0 -0.31757500236E+03  0.59979798948E+02  0.13276231036E+04  0.13663947320E+04  0.00000000000E+00 0. -1.
          2    1    6    6  503    0 -0.31822415027E+03 -0.72564517479E+02  0.80203792522E+02  0.33610246555E+03  0.00000000000E+00 0. -1.
         -2    1    6    6    0  503 -0.13483905211E+03  0.25266198202E+02  0.54852135087E+02  0.14774541437E+03  0.00000000000E+00 0.  1.
<mgrwt>
<rscale>  0 0.23311346E+04</rscale>
<asrwt>0</asrwt>
<pdfrwt beam="1">  1        1 0.94572866E-01 0.23311346E+04</pdfrwt>
<pdfrwt beam="2">  1       -2 0.34000198E+00 0.23311346E+04</pdfrwt>
<totfact> 0.46996235E-01</totfact>
</mgrwt>
</event>
<event>
12    4  0.4413110E-008  0.1248693E+04  0.7818608E-02  0.9071272E-01
         -2   -1    0    0    0  501 -0.00000000000E+00  0.00000000000E+00  0.88124468730E+02  0.88124468730E+02  0.00000000000E+00 0.  1.
          1   -1    0    0  501    0  0.00000000000E+00 -0.00000000000E+00 -0.44233856619E+04  0.44233856619E+04  0.00000000000E+00 0. -1.
        -24    2    1    2    0    0  0.26389096026E+03 -0.10455049475E+03 -0.13971942039E+04  0.14280550414E+04  0.81365304878E+02 0.  0.
        254    2    1    2    0    0 -0.26389096026E+03  0.10455049475E+03 -0.29380669893E+04  0.30834550893E+04  0.89156514588E+03 0.  0.
         23    2    4    4    0    0 -0.24062305648E+03 -0.34587561786E+03 -0.18904013714E+04  0.19389190344E+04  0.90886075096E+02 0.  0.
         23    2    4    4    0    0 -0.23267903771E+02  0.45042611261E+03 -0.10476656178E+04  0.11445360548E+04  0.94522250210E+02 0.  0.
          1    1    3    3  502    0  0.11725212483E+03 -0.23040826034E+02 -0.75048540952E+03  0.75993900435E+03  0.00000000000E+00 0. -1.
         -4    1    3    3    0  502  0.14663883543E+03 -0.81509668721E+02 -0.64670879440E+03  0.66811603700E+03  0.00000000000E+00 0.  1.
         11    1    5    5    0    0 -0.33418352133E+02 -0.11375265958E+02 -0.21896862527E+03  0.22179594629E+03  0.00000000000E+00 0.  1.
        -11    1    5    5    0    0 -0.20720470435E+03 -0.33450035190E+03 -0.16714327462E+04  0.17171230882E+04  0.00000000000E+00 0. -1.
          2    1    6    6  503    0 -0.41578250862E+02  0.22850785201E+03 -0.62579654054E+03  0.66750722807E+03  0.00000000000E+00 0. -1.
         -2    1    6    6    0  503  0.18310347091E+02  0.22191826060E+03 -0.42186907729E+03  0.47702882677E+03  0.00000000000E+00 0.  1.
<mgrwt>
<rscale>  0 0.12486929E+04</rscale>
<asrwt>0</asrwt>
<pdfrwt beam="1">  1        1 0.68052086E+00 0.12486929E+04</pdfrwt>
<pdfrwt beam="2">  1       -2 0.13557611E-01 0.12486929E+04</pdfrwt>
<totfact> 0.14504899E+00</totfact>
</mgrwt>
</event>
<event>
12    4  0.4413110E-008  0.1599936E+04  0.7818608E-02  0.8820587E-01
          1   -1    0    0  501    0  0.00000000000E+00  0.00000000000E+00  0.21844380622E+04  0.21844380622E+04  0.00000000000E+00 0. -1.
         -2   -1    0    0    0  501 -0.00000000000E+00 -0.00000000000E+00 -0.29295813399E+03  0.29295813399E+03  0.00000000000E+00 0.  1.
        -24    2    1    2    0    0 -0.49405128540E+03 -0.23885348887E+03  0.45493154563E+03  0.71672995791E+03  0.74842899573E+02 0.  0.
        254    2    1    2    0    0  0.49405128540E+03  0.23885348887E+03  0.14365483826E+04  0.17606662383E+04  0.85740112279E+03 0.  0.
         23    2    4    4    0    0  0.66610579024E+03  0.11354060256E+03  0.13530316912E+04  0.15152417196E+04  0.93136026003E+02 0.  0.
         23    2    4    4    0    0 -0.17205450484E+03  0.12531288631E+03  0.83516691431E+02  0.24542451867E+03  0.89174461063E+02 0.  0.
          1    1    3    3  502    0 -0.23730877283E+03 -0.11036570834E+03  0.26524469174E+03  0.37262687736E+03  0.00000000000E+00 0. -1.
         -2    1    3    3    0  502 -0.25674251256E+03 -0.12848778054E+03  0.18968685389E+03  0.34410308055E+03  0.00000000000E+00 0.  1.
         11    1    5    5    0    0  0.23880835898E+03  0.75258016890E+02  0.43498563022E+03  0.50190208201E+03  0.00000000000E+00 0.  1.
        -11    1    5    5    0    0  0.42729743126E+03  0.38282585673E+02  0.91804606098E+03  0.10133396376E+04  0.00000000000E+00 0. -1.
          3    1    6    6  503    0 -0.10444673329E+03  0.12486100590E+03  0.52525134611E+02  0.17105052076E+03  0.00000000000E+00 0. -1.
         -3    1    6    6    0  503 -0.67607771558E+02  0.45188041364E+00  0.30991556821E+02  0.74373997910E+02  0.00000000000E+00 0.  1.
<mgrwt>
<rscale>  0 0.15999361E+04</rscale>
<asrwt>0</asrwt>
<pdfrwt beam="1">  1        1 0.33606738E+00 0.15999361E+04</pdfrwt>
<pdfrwt beam="2">  1       -2 0.45070484E-01 0.15999361E+04</pdfrwt>
<totfact> 0.87883509E+00</totfact>
</mgrwt>
</event>
<event>
12    4  0.4413110E-008  0.1017168E+04  0.7818608E-02  0.9289913E-01
          1   -1    0    0  501    0  0.00000000000E+00  0.00000000000E+00  0.10469153220E+04  0.10469153220E+04  0.00000000000E+00 0. -1.
         -2   -1    0    0    0  501 -0.00000000000E+00 -0.00000000000E+00 -0.24706631387E+03  0.24706631387E+03  0.00000000000E+00 0.  1.
        -24    2    1    2    0    0  0.27550510142E+02 -0.70019693455E+02  0.10497833710E+03  0.15211017266E+03  0.80344665565E+02 0.  0.
        254    2    1    2    0    0 -0.27550510142E+02  0.70019693455E+02  0.69487067102E+03  0.11418714632E+04  0.90297475102E+03 0.  0.
         23    2    4    4    0    0 -0.31025260052E+03 -0.11737724298E+03  0.70990274488E+03  0.78962917156E+03  0.97561406766E+02 0.  0.
         23    2    4    4    0    0  0.28270209038E+03  0.18739693644E+03 -0.15032073852E+02  0.35224229166E+03  0.93864716984E+02 0.  0.
          3    1    3    3  502    0 -0.28789057971E+01 -0.68062960184E+02  0.10032019819E+03  0.12126416129E+03  0.00000000000E+00 0. -1.
         -4    1    3    3    0  502  0.30429415939E+02 -0.19567332706E+01  0.46581389138E+01  0.30846011373E+02  0.00000000000E+00 0.  1.
         11    1    5    5    0    0 -0.30972575298E+03 -0.11788756775E+03  0.64895451742E+03  0.72867653068E+03  0.00000000000E+00 0. -1.
        -11    1    5    5    0    0 -0.52684754911E+00  0.51032477023E+00  0.60948227456E+02  0.60952640876E+02  0.00000000000E+00 0.  1.
          3    1    6    6  503    0  0.21304187084E+03  0.15645239169E+03 -0.48949515739E+02  0.26881265723E+03  0.00000000000E+00 0. -1.
         -3    1    6    6    0  503  0.69660219543E+02  0.30944544752E+02  0.33917441888E+02  0.83429634429E+02  0.00000000000E+00 0.  1.
<mgrwt>
<rscale>  0 0.10171677E+04</rscale>
<asrwt>0</asrwt>
<pdfrwt beam="1">  1        1 0.16106389E+00 0.10171677E+04</pdfrwt>
<pdfrwt beam="2">  1       -2 0.38010203E-01 0.10171677E+04</pdfrwt>
<totfact> 0.79794813E+01</totfact>
</mgrwt>
</event>
<event>
12    4  0.4413110E-008  0.1667949E+04  0.7818608E-02  0.8779858E-01
          1   -1    0    0  501    0  0.00000000000E+00  0.00000000000E+00  0.45762623630E+04  0.45762623630E+04  0.00000000000E+00 0. -1.
         -2   -1    0    0    0  501 -0.00000000000E+00 -0.00000000000E+00 -0.15198290992E+03  0.15198290992E+03  0.00000000000E+00 0.  1.
        -24    2    1    2    0    0  0.13162198089E+03  0.34947705253E+03  0.24530049713E+04  0.24824711175E+04  0.77271625407E+02 0.  0.
        254    2    1    2    0    0 -0.13162198089E+03 -0.34947705253E+03  0.19712744818E+04  0.22457741554E+04  0.10090192854E+04 0.  0.
         23    2    4    4    0    0  0.43138637989E+03 -0.95775128349E+02  0.78922723524E+03  0.90897849563E+03  0.89973288806E+02 0.  0.
         23    2    4    4    0    0 -0.56300836078E+03 -0.25370192418E+03  0.11820472465E+04  0.13367956598E+04  0.91890490550E+02 0.  0.
          3    1    3    3  502    0  0.98017235834E+02  0.29879856623E+03  0.18644651984E+04  0.18907983599E+04  0.00000000000E+00 0. -1.
         -4    1    3    3    0  502  0.33604745057E+02  0.50678486299E+02  0.58853977286E+03  0.59167275761E+03  0.00000000000E+00 0.  1.
         11    1    5    5    0    0  0.38952644741E+03 -0.66653527163E+02  0.73523656218E+03  0.83471333300E+03  0.00000000000E+00 0.  1.
        -11    1    5    5    0    0  0.41859932477E+02 -0.29121601187E+02  0.53990673064E+02  0.74265162631E+02  0.00000000000E+00 0. -1.
          1    1    6    6  503    0 -0.13530616023E+03 -0.89159253184E+02  0.24569193897E+03  0.29431557604E+03  0.00000000000E+00 0. -1.
         -1    1    6    6    0  503 -0.42770220054E+03 -0.16454267099E+03  0.93635530758E+03  0.10424800837E+04  0.00000000000E+00 0.  1.
<mgrwt>
<rscale>  0 0.16679492E+04</rscale>
<asrwt>0</asrwt>
<pdfrwt beam="1">  1        1 0.70404026E+00 0.16679492E+04</pdfrwt>
<pdfrwt beam="2">  1       -2 0.23381990E-01 0.16679492E+04</pdfrwt>
<totfact> 0.37303936E-01</totfact>
</mgrwt>
</event>
<event>
12    4  0.4413110E-008  0.1410047E+04  0.7818608E-02  0.8946578E-01
         -2   -1    0    0    0  501 -0.00000000000E+00  0.00000000000E+00  0.12553708280E+04  0.12553708280E+04  0.00000000000E+00 0.  1.
          1   -1    0    0  501    0  0.00000000000E+00 -0.00000000000E+00 -0.39594535390E+03  0.39594535390E+03  0.00000000000E+00 0. -1.
        -24    2    1    2    0    0  0.28599609907E+02  0.27313445940E+03 -0.10925952064E+03  0.30589775424E+03  0.78837951556E+02 0.  0.
        254    2    1    2    0    0 -0.28599609907E+02 -0.27313445940E+03  0.96868499473E+03  0.13454184277E+04  0.89240111825E+03 0.  0.
         23    2    4    4    0    0  0.33739831738E+03 -0.40046842199E+03  0.61430934976E+03  0.81226125730E+03  0.90442198898E+02 0.  0.
         23    2    4    4    0    0 -0.36599792728E+03  0.12733396259E+03  0.35437564497E+03  0.53315717035E+03  0.92228248051E+02 0.  0.
          1    1    3    3  502    0  0.10051276958E+02  0.24280028582E+03 -0.11669169070E+03  0.26957365902E+03  0.00000000000E+00 0. -1.
         -2    1    3    3    0  502  0.18548332949E+02  0.30334173578E+02  0.74321700587E+01  0.36324095221E+02  0.00000000000E+00 0.  1.
         11    1    5    5    0    0  0.37214887620E+02 -0.64319009467E+02  0.47800143270E+02  0.88355738557E+02  0.00000000000E+00 0.  1.
        -11    1    5    5    0    0  0.30018342976E+03 -0.33614941252E+03  0.56650920649E+03  0.72390551875E+03  0.00000000000E+00 0. -1.
          1    1    6    6  503    0 -0.36375791280E+03  0.11586092383E+03  0.32438288731E+03  0.50096689549E+03  0.00000000000E+00 0. -1.
         -1    1    6    6    0  503 -0.22400144801E+01  0.11473038759E+02  0.29992757658E+02  0.32190274854E+02  0.00000000000E+00 0.  1.
<mgrwt>
<rscale>  0 0.14100472E+04</rscale>
<asrwt>0</asrwt>
<pdfrwt beam="1">  1        1 0.60914670E-01 0.14100472E+04</pdfrwt>
<pdfrwt beam="2">  1       -2 0.19313397E+00 0.14100472E+04</pdfrwt>
<totfact> 0.76395491E+00</totfact>
</mgrwt>
</event>
<event>
12    4  0.4413110E-008  0.3062246E+04  0.7818608E-02  0.8226176E-01
         -2   -1    0    0    0  501 -0.00000000000E+00  0.00000000000E+00  0.16334484519E+04  0.16334484519E+04  0.00000000000E+00 0.  1.
          1   -1    0    0  501    0  0.00000000000E+00 -0.00000000000E+00 -0.14352075346E+04  0.14352075346E+04  0.00000000000E+00 0. -1.
        -24    2    1    2    0    0 -0.56056203171E+02 -0.90960396129E+03  0.11547514754E+04  0.14731874189E+04  0.79426298791E+02 0.  0.
        254    2    1    2    0    0  0.56056203171E+02  0.90960396129E+03 -0.95651055819E+03  0.15954685676E+04  0.89447517459E+03 0.  0.
         23    2    4    4    0    0 -0.39127382996E+03  0.58590395088E+03 -0.45542087200E+03  0.84401651594E+03  0.92612411986E+02 0.  0.
         23    2    4    4    0    0  0.44733003313E+03  0.32370001040E+03 -0.50108968620E+03  0.75145205166E+03  0.93292320479E+02 0.  0.
          3    1    3    3  502    0  0.12831479371E+02 -0.46311786705E+02  0.48669912019E+02  0.68397286399E+02  0.00000000000E+00 0. -1.
         -4    1    3    3    0  502 -0.68887682542E+02 -0.86329217458E+03  0.11060815634E+04  0.14047901325E+04  0.00000000000E+00 0.  1.
         11    1    5    5    0    0 -0.16563545764E+03  0.19115504070E+03 -0.12629419889E+03  0.28271112303E+03  0.00000000000E+00 0.  1.
        -11    1    5    5    0    0 -0.22563837232E+03  0.39474891019E+03 -0.32912667311E+03  0.56130539291E+03  0.00000000000E+00 0. -1.
          1    1    6    6  503    0  0.44878500279E+03  0.30824563136E+03 -0.48822506240E+03  0.73129136432E+03  0.00000000000E+00 0. -1.
         -1    1    6    6    0  503 -0.14549696623E+01  0.15454379050E+02 -0.12864623801E+02  0.20160687342E+02  0.00000000000E+00 0.  1.
<mgrwt>
<rscale>  0 0.30622459E+04</rscale>
<asrwt>0</asrwt>
<pdfrwt beam="1">  1        1 0.22080116E+00 0.30622459E+04</pdfrwt>
<pdfrwt beam="2">  1       -2 0.25129976E+00 0.30622459E+04</pdfrwt>
<totfact> 0.34042251E-01</totfact>
</mgrwt>
</event>
<event>
12    4  0.4413110E-008  0.1201623E+04  0.7818608E-02  0.9111437E-01
         -4   -1    0    0    0  501 -0.00000000000E+00  0.00000000000E+00  0.38919110218E+03  0.38919110218E+03  0.00000000000E+00 0.  1.
          3   -1    0    0  501    0  0.00000000000E+00 -0.00000000000E+00 -0.92749955239E+03  0.92749955239E+03  0.00000000000E+00 0. -1.
        -24    2    1    2    0    0 -0.16505439757E+03  0.20767688102E+03 -0.14967940035E+03  0.31469252697E+03  0.79087436272E+02 0.  0.
        254    2    1    2    0    0  0.16505439757E+03 -0.20767688102E+03 -0.38862904986E+03  0.10019981276E+04  0.88464403476E+03 0.  0.
         23    2    4    4    0    0  0.49344431055E+03 -0.27374760020E+03 -0.29008517740E+03  0.64115174110E+03  0.92201457356E+02 0.  0.
         23    2    4    4    0    0 -0.32838991298E+03  0.66070719176E+02 -0.98543872460E+02  0.36084638649E+03  0.91071098406E+02 0.  0.
          3    1    3    3  502    0 -0.78030516899E+02  0.12555197971E+03 -0.12250701098E+03  0.19198965836E+03  0.00000000000E+00 0. -1.
         -4    1    3    3    0  502 -0.87023880669E+02  0.82124901309E+02 -0.27172389365E+02  0.12270286861E+03  0.00000000000E+00 0.  1.
         11    1    5    5    0    0  0.17365632606E+02  0.64023568047E+01 -0.16170371417E+02  0.24577149554E+02  0.00000000000E+00 0. -1.
        -11    1    5    5    0    0  0.47607867794E+03 -0.28014995700E+03 -0.27391480598E+03  0.61657459154E+03  0.00000000000E+00 0.  1.
          1    1    6    6  503    0 -0.11779091781E+03 -0.16024501758E+02 -0.53534810089E+02  0.13037431061E+03  0.00000000000E+00 0. -1.
         -1    1    6    6    0  503 -0.21059899517E+03  0.82095220933E+02 -0.45009062371E+02  0.23047207588E+03  0.00000000000E+00 0.  1.
<mgrwt>
<rscale>  0 0.12016232E+04</rscale>
<asrwt>0</asrwt>
<pdfrwt beam="1">  1        3 0.14269224E+00 0.12016232E+04</pdfrwt>
<pdfrwt beam="2">  1       -4 0.59875554E-01 0.12016232E+04</pdfrwt>
<totfact> 0.21878832E+00</totfact>
</mgrwt>
</event>
<event>
12    4  0.4413110E-008  0.1547600E+04  0.7818608E-02  0.8853402E-01
          1   -1    0    0  501    0  0.00000000000E+00  0.00000000000E+00  0.66748554167E+03  0.66748554167E+03  0.00000000000E+00 0. -1.
         -2   -1    0    0    0  501 -0.00000000000E+00 -0.00000000000E+00 -0.89704806783E+03  0.89704806783E+03  0.00000000000E+00 0.  1.
        -24    2    1    2    0    0  0.24311529219E+03  0.18783907482E+03  0.33251221423E+03  0.45964896975E+03  0.79525086909E+02 0.  0.
        254    2    1    2    0    0 -0.24311529219E+03 -0.18783907482E+03 -0.56207474040E+03  0.11048846398E+04  0.90025190366E+03 0.  0.
         23    2    4    4    0    0  0.25791381987E+03 -0.53901249469E+02  0.65175096191E+02  0.28636676447E+03  0.91286622557E+02 0.  0.
         23    2    4    4    0    0 -0.50102911205E+03 -0.13393782536E+03 -0.62724983659E+03  0.81851787529E+03  0.86946204468E+02 0.  0.
          1    1    3    3  502    0  0.20833665170E+03  0.13748403434E+03  0.30028813442E+03  0.39048557439E+03  0.00000000000E+00 0. -1.
         -2    1    3    3    0  502  0.34778640487E+02  0.50355040485E+02  0.32224079818E+02  0.69163395351E+02  0.00000000000E+00 0.  1.
         11    1    5    5    0    0  0.23059864514E+03 -0.76890075128E+02  0.54672047215E+02  0.24915226577E+03  0.00000000000E+00 0.  1.
        -11    1    5    5    0    0  0.27315174729E+02  0.22988825659E+02  0.10503048976E+02  0.37214498699E+02  0.00000000000E+00 0. -1.
          3    1    6    6  503    0 -0.54106598422E+02 -0.11456250151E+02 -0.11596985750E+03  0.12848259614E+03  0.00000000000E+00 0. -1.
         -3    1    6    6    0  503 -0.44692251363E+03 -0.12248157520E+03 -0.51127997909E+03  0.69003527915E+03  0.00000000000E+00 0.  1.
<mgrwt>
<rscale>  0 0.15476002E+04</rscale>
<asrwt>0</asrwt>
<pdfrwt beam="1">  1        1 0.10269008E+00 0.15476002E+04</pdfrwt>
<pdfrwt beam="2">  1       -2 0.13800739E+00 0.15476002E+04</pdfrwt>
<totfact> 0.92017936E+00</totfact>
</mgrwt>
</event>
<event>
12    4  0.4413110E-008  0.1695248E+04  0.7818608E-02  0.8764079E-01
          1   -1    0    0  501    0  0.00000000000E+00  0.00000000000E+00  0.46736261901E+03  0.46736261901E+03  0.00000000000E+00 0. -1.
         -2   -1    0    0    0  501 -0.00000000000E+00 -0.00000000000E+00 -0.15372791462E+04  0.15372791462E+04  0.00000000000E+00 0.  1.
        -24    2    1    2    0    0  0.59463523335E+03 -0.22929348349E+03 -0.39499214115E+03  0.75412352847E+03  0.80727580907E+02 0.  0.
        254    2    1    2    0    0 -0.59463523335E+03  0.22929348349E+03 -0.67492438601E+03  0.12505182367E+04  0.83791787854E+03 0.  0.
         23    2    4    4    0    0 -0.76798155096E+03  0.47965679406E+02 -0.57937479301E+03  0.96753686831E+03  0.91411551541E+02 0.  0.
         23    2    4    4    0    0  0.17334631761E+03  0.18132780408E+03 -0.95549593007E+02  0.28298136839E+03  0.89554518425E+02 0.  0.
          3    1    3    3  502    0  0.10114581654E+03 -0.50452636737E+02 -0.10586396697E+03  0.15486485805E+03  0.00000000000E+00 0. -1.
         -4    1    3    3    0  502  0.49348941681E+03 -0.17884084675E+03 -0.28912817418E+03  0.59925867042E+03  0.00000000000E+00 0.  1.
         11    1    5    5    0    0 -0.58825952645E+03  0.74711775877E+02 -0.45277461188E+03  0.74608040389E+03  0.00000000000E+00 0. -1.
        -11    1    5    5    0    0 -0.17972202451E+03 -0.26746096471E+02 -0.12660018113E+03  0.22145646441E+03  0.00000000000E+00 0.  1.
          4    1    6    6  503    0  0.16920555570E+01 -0.93325432448E+01 -0.61475636551E+01  0.11302741009E+02  0.00000000000E+00 0. -1.
         -4    1    6    6    0  503  0.17165426205E+03  0.19066034733E+03 -0.89402029352E+02  0.27167862738E+03  0.00000000000E+00 0.  1.
<mgrwt>
<rscale>  0 0.16952484E+04</rscale>
<asrwt>0</asrwt>
<pdfrwt beam="1">  1        1 0.71901940E-01 0.16952484E+04</pdfrwt>
<pdfrwt beam="2">  1       -2 0.23650449E+00 0.16952484E+04</pdfrwt>
<totfact> 0.31525940E+00</totfact>
</mgrwt>
</event>
<event>
12    4  0.4413110E-008  0.1538641E+04  0.7818608E-02  0.8859156E-01
         -2   -1    0    0    0  501 -0.00000000000E+00  0.00000000000E+00  0.43762003169E+03  0.43762003169E+03  0.00000000000E+00 0.  1.
          1   -1    0    0  501    0  0.00000000000E+00 -0.00000000000E+00 -0.13524376105E+04  0.13524376105E+04  0.00000000000E+00 0. -1.
        -24    2    1    2    0    0 -0.43797148346E+03 -0.49040800150E+02 -0.58587194002E+03  0.73734311658E+03  0.78771321353E+02 0.  0.
        254    2    1    2    0    0  0.43797148346E+03  0.49040800150E+02 -0.32894563880E+03  0.10527145256E+04  0.89765172463E+03 0.  0.
         23    2    4    4    0    0  0.27625889413E+03 -0.35224406927E+03  0.63573817424E+02  0.46136941710E+03  0.91789148890E+02 0.  0.
         23    2    4    4    0    0  0.16171258934E+03  0.40128486942E+03 -0.39251945622E+03  0.59134510851E+03  0.91853175627E+02 0.  0.
          1    1    3    3  502    0 -0.35062905440E+01  0.22304452574E+01  0.19517882000E+01  0.45911258535E+01  0.00000000000E+00 0. -1.
         -2    1    3    3    0  502 -0.43446519292E+03 -0.51271245407E+02 -0.58782372822E+03  0.73275199073E+03  0.00000000000E+00 0.  1.
         11    1    5    5    0    0  0.45944510673E+02 -0.12450477405E+03  0.26801164125E+02  0.13539069104E+03  0.00000000000E+00 0.  1.
        -11    1    5    5    0    0  0.23031438345E+03 -0.22773929522E+03  0.36772653299E+02  0.32597872606E+03  0.00000000000E+00 0. -1.
          1    1    6    6  503    0  0.50897870843E+02  0.21674671664E+03 -0.24105624597E+03  0.32814302697E+03  0.00000000000E+00 0. -1.
         -1    1    6    6    0  503  0.11081471849E+03  0.18453815277E+03 -0.15146321025E+03  0.26320208153E+03  0.00000000000E+00 0.  1.
<mgrwt>
<rscale>  0 0.15386407E+04</rscale>
<asrwt>0</asrwt>
<pdfrwt beam="1">  1        1 0.20806732E+00 0.15386407E+04</pdfrwt>
<pdfrwt beam="2">  1       -2 0.67326160E-01 0.15386407E+04</pdfrwt>
<totfact> 0.14208535E+01</totfact>
</mgrwt>
</event>
<event>
12    4  0.4413110E-008  0.2233268E+04  0.7818608E-02  0.8504707E-01
          1   -1    0    0  501    0  0.00000000000E+00  0.00000000000E+00  0.17416395747E+04  0.17416395747E+04  0.00000000000E+00 0. -1.
         -2   -1    0    0    0  501 -0.00000000000E+00 -0.00000000000E+00 -0.71591845389E+03  0.71591845389E+03  0.00000000000E+00 0.  1.
        -24    2    1    2    0    0 -0.43329165062E+03 -0.67418067386E+03 -0.12614064258E+03  0.81475208797E+03  0.75154957551E+02 0.  0.
        254    2    1    2    0    0  0.43329165062E+03  0.67418067386E+03  0.11518617634E+04  0.16428059407E+04  0.85426260664E+03 0.  0.
         23    2    4    4    0    0 -0.14242588918E+03  0.10951199171E+03 -0.35528271474E+02  0.20460005213E+03  0.91219038697E+02 0.  0.
         23    2    4    4    0    0  0.57571753979E+03  0.56466868215E+03  0.11873900349E+04  0.14382058885E+04  0.90772664296E+02 0.  0.
          1    1    3    3  502    0 -0.18963226810E+02 -0.61068404607E+02  0.85578651880E+00  0.63950655844E+02  0.00000000000E+00 0. -1.
         -2    1    3    3    0  502 -0.41432842381E+03 -0.61311226925E+03 -0.12699642910E+03  0.75080143213E+03  0.00000000000E+00 0.  1.
         11    1    5    5    0    0 -0.15479521042E+03  0.99046364683E+02 -0.25465752250E+02  0.18552693622E+03  0.00000000000E+00 0. -1.
        -11    1    5    5    0    0  0.12369321247E+02  0.10465627026E+02 -0.10062519224E+02  0.19073115904E+02  0.00000000000E+00 0.  1.
          3    1    6    6  503    0  0.28624237803E+03  0.25384323708E+03  0.63576690378E+03  0.74200447703E+03  0.00000000000E+00 0. -1.
         -3    1    6    6    0  503  0.28947516176E+03  0.31082544507E+03  0.55162313113E+03  0.69620141150E+03  0.00000000000E+00 0.  1.
<mgrwt>
<rscale>  0 0.22332684E+04</rscale>
<asrwt>0</asrwt>
<pdfrwt beam="1">  1        1 0.26794455E+00 0.22332684E+04</pdfrwt>
<pdfrwt beam="2">  1       -2 0.11014130E+00 0.22332684E+04</pdfrwt>
<totfact> 0.23344803E+00</totfact>
</mgrwt>
</event>
<event>
12    4  0.4413110E-008  0.1702458E+04  0.7818608E-02  0.8759964E-01
          1   -1    0    0  501    0  0.00000000000E+00  0.00000000000E+00  0.15927317358E+04  0.15927317358E+04  0.00000000000E+00 0. -1.
         -2   -1    0    0    0  501 -0.00000000000E+00 -0.00000000000E+00 -0.45493561964E+03  0.45493561964E+03  0.00000000000E+00 0.  1.
        -24    2    1    2    0    0 -0.86243023206E+02 -0.64364568055E+02  0.11323153874E+04  0.11398216755E+04  0.73990936993E+02 0.  0.
        254    2    1    2    0    0  0.86243023206E+02  0.64364568055E+02  0.54807287766E+01  0.90784567994E+03  0.90142835740E+03 0.  0.
         23    2    4    4    0    0  0.38714260066E+03  0.96144743855E+02 -0.26811569606E+03  0.48957923166E+03  0.93158964024E+02 0.  0.
         23    2    4    4    0    0 -0.30089957745E+03 -0.31780175799E+02  0.27359642484E+03  0.41826644829E+03  0.92419060754E+02 0.  0.
          1    1    3    3  502    0 -0.11858812622E+02 -0.53745967485E+02  0.52437273644E+03  0.52725328560E+03  0.00000000000E+00 0. -1.
         -2    1    3    3    0  502 -0.74384210584E+02 -0.10618600570E+02  0.60794265094E+03  0.61256838989E+03  0.00000000000E+00 0.  1.
         11    1    5    5    0    0  0.15733761762E+03  0.84917848765E+02 -0.13215255512E+03  0.22232963091E+03  0.00000000000E+00 0. -1.
        -11    1    5    5    0    0  0.22980498304E+03  0.11226895090E+02 -0.13596314095E+03  0.26724960074E+03  0.00000000000E+00 0.  1.
          2    1    6    6  503    0 -0.14328399719E+03  0.23902353260E+01  0.18578975934E+03  0.23463557222E+03  0.00000000000E+00 0. -1.
         -2    1    6    6    0  503 -0.15761558027E+03 -0.34170411125E+02  0.87806665503E+02  0.18363087607E+03  0.00000000000E+00 0.  1.
<mgrwt>
<rscale>  0 0.17024575E+04</rscale>
<asrwt>0</asrwt>
<pdfrwt beam="1">  1        1 0.24503565E+00 0.17024575E+04</pdfrwt>
<pdfrwt beam="2">  1       -2 0.69990096E-01 0.17024575E+04</pdfrwt>
<totfact> 0.87642059E+00</totfact>
</mgrwt>
</event>
<event>
12    4  0.4413110E-008  0.2315201E+04  0.7818608E-02  0.8471952E-01
          1   -1    0    0  501    0  0.00000000000E+00  0.00000000000E+00  0.19096607935E+04  0.19096607935E+04  0.00000000000E+00 0. -1.
         -2   -1    0    0    0  501 -0.00000000000E+00 -0.00000000000E+00 -0.70171558163E+03  0.70171558163E+03  0.00000000000E+00 0.  1.
        -24    2    1    2    0    0 -0.55833158411E+03 -0.46020016360E+03  0.12660780873E+04  0.14604582098E+04  0.80412133731E+02 0.  0.
        254    2    1    2    0    0  0.55833158411E+03  0.46020016360E+03 -0.58132875348E+02  0.11509181653E+04  0.89314883626E+03 0.  0.
         23    2    4    4    0    0 -0.65087024138E+02  0.47715484168E+03  0.10153461523E+03  0.50072452853E+03  0.92210149855E+02 0.  0.
         23    2    4    4    0    0  0.62341860825E+03 -0.16954678081E+02 -0.15966749058E+03  0.65019363680E+03  0.91213132672E+02 0.  0.
          3    1    3    3  502    0 -0.21361026184E+03 -0.13967616435E+03  0.39367064470E+03  0.46916452482E+03  0.00000000000E+00 0. -1.
         -4    1    3    3    0  502 -0.34472132227E+03 -0.32052399924E+03  0.87240744257E+03  0.99129368502E+03  0.00000000000E+00 0.  1.
         11    1    5    5    0    0 -0.57057303678E+02  0.38419647327E+03  0.11808458033E+03  0.40596358715E+03  0.00000000000E+00 0.  1.
        -11    1    5    5    0    0 -0.80297204597E+01  0.92958368403E+02 -0.16549965101E+02  0.94760941383E+02  0.00000000000E+00 0. -1.
          2    1    6    6  503    0  0.63722369384E+02 -0.62899196657E+01  0.10973431122E+02  0.64965526550E+02  0.00000000000E+00 0. -1.
         -2    1    6    6    0  503  0.55969623887E+03 -0.10664758416E+02 -0.17064092170E+03  0.58522811025E+03  0.00000000000E+00 0.  1.
<mgrwt>
<rscale>  0 0.23152008E+04</rscale>
<asrwt>0</asrwt>
<pdfrwt beam="1">  1        1 0.29379397E+00 0.23152008E+04</pdfrwt>
<pdfrwt beam="2">  1       -2 0.10795624E+00 0.23152008E+04</pdfrwt>
<totfact> 0.18710244E+00</totfact>
</mgrwt>
</event>
<event>
12    4  0.4413110E-008  0.1358361E+04  0.7818608E-02  0.8984523E-01
          1   -1    0    0  501    0  0.00000000000E+00  0.00000000000E+00  0.69449291376E+03  0.69449291376E+03  0.00000000000E+00 0. -1.
         -2   -1    0    0    0  501 -0.00000000000E+00 -0.00000000000E+00 -0.66420532309E+03  0.66420532309E+03  0.00000000000E+00 0.  1.
        -24    2    1    2    0    0  0.40847468131E+03  0.86233499872E+02  0.14151257708E+02  0.42562943483E+03  0.81684612539E+02 0.  0.
        254    2    1    2    0    0 -0.40847468131E+03 -0.86233499872E+02  0.16136332963E+02  0.93306880202E+03  0.83430763288E+03 0.  0.
         23    2    4    4    0    0  0.23399583725E+03 -0.65325798486E+02  0.10137786475E+03  0.27819016023E+03  0.89948774253E+02 0.  0.
         23    2    4    4    0    0 -0.64247051856E+03 -0.20907701386E+02 -0.85241531787E+02  0.65487864179E+03  0.91621053962E+02 0.  0.
          1    1    3    3  502    0  0.96080334874E+02  0.37918053195E+01  0.33851454615E+02  0.10193983283E+03  0.00000000000E+00 0. -1.
         -2    1    3    3    0  502  0.31239434643E+03  0.82441694553E+02 -0.19700196907E+02  0.32368960200E+03  0.00000000000E+00 0.  1.
         11    1    5    5    0    0  0.61854512394E+02 -0.24421642599E+01  0.67913763444E+02  0.91892459619E+02  0.00000000000E+00 0. -1.
        -11    1    5    5    0    0  0.17214132486E+03 -0.62883634226E+02  0.33464101306E+02  0.18629770061E+03  0.00000000000E+00 0.  1.
          3    1    6    6  503    0 -0.40764158736E+02 -0.24178260626E+02 -0.20480351881E+01  0.47439428458E+02  0.00000000000E+00 0. -1.
         -3    1    6    6    0  503 -0.60170635983E+03  0.32705592397E+01 -0.83193496599E+02  0.60743921333E+03  0.00000000000E+00 0.  1.
<mgrwt>
<rscale>  0 0.13583606E+04</rscale>
<asrwt>0</asrwt>
<pdfrwt beam="1">  1        1 0.10684506E+00 0.13583606E+04</pdfrwt>
<pdfrwt beam="2">  1       -2 0.10218543E+00 0.13583606E+04</pdfrwt>
<totfact> 0.18529167E+01</totfact>
</mgrwt>
</event>
<event>
12    4  0.4413110E-008  0.1417113E+04  0.7818608E-02  0.8941524E-01
         -2   -1    0    0    0  501 -0.00000000000E+00  0.00000000000E+00  0.14197637666E+04  0.14197637666E+04  0.00000000000E+00 0.  1.
          1   -1    0    0  501    0  0.00000000000E+00 -0.00000000000E+00 -0.35361687187E+03  0.35361687187E+03  0.00000000000E+00 0. -1.
        -24    2    1    2    0    0 -0.87213511966E+02  0.16769331608E+03 -0.13813875785E+03  0.24742697404E+03  0.80065886210E+02 0.  0.
        254    2    1    2    0    0  0.87213511966E+02 -0.16769331608E+03  0.12042856526E+04  0.15259536644E+04  0.91787984400E+03 0.  0.
         23    2    4    4    0    0 -0.44950072562E+02  0.26309692819E+03  0.96783568529E+03  0.10090932232E+04  0.10160077182E+03 0.  0.
         23    2    4    4    0    0  0.13216358453E+03 -0.43079024427E+03  0.23644996732E+03  0.51686044120E+03  0.90491331076E+02 0.  0.
          3    1    3    3  502    0 -0.23746923483E+02  0.12838824641E+03 -0.90686776168E+02  0.15897027886E+03  0.00000000000E+00 0. -1.
         -4    1    3    3    0  502 -0.63466588484E+02  0.39305069671E+02 -0.47451981686E+02  0.88456695176E+02  0.00000000000E+00 0.  1.
         11    1    5    5    0    0 -0.51587625538E+02  0.50801049815E+02  0.21464478018E+03  0.22652684484E+03  0.00000000000E+00 0.  1.
        -11    1    5    5    0    0  0.66375529754E+01  0.21229587838E+03  0.75319090510E+03  0.78256637841E+03  0.00000000000E+00 0. -1.
          2    1    6    6  503    0  0.80839548192E+02 -0.34313145243E+03  0.21539910660E+03  0.41312346983E+03  0.00000000000E+00 0. -1.
         -2    1    6    6    0  503  0.51324036337E+02 -0.87658791836E+02  0.21050860721E+02  0.10373697137E+03  0.00000000000E+00 0.  1.
<mgrwt>
<rscale>  0 0.14171132E+04</rscale>
<asrwt>0</asrwt>
<pdfrwt beam="1">  1        1 0.54402596E-01 0.14171132E+04</pdfrwt>
<pdfrwt beam="2">  1       -2 0.21842519E+00 0.14171132E+04</pdfrwt>
<totfact> 0.60758124E+00</totfact>
</mgrwt>
</event>
<event>
12    4  0.4413110E-008  0.3345345E+04  0.7818608E-02  0.8151452E-01
          1   -1    0    0  501    0  0.00000000000E+00  0.00000000000E+00  0.16316626216E+04  0.16316626216E+04  0.00000000000E+00 0. -1.
         -2   -1    0    0    0  501 -0.00000000000E+00 -0.00000000000E+00 -0.17147127655E+04  0.17147127655E+04  0.00000000000E+00 0.  1.
        -24    2    1    2    0    0 -0.13602678599E+04 -0.71050337054E+03  0.13822560815E+03  0.15429009908E+04  0.79331319275E+02 0.  0.
        254    2    1    2    0    0  0.13602678599E+04  0.71050337054E+03 -0.22127575201E+03  0.18034743963E+04  0.92109350735E+03 0.  0.
         23    2    4    4    0    0  0.36379392175E+03  0.68772282125E+03 -0.26777638366E+02  0.78387959482E+03  0.91877532026E+02 0.  0.
         23    2    4    4    0    0  0.99647393819E+03  0.22780549289E+02 -0.19449811365E+03  0.10195948015E+04  0.90910835680E+02 0.  0.
          1    1    3    3  502    0 -0.72639488540E+02 -0.57700642030E+02  0.15318949985E+02  0.94024090608E+02  0.00000000000E+00 0. -1.
         -2    1    3    3    0  502 -0.12876283714E+04 -0.65280272851E+03  0.12290665816E+03  0.14488769002E+04  0.00000000000E+00 0.  1.
         11    1    5    5    0    0  0.14648244311E+03  0.36379888075E+03  0.80304406150E+01  0.39226422186E+03  0.00000000000E+00 0.  1.
        -11    1    5    5    0    0  0.21731147865E+03  0.32392394050E+03 -0.34808078981E+02  0.39161537297E+03  0.00000000000E+00 0. -1.
          1    1    6    6  503    0  0.68927430345E+03  0.48839550876E+02 -0.16071870962E+03  0.70944687662E+03  0.00000000000E+00 0. -1.
         -1    1    6    6    0  503  0.30719963474E+03 -0.26059001587E+02 -0.33779404026E+02  0.31014792484E+03  0.00000000000E+00 0.  1.
<mgrwt>
<rscale>  0 0.33453447E+04</rscale>
<asrwt>0</asrwt>
<pdfrwt beam="1">  1        1 0.25102502E+00 0.33453447E+04</pdfrwt>
<pdfrwt beam="2">  1       -2 0.26380196E+00 0.33453447E+04</pdfrwt>
<totfact> 0.20381493E-01</totfact>
</mgrwt>
</event>
<event>
12    4  0.4413110E-008  0.1904773E+04  0.7818608E-02  0.8652484E-01
         -2   -1    0    0    0  501 -0.00000000000E+00  0.00000000000E+00  0.27311470886E+03  0.27311470886E+03  0.00000000000E+00 0.  1.
          1   -1    0    0  501    0  0.00000000000E+00 -0.00000000000E+00 -0.33210946413E+04  0.33210946413E+04  0.00000000000E+00 0. -1.
        -24    2    1    2    0    0 -0.49559969344E+03 -0.43422620157E+03 -0.55703688655E+03  0.86647988775E+03  0.79535228874E+02 0.  0.
        254    2    1    2    0    0  0.49559969344E+03  0.43422620157E+03 -0.24909430458E+04  0.27277294624E+04  0.89528727899E+03 0.  0.
         23    2    4    4    0    0  0.56423957392E+03  0.59772239202E+03 -0.14619563450E+04  0.16796730474E+04  0.91361023462E+02 0.  0.
         23    2    4    4    0    0 -0.68639880479E+02 -0.16349619045E+03 -0.10289867008E+04  0.10480564150E+04  0.90366924495E+02 0.  0.
          3    1    3    3  502    0 -0.18982131296E+02 -0.42325409128E+02 -0.32913254469E+02  0.56877446199E+02  0.00000000000E+00 0. -1.
         -4    1    3    3    0  502 -0.47661756215E+03 -0.39190079244E+03 -0.52412363208E+03  0.80960244155E+03  0.00000000000E+00 0.  1.
         11    1    5    5    0    0  0.42745336921E+03  0.39224370994E+03 -0.10333152062E+04  0.11850366350E+04  0.00000000000E+00 0.  1.
        -11    1    5    5    0    0  0.13678620471E+03  0.20547868209E+03 -0.42864113877E+03  0.49463641237E+03  0.00000000000E+00 0. -1.
          3    1    6    6  503    0 -0.68730501859E+02 -0.17461670413E+03 -0.95838011740E+03  0.97657940009E+03  0.00000000000E+00 0.  1.
         -3    1    6    6    0  503  0.90621380024E-01  0.11120513673E+02 -0.70606583431E+02  0.71477014910E+02  0.00000000000E+00 0. -1.
<mgrwt>
<rscale>  0 0.19047727E+04</rscale>
<asrwt>0</asrwt>
<pdfrwt beam="1">  1        1 0.51093764E+00 0.19047727E+04</pdfrwt>
<pdfrwt beam="2">  1       -2 0.42017647E-01 0.19047727E+04</pdfrwt>
<totfact> 0.15240040E+00</totfact>
</mgrwt>
</event>
<event>
12    4  0.4413110E-008  0.1935171E+04  0.7818608E-02  0.8637545E-01
         -2   -1    0    0    0  501 -0.00000000000E+00  0.00000000000E+00  0.83804108576E+03  0.83804108576E+03  0.00000000000E+00 0.  1.
          1   -1    0    0  501    0  0.00000000000E+00 -0.00000000000E+00 -0.11171551708E+04  0.11171551708E+04  0.00000000000E+00 0. -1.
        -24    2    1    2    0    0 -0.65596618136E+03 -0.29481735559E+03 -0.33780791843E+03  0.79856493400E+03  0.79892802029E+02 0.  0.
        254    2    1    2    0    0  0.65596618136E+03  0.29481735559E+03  0.58693833402E+02  0.11566313225E+04  0.90395915061E+03 0.  0.
         23    2    4    4    0    0 -0.28959789762E+02  0.26125876840E+03  0.31368019409E+03  0.41936299921E+03  0.91516378066E+02 0.  0.
         23    2    4    4    0    0  0.68492597112E+03  0.33558587186E+02 -0.25498636069E+03  0.73726832333E+03  0.91086616828E+02 0.  0.
          1    1    3    3  502    0 -0.56409557557E+03 -0.27793886654E+03 -0.30997665235E+03  0.70109867844E+03  0.00000000000E+00 0. -1.
         -2    1    3    3    0  502 -0.91870605791E+02 -0.16878489046E+02 -0.27831266084E+02  0.97466255559E+02  0.00000000000E+00 0.  1.
         11    1    5    5    0    0 -0.40106205345E+02  0.52768362321E+02  0.10499294032E+03  0.12416330088E+03  0.00000000000E+00 0.  1.
        -11    1    5    5    0    0  0.11146415583E+02  0.20849040608E+03  0.20868725378E+03  0.29519969834E+03  0.00000000000E+00 0. -1.
          2    1    6    6  503    0  0.37765971364E+03 -0.86021801899E+01 -0.17862457951E+03  0.41786073902E+03  0.00000000000E+00 0. -1.
         -2    1    6    6    0  503  0.30726625748E+03  0.42160767376E+02 -0.76361781182E+02  0.31940758431E+03  0.00000000000E+00 0.  1.
<mgrwt>
<rscale>  0 0.19351712E+04</rscale>
<asrwt>0</asrwt>
<pdfrwt beam="1">  1        1 0.17187002E+00 0.19351712E+04</pdfrwt>
<pdfrwt beam="2">  1       -2 0.12892940E+00 0.19351712E+04</pdfrwt>
<totfact> 0.44651642E+00</totfact>
</mgrwt>
</event>
<event>
12    4  0.4413110E-008  0.1209006E+04  0.7818608E-02  0.9105010E-01
         -2   -1    0    0    0  501 -0.00000000000E+00  0.00000000000E+00  0.49334352518E+03  0.49334352518E+03  0.00000000000E+00 0.  1.
          1   -1    0    0  501    0  0.00000000000E+00 -0.00000000000E+00 -0.74070843505E+03  0.74070843505E+03  0.00000000000E+00 0. -1.
        -24    2    1    2    0    0 -0.13864753216E+03  0.21606221476E+03 -0.69565662122E+02  0.27786298854E+03  0.80389304228E+02 0.  0.
        254    2    1    2    0    0  0.13864753216E+03 -0.21606221476E+03 -0.17779924775E+03  0.95618897170E+03  0.90375813041E+03 0.  0.
         23    2    4    4    0    0  0.17472536259E+03  0.29098032293E+03 -0.25546902364E+03  0.43449929210E+03  0.91250819880E+02 0.  0.
         23    2    4    4    0    0 -0.36077830437E+02 -0.50704253769E+03  0.77669775891E+02  0.52168967960E+03  0.87941928804E+02 0.  0.
          3    1    3    3  502    0 -0.91608517030E+02  0.19739883901E+03 -0.47985262930E+02  0.22284749829E+03  0.00000000000E+00 0. -1.
         -2    1    3    3    0  502 -0.47039015127E+02  0.18663375750E+02 -0.21580399192E+02  0.55015490253E+02  0.00000000000E+00 0.  1.
         11    1    5    5    0    0  0.16499162273E+03  0.19787652091E+03 -0.18063519213E+03  0.31465286545E+03  0.00000000000E+00 0. -1.
        -11    1    5    5    0    0  0.97337398610E+01  0.93103802018E+02 -0.74833831512E+02  0.11984642665E+03  0.00000000000E+00 0.  1.
          4    1    6    6  503    0 -0.53019332563E+02 -0.43940269482E+03  0.87840897674E+02  0.45122256276E+03  0.00000000000E+00 0. -1.
         -4    1    6    6    0  503  0.16941502125E+02 -0.67639842862E+02 -0.10171121784E+02  0.70467116835E+02  0.00000000000E+00 0.  1.
<mgrwt>
<rscale>  0 0.12090057E+04</rscale>
<asrwt>0</asrwt>
<pdfrwt beam="1">  1        1 0.11395514E+00 0.12090057E+04</pdfrwt>
<pdfrwt beam="2">  1       -2 0.75899004E-01 0.12090057E+04</pdfrwt>
<totfact> 0.33653710E+01</totfact>
</mgrwt>
</event>
<event>
12    4  0.4413110E-008  0.1622587E+04  0.7818608E-02  0.8806791E-01
         -2   -1    0    0    0  501 -0.00000000000E+00  0.00000000000E+00  0.10758502629E+04  0.10758502629E+04  0.00000000000E+00 0.  1.
          1   -1    0    0  501    0  0.00000000000E+00 -0.00000000000E+00 -0.61179242041E+03  0.61179242041E+03  0.00000000000E+00 0. -1.
        -24    2    1    2    0    0 -0.41613220021E+03  0.23082491483E+03 -0.13767639131E+03  0.50172037562E+03  0.79513503402E+02 0.  0.
        254    2    1    2    0    0  0.41613220021E+03 -0.23082491483E+03  0.60173423381E+03  0.11859223077E+04  0.90436800164E+03 0.  0.
         23    2    4    4    0    0  0.43651016822E+03  0.26354222576E+03  0.32013777296E+03  0.60931038256E+03  0.93676661428E+02 0.  0.
         23    2    4    4    0    0 -0.20377968005E+02 -0.49436714060E+03  0.28159646085E+03  0.57661192515E+03  0.91491060618E+02 0.  0.
          1    1    3    3  502    0 -0.37770423988E+03  0.19018512877E+03 -0.10081558741E+03  0.43473515925E+03  0.00000000000E+00 0. -1.
         -2    1    3    3    0  502 -0.38427960332E+02  0.40639786068E+02 -0.36860803900E+02  0.66985216361E+02  0.00000000000E+00 0.  1.
         11    1    5    5    0    0  0.36287141494E+03  0.23547705595E+03  0.30440567113E+03  0.52894982774E+03  0.00000000000E+00 0. -1.
        -11    1    5    5    0    0  0.73638753282E+02  0.28065169810E+02  0.15732101835E+02  0.80360554811E+02  0.00000000000E+00 0.  1.
          1    1    6    6  503    0 -0.37580730856E+01 -0.45416046807E+03  0.27900451600E+03  0.53302849250E+03  0.00000000000E+00 0. -1.
         -1    1    6    6    0  503 -0.16619894920E+02 -0.40206672529E+02  0.25919448531E+01  0.43583432645E+02  0.00000000000E+00 0.  1.
<mgrwt>
<rscale>  0 0.16225869E+04</rscale>
<asrwt>0</asrwt>
<pdfrwt beam="1">  1        1 0.94121911E-01 0.16225869E+04</pdfrwt>
<pdfrwt beam="2">  1       -2 0.16551542E+00 0.16225869E+04</pdfrwt>
<totfact> 0.64010764E+00</totfact>
</mgrwt>
</event>
<event>
12    4  0.4413110E-008  0.4210009E+04  0.7818608E-02  0.7963471E-01
          1   -1    0    0  501    0  0.00000000000E+00  0.00000000000E+00  0.29749368285E+04  0.29749368285E+04  0.00000000000E+00 0. -1.
         -2   -1    0    0    0  501 -0.00000000000E+00 -0.00000000000E+00 -0.14894585096E+04  0.14894585096E+04  0.00000000000E+00 0.  1.
        -24    2    1    2    0    0 -0.14466783970E+04 -0.13141842264E+04  0.21421979905E+03  0.19676388120E+04  0.75853852173E+02 0.  0.
        254    2    1    2    0    0  0.14466783970E+04  0.13141842264E+04  0.12712585199E+04  0.24967565261E+04  0.89316088186E+03 0.  0.
         23    2    4    4    0    0  0.99721828789E+03  0.93081711290E+03  0.37205041610E+03  0.14168914336E+04  0.91076950955E+02 0.  0.
         23    2    4    4    0    0  0.44946010913E+03  0.38336711353E+03  0.89920810380E+03  0.10798650926E+04  0.92459022005E+02 0.  0.
          3    1    3    3  502    0 -0.82364467133E+02 -0.55984222336E+02  0.17881751068E+01  0.99605904277E+02  0.00000000000E+00 0. -1.
         -4    1    3    3    0  502 -0.13643139299E+04 -0.12582000041E+04  0.21243162395E+03  0.18680329077E+04  0.00000000000E+00 0.  1.
         11    1    5    5    0    0  0.73724613267E+03  0.71320346796E+03  0.31542418802E+03  0.10731651621E+04  0.00000000000E+00 0. -1.
        -11    1    5    5    0    0  0.25997215522E+03  0.21761364494E+03  0.56626228081E+02  0.34372627142E+03  0.00000000000E+00 0.  1.
          4    1    6    6  503    0  0.89728571912E+02  0.32712798198E+02  0.15001197911E+03  0.17783401716E+03  0.00000000000E+00 0. -1.
         -4    1    6    6    0  503  0.35973153721E+03  0.35065431533E+03  0.74919612469E+03  0.90203107540E+03  0.00000000000E+00 0.  1.
<mgrwt>
<rscale>  0 0.42100095E+04</rscale>
<asrwt>0</asrwt>
<pdfrwt beam="1">  1        1 0.45768259E+00 0.42100095E+04</pdfrwt>
<pdfrwt beam="2">  1       -2 0.22914746E+00 0.42100095E+04</pdfrwt>
<totfact> 0.36538184E-02</totfact>
</mgrwt>
</event>
<event>
12    4  0.4413110E-008  0.1684841E+04  0.7818608E-02  0.8770057E-01
          1   -1    0    0  501    0  0.00000000000E+00  0.00000000000E+00  0.82209998141E+03  0.82209998141E+03  0.00000000000E+00 0. -1.
         -2   -1    0    0    0  501 -0.00000000000E+00 -0.00000000000E+00 -0.86324379625E+03  0.86324379625E+03  0.00000000000E+00 0.  1.
        -24    2    1    2    0    0 -0.21639491010E+03 -0.47903921509E+03  0.27282788807E+03  0.59766639402E+03  0.80403577844E+02 0.  0.
        254    2    1    2    0    0  0.21639491010E+03  0.47903921509E+03 -0.31397170291E+03  0.10876773836E+04  0.89897638118E+03 0.  0.
         23    2    4    4    0    0 -0.30909863177E+03  0.12508479524E+03  0.53611343876E+02  0.34963582229E+03  0.90459172412E+02 0.  0.
         23    2    4    4    0    0  0.52549354187E+03  0.35395441985E+03 -0.36758304679E+03  0.73804156134E+03  0.90337456814E+02 0.  0.
          3    1    3    3  502    0 -0.20622203303E+03 -0.45120605600E+03  0.23317900154E+03  0.54816683468E+03  0.00000000000E+00 0. -1.
         -4    1    3    3    0  502 -0.10172877066E+02 -0.27833159082E+02  0.39648886530E+02  0.49499559345E+02  0.00000000000E+00 0.  1.
         11    1    5    5    0    0 -0.19501428765E+03  0.59913082849E+02 -0.87551911487E+01  0.20419795115E+03  0.00000000000E+00 0. -1.
        -11    1    5    5    0    0 -0.11408434412E+03  0.65171712387E+02  0.62366535025E+02  0.14543787114E+03  0.00000000000E+00 0.  1.
          4    1    6    6  503    0  0.44646916112E+03  0.28839488108E+03 -0.34261881602E+03  0.63237170427E+03  0.00000000000E+00 0.  1.
         -4    1    6    6    0  503  0.79024380752E+02  0.65559538765E+02 -0.24964230763E+02  0.10566985707E+03  0.00000000000E+00 0. -1.
<mgrwt>
<rscale>  0 0.16848415E+04</rscale>
<asrwt>0</asrwt>
<pdfrwt beam="1">  1        1 0.12647692E+00 0.16848415E+04</pdfrwt>
<pdfrwt beam="2">  1       -2 0.13280674E+00 0.16848415E+04</pdfrwt>
<totfact> 0.72625552E+00</totfact>
</mgrwt>
</event>
<event>
12    4  0.4413110E-008  0.1798341E+04  0.7818608E-02  0.8707182E-01
          3   -1    0    0  501    0  0.00000000000E+00  0.00000000000E+00  0.11815502226E+04  0.11815502226E+04  0.00000000000E+00 0. -1.
         -4   -1    0    0    0  501 -0.00000000000E+00 -0.00000000000E+00 -0.68427664572E+03  0.68427664572E+03  0.00000000000E+00 0.  1.
        -24    2    1    2    0    0  0.28255266307E+03 -0.60810936202E+03  0.21400773655E+03  0.70824937713E+03  0.78643914724E+02 0.  0.
        254    2    1    2    0    0 -0.28255266307E+03  0.60810936202E+03  0.28326584032E+03  0.11575774912E+04  0.90006283569E+03 0.  0.
         23    2    4    4    0    0  0.22550283111E+03  0.52009000677E+03  0.26927252017E+03  0.63423317351E+03  0.91645437843E+02 0.  0.
         23    2    4    4    0    0 -0.50805549419E+03  0.88019355250E+02  0.13993320142E+02  0.52334431766E+03  0.88462815596E+02 0.  0.
          1    1    3    3  502    0  0.93913167233E+02 -0.29097524848E+03  0.10897501428E+03  0.32459487357E+03  0.00000000000E+00 0. -1.
         -2    1    3    3    0  502  0.18863949584E+03 -0.31713411353E+03  0.10503272227E+03  0.38365450356E+03  0.00000000000E+00 0.  1.
         11    1    5    5    0    0 -0.85335082109E+00  0.64747293569E+02  0.42516975943E+02  0.77463755883E+02  0.00000000000E+00 0.  1.
        -11    1    5    5    0    0  0.22635618194E+03  0.45534271320E+03  0.22675554423E+03  0.55676941763E+03  0.00000000000E+00 0. -1.
          2    1    6    6  503    0 -0.46500873103E+03  0.55619147926E+02  0.22180757498E+02  0.46884815831E+03  0.00000000000E+00 0. -1.
         -2    1    6    6    0  503 -0.43046763162E+02  0.32400207324E+02 -0.81874373560E+01  0.54496159350E+02  0.00000000000E+00 0.  1.
<mgrwt>
<rscale>  0 0.17983406E+04</rscale>
<asrwt>0</asrwt>
<pdfrwt beam="1">  1        3 0.18177696E+00 0.17983406E+04</pdfrwt>
<pdfrwt beam="2">  1       -4 0.10527333E+00 0.17983406E+04</pdfrwt>
<totfact> 0.30493594E-01</totfact>
</mgrwt>
</event>
<event>
12    4  0.4413110E-008  0.1546909E+04  0.7818608E-02  0.8853845E-01
         -2   -1    0    0    0  501 -0.00000000000E+00  0.00000000000E+00  0.11342549368E+04  0.11342549368E+04  0.00000000000E+00 0.  1.
          1   -1    0    0  501    0  0.00000000000E+00 -0.00000000000E+00 -0.52742245125E+03  0.52742245125E+03  0.00000000000E+00 0. -1.
        -24    2    1    2    0    0  0.10598830404E+03  0.19668619271E+03 -0.29042907263E+03  0.37500094321E+03  0.79735074988E+02 0.  0.
        254    2    1    2    0    0 -0.10598830404E+03 -0.19668619271E+03  0.89726155815E+03  0.12866764448E+04  0.89472844533E+03 0.  0.
         23    2    4    4    0    0 -0.24611745314E+03 -0.49062075505E+03  0.70305393147E+03  0.89645831313E+03  0.89834016950E+02 0.  0.
         23    2    4    4    0    0  0.14012914910E+03  0.29393456235E+03  0.19420762668E+03  0.39021813167E+03  0.92303210422E+02 0.  0.
          1    1    3    3  502    0  0.10394910877E+03  0.20203842155E+03 -0.29105456446E+03  0.36923935393E+03  0.00000000000E+00 0. -1.
         -2    1    3    3    0  502  0.20391952680E+01 -0.53522288446E+01  0.62549183321E+00  0.57615892755E+01  0.00000000000E+00 0.  1.
         11    1    5    5    0    0 -0.22313964425E+03 -0.38628013421E+03  0.60306557465E+03  0.75012780928E+03  0.00000000000E+00 0.  1.
        -11    1    5    5    0    0 -0.22977808886E+02 -0.10434062084E+03  0.99988356818E+02  0.14633050385E+03  0.00000000000E+00 0. -1.
          4    1    6    6  503    0  0.31231764366E+02  0.15681413050E+03  0.64979214199E+02  0.17259314270E+03  0.00000000000E+00 0. -1.
         -4    1    6    6    0  503  0.10889738473E+03  0.13712043185E+03  0.12922841248E+03  0.21762498897E+03  0.00000000000E+00 0.  1.
<mgrwt>
<rscale>  0 0.15469086E+04</rscale>
<asrwt>0</asrwt>
<pdfrwt beam="1">  1        1 0.81141916E-01 0.15469086E+04</pdfrwt>
<pdfrwt beam="2">  1       -2 0.17450076E+00 0.15469086E+04</pdfrwt>
<totfact> 0.68643929E+00</totfact>
</mgrwt>
</event>
<event>
12    4  0.4413110E-008  0.3533479E+04  0.7818608E-02  0.8105901E-01
         -2   -1    0    0    0  501 -0.00000000000E+00  0.00000000000E+00  0.14459530432E+04  0.14459530432E+04  0.00000000000E+00 0.  1.
          1   -1    0    0  501    0  0.00000000000E+00 -0.00000000000E+00 -0.21586923712E+04  0.21586923712E+04  0.00000000000E+00 0. -1.
        -24    2    1    2    0    0 -0.94859919951E+03 -0.76677876098E+03 -0.14666363540E+04  0.19093877723E+04  0.83362826222E+02 0.  0.
        254    2    1    2    0    0  0.94859919951E+03  0.76677876098E+03  0.75389702602E+03  0.16952576420E+04  0.90429399946E+03 0.  0.
         23    2    4    4    0    0  0.10557981248E+03  0.43811166993E+03  0.62611494142E+03  0.77678791461E+03  0.91052799391E+02 0.  0.
         23    2    4    4    0    0  0.84301938703E+03  0.32866709105E+03  0.12778208459E+03  0.91846972743E+03  0.92491272140E+02 0.  0.
          3    1    3    3  502    0 -0.88632148155E+03 -0.71388007587E+03 -0.13980849919E+04  0.18027290911E+04  0.00000000000E+00 0. -1.
         -2    1    3    3    0  502 -0.62277717961E+02 -0.52898685106E+02 -0.68551362093E+02  0.10665868125E+03  0.00000000000E+00 0.  1.
         11    1    5    5    0    0  0.92351815715E+02  0.40326109217E+03  0.52109341911E+03  0.66534706565E+03  0.00000000000E+00 0.  1.
        -11    1    5    5    0    0  0.13227996769E+02  0.34850577758E+02  0.10502152231E+03  0.11144084896E+03  0.00000000000E+00 0. -1.
          2    1    6    6  503    0  0.20256211651E+01  0.35070120681E+01  0.78901966377E+01  0.88689051034E+01  0.00000000000E+00 0. -1.
         -2    1    6    6    0  503  0.84099376586E+03  0.32516007898E+03  0.11989188795E+03  0.90960082233E+03  0.00000000000E+00 0.  1.
<mgrwt>
<rscale>  0 0.35334786E+04</rscale>
<asrwt>0</asrwt>
<pdfrwt beam="1">  1        1 0.33210652E+00 0.35334786E+04</pdfrwt>
<pdfrwt beam="2">  1       -2 0.22245431E+00 0.35334786E+04</pdfrwt>
<totfact> 0.15860960E-01</totfact>
</mgrwt>
</event>
<event>
12    4  0.4413110E-008  0.1337398E+04  0.7818608E-02  0.9000423E-01
          1   -1    0    0  501    0  0.00000000000E+00  0.00000000000E+00  0.23035075399E+04  0.23035075399E+04  0.00000000000E+00 0. -1.
         -2   -1    0    0    0  501 -0.00000000000E+00 -0.00000000000E+00 -0.19412050491E+03  0.19412050491E+03  0.00000000000E+00 0.  1.
        -24    2    1    2    0    0 -0.22043657931E+03  0.20313069256E+03  0.93180226846E+03  0.98209473349E+03  0.80001464237E+02 0.  0.
        254    2    1    2    0    0  0.22043657931E+03 -0.20313069256E+03  0.11775847665E+04  0.15155333113E+04  0.90569364116E+03 0.  0.
         23    2    4    4    0    0 -0.17808966764E+03 -0.41096453712E+03  0.37636339051E+03  0.59230786121E+03  0.92581965064E+02 0.  0.
         23    2    4    4    0    0  0.39852624695E+03  0.20783384456E+03  0.80122137602E+03  0.92322545011E+03  0.91495693325E+02 0.  0.
          1    1    3    3  502    0 -0.17561426698E+03  0.14094202635E+03  0.58316437779E+03  0.62512856045E+03  0.00000000000E+00 0. -1.
         -2    1    3    3    0  502 -0.44822312330E+02  0.62188666205E+02  0.34863789067E+03  0.35696617304E+03  0.00000000000E+00 0.  1.
         11    1    5    5    0    0 -0.86175892561E+02 -0.16412176683E+03  0.21297243364E+03  0.28234641187E+03  0.00000000000E+00 0.  1.
        -11    1    5    5    0    0 -0.91913775077E+02 -0.24684277029E+03  0.16339095686E+03  0.30996144934E+03  0.00000000000E+00 0. -1.
          4    1    6    6  503    0  0.36019175833E+03  0.17272390742E+03  0.75261989816E+03  0.85206124314E+03  0.00000000000E+00 0. -1.
         -4    1    6    6    0  503  0.38334488614E+02  0.35109937140E+02  0.48601477862E+02  0.71164206970E+02  0.00000000000E+00 0.  1.
<mgrwt>
<rscale>  0 0.13373975E+04</rscale>
<asrwt>0</asrwt>
<pdfrwt beam="1">  1        1 0.35438576E+00 0.13373975E+04</pdfrwt>
<pdfrwt beam="2">  1       -2 0.29864695E-01 0.13373975E+04</pdfrwt>
<totfact> 0.16510529E+01</totfact>
</mgrwt>
</event>
<event>
12    4  0.4413110E-008  0.1735834E+04  0.7818608E-02  0.8741187E-01
          1   -1    0    0  501    0  0.00000000000E+00  0.00000000000E+00  0.94778531813E+03  0.94778531813E+03  0.00000000000E+00 0. -1.
         -2   -1    0    0    0  501 -0.00000000000E+00 -0.00000000000E+00 -0.79477912785E+03  0.79477912785E+03  0.00000000000E+00 0.  1.
        -24    2    1    2    0    0 -0.53679456323E+03 -0.30156301446E+03  0.20381069854E+03  0.65412696113E+03  0.85174090169E+02 0.  0.
        254    2    1    2    0    0  0.53679456323E+03  0.30156301446E+03 -0.50804508263E+02  0.10884374848E+04  0.89611740611E+03 0.  0.
         23    2    4    4    0    0 -0.16438281998E+02  0.24708339062E+03 -0.35837953237E+03  0.44508925419E+03  0.91368134160E+02 0.  0.
         23    2    4    4    0    0  0.55323284523E+03  0.54479623845E+02  0.30757502410E+03  0.64334823065E+03  0.10129136180E+03 0.  0.
          1    1    3    3  502    0 -0.53272913703E+03 -0.28618016162E+03  0.19259090918E+03  0.63465792096E+03  0.00000000000E+00 0. -1.
         -2    1    3    3    0  502 -0.40654262037E+01 -0.15382852846E+02  0.11219789363E+02  0.19469040172E+02  0.00000000000E+00 0.  1.
         11    1    5    5    0    0 -0.13951230157E+02  0.25481773341E+03 -0.35190950412E+03  0.43470336227E+03  0.00000000000E+00 0.  1.
        -11    1    5    5    0    0 -0.24870518412E+01 -0.77343427934E+01 -0.64700282485E+01  0.10385891914E+02  0.00000000000E+00 0. -1.
          2    1    6    6  503    0  0.29549594854E+03 -0.13268775895E+02  0.12992228413E+03  0.32306921229E+03  0.00000000000E+00 0. -1.
         -2    1    6    6    0  503  0.25773689669E+03  0.67748399740E+02  0.17765273997E+03  0.32027901836E+03  0.00000000000E+00 0.  1.
<mgrwt>
<rscale>  0 0.17358341E+04</rscale>
<asrwt>0</asrwt>
<pdfrwt beam="1">  1        1 0.14581312E+00 0.17358341E+04</pdfrwt>
<pdfrwt beam="2">  1       -2 0.12227371E+00 0.17358341E+04</pdfrwt>
<totfact> 0.70121805E+00</totfact>
</mgrwt>
</event>
<event>
12    4  0.4413110E-008  0.1385635E+04  0.7818608E-02  0.8964282E-01
         -2   -1    0    0    0  501 -0.00000000000E+00  0.00000000000E+00  0.34255990787E+03  0.34255990787E+03  0.00000000000E+00 0.  1.
          1   -1    0    0  501    0  0.00000000000E+00 -0.00000000000E+00 -0.14012043100E+04  0.14012043100E+04  0.00000000000E+00 0. -1.
        -24    2    1    2    0    0  0.26402359364E+03  0.93343922436E+02  0.39245646429E+02  0.29413747904E+03  0.80963510029E+02 0.  0.
        254    2    1    2    0    0 -0.26402359364E+03 -0.93343922436E+02 -0.10978900485E+04  0.14496267388E+04  0.90423093143E+03 0.  0.
         23    2    4    4    0    0 -0.33928012791E+03  0.33504847342E+03 -0.43857033999E+03  0.65451190172E+03  0.93131099189E+02 0.  0.
         23    2    4    4    0    0  0.75256534270E+02 -0.42839239586E+03 -0.65931970855E+03  0.79511483710E+03  0.91222449622E+02 0.  0.
          3    1    3    3  502    0  0.11234958401E+03  0.64253186337E+02  0.51317468627E+02  0.13922781176E+03  0.00000000000E+00 0. -1.
         -4    1    3    3    0  502  0.15167400963E+03  0.29090736098E+02 -0.12071822198E+02  0.15490966728E+03  0.00000000000E+00 0.  1.
         11    1    5    5    0    0 -0.23222152695E+03  0.27046172382E+03 -0.36115446325E+03  0.50745337516E+03  0.00000000000E+00 0. -1.
        -11    1    5    5    0    0 -0.10705860096E+03  0.64586749599E+02 -0.77415876737E+02  0.14705852656E+03  0.00000000000E+00 0.  1.
          2    1    6    6  503    0  0.26897976396E+02 -0.35355386444E+03 -0.50790391282E+03  0.61942733299E+03  0.00000000000E+00 0. -1.
         -2    1    6    6    0  503  0.48358557874E+02 -0.74838531414E+02 -0.15141579573E+03  0.17568750411E+03  0.00000000000E+00 0.  1.
<mgrwt>
<rscale>  0 0.13856355E+04</rscale>
<asrwt>0</asrwt>
<pdfrwt beam="1">  1        1 0.21556989E+00 0.13856355E+04</pdfrwt>
<pdfrwt beam="2">  1       -2 0.52701525E-01 0.13856355E+04</pdfrwt>
<totfact> 0.22303921E+01</totfact>
</mgrwt>
</event>
<event>
12    4  0.4413110E-008  0.2050286E+04  0.7818608E-02  0.8583465E-01
          1   -1    0    0  501    0  0.00000000000E+00  0.00000000000E+00  0.93136859196E+03  0.93136859196E+03  0.00000000000E+00 0. -1.
         -2   -1    0    0    0  501 -0.00000000000E+00 -0.00000000000E+00 -0.11283589535E+04  0.11283589535E+04  0.00000000000E+00 0.  1.
        -24    2    1    2    0    0 -0.80648865886E+03  0.80461874058E+02  0.92052972597E+02  0.81963637233E+03  0.80199520177E+02 0.  0.
        254    2    1    2    0    0  0.80648865886E+03 -0.80461874058E+02 -0.28904333416E+03  0.12400911731E+04  0.89296248446E+03 0.  0.
         23    2    4    4    0    0  0.16961437112E+02 -0.23030917665E+03  0.17894898081E+03  0.30577442103E+03  0.90251047765E+02 0.  0.
         23    2    4    4    0    0  0.78952722175E+03  0.14984730259E+03 -0.46799231497E+03  0.93431675212E+03  0.90130674256E+02 0.  0.
          1    1    3    3  502    0 -0.16101869366E+03 -0.31813370378E+01 -0.73749749960E+01  0.16121889117E+03  0.00000000000E+00 0. -1.
         -2    1    3    3    0  502 -0.64546996520E+03  0.83643211096E+02  0.99427947593E+02  0.65841748117E+03  0.00000000000E+00 0.  1.
         11    1    5    5    0    0  0.91242815214E+01 -0.58311800371E+02  0.22533497439E+01  0.59064339163E+02  0.00000000000E+00 0.  1.
        -11    1    5    5    0    0  0.78371555901E+01 -0.17199737628E+03  0.17669563107E+03  0.24671008186E+03  0.00000000000E+00 0. -1.
          2    1    6    6  503    0  0.76197020332E+03  0.13125337504E+03 -0.43355292974E+03  0.88645032692E+03  0.00000000000E+00 0. -1.
         -2    1    6    6    0  503  0.27557018429E+02  0.18593927551E+02 -0.34439385230E+02  0.47866425201E+02  0.00000000000E+00 0.  1.
<mgrwt>
<rscale>  0 0.20502859E+04</rscale>
<asrwt>0</asrwt>
<pdfrwt beam="1">  1        1 0.14328748E+00 0.20502859E+04</pdfrwt>
<pdfrwt beam="2">  1       -2 0.17359368E+00 0.20502859E+04</pdfrwt>
<totfact> 0.27913513E+00</totfact>
</mgrwt>
</event>
<event>
12    4  0.4413110E-008  0.1952177E+04  0.7818608E-02  0.8629312E-01
         -2   -1    0    0    0  501 -0.00000000000E+00  0.00000000000E+00  0.15207708104E+04  0.15207708104E+04  0.00000000000E+00 0.  1.
          1   -1    0    0  501    0  0.00000000000E+00 -0.00000000000E+00 -0.62649075729E+03  0.62649075729E+03  0.00000000000E+00 0. -1.
        -24    2    1    2    0    0  0.45125170723E+03  0.44643729294E+03  0.83237211529E+03  0.10497521578E+04  0.78752108778E+02 0.  0.
        254    2    1    2    0    0 -0.45125170723E+03 -0.44643729294E+03  0.61907937805E+02  0.10975094099E+04  0.89317408844E+03 0.  0.
         23    2    4    4    0    0  0.10387212819E+03 -0.87215295049E+02  0.33790164765E+03  0.37519719401E+03  0.90551003324E+02 0.  0.
         23    2    4    4    0    0 -0.55512383541E+03 -0.35922199789E+03 -0.27599370984E+03  0.72231221590E+03  0.91430262781E+02 0.  0.
          1    1    3    3  502    0  0.15873994761E+03  0.10644360716E+03  0.25073958263E+03  0.31527599142E+03  0.00000000000E+00 0. -1.
         -2    1    3    3    0  502  0.29251175962E+03  0.33999368578E+03  0.58163253266E+03  0.73447616635E+03  0.00000000000E+00 0.  1.
         11    1    5    5    0    0  0.10915977395E+03 -0.52544076941E+02  0.30010496777E+03  0.32363517724E+03  0.00000000000E+00 0. -1.
        -11    1    5    5    0    0 -0.52876457625E+01 -0.34671218108E+02  0.37796679881E+02  0.51562016765E+02  0.00000000000E+00 0.  1.
          4    1    6    6  503    0 -0.50358802874E+03 -0.35221022399E+03 -0.26454302371E+03  0.66905601855E+03  0.00000000000E+00 0. -1.
         -4    1    6    6    0  503 -0.51535806673E+02 -0.70117739031E+01 -0.11450686137E+02  0.53256197345E+02  0.00000000000E+00 0.  1.
<mgrwt>
<rscale>  0 0.19521771E+04</rscale>
<asrwt>0</asrwt>
<pdfrwt beam="1">  1        1 0.96383194E-01 0.19521771E+04</pdfrwt>
<pdfrwt beam="2">  1       -2 0.23396474E+00 0.19521771E+04</pdfrwt>
<totfact> 0.21174332E+00</totfact>
</mgrwt>
</event>
<event>
12    4  0.4413110E-008  0.2261315E+04  0.7818608E-02  0.8493332E-01
          1   -1    0    0  501    0  0.00000000000E+00  0.00000000000E+00  0.28382515014E+04  0.28382515014E+04  0.00000000000E+00 0. -1.
         -2   -1    0    0    0  501 -0.00000000000E+00 -0.00000000000E+00 -0.45041318403E+03  0.45041318403E+03  0.00000000000E+00 0.  1.
        -24    2    1    2    0    0 -0.76759640318E+03  0.55961214018E+03  0.10063589900E+04  0.13862025083E+04  0.80180993887E+02 0.  0.
        254    2    1    2    0    0  0.76759640318E+03 -0.55961214018E+03  0.13814793274E+04  0.19024621771E+04  0.89917029406E+03 0.  0.
         23    2    4    4    0    0 -0.12940882120E+03  0.73492857533E+02  0.36373986324E+03  0.40258577077E+03  0.87297030901E+02 0.  0.
         23    2    4    4    0    0  0.89700522438E+03 -0.63310499771E+03  0.10177394642E+04  0.14998764064E+04  0.91625906363E+02 0.  0.
          3    1    3    3  502    0 -0.61130752434E+03  0.46317638808E+03  0.76894975943E+03  0.10860538607E+04  0.00000000000E+00 0. -1.
         -4    1    3    3    0  502 -0.15628887884E+03  0.96435752099E+02  0.23740923054E+03  0.30014864764E+03  0.00000000000E+00 0.  1.
         11    1    5    5    0    0 -0.11708972356E+03  0.53241773721E+02  0.20447903403E+03  0.24157062153E+03  0.00000000000E+00 0.  1.
        -11    1    5    5    0    0 -0.12319097646E+02  0.20251083811E+02  0.15926082921E+03  0.16101514924E+03  0.00000000000E+00 0. -1.
          3    1    6    6  503    0  0.17112186565E+03 -0.15814338405E+03  0.24560479716E+03  0.33854650967E+03  0.00000000000E+00 0. -1.
         -3    1    6    6    0  503  0.72588335873E+03 -0.47496161366E+03  0.77213466703E+03  0.11613298967E+04  0.00000000000E+00 0.  1.
<mgrwt>
<rscale>  0 0.22613146E+04</rscale>
<asrwt>0</asrwt>
<pdfrwt beam="1">  1        1 0.43665407E+00 0.22613146E+04</pdfrwt>
<pdfrwt beam="2">  1       -2 0.69294338E-01 0.22613146E+04</pdfrwt>
<totfact> 0.11858614E+00</totfact>
</mgrwt>
</event>
<event>
12    4  0.4413110E-008  0.2017830E+04  0.7818608E-02  0.8598330E-01
          1   -1    0    0  501    0  0.00000000000E+00  0.00000000000E+00  0.60499988248E+03  0.60499988248E+03  0.00000000000E+00 0. -1.
         -2   -1    0    0    0  501 -0.00000000000E+00 -0.00000000000E+00 -0.16824956395E+04  0.16824956395E+04  0.00000000000E+00 0.  1.
        -24    2    1    2    0    0 -0.70205527846E+03 -0.29970700786E+03 -0.51059791350E+03  0.92189062636E+03  0.80412642796E+02 0.  0.
        254    2    1    2    0    0  0.70205527846E+03  0.29970700786E+03 -0.56689784350E+03  0.13656048956E+04  0.98020286743E+03 0.  0.
         23    2    4    4    0    0  0.65079612570E+03  0.66331807018E+01  0.66017179825E+02  0.66040446563E+03  0.90532833152E+02 0.  0.
         23    2    4    4    0    0  0.51259152762E+02  0.29307382716E+03 -0.63291502333E+03  0.70520042996E+03  0.90589462727E+02 0.  0.
          1    1    3    3  502    0 -0.92027558650E+01 -0.10436408755E+02 -0.22212489249E+02  0.26210761566E+02  0.00000000000E+00 0. -1.
         -2    1    3    3    0  502 -0.69285252260E+03 -0.28927059911E+03 -0.48838542425E+03  0.89567986480E+03  0.00000000000E+00 0.  1.
         11    1    5    5    0    0  0.12823669617E+03  0.31671856117E+02  0.33303822119E+02  0.13622371777E+03  0.00000000000E+00 0. -1.
        -11    1    5    5    0    0  0.52255942953E+03 -0.25038675415E+02  0.32713357707E+02  0.52418074786E+03  0.00000000000E+00 0.  1.
          2    1    6    6  503    0  0.44111556361E+02  0.61768746645E+02 -0.11319760840E+03  0.13628978690E+03  0.00000000000E+00 0. -1.
         -2    1    6    6    0  503  0.71475964007E+01  0.23130508051E+03 -0.51971741493E+03  0.56891064306E+03  0.00000000000E+00 0.  1.
<mgrwt>
<rscale>  0 0.20178302E+04</rscale>
<asrwt>0</asrwt>
<pdfrwt beam="1">  1        1 0.93076906E-01 0.20178302E+04</pdfrwt>
<pdfrwt beam="2">  1       -2 0.25884548E+00 0.20178302E+04</pdfrwt>
<totfact> 0.15564607E+00</totfact>
</mgrwt>
</event>
<event>
12    4  0.4413110E-008  0.1268339E+04  0.7818608E-02  0.9055056E-01
         -4   -1    0    0    0  501 -0.00000000000E+00  0.00000000000E+00  0.24674041367E+03  0.24674041367E+03  0.00000000000E+00 0.  1.
          3   -1    0    0  501    0  0.00000000000E+00 -0.00000000000E+00 -0.16299353845E+04  0.16299353845E+04  0.00000000000E+00 0. -1.
        -24    2    1    2    0    0 -0.89460869132E+02  0.72839013414E+02 -0.73540613860E+03  0.74949010670E+03  0.87203568595E+02 0.  0.
        254    2    1    2    0    0  0.89460869132E+02 -0.72839013414E+02 -0.64778883224E+03  0.11271856915E+04  0.91520950766E+03 0.  0.
         23    2    4    4    0    0 -0.26704982757E+03  0.12138376863E+03 -0.64179364001E+03  0.71154460007E+03  0.91361982464E+02 0.  0.
         23    2    4    4    0    0  0.35651069670E+03 -0.19422278204E+03 -0.59951922333E+01  0.41564109141E+03  0.88877492126E+02 0.  0.
          1    1    3    3  502    0 -0.63496297684E+02 -0.31747924787E+01 -0.28841866356E+03  0.29534248699E+03  0.00000000000E+00 0. -1.
         -2    1    3    3    0  502 -0.25964571447E+02  0.76013805892E+02 -0.44698747503E+03  0.45414761972E+03  0.00000000000E+00 0.  1.
         11    1    5    5    0    0 -0.20947316096E+03  0.54149636974E+02 -0.41334607164E+03  0.46654706438E+03  0.00000000000E+00 0. -1.
        -11    1    5    5    0    0 -0.57576666614E+02  0.67234131653E+02 -0.22844756837E+03  0.24499753569E+03  0.00000000000E+00 0.  1.
          3    1    6    6  503    0  0.24193837119E+03 -0.84484202434E+02 -0.15287600455E+02  0.25672060034E+03  0.00000000000E+00 0. -1.
         -3    1    6    6    0  503  0.11457232552E+03 -0.10973857961E+03  0.92924082219E+01  0.15892049106E+03  0.00000000000E+00 0.  1.
<mgrwt>
<rscale>  0 0.12683390E+04</rscale>
<asrwt>0</asrwt>
<pdfrwt beam="1">  1        3 0.25075929E+00 0.12683390E+04</pdfrwt>
<pdfrwt beam="2">  1       -4 0.37960064E-01 0.12683390E+04</pdfrwt>
<totfact> 0.11199604E+00</totfact>
</mgrwt>
</event>
<event>
12    4  0.4413110E-008  0.2449076E+04  0.7818608E-02  0.8421355E-01
          1   -1    0    0  501    0  0.00000000000E+00  0.00000000000E+00  0.80552692017E+03  0.80552692017E+03  0.00000000000E+00 0. -1.
         -2   -1    0    0    0  501 -0.00000000000E+00 -0.00000000000E+00 -0.18615063243E+04  0.18615063243E+04  0.00000000000E+00 0.  1.
        -24    2    1    2    0    0  0.77359861054E+02  0.16788116607E+03 -0.15922998850E+04  0.16050788828E+04  0.81796467788E+02 0.  0.
        254    2    1    2    0    0 -0.77359861054E+02 -0.16788116607E+03  0.53632048092E+03  0.10619543616E+04  0.89774092806E+03 0.  0.
         23    2    4    4    0    0  0.14396224678E+03 -0.48795164189E+03  0.33132535781E+03  0.61330430625E+03  0.86854740878E+02 0.  0.
         23    2    4    4    0    0 -0.22132210783E+03  0.32007047583E+03  0.20499512311E+03  0.44865005539E+03  0.88517155329E+02 0.  0.
          3    1    3    3  502    0  0.38599187666E+02  0.15509632045E+03 -0.11826906376E+04  0.11934412052E+04  0.00000000000E+00 0. -1.
         -4    1    3    3    0  502  0.38760673387E+02  0.12784845620E+02 -0.40960924741E+03  0.41163767763E+03  0.00000000000E+00 0.  1.
         11    1    5    5    0    0  0.36996238110E+02 -0.97639648790E+02  0.11148342109E+03  0.15274415153E+03  0.00000000000E+00 0. -1.
        -11    1    5    5    0    0  0.10696600867E+03 -0.39031199310E+03  0.21984193672E+03  0.46056015472E+03  0.00000000000E+00 0.  1.
          1    1    6    6  503    0 -0.41873291994E+02  0.23971132709E+02  0.49431088212E+02  0.69075467914E+02  0.00000000000E+00 0. -1.
         -1    1    6    6    0  503 -0.17944881584E+03  0.29609934312E+03  0.15556403490E+03  0.37957458747E+03  0.00000000000E+00 0.  1.
<mgrwt>
<rscale>  0 0.24490761E+04</rscale>
<asrwt>0</asrwt>
<pdfrwt beam="1">  1        1 0.12392722E+00 0.24490761E+04</pdfrwt>
<pdfrwt beam="2">  1       -2 0.28638559E+00 0.24490761E+04</pdfrwt>
<totfact> 0.65861252E-01</totfact>
</mgrwt>
</event>
<event>
12    4  0.4413110E-008  0.1234389E+04  0.7818608E-02  0.9083278E-01
          1   -1    0    0  501    0  0.00000000000E+00  0.00000000000E+00  0.68386304088E+03  0.68386304088E+03  0.00000000000E+00 0. -1.
         -2   -1    0    0    0  501 -0.00000000000E+00 -0.00000000000E+00 -0.55702507247E+03  0.55702507247E+03  0.00000000000E+00 0.  1.
        -24    2    1    2    0    0  0.86189691594E+02  0.13185626560E+03  0.26653098327E+03  0.31950689410E+03  0.78937650209E+02 0.  0.
        254    2    1    2    0    0 -0.86189691594E+02 -0.13185626560E+03 -0.13969301486E+03  0.92138121925E+03  0.89700305187E+03 0.  0.
         23    2    4    4    0    0 -0.28943428420E+03  0.29719143445E+03 -0.46012909570E+02  0.42746593984E+03  0.92276694202E+02 0.  0.
         23    2    4    4    0    0  0.20324459260E+03 -0.42904770005E+03 -0.93680105294E+02  0.49391527941E+03  0.98924454823E+02 0.  0.
          1    1    3    3  502    0  0.64060423072E+02  0.13417819768E+03  0.25302555850E+03  0.29347821007E+03  0.00000000000E+00 0. -1.
         -2    1    3    3    0  502  0.22129268522E+02 -0.23219320773E+01  0.13505424775E+02  0.26028684028E+02  0.00000000000E+00 0.  1.
         11    1    5    5    0    0 -0.56699382548E+02  0.22505116243E+02 -0.27640366794E+02  0.66972308568E+02  0.00000000000E+00 0.  1.
        -11    1    5    5    0    0 -0.23273490165E+03  0.27468631821E+03 -0.18372542776E+02  0.36049363127E+03  0.00000000000E+00 0. -1.
          2    1    6    6  503    0  0.13813913664E+02 -0.12683559859E+03 -0.36355807489E+02  0.13266438112E+03  0.00000000000E+00 0.  1.
         -2    1    6    6    0  503  0.18943067894E+03 -0.30221210146E+03 -0.57324297806E+02  0.36125089829E+03  0.00000000000E+00 0. -1.
<mgrwt>
<rscale>  0 0.12343887E+04</rscale>
<asrwt>0</asrwt>
<pdfrwt beam="1">  1        1 0.10520970E+00 0.12343887E+04</pdfrwt>
<pdfrwt beam="2">  1       -2 0.85696165E-01 0.12343887E+04</pdfrwt>
<totfact> 0.28865080E+01</totfact>
</mgrwt>
</event>
<event>
12    4  0.4413110E-008  0.1429665E+04  0.7818608E-02  0.8932621E-01
         -2   -1    0    0    0  501 -0.00000000000E+00  0.00000000000E+00  0.22896512625E+03  0.22896512625E+03  0.00000000000E+00 0.  1.
          1   -1    0    0  501    0  0.00000000000E+00 -0.00000000000E+00 -0.22317171833E+04  0.22317171833E+04  0.00000000000E+00 0. -1.
        -24    2    1    2    0    0 -0.29461337659E+03 -0.22679384692E+03 -0.94045466249E+03  0.10146355547E+04  0.82449050317E+02 0.  0.
        254    2    1    2    0    0  0.29461337659E+03  0.22679384692E+03 -0.10622973946E+04  0.14460467549E+04  0.90793335229E+03 0.  0.
         23    2    4    4    0    0 -0.25313595735E+03  0.11085187194E+03 -0.63180136235E+02  0.29722422516E+03  0.89356365132E+02 0.  0.
         23    2    4    4    0    0  0.54774933394E+03  0.11594197498E+03 -0.99911725834E+03  0.11488225298E+04  0.89922380707E+02 0.  0.
          1    1    3    3  502    0 -0.21314826961E+03 -0.18487684181E+03 -0.78530233757E+03  0.83445275053E+03  0.00000000000E+00 0. -1.
         -2    1    3    3    0  502 -0.81465106985E+02 -0.41917005111E+02 -0.15515232492E+03  0.18018280412E+03  0.00000000000E+00 0.  1.
         11    1    5    5    0    0 -0.26356444611E+02  0.34635486932E+02 -0.35920350573E+02  0.56431823582E+02  0.00000000000E+00 0.  1.
        -11    1    5    5    0    0 -0.22677951274E+03  0.76216385009E+02 -0.27259785662E+02  0.24079240158E+03  0.00000000000E+00 0. -1.
          1    1    6    6  503    0  0.50532021635E+03  0.10156075391E+03 -0.95876748906E+03  0.10885302963E+04  0.00000000000E+00 0. -1.
         -1    1    6    6    0  503  0.42429117592E+02  0.14381221067E+02 -0.40349769288E+02  0.60292233501E+02  0.00000000000E+00 0.  1.
<mgrwt>
<rscale>  0 0.14296649E+04</rscale>
<asrwt>0</asrwt>
<pdfrwt beam="1">  1        1 0.34334111E+00 0.14296649E+04</pdfrwt>
<pdfrwt beam="2">  1       -2 0.35225404E-01 0.14296649E+04</pdfrwt>
<totfact> 0.13418411E+01</totfact>
</mgrwt>
</event>
<event>
12    4  0.4413110E-008  0.1346523E+04  0.7818608E-02  0.8993464E-01
         -4   -1    0    0    0  501 -0.00000000000E+00  0.00000000000E+00  0.14041450776E+04  0.14041450776E+04  0.00000000000E+00 0.  1.
          3   -1    0    0  501    0  0.00000000000E+00 -0.00000000000E+00 -0.32281645450E+03  0.32281645450E+03  0.00000000000E+00 0. -1.
        -24    2    1    2    0    0  0.13308486973E+03 -0.33195655874E+03  0.36145181968E+03  0.51538972676E+03  0.84097639986E+02 0.  0.
        254    2    1    2    0    0 -0.13308486973E+03  0.33195655874E+03  0.71987680343E+03  0.12115718054E+04  0.90651910514E+03 0.  0.
         23    2    4    4    0    0  0.11022283036E+03  0.43721273227E+03  0.79714078091E+03  0.92050338299E+03  0.92676900663E+02 0.  0.
         23    2    4    4    0    0 -0.24330770010E+03 -0.10525617353E+03 -0.77263977474E+02  0.29106842237E+03  0.92052187889E+02 0.  0.
          3    1    3    3  502    0  0.12917030440E+03 -0.29750153569E+03  0.28628513952E+03  0.43260988475E+03  0.00000000000E+00 0. -1.
         -4    1    3    3    0  502  0.39145653309E+01 -0.34455023052E+02  0.75166680164E+02  0.82779842003E+02  0.00000000000E+00 0.  1.
         11    1    5    5    0    0 -0.65289891973E+01  0.13758577727E+03  0.26765463643E+03  0.30101740516E+03  0.00000000000E+00 0. -1.
        -11    1    5    5    0    0  0.11675181956E+03  0.29962695500E+03  0.52948614448E+03  0.61948597783E+03  0.00000000000E+00 0.  1.
          1    1    6    6  503    0 -0.27953123772E+02  0.14858464849E+02  0.28723592557E+01  0.31786814153E+02  0.00000000000E+00 0. -1.
         -1    1    6    6    0  503 -0.21535457632E+03 -0.12011463838E+03 -0.80136336730E+02  0.25928160822E+03  0.00000000000E+00 0.  1.
<mgrwt>
<rscale>  0 0.13465231E+04</rscale>
<asrwt>0</asrwt>
<pdfrwt beam="1">  1        3 0.49664071E-01 0.13465231E+04</pdfrwt>
<pdfrwt beam="2">  1       -4 0.21602232E+00 0.13465231E+04</pdfrwt>
<totfact> 0.93090406E-01</totfact>
</mgrwt>
</event>
<event>
12    4  0.4413110E-008  0.2242949E+04  0.7818608E-02  0.8500762E-01
          3   -1    0    0  501    0  0.00000000000E+00  0.00000000000E+00  0.12181173740E+04  0.12181173740E+04  0.00000000000E+00 0. -1.
         -4   -1    0    0    0  501 -0.00000000000E+00 -0.00000000000E+00 -0.10324988403E+04  0.10324988403E+04  0.00000000000E+00 0.  1.
        -24    2    1    2    0    0  0.40249606837E+03  0.82081051791E+03  0.29888381479E+03  0.96509597887E+03  0.79660042239E+02 0.  0.
        254    2    1    2    0    0 -0.40249606837E+03 -0.82081051791E+03 -0.11326528110E+03  0.12855202354E+04  0.89666061609E+03 0.  0.
         23    2    4    4    0    0 -0.66933733034E+03 -0.44145667282E+03 -0.50608969918E+02  0.80870107533E+03  0.92410527712E+02 0.  0.
         23    2    4    4    0    0  0.26684126198E+03 -0.37935384510E+03 -0.62656311180E+02  0.47681916011E+03  0.91198131758E+02 0.  0.
          1    1    3    3  502    0  0.29612299154E+03  0.57211493362E+03  0.17479501283E+03  0.66750102614E+03  0.00000000000E+00 0. -1.
         -2    1    3    3    0  502  0.10637307682E+03  0.24869558429E+03  0.12408880196E+03  0.29759495273E+03  0.00000000000E+00 0.  1.
         11    1    5    5    0    0 -0.66067174956E+03 -0.44585887936E+03 -0.52611177271E+02  0.79877733878E+03  0.00000000000E+00 0. -1.
        -11    1    5    5    0    0 -0.86655807796E+01  0.44022065455E+01  0.20022073526E+01  0.99237365443E+01  0.00000000000E+00 0.  1.
          1    1    6    6  503    0  0.22335294850E+03 -0.30459868275E+03 -0.14857726036E+02  0.37800482689E+03  0.00000000000E+00 0. -1.
         -1    1    6    6    0  503  0.43488313481E+02 -0.74755162349E+02 -0.47798585144E+02  0.98814333217E+02  0.00000000000E+00 0.  1.
<mgrwt>
<rscale>  0 0.22429488E+04</rscale>
<asrwt>0</asrwt>
<pdfrwt beam="1">  1        3 0.18740267E+00 0.22429488E+04</pdfrwt>
<pdfrwt beam="2">  1       -4 0.15884598E+00 0.22429488E+04</pdfrwt>
<totfact> 0.94256976E-02</totfact>
</mgrwt>
</event>
<event>
12    4  0.4413110E-008  0.2751375E+04  0.7818608E-02  0.8318526E-01
         -2   -1    0    0    0  501 -0.00000000000E+00  0.00000000000E+00  0.18747733556E+04  0.18747733556E+04  0.00000000000E+00 0.  1.
          1   -1    0    0  501    0  0.00000000000E+00 -0.00000000000E+00 -0.10094637343E+04  0.10094637343E+04  0.00000000000E+00 0. -1.
        -24    2    1    2    0    0 -0.49638535660E+03 -0.20081107031E+03 -0.76608066763E+03  0.93799589303E+03  0.78950603632E+02 0.  0.
        254    2    1    2    0    0  0.49638535660E+03  0.20081107031E+03  0.16313902889E+04  0.19462411968E+04  0.91634983121E+03 0.  0.
         23    2    4    4    0    0  0.53972456727E+03  0.33789634646E+03  0.16549206938E+04  0.17752819612E+04  0.85947597925E+02 0.  0.
         23    2    4    4    0    0 -0.43339210665E+02 -0.13708527616E+03 -0.23530404846E+02  0.17095923562E+03  0.89457924037E+02 0.  0.
          3    1    3    3  502    0 -0.37491728232E+03 -0.12726592605E+03 -0.51577925264E+03  0.65022136382E+03  0.00000000000E+00 0. -1.
         -4    1    3    3    0  502 -0.12146807428E+03 -0.73545144260E+02 -0.25030141500E+03  0.28777452921E+03  0.00000000000E+00 0.  1.
         11    1    5    5    0    0  0.18136240011E+03  0.98313657468E+02  0.43498570237E+03  0.48142544250E+03  0.00000000000E+00 0. -1.
        -11    1    5    5    0    0  0.35836216716E+03  0.23958268899E+03  0.12199349914E+04  0.12938565187E+04  0.00000000000E+00 0.  1.
          4    1    6    6  503    0 -0.36573284954E+02 -0.44323896531E+02  0.28759921043E+02  0.64259987818E+02  0.00000000000E+00 0. -1.
         -4    1    6    6    0  503 -0.67659257105E+01 -0.92761379624E+02 -0.52290325889E+02  0.10669924780E+03  0.00000000000E+00 0.  1.
<mgrwt>
<rscale>  0 0.27513747E+04</rscale>
<asrwt>0</asrwt>
<pdfrwt beam="1">  1        1 0.15530211E+00 0.27513747E+04</pdfrwt>
<pdfrwt beam="2">  1       -2 0.28842667E+00 0.27513747E+04</pdfrwt>
<totfact> 0.42440648E-01</totfact>
</mgrwt>
</event>
<event>
12    4  0.4413110E-008  0.1383474E+04  0.7818608E-02  0.8965868E-01
         -2   -1    0    0    0  501 -0.00000000000E+00  0.00000000000E+00  0.56785194147E+03  0.56785194147E+03  0.00000000000E+00 0.  1.
          1   -1    0    0  501    0  0.00000000000E+00 -0.00000000000E+00 -0.84264981206E+03  0.84264981206E+03  0.00000000000E+00 0. -1.
        -24    2    1    2    0    0  0.23683506963E+03 -0.28863083094E+03  0.54840203281E+02  0.38570054426E+03  0.79742430154E+02 0.  0.
        254    2    1    2    0    0 -0.23683506963E+03  0.28863083094E+03 -0.32963807387E+03  0.10248012093E+04  0.89563254296E+03 0.  0.
         23    2    4    4    0    0  0.27578646125E+03  0.30359814753E+03 -0.26019280647E+02  0.42145643255E+03  0.93372984208E+02 0.  0.
         23    2    4    4    0    0 -0.51262153088E+03 -0.14967316594E+02 -0.30361879322E+03  0.60334477672E+03  0.93998369758E+02 0.  0.
          3    1    3    3  502    0  0.26201578562E+01 -0.64007655893E+01 -0.11085219297E+02  0.13065875944E+02  0.00000000000E+00 0. -1.
         -4    1    3    3    0  502  0.23421491178E+03 -0.28223006535E+03  0.65925422578E+02  0.37263466831E+03  0.00000000000E+00 0.  1.
         11    1    5    5    0    0  0.47883262751E+02  0.46423795362E+02  0.30287398399E+02  0.73248222703E+02  0.00000000000E+00 0. -1.
        -11    1    5    5    0    0  0.22790319849E+03  0.25717435217E+03 -0.56306679045E+02  0.34820820985E+03  0.00000000000E+00 0.  1.
          2    1    6    6  503    0 -0.39218323019E+03  0.27861757981E+02 -0.23898624307E+03  0.46010693102E+03  0.00000000000E+00 0.  1.
         -2    1    6    6    0  503 -0.12043830069E+03 -0.42829074574E+02 -0.64632550148E+02  0.14323784570E+03  0.00000000000E+00 0. -1.
<mgrwt>
<rscale>  0 0.13834744E+04</rscale>
<asrwt>0</asrwt>
<pdfrwt beam="1">  1        1 0.12963843E+00 0.13834744E+04</pdfrwt>
<pdfrwt beam="2">  1       -2 0.87361838E-01 0.13834744E+04</pdfrwt>
<totfact> 0.19671764E+01</totfact>
</mgrwt>
</event>
<event>
12    4  0.4413110E-008  0.1169242E+04  0.7818608E-02  0.9140214E-01
          1   -1    0    0  501    0  0.00000000000E+00  0.00000000000E+00  0.22141003873E+04  0.22141003873E+04  0.00000000000E+00 0. -1.
         -2   -1    0    0    0  501 -0.00000000000E+00 -0.00000000000E+00 -0.15436582096E+03  0.15436582096E+03  0.00000000000E+00 0.  1.
        -24    2    1    2    0    0  0.11557510671E+03 -0.18389174256E+01  0.80083359570E+03  0.81305452085E+03  0.79763519041E+02 0.  0.
        254    2    1    2    0    0 -0.11557510671E+03  0.18389174256E+01  0.12589009707E+04  0.15554116874E+04  0.90615278876E+03 0.  0.
         23    2    4    4    0    0 -0.16217122376E+03  0.22096114399E+03  0.12810394238E+04  0.13123989389E+04  0.78775863004E+02 0.  0.
         23    2    4    4    0    0  0.46596117054E+02 -0.21912222657E+03 -0.22138453121E+02  0.24301274853E+03  0.91538716063E+02 0.  0.
          1    1    3    3  502    0  0.65596364728E+02 -0.32533056830E+02  0.57848109154E+03  0.58309660959E+03  0.00000000000E+00 0. -1.
         -2    1    3    3    0  502  0.49978741983E+02  0.30694139404E+02  0.22235250416E+03  0.22995791126E+03  0.00000000000E+00 0.  1.
         11    1    5    5    0    0 -0.21717462707E+02  0.18403237979E-01  0.66284939679E+02  0.69752001787E+02  0.00000000000E+00 0.  1.
        -11    1    5    5    0    0 -0.14045376106E+03  0.22094274076E+03  0.12147544841E+04  0.12426469371E+04  0.00000000000E+00 0. -1.
          4    1    6    6  503    0  0.61145541700E+02 -0.90103550215E+02 -0.29968463660E+02  0.11294040838E+03  0.00000000000E+00 0.  1.
         -4    1    6    6    0  503 -0.14549424646E+02 -0.12901867635E+03  0.78300105388E+01  0.13007234014E+03  0.00000000000E+00 0. -1.
<mgrwt>
<rscale>  0 0.11692415E+04</rscale>
<asrwt>0</asrwt>
<pdfrwt beam="1">  1        1 0.34063081E+00 0.11692415E+04</pdfrwt>
<pdfrwt beam="2">  1       -2 0.23748589E-01 0.11692415E+04</pdfrwt>
<totfact> 0.29324380E+01</totfact>
</mgrwt>
</event>
<event>
12    4  0.4413110E-008  0.2314907E+04  0.7818608E-02  0.8472066E-01
          1   -1    0    0  501    0  0.00000000000E+00  0.00000000000E+00  0.12425238035E+04  0.12425238035E+04  0.00000000000E+00 0. -1.
         -2   -1    0    0    0  501 -0.00000000000E+00 -0.00000000000E+00 -0.10782080486E+04  0.10782080486E+04  0.00000000000E+00 0.  1.
        -24    2    1    2    0    0  0.87779443696E+03 -0.42869389090E+03  0.87576426017E+02  0.98395931413E+03  0.78770399331E+02 0.  0.
        254    2    1    2    0    0 -0.87779443696E+03  0.42869389090E+03  0.76739328918E+02  0.13367725380E+04  0.90926913946E+03 0.  0.
         23    2    4    4    0    0 -0.73635980727E+03 -0.11136416170E+03 -0.67427892096E+02  0.75305694523E+03  0.88997190147E+02 0.  0.
         23    2    4    4    0    0 -0.14143462969E+03  0.54005805260E+03  0.14416722101E+03  0.58371559272E+03  0.90957412647E+02 0.  0.
          1    1    3    3  502    0  0.31203686828E+03 -0.16057122531E+03 -0.56940414069E+01  0.35097371365E+03  0.00000000000E+00 0. -1.
         -2    1    3    3    0  502  0.56575756868E+03 -0.26812266559E+03  0.93270467424E+02  0.63298560048E+03  0.00000000000E+00 0.  1.
         11    1    5    5    0    0 -0.61275509418E+03 -0.11574593711E+03 -0.80154882762E+02  0.62872150642E+03  0.00000000000E+00 0. -1.
        -11    1    5    5    0    0 -0.12360471309E+03  0.43817754049E+01  0.12726990666E+02  0.12433543881E+03  0.00000000000E+00 0.  1.
          4    1    6    6  503    0 -0.73545001243E+02  0.31024009379E+03  0.12787860863E+03  0.34352688620E+03  0.00000000000E+00 0. -1.
         -4    1    6    6    0  503 -0.67889628448E+02  0.22981795882E+03  0.16288612385E+02  0.24018870652E+03  0.00000000000E+00 0.  1.
<mgrwt>
<rscale>  0 0.23149075E+04</rscale>
<asrwt>0</asrwt>
<pdfrwt beam="1">  1        1 0.19115751E+00 0.23149075E+04</pdfrwt>
<pdfrwt beam="2">  1       -2 0.16587816E+00 0.23149075E+04</pdfrwt>
<totfact> 0.17981539E+00</totfact>
</mgrwt>
</event>
<event>
12    4  0.4413110E-008  0.2147705E+04  0.7818608E-02  0.8540515E-01
          1   -1    0    0  501    0  0.00000000000E+00  0.00000000000E+00  0.10540157341E+04  0.10540157341E+04  0.00000000000E+00 0. -1.
         -2   -1    0    0    0  501 -0.00000000000E+00 -0.00000000000E+00 -0.10940627632E+04  0.10940627632E+04  0.00000000000E+00 0.  1.
        -24    2    1    2    0    0  0.17442342860E+03  0.72924410314E+02 -0.87833268969E+03  0.90205888649E+03  0.80625175080E+02 0.  0.
        254    2    1    2    0    0 -0.17442342860E+03 -0.72924410314E+02  0.83828566060E+03  0.12460196108E+04  0.90227519070E+03 0.  0.
         23    2    4    4    0    0 -0.31851907083E+03 -0.41038811797E+03  0.37507407539E+03  0.64760895198E+03  0.94042473351E+02 0.  0.
         23    2    4    4    0    0  0.14409564223E+03  0.33746370766E+03  0.46321158521E+03  0.59841065886E+03  0.94260468192E+02 0.  0.
          3    1    3    3  502    0  0.34447347892E+02  0.96704468760E+01 -0.35075070591E+03  0.35257083687E+03  0.00000000000E+00 0. -1.
         -4    1    3    3    0  502  0.13997608070E+03  0.63253963438E+02 -0.52758198378E+03  0.54948804961E+03  0.00000000000E+00 0.  1.
         11    1    5    5    0    0 -0.21373353808E+03 -0.28511131796E+03  0.30820563181E+03  0.47112758400E+03  0.00000000000E+00 0. -1.
        -11    1    5    5    0    0 -0.10478553275E+03 -0.12527680001E+03  0.66868443583E+02  0.17648136797E+03  0.00000000000E+00 0.  1.
          1    1    6    6  503    0  0.11880866387E+02  0.12857804778E+03  0.12718563119E+03  0.18124473548E+03  0.00000000000E+00 0. -1.
         -1    1    6    6    0  503  0.13221477584E+03  0.20888565988E+03  0.33602595402E+03  0.41716592338E+03  0.00000000000E+00 0.  1.
<mgrwt>
<rscale>  0 0.21477052E+04</rscale>
<asrwt>0</asrwt>
<pdfrwt beam="1">  1        1 0.16215627E+00 0.21477052E+04</pdfrwt>
<pdfrwt beam="2">  1       -2 0.16831735E+00 0.21477052E+04</pdfrwt>
<totfact> 0.24179300E+00</totfact>
</mgrwt>
</event>
<event>
12    4  0.4413110E-008  0.1874930E+04  0.7818608E-02  0.8667437E-01
          1   -1    0    0  501    0  0.00000000000E+00  0.00000000000E+00  0.78512787462E+03  0.78512787462E+03  0.00000000000E+00 0. -1.
         -2   -1    0    0    0  501 -0.00000000000E+00 -0.00000000000E+00 -0.11193602649E+04  0.11193602649E+04  0.00000000000E+00 0.  1.
        -24    2    1    2    0    0  0.67517756594E+03 -0.24304224259E+03 -0.10380000175E+03  0.72834570280E+03  0.69128468775E+02 0.  0.
        254    2    1    2    0    0 -0.67517756594E+03  0.24304224259E+03 -0.23043238856E+03  0.11761424367E+04  0.90292727757E+03 0.  0.
         23    2    4    4    0    0  0.13002365578E+03 -0.46045484302E+02  0.16185822753E+03  0.23040378470E+03  0.88664990257E+02 0.  0.
         23    2    4    4    0    0 -0.80520122172E+03  0.28908772689E+03 -0.39229061609E+03  0.94573865204E+03  0.92784423245E+02 0.  0.
          3    1    3    3  502    0  0.57874629767E+03 -0.18160646034E+03 -0.87910583598E+02  0.61290819396E+03  0.00000000000E+00 0. -1.
         -4    1    3    3    0  502  0.96431268267E+02 -0.61435782242E+02 -0.15889418148E+02  0.11543750884E+03  0.00000000000E+00 0.  1.
         11    1    5    5    0    0  0.22374260466E+02 -0.46718523078E+02  0.28858217877E+02  0.59296076337E+02  0.00000000000E+00 0.  1.
        -11    1    5    5    0    0  0.10764939531E+03  0.67303877643E+00  0.13300000966E+03  0.17110770836E+03  0.00000000000E+00 0. -1.
          2    1    6    6  503    0 -0.77132310222E+03  0.27174210436E+03 -0.39375792056E+03  0.90764993214E+03  0.00000000000E+00 0. -1.
         -2    1    6    6    0  503 -0.33878119494E+02  0.17345622528E+02  0.14673044709E+01  0.38088719902E+02  0.00000000000E+00 0.  1.
<mgrwt>
<rscale>  0 0.18749303E+04</rscale>
<asrwt>0</asrwt>
<pdfrwt beam="1">  1        1 0.12078890E+00 0.18749303E+04</pdfrwt>
<pdfrwt beam="2">  1       -2 0.17220927E+00 0.18749303E+04</pdfrwt>
<totfact> 0.38454822E+00</totfact>
</mgrwt>
</event>
<event>
12    4  0.4413110E-008  0.1307014E+04  0.7818608E-02  0.9024021E-01
         -2   -1    0    0    0  501 -0.00000000000E+00  0.00000000000E+00  0.12805730678E+03  0.12805730678E+03  0.00000000000E+00 0.  1.
          1   -1    0    0  501    0  0.00000000000E+00 -0.00000000000E+00 -0.33350043535E+04  0.33350043535E+04  0.00000000000E+00 0. -1.
        -24    2    1    2    0    0  0.26263983491E+03 -0.11503580507E+03 -0.40642975497E+03  0.50355277435E+03  0.78532359593E+02 0.  0.
        254    2    1    2    0    0 -0.26263983491E+03  0.11503580507E+03 -0.28005172917E+04  0.29595088859E+04  0.91300757125E+03 0.  0.
         23    2    4    4    0    0 -0.54535970080E+03 -0.54371591700E+02 -0.21924905628E+04  0.22618806357E+04  0.93357747161E+02 0.  0.
         23    2    4    4    0    0  0.28271986589E+03  0.16940739677E+03 -0.60802672893E+03  0.69762825020E+03  0.91429118678E+02 0.  0.
          1    1    3    3  502    0  0.69596786353E+02  0.52679806940E+01 -0.92367793213E+02  0.11577250759E+03  0.00000000000E+00 0. -1.
         -2    1    3    3    0  502  0.19304304856E+03 -0.12030378577E+03 -0.31406196175E+03  0.38778026676E+03  0.00000000000E+00 0.  1.
         11    1    5    5    0    0 -0.43105866504E+03 -0.76002327979E+02 -0.16511138100E+04  0.17081465804E+04  0.00000000000E+00 0. -1.
        -11    1    5    5    0    0 -0.11430103576E+03  0.21630736280E+02 -0.54137675275E+03  0.55373405525E+03  0.00000000000E+00 0.  1.
          1    1    6    6  503    0  0.19030730082E+03  0.15865971503E+03 -0.46742025851E+03  0.52902880072E+03  0.00000000000E+00 0. -1.
         -1    1    6    6    0  503  0.92412565068E+02  0.10747681747E+02 -0.14060647042E+03  0.16859944949E+03  0.00000000000E+00 0.  1.
<mgrwt>
<rscale>  0 0.13070144E+04</rscale>
<asrwt>0</asrwt>
<pdfrwt beam="1">  1        1 0.51307755E+00 0.13070144E+04</pdfrwt>
<pdfrwt beam="2">  1       -2 0.19701126E-01 0.13070144E+04</pdfrwt>
<totfact> 0.64495181E+00</totfact>
</mgrwt>
</event>
<event>
12    4  0.4413110E-008  0.1115685E+04  0.7818608E-02  0.9190037E-01
         -2   -1    0    0    0  501 -0.00000000000E+00  0.00000000000E+00  0.13270795394E+04  0.13270795394E+04  0.00000000000E+00 0.  1.
          1   -1    0    0  501    0  0.00000000000E+00 -0.00000000000E+00 -0.23449116115E+03  0.23449116115E+03  0.00000000000E+00 0. -1.
        -24    2    1    2    0    0 -0.14743700986E+03  0.88620820858E+02  0.16090900799E+03  0.24974756663E+03  0.83010941551E+02 0.  0.
        254    2    1    2    0    0  0.14743700986E+03 -0.88620820858E+02  0.93167937026E+03  0.13118231339E+04  0.90733795466E+03 0.  0.
         23    2    4    4    0    0 -0.94754420514E+02  0.41914166576E+02 -0.14351714905E+03  0.19827742490E+03  0.89339619361E+02 0.  0.
         23    2    4    4    0    0  0.24219143037E+03 -0.13053498743E+03  0.10751965193E+04  0.11135457090E+04  0.90776753951E+02 0.  0.
          1    1    3    3  502    0 -0.12495446780E+03  0.89277623392E+02  0.16656329094E+03  0.22655560675E+03  0.00000000000E+00 0. -1.
         -2    1    3    3    0  502 -0.22482542064E+02 -0.65680253321E+00 -0.56542829506E+01  0.23191959877E+02  0.00000000000E+00 0.  1.
         11    1    5    5    0    0 -0.29811356118E+02  0.15895989573E+02 -0.11969532197E+03  0.12437190012E+03  0.00000000000E+00 0.  1.
        -11    1    5    5    0    0 -0.64943064396E+02  0.26018177003E+02 -0.23821827080E+02  0.73905524781E+02  0.00000000000E+00 0. -1.
          1    1    6    6  503    0  0.92243694221E+02 -0.27968533447E+02  0.23630259076E+03  0.25520590194E+03  0.00000000000E+00 0. -1.
         -1    1    6    6    0  503  0.14994773615E+03 -0.10256645399E+03  0.83889392856E+03  0.85833980709E+03  0.00000000000E+00 0.  1.
<mgrwt>
<rscale>  0 0.11156853E+04</rscale>
<asrwt>0</asrwt>
<pdfrwt beam="1">  1        1 0.36075564E-01 0.11156853E+04</pdfrwt>
<pdfrwt beam="2">  1       -2 0.20416608E+00 0.11156853E+04</pdfrwt>
<totfact> 0.13106379E+01</totfact>
</mgrwt>
</event>
<event>
12    4  0.4413110E-008  0.1348719E+04  0.7818608E-02  0.8991798E-01
          3   -1    0    0  501    0  0.00000000000E+00  0.00000000000E+00  0.51788261547E+03  0.51788261547E+03  0.00000000000E+00 0. -1.
         -4   -1    0    0    0  501 -0.00000000000E+00 -0.00000000000E+00 -0.87811561652E+03  0.87811561652E+03  0.00000000000E+00 0.  1.
        -24    2    1    2    0    0  0.16689157140E+03  0.11201597397E+02  0.24210631475E+03  0.30557689608E+03  0.82362002078E+02 0.  0.
        254    2    1    2    0    0 -0.16689157140E+03 -0.11201597397E+02 -0.60233931580E+03  0.10904213359E+04  0.89343593282E+03 0.  0.
         23    2    4    4    0    0 -0.40576646590E+03 -0.29280415893E+03 -0.45423381015E+03  0.68194906647E+03  0.91353569395E+02 0.  0.
         23    2    4    4    0    0  0.23887489450E+03  0.28160256154E+03 -0.14810550565E+03  0.40847226944E+03  0.92483167168E+02 0.  0.
          3    1    3    3  502    0  0.95770759557E+02  0.41439880371E+02  0.17229516936E+03  0.20143219072E+03  0.00000000000E+00 0. -1.
         -4    1    3    3    0  502  0.71120811842E+02 -0.30238282974E+02  0.69811145384E+02  0.10414470536E+03  0.00000000000E+00 0.  1.
         11    1    5    5    0    0 -0.31070180727E+03 -0.23229873965E+03 -0.39881105162E+03  0.55637089462E+03  0.00000000000E+00 0. -1.
        -11    1    5    5    0    0 -0.95064658633E+02 -0.60505419285E+02 -0.55422758533E+02  0.12557817186E+03  0.00000000000E+00 0.  1.
          2    1    6    6  503    0 -0.15111837638E+01  0.38805533137E+02 -0.18921483706E+02  0.43199254901E+02  0.00000000000E+00 0.  1.
         -2    1    6    6    0  503  0.24038607826E+03  0.24279702840E+03 -0.12918402194E+03  0.36527301453E+03  0.00000000000E+00 0. -1.
<mgrwt>
<rscale>  0 0.13487191E+04</rscale>
<asrwt>0</asrwt>
<pdfrwt beam="1">  1        3 0.79674250E-01 0.13487191E+04</pdfrwt>
<pdfrwt beam="2">  1       -4 0.13509471E+00 0.13487191E+04</pdfrwt>
<totfact> 0.12863635E+00</totfact>
</mgrwt>
</event>
<event>
12    4  0.4413110E-008  0.1723904E+04  0.7818608E-02  0.8747847E-01
         -2   -1    0    0    0  501 -0.00000000000E+00  0.00000000000E+00  0.11680464245E+04  0.11680464245E+04  0.00000000000E+00 0.  1.
          1   -1    0    0  501    0  0.00000000000E+00 -0.00000000000E+00 -0.63607151513E+03  0.63607151513E+03  0.00000000000E+00 0. -1.
        -24    2    1    2    0    0  0.48908035519E+03 -0.24869449405E+03 -0.11960152767E+03  0.56709722660E+03  0.79032865292E+02 0.  0.
        254    2    1    2    0    0 -0.48908035519E+03  0.24869449405E+03  0.65157643700E+03  0.12370207130E+04  0.89700604564E+03 0.  0.
         23    2    4    4    0    0  0.35590171919E+02  0.97031641808E+02 -0.18623014125E+03  0.23274699909E+03  0.93849348555E+02 0.  0.
         23    2    4    4    0    0 -0.52467052710E+03  0.15166285225E+03  0.83780657826E+03  0.10042737139E+04  0.91460631410E+02 0.  0.
          1    1    3    3  502    0  0.47736999186E+03 -0.23442916060E+03 -0.10185282490E+03  0.54149158664E+03  0.00000000000E+00 0. -1.
         -2    1    3    3    0  502  0.11710363330E+02 -0.14265333452E+02 -0.17748702763E+02  0.25605639957E+02  0.00000000000E+00 0.  1.
         11    1    5    5    0    0  0.46335515216E+02  0.14964286275E+02 -0.10969647652E+03  0.12001761036E+03  0.00000000000E+00 0.  1.
        -11    1    5    5    0    0 -0.10745343298E+02  0.82067355533E+02 -0.76533664730E+02  0.11272938873E+03  0.00000000000E+00 0. -1.
          3    1    6    6  503    0 -0.51316940717E+03  0.13370446432E+03  0.78512171445E+03  0.94743645209E+03  0.00000000000E+00 0. -1.
         -3    1    6    6    0  503 -0.11501119932E+02  0.17958387921E+02  0.52684863804E+02  0.56837261813E+02  0.00000000000E+00 0.  1.
<mgrwt>
<rscale>  0 0.17239038E+04</rscale>
<asrwt>0</asrwt>
<pdfrwt beam="1">  1        1 0.97857156E-01 0.17239038E+04</pdfrwt>
<pdfrwt beam="2">  1       -2 0.17969945E+00 0.17239038E+04</pdfrwt>
<totfact> 0.47600510E+00</totfact>
</mgrwt>
</event>
<event>
12    4  0.4413110E-008  0.2490567E+04  0.7818608E-02  0.8406354E-01
          1   -1    0    0  501    0  0.00000000000E+00  0.00000000000E+00  0.31093238281E+04  0.31093238281E+04  0.00000000000E+00 0. -1.
         -2   -1    0    0    0  501 -0.00000000000E+00 -0.00000000000E+00 -0.49873558187E+03  0.49873558187E+03  0.00000000000E+00 0.  1.
        -24    2    1    2    0    0  0.74878133838E+02 -0.10430827773E+04  0.14981416035E+04  0.18287845407E+04  0.79976352103E+02 0.  0.
        254    2    1    2    0    0 -0.74878133838E+02  0.10430827773E+04  0.11124466427E+04  0.17792748692E+04  0.91359351579E+03 0.  0.
         23    2    4    4    0    0  0.26922913270E+02  0.29716011205E+02 -0.13400122237E+03  0.16719598066E+03  0.91598492199E+02 0.  0.
         23    2    4    4    0    0 -0.10180104711E+03  0.10133667661E+04  0.12464478651E+04  0.16120788886E+04  0.88827961339E+02 0.  0.
          3    1    3    3  502    0  0.40241504992E+02 -0.19836469110E+03  0.25891737274E+03  0.32864286894E+03  0.00000000000E+00 0. -1.
         -4    1    3    3    0  502  0.34636628847E+02 -0.84471808625E+03  0.12392242307E+04  0.15001416718E+04  0.00000000000E+00 0.  1.
         11    1    5    5    0    0  0.77512142947E+01 -0.14293409753E+02 -0.11406286655E+03  0.11521597290E+03  0.00000000000E+00 0. -1.
        -11    1    5    5    0    0  0.19171698975E+02  0.44009420958E+02 -0.19938355819E+02  0.51980007766E+02  0.00000000000E+00 0.  1.
          4    1    6    6  503    0 -0.59997223124E+02  0.48071836649E+03  0.52545134725E+03  0.71469499298E+03  0.00000000000E+00 0. -1.
         -4    1    6    6    0  503 -0.41803823985E+02  0.53264839965E+03  0.72099651784E+03  0.89738389560E+03  0.00000000000E+00 0.  1.
<mgrwt>
<rscale>  0 0.24905665E+04</rscale>
<asrwt>0</asrwt>
<pdfrwt beam="1">  1        1 0.47835750E+00 0.24905665E+04</pdfrwt>
<pdfrwt beam="2">  1       -2 0.76728553E-01 0.24905665E+04</pdfrwt>
<totfact> 0.58953022E-01</totfact>
</mgrwt>
</event>
<event>
12    4  0.4413110E-008  0.2577807E+04  0.7818608E-02  0.8375779E-01
         -2   -1    0    0    0  501 -0.00000000000E+00  0.00000000000E+00  0.72671923832E+03  0.72671923832E+03  0.00000000000E+00 0.  1.
          1   -1    0    0  501    0  0.00000000000E+00 -0.00000000000E+00 -0.22859891432E+04  0.22859891432E+04  0.00000000000E+00 0. -1.
        -24    2    1    2    0    0 -0.15858447094E+02  0.36593631198E+03  0.56154435408E+03  0.67535855872E+03  0.81340312708E+02 0.  0.
        254    2    1    2    0    0  0.15858447094E+02 -0.36593631198E+03 -0.21208142589E+04  0.23373498228E+04  0.91169633014E+03 0.  0.
         23    2    4    4    0    0 -0.31177270161E+02 -0.36382356497E+02 -0.19496867990E+04  0.19523008207E+04  0.88905467779E+02 0.  0.
         23    2    4    4    0    0  0.47035717256E+02 -0.32955395548E+03 -0.17112745991E+03  0.38504900208E+03  0.90332486942E+02 0.  0.
          3    1    3    3  502    0  0.30321275655E+02  0.10741058986E+03  0.19035215687E+03  0.22065891824E+03  0.00000000000E+00 0. -1.
         -4    1    3    3    0  502 -0.46179722749E+02  0.25852572211E+03  0.37119219720E+03  0.45469964048E+03  0.00000000000E+00 0.  1.
         11    1    5    5    0    0 -0.60823618358E+02 -0.14929839356E+02 -0.13976086238E+04  0.13990111787E+04  0.00000000000E+00 0.  1.
        -11    1    5    5    0    0  0.29646348197E+02 -0.21452517142E+02 -0.55207817518E+03  0.55328964202E+03  0.00000000000E+00 0. -1.
          3    1    6    6  503    0  0.57867356755E+02 -0.10734852290E+03 -0.70683495269E+02  0.14095564143E+03  0.00000000000E+00 0. -1.
         -3    1    6    6    0  503 -0.10831639499E+02 -0.22220543258E+03 -0.10044396464E+03  0.24409336065E+03  0.00000000000E+00 0.  1.
<mgrwt>
<rscale>  0 0.25778070E+04</rscale>
<asrwt>0</asrwt>
<pdfrwt beam="1">  1        1 0.35169063E+00 0.25778070E+04</pdfrwt>
<pdfrwt beam="2">  1       -2 0.11180296E+00 0.25778070E+04</pdfrwt>
<totfact> 0.93210403E-01</totfact>
</mgrwt>
</event>
<event>
12    4  0.4413110E-008  0.1057065E+04  0.7818608E-02  0.9248080E-01
          1   -1    0    0  501    0  0.00000000000E+00  0.00000000000E+00  0.60075463899E+03  0.60075463899E+03  0.00000000000E+00 0. -1.
         -4   -1    0    0    0  501 -0.00000000000E+00 -0.00000000000E+00 -0.46499277928E+03  0.46499277928E+03  0.00000000000E+00 0.  1.
        -24    2    1    2    0    0  0.12499511429E+03 -0.39227944723E+02 -0.18565576995E+02  0.15306740008E+03  0.76956728600E+02 0.  0.
        254    2    1    2    0    0 -0.12499511429E+03  0.39227944723E+02  0.15432743671E+03  0.91268001819E+03  0.88994676674E+03 0.  0.
         23    2    4    4    0    0  0.21360592103E+03 -0.22895302320E+03  0.30531420632E+03  0.44598988381E+03  0.87425600100E+02 0.  0.
         23    2    4    4    0    0 -0.33860103531E+03  0.26818096792E+03 -0.15098676961E+03  0.46669013437E+03  0.91820391287E+02 0.  0.
          1    1    3    3  502    0  0.50560668330E+02 -0.53871499357E+02  0.37955291993E+01  0.73979224563E+02  0.00000000000E+00 0. -1.
         -2    1    3    3    0  502  0.74434445956E+02  0.14643554634E+02 -0.22361106194E+02  0.79088175522E+02  0.00000000000E+00 0.  1.
         11    1    5    5    0    0  0.65579029991E+02 -0.12124063087E+03  0.16704166226E+03  0.21657058129E+03  0.00000000000E+00 0.  1.
        -11    1    5    5    0    0  0.14802689103E+03 -0.10771239232E+03  0.13827254407E+03  0.22941930253E+03  0.00000000000E+00 0. -1.
          1    1    6    6  503    0 -0.23009386523E+03  0.13403659068E+03 -0.65928951096E+02  0.27432757981E+03  0.00000000000E+00 0. -1.
         -1    1    6    6    0  503 -0.10850717009E+03  0.13414437724E+03 -0.85057818513E+02  0.19236255456E+03  0.00000000000E+00 0.  1.
<mgrwt>
<rscale>  0 0.10570649E+04</rscale>
<asrwt>0</asrwt>
<pdfrwt beam="1">  1        1 0.92423790E-01 0.10570649E+04</pdfrwt>
<pdfrwt beam="2">  1       -4 0.71537351E-01 0.10570649E+04</pdfrwt>
<totfact> 0.29399436E+01</totfact>
</mgrwt>
</event>
<event>
12    4  0.4413110E-008  0.1281435E+04  0.7818608E-02  0.9044418E-01
          1   -1    0    0  501    0  0.00000000000E+00  0.00000000000E+00  0.16725793139E+04  0.16725793139E+04  0.00000000000E+00 0. -1.
         -2   -1    0    0    0  501 -0.00000000000E+00 -0.00000000000E+00 -0.24544078382E+03  0.24544078382E+03  0.00000000000E+00 0.  1.
        -24    2    1    2    0    0 -0.17934854329E+03  0.26468998671E+02 -0.29918656638E+02  0.20003948829E+03  0.79083266173E+02 0.  0.
        254    2    1    2    0    0  0.17934854329E+03 -0.26468998671E+02  0.14570571867E+04  0.17179806094E+04  0.89195023468E+03 0.  0.
         23    2    4    4    0    0  0.30775068913E+02 -0.40255420846E+03  0.10816827749E+04  0.11581003546E+04  0.90342737329E+02 0.  0.
         23    2    4    4    0    0  0.14857347438E+03  0.37608520979E+03  0.37537441177E+03  0.55988025479E+03  0.95109349604E+02 0.  0.
          1    1    3    3  502    0 -0.28271267607E+02 -0.20702377468E+02  0.10703901150E+02  0.36639138974E+02  0.00000000000E+00 0. -1.
         -2    1    3    3    0  502 -0.15107727568E+03  0.47171376139E+02 -0.40622557788E+02  0.16340034932E+03  0.00000000000E+00 0.  1.
         11    1    5    5    0    0  0.14233226388E+02 -0.56568330653E+02  0.86242849998E+02  0.10411719331E+03  0.00000000000E+00 0.  1.
        -11    1    5    5    0    0  0.16541842524E+02 -0.34598587781E+03  0.99543992491E+03  0.10539831613E+04  0.00000000000E+00 0. -1.
          3    1    6    6  503    0  0.15261387401E+03  0.37723724714E+03  0.35798056839E+03  0.54198618296E+03  0.00000000000E+00 0. -1.
         -3    1    6    6    0  503 -0.40403996352E+01 -0.11520373491E+01  0.17393843385E+02  0.17894071839E+02  0.00000000000E+00 0.  1.
<mgrwt>
<rscale>  0 0.12814354E+04</rscale>
<asrwt>0</asrwt>
<pdfrwt beam="1">  1        1 0.25731989E+00 0.12814354E+04</pdfrwt>
<pdfrwt beam="2">  1       -2 0.37760122E-01 0.12814354E+04</pdfrwt>
<totfact> 0.28441050E+01</totfact>
</mgrwt>
</event>
<event>
12    4  0.4413110E-008  0.1466711E+04  0.7818608E-02  0.8906896E-01
         -2   -1    0    0    0  501 -0.00000000000E+00  0.00000000000E+00  0.20244574934E+03  0.20244574934E+03  0.00000000000E+00 0.  1.
          1   -1    0    0  501    0  0.00000000000E+00 -0.00000000000E+00 -0.26565659654E+04  0.26565659654E+04  0.00000000000E+00 0. -1.
        -24    2    1    2    0    0 -0.35520851791E+03  0.26491639745E+03 -0.87824726117E+03  0.98661397797E+03  0.75730449216E+02 0.  0.
        254    2    1    2    0    0  0.35520851791E+03 -0.26491639745E+03 -0.15758729549E+04  0.18723977368E+04  0.90892459855E+03 0.  0.
         23    2    4    4    0    0  0.14649278008E+03  0.32248898248E+03 -0.42626102736E+03  0.56150066788E+03  0.90140213808E+02 0.  0.
         23    2    4    4    0    0  0.20871573782E+03 -0.58740537993E+03 -0.11496119275E+04  0.13108970689E+04  0.90753521671E+02 0.  0.
          1    1    3    3  502    0 -0.22115513501E+03  0.20809599109E+03 -0.57719894142E+03  0.65220560656E+03  0.00000000000E+00 0. -1.
         -2    1    3    3    0  502 -0.13405338290E+03  0.56820406358E+02 -0.30104831975E+03  0.33440837141E+03  0.00000000000E+00 0.  1.
         11    1    5    5    0    0  0.13616728486E+03  0.24293052786E+03 -0.28139587937E+03  0.39590454880E+03  0.00000000000E+00 0. -1.
        -11    1    5    5    0    0  0.10325495228E+02  0.79558454618E+02 -0.14486514799E+03  0.16559611908E+03  0.00000000000E+00 0.  1.
          3    1    6    6  503    0  0.21101644179E+03 -0.52472160506E+03 -0.10611113285E+04  0.12024217035E+04  0.00000000000E+00 0. -1.
         -3    1    6    6    0  503 -0.23007039707E+01 -0.62683774873E+02 -0.88500599042E+02  0.10847536542E+03  0.00000000000E+00 0.  1.
<mgrwt>
<rscale>  0 0.14667113E+04</rscale>
<asrwt>0</asrwt>
<pdfrwt beam="1">  1        1 0.40870242E+00 0.14667113E+04</pdfrwt>
<pdfrwt beam="2">  1       -2 0.31145503E-01 0.14667113E+04</pdfrwt>
<totfact> 0.86072488E+00</totfact>
</mgrwt>
</event>
<event>
12    4  0.4413110E-008  0.1586717E+04  0.7818608E-02  0.8828750E-01
          1   -1    0    0  501    0  0.00000000000E+00  0.00000000000E+00  0.12248686010E+04  0.12248686010E+04  0.00000000000E+00 0. -1.
         -2   -1    0    0    0  501 -0.00000000000E+00 -0.00000000000E+00 -0.51386527470E+03  0.51386527470E+03  0.00000000000E+00 0.  1.
        -24    2    1    2    0    0 -0.38886501413E+03 -0.33079874974E+03  0.39741698460E+03  0.65203459738E+03  0.81024962181E+02 0.  0.
        254    2    1    2    0    0  0.38886501413E+03  0.33079874974E+03  0.31358634170E+03  0.10866992783E+04  0.90660637310E+03 0.  0.
         23    2    4    4    0    0  0.63713138850E+03  0.35665058376E+03  0.95564309554E+02  0.74183533526E+03  0.89727823289E+02 0.  0.
         23    2    4    4    0    0 -0.24826637437E+03 -0.25851834021E+02  0.21802203215E+03  0.34486394305E+03  0.95357342400E+02 0.  0.
          1    1    3    3  502    0 -0.11383440302E+03 -0.68202871661E+02  0.68920052000E+02  0.14953219246E+03  0.00000000000E+00 0. -1.
         -2    1    3    3    0  502 -0.27503061111E+03 -0.26259587808E+03  0.32849693260E+03  0.50250240493E+03  0.00000000000E+00 0.  1.
         11    1    5    5    0    0  0.61578970415E+03  0.35817085442E+03  0.83454586775E+02  0.71725029714E+03  0.00000000000E+00 0. -1.
        -11    1    5    5    0    0  0.21341684356E+02 -0.15202706542E+01  0.12109722779E+02  0.24585038129E+02  0.00000000000E+00 0.  1.
          2    1    6    6  503    0 -0.18556898590E+03  0.23794957481E+02  0.15782406741E+03  0.24476618391E+03  0.00000000000E+00 0. -1.
         -2    1    6    6    0  503 -0.62697388469E+02 -0.49646791502E+02  0.60197964732E+02  0.10009775914E+03  0.00000000000E+00 0.  1.
<mgrwt>
<rscale>  0 0.15867167E+04</rscale>
<asrwt>0</asrwt>
<pdfrwt beam="1">  1        1 0.18844132E+00 0.15867167E+04</pdfrwt>
<pdfrwt beam="2">  1       -2 0.79056196E-01 0.15867167E+04</pdfrwt>
<totfact> 0.12258195E+01</totfact>
</mgrwt>
</event>
<event>
12    4  0.4413110E-008  0.1631358E+04  0.7818608E-02  0.8801512E-01
         -2   -1    0    0    0  501 -0.00000000000E+00  0.00000000000E+00  0.72759029277E+03  0.72759029277E+03  0.00000000000E+00 0.  1.
          1   -1    0    0  501    0  0.00000000000E+00 -0.00000000000E+00 -0.91443235031E+03  0.91443235031E+03  0.00000000000E+00 0. -1.
        -24    2    1    2    0    0  0.24231118334E+03 -0.11992411289E+03  0.44266550403E+03  0.52488930768E+03  0.80371228931E+02 0.  0.
        254    2    1    2    0    0 -0.24231118334E+03  0.11992411289E+03 -0.62950756157E+03  0.11171333354E+04  0.88238915257E+03 0.  0.
         23    2    4    4    0    0 -0.10832508857E+03 -0.85275731655E+02  0.19356371885E+03  0.25336944151E+03  0.87879948868E+02 0.  0.
         23    2    4    4    0    0 -0.13398609477E+03  0.20519984455E+03 -0.82307128041E+03  0.86376389389E+03  0.92641685850E+02 0.  0.
          1    1    3    3  502    0  0.10551657381E+03 -0.76419163960E+02  0.27408636118E+03  0.30347482491E+03  0.00000000000E+00 0. -1.
         -2    1    3    3    0  502  0.13679460954E+03 -0.43504948934E+02  0.16857914284E+03  0.22141448278E+03  0.00000000000E+00 0.  1.
         11    1    5    5    0    0 -0.56553994529E+02 -0.85947273923E+02  0.86390545900E+02  0.13434513245E+03  0.00000000000E+00 0.  1.
        -11    1    5    5    0    0 -0.51771094044E+02  0.67154226820E+00  0.10717317295E+03  0.11902430906E+03  0.00000000000E+00 0. -1.
          1    1    6    6  503    0 -0.13778618873E+03  0.17120781511E+03 -0.61919777738E+03  0.65704112297E+03  0.00000000000E+00 0. -1.
         -1    1    6    6    0  503  0.38000939597E+01  0.33992029439E+02 -0.20387350304E+03  0.20672277093E+03  0.00000000000E+00 0.  1.
<mgrwt>
<rscale>  0 0.16313578E+04</rscale>
<asrwt>0</asrwt>
<pdfrwt beam="1">  1        1 0.14068190E+00 0.16313578E+04</pdfrwt>
<pdfrwt beam="2">  1       -2 0.11193697E+00 0.16313578E+04</pdfrwt>
<totfact> 0.93534731E+00</totfact>
</mgrwt>
</event>
<event>
12    4  0.4413110E-008  0.1884516E+04  0.7818608E-02  0.8662602E-01
          1   -1    0    0  501    0  0.00000000000E+00  0.00000000000E+00  0.18400348051E+04  0.18400348051E+04  0.00000000000E+00 0. -1.
         -2   -1    0    0    0  501 -0.00000000000E+00 -0.00000000000E+00 -0.48251814060E+03  0.48251814060E+03  0.00000000000E+00 0.  1.
        -24    2    1    2    0    0 -0.40654600466E+03  0.59308753306E+03  0.49806530148E+03  0.87864299478E+03  0.83138390490E+02 0.  0.
        254    2    1    2    0    0  0.40654600466E+03 -0.59308753306E+03  0.85945136301E+03  0.14439099509E+04  0.91059696088E+03 0.  0.
         23    2    4    4    0    0  0.40167005128E+03  0.10117932365E+03  0.50499985228E+03  0.65936774397E+03  0.90359755176E+02 0.  0.
         23    2    4    4    0    0  0.48759533778E+01 -0.69426685671E+03  0.35445151073E+03  0.78454220693E+03  0.88545794670E+02 0.  0.
          1    1    3    3  502    0 -0.25159234602E+03  0.30433654735E+03  0.29803100685E+03  0.49471398169E+03  0.00000000000E+00 0. -1.
         -2    1    3    3    0  502 -0.15495365864E+03  0.28875098571E+03  0.20003429462E+03  0.38392901309E+03  0.00000000000E+00 0.  1.
         11    1    5    5    0    0  0.14778176066E+03  0.18209545374E+02  0.12236722931E+03  0.19272979825E+03  0.00000000000E+00 0.  1.
        -11    1    5    5    0    0  0.25388829062E+03  0.82969778276E+02  0.38263262297E+03  0.46663794572E+03  0.00000000000E+00 0. -1.
          3    1    6    6  503    0  0.12271226967E+02 -0.14688063133E+03  0.37957398926E+02  0.15220140276E+03  0.00000000000E+00 0. -1.
         -3    1    6    6    0  503 -0.73952735894E+01 -0.54738622539E+03  0.31649411180E+03  0.63234080417E+03  0.00000000000E+00 0.  1.
<mgrwt>
<rscale>  0 0.18845160E+04</rscale>
<asrwt>0</asrwt>
<pdfrwt beam="1">  1        1 0.28308228E+00 0.18845160E+04</pdfrwt>
<pdfrwt beam="2">  1       -2 0.74233561E-01 0.18845160E+04</pdfrwt>
<totfact> 0.51417029E+00</totfact>
</mgrwt>
</event>
<event>
12    4  0.4413110E-008  0.1681968E+04  0.7818608E-02  0.8771716E-01
          1   -1    0    0  501    0  0.00000000000E+00  0.00000000000E+00  0.68247406817E+03  0.68247406817E+03  0.00000000000E+00 0. -1.
         -2   -1    0    0    0  501 -0.00000000000E+00 -0.00000000000E+00 -0.10363087833E+04  0.10363087833E+04  0.00000000000E+00 0.  1.
        -24    2    1    2    0    0 -0.12568979621E+03 -0.44973205618E+03 -0.50441619988E+03  0.69182326953E+03  0.78274429641E+02 0.  0.
        254    2    1    2    0    0  0.12568979621E+03  0.44973205618E+03  0.15058148478E+03  0.10269595819E+04  0.90217201912E+03 0.  0.
         23    2    4    4    0    0 -0.22122739265E+03 -0.17180017409E+03  0.85104716879E+02  0.30672021539E+03  0.91529331993E+02 0.  0.
         23    2    4    4    0    0  0.34691718886E+03  0.62153223028E+03  0.65476767899E+02  0.72023936652E+03  0.88338489678E+02 0.  0.
          3    1    3    3  502    0 -0.36190111313E+02 -0.23341319901E+03 -0.21332314124E+03  0.31827379442E+03  0.00000000000E+00 0. -1.
         -4    1    3    3    0  502 -0.89499684893E+02 -0.21631885718E+03 -0.29109305864E+03  0.37354947511E+03  0.00000000000E+00 0.  1.
         11    1    5    5    0    0 -0.10133308406E+03 -0.40818342992E+02  0.67179764956E+02  0.12824839909E+03  0.00000000000E+00 0.  1.
        -11    1    5    5    0    0 -0.11989430859E+03 -0.13098183110E+03  0.17924951924E+02  0.17847181629E+03  0.00000000000E+00 0. -1.
          4    1    6    6  503    0  0.13666665802E+03  0.23729153938E+03  0.68318322614E+02  0.28222764443E+03  0.00000000000E+00 0. -1.
         -4    1    6    6    0  503  0.21025053083E+03  0.38424069090E+03 -0.28415547152E+01  0.43801172209E+03  0.00000000000E+00 0.  1.
<mgrwt>
<rscale>  0 0.16819677E+04</rscale>
<asrwt>0</asrwt>
<pdfrwt beam="1">  1        1 0.10499601E+00 0.16819677E+04</pdfrwt>
<pdfrwt beam="2">  1       -2 0.15943212E+00 0.16819677E+04</pdfrwt>
<totfact> 0.60051647E+00</totfact>
</mgrwt>
</event>
<event>
12    4  0.4413110E-008  0.1396594E+04  0.7818608E-02  0.8956288E-01
         -2   -1    0    0    0  501 -0.00000000000E+00  0.00000000000E+00  0.43188642803E+03  0.43188642803E+03  0.00000000000E+00 0.  1.
          1   -1    0    0  501    0  0.00000000000E+00 -0.00000000000E+00 -0.11290441106E+04  0.11290441106E+04  0.00000000000E+00 0. -1.
        -24    2    1    2    0    0  0.94537496730E+02  0.38806794666E+03 -0.23311541874E+03  0.47017078296E+03  0.84756693985E+02 0.  0.
        254    2    1    2    0    0 -0.94537496730E+02 -0.38806794666E+03 -0.46404226386E+03  0.10907597557E+04  0.90271122321E+03 0.  0.
         23    2    4    4    0    0  0.23634854301E+03  0.17164025152E+03 -0.37295402527E+02  0.30844944179E+03  0.91810137612E+02 0.  0.
         23    2    4    4    0    0 -0.33088603974E+03 -0.55970819818E+03 -0.42674686134E+03  0.78231031392E+03  0.84484940672E+02 0.  0.
          3    1    3    3  502    0  0.80338662518E+02  0.27721334891E+03 -0.20762242884E+03  0.35553989152E+03  0.00000000000E+00 0. -1.
         -4    1    3    3    0  502  0.14198834212E+02  0.11085459776E+03 -0.25492989905E+02  0.11463089143E+03  0.00000000000E+00 0.  1.
         11    1    5    5    0    0  0.16325926371E+03  0.13304951531E+03 -0.66393370566E+02  0.22082536169E+03  0.00000000000E+00 0.  1.
        -11    1    5    5    0    0  0.73089279294E+02  0.38590736214E+02  0.29097968039E+02  0.87624080099E+02  0.00000000000E+00 0. -1.
          2    1    6    6  503    0 -0.16457041948E+02 -0.28684782000E+02 -0.19887250302E+01  0.33130136965E+02  0.00000000000E+00 0. -1.
         -2    1    6    6    0  503 -0.31442899779E+03 -0.53102341618E+03 -0.42475813631E+03  0.74918017695E+03  0.00000000000E+00 0.  1.
<mgrwt>
<rscale>  0 0.13965942E+04</rscale>
<asrwt>0</asrwt>
<pdfrwt beam="1">  1        1 0.17369910E+00 0.13965942E+04</pdfrwt>
<pdfrwt beam="2">  1       -2 0.66444065E-01 0.13965942E+04</pdfrwt>
<totfact> 0.21472840E+01</totfact>
</mgrwt>
</event>
<event>
12    4  0.4413110E-008  0.1915496E+04  0.7818608E-02  0.8647181E-01
         -2   -1    0    0    0  501 -0.00000000000E+00  0.00000000000E+00  0.46894004468E+03  0.46894004468E+03  0.00000000000E+00 0.  1.
          1   -1    0    0  501    0  0.00000000000E+00 -0.00000000000E+00 -0.19560726153E+04  0.19560726153E+04  0.00000000000E+00 0. -1.
        -24    2    1    2    0    0  0.50642429769E+03  0.46298340046E+03 -0.87127630608E+03  0.11111373105E+04  0.68443574110E+02 0.  0.
        254    2    1    2    0    0 -0.50642429769E+03 -0.46298340046E+03 -0.61585626455E+03  0.13138753495E+04  0.93603968775E+03 0.  0.
         23    2    4    4    0    0 -0.35822779797E+03 -0.62225548382E+03 -0.75028084661E+03  0.10425826480E+04  0.92348181726E+02 0.  0.
         23    2    4    4    0    0 -0.14819649972E+03  0.15927208336E+03  0.13442458206E+03  0.27129270153E+03  0.90553644733E+02 0.  0.
          1    1    3    3  502    0  0.49988549492E+03  0.44867176419E+03 -0.83533865087E+03  0.10719060228E+04  0.00000000000E+00 0. -1.
         -2    1    3    3    0  502  0.65388027754E+01  0.14311636269E+02 -0.35937655212E+02  0.39231287725E+02  0.00000000000E+00 0.  1.
         11    1    5    5    0    0 -0.35445850507E+03 -0.56877467848E+03 -0.69959975675E+03  0.96880611390E+03  0.00000000000E+00 0. -1.
        -11    1    5    5    0    0 -0.37692929071E+01 -0.53480805347E+02 -0.50681089864E+02  0.73776534070E+02  0.00000000000E+00 0.  1.
          4    1    6    6  503    0 -0.55087769949E+02  0.29499569649E+02  0.82193295005E+02  0.10325030146E+03  0.00000000000E+00 0. -1.
         -4    1    6    6    0  503 -0.93108729770E+02  0.12977251372E+03  0.52231287057E+02  0.16804240007E+03  0.00000000000E+00 0.  1.
<mgrwt>
<rscale>  0 0.19154955E+04</rscale>
<asrwt>0</asrwt>
<pdfrwt beam="1">  1        1 0.30093425E+00 0.19154955E+04</pdfrwt>
<pdfrwt beam="2">  1       -2 0.72144622E-01 0.19154955E+04</pdfrwt>
<totfact> 0.45564015E+00</totfact>
</mgrwt>
</event>
<event>
12    4  0.4413110E-008  0.2200324E+04  0.7818608E-02  0.8518293E-01
         -2   -1    0    0    0  501 -0.00000000000E+00  0.00000000000E+00  0.77350602466E+03  0.77350602466E+03  0.00000000000E+00 0.  1.
          1   -1    0    0  501    0  0.00000000000E+00 -0.00000000000E+00 -0.15647661617E+04  0.15647661617E+04  0.00000000000E+00 0. -1.
        -24    2    1    2    0    0 -0.17202721873E+03 -0.44860439929E+03 -0.11577605222E+04  0.12556849426E+04  0.74134858536E+02 0.  0.
        254    2    1    2    0    0  0.17202721873E+03  0.44860439929E+03  0.36650038516E+03  0.10825872438E+04  0.89823901996E+03 0.  0.
         23    2    4    4    0    0  0.30968432731E+03 -0.78383340622E+02  0.41116476992E+03  0.52859627877E+03  0.91154962768E+02 0.  0.
         23    2    4    4    0    0 -0.13765710858E+03  0.52698773992E+03 -0.44664384753E+02  0.55399096499E+03  0.90804870237E+02 0.  0.
          3    1    3    3  502    0 -0.10636455972E+03 -0.23196234198E+03 -0.69871786055E+03  0.74385925840E+03  0.00000000000E+00 0. -1.
         -4    1    3    3    0  502 -0.65662659004E+02 -0.21664205731E+03 -0.45904266166E+03  0.51182568420E+03  0.00000000000E+00 0.  1.
         11    1    5    5    0    0  0.14953041094E+03  0.67134902812E+01  0.20803348874E+03  0.25628567495E+03  0.00000000000E+00 0. -1.
        -11    1    5    5    0    0  0.16015391637E+03 -0.85096830903E+02  0.20313128118E+03  0.27231060382E+03  0.00000000000E+00 0.  1.
          1    1    6    6  503    0 -0.15882112903E+02  0.81896647403E+02 -0.40004354685E+02  0.92518380660E+02  0.00000000000E+00 0. -1.
         -1    1    6    6    0  503 -0.12177499568E+03  0.44509109251E+03 -0.46600300677E+01  0.46147258433E+03  0.00000000000E+00 0.  1.
<mgrwt>
<rscale>  0 0.22003237E+04</rscale>
<asrwt>0</asrwt>
<pdfrwt beam="1">  1        1 0.24073326E+00 0.22003237E+04</pdfrwt>
<pdfrwt beam="2">  1       -2 0.11900093E+00 0.22003237E+04</pdfrwt>
<totfact> 0.25607309E+00</totfact>
</mgrwt>
</event>
<event>
12    4  0.4413110E-008  0.2860347E+04  0.7818608E-02  0.8284774E-01
          1   -1    0    0  501    0  0.00000000000E+00  0.00000000000E+00  0.13172607313E+04  0.13172607313E+04  0.00000000000E+00 0. -1.
         -2   -1    0    0    0  501 -0.00000000000E+00 -0.00000000000E+00 -0.15527654387E+04  0.15527654387E+04  0.00000000000E+00 0.  1.
        -24    2    1    2    0    0  0.43012022919E+03  0.35520193491E+03  0.10568721982E+04  0.11975965052E+04  0.78017432601E+02 0.  0.
        254    2    1    2    0    0 -0.43012022919E+03 -0.35520193491E+03 -0.12923769056E+04  0.16724296648E+04  0.90311189321E+03 0.  0.
         23    2    4    4    0    0  0.55743975094E+02 -0.11282565144E+03 -0.10653335783E+04  0.10769020325E+04  0.94579787001E+02 0.  0.
         23    2    4    4    0    0 -0.48586420429E+03 -0.24237628347E+03 -0.22704332726E+03  0.59552763235E+03  0.91072502122E+02 0.  0.
          3    1    3    3  502    0  0.37519399301E+03  0.33976560998E+03  0.94604551951E+03  0.10729460970E+04  0.00000000000E+00 0. -1.
         -4    1    3    3    0  502  0.54926236181E+02  0.15436324930E+02  0.11082667869E+03  0.12465040818E+03  0.00000000000E+00 0.  1.
         11    1    5    5    0    0  0.27459256424E+01 -0.10351940519E+03 -0.68689781526E+03  0.69465992828E+03  0.00000000000E+00 0. -1.
        -11    1    5    5    0    0  0.52998049452E+02 -0.93062462477E+01 -0.37843576307E+03  0.38224210421E+03  0.00000000000E+00 0.  1.
          2    1    6    6  503    0 -0.90206202714E+01  0.77252724897E+00  0.68949237108E+01  0.11380174050E+02  0.00000000000E+00 0. -1.
         -2    1    6    6    0  503 -0.47684358402E+03 -0.24314881072E+03 -0.23393825097E+03  0.58414745830E+03  0.00000000000E+00 0.  1.
<mgrwt>
<rscale>  0 0.28603475E+04</rscale>
<asrwt>0</asrwt>
<pdfrwt beam="1">  1        1 0.20265550E+00 0.28603475E+04</pdfrwt>
<pdfrwt beam="2">  1       -2 0.23888699E+00 0.28603475E+04</pdfrwt>
<totfact> 0.50033247E-01</totfact>
</mgrwt>
</event>
<event>
12    4  0.4413110E-008  0.1967409E+04  0.7818608E-02  0.8622011E-01
          1   -1    0    0  501    0  0.00000000000E+00  0.00000000000E+00  0.23223945844E+04  0.23223945844E+04  0.00000000000E+00 0. -1.
         -2   -1    0    0    0  501 -0.00000000000E+00 -0.00000000000E+00 -0.41667119050E+03  0.41667119050E+03  0.00000000000E+00 0.  1.
        -24    2    1    2    0    0  0.23750440713E+03  0.49245209422E+02 -0.27003259489E+03  0.37195731280E+03  0.81247807288E+02 0.  0.
        254    2    1    2    0    0 -0.23750440713E+03 -0.49245209422E+02  0.21757559888E+04  0.23671084621E+04  0.90025269483E+03 0.  0.
         23    2    4    4    0    0 -0.30492655189E+03 -0.35173332892E+03  0.63423885410E+03  0.79200627774E+03  0.91205719143E+02 0.  0.
         23    2    4    4    0    0  0.67422144760E+02  0.30248811950E+03  0.15415171347E+04  0.15751021844E+04  0.92881680721E+02 0.  0.
          1    1    3    3  502    0  0.38960929822E+02  0.26962157343E+02 -0.95759584879E+02  0.10684011455E+03  0.00000000000E+00 0. -1.
         -2    1    3    3    0  502  0.19854347731E+03  0.22283052078E+02 -0.17427301001E+03  0.26511719825E+03  0.00000000000E+00 0.  1.
         11    1    5    5    0    0 -0.17597290469E+03 -0.26787689991E+03  0.43269540082E+03  0.53846987528E+03  0.00000000000E+00 0.  1.
        -11    1    5    5    0    0 -0.12895364720E+03 -0.83856429011E+02  0.20154345328E+03  0.25353640246E+03  0.00000000000E+00 0. -1.
          4    1    6    6  503    0  0.17012338117E+02  0.76580321003E+00  0.10534946011E+03  0.10671698481E+03  0.00000000000E+00 0. -1.
         -4    1    6    6    0  503  0.50409806643E+02  0.30172231629E+03  0.14361676746E+04  0.14683851996E+04  0.00000000000E+00 0.  1.
<mgrwt>
<rscale>  0 0.19674094E+04</rscale>
<asrwt>0</asrwt>
<pdfrwt beam="1">  1        1 0.35729147E+00 0.19674094E+04</pdfrwt>
<pdfrwt beam="2">  1       -2 0.64103261E-01 0.19674094E+04</pdfrwt>
<totfact> 0.33027256E+00</totfact>
</mgrwt>
</event>
<event>
12    4  0.4413110E-008  0.1216687E+04  0.7818608E-02  0.9098374E-01
         -2   -1    0    0    0  501 -0.00000000000E+00  0.00000000000E+00  0.92276069162E+03  0.92276069162E+03  0.00000000000E+00 0.  1.
          1   -1    0    0  501    0  0.00000000000E+00 -0.00000000000E+00 -0.40105943596E+03  0.40105943596E+03  0.00000000000E+00 0. -1.
        -24    2    1    2    0    0 -0.23545127095E+03  0.82294932288E+02  0.21087066427E+03  0.33633282155E+03  0.80271868876E+02 0.  0.
        254    2    1    2    0    0  0.23545127095E+03 -0.82294932288E+02  0.31083059139E+03  0.98748730603E+03  0.90349641181E+03 0.  0.
         23    2    4    4    0    0 -0.17251009271E+03 -0.18842398116E+03 -0.18668915551E+03  0.32957522047E+03  0.92215272030E+02 0.  0.
         23    2    4    4    0    0  0.40796136366E+03  0.10612904887E+03  0.49751974691E+03  0.65791208557E+03  0.87330203937E+02 0.  0.
          3    1    3    3  502    0 -0.31828613184E+02 -0.13488964278E+02  0.13835495359E+02  0.37234845324E+02  0.00000000000E+00 0. -1.
         -4    1    3    3    0  502 -0.20362265777E+03  0.95783896566E+02  0.19703516891E+03  0.29909797623E+03  0.00000000000E+00 0.  1.
         11    1    5    5    0    0 -0.12814631168E+03 -0.18709511222E+03 -0.16290492179E+03  0.27922047159E+03  0.00000000000E+00 0. -1.
        -11    1    5    5    0    0 -0.44363781033E+02 -0.13288689402E+01 -0.23784233722E+02  0.50354748872E+02  0.00000000000E+00 0.  1.
          1    1    6    6  503    0  0.34440457428E+03  0.55816961763E+02  0.39053647579E+03  0.52368767690E+03  0.00000000000E+00 0. -1.
         -1    1    6    6    0  503  0.63556789377E+02  0.50312087109E+02  0.10698327111E+03  0.13422440867E+03  0.00000000000E+00 0.  1.
<mgrwt>
<rscale>  0 0.12166871E+04</rscale>
<asrwt>0</asrwt>
<pdfrwt beam="1">  1        1 0.61701452E-01 0.12166871E+04</pdfrwt>
<pdfrwt beam="2">  1       -2 0.14196318E+00 0.12166871E+04</pdfrwt>
<totfact> 0.17868760E+01</totfact>
</mgrwt>
</event>
<event>
12    4  0.4413110E-008  0.1075905E+04  0.7818608E-02  0.9229000E-01
         -2   -1    0    0    0  501 -0.00000000000E+00  0.00000000000E+00  0.30798991126E+03  0.30798991126E+03  0.00000000000E+00 0.  1.
          1   -1    0    0  501    0  0.00000000000E+00 -0.00000000000E+00 -0.93961779758E+03  0.93961779758E+03  0.00000000000E+00 0. -1.
        -24    2    1    2    0    0 -0.97245074675E+02  0.83077531577E+02 -0.17678941544E+03  0.23079360884E+03  0.75184517489E+02 0.  0.
        254    2    1    2    0    0  0.97245074675E+02 -0.83077531577E+02 -0.45483847089E+03  0.10168141000E+04  0.90037458791E+03 0.  0.
         23    2    4    4    0    0 -0.90384468283E+02 -0.23016265586E+03  0.19006387176E+03  0.32409106329E+03  0.88127984776E+02 0.  0.
         23    2    4    4    0    0  0.18762954296E+03  0.14708512428E+03 -0.64490234265E+03  0.69272303670E+03  0.84423307520E+02 0.  0.
          3    1    3    3  502    0 -0.84478001874E+02  0.76984887829E+02 -0.18266506120E+03  0.21547559105E+03  0.00000000000E+00 0. -1.
         -4    1    3    3    0  502 -0.12767072801E+02  0.60926437485E+01  0.58756457689E+01  0.15318017788E+02  0.00000000000E+00 0.  1.
         11    1    5    5    0    0 -0.12461403958E+02 -0.14613101284E+03  0.12223788839E+03  0.19092318052E+03  0.00000000000E+00 0. -1.
        -11    1    5    5    0    0 -0.77923064325E+02 -0.84031643016E+02  0.67825983368E+02  0.13316788277E+03  0.00000000000E+00 0.  1.
          2    1    6    6  503    0  0.95262868614E+01  0.41598894975E+02 -0.73614937886E+02  0.85090406536E+02  0.00000000000E+00 0. -1.
         -2    1    6    6    0  503  0.17810325610E+03  0.10548622930E+03 -0.57128740476E+03  0.60763263017E+03  0.00000000000E+00 0.  1.
<mgrwt>
<rscale>  0 0.10759048E+04</rscale>
<asrwt>0</asrwt>
<pdfrwt beam="1">  1        1 0.14455658E+00 0.10759048E+04</pdfrwt>
<pdfrwt beam="2">  1       -2 0.47383063E-01 0.10759048E+04</pdfrwt>
<totfact> 0.62382129E+01</totfact>
</mgrwt>
</event>
<event>
12    4  0.4413110E-008  0.1414156E+04  0.7818608E-02  0.8943635E-01
         -2   -1    0    0    0  501 -0.00000000000E+00  0.00000000000E+00  0.54706764876E+03  0.54706764876E+03  0.00000000000E+00 0.  1.
          1   -1    0    0  501    0  0.00000000000E+00 -0.00000000000E+00 -0.91388880861E+03  0.91388880861E+03  0.00000000000E+00 0. -1.
        -24    2    1    2    0    0 -0.25757536502E+03  0.14705360136E+03 -0.48096438623E+03  0.57037569176E+03  0.77665041041E+02 0.  0.
        254    2    1    2    0    0  0.25757536502E+03 -0.14705360136E+03  0.11414322638E+03  0.89058076560E+03  0.83194686946E+03 0.  0.
         23    2    4    4    0    0 -0.27507926076E+03 -0.46623080078E+02 -0.85244376966E+02  0.30574107100E+03  0.91480530155E+02 0.  0.
         23    2    4    4    0    0  0.53265462578E+03 -0.10043052128E+03  0.19938760334E+03  0.58483969460E+03  0.92058742383E+02 0.  0.
          3    1    3    3  502    0 -0.25845861021E+03  0.14586659658E+03 -0.44803757038E+03  0.53741565074E+03  0.00000000000E+00 0. -1.
         -4    1    3    3    0  502  0.88324519264E+00  0.11870047808E+01 -0.32926815848E+02  0.32960041024E+02  0.00000000000E+00 0.  1.
         11    1    5    5    0    0 -0.61011350784E+02  0.18346459920E+02 -0.46082345848E+02  0.78629257372E+02  0.00000000000E+00 0.  1.
        -11    1    5    5    0    0 -0.21406790998E+03 -0.64969539999E+02 -0.39162031118E+02  0.22711181363E+03  0.00000000000E+00 0. -1.
          2    1    6    6  503    0  0.43995382049E+03 -0.73097225617E+02  0.12586295494E+03  0.46340484674E+03  0.00000000000E+00 0. -1.
         -2    1    6    6    0  503  0.92700805288E+02 -0.27333295661E+02  0.73524648400E+02  0.12143484786E+03  0.00000000000E+00 0.  1.
<mgrwt>
<rscale>  0 0.14141556E+04</rscale>
<asrwt>0</asrwt>
<pdfrwt beam="1">  1        1 0.14059828E+00 0.14141556E+04</pdfrwt>
<pdfrwt beam="2">  1       -2 0.84164255E-01 0.14141556E+04</pdfrwt>
<totfact> 0.18649099E+01</totfact>
</mgrwt>
</event>
<event>
12    4  0.4413110E-008  0.1652843E+04  0.7818608E-02  0.8788726E-01
         -2   -1    0    0    0  501 -0.00000000000E+00  0.00000000000E+00  0.10532592670E+04  0.10532592670E+04  0.00000000000E+00 0.  1.
          1   -1    0    0  501    0  0.00000000000E+00 -0.00000000000E+00 -0.64843727071E+03  0.64843727071E+03  0.00000000000E+00 0. -1.
        -24    2    1    2    0    0 -0.17433519140E+03  0.24343904478E+03 -0.37041495240E+03  0.48301737557E+03  0.80269674579E+02 0.  0.
        254    2    1    2    0    0  0.17433519140E+03 -0.24343904478E+03  0.77523694871E+03  0.12186791622E+04  0.89136482215E+03 0.  0.
         23    2    4    4    0    0 -0.10644008660E+03  0.24629983344E+03  0.39155859897E+02  0.28627526255E+03  0.91800025021E+02 0.  0.
         23    2    4    4    0    0  0.28077527800E+03 -0.48973887822E+03  0.73608108881E+03  0.93240389962E+03  0.94248273931E+02 0.  0.
          1    1    3    3  502    0 -0.14099789397E+03  0.23034984218E+03 -0.29765433684E+03  0.40191984292E+03  0.00000000000E+00 0. -1.
         -2    1    3    3    0  502 -0.33337297431E+02  0.13089202599E+02 -0.72760615555E+02  0.81097532642E+02  0.00000000000E+00 0.  1.
         11    1    5    5    0    0 -0.84878905951E+02  0.12144588328E+03 -0.14098482216E+02  0.14883648223E+03  0.00000000000E+00 0.  1.
        -11    1    5    5    0    0 -0.21561180647E+02  0.12485395016E+03  0.53254342113E+02  0.13743878032E+03  0.00000000000E+00 0. -1.
          2    1    6    6  503    0 -0.69141048337E+01 -0.15588180212E+02  0.15004568421E+02  0.22714164776E+02  0.00000000000E+00 0. -1.
         -2    1    6    6    0  503  0.28768938283E+03 -0.47415069801E+03  0.72107652039E+03  0.90968973484E+03  0.00000000000E+00 0.  1.
<mgrwt>
<rscale>  0 0.16528431E+04</rscale>
<asrwt>0</asrwt>
<pdfrwt beam="1">  1        1 0.99759580E-01 0.16528431E+04</pdfrwt>
<pdfrwt beam="2">  1       -2 0.16203989E+00 0.16528431E+04</pdfrwt>
<totfact> 0.62157145E+00</totfact>
</mgrwt>
</event>
<event>
12    4  0.4413110E-008  0.1503234E+04  0.7818608E-02  0.8882305E-01
         -2   -1    0    0    0  501 -0.00000000000E+00  0.00000000000E+00  0.14791997581E+04  0.14791997581E+04  0.00000000000E+00 0.  1.
          1   -1    0    0  501    0  0.00000000000E+00 -0.00000000000E+00 -0.38191456774E+03  0.38191456774E+03  0.00000000000E+00 0. -1.
        -24    2    1    2    0    0 -0.95281908070E+02  0.20996939026E+03  0.84037782707E+03  0.87515912817E+03  0.80640067860E+02 0.  0.
        254    2    1    2    0    0  0.95281908070E+02 -0.20996939026E+03  0.25690736333E+03  0.98595519770E+03  0.92354776362E+03 0.  0.
         23    2    4    4    0    0 -0.79714616842E+02  0.25974394893E+03 -0.15909294999E+03  0.32816589636E+03  0.92525400063E+02 0.  0.
         23    2    4    4    0    0  0.17499652491E+03 -0.46971333919E+03  0.41600031332E+03  0.65778930134E+03  0.91521033264E+02 0.  0.
          3    1    3    3  502    0 -0.74144139270E+02  0.73340074611E+02  0.41362926993E+03  0.42657390083E+03  0.00000000000E+00 0. -1.
         -4    1    3    3    0  502 -0.21137768799E+02  0.13662931565E+03  0.42674855714E+03  0.44858522734E+03  0.00000000000E+00 0.  1.
         11    1    5    5    0    0 -0.61445340799E+02  0.76120309917E+02 -0.27814107558E+02  0.10170278299E+03  0.00000000000E+00 0. -1.
        -11    1    5    5    0    0 -0.18269276043E+02  0.18362363901E+03 -0.13127884243E+03  0.22646311338E+03  0.00000000000E+00 0.  1.
          2    1    6    6  503    0  0.10307420922E+03 -0.19833789361E+03  0.13798888446E+03  0.26268449685E+03  0.00000000000E+00 0. -1.
         -2    1    6    6    0  503  0.71922315693E+02 -0.27137544558E+03  0.27801142886E+03  0.39510480449E+03  0.00000000000E+00 0.  1.
<mgrwt>
<rscale>  0 0.15032338E+04</rscale>
<asrwt>0</asrwt>
<pdfrwt beam="1">  1        1 0.58756088E-01 0.15032338E+04</pdfrwt>
<pdfrwt beam="2">  1       -2 0.22756919E+00 0.15032338E+04</pdfrwt>
<totfact> 0.47741117E+00</totfact>
</mgrwt>
</event>
<event>
12    4  0.4413110E-008  0.2316192E+04  0.7818608E-02  0.8471564E-01
          1   -1    0    0  501    0  0.00000000000E+00  0.00000000000E+00  0.12706528068E+04  0.12706528068E+04  0.00000000000E+00 0. -1.
         -2   -1    0    0    0  501 -0.00000000000E+00 -0.00000000000E+00 -0.10555097247E+04  0.10555097247E+04  0.00000000000E+00 0.  1.
        -24    2    1    2    0    0 -0.68501686992E+03 -0.26438971846E+03  0.74307508170E+03  0.10477241720E+04  0.80095744731E+02 0.  0.
        254    2    1    2    0    0  0.68501686992E+03  0.26438971846E+03 -0.52793199962E+03  0.12784383595E+04  0.90362736102E+03 0.  0.
         23    2    4    4    0    0  0.85553500727E+03  0.10200681587E+03 -0.24753059191E+03  0.90112309789E+03  0.91683719796E+02 0.  0.
         23    2    4    4    0    0 -0.17051813735E+03  0.16238290259E+03 -0.28040140771E+03  0.37731526163E+03  0.91089049799E+02 0.  0.
          3    1    3    3  502    0 -0.54618148205E+03 -0.18410049621E+03  0.54947397958E+03  0.79632208200E+03  0.00000000000E+00 0. -1.
         -4    1    3    3    0  502 -0.13883538787E+03 -0.80289222249E+02  0.19360110212E+03  0.25140209004E+03  0.00000000000E+00 0.  1.
         11    1    5    5    0    0  0.34024841947E+02 -0.76056564948E+01 -0.25233985929E+02  0.43038237953E+02  0.00000000000E+00 0. -1.
        -11    1    5    5    0    0  0.82151016532E+03  0.10961247237E+03 -0.22229660598E+03  0.85808485994E+03  0.00000000000E+00 0.  1.
          1    1    6    6  503    0 -0.33270855259E+01  0.30653449611E+02 -0.84499608120E+01  0.31970381745E+02  0.00000000000E+00 0. -1.
         -1    1    6    6    0  503 -0.16719105183E+03  0.13172945298E+03 -0.27195144690E+03  0.34534487989E+03  0.00000000000E+00 0.  1.
<mgrwt>
<rscale>  0 0.23161920E+04</rscale>
<asrwt>0</asrwt>
<pdfrwt beam="1">  1        1 0.19548505E+00 0.23161920E+04</pdfrwt>
<pdfrwt beam="2">  1       -2 0.16238611E+00 0.23161920E+04</pdfrwt>
<totfact> 0.18193425E+00</totfact>
</mgrwt>
</event>
<event>
12    4  0.4413110E-008  0.1843510E+04  0.7818608E-02  0.8683497E-01
         -2   -1    0    0    0  501 -0.00000000000E+00  0.00000000000E+00  0.59318840893E+03  0.59318840893E+03  0.00000000000E+00 0.  1.
          1   -1    0    0  501    0  0.00000000000E+00 -0.00000000000E+00 -0.14323149769E+04  0.14323149769E+04  0.00000000000E+00 0. -1.
        -24    2    1    2    0    0 -0.14522455172E+03  0.66866694134E+03 -0.15872008659E+03  0.70730661991E+03  0.82975537485E+02 0.  0.
        254    2    1    2    0    0  0.14522455172E+03 -0.66866694134E+03 -0.68040648140E+03  0.13181967659E+04  0.89804458961E+03 0.  0.
         23    2    4    4    0    0  0.96238806142E+02 -0.36415203709E+02 -0.66345711796E+03  0.67734556614E+03  0.89630874923E+02 0.  0.
         23    2    4    4    0    0  0.48985745583E+02 -0.63225173763E+03 -0.16949363443E+02  0.64085119979E+03  0.90890683527E+02 0.  0.
          1    1    3    3  502    0 -0.13073334195E+01  0.19167346591E+02  0.90317341881E+01  0.21228954719E+02  0.00000000000E+00 0. -1.
         -2    1    3    3    0  502 -0.14391721831E+03  0.64949959475E+03 -0.16775182078E+03  0.68607766519E+03  0.00000000000E+00 0.  1.
         11    1    5    5    0    0  0.89398515946E+02 -0.30103659922E+02 -0.31637197921E+03  0.33013566033E+03  0.00000000000E+00 0.  1.
        -11    1    5    5    0    0  0.68402901957E+01 -0.63115437868E+01 -0.34708513875E+03  0.34720990581E+03  0.00000000000E+00 0. -1.
          1    1    6    6  503    0  0.46312736139E+02 -0.14104691593E+03  0.10860950765E+02  0.14885248494E+03  0.00000000000E+00 0. -1.
         -1    1    6    6    0  503  0.26730094440E+01 -0.49120482170E+03 -0.27810314209E+02  0.49199871485E+03  0.00000000000E+00 0.  1.
<mgrwt>
<rscale>  0 0.18435104E+04</rscale>
<asrwt>0</asrwt>
<pdfrwt beam="1">  1        1 0.22035615E+00 0.18435104E+04</pdfrwt>
<pdfrwt beam="2">  1       -2 0.91259756E-01 0.18435104E+04</pdfrwt>
<totfact> 0.61563740E+00</totfact>
</mgrwt>
</event>
<event>
12    4  0.4413110E-008  0.4150649E+04  0.7818608E-02  0.7974827E-01
         -4   -1    0    0    0  501 -0.00000000000E+00  0.00000000000E+00  0.20521503789E+04  0.20521503789E+04  0.00000000000E+00 0.  1.
          3   -1    0    0  501    0  0.00000000000E+00 -0.00000000000E+00 -0.20987600856E+04  0.20987600856E+04  0.00000000000E+00 0. -1.
        -24    2    1    2    0    0  0.44163356189E+03 -0.15278866214E+03 -0.19267802619E+04  0.19842372890E+04  0.79566720915E+02 0.  0.
        254    2    1    2    0    0 -0.44163356189E+03  0.15278866214E+03  0.18801705552E+04  0.21666731756E+04  0.97007564376E+03 0.  0.
         23    2    4    4    0    0  0.16931639044E+03 -0.12407054941E+03  0.11456906546E+04  0.11681351496E+04  0.88719278930E+02 0.  0.
         23    2    4    4    0    0 -0.61094995233E+03  0.27685921156E+03  0.73447990063E+03  0.99853802592E+03  0.87787228576E+02 0.  0.
          1    1    3    3  502    0  0.22880335241E+03 -0.84913479376E+02 -0.11695943078E+04  0.11947853857E+04  0.00000000000E+00 0. -1.
         -2    1    3    3    0  502  0.21283020949E+03 -0.67875182769E+02 -0.75718595405E+03  0.78945190323E+03  0.00000000000E+00 0.  1.
         11    1    5    5    0    0  0.95893867643E+02 -0.52386733472E+02  0.37348065952E+03  0.38913725950E+03  0.00000000000E+00 0. -1.
        -11    1    5    5    0    0  0.73422522797E+02 -0.71683815941E+02  0.77220999509E+03  0.77899789014E+03  0.00000000000E+00 0.  1.
          4    1    6    6  503    0 -0.35028069565E+03  0.11473788773E+03  0.42640816881E+03  0.56363576453E+03  0.00000000000E+00 0. -1.
         -4    1    6    6    0  503 -0.26066925668E+03  0.16212132383E+03  0.30807173182E+03  0.43490226140E+03  0.00000000000E+00 0.  1.
<mgrwt>
<rscale>  0 0.41506488E+04</rscale>
<asrwt>0</asrwt>
<pdfrwt beam="1">  1        3 0.32288617E+00 0.41506488E+04</pdfrwt>
<pdfrwt beam="2">  1       -4 0.31571544E+00 0.41506488E+04</pdfrwt>
<totfact> 0.12456337E-03</totfact>
</mgrwt>
</event>
<event>
12    4  0.4413110E-008  0.2560027E+04  0.7818608E-02  0.8381907E-01
          1   -1    0    0  501    0  0.00000000000E+00  0.00000000000E+00  0.64111107026E+03  0.64111107026E+03  0.00000000000E+00 0. -1.
         -2   -1    0    0    0  501 -0.00000000000E+00 -0.00000000000E+00 -0.25556182302E+04  0.25556182302E+04  0.00000000000E+00 0.  1.
        -24    2    1    2    0    0 -0.16664708001E+03  0.10625091592E+03 -0.22140733030E+04  0.22243092721E+04  0.79816292749E+02 0.  0.
        254    2    1    2    0    0  0.16664708001E+03 -0.10625091592E+03  0.29956614302E+03  0.97242002837E+03  0.90377006540E+03 0.  0.
         23    2    4    4    0    0  0.11084484004E+03  0.14446070355E+01  0.60995575173E+03  0.62664669437E+03  0.91385967438E+02 0.  0.
         23    2    4    4    0    0  0.55802239971E+02 -0.10769552295E+03 -0.31038960871E+03  0.34577333399E+03  0.92224040557E+02 0.  0.
          3    1    3    3  502    0 -0.17482908185E+02  0.40881382484E+01 -0.59149481859E+02  0.61814449421E+02  0.00000000000E+00 0. -1.
         -4    1    3    3    0  502 -0.14916417183E+03  0.10216277767E+03 -0.21549238211E+04  0.21624948227E+04  0.00000000000E+00 0.  1.
         11    1    5    5    0    0  0.74497091680E+02  0.44594868613E+02  0.39281088964E+03  0.40229207548E+03  0.00000000000E+00 0. -1.
        -11    1    5    5    0    0  0.36347748364E+02 -0.43150261577E+02  0.21714486209E+03  0.22435461889E+03  0.00000000000E+00 0.  1.
          2    1    6    6  503    0 -0.68942627855E+01 -0.82982761178E+02 -0.14547412124E+03  0.16761977647E+03  0.00000000000E+00 0. -1.
         -2    1    6    6    0  503  0.62696502756E+02 -0.24712761774E+02 -0.16491548747E+03  0.17815355753E+03  0.00000000000E+00 0.  1.
<mgrwt>
<rscale>  0 0.25600275E+04</rscale>
<asrwt>0</asrwt>
<pdfrwt beam="1">  1        1 0.98632471E-01 0.25600275E+04</pdfrwt>
<pdfrwt beam="2">  1       -2 0.39317204E+00 0.25600275E+04</pdfrwt>
<totfact> 0.19809810E-01</totfact>
</mgrwt>
</event>
<event>
12    4  0.4413110E-008  0.1752066E+04  0.7818608E-02  0.8732214E-01
          3   -1    0    0  501    0  0.00000000000E+00  0.00000000000E+00  0.15477293715E+04  0.15477293715E+04  0.00000000000E+00 0. -1.
         -4   -1    0    0    0  501 -0.00000000000E+00 -0.00000000000E+00 -0.49584523313E+03  0.49584523313E+03  0.00000000000E+00 0.  1.
        -24    2    1    2    0    0 -0.99433102007E+02 -0.58865402889E+03  0.62909645711E+03  0.87079902189E+03  0.78282032905E+02 0.  0.
        254    2    1    2    0    0  0.99433102007E+02  0.58865402889E+03  0.42278768126E+03  0.11727755827E+04  0.91665295316E+03 0.  0.
         23    2    4    4    0    0  0.37404554455E+03  0.61429804993E+03  0.48861322535E+03  0.87442422239E+03  0.92750596618E+02 0.  0.
         23    2    4    4    0    0 -0.27461244255E+03 -0.25644021035E+02 -0.65825544094E+02  0.29835136035E+03  0.92795056703E+02 0.  0.
          3    1    3    3  502    0 -0.49657596874E+02 -0.39332365904E+03  0.36775654850E+03  0.54075341576E+03  0.00000000000E+00 0. -1.
         -4    1    3    3    0  502 -0.49775505133E+02 -0.19533036985E+03  0.26133990861E+03  0.33004560614E+03  0.00000000000E+00 0.  1.
         11    1    5    5    0    0  0.16420488489E+03  0.19492977225E+03  0.14675285857E+03  0.29410416834E+03  0.00000000000E+00 0. -1.
        -11    1    5    5    0    0  0.20984065966E+03  0.41936827768E+03  0.34186036677E+03  0.58032005406E+03  0.00000000000E+00 0.  1.
          2    1    6    6  503    0 -0.13073435954E+02 -0.15115932501E+02  0.14342327783E+02  0.24598953418E+02  0.00000000000E+00 0. -1.
         -2    1    6    6    0  503 -0.26153900659E+03 -0.10528088534E+02 -0.80167871877E+02  0.27375240693E+03  0.00000000000E+00 0.  1.
<mgrwt>
<rscale>  0 0.17520665E+04</rscale>
<asrwt>0</asrwt>
<pdfrwt beam="1">  1        3 0.23811221E+00 0.17520665E+04</pdfrwt>
<pdfrwt beam="2">  1       -4 0.76283882E-01 0.17520665E+04</pdfrwt>
<totfact> 0.29084107E-01</totfact>
</mgrwt>
</event>
<event>
12    4  0.4413110E-008  0.1300148E+04  0.7818608E-02  0.9029448E-01
         -2   -1    0    0    0  501 -0.00000000000E+00  0.00000000000E+00  0.36205659923E+03  0.36205659923E+03  0.00000000000E+00 0.  1.
          1   -1    0    0  501    0  0.00000000000E+00 -0.00000000000E+00 -0.11672095017E+04  0.11672095017E+04  0.00000000000E+00 0. -1.
        -24    2    1    2    0    0  0.10489305893E+03  0.30312677724E+03 -0.96371392156E+02  0.34375880549E+03  0.77422698458E+02 0.  0.
        254    2    1    2    0    0 -0.10489305893E+03 -0.30312677724E+03 -0.70878151030E+03  0.11855072954E+04  0.89452105691E+03 0.  0.
         23    2    4    4    0    0  0.29014240825E+03 -0.37078737894E+03 -0.58307487758E+03  0.75572288372E+03  0.97338926736E+02 0.  0.
         23    2    4    4    0    0 -0.39503546718E+03  0.67660601697E+02 -0.12570663271E+03  0.42978441170E+03  0.91002778439E+02 0.  0.
          1    1    3    3  502    0  0.12843415824E+02  0.82036353405E+02  0.61223889422E+01  0.83261036844E+02  0.00000000000E+00 0. -1.
         -2    1    3    3    0  502  0.92049643103E+02  0.22109042384E+03 -0.10249378110E+03  0.26049776865E+03  0.00000000000E+00 0.  1.
         11    1    5    5    0    0  0.11558466026E+03 -0.10158655098E+03 -0.24759197914E+03  0.29151574427E+03  0.00000000000E+00 0. -1.
        -11    1    5    5    0    0  0.17455774799E+03 -0.26920082796E+03 -0.33548289845E+03  0.46420713944E+03  0.00000000000E+00 0.  1.
          2    1    6    6  503    0 -0.37054215535E+03  0.40577735204E+02 -0.12534244079E+03  0.39326679106E+03  0.00000000000E+00 0. -1.
         -2    1    6    6    0  503 -0.24493311826E+02  0.27082866494E+02 -0.36419192624E+00  0.36517620644E+02  0.00000000000E+00 0.  1.
<mgrwt>
<rscale>  0 0.13001475E+04</rscale>
<asrwt>0</asrwt>
<pdfrwt beam="1">  1        1 0.17957069E+00 0.13001475E+04</pdfrwt>
<pdfrwt beam="2">  1       -2 0.55701016E-01 0.13001475E+04</pdfrwt>
<totfact> 0.29470440E+01</totfact>
</mgrwt>
</event>
<event>
12    4  0.4413110E-008  0.1681001E+04  0.7818608E-02  0.8772275E-01
         -2   -1    0    0    0  501 -0.00000000000E+00  0.00000000000E+00  0.80795523356E+03  0.80795523356E+03  0.00000000000E+00 0.  1.
          1   -1    0    0  501    0  0.00000000000E+00 -0.00000000000E+00 -0.87435640980E+03  0.87435640980E+03  0.00000000000E+00 0. -1.
        -24    2    1    2    0    0  0.25405574236E+03 -0.84845175464E+01 -0.55470469316E+03  0.61523039663E+03  0.78707287169E+02 0.  0.
        254    2    1    2    0    0 -0.25405574236E+03  0.84845175464E+01  0.48830351692E+03  0.10670812467E+04  0.91411473855E+03 0.  0.
         23    2    4    4    0    0 -0.51772935114E+03 -0.37957726203E+02  0.56549843028E+03  0.77310961633E+03  0.91790708722E+02 0.  0.
         23    2    4    4    0    0  0.26367360878E+03  0.46442243750E+02 -0.77194913353E+02  0.29397163041E+03  0.93699577717E+02 0.  0.
          3    1    3    3  502    0  0.19557073237E+03  0.26062359351E+02 -0.38993534273E+03  0.43700884367E+03  0.00000000000E+00 0. -1.
         -4    1    3    3    0  502  0.58485009990E+02 -0.34546876898E+02 -0.16476935043E+03  0.17822155296E+03  0.00000000000E+00 0.  1.
         11    1    5    5    0    0 -0.12782362071E+03 -0.28379261534E+02  0.19695466145E+03  0.23650665776E+03  0.00000000000E+00 0.  1.
        -11    1    5    5    0    0 -0.38990573044E+03 -0.95784646694E+01  0.36854376882E+03  0.53660295858E+03  0.00000000000E+00 0. -1.
          2    1    6    6  503    0  0.19252660175E+03  0.55568927043E+02 -0.18407643318E+02  0.20122932034E+03  0.00000000000E+00 0. -1.
         -2    1    6    6    0  503  0.71147007032E+02 -0.91266832934E+01 -0.58787270035E+02  0.92742310062E+02  0.00000000000E+00 0.  1.
<mgrwt>
<rscale>  0 0.16810007E+04</rscale>
<asrwt>0</asrwt>
<pdfrwt beam="1">  1        1 0.13451637E+00 0.16810007E+04</pdfrwt>
<pdfrwt beam="2">  1       -2 0.12430080E+00 0.16810007E+04</pdfrwt>
<totfact> 0.77590208E+00</totfact>
</mgrwt>
</event>
<event>
12    4  0.4413110E-008  0.1328434E+04  0.7818608E-02  0.9007316E-01
          1   -1    0    0  501    0  0.00000000000E+00  0.00000000000E+00  0.10241657666E+04  0.10241657666E+04  0.00000000000E+00 0. -1.
         -2   -1    0    0    0  501 -0.00000000000E+00 -0.00000000000E+00 -0.43077427654E+03  0.43077427654E+03  0.00000000000E+00 0.  1.
        -24    2    1    2    0    0 -0.13462294410E+03  0.17907877143E+03  0.16495112651E+03  0.28924809076E+03  0.79139373371E+02 0.  0.
        254    2    1    2    0    0  0.13462294410E+03 -0.17907877143E+03  0.42844036355E+03  0.11656919524E+04  0.10606997875E+04 0.  0.
         23    2    4    4    0    0  0.70777061837E+02  0.15938516740E+03 -0.29775234024E+03  0.35694807103E+03  0.91336987151E+02 0.  0.
         23    2    4    4    0    0  0.63845882263E+02 -0.33846393883E+03  0.72619270380E+03  0.80874388135E+03  0.89870395578E+02 0.  0.
          1    1    3    3  502    0 -0.25315083859E+01  0.21115862092E+02  0.47856654963E+02  0.52369338270E+02  0.00000000000E+00 0. -1.
         -2    1    3    3    0  502 -0.13209143571E+03  0.15796290933E+03  0.11709447155E+03  0.23687875249E+03  0.00000000000E+00 0.  1.
         11    1    5    5    0    0  0.34743860874E+02  0.73543541084E+02 -0.22358040783E+03  0.23791592437E+03  0.00000000000E+00 0. -1.
        -11    1    5    5    0    0  0.36033200962E+02  0.85841626318E+02 -0.74171932414E+02  0.11903214666E+03  0.00000000000E+00 0.  1.
          1    1    6    6  503    0  0.31494287902E+02 -0.29768174023E+03  0.56566632195E+03  0.63998804397E+03  0.00000000000E+00 0. -1.
         -1    1    6    6    0  503  0.32351594361E+02 -0.40782198599E+02  0.16052638185E+03  0.16875583738E+03  0.00000000000E+00 0.  1.
<mgrwt>
<rscale>  0 0.13284341E+04</rscale>
<asrwt>0</asrwt>
<pdfrwt beam="1">  1        1 0.15756396E+00 0.13284341E+04</pdfrwt>
<pdfrwt beam="2">  1       -2 0.66272966E-01 0.13284341E+04</pdfrwt>
<totfact> 0.26077321E+01</totfact>
</mgrwt>
</event>
<event>
12    4  0.4413110E-008  0.2110279E+04  0.7818608E-02  0.8556729E-01
          1   -1    0    0  501    0  0.00000000000E+00  0.00000000000E+00  0.17616380974E+04  0.17616380974E+04  0.00000000000E+00 0. -1.
         -2   -1    0    0    0  501 -0.00000000000E+00 -0.00000000000E+00 -0.63197980129E+03  0.63197980129E+03  0.00000000000E+00 0.  1.
        -24    2    1    2    0    0  0.49986442705E+03 -0.23522217037E+03  0.12049954022E+04  0.13280527513E+04  0.80723454136E+02 0.  0.
        254    2    1    2    0    0 -0.49986442705E+03  0.23522217037E+03 -0.75337106078E+02  0.10655651474E+04  0.90805258050E+03 0.  0.
         23    2    4    4    0    0 -0.17196146759E+03 -0.24287619938E+02  0.38767697960E+03  0.43468895481E+03  0.92197679467E+02 0.  0.
         23    2    4    4    0    0 -0.32790295947E+03  0.25950979030E+03 -0.46301408568E+03  0.63087619260E+03  0.93579082911E+02 0.  0.
          1    1    3    3  502    0  0.39057478434E+03 -0.15848050966E+03  0.97286624987E+03  0.10602516089E+04  0.00000000000E+00 0. -1.
         -2    1    3    3    0  502  0.10928964272E+03 -0.76741660703E+02  0.23212915230E+03  0.26780114234E+03  0.00000000000E+00 0.  1.
         11    1    5    5    0    0  0.92961645295E+01 -0.59664433392E+01  0.47849397793E+02  0.49107860778E+02  0.00000000000E+00 0.  1.
        -11    1    5    5    0    0 -0.18125763212E+03 -0.18321176598E+02  0.33982758181E+03  0.38558109403E+03  0.00000000000E+00 0. -1.
          3    1    6    6  503    0 -0.27533757007E+03  0.17696723500E+03 -0.38773899304E+03  0.50741472828E+03  0.00000000000E+00 0. -1.
         -3    1    6    6    0  503 -0.52565389399E+02  0.82542555306E+02 -0.75275092638E+02  0.12346146432E+03  0.00000000000E+00 0.  1.
<mgrwt>
<rscale>  0 0.21102793E+04</rscale>
<asrwt>0</asrwt>
<pdfrwt beam="1">  1        1 0.27102124E+00 0.21102793E+04</pdfrwt>
<pdfrwt beam="2">  1       -2 0.97227663E-01 0.21102793E+04</pdfrwt>
<totfact> 0.30812879E+00</totfact>
</mgrwt>
</event>
<event>
12    4  0.4413110E-008  0.1987767E+04  0.7818608E-02  0.8612362E-01
         -4   -1    0    0    0  501 -0.00000000000E+00  0.00000000000E+00  0.16634107140E+04  0.16634107140E+04  0.00000000000E+00 0.  1.
          3   -1    0    0  501    0  0.00000000000E+00 -0.00000000000E+00 -0.59384266074E+03  0.59384266074E+03  0.00000000000E+00 0. -1.
        -24    2    1    2    0    0  0.51000874625E+03  0.81669335822E+02  0.10966723142E+04  0.12148955780E+04  0.80636834552E+02 0.  0.
        254    2    1    2    0    0 -0.51000874625E+03 -0.81669335822E+02 -0.27104260955E+02  0.10423577967E+04  0.90498416215E+03 0.  0.
         23    2    4    4    0    0  0.21696709033E+03 -0.14596530436E+03 -0.12227317939E+03  0.30086978058E+03  0.84801568982E+02 0.  0.
         23    2    4    4    0    0 -0.72697583658E+03  0.64295968542E+02  0.95168918433E+02  0.74148801614E+03  0.90108359790E+02 0.  0.
          1    1    3    3  502    0  0.17879795300E+03  0.10080893130E+02  0.30391281616E+03  0.35275109104E+03  0.00000000000E+00 0. -1.
         -2    1    3    3    0  502  0.33121079325E+03  0.71588442692E+02  0.79275949807E+03  0.86214448700E+03  0.00000000000E+00 0.  1.
         11    1    5    5    0    0  0.39628524873E+02  0.81120052187E+00 -0.40256935387E+02  0.56495122592E+02  0.00000000000E+00 0. -1.
        -11    1    5    5    0    0  0.17733856546E+03 -0.14677650489E+03 -0.82016244002E+02  0.24437465798E+03  0.00000000000E+00 0.  1.
          2    1    6    6  503    0 -0.71861531677E+03  0.52165920700E+02  0.95103173499E+02  0.72675571576E+03  0.00000000000E+00 0. -1.
         -2    1    6    6    0  503 -0.83605198089E+01  0.12130047842E+02  0.65744934223E-01  0.14732300381E+02  0.00000000000E+00 0.  1.
<mgrwt>
<rscale>  0 0.19877668E+04</rscale>
<asrwt>0</asrwt>
<pdfrwt beam="1">  1        3 0.91360410E-01 0.19877668E+04</pdfrwt>
<pdfrwt beam="2">  1       -4 0.25590934E+00 0.19877668E+04</pdfrwt>
<totfact> 0.13291464E-01</totfact>
</mgrwt>
</event>
<event>
12    4  0.4413110E-008  0.1982949E+04  0.7818608E-02  0.8614634E-01
         -2   -1    0    0    0  501 -0.00000000000E+00  0.00000000000E+00  0.95665710503E+03  0.95665710503E+03  0.00000000000E+00 0.  1.
          1   -1    0    0  501    0  0.00000000000E+00 -0.00000000000E+00 -0.10275586127E+04  0.10275586127E+04  0.00000000000E+00 0. -1.
        -24    2    1    2    0    0 -0.21099022036E+03 -0.71244580205E+03 -0.19450085296E+03  0.77147873499E+03  0.72477326056E+02 0.  0.
        254    2    1    2    0    0  0.21099022036E+03  0.71244580205E+03  0.12359934532E+03  0.12127369827E+04  0.95045162797E+03 0.  0.
         23    2    4    4    0    0  0.32646532975E+03  0.93432581892E+02  0.38798946798E+03  0.52359382394E+03  0.91134001984E+02 0.  0.
         23    2    4    4    0    0 -0.11547510939E+03  0.61901322016E+03 -0.26439012266E+03  0.68914315877E+03  0.92218700398E+02 0.  0.
          3    1    3    3  502    0 -0.49785435798E+02 -0.19644525788E+03 -0.21086090687E+02  0.20374972928E+03  0.00000000000E+00 0. -1.
         -4    1    3    3    0  502 -0.16120478456E+03 -0.51600054417E+03 -0.17341476227E+03  0.56772900571E+03  0.00000000000E+00 0.  1.
         11    1    5    5    0    0  0.43927472068E+02 -0.12965752372E+02  0.80816810654E+02  0.92892897582E+02  0.00000000000E+00 0. -1.
        -11    1    5    5    0    0  0.28253785768E+03  0.10639833426E+03  0.30717265732E+03  0.43070092636E+03  0.00000000000E+00 0.  1.
          2    1    6    6  503    0 -0.12947387718E+03  0.55105589015E+03 -0.22336358675E+03  0.60853707432E+03  0.00000000000E+00 0.  1.
         -2    1    6    6    0  503  0.13998767789E+02  0.67957330014E+02 -0.41026535908E+02  0.80606084453E+02  0.00000000000E+00 0. -1.
<mgrwt>
<rscale>  0 0.19829486E+04</rscale>
<asrwt>0</asrwt>
<pdfrwt beam="1">  1        1 0.15808594E+00 0.19829486E+04</pdfrwt>
<pdfrwt beam="2">  1       -2 0.14717802E+00 0.19829486E+04</pdfrwt>
<totfact> 0.36953993E+00</totfact>
</mgrwt>
</event>
<event>
12    4  0.4413110E-008  0.3699180E+04  0.7818608E-02  0.8068143E-01
          1   -1    0    0  501    0  0.00000000000E+00  0.00000000000E+00  0.21619398686E+04  0.21619398686E+04  0.00000000000E+00 0. -1.
         -2   -1    0    0    0  501 -0.00000000000E+00 -0.00000000000E+00 -0.15823677851E+04  0.15823677851E+04  0.00000000000E+00 0.  1.
        -24    2    1    2    0    0 -0.27321271268E+03  0.88183965357E+03  0.17627924431E+04  0.19914635532E+04  0.78762461693E+02 0.  0.
        254    2    1    2    0    0  0.27321271268E+03 -0.88183965357E+03 -0.11832203596E+04  0.17528441005E+04  0.90562997982E+03 0.  0.
         23    2    4    4    0    0  0.19074449591E+03 -0.52220012668E+03 -0.12465645236E+04  0.13680396008E+04  0.92373171704E+02 0.  0.
         23    2    4    4    0    0  0.82468216761E+02 -0.35963952689E+03  0.63344163993E+02  0.38480449972E+03  0.88996762936E+02 0.  0.
          3    1    3    3  502    0 -0.22068716260E+03  0.75529060711E+03  0.15515419034E+04  0.17396692223E+04  0.00000000000E+00 0. -1.
         -4    1    3    3    0  502 -0.52525550079E+02  0.12654904646E+03  0.21125053966E+03  0.25179433091E+03  0.00000000000E+00 0.  1.
         11    1    5    5    0    0  0.70896355386E+02 -0.15055273915E+03 -0.28215269427E+03  0.32757069978E+03  0.00000000000E+00 0.  1.
        -11    1    5    5    0    0  0.11984814053E+03 -0.37164738753E+03 -0.96441182930E+03  0.10404689010E+04  0.00000000000E+00 0. -1.
          4    1    6    6  503    0  0.61368488473E+02 -0.11587528058E+03  0.48056303681E+02  0.13965163927E+03  0.00000000000E+00 0. -1.
         -4    1    6    6    0  503  0.21099728288E+02 -0.24376424631E+03  0.15287860311E+02  0.24515286045E+03  0.00000000000E+00 0.  1.
<mgrwt>
<rscale>  0 0.36991805E+04</rscale>
<asrwt>0</asrwt>
<pdfrwt beam="1">  1        1 0.33260613E+00 0.36991805E+04</pdfrwt>
<pdfrwt beam="2">  1       -2 0.24344120E+00 0.36991805E+04</pdfrwt>
<totfact> 0.11510732E-01</totfact>
</mgrwt>
</event>
<event>
12    4  0.4413110E-008  0.1519275E+04  0.7818608E-02  0.8871735E-01
          1   -1    0    0  501    0  0.00000000000E+00  0.00000000000E+00  0.16591433060E+04  0.16591433060E+04  0.00000000000E+00 0. -1.
         -2   -1    0    0    0  501 -0.00000000000E+00 -0.00000000000E+00 -0.34779953208E+03  0.34779953208E+03  0.00000000000E+00 0.  1.
        -24    2    1    2    0    0  0.41885450297E+03  0.22809481725E+03  0.65128347127E+03  0.81175435093E+03  0.85490502374E+02 0.  0.
        254    2    1    2    0    0 -0.41885450297E+03 -0.22809481725E+03  0.66006030264E+03  0.11951884871E+04  0.87483117019E+03 0.  0.
         23    2    4    4    0    0 -0.62910987548E+03 -0.22412961586E+03  0.68970458593E+03  0.96426955426E+03  0.90055745428E+02 0.  0.
         23    2    4    4    0    0  0.21025537251E+03 -0.39652013865E+01 -0.29644283291E+02  0.23091893287E+03  0.90673731230E+02 0.  0.
          1    1    3    3  502    0  0.36953917674E+03  0.18762192358E+03  0.60325240750E+03  0.73189798231E+03  0.00000000000E+00 0. -1.
         -2    1    3    3    0  502  0.49315326230E+02  0.40472893670E+02  0.48031063774E+02  0.79856368628E+02  0.00000000000E+00 0.  1.
         11    1    5    5    0    0 -0.31084461148E+03 -0.12382409245E+03  0.40728109574E+03  0.52710024597E+03  0.00000000000E+00 0.  1.
        -11    1    5    5    0    0 -0.31826526400E+03 -0.10030552341E+03  0.28242349019E+03  0.43716930829E+03  0.00000000000E+00 0. -1.
          3    1    6    6  503    0  0.18465974670E+02  0.25473732637E+02 -0.18643709738E+02  0.36571726617E+02  0.00000000000E+00 0. -1.
         -3    1    6    6    0  503  0.19178939784E+03 -0.29438934023E+02 -0.11000573554E+02  0.19434720626E+03  0.00000000000E+00 0.  1.
<mgrwt>
<rscale>  0 0.15192752E+04</rscale>
<asrwt>0</asrwt>
<pdfrwt beam="1">  1        1 0.25525281E+00 0.15192752E+04</pdfrwt>
<pdfrwt beam="2">  1       -2 0.53507621E-01 0.15192752E+04</pdfrwt>
<totfact> 0.14182258E+01</totfact>
</mgrwt>
</event>
<event>
12    4  0.4413110E-008  0.2560404E+04  0.7818608E-02  0.8381777E-01
          1   -1    0    0  501    0  0.00000000000E+00  0.00000000000E+00  0.32556159023E+04  0.32556159023E+04  0.00000000000E+00 0. -1.
         -2   -1    0    0    0  501 -0.00000000000E+00 -0.00000000000E+00 -0.50341233422E+03  0.50341233422E+03  0.00000000000E+00 0.  1.
        -24    2    1    2    0    0  0.89409251339E+03 -0.49179201307E+03  0.52488761616E+03  0.11502703209E+04  0.79711949600E+02 0.  0.
        254    2    1    2    0    0 -0.89409251339E+03  0.49179201307E+03  0.22273159520E+04  0.26087579157E+04  0.89633738408E+03 0.  0.
         23    2    4    4    0    0 -0.46474979777E+03 -0.15284061347E+03  0.13272182691E+04  0.14177489099E+04  0.95660911869E+02 0.  0.
         23    2    4    4    0    0 -0.42934271562E+03  0.64463262654E+03  0.90009768286E+03  0.11910090058E+04  0.91870683375E+02 0.  0.
          3    1    3    3  502    0  0.76162421991E+03 -0.39299456968E+03  0.46044934041E+03  0.97289762012E+03  0.00000000000E+00 0. -1.
         -4    1    3    3    0  502  0.13246829347E+03 -0.98797443384E+02  0.64438275749E+02  0.17737270077E+03  0.00000000000E+00 0.  1.
         11    1    5    5    0    0 -0.41755330366E+03 -0.13508751150E+03  0.10861079417E+04  0.11714221520E+04  0.00000000000E+00 0.  1.
        -11    1    5    5    0    0 -0.47196494117E+02 -0.17753101968E+02  0.24111032739E+03  0.24632675791E+03  0.00000000000E+00 0. -1.
          4    1    6    6  503    0 -0.19963810731E+03  0.30871469579E+03  0.49716791493E+03  0.61833330246E+03  0.00000000000E+00 0. -1.
         -4    1    6    6    0  503 -0.22970460830E+03  0.33591793075E+03  0.40292976793E+03  0.57267570330E+03  0.00000000000E+00 0.  1.
<mgrwt>
<rscale>  0 0.25604040E+04</rscale>
<asrwt>0</asrwt>
<pdfrwt beam="1">  1        1 0.50086397E+00 0.25604040E+04</pdfrwt>
<pdfrwt beam="2">  1       -2 0.77448054E-01 0.25604040E+04</pdfrwt>
<totfact> 0.44600284E-01</totfact>
</mgrwt>
</event>
<event>
12    4  0.4413110E-008  0.2370062E+04  0.7818608E-02  0.8450798E-01
         -2   -1    0    0    0  501 -0.00000000000E+00  0.00000000000E+00  0.51051925133E+03  0.51051925133E+03  0.00000000000E+00 0.  1.
          1   -1    0    0  501    0  0.00000000000E+00 -0.00000000000E+00 -0.27507253698E+04  0.27507253698E+04  0.00000000000E+00 0. -1.
        -24    2    1    2    0    0 -0.48249092326E+02  0.24235050799E+03  0.39393208205E+03  0.47303973996E+03  0.86731578338E+02 0.  0.
        254    2    1    2    0    0  0.48249092326E+02 -0.24235050799E+03 -0.26341382005E+04  0.27882048811E+04  0.87996628136E+03 0.  0.
         23    2    4    4    0    0 -0.91338605187E+02  0.27929417756E+03 -0.51612777693E+03  0.60071183951E+03  0.90104681313E+02 0.  0.
         23    2    4    4    0    0  0.13958769751E+03 -0.52164468555E+03 -0.21180104235E+04  0.21874930416E+04  0.86946820719E+02 0.  0.
          3    1    3    3  502    0  0.89322780129E+01  0.62413168880E+02  0.49135127143E+02  0.79934035050E+02  0.00000000000E+00 0. -1.
         -4    1    3    3    0  502 -0.57181370339E+02  0.17993733911E+03  0.34479695491E+03  0.39310570491E+03  0.00000000000E+00 0.  1.
         11    1    5    5    0    0 -0.72207402814E+02  0.27902361830E+03 -0.48490349474E+03  0.56409173705E+03  0.00000000000E+00 0.  1.
        -11    1    5    5    0    0 -0.19131202373E+02  0.27055926252E+00 -0.31224282187E+02  0.36620102467E+02  0.00000000000E+00 0. -1.
          2    1    6    6  503    0 -0.10608004361E+01  0.11229373216E+01 -0.16652681444E+00  0.15537107110E+01  0.00000000000E+00 0. -1.
         -2    1    6    6    0  503  0.14064849795E+03 -0.52276762287E+03 -0.21178438967E+04  0.21859393309E+04  0.00000000000E+00 0.  1.
<mgrwt>
<rscale>  0 0.23700618E+04</rscale>
<asrwt>0</asrwt>
<pdfrwt beam="1">  1        1 0.42318851E+00 0.23700618E+04</pdfrwt>
<pdfrwt beam="2">  1       -2 0.78541425E-01 0.23700618E+04</pdfrwt>
<totfact> 0.10279829E+00</totfact>
</mgrwt>
</event>
<event>
12    4  0.4413110E-008  0.1725894E+04  0.7818608E-02  0.8746732E-01
         -2   -1    0    0    0  501 -0.00000000000E+00  0.00000000000E+00  0.80849931211E+03  0.80849931211E+03  0.00000000000E+00 0.  1.
          1   -1    0    0  501    0  0.00000000000E+00 -0.00000000000E+00 -0.92106149401E+03  0.92106149401E+03  0.00000000000E+00 0. -1.
        -24    2    1    2    0    0  0.27532543174E+03 -0.79551703708E+02  0.51478647673E+03  0.59431421901E+03  0.77921161195E+02 0.  0.
        254    2    1    2    0    0 -0.27532543174E+03  0.79551703708E+02 -0.62734865864E+03  0.11352465871E+04  0.90171276309E+03 0.  0.
         23    2    4    4    0    0 -0.27111449150E+03 -0.18342876691E+03  0.10257569017E+03  0.35512316809E+03  0.91877702781E+02 0.  0.
         23    2    4    4    0    0 -0.42109402400E+01  0.26298047062E+03 -0.72992434881E+03  0.78012341902E+03  0.81403525499E+02 0.  0.
          1    1    3    3  502    0  0.21116722027E+03 -0.73800652170E+02  0.33041570329E+03  0.39901462149E+03  0.00000000000E+00 0. -1.
         -2    1    3    3    0  502  0.64158211468E+02 -0.57510515376E+01  0.18437077344E+03  0.19529959752E+03  0.00000000000E+00 0.  1.
         11    1    5    5    0    0 -0.24959316312E+03 -0.13389130907E+03  0.68979718338E+02  0.29151643395E+03  0.00000000000E+00 0.  1.
        -11    1    5    5    0    0 -0.21521328383E+02 -0.49537457844E+02  0.33595971836E+02  0.63606734145E+02  0.00000000000E+00 0. -1.
          1    1    6    6  503    0 -0.32715226649E+02  0.61605995801E+02 -0.14632723007E+03  0.16210256948E+03  0.00000000000E+00 0. -1.
         -1    1    6    6    0  503  0.28504286409E+02  0.20137447482E+03 -0.58359711875E+03  0.61802084954E+03  0.00000000000E+00 0.  1.
<mgrwt>
<rscale>  0 0.17258941E+04</rscale>
<asrwt>0</asrwt>
<pdfrwt beam="1">  1        1 0.14170177E+00 0.17258941E+04</pdfrwt>
<pdfrwt beam="2">  1       -2 0.12438451E+00 0.17258941E+04</pdfrwt>
<totfact> 0.70650353E+00</totfact>
</mgrwt>
</event>
<event>
12    4  0.4413110E-008  0.1996586E+04  0.7818608E-02  0.8608218E-01
         -2   -1    0    0    0  501 -0.00000000000E+00  0.00000000000E+00  0.44319258183E+03  0.44319258183E+03  0.00000000000E+00 0.  1.
          1   -1    0    0  501    0  0.00000000000E+00 -0.00000000000E+00 -0.22486588893E+04  0.22486588893E+04  0.00000000000E+00 0. -1.
        -24    2    1    2    0    0  0.60238028071E+03  0.50902793357E+03 -0.67436626876E+03  0.10407327759E+04  0.79896224785E+02 0.  0.
        254    2    1    2    0    0 -0.60238028071E+03 -0.50902793357E+03 -0.11311000387E+04  0.16511186952E+04  0.90820383632E+03 0.  0.
         23    2    4    4    0    0 -0.10442577949E+03  0.10816060346E+03  0.85736462158E+02  0.19595813309E+03  0.91898799880E+02 0.  0.
         23    2    4    4    0    0 -0.49795450122E+03 -0.61718853702E+03 -0.12168365009E+04  0.14551605621E+04  0.88998967007E+02 0.  0.
          1    1    3    3  502    0  0.49603497638E+03  0.39488938726E+03 -0.50585858041E+03  0.81109877903E+03  0.00000000000E+00 0. -1.
         -2    1    3    3    0  502  0.10634530433E+03  0.11413854631E+03 -0.16850768835E+03  0.22963399691E+03  0.00000000000E+00 0.  1.
         11    1    5    5    0    0 -0.35394233821E+02 -0.83440192309E+01  0.13347985787E+01  0.36388956181E+02  0.00000000000E+00 0.  1.
        -11    1    5    5    0    0 -0.69031545668E+02  0.11650462269E+03  0.84401663580E+02  0.15956917691E+03  0.00000000000E+00 0. -1.
          3    1    6    6  503    0 -0.33481625841E+03 -0.36642907647E+03 -0.70272919765E+03  0.86034906881E+03  0.00000000000E+00 0. -1.
         -3    1    6    6    0  503 -0.16313824282E+03 -0.25075946055E+03 -0.51410730323E+03  0.59481149330E+03  0.00000000000E+00 0.  1.
<mgrwt>
<rscale>  0 0.19965860E+04</rscale>
<asrwt>0</asrwt>
<pdfrwt beam="1">  1        1 0.34594751E+00 0.19965860E+04</pdfrwt>
<pdfrwt beam="2">  1       -2 0.68183476E-01 0.19965860E+04</pdfrwt>
<totfact> 0.32384891E+00</totfact>
</mgrwt>
</event>
<event>
12    4  0.4413110E-008  0.3158466E+04  0.7818608E-02  0.8199873E-01
          1   -1    0    0  501    0  0.00000000000E+00  0.00000000000E+00  0.30413113524E+04  0.30413113524E+04  0.00000000000E+00 0. -1.
         -2   -1    0    0    0  501 -0.00000000000E+00 -0.00000000000E+00 -0.82003327104E+03  0.82003327104E+03  0.00000000000E+00 0.  1.
        -24    2    1    2    0    0 -0.96558101512E+03 -0.70505349646E+03  0.20241940884E+04  0.23523103163E+04  0.80962873403E+02 0.  0.
        254    2    1    2    0    0  0.96558101512E+03  0.70505349646E+03  0.19708399287E+03  0.15090343071E+04  0.89938607398E+03 0.  0.
         23    2    4    4    0    0  0.69886567326E+03  0.57853873603E+03 -0.26716313324E+03  0.95078521897E+03  0.97447906635E+02 0.  0.
         23    2    4    4    0    0  0.26671534186E+03  0.12651476043E+03  0.46424712610E+03  0.55824908811E+03  0.94729045662E+02 0.  0.
          1    1    3    3  502    0 -0.67938594979E+03 -0.45117753922E+03  0.13982133926E+04  0.16186806763E+04  0.00000000000E+00 0. -1.
         -4    1    3    3    0  502 -0.28619506533E+03 -0.25387595724E+03  0.62598069585E+03  0.73362963998E+03  0.00000000000E+00 0.  1.
         11    1    5    5    0    0  0.69601572362E+03  0.58241073175E+03 -0.26457650188E+03  0.94532580274E+03  0.00000000000E+00 0. -1.
        -11    1    5    5    0    0  0.28499496336E+01 -0.38719957181E+01 -0.25866313581E+01  0.54594162268E+01  0.00000000000E+00 0.  1.
          2    1    6    6  503    0  0.10516479201E+03  0.36710769108E+01  0.18826392261E+03  0.21567664417E+03  0.00000000000E+00 0. -1.
         -2    1    6    6    0  503  0.16155054986E+03  0.12284368352E+03  0.27598320349E+03  0.34257244394E+03  0.00000000000E+00 0.  1.
<mgrwt>
<rscale>  0 0.31584658E+04</rscale>
<asrwt>0</asrwt>
<pdfrwt beam="1">  1        1 0.46789405E+00 0.31584658E+04</pdfrwt>
<pdfrwt beam="2">  1       -2 0.12615897E+00 0.31584658E+04</pdfrwt>
<totfact> 0.19289652E-01</totfact>
</mgrwt>
</event>
<event>
12    4  0.4413110E-008  0.3291815E+04  0.7818608E-02  0.8164981E-01
          1   -1    0    0  501    0  0.00000000000E+00  0.00000000000E+00  0.11191493183E+04  0.11191493183E+04  0.00000000000E+00 0. -1.
         -2   -1    0    0    0  501 -0.00000000000E+00 -0.00000000000E+00 -0.24205983473E+04  0.24205983473E+04  0.00000000000E+00 0.  1.
        -24    2    1    2    0    0  0.79863505733E+03 -0.69652187573E+03  0.57236532632E+03  0.12069785404E+04  0.78958546209E+02 0.  0.
        254    2    1    2    0    0 -0.79863505733E+03  0.69652187573E+03 -0.18738143553E+04  0.23327691252E+04  0.89870511017E+03 0.  0.
         23    2    4    4    0    0 -0.41298162137E+03  0.49593380216E+02 -0.15380771398E+03  0.45289168750E+03  0.91873525998E+02 0.  0.
         23    2    4    4    0    0 -0.38565343596E+03  0.64692849551E+03 -0.17200066413E+04  0.18798774377E+04  0.90946596805E+02 0.  0.
          3    1    3    3  502    0  0.63904506927E+03 -0.59302945150E+03  0.48533882449E+03  0.99780574535E+03  0.00000000000E+00 0. -1.
         -4    1    3    3    0  502  0.15958998806E+03 -0.10349242423E+03  0.87026501833E+02  0.20917279503E+03  0.00000000000E+00 0.  1.
         11    1    5    5    0    0 -0.41708597917E+03  0.52928959933E+02 -0.15356096105E+03  0.44759709290E+03  0.00000000000E+00 0. -1.
        -11    1    5    5    0    0  0.41043577967E+01 -0.33355797162E+01 -0.24675292922E+00  0.52945945997E+01  0.00000000000E+00 0.  1.
          4    1    6    6  503    0 -0.30309117897E+03  0.45111943279E+03 -0.13044306896E+04  0.14131215197E+04  0.00000000000E+00 0. -1.
         -4    1    6    6    0  503 -0.82562256982E+02  0.19580906272E+03 -0.41557595174E+03  0.46675591800E+03  0.00000000000E+00 0.  1.
<mgrwt>
<rscale>  0 0.32918147E+04</rscale>
<asrwt>0</asrwt>
<pdfrwt beam="1">  1        1 0.17217682E+00 0.32918147E+04</pdfrwt>
<pdfrwt beam="2">  1       -2 0.37239974E+00 0.32918147E+04</pdfrwt>
<totfact> 0.10008909E-01</totfact>
</mgrwt>
</event>
<event>
12    4  0.4413110E-008  0.2347206E+04  0.7818608E-02  0.8459538E-01
          1   -1    0    0  501    0  0.00000000000E+00  0.00000000000E+00  0.26084115814E+04  0.26084115814E+04  0.00000000000E+00 0. -1.
         -2   -1    0    0    0  501 -0.00000000000E+00 -0.00000000000E+00 -0.52803932070E+03  0.52803932070E+03  0.00000000000E+00 0.  1.
        -24    2    1    2    0    0  0.84105016053E+03 -0.52861746001E+03  0.99902331034E+03  0.14111176709E+04  0.80023214514E+02 0.  0.
        254    2    1    2    0    0 -0.84105016053E+03  0.52861746001E+03  0.10813489503E+04  0.17253332312E+04  0.90590143767E+03 0.  0.
         23    2    4    4    0    0 -0.13896303932E+03 -0.19844173906E+03  0.24069848418E+02  0.25991979055E+03  0.91044438678E+02 0.  0.
         23    2    4    4    0    0 -0.70208712121E+03  0.72705919908E+03  0.10572791019E+04  0.14654134407E+04  0.89755490096E+02 0.  0.
          1    1    3    3  502    0  0.46792344159E+02 -0.22328658607E+02  0.78670783490E+02  0.94218812570E+02  0.00000000000E+00 0. -1.
         -2    1    3    3    0  502  0.79425781637E+03 -0.50628880141E+03  0.92035252685E+03  0.13168988583E+04  0.00000000000E+00 0.  1.
         11    1    5    5    0    0 -0.63936478022E+02 -0.23769567381E+02  0.13410339496E+02  0.69517643521E+02  0.00000000000E+00 0. -1.
        -11    1    5    5    0    0 -0.75026561298E+02 -0.17467217168E+03  0.10659508923E+02  0.19040214702E+03  0.00000000000E+00 0.  1.
          2    1    6    6  503    0 -0.30668308923E+03  0.37650901626E+03  0.53279635645E+03  0.72089216530E+03  0.00000000000E+00 0. -1.
         -2    1    6    6    0  503 -0.39540403198E+03  0.35055018282E+03  0.52448274546E+03  0.74452127536E+03  0.00000000000E+00 0.  1.
<mgrwt>
<rscale>  0 0.23472059E+04</rscale>
<asrwt>0</asrwt>
<pdfrwt beam="1">  1        1 0.40129408E+00 0.23472059E+04</pdfrwt>
<pdfrwt beam="2">  1       -2 0.81236820E-01 0.23472059E+04</pdfrwt>
<totfact> 0.12026336E+00</totfact>
</mgrwt>
</event>
<event>
12    4  0.4413110E-008  0.2235508E+04  0.7818608E-02  0.8503792E-01
         -2   -1    0    0    0  501 -0.00000000000E+00  0.00000000000E+00  0.58232314448E+03  0.58232314448E+03  0.00000000000E+00 0.  1.
          1   -1    0    0  501    0  0.00000000000E+00 -0.00000000000E+00 -0.21455003259E+04  0.21455003259E+04  0.00000000000E+00 0. -1.
        -24    2    1    2    0    0 -0.60826129167E+03 -0.41379312830E+03 -0.13638404826E+04  0.15516268624E+04  0.79237025350E+02 0.  0.
        254    2    1    2    0    0  0.60826129167E+03  0.41379312830E+03 -0.19933669882E+03  0.11761966080E+04  0.89582185122E+03 0.  0.
         23    2    4    4    0    0  0.77627801399E+03  0.51653407516E+03 -0.20684444525E+03  0.95955538653E+03  0.92449497012E+02 0.  0.
         23    2    4    4    0    0 -0.16801672231E+03 -0.10274094685E+03  0.75077464332E+01  0.21664122144E+03  0.89954051782E+02 0.  0.
          3    1    3    3  502    0 -0.48684883777E+03 -0.31033567843E+03 -0.11235948152E+04  0.12632479301E+04  0.00000000000E+00 0. -1.
         -4    1    3    3    0  502 -0.12141245391E+03 -0.10345744987E+03 -0.24024566739E+03  0.28837893231E+03  0.00000000000E+00 0.  1.
         11    1    5    5    0    0  0.26700361332E+02  0.35300614319E+02  0.31659746966E+01  0.44374159849E+02  0.00000000000E+00 0. -1.
        -11    1    5    5    0    0  0.74957765265E+03  0.48123346084E+03 -0.21001041995E+03  0.91518122668E+03  0.00000000000E+00 0.  1.
          3    1    6    6  503    0 -0.57672028211E+02 -0.32305192437E+02  0.45596254977E+02  0.80303840284E+02  0.00000000000E+00 0. -1.
         -3    1    6    6    0  503 -0.11034469410E+03 -0.70435754415E+02 -0.38088508544E+02  0.13633738115E+03  0.00000000000E+00 0.  1.
<mgrwt>
<rscale>  0 0.22355084E+04</rscale>
<asrwt>0</asrwt>
<pdfrwt beam="1">  1        1 0.33007697E+00 0.22355084E+04</pdfrwt>
<pdfrwt beam="2">  1       -2 0.89588176E-01 0.22355084E+04</pdfrwt>
<totfact> 0.20238503E+00</totfact>
</mgrwt>
</event>
<event>
12    4  0.4413110E-008  0.2929690E+04  0.7818608E-02  0.8264098E-01
          1   -1    0    0  501    0  0.00000000000E+00  0.00000000000E+00  0.91045902171E+03  0.91045902171E+03  0.00000000000E+00 0. -1.
         -2   -1    0    0    0  501 -0.00000000000E+00 -0.00000000000E+00 -0.23568004578E+04  0.23568004578E+04  0.00000000000E+00 0.  1.
        -24    2    1    2    0    0 -0.27665725671E+03 -0.12829062855E+04 -0.45578205329E+03  0.13914269205E+04  0.77096173873E+02 0.  0.
        254    2    1    2    0    0  0.27665725671E+03  0.12829062855E+04 -0.99055938282E+03  0.18758325590E+04  0.90285775377E+03 0.  0.
         23    2    4    4    0    0  0.48021918052E+03  0.10357563811E+04 -0.10344391866E+04  0.15430997242E+04  0.87695985178E+02 0.  0.
         23    2    4    4    0    0 -0.20356192381E+03  0.24714990441E+03  0.43879803757E+02  0.33273283481E+03  0.79152827578E+02 0.  0.
          1    1    3    3  502    0 -0.74867181402E+02 -0.36500407544E+03 -0.16632366320E+03  0.40803998687E+03  0.00000000000E+00 0. -1.
         -2    1    3    3    0  502 -0.20179007531E+03 -0.91790221003E+03 -0.28945839008E+03  0.98338693365E+03  0.00000000000E+00 0.  1.
         11    1    5    5    0    0  0.27992583097E+03  0.62124842710E+03 -0.67390569918E+03  0.95836160733E+03  0.00000000000E+00 0. -1.
        -11    1    5    5    0    0  0.20029334955E+03  0.41450795397E+03 -0.36053348739E+03  0.58473811686E+03  0.00000000000E+00 0.  1.
          1    1    6    6  503    0 -0.19190466245E+03  0.19116462400E+03  0.49186968064E+02  0.27530105479E+03  0.00000000000E+00 0. -1.
         -1    1    6    6    0  503 -0.11657261360E+02  0.55985280401E+02 -0.53071643062E+01  0.57431780026E+02  0.00000000000E+00 0.  1.
<mgrwt>
<rscale>  0 0.29296896E+04</rscale>
<asrwt>0</asrwt>
<pdfrwt beam="1">  1        1 0.14007062E+00 0.29296896E+04</pdfrwt>
<pdfrwt beam="2">  1       -2 0.36258468E+00 0.29296896E+04</pdfrwt>
<totfact> 0.17346618E-01</totfact>
</mgrwt>
</event>
<event>
12    4  0.4413110E-008  0.1703280E+04  0.7818608E-02  0.8759496E-01
         -2   -1    0    0    0  501 -0.00000000000E+00  0.00000000000E+00  0.10137734347E+04  0.10137734347E+04  0.00000000000E+00 0.  1.
          1   -1    0    0  501    0  0.00000000000E+00 -0.00000000000E+00 -0.71543633522E+03  0.71543633522E+03  0.00000000000E+00 0. -1.
        -24    2    1    2    0    0 -0.32464115672E+03  0.70249333891E+02 -0.38110267483E+03  0.51190689875E+03  0.80514437689E+02 0.  0.
        254    2    1    2    0    0  0.32464115672E+03 -0.70249333891E+02  0.67943977428E+03  0.12173028711E+04  0.95386635524E+03 0.  0.
         23    2    4    4    0    0  0.42066863044E+03 -0.36146594278E+03  0.12377804018E+03  0.57595151460E+03  0.93698556610E+02 0.  0.
         23    2    4    4    0    0 -0.96027473723E+02  0.29121660889E+03  0.55566173411E+03  0.64135135654E+03  0.92429490862E+02 0.  0.
          3    1    3    3  502    0 -0.18549479627E+03  0.14087046673E+02 -0.25653484191E+03  0.31688624054E+03  0.00000000000E+00 0. -1.
         -4    1    3    3    0  502 -0.13914636045E+03  0.56162287218E+02 -0.12456783292E+03  0.19502065822E+03  0.00000000000E+00 0.  1.
         11    1    5    5    0    0  0.30029503435E+03 -0.22679583725E+03  0.45368310748E+02  0.37904055597E+03  0.00000000000E+00 0. -1.
        -11    1    5    5    0    0  0.12037359609E+03 -0.13467010553E+03  0.78409729428E+02  0.19691095863E+03  0.00000000000E+00 0.  1.
          3    1    6    6  503    0 -0.29281282199E+02  0.21538863755E+03  0.41048507816E+03  0.46448644551E+03  0.00000000000E+00 0. -1.
         -3    1    6    6    0  503 -0.66746191524E+02  0.75827971337E+02  0.14517665595E+03  0.17686491102E+03  0.00000000000E+00 0.  1.
<mgrwt>
<rscale>  0 0.17032796E+04</rscale>
<asrwt>0</asrwt>
<pdfrwt beam="1">  1        1 0.11006713E+00 0.17032796E+04</pdfrwt>
<pdfrwt beam="2">  1       -2 0.15596514E+00 0.17032796E+04</pdfrwt>
<totfact> 0.59231296E+00</totfact>
</mgrwt>
</event>
<event>
12    4  0.4413110E-008  0.1798954E+04  0.7818608E-02  0.8706856E-01
         -2   -1    0    0    0  501 -0.00000000000E+00  0.00000000000E+00  0.39768707761E+03  0.39768707761E+03  0.00000000000E+00 0.  1.
          1   -1    0    0  501    0  0.00000000000E+00 -0.00000000000E+00 -0.20344111216E+04  0.20344111216E+04  0.00000000000E+00 0. -1.
        -24    2    1    2    0    0  0.62419005055E+03 -0.94980579532E+02 -0.93243733882E+03  0.11288691757E+04  0.79194036439E+02 0.  0.
        254    2    1    2    0    0 -0.62419005055E+03  0.94980579532E+02 -0.70428670519E+03  0.13032290235E+04  0.89652194334E+03 0.  0.
         23    2    4    4    0    0  0.10243018279E+03 -0.12777585826E+03 -0.46462595731E+03  0.50122139595E+03  0.92341730815E+02 0.  0.
         23    2    4    4    0    0 -0.72662023334E+03  0.22275643779E+03 -0.23966074789E+03  0.80200762755E+03  0.90452012171E+02 0.  0.
          3    1    3    3  502    0  0.48482907092E+03 -0.74154407635E+02 -0.66164667425E+03  0.82361060321E+03  0.00000000000E+00 0. -1.
         -4    1    3    3    0  502  0.13936097962E+03 -0.20826171897E+02 -0.27079066457E+03  0.30525857252E+03  0.00000000000E+00 0.  1.
         11    1    5    5    0    0  0.46781722314E+01  0.14321088807E+02 -0.28654215466E+02  0.32373491378E+02  0.00000000000E+00 0.  1.
        -11    1    5    5    0    0  0.97752010560E+02 -0.14209694706E+03 -0.43597174184E+03  0.46884790457E+03  0.00000000000E+00 0. -1.
          1    1    6    6  503    0 -0.23667211059E+03  0.62608345391E+02 -0.34545788616E+02  0.24723855758E+03  0.00000000000E+00 0. -1.
         -1    1    6    6    0  503 -0.48994812275E+03  0.16014809240E+03 -0.20511495927E+03  0.55476906998E+03  0.00000000000E+00 0.  1.
<mgrwt>
<rscale>  0 0.17989542E+04</rscale>
<asrwt>0</asrwt>
<pdfrwt beam="1">  1        1 0.31298632E+00 0.17989542E+04</pdfrwt>
<pdfrwt beam="2">  1       -2 0.61182629E-01 0.17989542E+04</pdfrwt>
<totfact> 0.58156063E+00</totfact>
</mgrwt>
</event>
<event>
12    4  0.4413110E-008  0.1479544E+04  0.7818608E-02  0.8898171E-01
          3   -1    0    0  501    0  0.00000000000E+00  0.00000000000E+00  0.78872643474E+03  0.78872643474E+03  0.00000000000E+00 0. -1.
         -4   -1    0    0    0  501 -0.00000000000E+00 -0.00000000000E+00 -0.69385577817E+03  0.69385577817E+03  0.00000000000E+00 0.  1.
        -24    2    1    2    0    0  0.34261631011E+02 -0.27813322375E+03  0.40199804628E+03  0.49645443043E+03  0.79577778061E+02 0.  0.
        254    2    1    2    0    0 -0.34261631011E+02  0.27813322375E+03 -0.30712738972E+03  0.98612778248E+03  0.89419730505E+03 0.  0.
         23    2    4    4    0    0 -0.25511499568E+02 -0.20803079523E+03 -0.41977624533E+03  0.47734842069E+03  0.87873603635E+02 0.  0.
         23    2    4    4    0    0 -0.87501314433E+01  0.48616401898E+03  0.11264885561E+03  0.50877936179E+03  0.98664361154E+02 0.  0.
          3    1    3    3  502    0  0.71282066047E+01 -0.22725091497E+03  0.27386522118E+03  0.35594374423E+03  0.00000000000E+00 0. -1.
         -4    1    3    3    0  502  0.27133424406E+02 -0.50882308784E+02  0.12813282510E+03  0.14051068620E+03  0.00000000000E+00 0.  1.
         11    1    5    5    0    0  0.26927389563E+02 -0.41021539688E+02 -0.62209955255E+02  0.79233386649E+02  0.00000000000E+00 0. -1.
        -11    1    5    5    0    0 -0.52438889131E+02 -0.16700925555E+03 -0.35756629008E+03  0.39811503404E+03  0.00000000000E+00 0.  1.
          2    1    6    6  503    0 -0.13364189935E+02  0.11958841438E+03 -0.13477255412E+02  0.12108520487E+03  0.00000000000E+00 0. -1.
         -2    1    6    6    0  503  0.46140584918E+01  0.36657560461E+03  0.12612611102E+03  0.38769415692E+03  0.00000000000E+00 0.  1.
<mgrwt>
<rscale>  0 0.14795437E+04</rscale>
<asrwt>0</asrwt>
<pdfrwt beam="1">  1        3 0.12134253E+00 0.14795437E+04</pdfrwt>
<pdfrwt beam="2">  1       -4 0.10674704E+00 0.14795437E+04</pdfrwt>
<totfact> 0.86174664E-01</totfact>
</mgrwt>
</event>
<event>
12    4  0.4413110E-008  0.1870210E+04  0.7818608E-02  0.8669829E-01
         -2   -1    0    0    0  501 -0.00000000000E+00  0.00000000000E+00  0.23128797089E+03  0.23128797089E+03  0.00000000000E+00 0.  1.
          1   -1    0    0  501    0  0.00000000000E+00 -0.00000000000E+00 -0.37806604319E+04  0.37806604319E+04  0.00000000000E+00 0. -1.
        -24    2    1    2    0    0  0.41260315613E+03  0.23894576801E+03 -0.22115637536E+03  0.53144673131E+03  0.78670460509E+02 0.  0.
        254    2    1    2    0    0 -0.41260315613E+03 -0.23894576801E+03 -0.33282160857E+04  0.34805016715E+04  0.89974058924E+03 0.  0.
         23    2    4    4    0    0 -0.35579393205E+03 -0.56193254333E+03 -0.24048573030E+04  0.24968500318E+04  0.92541493663E+02 0.  0.
         23    2    4    4    0    0 -0.56809224079E+02  0.32298677532E+03 -0.92335878264E+03  0.98365163970E+03  0.86205346891E+02 0.  0.
          3    1    3    3  502    0 -0.12993828342E+01  0.41896709099E+01 -0.98784133828E+01  0.10808551663E+02  0.00000000000E+00 0. -1.
         -4    1    3    3    0  502  0.41390253896E+03  0.23475609710E+03 -0.21127796198E+03  0.52063817964E+03  0.00000000000E+00 0.  1.
         11    1    5    5    0    0 -0.10230278423E+03 -0.17919569192E+03 -0.90947403909E+03  0.93258778860E+03  0.00000000000E+00 0.  1.
        -11    1    5    5    0    0 -0.25349114782E+03 -0.38273685140E+03 -0.14953832639E+04  0.15642622432E+04  0.00000000000E+00 0. -1.
          2    1    6    6  503    0 -0.62147799255E+02  0.13024134178E+03 -0.44823488628E+03  0.47089241801E+03  0.00000000000E+00 0. -1.
         -2    1    6    6    0  503  0.53385751760E+01  0.19274543354E+03 -0.47512389636E+03  0.51275922169E+03  0.00000000000E+00 0.  1.
<mgrwt>
<rscale>  0 0.18702099E+04</rscale>
<asrwt>0</asrwt>
<pdfrwt beam="1">  1        1 0.58164006E+00 0.18702099E+04</pdfrwt>
<pdfrwt beam="2">  1       -2 0.35582765E-01 0.18702099E+04</pdfrwt>
<totfact> 0.91207750E-01</totfact>
</mgrwt>
</event>
<event>
12    4  0.4413110E-008  0.1458040E+04  0.7818608E-02  0.8912846E-01
          1   -1    0    0  501    0  0.00000000000E+00  0.00000000000E+00  0.13409974113E+04  0.13409974113E+04  0.00000000000E+00 0. -1.
         -2   -1    0    0    0  501 -0.00000000000E+00 -0.00000000000E+00 -0.39632437584E+03  0.39632437584E+03  0.00000000000E+00 0.  1.
        -24    2    1    2    0    0 -0.28300267726E+03  0.27573792953E+03  0.76887212312E+02  0.41064658653E+03  0.81222253686E+02 0.  0.
        254    2    1    2    0    0  0.28300267726E+03 -0.27573792953E+03  0.86778582314E+03  0.13266752006E+04  0.92243857895E+03 0.  0.
         23    2    4    4    0    0  0.57803386764E+03 -0.17996320005E+03  0.78138654623E+03  0.99251382855E+03  0.89492232758E+02 0.  0.
         23    2    4    4    0    0 -0.29503119037E+03 -0.95774729478E+02  0.86399276909E+02  0.33416137206E+03  0.89346434875E+02 0.  0.
          3    1    3    3  502    0 -0.96562472139E+02  0.48748343415E+02  0.52582136281E+01  0.10829755686E+03  0.00000000000E+00 0. -1.
         -4    1    3    3    0  502 -0.18644020513E+03  0.22698958611E+03  0.71628998683E+02  0.30234902967E+03  0.00000000000E+00 0.  1.
         11    1    5    5    0    0  0.18867748529E+03 -0.10101854562E+03  0.25148494066E+03  0.33022509807E+03  0.00000000000E+00 0.  1.
        -11    1    5    5    0    0  0.38935638235E+03 -0.78944654429E+02  0.52990160557E+03  0.66228873048E+03  0.00000000000E+00 0. -1.
          3    1    6    6  503    0 -0.26240984109E+03 -0.11022615646E+03  0.63047034049E+02  0.29151956842E+03  0.00000000000E+00 0. -1.
         -3    1    6    6    0  503 -0.32621349284E+02  0.14451426983E+02  0.23352242860E+02  0.42641803638E+02  0.00000000000E+00 0.  1.
<mgrwt>
<rscale>  0 0.14580397E+04</rscale>
<asrwt>0</asrwt>
<pdfrwt beam="1">  1        1 0.20630729E+00 0.14580397E+04</pdfrwt>
<pdfrwt beam="2">  1       -2 0.60972981E-01 0.14580397E+04</pdfrwt>
<totfact> 0.18023915E+01</totfact>
</mgrwt>
</event>
<event>
12    4  0.4413110E-008  0.1529633E+04  0.7818608E-02  0.8864983E-01
          1   -1    0    0  501    0  0.00000000000E+00  0.00000000000E+00  0.19871700206E+04  0.19871700206E+04  0.00000000000E+00 0. -1.
         -2   -1    0    0    0  501 -0.00000000000E+00 -0.00000000000E+00 -0.29436057658E+03  0.29436057658E+03  0.00000000000E+00 0.  1.
        -24    2    1    2    0    0 -0.21703248816E+02 -0.11539315291E+03 -0.16262740033E+03  0.21574761271E+03  0.79452818102E+02 0.  0.
        254    2    1    2    0    0  0.21703248816E+02  0.11539315291E+03  0.18554368444E+04  0.20657829845E+04  0.90057028868E+03 0.  0.
         23    2    4    4    0    0 -0.12763307283E+03 -0.36258414544E+03  0.70745943255E+03  0.80997802186E+03  0.88363360030E+02 0.  0.
         23    2    4    4    0    0  0.14933632165E+03  0.47797729836E+03  0.11479774118E+04  0.12558049626E+04  0.91816836206E+02 0.  0.
          3    1    3    3  502    0 -0.62495267971E+01 -0.48329719236E+02 -0.13145292238E+03  0.14019518233E+03  0.00000000000E+00 0. -1.
         -2    1    3    3    0  502 -0.15453722018E+02 -0.67063433679E+02 -0.31174477948E+02  0.75552430380E+02  0.00000000000E+00 0.  1.
         11    1    5    5    0    0 -0.97943331614E+01 -0.40142516146E+02  0.31921988138E+02  0.52214594620E+02  0.00000000000E+00 0.  1.
        -11    1    5    5    0    0 -0.11783873967E+03 -0.32244162930E+03  0.67553744441E+03  0.75776342724E+03  0.00000000000E+00 0. -1.
          1    1    6    6  503    0  0.14377065787E+03  0.32170346600E+03  0.77270462159E+03  0.84925588272E+03  0.00000000000E+00 0. -1.
         -1    1    6    6    0  503  0.55656637789E+01  0.15627383236E+03  0.37527279023E+03  0.40654907991E+03  0.00000000000E+00 0.  1.
<mgrwt>
<rscale>  0 0.15296333E+04</rscale>
<asrwt>0</asrwt>
<pdfrwt beam="1">  1        1 0.30571846E+00 0.15296333E+04</pdfrwt>
<pdfrwt beam="2">  1       -2 0.45286244E-01 0.15296333E+04</pdfrwt>
<totfact> 0.11916842E+01</totfact>
</mgrwt>
</event>
<event>
12    4  0.4413110E-008  0.1240451E+04  0.7818608E-02  0.9078168E-01
         -2   -1    0    0    0  501 -0.00000000000E+00  0.00000000000E+00  0.29438845384E+03  0.29438845384E+03  0.00000000000E+00 0.  1.
          1   -1    0    0  501    0  0.00000000000E+00 -0.00000000000E+00 -0.13067082232E+04  0.13067082232E+04  0.00000000000E+00 0. -1.
        -24    2    1    2    0    0  0.86637180321E+02 -0.61816705282E+02  0.96825988252E+02  0.16482939728E+03  0.80412387972E+02 0.  0.
        254    2    1    2    0    0 -0.86637180321E+02  0.61816705282E+02 -0.11091457576E+04  0.14362672797E+04  0.90627373414E+03 0.  0.
         23    2    4    4    0    0  0.14584326073E+03 -0.10613528069E+03  0.75788542954E+02  0.21382109299E+03  0.86258924505E+02 0.  0.
         23    2    4    4    0    0 -0.23248044105E+03  0.16795198598E+03 -0.11849343005E+04  0.12224461867E+04  0.89723786286E+02 0.  0.
          1    1    3    3  502    0  0.26353333845E+02 -0.12665310528E+02 -0.11543853599E+02  0.31435153116E+02  0.00000000000E+00 0. -1.
         -2    1    3    3    0  502  0.60283846476E+02 -0.49151394754E+02  0.10836984185E+03  0.13339424416E+03  0.00000000000E+00 0.  1.
         11    1    5    5    0    0 -0.39370064919E+01 -0.12393392350E+02 -0.10934336089E+02  0.16989876391E+02  0.00000000000E+00 0.  1.
        -11    1    5    5    0    0  0.14978026722E+03 -0.93741888344E+02  0.86722879042E+02  0.19683121660E+03  0.00000000000E+00 0. -1.
          4    1    6    6  503    0 -0.20868827525E+03  0.17760392008E+03 -0.11059102754E+04  0.11393557328E+04  0.00000000000E+00 0. -1.
         -4    1    6    6    0  503 -0.23792165797E+02 -0.96519341086E+01 -0.79024025167E+02  0.83090453958E+02  0.00000000000E+00 0.  1.
<mgrwt>
<rscale>  0 0.12404512E+04</rscale>
<asrwt>0</asrwt>
<pdfrwt beam="1">  1        1 0.20103203E+00 0.12404512E+04</pdfrwt>
<pdfrwt beam="2">  1       -2 0.45290532E-01 0.12404512E+04</pdfrwt>
<totfact> 0.35797375E+01</totfact>
</mgrwt>
</event>
<event>
12    4  0.4413110E-008  0.1336069E+04  0.7818608E-02  0.9001441E-01
         -2   -1    0    0    0  501 -0.00000000000E+00  0.00000000000E+00  0.19285596509E+03  0.19285596509E+03  0.00000000000E+00 0.  1.
          1   -1    0    0  501    0  0.00000000000E+00 -0.00000000000E+00 -0.23140060433E+04  0.23140060433E+04  0.00000000000E+00 0. -1.
        -24    2    1    2    0    0  0.23416195278E+02 -0.15408808876E+03  0.22825785838E+02  0.17636530434E+03  0.79323683600E+02 0.  0.
        254    2    1    2    0    0 -0.23416195278E+02  0.15408808876E+03 -0.21439758641E+04  0.23304967041E+04  0.90016161029E+03 0.  0.
         23    2    4    4    0    0 -0.33222654533E+03 -0.20206787306E+03 -0.12963570247E+04  0.13564441067E+04  0.90516167095E+02 0.  0.
         23    2    4    4    0    0  0.30881035006E+03  0.35615596182E+03 -0.84761883940E+03  0.97405259734E+03  0.90054783553E+02 0.  0.
          1    1    3    3  502    0 -0.18908834814E+02 -0.10295775076E+03 -0.40428158829E+01  0.10475775311E+03  0.00000000000E+00 0. -1.
         -2    1    3    3    0  502  0.42325030092E+02 -0.51130337990E+02  0.26868601721E+02  0.71607551234E+02  0.00000000000E+00 0.  1.
         11    1    5    5    0    0 -0.96858157476E+02 -0.22249207300E+02 -0.41140684344E+03  0.42324002732E+03  0.00000000000E+00 0. -1.
        -11    1    5    5    0    0 -0.23536838786E+03 -0.17981866576E+03 -0.88495018122E+03  0.93320407940E+03  0.00000000000E+00 0.  1.
          3    1    6    6  503    0  0.11310397665E+03  0.71717569157E+02 -0.21335651848E+03  0.25190657641E+03  0.00000000000E+00 0. -1.
         -3    1    6    6    0  503  0.19570637341E+03  0.28443839266E+03 -0.63426232092E+03  0.72214602093E+03  0.00000000000E+00 0.  1.
<mgrwt>
<rscale>  0 0.13360687E+04</rscale>
<asrwt>0</asrwt>
<pdfrwt beam="1">  1        1 0.35600095E+00 0.13360687E+04</pdfrwt>
<pdfrwt beam="2">  1       -2 0.29670147E-01 0.13360687E+04</pdfrwt>
<totfact> 0.16441316E+01</totfact>
</mgrwt>
</event>
<event>
12    4  0.4413110E-008  0.1618683E+04  0.7818608E-02  0.8809152E-01
          1   -1    0    0  501    0  0.00000000000E+00  0.00000000000E+00  0.18606645254E+04  0.18606645254E+04  0.00000000000E+00 0. -1.
         -2   -1    0    0    0  501 -0.00000000000E+00 -0.00000000000E+00 -0.35204294700E+03  0.35204294700E+03  0.00000000000E+00 0.  1.
        -24    2    1    2    0    0  0.38644590718E+02 -0.44266386091E+03  0.84017496319E+02  0.45941493387E+03  0.80984218406E+02 0.  0.
        254    2    1    2    0    0 -0.38644590718E+02  0.44266386091E+03  0.14246040820E+04  0.17532925385E+04  0.92037668204E+03 0.  0.
         23    2    4    4    0    0 -0.14447819666E+02  0.49014663495E+03  0.22157256914E+03  0.54627198152E+03  0.94160560449E+02 0.  0.
         23    2    4    4    0    0 -0.24196771052E+02 -0.47482774046E+02  0.12030315129E+04  0.12070205570E+04  0.82302529615E+02 0.  0.
          1    1    3    3  502    0  0.25077319022E+02 -0.83994782690E+02 -0.10414309261E+02  0.88274873469E+02  0.00000000000E+00 0. -1.
         -2    1    3    3    0  502  0.13567271696E+02 -0.35866907822E+03  0.94431805580E+02  0.37114006040E+03  0.00000000000E+00 0.  1.
         11    1    5    5    0    0 -0.52613777617E+02  0.34518500236E+03  0.16281888564E+03  0.38526729029E+03  0.00000000000E+00 0. -1.
        -11    1    5    5    0    0  0.38165957951E+02  0.14496163259E+03  0.58753683497E+02  0.16100469122E+03  0.00000000000E+00 0.  1.
          2    1    6    6  503    0 -0.74057918692E+01  0.23093060690E+02  0.22533505799E+03  0.22663632446E+03  0.00000000000E+00 0. -1.
         -2    1    6    6    0  503 -0.16790979183E+02 -0.70575834736E+02  0.97769645492E+03  0.98038423253E+03  0.00000000000E+00 0.  1.
<mgrwt>
<rscale>  0 0.16186832E+04</rscale>
<asrwt>0</asrwt>
<pdfrwt beam="1">  1        1 0.28625608E+00 0.16186832E+04</pdfrwt>
<pdfrwt beam="2">  1       -2 0.54160454E-01 0.16186832E+04</pdfrwt>
<totfact> 0.10004466E+01</totfact>
</mgrwt>
</event>
<event>
12    4  0.4413110E-008  0.1886973E+04  0.7818608E-02  0.8661368E-01
          1   -1    0    0  501    0  0.00000000000E+00  0.00000000000E+00  0.17585167480E+04  0.17585167480E+04  0.00000000000E+00 0. -1.
         -2   -1    0    0    0  501 -0.00000000000E+00 -0.00000000000E+00 -0.50620339011E+03  0.50620339011E+03  0.00000000000E+00 0.  1.
        -24    2    1    2    0    0 -0.61084476039E+03 -0.31231563084E+03  0.52338370404E+03  0.86643699306E+03  0.78167683411E+02 0.  0.
        254    2    1    2    0    0  0.61084476039E+03  0.31231563084E+03  0.72892965384E+03  0.13982831450E+04  0.97631190656E+03 0.  0.
         23    2    4    4    0    0  0.61340579993E+02  0.10449749152E+03 -0.22701792380E+03  0.27259436503E+03  0.89934184998E+02 0.  0.
         23    2    4    4    0    0  0.54950418040E+03  0.20781813931E+03  0.95594757764E+03  0.11256887800E+04  0.90533059815E+02 0.  0.
          3    1    3    3  502    0 -0.43036253845E+03 -0.21795056803E+03  0.41146376678E+03  0.63404794455E+03  0.00000000000E+00 0. -1.
         -4    1    3    3    0  502 -0.18048222193E+03 -0.94365062812E+02  0.11191993725E+03  0.23238904851E+03  0.00000000000E+00 0.  1.
         11    1    5    5    0    0  0.71310337445E+02  0.11511843027E+03 -0.21284278579E+03  0.25226864387E+03  0.00000000000E+00 0. -1.
        -11    1    5    5    0    0 -0.99697574516E+01 -0.10620938742E+02 -0.14175138012E+02  0.20325721169E+02  0.00000000000E+00 0.  1.
          3    1    6    6  503    0  0.87442376271E+02 -0.15863100396E+00  0.15303531826E+03  0.17625550478E+03  0.00000000000E+00 0. -1.
         -3    1    6    6    0  503  0.46206180412E+03  0.20797677032E+03  0.80291225939E+03  0.94943327522E+03  0.00000000000E+00 0.  1.
<mgrwt>
<rscale>  0 0.18869734E+04</rscale>
<asrwt>0</asrwt>
<pdfrwt beam="1">  1        1 0.27054104E+00 0.18869734E+04</pdfrwt>
<pdfrwt beam="2">  1       -2 0.77877445E-01 0.18869734E+04</pdfrwt>
<totfact> 0.52491406E+00</totfact>
</mgrwt>
</event>
<event>
12    4  0.4413110E-008  0.2300059E+04  0.7818608E-02  0.8477898E-01
          1   -1    0    0  501    0  0.00000000000E+00  0.00000000000E+00  0.18527683774E+04  0.18527683774E+04  0.00000000000E+00 0. -1.
         -2   -1    0    0    0  501 -0.00000000000E+00 -0.00000000000E+00 -0.71383357094E+03  0.71383357094E+03  0.00000000000E+00 0.  1.
        -24    2    1    2    0    0 -0.89210562942E+03  0.42244739774E+02  0.65081475166E+02  0.89922565503E+03  0.82061611990E+02 0.  0.
        254    2    1    2    0    0  0.89210562942E+03 -0.42244739774E+02  0.10738533312E+04  0.16673762933E+04  0.91068416821E+03 0.  0.
         23    2    4    4    0    0  0.34652247316E+03 -0.15609403179E+02  0.10538900010E+04  0.11132794003E+04  0.91571889353E+02 0.  0.
         23    2    4    4    0    0  0.54558315627E+03 -0.26635336595E+02  0.19963330202E+02  0.55409689299E+03  0.90853787528E+02 0.  0.
          3    1    3    3  502    0 -0.26666141320E+03 -0.23298731314E+02  0.84312996232E+01  0.26781005766E+03  0.00000000000E+00 0. -1.
         -4    1    3    3    0  502 -0.62544421623E+03  0.65543471088E+02  0.56650175542E+02  0.63141559737E+03  0.00000000000E+00 0.  1.
         11    1    5    5    0    0  0.29128034107E+03  0.18431288120E+02  0.90398985458E+03  0.94993768567E+03  0.00000000000E+00 0.  1.
        -11    1    5    5    0    0  0.55242132094E+02 -0.34040691299E+02  0.14990014647E+03  0.16334171461E+03  0.00000000000E+00 0. -1.
          2    1    6    6  503    0  0.52166624499E+03 -0.41671009720E+02  0.29818466356E+02  0.52417676899E+03  0.00000000000E+00 0.  1.
         -2    1    6    6    0  503  0.23916911272E+02  0.15035673126E+02 -0.98551361534E+01  0.29920123992E+02  0.00000000000E+00 0. -1.
<mgrwt>
<rscale>  0 0.23000594E+04</rscale>
<asrwt>0</asrwt>
<pdfrwt beam="1">  1        1 0.28504129E+00 0.23000594E+04</pdfrwt>
<pdfrwt beam="2">  1       -2 0.10982055E+00 0.23000594E+04</pdfrwt>
<totfact> 0.19645144E+00</totfact>
</mgrwt>
</event>
<event>
12    4  0.4413110E-008  0.2064351E+04  0.7818608E-02  0.8577112E-01
          1   -1    0    0  501    0  0.00000000000E+00  0.00000000000E+00  0.24400409545E+04  0.24400409545E+04  0.00000000000E+00 0. -1.
         -2   -1    0    0    0  501 -0.00000000000E+00 -0.00000000000E+00 -0.43662640104E+03  0.43662640104E+03  0.00000000000E+00 0.  1.
        -24    2    1    2    0    0 -0.75024348122E+03 -0.35352453245E+03  0.96951252000E+03  0.12782830868E+04  0.78792432080E+02 0.  0.
        254    2    1    2    0    0  0.75024348122E+03  0.35352453245E+03  0.10339020334E+04  0.15983842687E+04  0.89332747613E+03 0.  0.
         23    2    4    4    0    0  0.53837868806E+03  0.64325843574E+03  0.77944543532E+03  0.11486523906E+04  0.90741946962E+02 0.  0.
         23    2    4    4    0    0  0.21186479316E+03 -0.28973390329E+03  0.25445659809E+03  0.44973187809E+03  0.93156731130E+02 0.  0.
          3    1    3    3  502    0 -0.14273701897E+03 -0.44991802182E+02  0.14143922361E+03  0.20592030697E+03  0.00000000000E+00 0. -1.
         -4    1    3    3    0  502 -0.60750646225E+03 -0.30853273027E+03  0.82807329639E+03  0.10723627798E+04  0.00000000000E+00 0.  1.
         11    1    5    5    0    0  0.14852976668E+03  0.13119846240E+03  0.15114785910E+03  0.24923844695E+03  0.00000000000E+00 0. -1.
        -11    1    5    5    0    0  0.38984892138E+03  0.51205997334E+03  0.62829757622E+03  0.89941394368E+03  0.00000000000E+00 0.  1.
          4    1    6    6  503    0  0.19226308198E+03 -0.26764523428E+03  0.25990456245E+03  0.41970161509E+03  0.00000000000E+00 0.  1.
         -4    1    6    6    0  503  0.19601711185E+02 -0.22088669015E+02 -0.54479643574E+01  0.30030263000E+02  0.00000000000E+00 0. -1.
<mgrwt>
<rscale>  0 0.20643510E+04</rscale>
<asrwt>0</asrwt>
<pdfrwt beam="1">  1        1 0.37539091E+00 0.20643510E+04</pdfrwt>
<pdfrwt beam="2">  1       -2 0.67173294E-01 0.20643510E+04</pdfrwt>
<totfact> 0.24573739E+00</totfact>
</mgrwt>
</event>
<event>
12    4  0.4413110E-008  0.3232595E+04  0.7818608E-02  0.8180262E-01
         -2   -1    0    0    0  501 -0.00000000000E+00  0.00000000000E+00  0.13715808606E+04  0.13715808606E+04  0.00000000000E+00 0.  1.
          1   -1    0    0  501    0  0.00000000000E+00 -0.00000000000E+00 -0.19046764258E+04  0.19046764258E+04  0.00000000000E+00 0. -1.
        -24    2    1    2    0    0  0.22893320143E+03 -0.20731003226E+03  0.12364209899E+04  0.12768905218E+04  0.79527858451E+02 0.  0.
        254    2    1    2    0    0 -0.22893320143E+03  0.20731003226E+03 -0.17695165551E+04  0.19993667646E+04  0.87800384995E+03 0.  0.
         23    2    4    4    0    0 -0.14907611716E+03 -0.29612135547E+03 -0.11038572512E+04  0.11562730611E+04  0.92493323139E+02 0.  0.
         23    2    4    4    0    0 -0.79857084268E+02  0.50343138773E+03 -0.66565930388E+03  0.84309370355E+03  0.88793964119E+02 0.  0.
          3    1    3    3  502    0  0.16755492215E+03 -0.10669941002E+03  0.69760192156E+03  0.72533292839E+03  0.00000000000E+00 0. -1.
         -4    1    3    3    0  502  0.61378279278E+02 -0.10061062223E+03  0.53881906835E+03  0.55155759345E+03  0.00000000000E+00 0.  1.
         11    1    5    5    0    0 -0.10998826652E+03 -0.19149410292E+03 -0.86255537863E+03  0.89037587087E+03  0.00000000000E+00 0. -1.
        -11    1    5    5    0    0 -0.39087850644E+02 -0.10462725255E+03 -0.24130187259E+03  0.26589719021E+03  0.00000000000E+00 0.  1.
          1    1    6    6  503    0 -0.85807112264E+02  0.50034156405E+03 -0.64173156494E+03  0.81824442722E+03  0.00000000000E+00 0. -1.
         -1    1    6    6    0  503  0.59500279966E+01  0.30898236796E+01 -0.23927738934E+02  0.24849276328E+02  0.00000000000E+00 0.  1.
<mgrwt>
<rscale>  0 0.32325951E+04</rscale>
<asrwt>0</asrwt>
<pdfrwt beam="1">  1        1 0.29302714E+00 0.32325951E+04</pdfrwt>
<pdfrwt beam="2">  1       -2 0.21101244E+00 0.32325951E+04</pdfrwt>
<totfact> 0.28616319E-01</totfact>
</mgrwt>
</event>
<event>
12    4  0.4413110E-008  0.1461292E+04  0.7818608E-02  0.8910609E-01
         -4   -1    0    0    0  501 -0.00000000000E+00  0.00000000000E+00  0.12533689255E+04  0.12533689255E+04  0.00000000000E+00 0.  1.
          1   -1    0    0  501    0  0.00000000000E+00 -0.00000000000E+00 -0.42592716592E+03  0.42592716592E+03  0.00000000000E+00 0. -1.
        -24    2    1    2    0    0  0.41659481335E+03 -0.77859820102E+02  0.78289812263E+02  0.43815899597E+03  0.78997600893E+02 0.  0.
        254    2    1    2    0    0 -0.41659481335E+03  0.77859820102E+02  0.74915194736E+03  0.12411370955E+04  0.89419195898E+03 0.  0.
         23    2    4    4    0    0 -0.65442921481E+03  0.17396908118E+03  0.67159337418E+03  0.95800399801E+03  0.90505036042E+02 0.  0.
         23    2    4    4    0    0  0.23783440146E+03 -0.96109261082E+02  0.77558573177E+02  0.28313309749E+03  0.91360965626E+02 0.  0.
          1    1    3    3  502    0  0.14008864129E+03 -0.32040944331E+02 -0.10673682687E+02  0.14410196749E+03  0.00000000000E+00 0. -1.
         -2    1    3    3    0  502  0.27650617206E+03 -0.45818875771E+02  0.88963494949E+02  0.29405702848E+03  0.00000000000E+00 0.  1.
         11    1    5    5    0    0 -0.23096077285E+03  0.24141774495E+02  0.26208071938E+03  0.35015997393E+03  0.00000000000E+00 0.  1.
        -11    1    5    5    0    0 -0.42346844196E+03  0.14982730669E+03  0.40951265481E+03  0.60784402408E+03  0.00000000000E+00 0. -1.
          1    1    6    6  503    0  0.24561290250E+03 -0.95324394056E+02  0.79271189496E+02  0.27512971388E+03  0.00000000000E+00 0. -1.
         -1    1    6    6    0  503 -0.77785010373E+01 -0.78486702601E+00 -0.17126163195E+01  0.80033836153E+01  0.00000000000E+00 0.  1.
<mgrwt>
<rscale>  0 0.14612924E+04</rscale>
<asrwt>0</asrwt>
<pdfrwt beam="1">  1        1 0.65527257E-01 0.14612924E+04</pdfrwt>
<pdfrwt beam="2">  1       -4 0.19282599E+00 0.14612924E+04</pdfrwt>
<totfact> 0.37515388E+00</totfact>
</mgrwt>
</event>
<event>
12    4  0.4413110E-008  0.1652031E+04  0.7818608E-02  0.8789206E-01
          1   -1    0    0  501    0  0.00000000000E+00  0.00000000000E+00  0.17821780883E+04  0.17821780883E+04  0.00000000000E+00 0. -1.
         -2   -1    0    0    0  501 -0.00000000000E+00 -0.00000000000E+00 -0.38284725411E+03  0.38284725411E+03  0.00000000000E+00 0.  1.
        -24    2    1    2    0    0 -0.16083889939E+03  0.54315843816E+03  0.60233804802E+03  0.83067835408E+03  0.79530895528E+02 0.  0.
        254    2    1    2    0    0  0.16083889939E+03 -0.54315843816E+03  0.79699278613E+03  0.13343469883E+04  0.90796153195E+03 0.  0.
         23    2    4    4    0    0  0.49653446961E+03 -0.50443377225E+03  0.46552800781E+03  0.85222263012E+03  0.92559035965E+02 0.  0.
         23    2    4    4    0    0 -0.33569557022E+03 -0.38724665908E+02  0.33146477832E+03  0.48212435816E+03  0.91563539944E+02 0.  0.
          1    1    3    3  502    0 -0.35018380863E+00  0.60094604934E+02  0.40097816694E+02  0.72244855003E+02  0.00000000000E+00 0. -1.
         -2    1    3    3    0  502 -0.16048871558E+03  0.48306383322E+03  0.56224023133E+03  0.75843349908E+03  0.00000000000E+00 0.  1.
         11    1    5    5    0    0  0.37274503894E+03 -0.32863570419E+03  0.35298982905E+03  0.60954254120E+03  0.00000000000E+00 0. -1.
        -11    1    5    5    0    0  0.12378943067E+03 -0.17579806806E+03  0.11253817876E+03  0.24268008892E+03  0.00000000000E+00 0.  1.
          3    1    6    6  503    0 -0.28166268475E+03 -0.57090719298E+02  0.30548115387E+03  0.41941858993E+03  0.00000000000E+00 0. -1.
         -3    1    6    6    0  503 -0.54032885470E+02  0.18366053390E+02  0.25983624452E+02  0.62705768227E+02  0.00000000000E+00 0.  1.
<mgrwt>
<rscale>  0 0.16520315E+04</rscale>
<asrwt>0</asrwt>
<pdfrwt beam="1">  1        1 0.27418124E+00 0.16520315E+04</pdfrwt>
<pdfrwt beam="2">  1       -2 0.58899578E-01 0.16520315E+04</pdfrwt>
<totfact> 0.94634807E+00</totfact>
</mgrwt>
</event>
<event>
12    4  0.4413110E-008  0.1450930E+04  0.7818608E-02  0.8917756E-01
          1   -1    0    0  501    0  0.00000000000E+00  0.00000000000E+00  0.30757550269E+04  0.30757550269E+04  0.00000000000E+00 0. -1.
         -2   -1    0    0    0  501 -0.00000000000E+00 -0.00000000000E+00 -0.17111216746E+03  0.17111216746E+03  0.00000000000E+00 0.  1.
        -24    2    1    2    0    0 -0.29046051215E+03  0.33045796102E+03  0.99023126125E+03  0.10865974465E+04  0.81032628996E+02 0.  0.
        254    2    1    2    0    0  0.29046051215E+03 -0.33045796102E+03  0.19144115982E+04  0.21602697478E+04  0.89901270455E+03 0.  0.
         23    2    4    4    0    0  0.34117804212E+03 -0.46076497796E+03  0.59830466062E+03  0.83362066833E+03  0.90819218262E+02 0.  0.
         23    2    4    4    0    0 -0.50717529964E+02  0.13030701694E+03  0.13161069376E+04  0.13266490795E+04  0.91148902900E+02 0.  0.
          1    1    3    3  502    0 -0.29137993468E+03  0.31523104666E+03  0.92725156401E+03  0.10217966246E+04  0.00000000000E+00 0. -1.
         -2    1    3    3    0  502  0.91942252564E+00  0.15226914359E+02  0.62979697245E+02  0.64800821937E+02  0.00000000000E+00 0.  1.
         11    1    5    5    0    0  0.33799377918E+03 -0.44019928782E+03  0.59289043723E+03  0.81211715800E+03  0.00000000000E+00 0.  1.
        -11    1    5    5    0    0  0.31842629322E+01 -0.20565690141E+02  0.54142233917E+01  0.21503510325E+02  0.00000000000E+00 0. -1.
          1    1    6    6  503    0 -0.46533251026E+02  0.11818988702E+02  0.41890878306E+03  0.42165104111E+03  0.00000000000E+00 0. -1.
         -1    1    6    6    0  503 -0.41842789378E+01  0.11848802824E+03  0.89719815449E+03  0.90499803837E+03  0.00000000000E+00 0.  1.
<mgrwt>
<rscale>  0 0.14509295E+04</rscale>
<asrwt>0</asrwt>
<pdfrwt beam="1">  1        1 0.47319304E+00 0.14509295E+04</pdfrwt>
<pdfrwt beam="2">  1       -2 0.26324951E-01 0.14509295E+04</pdfrwt>
<totfact> 0.59019769E+00</totfact>
</mgrwt>
</event>
<event>
12    4  0.4413110E-008  0.1329233E+04  0.7818608E-02  0.9006699E-01
         -2   -1    0    0    0  501 -0.00000000000E+00  0.00000000000E+00  0.64544737183E+03  0.64544737183E+03  0.00000000000E+00 0.  1.
          1   -1    0    0  501    0  0.00000000000E+00 -0.00000000000E+00 -0.68435460055E+03  0.68435460055E+03  0.00000000000E+00 0. -1.
        -24    2    1    2    0    0  0.11789802228E+03 -0.30518819779E+03  0.13021414009E+03  0.36132730260E+03  0.81005663990E+02 0.  0.
        254    2    1    2    0    0 -0.11789802228E+03  0.30518819779E+03 -0.16912136881E+03  0.96847466978E+03  0.89571277142E+03 0.  0.
         23    2    4    4    0    0  0.28177395456E+03 -0.15221119152E+03 -0.23009388785E+02  0.33733450556E+03  0.10344239159E+03 0.  0.
         23    2    4    4    0    0 -0.39967197683E+03  0.45739938931E+03 -0.14611198002E+03  0.63114016422E+03  0.89651022177E+02 0.  0.
          3    1    3    3  502    0  0.10719203530E+03 -0.29044374900E+03  0.14096075068E+03  0.34017295160E+03  0.00000000000E+00 0. -1.
         -4    1    3    3    0  502  0.10705986978E+02 -0.14744448792E+02 -0.10746610591E+02  0.21154351007E+02  0.00000000000E+00 0.  1.
         11    1    5    5    0    0  0.23229959727E+03 -0.11251405158E+03 -0.58485127354E+02  0.26465642788E+03  0.00000000000E+00 0.  1.
        -11    1    5    5    0    0  0.49474357283E+02 -0.39697139939E+02  0.35475738569E+02  0.72678077678E+02  0.00000000000E+00 0. -1.
          4    1    6    6  503    0 -0.36425975869E+03  0.44592943840E+03 -0.14558284497E+03  0.59391295708E+03  0.00000000000E+00 0.  1.
         -4    1    6    6    0  503 -0.35412218144E+02  0.11469950908E+02 -0.52913505086E+00  0.37227207142E+02  0.00000000000E+00 0. -1.
<mgrwt>
<rscale>  0 0.13292327E+04</rscale>
<asrwt>0</asrwt>
<pdfrwt beam="1">  1        1 0.10528532E+00 0.13292327E+04</pdfrwt>
<pdfrwt beam="2">  1       -2 0.99299595E-01 0.13292327E+04</pdfrwt>
<totfact> 0.20328104E+01</totfact>
</mgrwt>
</event>
<event>
12    4  0.4413110E-008  0.3261411E+04  0.7818608E-02  0.8172784E-01
         -2   -1    0    0    0  501 -0.00000000000E+00  0.00000000000E+00  0.18198204203E+04  0.18198204203E+04  0.00000000000E+00 0.  1.
          1   -1    0    0  501    0  0.00000000000E+00 -0.00000000000E+00 -0.14612429472E+04  0.14612429472E+04  0.00000000000E+00 0. -1.
        -24    2    1    2    0    0  0.54004663823E+03  0.93147184383E+03 -0.89400886677E+03  0.14016114227E+04  0.77282333155E+02 0.  0.
        254    2    1    2    0    0 -0.54004663823E+03 -0.93147184383E+03  0.12525863399E+04  0.18794519449E+04  0.89670335498E+03 0.  0.
         23    2    4    4    0    0  0.12206219561E+01  0.11768615446E+02 -0.10231513831E+03  0.13971463328E+03  0.94402335765E+02 0.  0.
         23    2    4    4    0    0 -0.54126726019E+03 -0.94324045928E+03  0.13549014782E+04  0.17397373116E+04  0.90857507667E+02 0.  0.
          1    1    3    3  502    0  0.30889705102E+03  0.57991738380E+03 -0.58284394695E+03  0.87831009709E+03  0.00000000000E+00 0. -1.
         -2    1    3    3    0  502  0.23114958721E+03  0.35155446004E+03 -0.31116491981E+03  0.52330132559E+03  0.00000000000E+00 0.  1.
         11    1    5    5    0    0 -0.12703904398E+02 -0.39595003183E+02 -0.39065984061E+02  0.57055276484E+02  0.00000000000E+00 0.  1.
        -11    1    5    5    0    0  0.13924526354E+02  0.51363618629E+02 -0.63249154246E+02  0.82659356795E+02  0.00000000000E+00 0. -1.
          2    1    6    6  503    0 -0.39225140481E+02 -0.34798852947E+02  0.50826031644E+02  0.73026415117E+02  0.00000000000E+00 0. -1.
         -2    1    6    6    0  503 -0.50204211971E+03 -0.90844160633E+03  0.13040754466E+04  0.16667108965E+04  0.00000000000E+00 0.  1.
<mgrwt>
<rscale>  0 0.32614106E+04</rscale>
<asrwt>0</asrwt>
<pdfrwt beam="1">  1        1 0.22480661E+00 0.32614106E+04</pdfrwt>
<pdfrwt beam="2">  1       -2 0.27997237E+00 0.32614106E+04</pdfrwt>
<totfact> 0.21434515E-01</totfact>
</mgrwt>
</event>
<event>
12    4  0.4413110E-008  0.1419370E+04  0.7818608E-02  0.8939916E-01
          1   -1    0    0  501    0  0.00000000000E+00  0.00000000000E+00  0.13474770664E+04  0.13474770664E+04  0.00000000000E+00 0. -1.
         -2   -1    0    0    0  501 -0.00000000000E+00 -0.00000000000E+00 -0.37377459958E+03  0.37377459958E+03  0.00000000000E+00 0.  1.
        -24    2    1    2    0    0  0.22915075282E+03  0.23160005897E+03 -0.26885167039E+02  0.33631777841E+03  0.78982156448E+02 0.  0.
        254    2    1    2    0    0 -0.22915075282E+03 -0.23160005897E+03  0.10005876339E+04  0.13849338876E+04  0.90039858125E+03 0.  0.
         23    2    4    4    0    0  0.25754529275E+03  0.12948575634E+03  0.15329113377E+03  0.33908141187E+03  0.91552680311E+02 0.  0.
         23    2    4    4    0    0 -0.48669604557E+03 -0.36108581531E+03  0.84729650012E+03  0.10458524757E+04  0.92951789119E+02 0.  0.
          3    1    3    3  502    0  0.38021209187E+02  0.58969658022E+02 -0.35480114587E+02  0.78624878037E+02  0.00000000000E+00 0. -1.
         -4    1    3    3    0  502  0.19112954363E+03  0.17263040095E+03  0.85949475485E+01  0.25769290037E+03  0.00000000000E+00 0.  1.
         11    1    5    5    0    0  0.11524392492E+03  0.18983216049E+02  0.92316155419E+02  0.14887510629E+03  0.00000000000E+00 0.  1.
        -11    1    5    5    0    0  0.14230136783E+03  0.11050254029E+03  0.60974978351E+02  0.19020630558E+03  0.00000000000E+00 0. -1.
          4    1    6    6  503    0 -0.26309269641E+03 -0.25013803036E+03  0.52193568954E+03  0.63577013546E+03  0.00000000000E+00 0.  1.
         -4    1    6    6    0  503 -0.22360334916E+03 -0.11094778495E+03  0.32536081058E+03  0.41008234027E+03  0.00000000000E+00 0. -1.
<mgrwt>
<rscale>  0 0.14193699E+04</rscale>
<asrwt>0</asrwt>
<pdfrwt beam="1">  1        1 0.20730416E+00 0.14193699E+04</pdfrwt>
<pdfrwt beam="2">  1       -2 0.57503785E-01 0.14193699E+04</pdfrwt>
<totfact> 0.20243962E+01</totfact>
</mgrwt>
</event>
<event>
12    4  0.4413110E-008  0.2796032E+04  0.7818608E-02  0.8304501E-01
         -2   -1    0    0    0  501 -0.00000000000E+00  0.00000000000E+00  0.13118798859E+04  0.13118798859E+04  0.00000000000E+00 0.  1.
          1   -1    0    0  501    0  0.00000000000E+00 -0.00000000000E+00 -0.14898074179E+04  0.14898074179E+04  0.00000000000E+00 0. -1.
        -24    2    1    2    0    0 -0.77461037222E+03 -0.97905698653E+03 -0.23917213237E+03  0.12730927129E+04  0.70625315307E+02 0.  0.
        254    2    1    2    0    0  0.77461037222E+03  0.97905698653E+03  0.61244600347E+02  0.15285945909E+04  0.87992994644E+03 0.  0.
         23    2    4    4    0    0  0.13631819717E+02  0.38941296249E+02 -0.25488289997E+03  0.27540320764E+03  0.95809096746E+02 0.  0.
         23    2    4    4    0    0  0.76097855250E+03  0.94011569028E+03  0.31612750032E+03  0.12531913833E+04  0.87442427555E+02 0.  0.
          3    1    3    3  502    0 -0.63583623316E+03 -0.76336983873E+03 -0.20400197970E+03  0.10142179420E+04  0.00000000000E+00 0. -1.
         -4    1    3    3    0  502 -0.13877413906E+03 -0.21568714781E+03 -0.35170152676E+02  0.25887477096E+03  0.00000000000E+00 0.  1.
         11    1    5    5    0    0 -0.23462727077E+02 -0.22078916137E+02 -0.65255047472E+02  0.72774991036E+02  0.00000000000E+00 0. -1.
        -11    1    5    5    0    0  0.37094546794E+02  0.61020212386E+02 -0.18962785250E+03  0.20262821661E+03  0.00000000000E+00 0.  1.
          1    1    6    6  503    0  0.15265233978E+02  0.12440267766E+02  0.16814301801E+02  0.25894176479E+02  0.00000000000E+00 0. -1.
         -1    1    6    6    0  503  0.74571331852E+03  0.92767542252E+03  0.29931319852E+03  0.12272972068E+04  0.00000000000E+00 0.  1.
<mgrwt>
<rscale>  0 0.27960317E+04</rscale>
<asrwt>0</asrwt>
<pdfrwt beam="1">  1        1 0.22920114E+00 0.27960317E+04</pdfrwt>
<pdfrwt beam="2">  1       -2 0.20182767E+00 0.27960317E+04</pdfrwt>
<totfact> 0.65427767E-01</totfact>
</mgrwt>
</event>
<event>
12    4  0.4413110E-008  0.1195745E+04  0.7818608E-02  0.9116589E-01
          1   -1    0    0  501    0  0.00000000000E+00  0.00000000000E+00  0.16514944999E+04  0.16514944999E+04  0.00000000000E+00 0. -1.
         -2   -1    0    0    0  501 -0.00000000000E+00 -0.00000000000E+00 -0.21644123265E+03  0.21644123265E+03  0.00000000000E+00 0.  1.
        -24    2    1    2    0    0 -0.50645690607E+02 -0.12225123438E+03 -0.11209188882E+02  0.15558961495E+03  0.81068687412E+02 0.  0.
        254    2    1    2    0    0  0.50645690607E+02  0.12225123438E+03  0.14462624561E+04  0.17123461176E+04  0.90716249050E+03 0.  0.
         23    2    4    4    0    0 -0.14478732155E+03  0.47420818450E+03  0.78046374676E+03  0.92914521913E+03  0.91380564079E+02 0.  0.
         23    2    4    4    0    0  0.19543301216E+03 -0.35195695011E+03  0.66579870936E+03  0.78320089846E+03  0.89710473163E+02 0.  0.
          3    1    3    3  502    0  0.11315563922E+02 -0.21767779152E+02 -0.27006455820E+02  0.36485981582E+02  0.00000000000E+00 0. -1.
         -4    1    3    3    0  502 -0.61961254529E+02 -0.10048345523E+03  0.15797266937E+02  0.11910363337E+03  0.00000000000E+00 0.  1.
         11    1    5    5    0    0 -0.11826007075E+03  0.28215092708E+03  0.53563066005E+03  0.61684260065E+03  0.00000000000E+00 0.  1.
        -11    1    5    5    0    0 -0.26527250806E+02  0.19205725742E+03  0.24483308671E+03  0.31230261848E+03  0.00000000000E+00 0. -1.
          1    1    6    6  503    0  0.91186021502E+01 -0.86543940352E+02  0.16582499065E+03  0.18727234190E+03  0.00000000000E+00 0. -1.
         -1    1    6    6    0  503  0.18631441001E+03 -0.26541300976E+03  0.49997371871E+03  0.59592855656E+03  0.00000000000E+00 0.  1.
<mgrwt>
<rscale>  0 0.11957450E+04</rscale>
<asrwt>0</asrwt>
<pdfrwt beam="1">  1        1 0.25407607E+00 0.11957450E+04</pdfrwt>
<pdfrwt beam="2">  1       -2 0.33298652E-01 0.11957450E+04</pdfrwt>
<totfact> 0.37665149E+01</totfact>
</mgrwt>
</event>
<event>
12    4  0.4413110E-008  0.1963737E+04  0.7818608E-02  0.8623765E-01
          1   -1    0    0  501    0  0.00000000000E+00  0.00000000000E+00  0.53875403470E+03  0.53875403470E+03  0.00000000000E+00 0. -1.
         -2   -1    0    0    0  501 -0.00000000000E+00 -0.00000000000E+00 -0.17894365656E+04  0.17894365656E+04  0.00000000000E+00 0.  1.
        -24    2    1    2    0    0  0.72877098512E+03 -0.26277099588E+03 -0.43854068169E+03  0.89345745405E+03  0.76108788393E+02 0.  0.
        254    2    1    2    0    0 -0.72877098512E+03  0.26277099588E+03 -0.81214184923E+03  0.14347331463E+04  0.89371643863E+03 0.  0.
         23    2    4    4    0    0  0.10768087939E+03 -0.17924805081E+03 -0.19322697950E+03  0.30058066379E+03  0.96369260316E+02 0.  0.
         23    2    4    4    0    0 -0.83645186451E+03  0.44201904669E+03 -0.61891486973E+03  0.11341524825E+04  0.90629345366E+02 0.  0.
          3    1    3    3  502    0  0.69167457667E+02 -0.27365240034E+01 -0.44801089259E+02  0.82454613955E+02  0.00000000000E+00 0. -1.
         -4    1    3    3    0  502  0.65960352745E+03 -0.26003447188E+03 -0.39373959243E+03  0.81100284009E+03  0.00000000000E+00 0.  1.
         11    1    5    5    0    0  0.50997771968E+02 -0.28619121616E+02 -0.96419378390E+02  0.11276756359E+03  0.00000000000E+00 0. -1.
        -11    1    5    5    0    0  0.56683107423E+02 -0.15062892919E+03 -0.96807601109E+02  0.18781310021E+03  0.00000000000E+00 0.  1.
          3    1    6    6  503    0 -0.10174534696E+02  0.88515861869E+01 -0.24433550500E+02  0.27908244737E+02  0.00000000000E+00 0. -1.
         -3    1    6    6    0  503 -0.82627732982E+03  0.43316746050E+03 -0.59448131923E+03  0.11062442377E+04  0.00000000000E+00 0.  1.
<mgrwt>
<rscale>  0 0.19637374E+04</rscale>
<asrwt>0</asrwt>
<pdfrwt beam="1">  1        1 0.82885237E-01 0.19637374E+04</pdfrwt>
<pdfrwt beam="2">  1       -2 0.27529793E+00 0.19637374E+04</pdfrwt>
<totfact> 0.14643329E+00</totfact>
</mgrwt>
</event>
<event>
12    4  0.4413110E-008  0.2546229E+04  0.7818608E-02  0.8386699E-01
          1   -1    0    0  501    0  0.00000000000E+00  0.00000000000E+00  0.24268740089E+04  0.24268740089E+04  0.00000000000E+00 0. -1.
         -2   -1    0    0    0  501 -0.00000000000E+00 -0.00000000000E+00 -0.66786367457E+03  0.66786367457E+03  0.00000000000E+00 0.  1.
        -24    2    1    2    0    0 -0.29754471481E+03 -0.57097746996E+03  0.18877396629E+04  0.19961119338E+04  0.79710027748E+02 0.  0.
        254    2    1    2    0    0  0.29754471481E+03  0.57097746996E+03 -0.12872932859E+03  0.10986257497E+04  0.88082868337E+03 0.  0.
         23    2    4    4    0    0  0.19088779268E+03  0.72160607061E+03  0.13540924071E+03  0.76403024377E+03  0.90846466047E+02 0.  0.
         23    2    4    4    0    0  0.10665692213E+03 -0.15062860065E+03 -0.26413856930E+03  0.33459550597E+03  0.90112676430E+02 0.  0.
          1    1    3    3  502    0 -0.28113847355E+03 -0.48357262081E+03  0.16013290770E+04  0.16962122903E+04  0.00000000000E+00 0. -1.
         -2    1    3    3    0  502 -0.16406241257E+02 -0.87404849145E+02  0.28641058591E+03  0.29989964343E+03  0.00000000000E+00 0.  1.
         11    1    5    5    0    0  0.11053695454E+03  0.53214644312E+03  0.12655818464E+03  0.55804590254E+03  0.00000000000E+00 0.  1.
        -11    1    5    5    0    0  0.80350838138E+02  0.18945962749E+03  0.88510560673E+01  0.20598434123E+03  0.00000000000E+00 0. -1.
          4    1    6    6  503    0  0.21196878709E+02 -0.91733812574E+01 -0.96363934459E+02  0.99093221035E+02  0.00000000000E+00 0. -1.
         -4    1    6    6    0  503  0.85460043423E+02 -0.14145521939E+03 -0.16777463484E+03  0.23550228494E+03  0.00000000000E+00 0.  1.
<mgrwt>
<rscale>  0 0.25462294E+04</rscale>
<asrwt>0</asrwt>
<pdfrwt beam="1">  1        1 0.37336523E+00 0.25462294E+04</pdfrwt>
<pdfrwt beam="2">  1       -2 0.10274826E+00 0.25462294E+04</pdfrwt>
<totfact> 0.91673208E-01</totfact>
</mgrwt>
</event>
<event>
12    4  0.4413110E-008  0.1633519E+04  0.7818608E-02  0.8800217E-01
          1   -1    0    0  501    0  0.00000000000E+00  0.00000000000E+00  0.13403215075E+04  0.13403215075E+04  0.00000000000E+00 0. -1.
         -2   -1    0    0    0  501 -0.00000000000E+00 -0.00000000000E+00 -0.49771353329E+03  0.49771353329E+03  0.00000000000E+00 0.  1.
        -24    2    1    2    0    0 -0.13570273108E+03 -0.30636981972E+03  0.81110842195E+03  0.88122464714E+03  0.79889354200E+02 0.  0.
        254    2    1    2    0    0  0.13570273108E+03  0.30636981972E+03  0.31499552216E+02  0.95681039360E+03  0.89566523314E+03 0.  0.
         23    2    4    4    0    0  0.23869404841E+03  0.52412221122E+03  0.23489219751E+03  0.62805641716E+03  0.87187026819E+02 0.  0.
         23    2    4    4    0    0 -0.10299131733E+03 -0.21775239150E+03 -0.20339264530E+03  0.32875397644E+03  0.93205651199E+02 0.  0.
          1    1    3    3  502    0 -0.13383675561E+03 -0.28455525658E+03  0.79207846708E+03  0.85221609303E+03  0.00000000000E+00 0. -1.
         -2    1    3    3    0  502 -0.18659754663E+01 -0.21814563143E+02  0.19029954867E+02  0.29008554115E+02  0.00000000000E+00 0.  1.
         11    1    5    5    0    0  0.92994032896E+02  0.26309600874E+03  0.15237671651E+03  0.31794034614E+03  0.00000000000E+00 0. -1.
        -11    1    5    5    0    0  0.14570001551E+03  0.26102620247E+03  0.82515481009E+02  0.31011607102E+03  0.00000000000E+00 0.  1.
          3    1    6    6  503    0 -0.53544086012E+02 -0.11434819288E+03 -0.16522674311E+03  0.20794796224E+03  0.00000000000E+00 0. -1.
         -3    1    6    6    0  503 -0.49447231318E+02 -0.10340419862E+03 -0.38165902190E+02  0.12080601420E+03  0.00000000000E+00 0.  1.
<mgrwt>
<rscale>  0 0.16335191E+04</rscale>
<asrwt>0</asrwt>
<pdfrwt beam="1">  1        1 0.20620331E+00 0.16335191E+04</pdfrwt>
<pdfrwt beam="2">  1       -2 0.76571313E-01 0.16335191E+04</pdfrwt>
<totfact> 0.10837248E+01</totfact>
</mgrwt>
</event>
<event>
12    4  0.4413110E-008  0.1267221E+04  0.7818608E-02  0.9055971E-01
         -2   -1    0    0    0  501 -0.00000000000E+00  0.00000000000E+00  0.45307173065E+03  0.45307173065E+03  0.00000000000E+00 0.  1.
          1   -1    0    0  501    0  0.00000000000E+00 -0.00000000000E+00 -0.88609035638E+03  0.88609035638E+03  0.00000000000E+00 0. -1.
        -24    2    1    2    0    0  0.29937545039E+02  0.14519994809E+03 -0.38396256597E+03  0.41866435698E+03  0.76637524802E+02 0.  0.
        254    2    1    2    0    0 -0.29937545039E+02 -0.14519994809E+03 -0.49056059760E+02  0.92049773006E+03  0.90715505428E+03 0.  0.
         23    2    4    4    0    0 -0.27805709359E+03 -0.26274486687E+03  0.27885696484E+03  0.48227260468E+03  0.92060013134E+02 0.  0.
         23    2    4    4    0    0  0.24811954855E+03  0.11754491879E+03 -0.32791302460E+03  0.43822512538E+03  0.95572959081E+02 0.  0.
          3    1    3    3  502    0 -0.60094880243E+01  0.12410599757E+03 -0.30590977440E+03  0.33018056068E+03  0.00000000000E+00 0. -1.
         -4    1    3    3    0  502  0.35947033063E+02  0.21093950515E+02 -0.78052791570E+02  0.88483796292E+02  0.00000000000E+00 0.  1.
         11    1    5    5    0    0 -0.26156436826E+03 -0.21194086820E+03  0.21692611599E+03  0.40048943826E+03  0.00000000000E+00 0.  1.
        -11    1    5    5    0    0 -0.16492725324E+02 -0.50803998676E+02  0.61930848849E+02  0.81783166417E+02  0.00000000000E+00 0. -1.
          2    1    6    6  503    0  0.24725446787E+02  0.74631736518E+01 -0.90634472312E+02  0.94242528887E+02  0.00000000000E+00 0. -1.
         -2    1    6    6    0  503  0.22339410176E+03  0.11008174514E+03 -0.23727855229E+03  0.34398259649E+03  0.00000000000E+00 0.  1.
<mgrwt>
<rscale>  0 0.12672214E+04</rscale>
<asrwt>0</asrwt>
<pdfrwt beam="1">  1        1 0.13632159E+00 0.12672214E+04</pdfrwt>
<pdfrwt beam="2">  1       -2 0.69703345E-01 0.12672214E+04</pdfrwt>
<totfact> 0.30262877E+01</totfact>
</mgrwt>
</event>
<event>
12    4  0.4413110E-008  0.1463167E+04  0.7818608E-02  0.8909323E-01
         -4   -1    0    0    0  501 -0.00000000000E+00  0.00000000000E+00  0.26727998088E+03  0.26727998088E+03  0.00000000000E+00 0.  1.
          3   -1    0    0  501    0  0.00000000000E+00 -0.00000000000E+00 -0.20024476421E+04  0.20024476421E+04  0.00000000000E+00 0. -1.
        -24    2    1    2    0    0  0.25155738741E+03 -0.12719460747E+03 -0.10412351652E+04  0.10817272529E+04  0.80644858154E+02 0.  0.
        254    2    1    2    0    0 -0.25155738741E+03  0.12719460747E+03 -0.69393249601E+03  0.11880003700E+04  0.92214043555E+03 0.  0.
         23    2    4    4    0    0  0.82446735995E+02 -0.23812728476E+03 -0.62462333792E+03  0.67974724535E+03  0.91651160734E+02 0.  0.
         23    2    4    4    0    0 -0.33400412341E+03  0.36532189223E+03 -0.69309158087E+02  0.50825312469E+03  0.92188068465E+02 0.  0.
          3    1    3    3  502    0  0.16706956143E+03 -0.91553307934E+02 -0.82759265892E+03  0.84923721989E+03  0.00000000000E+00 0. -1.
         -4    1    3    3    0  502  0.84487825986E+02 -0.35641299533E+02 -0.21364250629E+03  0.23249003305E+03  0.00000000000E+00 0.  1.
         11    1    5    5    0    0  0.47549563168E+02 -0.10147754944E+03 -0.39204973091E+03  0.40775194114E+03  0.00000000000E+00 0.  1.
        -11    1    5    5    0    0  0.34897172827E+02 -0.13664973532E+03 -0.23257360702E+03  0.27199530422E+03  0.00000000000E+00 0. -1.
          1    1    6    6  503    0 -0.10963934055E+03  0.18627947051E+03 -0.20970700445E+02  0.21716490602E+03  0.00000000000E+00 0. -1.
         -1    1    6    6    0  503 -0.22436478285E+03  0.17904242172E+03 -0.48338457641E+02  0.29108821867E+03  0.00000000000E+00 0.  1.
<mgrwt>
<rscale>  0 0.14631667E+04</rscale>
<asrwt>0</asrwt>
<pdfrwt beam="1">  1        3 0.30806887E+00 0.14631667E+04</pdfrwt>
<pdfrwt beam="2">  1       -4 0.41119997E-01 0.14631667E+04</pdfrwt>
<totfact> 0.45006082E-01</totfact>
</mgrwt>
</event>
<event>
12    4  0.4413110E-008  0.2839685E+04  0.7818608E-02  0.8291053E-01
         -2   -1    0    0    0  501 -0.00000000000E+00  0.00000000000E+00  0.73346956695E+03  0.73346956695E+03  0.00000000000E+00 0.  1.
          1   -1    0    0  501    0  0.00000000000E+00 -0.00000000000E+00 -0.27485153228E+04  0.27485153228E+04  0.00000000000E+00 0. -1.
        -24    2    1    2    0    0 -0.10287618940E+04  0.27587004130E+03 -0.17658409019E+04  0.20636815471E+04  0.78307872058E+02 0.  0.
        254    2    1    2    0    0  0.10287618940E+04 -0.27587004130E+03 -0.24920485397E+03  0.14183033427E+04  0.90278790333E+03 0.  0.
         23    2    4    4    0    0  0.60599194205E+03  0.29427756268E+03 -0.13968216472E+03  0.69436910425E+03  0.93871337836E+02 0.  0.
         23    2    4    4    0    0  0.42276995193E+03 -0.57014760398E+03 -0.10952268925E+03  0.72393423843E+03  0.91010106709E+02 0.  0.
          3    1    3    3  502    0 -0.25487498824E+03  0.53733322257E+02 -0.49271587764E+03  0.55733066095E+03  0.00000000000E+00 0. -1.
         -4    1    3    3    0  502 -0.77388690573E+03  0.22213671904E+03 -0.12731250242E+04  0.15063508861E+04  0.00000000000E+00 0.  1.
         11    1    5    5    0    0  0.92771195563E+01  0.15587777369E+02 -0.16170231466E+02  0.24300620079E+02  0.00000000000E+00 0. -1.
        -11    1    5    5    0    0  0.59671482249E+03  0.27868978531E+03 -0.12351193326E+03  0.67006848417E+03  0.00000000000E+00 0.  1.
          3    1    6    6  503    0  0.68248384951E+02 -0.12008561142E+03 -0.54080467058E+02  0.14833439600E+03  0.00000000000E+00 0. -1.
         -3    1    6    6    0  503  0.35452156698E+03 -0.45006199256E+03 -0.55442222192E+02  0.57559984243E+03  0.00000000000E+00 0.  1.
<mgrwt>
<rscale>  0 0.28396847E+04</rscale>
<asrwt>0</asrwt>
<pdfrwt beam="1">  1        1 0.42284851E+00 0.28396847E+04</pdfrwt>
<pdfrwt beam="2">  1       -2 0.11284147E+00 0.28396847E+04</pdfrwt>
<totfact> 0.42482574E-01</totfact>
</mgrwt>
</event>
<event>
12    4  0.4413110E-008  0.1449567E+04  0.7818608E-02  0.8918701E-01
         -2   -1    0    0    0  501 -0.00000000000E+00  0.00000000000E+00  0.24598739948E+03  0.24598739948E+03  0.00000000000E+00 0.  1.
          1   -1    0    0  501    0  0.00000000000E+00 -0.00000000000E+00 -0.21355205397E+04  0.21355205397E+04  0.00000000000E+00 0. -1.
        -24    2    1    2    0    0 -0.35361661580E+02  0.18478395635E+03 -0.11677517983E+04  0.11854645468E+04  0.79286643018E+02 0.  0.
        254    2    1    2    0    0  0.35361661580E+02 -0.18478395635E+03 -0.72178134188E+03  0.11960433923E+04  0.93496306512E+03 0.  0.
         23    2    4    4    0    0  0.33526193503E+03 -0.31034500720E+03 -0.84072399018E+02  0.47348652426E+03  0.91688231538E+02 0.  0.
         23    2    4    4    0    0 -0.29990027345E+03  0.12556105085E+03 -0.63770894286E+03  0.72255686804E+03  0.98539232012E+02 0.  0.
          1    1    3    3  502    0  0.48454045999E+01  0.11225174394E+03 -0.83542197707E+03  0.84294354007E+03  0.00000000000E+00 0. -1.
         -2    1    3    3    0  502 -0.40207066180E+02  0.72532212416E+02 -0.33232982122E+03  0.34252100678E+03  0.00000000000E+00 0.  1.
         11    1    5    5    0    0  0.72208955496E+02 -0.31824216554E+02 -0.38113401440E+02  0.87633015368E+02  0.00000000000E+00 0. -1.
        -11    1    5    5    0    0  0.26305297953E+03 -0.27852079065E+03 -0.45958997577E+02  0.38585350889E+03  0.00000000000E+00 0.  1.
          3    1    6    6  503    0 -0.17507640538E+03  0.98007310667E+02 -0.29483714343E+03  0.35663163321E+03  0.00000000000E+00 0. -1.
         -3    1    6    6    0  503 -0.12482386807E+03  0.27553740185E+02 -0.34287179943E+03  0.36592523483E+03  0.00000000000E+00 0.  1.
<mgrwt>
<rscale>  0 0.14495670E+04</rscale>
<asrwt>0</asrwt>
<pdfrwt beam="1">  1        1 0.32854163E+00 0.14495670E+04</pdfrwt>
<pdfrwt beam="2">  1       -2 0.37844214E-01 0.14495670E+04</pdfrwt>
<totfact> 0.13560928E+01</totfact>
</mgrwt>
</event>
<event>
12    4  0.4413110E-008  0.2049019E+04  0.7818608E-02  0.8584039E-01
         -2   -1    0    0    0  501 -0.00000000000E+00  0.00000000000E+00  0.86492796176E+03  0.86492796176E+03  0.00000000000E+00 0.  1.
          1   -1    0    0  501    0  0.00000000000E+00 -0.00000000000E+00 -0.12135347790E+04  0.12135347790E+04  0.00000000000E+00 0. -1.
        -24    2    1    2    0    0  0.31629821684E+02  0.82432462557E+03 -0.13486398014E+03  0.83964319970E+03  0.79378055766E+02 0.  0.
        254    2    1    2    0    0 -0.31629821684E+02 -0.82432462557E+03 -0.21374283710E+03  0.12388195411E+04  0.89915311320E+03 0.  0.
         23    2    4    4    0    0 -0.40915704760E+03 -0.69281208937E+03 -0.13954860335E+03  0.82167305583E+03  0.90965472600E+02 0.  0.
         23    2    4    4    0    0  0.37752722592E+03 -0.13151253620E+03 -0.74194233753E+02  0.41714648524E+03  0.93188262856E+02 0.  0.
          3    1    3    3  502    0  0.29571181300E+02  0.80193679242E+03 -0.11708040672E+03  0.81097774041E+03  0.00000000000E+00 0. -1.
         -4    1    3    3    0  502  0.20586403838E+01  0.22387833145E+02 -0.17783573415E+02  0.28665459294E+02  0.00000000000E+00 0.  1.
         11    1    5    5    0    0 -0.31197259119E+02 -0.97717097755E+02  0.21422736948E+01  0.10259868180E+03  0.00000000000E+00 0.  1.
        -11    1    5    5    0    0 -0.37795978848E+03 -0.59509499161E+03 -0.14169087705E+03  0.71907437403E+03  0.00000000000E+00 0. -1.
          3    1    6    6  503    0  0.13592713429E+03 -0.74834137093E+02  0.89650619779E+01  0.15542427818E+03  0.00000000000E+00 0. -1.
         -3    1    6    6    0  503  0.24160009163E+03 -0.56678399104E+02 -0.83159295731E+02  0.26172220706E+03  0.00000000000E+00 0.  1.
<mgrwt>
<rscale>  0 0.20490194E+04</rscale>
<asrwt>0</asrwt>
<pdfrwt beam="1">  1        1 0.18669766E+00 0.20490194E+04</pdfrwt>
<pdfrwt beam="2">  1       -2 0.13306584E+00 0.20490194E+04</pdfrwt>
<totfact> 0.34645428E+00</totfact>
</mgrwt>
</event>
<event>
12    4  0.4413110E-008  0.1772416E+04  0.7818608E-02  0.8721107E-01
         -2   -1    0    0    0  501 -0.00000000000E+00  0.00000000000E+00  0.37165271937E+03  0.37165271937E+03  0.00000000000E+00 0.  1.
          1   -1    0    0  501    0  0.00000000000E+00 -0.00000000000E+00 -0.21131683290E+04  0.21131683290E+04  0.00000000000E+00 0. -1.
        -24    2    1    2    0    0  0.15972391873E+03 -0.62468503622E+03 -0.79399871597E+03  0.10259643335E+04  0.80160637842E+02 0.  0.
        254    2    1    2    0    0 -0.15972391873E+03  0.62468503622E+03 -0.94751689368E+03  0.14588567149E+04  0.90262479813E+03 0.  0.
         23    2    4    4    0    0 -0.15909677758E+03 -0.16717772924E+03 -0.46341788572E+03  0.52636297271E+03  0.95087667162E+02 0.  0.
         23    2    4    4    0    0 -0.62714115524E+00  0.79186276546E+03 -0.48409900797E+03  0.93249374223E+03  0.90253516021E+02 0.  0.
          3    1    3    3  502    0  0.27477633203E+02 -0.19137715774E+03 -0.28694451353E+03  0.34600200964E+03  0.00000000000E+00 0. -1.
         -4    1    3    3    0  502  0.13224628553E+03 -0.43330787847E+03 -0.50705420244E+03  0.67996232381E+03  0.00000000000E+00 0.  1.
         11    1    5    5    0    0 -0.71179434930E+02 -0.19928835498E+02 -0.98453485852E+02  0.12311279104E+03  0.00000000000E+00 0. -1.
        -11    1    5    5    0    0 -0.87917342646E+02 -0.14724889374E+03 -0.36496439986E+03  0.40325018167E+03  0.00000000000E+00 0.  1.
          3    1    6    6  503    0  0.68734998293E+01  0.32526424310E+03 -0.25068630955E+03  0.41071608032E+03  0.00000000000E+00 0. -1.
         -3    1    6    6    0  503 -0.75006409846E+01  0.46659852236E+03 -0.23341269842E+03  0.52177766191E+03  0.00000000000E+00 0.  1.
<mgrwt>
<rscale>  0 0.17724162E+04</rscale>
<asrwt>0</asrwt>
<pdfrwt beam="1">  1        1 0.32510282E+00 0.17724162E+04</pdfrwt>
<pdfrwt beam="2">  1       -2 0.57177342E-01 0.17724162E+04</pdfrwt>
<totfact> 0.59455955E+00</totfact>
</mgrwt>
</event>
<event>
12    4  0.4413110E-008  0.1545922E+04  0.7818608E-02  0.8854477E-01
          1   -1    0    0  501    0  0.00000000000E+00  0.00000000000E+00  0.76549147074E+03  0.76549147074E+03  0.00000000000E+00 0. -1.
         -4   -1    0    0    0  501 -0.00000000000E+00 -0.00000000000E+00 -0.78050373345E+03  0.78050373345E+03  0.00000000000E+00 0.  1.
        -24    2    1    2    0    0  0.37932818238E+03  0.15866942624E+03  0.28139743514E+03  0.50466693421E+03  0.80239274721E+02 0.  0.
        254    2    1    2    0    0 -0.37932818238E+03 -0.15866942624E+03 -0.29640969784E+03  0.10413282700E+04  0.90963729042E+03 0.  0.
         23    2    4    4    0    0 -0.12911061899E+03 -0.15983590287E+03  0.30832405937E+03  0.38051621199E+03  0.86670607619E+02 0.  0.
         23    2    4    4    0    0 -0.25021756340E+03  0.11664766281E+01 -0.60473375721E+03  0.66081205799E+03  0.91430132767E+02 0.  0.
          1    1    3    3  502    0  0.18060139934E+03  0.10468584382E+03  0.17750815002E+03  0.27401666858E+03  0.00000000000E+00 0. -1.
         -2    1    3    3    0  502  0.19872678304E+03  0.53983582421E+02  0.10388928512E+03  0.23065026562E+03  0.00000000000E+00 0.  1.
         11    1    5    5    0    0 -0.13802918403E+03 -0.13667226174E+03  0.29235202435E+03  0.35100009817E+03  0.00000000000E+00 0.  1.
        -11    1    5    5    0    0  0.89185650438E+01 -0.23163641127E+02  0.15972035016E+02  0.29516113823E+02  0.00000000000E+00 0. -1.
          1    1    6    6  503    0 -0.90020275762E+02  0.19195173486E+02 -0.12873450207E+03  0.15825510026E+03  0.00000000000E+00 0. -1.
         -1    1    6    6    0  503 -0.16019728763E+03 -0.18028696858E+02 -0.47599925514E+03  0.50255695774E+03  0.00000000000E+00 0.  1.
<mgrwt>
<rscale>  0 0.15459223E+04</rscale>
<asrwt>0</asrwt>
<pdfrwt beam="1">  1        1 0.11776792E+00 0.15459223E+04</pdfrwt>
<pdfrwt beam="2">  1       -4 0.12007750E+00 0.15459223E+04</pdfrwt>
<totfact> 0.58401388E+00</totfact>
</mgrwt>
</event>
<event>
12    4  0.4413110E-008  0.1277547E+04  0.7818608E-02  0.9047563E-01
          3   -1    0    0  501    0  0.00000000000E+00  0.00000000000E+00  0.56481467142E+03  0.56481467142E+03  0.00000000000E+00 0. -1.
         -4   -1    0    0    0  501 -0.00000000000E+00 -0.00000000000E+00 -0.72241681001E+03  0.72241681001E+03  0.00000000000E+00 0.  1.
        -24    2    1    2    0    0 -0.24403000109E+03  0.11415082065E+03  0.10396170474E+03  0.29990623207E+03  0.80960859026E+02 0.  0.
        254    2    1    2    0    0  0.24403000109E+03 -0.11415082065E+03 -0.26156384333E+03  0.98732524937E+03  0.91313441103E+03 0.  0.
         23    2    4    4    0    0 -0.16958479366E+02 -0.33332453165E+03 -0.46558539123E+03  0.57982867220E+03  0.89658792937E+02 0.  0.
         23    2    4    4    0    0  0.26098848046E+03  0.21917371100E+03  0.20402154790E+03  0.40749657717E+03  0.90975633371E+02 0.  0.
          1    1    3    3  502    0 -0.18928551778E+03  0.55270255464E+02  0.95395975884E+02  0.21905296299E+03  0.00000000000E+00 0. -1.
         -2    1    3    3    0  502 -0.54744483308E+02  0.58880565186E+02  0.85657288533E+01  0.80853269075E+02  0.00000000000E+00 0.  1.
         11    1    5    5    0    0 -0.47468823072E+02 -0.15426265525E+03 -0.18419786252E+03  0.24490632602E+03  0.00000000000E+00 0. -1.
        -11    1    5    5    0    0  0.30510343706E+02 -0.17906187640E+03 -0.28138752871E+03  0.33492234618E+03  0.00000000000E+00 0.  1.
          3    1    6    6  503    0  0.15286285676E+02 -0.76197846056E+01  0.18200999203E+02  0.24960128589E+02  0.00000000000E+00 0. -1.
         -3    1    6    6    0  503  0.24570219478E+03  0.22679349561E+03  0.18582054870E+03  0.38253644858E+03  0.00000000000E+00 0.  1.
<mgrwt>
<rscale>  0 0.12775470E+04</rscale>
<asrwt>0</asrwt>
<pdfrwt beam="1">  1        3 0.86894564E-01 0.12775470E+04</pdfrwt>
<pdfrwt beam="2">  1       -4 0.11114105E+00 0.12775470E+04</pdfrwt>
<totfact> 0.17355512E+00</totfact>
</mgrwt>
</event>
<event>
12    4  0.4413110E-008  0.3041184E+04  0.7818608E-02  0.8232067E-01
         -2   -1    0    0    0  501 -0.00000000000E+00  0.00000000000E+00  0.11603317960E+04  0.11603317960E+04  0.00000000000E+00 0.  1.
          1   -1    0    0  501    0  0.00000000000E+00 -0.00000000000E+00 -0.19927063668E+04  0.19927063668E+04  0.00000000000E+00 0. -1.
        -24    2    1    2    0    0 -0.24862457802E+03  0.19153736177E+03 -0.17821955579E+04  0.18113661789E+04  0.79534179856E+02 0.  0.
        254    2    1    2    0    0  0.24862457802E+03 -0.19153736177E+03  0.94982098706E+03  0.13416719839E+04  0.89410461528E+03 0.  0.
         23    2    4    4    0    0  0.12116672160E+03  0.18749034980E+03 -0.62224192316E+02  0.24944888007E+03  0.92297822124E+02 0.  0.
         23    2    4    4    0    0  0.12745785642E+03 -0.37902771157E+03  0.10120451794E+04  0.10922231038E+04  0.93852821235E+02 0.  0.
          3    1    3    3  502    0 -0.14776883114E+03  0.10168307317E+03 -0.79581263971E+03  0.81577744045E+03  0.00000000000E+00 0. -1.
         -4    1    3    3    0  502 -0.10085574688E+03  0.89854288602E+02 -0.98638291815E+03  0.99558873843E+03  0.00000000000E+00 0.  1.
         11    1    5    5    0    0 -0.78464408700E+01  0.51284626993E+02 -0.28712357696E+00  0.51882193864E+02  0.00000000000E+00 0. -1.
        -11    1    5    5    0    0  0.12901316247E+03  0.13620572280E+03 -0.61937068739E+02  0.19756668621E+03  0.00000000000E+00 0.  1.
          2    1    6    6  503    0  0.35605207250E+02 -0.43437941577E+02  0.83504689376E+02  0.10063607057E+03  0.00000000000E+00 0. -1.
         -2    1    6    6    0  503  0.91852649174E+02 -0.33558976999E+03  0.92854049000E+03  0.99158703322E+03  0.00000000000E+00 0.  1.
<mgrwt>
<rscale>  0 0.30411843E+04</rscale>
<asrwt>0</asrwt>
<pdfrwt beam="1">  1        1 0.30657021E+00 0.30411843E+04</pdfrwt>
<pdfrwt beam="2">  1       -2 0.17851259E+00 0.30411843E+04</pdfrwt>
<totfact> 0.41729443E-01</totfact>
</mgrwt>
</event>
<event>
12    4  0.4413110E-008  0.1367046E+04  0.7818608E-02  0.8978024E-01
         -2   -1    0    0    0  501 -0.00000000000E+00  0.00000000000E+00  0.30836265011E+03  0.30836265011E+03  0.00000000000E+00 0.  1.
          1   -1    0    0  501    0  0.00000000000E+00 -0.00000000000E+00 -0.15151101584E+04  0.15151101584E+04  0.00000000000E+00 0. -1.
        -24    2    1    2    0    0  0.39468388463E+02  0.18638987138E+03 -0.79836041713E+03  0.82463046928E+03  0.79606013495E+02 0.  0.
        254    2    1    2    0    0 -0.39468388463E+02 -0.18638987138E+03 -0.40838709117E+03  0.99884233923E+03  0.89140735053E+03 0.  0.
         23    2    4    4    0    0  0.15765546564E+03 -0.41363585846E+03 -0.49777803373E+03  0.67237983391E+03  0.91442883481E+02 0.  0.
         23    2    4    4    0    0 -0.19712385410E+03  0.22724598708E+03  0.89390942565E+02  0.32646250532E+03  0.89935945366E+02 0.  0.
          3    1    3    3  502    0 -0.15271623561E+02  0.11617674871E+03 -0.47473655250E+03  0.48898369472E+03  0.00000000000E+00 0. -1.
         -4    1    3    3    0  502  0.54740012025E+02  0.70213122671E+02 -0.32362386463E+03  0.33564677456E+03  0.00000000000E+00 0.  1.
         11    1    5    5    0    0  0.50243600192E+01  0.88847249854E+00 -0.24339938876E+02  0.24868980708E+02  0.00000000000E+00 0.  1.
        -11    1    5    5    0    0  0.15263110562E+03 -0.41452433096E+03 -0.47343809486E+03  0.64751085321E+03  0.00000000000E+00 0. -1.
          2    1    6    6  503    0 -0.18537855286E+03  0.22764806970E+03  0.10048606767E+03  0.31030034046E+03  0.00000000000E+00 0. -1.
         -2    1    6    6    0  503 -0.11745301246E+02 -0.40208262281E+00 -0.11095125103E+02  0.16162164856E+02  0.00000000000E+00 0.  1.
<mgrwt>
<rscale>  0 0.13670455E+04</rscale>
<asrwt>0</asrwt>
<pdfrwt beam="1">  1        1 0.23309387E+00 0.13670455E+04</pdfrwt>
<pdfrwt beam="2">  1       -2 0.47440408E-01 0.13670455E+04</pdfrwt>
<totfact> 0.23064714E+01</totfact>
</mgrwt>
</event>
<event>
12    4  0.4413110E-008  0.2205972E+04  0.7818608E-02  0.8515947E-01
          1   -1    0    0  501    0  0.00000000000E+00  0.00000000000E+00  0.17114362530E+04  0.17114362530E+04  0.00000000000E+00 0. -1.
         -2   -1    0    0    0  501 -0.00000000000E+00 -0.00000000000E+00 -0.71085217820E+03  0.71085217820E+03  0.00000000000E+00 0.  1.
        -24    2    1    2    0    0  0.82784041153E+03  0.22840274983E+03  0.74822636840E+03  0.11417476859E+04  0.79104467186E+02 0.  0.
        254    2    1    2    0    0 -0.82784041153E+03 -0.22840274983E+03  0.25235770638E+03  0.12805407453E+04  0.91575795128E+03 0.  0.
         23    2    4    4    0    0 -0.38021820270E+03  0.28553922772E+03 -0.11959748072E+03  0.49884044648E+03  0.91867847589E+02 0.  0.
         23    2    4    4    0    0 -0.44762220883E+03 -0.51394197755E+03  0.37195518710E+03  0.78170029883E+03  0.90568746582E+02 0.  0.
          3    1    3    3  502    0  0.82424595725E+03  0.23191402444E+03  0.74758274139E+03  0.11366817796E+04  0.00000000000E+00 0. -1.
         -4    1    3    3    0  502  0.35944542852E+01 -0.35112746083E+01  0.64362700904E+00  0.50659063069E+01  0.00000000000E+00 0.  1.
         11    1    5    5    0    0 -0.21328844252E+03  0.15014933458E+03 -0.18996576799E+02  0.26152944828E+03  0.00000000000E+00 0. -1.
        -11    1    5    5    0    0 -0.16692976018E+03  0.13538989313E+03 -0.10060090392E+03  0.23731099820E+03  0.00000000000E+00 0.  1.
          3    1    6    6  503    0 -0.18748214022E+03 -0.26440139856E+03  0.14017543353E+03  0.35313850629E+03  0.00000000000E+00 0. -1.
         -3    1    6    6    0  503 -0.26014006861E+03 -0.24954057899E+03  0.23177975357E+03  0.42856179254E+03  0.00000000000E+00 0.  1.
<mgrwt>
<rscale>  0 0.22059721E+04</rscale>
<asrwt>0</asrwt>
<pdfrwt beam="1">  1        1 0.26329788E+00 0.22059721E+04</pdfrwt>
<pdfrwt beam="2">  1       -2 0.10936187E+00 0.22059721E+04</pdfrwt>
<totfact> 0.24960840E+00</totfact>
</mgrwt>
</event>
<event>
12    4  0.4413110E-008  0.1030589E+04  0.7818608E-02  0.9275618E-01
          3   -1    0    0  501    0  0.00000000000E+00  0.00000000000E+00  0.14397005941E+04  0.14397005941E+04  0.00000000000E+00 0. -1.
         -4   -1    0    0    0  501 -0.00000000000E+00 -0.00000000000E+00 -0.18443292821E+03  0.18443292821E+03  0.00000000000E+00 0.  1.
        -24    2    1    2    0    0 -0.42685024830E+02 -0.71578578927E+02  0.23483269720E+03  0.26161068421E+03  0.79675906737E+02 0.  0.
        254    2    1    2    0    0  0.42685024830E+02  0.71578578927E+02  0.10204349687E+04  0.13625228381E+04  0.89901916260E+03 0.  0.
         23    2    4    4    0    0 -0.24246543982E+02 -0.37412044983E+03  0.70822712963E+03  0.80670310525E+03  0.92899015040E+02 0.  0.
         23    2    4    4    0    0  0.66931568812E+02  0.44569902876E+03  0.31220783910E+03  0.55581973289E+03  0.91292833952E+02 0.  0.
          3    1    3    3  502    0 -0.53955395488E+02 -0.54393043303E+02  0.22706196503E+03  0.23963915336E+03  0.00000000000E+00 0. -1.
         -4    1    3    3    0  502  0.11270370658E+02 -0.17185535625E+02  0.77707321736E+01  0.21971530852E+02  0.00000000000E+00 0.  1.
         11    1    5    5    0    0 -0.29301670358E+02 -0.67786673026E+02  0.20089159517E+03  0.21403516986E+03  0.00000000000E+00 0. -1.
        -11    1    5    5    0    0  0.50551263759E+01 -0.30633377680E+03  0.50733553446E+03  0.59266793539E+03  0.00000000000E+00 0.  1.
          1    1    6    6  503    0  0.76371338448E+01  0.85293932954E+02  0.10638622964E+03  0.13657016757E+03  0.00000000000E+00 0. -1.
         -1    1    6    6    0  503  0.59294434967E+02  0.36040509580E+03  0.20582160946E+03  0.41924956532E+03  0.00000000000E+00 0.  1.
<mgrwt>
<rscale>  0 0.10305886E+04</rscale>
<asrwt>0</asrwt>
<pdfrwt beam="1">  1        3 0.22149239E+00 0.10305886E+04</pdfrwt>
<pdfrwt beam="2">  1       -4 0.28374298E-01 0.10305886E+04</pdfrwt>
<totfact> 0.29819419E+00</totfact>
</mgrwt>
</event>
<event>
12    4  0.4413110E-008  0.1560948E+04  0.7818608E-02  0.8844905E-01
         -4   -1    0    0    0  501 -0.00000000000E+00  0.00000000000E+00  0.80426037971E+03  0.80426037971E+03  0.00000000000E+00 0.  1.
          1   -1    0    0  501    0  0.00000000000E+00 -0.00000000000E+00 -0.75739067163E+03  0.75739067163E+03  0.00000000000E+00 0. -1.
        -24    2    1    2    0    0 -0.11825437655E+03  0.44799778682E+03 -0.22245314439E+03  0.51944372119E+03  0.75168234378E+02 0.  0.
        254    2    1    2    0    0  0.11825437655E+03 -0.44799778682E+03  0.26932285247E+03  0.10422073302E+04  0.89385412993E+03 0.  0.
         23    2    4    4    0    0  0.39216779305E+03 -0.44977329381E+02 -0.10817368634E+03  0.41972680021E+03  0.93008076721E+02 0.  0.
         23    2    4    4    0    0 -0.27391341650E+03 -0.40302045744E+03  0.37749653881E+03  0.62248052995E+03  0.86742864240E+02 0.  0.
          1    1    3    3  502    0 -0.13268373020E+02  0.11787853581E+03 -0.26852746199E+02  0.12162429406E+03  0.00000000000E+00 0. -1.
         -2    1    3    3    0  502 -0.10498600353E+03  0.33011925101E+03 -0.19560039819E+03  0.39781942712E+03  0.00000000000E+00 0.  1.
         11    1    5    5    0    0  0.45988194325E+02 -0.37331127518E+02 -0.13460449891E+02  0.60742989804E+02  0.00000000000E+00 0.  1.
        -11    1    5    5    0    0  0.34617959872E+03 -0.76462018638E+01 -0.94713236447E+02  0.35898381041E+03  0.00000000000E+00 0. -1.
          3    1    6    6  503    0 -0.16271183531E+03 -0.21102075083E+03  0.15504364311E+03  0.30829114470E+03  0.00000000000E+00 0. -1.
         -3    1    6    6    0  503 -0.11120158119E+03 -0.19199970661E+03  0.22245289570E+03  0.31418938525E+03  0.00000000000E+00 0.  1.
<mgrwt>
<rscale>  0 0.15609475E+04</rscale>
<asrwt>0</asrwt>
<pdfrwt beam="1">  1        1 0.11652164E+00 0.15609475E+04</pdfrwt>
<pdfrwt beam="2">  1       -4 0.12373237E+00 0.15609475E+04</pdfrwt>
<totfact> 0.54991849E+00</totfact>
</mgrwt>
</event>
<event>
12    4  0.4413110E-008  0.1427221E+04  0.7818608E-02  0.8934347E-01
          1   -1    0    0  501    0  0.00000000000E+00  0.00000000000E+00  0.16371478354E+04  0.16371478354E+04  0.00000000000E+00 0. -1.
         -2   -1    0    0    0  501 -0.00000000000E+00 -0.00000000000E+00 -0.31105319582E+03  0.31105319582E+03  0.00000000000E+00 0.  1.
        -24    2    1    2    0    0 -0.13679626148E+03  0.23001865003E+03  0.86804768371E+03  0.91192603073E+03  0.80501601335E+02 0.  0.
        254    2    1    2    0    0  0.13679626148E+03 -0.23001865003E+03  0.45804695589E+03  0.10362750005E+04  0.89018934298E+03 0.  0.
         23    2    4    4    0    0  0.35170454058E+03 -0.46718924577E+03  0.24406067251E+03  0.64044294063E+03  0.92949841940E+02 0.  0.
         23    2    4    4    0    0 -0.21490827910E+03  0.23717059574E+03  0.21398628338E+03  0.39583205987E+03  0.91964287838E+02 0.  0.
          3    1    3    3  502    0 -0.84204889422E+02  0.12880814619E+03  0.62157064808E+03  0.64033746765E+03  0.00000000000E+00 0. -1.
         -4    1    3    3    0  502 -0.52591372057E+02  0.10121050383E+03  0.24647703563E+03  0.27158856308E+03  0.00000000000E+00 0.  1.
         11    1    5    5    0    0  0.69964884622E+02 -0.44095654044E+02  0.48032015373E+02  0.95637786918E+02  0.00000000000E+00 0.  1.
        -11    1    5    5    0    0  0.28173965596E+03 -0.42309359172E+03  0.19602865713E+03  0.54480515371E+03  0.00000000000E+00 0. -1.
          2    1    6    6  503    0 -0.14880784278E+03  0.97316166379E+02  0.10344823539E+03  0.20570791846E+03  0.00000000000E+00 0. -1.
         -2    1    6    6    0  503 -0.66100436316E+02  0.13985442936E+03  0.11053804799E+03  0.19012414141E+03  0.00000000000E+00 0.  1.
<mgrwt>
<rscale>  0 0.14272212E+04</rscale>
<asrwt>0</asrwt>
<pdfrwt beam="1">  1        1 0.25186889E+00 0.14272212E+04</pdfrwt>
<pdfrwt beam="2">  1       -2 0.47854339E-01 0.14272212E+04</pdfrwt>
<totfact> 0.18591749E+01</totfact>
</mgrwt>
</event>
<event>
12    4  0.4413110E-008  0.1219348E+04  0.7818608E-02  0.9096088E-01
         -4   -1    0    0    0  501 -0.00000000000E+00  0.00000000000E+00  0.87739565985E+03  0.87739565985E+03  0.00000000000E+00 0.  1.
          3   -1    0    0  501    0  0.00000000000E+00 -0.00000000000E+00 -0.42364308218E+03  0.42364308218E+03  0.00000000000E+00 0. -1.
        -24    2    1    2    0    0 -0.21695560098E+03 -0.12535223547E+03  0.19915317549E+03  0.33129564857E+03  0.85509670340E+02 0.  0.
        254    2    1    2    0    0  0.21695560098E+03  0.12535223547E+03  0.25459940218E+03  0.96974309346E+03  0.90155304668E+03 0.  0.
         23    2    4    4    0    0 -0.92903129064E+02  0.27924911930E+03  0.46396016623E+03  0.55563788256E+03  0.82845390148E+02 0.  0.
         23    2    4    4    0    0  0.30985873005E+03 -0.15389688383E+03 -0.20936076405E+03  0.41410521089E+03  0.89188075021E+02 0.  0.
          3    1    3    3  502    0 -0.15166694940E+03 -0.53650311625E+02  0.86511529531E+02  0.18266215870E+03  0.00000000000E+00 0. -1.
         -4    1    3    3    0  502 -0.65288651576E+02 -0.71701923843E+02  0.11264164596E+03  0.14863348987E+03  0.00000000000E+00 0.  1.
         11    1    5    5    0    0 -0.22914670469E+01  0.10769700605E+03  0.21034927577E+03  0.23632755606E+03  0.00000000000E+00 0.  1.
        -11    1    5    5    0    0 -0.90611662018E+02  0.17155211325E+03  0.25361089046E+03  0.31931032650E+03  0.00000000000E+00 0. -1.
          4    1    6    6  503    0  0.15612560299E+03 -0.83416609919E+02 -0.15823351744E+03  0.23742657972E+03  0.00000000000E+00 0. -1.
         -4    1    6    6    0  503  0.15373312706E+03 -0.70480273913E+02 -0.51127246616E+02  0.17667863117E+03  0.00000000000E+00 0.  1.
<mgrwt>
<rscale>  0 0.12193484E+04</rscale>
<asrwt>0</asrwt>
<pdfrwt beam="1">  1        3 0.65175859E-01 0.12193484E+04</pdfrwt>
<pdfrwt beam="2">  1       -4 0.13498395E+00 0.12193484E+04</pdfrwt>
<totfact> 0.20154487E+00</totfact>
</mgrwt>
</event>
<event>
12    4  0.4413110E-008  0.2129074E+04  0.7818608E-02  0.8548543E-01
         -2   -1    0    0    0  501 -0.00000000000E+00  0.00000000000E+00  0.39823262540E+03  0.39823262540E+03  0.00000000000E+00 0.  1.
          1   -1    0    0  501    0  0.00000000000E+00 -0.00000000000E+00 -0.28456718948E+04  0.28456718948E+04  0.00000000000E+00 0. -1.
        -24    2    1    2    0    0  0.38095157368E+03 -0.10647214949E+03 -0.21579622691E+04  0.21953807010E+04  0.80217500179E+02 0.  0.
        254    2    1    2    0    0 -0.38095157368E+03  0.10647214949E+03 -0.28947700026E+03  0.10485238192E+04  0.92690066650E+03 0.  0.
         23    2    4    4    0    0 -0.80984283732E+02 -0.30060820970E+03 -0.40884043256E+03  0.52114942031E+03  0.86732168419E+02 0.  0.
         23    2    4    4    0    0 -0.29996728995E+03  0.40708035919E+03  0.11936343230E+03  0.52737439885E+03  0.90450725340E+02 0.  0.
          1    1    3    3  502    0  0.34164306116E+03 -0.11903644399E+03 -0.19694489131E+04  0.20024032255E+04  0.00000000000E+00 0. -1.
         -4    1    3    3    0  502  0.39308512526E+02  0.12564294497E+02 -0.18851335600E+03  0.19297747549E+03  0.00000000000E+00 0.  1.
         11    1    5    5    0    0 -0.31386486373E+02 -0.21205092793E+02 -0.66069057734E+02  0.76156994932E+02  0.00000000000E+00 0.  1.
        -11    1    5    5    0    0 -0.49597797360E+02 -0.27940311691E+03 -0.34277137483E+03  0.44499242538E+03  0.00000000000E+00 0. -1.
          1    1    6    6  503    0 -0.12086572855E+03  0.99138961407E+02  0.52590867878E+02  0.16493288754E+03  0.00000000000E+00 0. -1.
         -1    1    6    6    0  503 -0.17910156140E+03  0.30794139778E+03  0.66772564426E+02  0.36244151131E+03  0.00000000000E+00 0.  1.
<mgrwt>
<rscale>  0 0.21290743E+04</rscale>
<asrwt>0</asrwt>
<pdfrwt beam="1">  1        1 0.43779567E+00 0.21290743E+04</pdfrwt>
<pdfrwt beam="2">  1       -2 0.61266559E-01 0.21290743E+04</pdfrwt>
<totfact> 0.15451461E+00</totfact>
</mgrwt>
</event>
<event>
12    4  0.4413110E-008  0.1575216E+04  0.7818608E-02  0.8835920E-01
         -2   -1    0    0    0  501 -0.00000000000E+00  0.00000000000E+00  0.11799010009E+04  0.11799010009E+04  0.00000000000E+00 0.  1.
          1   -1    0    0  501    0  0.00000000000E+00 -0.00000000000E+00 -0.52574470097E+03  0.52574470097E+03  0.00000000000E+00 0. -1.
        -24    2    1    2    0    0 -0.67050776627E+02  0.94936198961E+02  0.70870747793E+03  0.72274893871E+03  0.81185285648E+02 0.  0.
        254    2    1    2    0    0  0.67050776627E+02 -0.94936198961E+02 -0.54551178038E+02  0.98289676312E+03  0.97447500091E+03 0.  0.
         23    2    4    4    0    0 -0.17565498940E+03 -0.15857834951E+03 -0.44404637048E+03  0.51088077313E+03  0.88431990697E+02 0.  0.
         23    2    4    4    0    0  0.24270576602E+03  0.63642150546E+02  0.38949519245E+03  0.47201598999E+03  0.90200763199E+02 0.  0.
          1    1    3    3  502    0 -0.32989793677E+02 -0.73318472695E+00  0.29142066620E+03  0.29328291586E+03  0.00000000000E+00 0. -1.
         -2    1    3    3    0  502 -0.34060982950E+02  0.95669383688E+02  0.41728681173E+03  0.42946602285E+03  0.00000000000E+00 0.  1.
         11    1    5    5    0    0 -0.46604958515E+02 -0.10027075275E+03 -0.20986252337E+03  0.23720987486E+03  0.00000000000E+00 0. -1.
        -11    1    5    5    0    0 -0.12905003088E+03 -0.58307596759E+02 -0.23418384712E+03  0.27367089827E+03  0.00000000000E+00 0.  1.
          2    1    6    6  503    0  0.99695604309E+02  0.20172166460E+02  0.23976672921E+03  0.26045002256E+03  0.00000000000E+00 0. -1.
         -2    1    6    6    0  503  0.14301016172E+03  0.43469984086E+02  0.14972846324E+03  0.21156596743E+03  0.00000000000E+00 0.  1.
<mgrwt>
<rscale>  0 0.15752164E+04</rscale>
<asrwt>0</asrwt>
<pdfrwt beam="1">  1        1 0.80883801E-01 0.15752164E+04</pdfrwt>
<pdfrwt beam="2">  1       -2 0.18152323E+00 0.15752164E+04</pdfrwt>
<totfact> 0.61472202E+00</totfact>
</mgrwt>
</event>
<event>
12    4  0.4413110E-008  0.2313531E+04  0.7818608E-02  0.8472605E-01
         -2   -1    0    0    0  501 -0.00000000000E+00  0.00000000000E+00  0.49232093313E+03  0.49232093313E+03  0.00000000000E+00 0.  1.
          1   -1    0    0  501    0  0.00000000000E+00 -0.00000000000E+00 -0.27179567015E+04  0.27179567015E+04  0.00000000000E+00 0. -1.
        -24    2    1    2    0    0 -0.13633754343E+03 -0.22277090151E+03 -0.22513130320E+04  0.22678226724E+04  0.79965649348E+02 0.  0.
        254    2    1    2    0    0  0.13633754343E+03  0.22277090151E+03  0.25677263725E+02  0.94245496215E+03  0.90517801205E+03 0.  0.
         23    2    4    4    0    0  0.33424275145E+02  0.52202350088E+03 -0.17253196698E+03  0.55831919594E+03  0.91254190493E+02 0.  0.
         23    2    4    4    0    0  0.10291326828E+03 -0.29925259937E+03  0.19820923070E+03  0.38413576621E+03  0.90167226452E+02 0.  0.
          1    1    3    3  502    0 -0.46462158442E+02 -0.14402704285E+03 -0.14022405920E+04  0.14103833518E+04  0.00000000000E+00 0. -1.
         -2    1    3    3    0  502 -0.89875384985E+02 -0.78743858657E+02 -0.84907244003E+03  0.85743932060E+03  0.00000000000E+00 0.  1.
         11    1    5    5    0    0  0.26384170483E+02  0.17138623122E+03 -0.15614431052E+02  0.17410679240E+03  0.00000000000E+00 0. -1.
        -11    1    5    5    0    0  0.70401046612E+01  0.35063726966E+03 -0.15691753592E+03  0.38421240354E+03  0.00000000000E+00 0.  1.
          1    1    6    6  503    0  0.11027952547E+03 -0.29700045965E+03  0.18003049835E+03  0.36439240813E+03  0.00000000000E+00 0. -1.
         -1    1    6    6    0  503 -0.73662571839E+01 -0.22521397256E+01  0.18178732354E+02  0.19743358079E+02  0.00000000000E+00 0.  1.
<mgrwt>
<rscale>  0 0.23135315E+04</rscale>
<asrwt>0</asrwt>
<pdfrwt beam="1">  1        1 0.41814718E+00 0.23135315E+04</pdfrwt>
<pdfrwt beam="2">  1       -2 0.75741683E-01 0.23135315E+04</pdfrwt>
<totfact> 0.11817206E+00</totfact>
</mgrwt>
</event>
<event>
12    4  0.4413110E-008  0.1440817E+04  0.7818608E-02  0.8924792E-01
          1   -1    0    0  501    0  0.00000000000E+00  0.00000000000E+00  0.28865751387E+03  0.28865751387E+03  0.00000000000E+00 0. -1.
         -2   -1    0    0    0  501 -0.00000000000E+00 -0.00000000000E+00 -0.17979371610E+04  0.17979371610E+04  0.00000000000E+00 0.  1.
        -24    2    1    2    0    0  0.11932393959E+03 -0.51145697964E+02 -0.10560714655E+04  0.10669685079E+04  0.79251319594E+02 0.  0.
        254    2    1    2    0    0 -0.11932393959E+03  0.51145697964E+02 -0.45320818160E+03  0.10196261669E+04  0.90409389968E+03 0.  0.
         23    2    4    4    0    0  0.17325740111E+03  0.39347339375E+03 -0.31147738517E+03  0.53882233616E+03  0.92042978232E+02 0.  0.
         23    2    4    4    0    0 -0.29258134070E+03 -0.34232769579E+03 -0.14173079643E+03  0.48080383077E+03  0.91063784238E+02 0.  0.
          3    1    3    3  502    0  0.14999421985E+02 -0.12069367500E+02 -0.35935642574E+02  0.40767912615E+02  0.00000000000E+00 0. -1.
         -4    1    3    3    0  502  0.10432451760E+03 -0.39076330464E+02 -0.10201358229E+04  0.10262005953E+04  0.00000000000E+00 0.  1.
         11    1    5    5    0    0  0.13345684211E+02  0.10851606813E+03 -0.10916103320E+03  0.15449911165E+03  0.00000000000E+00 0.  1.
        -11    1    5    5    0    0  0.15991171690E+03  0.28495732562E+03 -0.20231635197E+03  0.38432322451E+03  0.00000000000E+00 0. -1.
          1    1    6    6  503    0 -0.12695377259E+03 -0.21445116893E+03 -0.92644467767E+02  0.26587508653E+03  0.00000000000E+00 0. -1.
         -1    1    6    6    0  503 -0.16562756811E+03 -0.12787652686E+03 -0.49086328666E+02  0.21492874424E+03  0.00000000000E+00 0.  1.
<mgrwt>
<rscale>  0 0.14408165E+04</rscale>
<asrwt>0</asrwt>
<pdfrwt beam="1">  1        1 0.44408849E-01 0.14408165E+04</pdfrwt>
<pdfrwt beam="2">  1       -2 0.27660571E+00 0.14408165E+04</pdfrwt>
<totfact> 0.34648569E+00</totfact>
</mgrwt>
</event>
<event>
12    4  0.4413110E-008  0.1667466E+04  0.7818608E-02  0.8780140E-01
          1   -1    0    0  501    0  0.00000000000E+00  0.00000000000E+00  0.33974405085E+04  0.33974405085E+04  0.00000000000E+00 0. -1.
         -2   -1    0    0    0  501 -0.00000000000E+00 -0.00000000000E+00 -0.20459842769E+03  0.20459842769E+03  0.00000000000E+00 0.  1.
        -24    2    1    2    0    0  0.23661025355E+03  0.20036939329E+03  0.21944634869E+04  0.22176739231E+04  0.79216967919E+02 0.  0.
        254    2    1    2    0    0 -0.23661025355E+03 -0.20036939329E+03  0.99837859393E+03  0.13843650131E+04  0.90750998169E+03 0.  0.
         23    2    4    4    0    0 -0.39048420625E+03  0.23806409667E+03  0.35759735563E+03  0.58770323867E+03  0.91470205732E+02 0.  0.
         23    2    4    4    0    0  0.15387395270E+03 -0.43843348996E+03  0.64078123830E+03  0.79666177445E+03  0.90378476807E+02 0.  0.
          1    1    3    3  502    0  0.19628739338E+03  0.19485333108E+03  0.19968262719E+04  0.20158898088E+04  0.00000000000E+00 0. -1.
         -4    1    3    3    0  502  0.40322860176E+02  0.55160622073E+01  0.19763721504E+03  0.20178411425E+03  0.00000000000E+00 0.  1.
         11    1    5    5    0    0 -0.21537526271E+02  0.33245529664E+02  0.57769308540E+02  0.70045865615E+02  0.00000000000E+00 0. -1.
        -11    1    5    5    0    0 -0.36894667998E+03  0.20481856701E+03  0.29982804709E+03  0.51765737306E+03  0.00000000000E+00 0.  1.
          2    1    6    6  503    0  0.91986001403E+02 -0.14667190202E+03  0.20098763575E+03  0.26527363423E+03  0.00000000000E+00 0. -1.
         -2    1    6    6    0  503  0.61887951293E+02 -0.29176158794E+03  0.43979360255E+03  0.53138814021E+03  0.00000000000E+00 0.  1.
<mgrwt>
<rscale>  0 0.16674663E+04</rscale>
<asrwt>0</asrwt>
<pdfrwt beam="1">  1        1 0.52268311E+00 0.16674663E+04</pdfrwt>
<pdfrwt beam="2">  1       -2 0.31476684E-01 0.16674663E+04</pdfrwt>
<totfact> 0.23782643E+00</totfact>
</mgrwt>
</event>
<event>
12    4  0.4413110E-008  0.2903712E+04  0.7818608E-02  0.8271774E-01
         -2   -1    0    0    0  501 -0.00000000000E+00  0.00000000000E+00  0.72696842101E+03  0.72696842101E+03  0.00000000000E+00 0.  1.
          1   -1    0    0  501    0  0.00000000000E+00 -0.00000000000E+00 -0.28995566818E+04  0.28995566818E+04  0.00000000000E+00 0. -1.
        -24    2    1    2    0    0 -0.30651706900E+03  0.12479685541E+04 -0.13105184413E+04  0.18371995308E+04  0.80407121596E+02 0.  0.
        254    2    1    2    0    0  0.30651706900E+03 -0.12479685541E+04 -0.86206981951E+03  0.17893255721E+04  0.89841160031E+03 0.  0.
         23    2    4    4    0    0  0.27261157182E+03 -0.10040886373E+04 -0.18187144796E+03  0.10603702953E+04  0.93791678739E+02 0.  0.
         23    2    4    4    0    0  0.33905497176E+02 -0.24387991683E+03 -0.68019837155E+03  0.72895527677E+03  0.89883114623E+02 0.  0.
          1    1    3    3  502    0 -0.27047290180E+03  0.11512009373E+04 -0.12299673480E+04  0.17062352903E+04  0.00000000000E+00 0. -1.
         -4    1    3    3    0  502 -0.36044167202E+02  0.96767616842E+02 -0.80551093295E+02  0.13096424050E+03  0.00000000000E+00 0.  1.
         11    1    5    5    0    0  0.88984093412E+01 -0.64785032706E+02 -0.33686559767E+02  0.73559951471E+02  0.00000000000E+00 0.  1.
        -11    1    5    5    0    0  0.26371316248E+03 -0.93930360457E+03 -0.14818488819E+03  0.98681034384E+03  0.00000000000E+00 0. -1.
          4    1    6    6  503    0  0.19226537006E+02 -0.53982994963E+01 -0.90764364766E+02  0.92935306930E+02  0.00000000000E+00 0.  1.
         -4    1    6    6    0  503  0.14678960170E+02 -0.23848161733E+03 -0.58943400678E+03  0.63601996984E+03  0.00000000000E+00 0. -1.
<mgrwt>
<rscale>  0 0.29037122E+04</rscale>
<asrwt>0</asrwt>
<pdfrwt beam="1">  1        1 0.44608565E+00 0.29037122E+04</pdfrwt>
<pdfrwt beam="2">  1       -2 0.11184129E+00 0.29037122E+04</pdfrwt>
<totfact> 0.33667708E-01</totfact>
</mgrwt>
</event>
<event>
12    4  0.4413110E-008  0.1439119E+04  0.7818608E-02  0.8925979E-01
         -2   -1    0    0    0  501 -0.00000000000E+00  0.00000000000E+00  0.76374904232E+03  0.76374904232E+03  0.00000000000E+00 0.  1.
          1   -1    0    0  501    0  0.00000000000E+00 -0.00000000000E+00 -0.67792656482E+03  0.67792656482E+03  0.00000000000E+00 0. -1.
        -24    2    1    2    0    0  0.14584552006E+03  0.40756912209E+03  0.23717350680E+03  0.50068772157E+03  0.83984624810E+02 0.  0.
        254    2    1    2    0    0 -0.14584552006E+03 -0.40756912209E+03 -0.15135102930E+03  0.94098788557E+03  0.82168580475E+03 0.  0.
         23    2    4    4    0    0 -0.26494942098E+03 -0.60442793797E+03 -0.35318260578E+02  0.66737996949E+03  0.92829501082E+02 0.  0.
         23    2    4    4    0    0  0.11910390092E+03  0.19685881589E+03 -0.11603276872E+03  0.27360791608E+03  0.91970406742E+02 0.  0.
          3    1    3    3  502    0 -0.56686679516E+01  0.40914437740E+01  0.13294473523E+02  0.15020543757E+02  0.00000000000E+00 0. -1.
         -4    1    3    3    0  502  0.15151418801E+03  0.40347767831E+03  0.22387903328E+03  0.48566717781E+03  0.00000000000E+00 0.  1.
         11    1    5    5    0    0 -0.50564901228E+02 -0.55771355573E+02  0.12808772763E+02  0.76363066979E+02  0.00000000000E+00 0.  1.
        -11    1    5    5    0    0 -0.21438451975E+03 -0.54865658240E+03 -0.48127033341E+02  0.59101690251E+03  0.00000000000E+00 0. -1.
          4    1    6    6  503    0  0.98033181966E+02  0.19964912472E+03 -0.11882620064E+03  0.25217046561E+03  0.00000000000E+00 0. -1.
         -4    1    6    6    0  503  0.21070718952E+02 -0.27903088348E+01  0.27934319178E+01  0.21437450464E+02  0.00000000000E+00 0.  1.
<mgrwt>
<rscale>  0 0.14391188E+04</rscale>
<asrwt>0</asrwt>
<pdfrwt beam="1">  1        1 0.10429639E+00 0.14391188E+04</pdfrwt>
<pdfrwt beam="2">  1       -2 0.11749985E+00 0.14391188E+04</pdfrwt>
<totfact> 0.13612699E+01</totfact>
</mgrwt>
</event>
<event>
12    4  0.4413110E-008  0.1165226E+04  0.7818608E-02  0.9143851E-01
         -2   -1    0    0    0  501 -0.00000000000E+00  0.00000000000E+00  0.42327776365E+03  0.42327776365E+03  0.00000000000E+00 0.  1.
          1   -1    0    0  501    0  0.00000000000E+00 -0.00000000000E+00 -0.80192666659E+03  0.80192666659E+03  0.00000000000E+00 0. -1.
        -24    2    1    2    0    0 -0.58613465953E+02 -0.18503165265E+02  0.15156273973E+03  0.18273946737E+03  0.81514068382E+02 0.  0.
        254    2    1    2    0    0  0.58613465953E+02  0.18503165265E+02 -0.53021164267E+03  0.10424649629E+04  0.89545011435E+03 0.  0.
         23    2    4    4    0    0 -0.11050401329E+03 -0.39995094888E+03 -0.16493338800E+03  0.45559332327E+03  0.90500581567E+02 0.  0.
         23    2    4    4    0    0  0.16911747924E+03  0.41845411414E+03 -0.36527825466E+03  0.58687163961E+03  0.85355436928E+02 0.  0.
          1    1    3    3  502    0 -0.13376921391E+02 -0.42700742972E+02  0.40302000064E+02  0.60220816048E+02  0.00000000000E+00 0. -1.
         -2    1    3    3    0  502 -0.45236544562E+02  0.24197577707E+02  0.11126073966E+03  0.12251865132E+03  0.00000000000E+00 0.  1.
         11    1    5    5    0    0 -0.13977177651E+02 -0.17981325145E+03 -0.10166310830E+03  0.20703515277E+03  0.00000000000E+00 0. -1.
        -11    1    5    5    0    0 -0.96526835640E+02 -0.22013769743E+03 -0.63270279702E+02  0.24855817050E+03  0.00000000000E+00 0.  1.
          4    1    6    6  503    0  0.17404710042E+03  0.39404079838E+03 -0.32540956782E+03  0.53986288147E+03  0.00000000000E+00 0.  1.
         -4    1    6    6    0  503 -0.49296211754E+01  0.24413315761E+02 -0.39868686840E+02  0.47008758138E+02  0.00000000000E+00 0. -1.
<mgrwt>
<rscale>  0 0.11652257E+04</rscale>
<asrwt>0</asrwt>
<pdfrwt beam="1">  1        1 0.12337333E+00 0.11652257E+04</pdfrwt>
<pdfrwt beam="2">  1       -2 0.65119657E-01 0.11652257E+04</pdfrwt>
<totfact> 0.41639065E+01</totfact>
</mgrwt>
</event>
<event>
12    4  0.4413110E-008  0.1558200E+04  0.7818608E-02  0.8846647E-01
         -2   -1    0    0    0  501 -0.00000000000E+00  0.00000000000E+00  0.84699178649E+03  0.84699178649E+03  0.00000000000E+00 0.  1.
          1   -1    0    0  501    0  0.00000000000E+00 -0.00000000000E+00 -0.71665033435E+03  0.71665033435E+03  0.00000000000E+00 0. -1.
        -24    2    1    2    0    0 -0.28193370302E+03 -0.11889437318E+03 -0.37059644735E+03  0.48737253780E+03  0.81041834489E+02 0.  0.
        254    2    1    2    0    0  0.28193370302E+03  0.11889437318E+03  0.50093789949E+03  0.10762695830E+04  0.90210584265E+03 0.  0.
         23    2    4    4    0    0 -0.20629185040E+03  0.34037470750E+03  0.23554685520E+03  0.47149830858E+03  0.91744563626E+02 0.  0.
         23    2    4    4    0    0  0.48822555342E+03 -0.22148033432E+03  0.26539104429E+03  0.60477127445E+03  0.88871584361E+02 0.  0.
          1    1    3    3  502    0 -0.23471840608E+03 -0.79582681315E+02 -0.33382481546E+03  0.41577053856E+03  0.00000000000E+00 0. -1.
         -2    1    3    3    0  502 -0.47215296949E+02 -0.39311691870E+02 -0.36771631890E+02  0.71601999242E+02  0.00000000000E+00 0.  1.
         11    1    5    5    0    0 -0.42664019583E+02  0.28789315909E+02  0.57214757486E+02  0.76958246807E+02  0.00000000000E+00 0.  1.
        -11    1    5    5    0    0 -0.16362783082E+03  0.31158539159E+03  0.17833209771E+03  0.39454006178E+03  0.00000000000E+00 0. -1.
          2    1    6    6  503    0  0.24161905232E+03 -0.15825242784E+03  0.14331902521E+03  0.32243439697E+03  0.00000000000E+00 0. -1.
         -2    1    6    6    0  503  0.24660650111E+03 -0.63227906477E+02  0.12207201908E+03  0.28233687749E+03  0.00000000000E+00 0.  1.
<mgrwt>
<rscale>  0 0.15582002E+04</rscale>
<asrwt>0</asrwt>
<pdfrwt beam="1">  1        1 0.11025390E+00 0.15582002E+04</pdfrwt>
<pdfrwt beam="2">  1       -2 0.13030643E+00 0.15582002E+04</pdfrwt>
<totfact> 0.95629551E+00</totfact>
</mgrwt>
</event>
<event>
12    4  0.4413110E-008  0.1373655E+04  0.7818608E-02  0.8973112E-01
         -2   -1    0    0    0  501 -0.00000000000E+00  0.00000000000E+00  0.11471016456E+04  0.11471016456E+04  0.00000000000E+00 0.  1.
          1   -1    0    0  501    0  0.00000000000E+00 -0.00000000000E+00 -0.41123812479E+03  0.41123812479E+03  0.00000000000E+00 0. -1.
        -24    2    1    2    0    0 -0.11543731173E+03 -0.93412719034E+02  0.63263144436E+03  0.65521952018E+03  0.83894971360E+02 0.  0.
        254    2    1    2    0    0  0.11543731173E+03  0.93412719034E+02  0.10323207643E+03  0.90312025019E+03  0.88482631950E+03 0.  0.
         23    2    4    4    0    0  0.24891639792E+03  0.94413210543E+02 -0.33324073384E+03  0.43777932703E+03  0.98631257774E+02 0.  0.
         23    2    4    4    0    0 -0.13347908619E+03 -0.10004915094E+01  0.43647281027E+03  0.46534092316E+03  0.90642116182E+02 0.  0.
          3    1    3    3  502    0 -0.34120830927E+01  0.15824552885E+01 -0.16837300494E+01  0.41208521753E+01  0.00000000000E+00 0. -1.
         -4    1    3    3    0  502 -0.11202522863E+03 -0.94995174322E+02  0.63431517441E+03  0.65109866801E+03  0.00000000000E+00 0.  1.
         11    1    5    5    0    0  0.15829269251E+03  0.28542146926E+02 -0.13464943022E+03  0.20976582112E+03  0.00000000000E+00 0. -1.
        -11    1    5    5    0    0  0.90623705411E+02  0.65871063617E+02 -0.19859130362E+03  0.22801350591E+03  0.00000000000E+00 0.  1.
          2    1    6    6  503    0 -0.14598980568E+03  0.50908840482E+01  0.41276235357E+03  0.43784894769E+03  0.00000000000E+00 0.  1.
         -2    1    6    6    0  503  0.12510719493E+02 -0.60913755577E+01  0.23710456700E+02  0.27491975472E+02  0.00000000000E+00 0. -1.
<mgrwt>
<rscale>  0 0.13736549E+04</rscale>
<asrwt>0</asrwt>
<pdfrwt beam="1">  1        1 0.63267405E-01 0.13736549E+04</pdfrwt>
<pdfrwt beam="2">  1       -2 0.17647717E+00 0.13736549E+04</pdfrwt>
<totfact> 0.94601926E+00</totfact>
</mgrwt>
</event>
<event>
12    4  0.4413110E-008  0.1303309E+04  0.7818608E-02  0.9026945E-01
         -2   -1    0    0    0  501 -0.00000000000E+00  0.00000000000E+00  0.57246393145E+03  0.57246393145E+03  0.00000000000E+00 0.  1.
          1   -1    0    0  501    0  0.00000000000E+00 -0.00000000000E+00 -0.74179971236E+03  0.74179971236E+03  0.00000000000E+00 0. -1.
        -24    2    1    2    0    0  0.19756143078E+03 -0.13154986037E+03  0.18791838567E+03  0.31337585663E+03  0.80964332601E+02 0.  0.
        254    2    1    2    0    0 -0.19756143078E+03  0.13154986037E+03 -0.35725416659E+03  0.10008877872E+04  0.90432844602E+03 0.  0.
         23    2    4    4    0    0 -0.24268124865E+03 -0.31992851565E+03 -0.34644168409E+03  0.53812888061E+03  0.91172408667E+02 0.  0.
         23    2    4    4    0    0  0.45119817871E+02  0.45147837602E+03 -0.10812482497E+02  0.46275890656E+03  0.90334787587E+02 0.  0.
          1    1    3    3  502    0  0.11771230612E+03 -0.96903538341E+02  0.72532197248E+02  0.16884135274E+03  0.00000000000E+00 0. -1.
         -2    1    3    3    0  502  0.79849124654E+02 -0.34646322028E+02  0.11538618843E+03  0.14453450390E+03  0.00000000000E+00 0.  1.
         11    1    5    5    0    0  0.93207129749E+00  0.26856888334E+01 -0.15283832663E+02  0.15545971256E+02  0.00000000000E+00 0. -1.
        -11    1    5    5    0    0 -0.24361331995E+03 -0.32261420448E+03 -0.33115785143E+03  0.52258290936E+03  0.00000000000E+00 0.  1.
          3    1    6    6  503    0 -0.58375232151E+01  0.35796745601E+02 -0.24454134012E+02  0.43743437716E+02  0.00000000000E+00 0. -1.
         -3    1    6    6    0  503  0.50957341086E+02  0.41568163042E+03  0.13641651515E+02  0.41901546885E+03  0.00000000000E+00 0.  1.
<mgrwt>
<rscale>  0 0.13033090E+04</rscale>
<asrwt>0</asrwt>
<pdfrwt beam="1">  1        1 0.11412303E+00 0.13033090E+04</pdfrwt>
<pdfrwt beam="2">  1       -2 0.88071374E-01 0.13033090E+04</pdfrwt>
<totfact> 0.23817653E+01</totfact>
</mgrwt>
</event>
<event>
12    4  0.4413110E-008  0.1821807E+04  0.7818608E-02  0.8694788E-01
          1   -1    0    0  501    0  0.00000000000E+00  0.00000000000E+00  0.53597298026E+03  0.53597298026E+03  0.00000000000E+00 0. -1.
         -2   -1    0    0    0  501 -0.00000000000E+00 -0.00000000000E+00 -0.15481097099E+04  0.15481097099E+04  0.00000000000E+00 0.  1.
        -24    2    1    2    0    0 -0.36769046618E+03 -0.54388537450E+03 -0.14996534560E+03  0.67814658569E+03  0.79909994874E+02 0.  0.
        254    2    1    2    0    0  0.36769046618E+03  0.54388537450E+03 -0.86217138401E+03  0.14059361045E+04  0.89571717348E+03 0.  0.
         23    2    4    4    0    0  0.15946154940E+03 -0.11200251958E+02  0.14436642038E+03  0.23426266457E+03  0.92108095714E+02 0.  0.
         23    2    4    4    0    0  0.20822891678E+03  0.55508562646E+03 -0.10065378044E+04  0.11716734399E+04  0.90669529428E+02 0.  0.
          1    1    3    3  502    0 -0.33781309589E+03 -0.51725662920E+03 -0.12309197172E+03  0.62993947464E+03  0.00000000000E+00 0. -1.
         -2    1    3    3    0  502 -0.29877370290E+02 -0.26628745303E+02 -0.26873373884E+02  0.48207111050E+02  0.00000000000E+00 0.  1.
         11    1    5    5    0    0  0.11319541010E+03  0.13585167262E+02  0.14147719279E+03  0.18169632280E+03  0.00000000000E+00 0.  1.
        -11    1    5    5    0    0  0.46266139293E+02 -0.24785419221E+02  0.28892275922E+01  0.52566341770E+02  0.00000000000E+00 0. -1.
          2    1    6    6  503    0  0.13968690380E+03  0.46430075070E+03 -0.84242269116E+03  0.97198951064E+03  0.00000000000E+00 0.  1.
         -2    1    6    6    0  503  0.68542012978E+02  0.90784875761E+02 -0.16411511323E+03  0.19968392925E+03  0.00000000000E+00 0. -1.
<mgrwt>
<rscale>  0 0.18218068E+04</rscale>
<asrwt>0</asrwt>
<pdfrwt beam="1">  1        1 0.82457384E-01 0.18218068E+04</pdfrwt>
<pdfrwt beam="2">  1       -2 0.23817072E+00 0.18218068E+04</pdfrwt>
<totfact> 0.25207330E+00</totfact>
</mgrwt>
</event>
<event>
12    4  0.4413110E-008  0.2306007E+04  0.7818608E-02  0.8475556E-01
          1   -1    0    0  501    0  0.00000000000E+00  0.00000000000E+00  0.58849480095E+03  0.58849480095E+03  0.00000000000E+00 0. -1.
         -2   -1    0    0    0  501 -0.00000000000E+00 -0.00000000000E+00 -0.22590133543E+04  0.22590133543E+04  0.00000000000E+00 0.  1.
        -24    2    1    2    0    0 -0.12470331813E+03  0.42106901449E+03  0.36640763270E+03  0.57745806808E+03  0.79707180206E+02 0.  0.
        254    2    1    2    0    0  0.12470331813E+03 -0.42106901449E+03 -0.20369261860E+04  0.22700500871E+04  0.90067145970E+03 0.  0.
         23    2    4    4    0    0  0.45235210631E+03 -0.47726698605E+01 -0.10418330459E+04  0.11394236132E+04  0.90691060020E+02 0.  0.
         23    2    4    4    0    0 -0.32764878818E+03 -0.41629634463E+03 -0.99509314010E+03  0.11306264739E+04  0.86310434278E+02 0.  0.
          3    1    3    3  502    0 -0.10913598352E+03  0.41528161048E+03  0.35674006406E+03  0.55824094458E+03  0.00000000000E+00 0. -1.
         -4    1    3    3    0  502 -0.15567334615E+02  0.57874040066E+01  0.96675686330E+01  0.19217123495E+02  0.00000000000E+00 0.  1.
         11    1    5    5    0    0  0.30528227816E+03 -0.31281507749E+02 -0.61764870588E+03  0.68968523687E+03  0.00000000000E+00 0. -1.
        -11    1    5    5    0    0  0.14706982815E+03  0.26508837888E+02 -0.42418434004E+03  0.44973837636E+03  0.00000000000E+00 0.  1.
          2    1    6    6  503    0 -0.48836016534E+02 -0.25300550417E+02 -0.13054828452E+03  0.14166131778E+03  0.00000000000E+00 0. -1.
         -2    1    6    6    0  503 -0.27881277165E+03 -0.39099579421E+03 -0.86454485558E+03  0.98896515613E+03  0.00000000000E+00 0.  1.
<mgrwt>
<rscale>  0 0.23060075E+04</rscale>
<asrwt>0</asrwt>
<pdfrwt beam="1">  1        1 0.90537662E-01 0.23060075E+04</pdfrwt>
<pdfrwt beam="2">  1       -2 0.34754051E+00 0.23060075E+04</pdfrwt>
<totfact> 0.44991607E-01</totfact>
</mgrwt>
</event>
<event>
12    4  0.4413110E-008  0.1793481E+04  0.7818608E-02  0.8709774E-01
          1   -1    0    0  501    0  0.00000000000E+00  0.00000000000E+00  0.13609139206E+04  0.13609139206E+04  0.00000000000E+00 0. -1.
         -4   -1    0    0    0  501 -0.00000000000E+00 -0.00000000000E+00 -0.59088495052E+03  0.59088495052E+03  0.00000000000E+00 0.  1.
        -24    2    1    2    0    0 -0.46418979806E+03  0.95247632708E+02 -0.10567210744E+03  0.49188422582E+03  0.78988715342E+02 0.  0.
        254    2    1    2    0    0  0.46418979806E+03 -0.95247632708E+02  0.87570107753E+03  0.14599146453E+04  0.10676863370E+04 0.  0.
         23    2    4    4    0    0 -0.11487117959E+03  0.38182688941E+03  0.36036685027E+03  0.54521613754E+03  0.91701736552E+02 0.  0.
         23    2    4    4    0    0  0.57906097766E+03 -0.47707452212E+03  0.51533422726E+03  0.91469850776E+03  0.90511208253E+02 0.  0.
          3    1    3    3  502    0 -0.17416983093E+03  0.17835728970E+02 -0.73885245580E+02  0.19003229396E+03  0.00000000000E+00 0. -1.
         -4    1    3    3    0  502 -0.29001996713E+03  0.77411903738E+02 -0.31786861865E+02  0.30185193185E+03  0.00000000000E+00 0.  1.
         11    1    5    5    0    0 -0.63868520758E+02  0.28326596525E+03  0.30526486130E+03  0.42131393350E+03  0.00000000000E+00 0. -1.
        -11    1    5    5    0    0 -0.51002658837E+02  0.98560924156E+02  0.55101988969E+02  0.12390220404E+03  0.00000000000E+00 0.  1.
          1    1    6    6  503    0  0.12974953138E+03 -0.14215433834E+03  0.98053822492E+02  0.21600312244E+03  0.00000000000E+00 0. -1.
         -1    1    6    6    0  503  0.44931144628E+03 -0.33492018378E+03  0.41728040477E+03  0.69869538532E+03  0.00000000000E+00 0.  1.
<mgrwt>
<rscale>  0 0.17934810E+04</rscale>
<asrwt>0</asrwt>
<pdfrwt beam="1">  1        1 0.20937137E+00 0.17934810E+04</pdfrwt>
<pdfrwt beam="2">  1       -4 0.90905377E-01 0.17934810E+04</pdfrwt>
<totfact> 0.39072737E+00</totfact>
</mgrwt>
</event>
<event>
12    4  0.4413110E-008  0.1771624E+04  0.7818608E-02  0.8721537E-01
          1   -1    0    0  501    0  0.00000000000E+00  0.00000000000E+00  0.14361432040E+04  0.14361432040E+04  0.00000000000E+00 0. -1.
         -2   -1    0    0    0  501 -0.00000000000E+00 -0.00000000000E+00 -0.54636809395E+03  0.54636809395E+03  0.00000000000E+00 0.  1.
        -24    2    1    2    0    0 -0.32686700540E+03 -0.39134438945E+02  0.96998413717E+03  0.10269633154E+04  0.73558692139E+02 0.  0.
        254    2    1    2    0    0  0.32686700540E+03  0.39134438945E+02 -0.80209027079E+02  0.95554798264E+03  0.89345672284E+03 0.  0.
         23    2    4    4    0    0 -0.88332217187E+02 -0.34609119375E+03 -0.97338957037E+02  0.38176259329E+03  0.93199303057E+02 0.  0.
         23    2    4    4    0    0  0.41519922259E+03  0.38522563270E+03  0.17129929957E+02  0.57378538936E+03  0.90261043727E+02 0.  0.
          1    1    3    3  502    0 -0.19709597653E+03  0.82822473560E+01  0.51610081798E+03  0.55251739692E+03  0.00000000000E+00 0. -1.
         -2    1    3    3    0  502 -0.12977102887E+03 -0.47416686301E+02  0.45388331919E+03  0.47444591843E+03  0.00000000000E+00 0.  1.
         11    1    5    5    0    0 -0.19924776067E+02 -0.36339015053E+02  0.16685380816E+02  0.44675750126E+02  0.00000000000E+00 0.  1.
        -11    1    5    5    0    0 -0.68407441120E+02 -0.30975217870E+03 -0.11402433785E+03  0.33708684316E+03  0.00000000000E+00 0. -1.
          1    1    6    6  503    0  0.29538998612E+01 -0.62053588902E+00 -0.80320562586E+01  0.85804730010E+01  0.00000000000E+00 0.  1.
         -1    1    6    6    0  503  0.41224532272E+03  0.38584616859E+03  0.25161986216E+02  0.56520491635E+03  0.00000000000E+00 0. -1.
<mgrwt>
<rscale>  0 0.17716239E+04</rscale>
<asrwt>0</asrwt>
<pdfrwt beam="1">  1        1 0.22094511E+00 0.17716239E+04</pdfrwt>
<pdfrwt beam="2">  1       -2 0.84056630E-01 0.17716239E+04</pdfrwt>
<totfact> 0.74343026E+00</totfact>
</mgrwt>
</event>
<event>
12    4  0.4413110E-008  0.2181437E+04  0.7818608E-02  0.8526194E-01
          3   -1    0    0  501    0  0.00000000000E+00  0.00000000000E+00  0.51942907750E+03  0.51942907750E+03  0.00000000000E+00 0. -1.
         -4   -1    0    0    0  501 -0.00000000000E+00 -0.00000000000E+00 -0.22903361651E+04  0.22903361651E+04  0.00000000000E+00 0.  1.
        -24    2    1    2    0    0  0.84933800267E+02  0.70518646025E+03 -0.14573311813E+02  0.71474929448E+03  0.78437735862E+02 0.  0.
        254    2    1    2    0    0 -0.84933800267E+02 -0.70518646025E+03 -0.17563337758E+04  0.20950159481E+04  0.89436111093E+03 0.  0.
         23    2    4    4    0    0  0.89317966263E+01  0.13953098934E+03 -0.30895680980E+02  0.16926136087E+03  0.90256252989E+02 0.  0.
         23    2    4    4    0    0 -0.93865596894E+02 -0.84471744958E+03 -0.17254380948E+04  0.19257545872E+04  0.95056779783E+02 0.  0.
          1    1    3    3  502    0  0.47454704075E+02  0.34215091469E+03  0.31630188164E+02  0.34687125301E+03  0.00000000000E+00 0. -1.
         -2    1    3    3    0  502  0.37479096192E+02  0.36303554556E+03 -0.46203499977E+02  0.36787804147E+03  0.00000000000E+00 0.  1.
         11    1    5    5    0    0 -0.38763314391E+02  0.87846637683E+02 -0.20262991633E+02  0.98133659489E+02  0.00000000000E+00 0.  1.
        -11    1    5    5    0    0  0.47695111017E+02  0.51684351652E+02 -0.10632689347E+02  0.71127701378E+02  0.00000000000E+00 0. -1.
          1    1    6    6  503    0 -0.56899191211E+02 -0.17317571871E+03 -0.34503793160E+03  0.39022880692E+03  0.00000000000E+00 0. -1.
         -1    1    6    6    0  503 -0.36966405683E+02 -0.67154173087E+03 -0.13804001632E+04  0.15355257803E+04  0.00000000000E+00 0.  1.
<mgrwt>
<rscale>  0 0.21814373E+04</rscale>
<asrwt>0</asrwt>
<pdfrwt beam="1">  1        3 0.79912165E-01 0.21814373E+04</pdfrwt>
<pdfrwt beam="2">  1       -4 0.35235941E+00 0.21814373E+04</pdfrwt>
<totfact> 0.43636822E-02</totfact>
</mgrwt>
</event>
<event>
12    4  0.4413110E-008  0.2380083E+04  0.7818608E-02  0.8446998E-01
          1   -1    0    0  501    0  0.00000000000E+00  0.00000000000E+00  0.39412919543E+04  0.39412919543E+04  0.00000000000E+00 0. -1.
         -2   -1    0    0    0  501 -0.00000000000E+00 -0.00000000000E+00 -0.35932356812E+03  0.35932356812E+03  0.00000000000E+00 0.  1.
        -24    2    1    2    0    0 -0.31863368216E+03 -0.75744103669E+03  0.45057895263E+03  0.94053074008E+03  0.79575957525E+02 0.  0.
        254    2    1    2    0    0  0.31863368216E+03  0.75744103669E+03  0.31313894336E+04  0.33600847824E+04  0.89962526231E+03 0.  0.
         23    2    4    4    0    0  0.37118447453E+03  0.92560435132E+03  0.23607045886E+04  0.25643928273E+04  0.93075715204E+02 0.  0.
         23    2    4    4    0    0 -0.52550792379E+02 -0.16816331463E+03  0.77068484498E+03  0.79569195508E+03  0.90166905939E+02 0.  0.
          1    1    3    3  502    0 -0.12097217171E+03 -0.37317688648E+03  0.18954303304E+03  0.43568545570E+03  0.00000000000E+00 0. -1.
         -2    1    3    3    0  502 -0.19766151044E+03 -0.38426415020E+03  0.26103591959E+03  0.50484528437E+03  0.00000000000E+00 0.  1.
         11    1    5    5    0    0  0.22226509605E+03  0.66777129698E+03  0.16707041122E+04  0.18128906499E+04  0.00000000000E+00 0.  1.
        -11    1    5    5    0    0  0.14891937849E+03  0.25783305434E+03  0.69000047637E+03  0.75150217737E+03  0.00000000000E+00 0. -1.
          1    1    6    6  503    0 -0.10802114664E+02 -0.33839238161E+01  0.69816691781E+01  0.13299636316E+02  0.00000000000E+00 0. -1.
         -1    1    6    6    0  503 -0.41748677714E+02 -0.16477939082E+03  0.76370317580E+03  0.78239231876E+03  0.00000000000E+00 0.  1.
<mgrwt>
<rscale>  0 0.23800833E+04</rscale>
<asrwt>0</asrwt>
<pdfrwt beam="1">  1        1 0.60635258E+00 0.23800833E+04</pdfrwt>
<pdfrwt beam="2">  1       -2 0.55280552E-01 0.23800833E+04</pdfrwt>
<totfact> 0.26303524E-01</totfact>
</mgrwt>
</event>
<event>
12    4  0.4413110E-008  0.1886281E+04  0.7818608E-02  0.8661715E-01
          1   -1    0    0  501    0  0.00000000000E+00  0.00000000000E+00  0.15215974466E+04  0.15215974466E+04  0.00000000000E+00 0. -1.
         -2   -1    0    0    0  501 -0.00000000000E+00 -0.00000000000E+00 -0.58459235113E+03  0.58459235113E+03  0.00000000000E+00 0.  1.
        -24    2    1    2    0    0 -0.33612881284E+03 -0.50213123124E+02  0.10954402016E+04  0.11497968391E+04  0.80867789983E+02 0.  0.
        254    2    1    2    0    0  0.33612881284E+03  0.50213123124E+02 -0.15843510604E+03  0.95639295868E+03  0.87981922691E+03 0.  0.
         23    2    4    4    0    0 -0.21771439050E+03  0.20941304845E+03  0.80645736669E+02  0.32580722770E+03  0.91614595392E+02 0.  0.
         23    2    4    4    0    0  0.55384320334E+03 -0.15919992532E+03 -0.23908084271E+03  0.63058573098E+03  0.91606793748E+02 0.  0.
          3    1    3    3  502    0 -0.23406647838E+03  0.13131524270E+01  0.69523071565E+03  0.73357657314E+03  0.00000000000E+00 0. -1.
         -4    1    3    3    0  502 -0.10206233446E+03 -0.51526275551E+02  0.40020948590E+03  0.41622026596E+03  0.00000000000E+00 0.  1.
         11    1    5    5    0    0 -0.12111778066E+03  0.12588870667E+03  0.92299177775E+02  0.19757687486E+03  0.00000000000E+00 0. -1.
        -11    1    5    5    0    0 -0.96596609837E+02  0.83524341774E+02 -0.11653441106E+02  0.12823035284E+03  0.00000000000E+00 0.  1.
          1    1    6    6  503    0  0.55200553773E+03 -0.16486576935E+03 -0.23132746766E+03  0.62080853158E+03  0.00000000000E+00 0. -1.
         -1    1    6    6    0  503  0.18376656046E+01  0.56658440288E+01 -0.77533750487E+01  0.97771993985E+01  0.00000000000E+00 0.  1.
<mgrwt>
<rscale>  0 0.18862812E+04</rscale>
<asrwt>0</asrwt>
<pdfrwt beam="1">  1        1 0.23409191E+00 0.18862812E+04</pdfrwt>
<pdfrwt beam="2">  1       -2 0.89937285E-01 0.18862812E+04</pdfrwt>
<totfact> 0.54997874E+00</totfact>
</mgrwt>
</event>
<event>
12    4  0.4413110E-008  0.1894679E+04  0.7818608E-02  0.8657510E-01
         -2   -1    0    0    0  501 -0.00000000000E+00  0.00000000000E+00  0.65585849731E+03  0.65585849731E+03  0.00000000000E+00 0.  1.
          1   -1    0    0  501    0  0.00000000000E+00 -0.00000000000E+00 -0.13683619366E+04  0.13683619366E+04  0.00000000000E+00 0. -1.
        -24    2    1    2    0    0  0.48409868202E+03  0.45774087296E+03 -0.61726283970E+03  0.91200203428E+03  0.82801307616E+02 0.  0.
        254    2    1    2    0    0 -0.48409868202E+03 -0.45774087296E+03 -0.95240599627E+02  0.11122183997E+04  0.88548334598E+03 0.  0.
         23    2    4    4    0    0  0.33839537003E+01 -0.55790320284E+03  0.88984727094E+02  0.57271202553E+03  0.93879431450E+02 0.  0.
         23    2    4    4    0    0 -0.48748263572E+03  0.10016232988E+03 -0.18422532672E+03  0.53950637413E+03  0.97243736371E+02 0.  0.
          1    1    3    3  502    0  0.18378486828E+03  0.13549656592E+03 -0.24911348794E+03  0.33792562356E+03  0.00000000000E+00 0. -1.
         -2    1    3    3    0  502  0.30031381374E+03  0.32224430704E+03 -0.36814935176E+03  0.57407641072E+03  0.00000000000E+00 0.  1.
         11    1    5    5    0    0 -0.39863143365E+02 -0.23576601871E+03  0.59141184583E+02  0.24631761100E+03  0.00000000000E+00 0.  1.
        -11    1    5    5    0    0  0.43247097066E+02 -0.32213718413E+03  0.29843542512E+02  0.32639441453E+03  0.00000000000E+00 0. -1.
          1    1    6    6  503    0 -0.44789429764E+03  0.11512032738E+03 -0.18247267424E+03  0.49715014682E+03  0.00000000000E+00 0. -1.
         -1    1    6    6    0  503 -0.39588338086E+02 -0.14957997504E+02 -0.17526524803E+01  0.42356227316E+02  0.00000000000E+00 0.  1.
<mgrwt>
<rscale>  0 0.18946787E+04</rscale>
<asrwt>0</asrwt>
<pdfrwt beam="1">  1        1 0.21051722E+00 0.18946787E+04</pdfrwt>
<pdfrwt beam="2">  1       -2 0.10090131E+00 0.18946787E+04</pdfrwt>
<totfact> 0.53712406E+00</totfact>
</mgrwt>
</event>
<event>
12    4  0.4413110E-008  0.1556040E+04  0.7818608E-02  0.8848019E-01
          1   -1    0    0  501    0  0.00000000000E+00  0.00000000000E+00  0.14634263753E+04  0.14634263753E+04  0.00000000000E+00 0. -1.
         -2   -1    0    0    0  501 -0.00000000000E+00 -0.00000000000E+00 -0.41362878746E+03  0.41362878746E+03  0.00000000000E+00 0.  1.
        -24    2    1    2    0    0  0.40935644827E+03  0.30870236890E+02  0.74316921011E+03  0.85267254723E+03  0.78894389327E+02 0.  0.
        254    2    1    2    0    0 -0.40935644827E+03 -0.30870236890E+02  0.30662837768E+03  0.10243826155E+04  0.88702486304E+03 0.  0.
         23    2    4    4    0    0 -0.54430091914E+03 -0.13886892969E+03 -0.95768880755E+02  0.57712972365E+03  0.91427398436E+02 0.  0.
         23    2    4    4    0    0  0.13494447087E+03  0.10799869280E+03  0.40239725844E+03  0.44725289184E+03  0.90762700479E+02 0.  0.
          1    1    3    3  502    0  0.81826641342E+02  0.35249136153E+02  0.18870242067E+03  0.20867847133E+03  0.00000000000E+00 0. -1.
         -2    1    3    3    0  502  0.32752980693E+03 -0.43788992635E+01  0.55446678945E+03  0.64399407589E+03  0.00000000000E+00 0.  1.
         11    1    5    5    0    0 -0.47663062701E+03 -0.11133152779E+03 -0.11240352017E+03  0.50220116988E+03  0.00000000000E+00 0. -1.
        -11    1    5    5    0    0 -0.67670292133E+02 -0.27537401904E+02  0.16634639419E+02  0.74928553767E+02  0.00000000000E+00 0.  1.
          1    1    6    6  503    0  0.61494071480E+02  0.59731806147E+02  0.30146367838E+03  0.31341627092E+03  0.00000000000E+00 0. -1.
         -1    1    6    6    0  503  0.73450399385E+02  0.48266886656E+02  0.10093358006E+03  0.13383662092E+03  0.00000000000E+00 0.  1.
<mgrwt>
<rscale>  0 0.15560402E+04</rscale>
<asrwt>0</asrwt>
<pdfrwt beam="1">  1        1 0.22514252E+00 0.15560402E+04</pdfrwt>
<pdfrwt beam="2">  1       -2 0.63635199E-01 0.15560402E+04</pdfrwt>
<totfact> 0.13391207E+01</totfact>
</mgrwt>
</event>
<event>
12    4  0.4413110E-008  0.3656565E+04  0.7818608E-02  0.8077656E-01
         -2   -1    0    0    0  501 -0.00000000000E+00  0.00000000000E+00  0.14906309323E+04  0.14906309323E+04  0.00000000000E+00 0.  1.
          1   -1    0    0  501    0  0.00000000000E+00 -0.00000000000E+00 -0.22424176447E+04  0.22424176447E+04  0.00000000000E+00 0. -1.
        -24    2    1    2    0    0 -0.40413166039E+03  0.82609647614E+03 -0.18328140216E+04  0.20521344734E+04  0.79315018836E+02 0.  0.
        254    2    1    2    0    0  0.40413166039E+03 -0.82609647614E+03  0.10810273091E+04  0.16809141036E+04  0.90060779128E+03 0.  0.
         23    2    4    4    0    0  0.62729695155E+03 -0.53631244769E+03  0.99248700470E+03  0.12939743765E+04  0.90590979549E+02 0.  0.
         23    2    4    4    0    0 -0.22316529117E+03 -0.28978402845E+03  0.88540304440E+02  0.38693972709E+03  0.90030198047E+02 0.  0.
          1    1    3    3  502    0 -0.34643301877E+03  0.74925986170E+03 -0.16752238054E+04  0.18675601663E+04  0.00000000000E+00 0. -1.
         -2    1    3    3    0  502 -0.57698641612E+02  0.76836614441E+02 -0.15759021625E+03  0.18457430704E+03  0.00000000000E+00 0.  1.
         11    1    5    5    0    0  0.21563487365E+03 -0.13257883311E+03  0.32440102995E+03  0.41147487646E+03  0.00000000000E+00 0.  1.
        -11    1    5    5    0    0  0.41166207790E+03 -0.40373361458E+03  0.66808597475E+03  0.88249950004E+03  0.00000000000E+00 0. -1.
          1    1    6    6  503    0 -0.19141577836E+03 -0.20402457810E+03  0.37642625238E+02  0.28228176687E+03  0.00000000000E+00 0. -1.
         -1    1    6    6    0  503 -0.31749512808E+02 -0.85759450354E+02  0.50897679202E+02  0.10465796022E+03  0.00000000000E+00 0.  1.
<mgrwt>
<rscale>  0 0.36565651E+04</rscale>
<asrwt>0</asrwt>
<pdfrwt beam="1">  1        1 0.34498733E+00 0.36565651E+04</pdfrwt>
<pdfrwt beam="2">  1       -2 0.22932784E+00 0.36565651E+04</pdfrwt>
<totfact> 0.12461674E-01</totfact>
</mgrwt>
</event>
<event>
12    4  0.4413110E-008  0.2645880E+04  0.7818608E-02  0.8352782E-01
         -2   -1    0    0    0  501 -0.00000000000E+00  0.00000000000E+00  0.63777695263E+03  0.63777695263E+03  0.00000000000E+00 0.  1.
          1   -1    0    0  501    0  0.00000000000E+00 -0.00000000000E+00 -0.27441733029E+04  0.27441733029E+04  0.00000000000E+00 0. -1.
        -24    2    1    2    0    0 -0.92947454079E+03 -0.59859750446E+03 -0.44324955532E+03  0.11938513674E+04  0.81049521268E+02 0.  0.
        254    2    1    2    0    0  0.92947454079E+03  0.59859750446E+03 -0.16631467950E+04  0.21880988881E+04  0.89413510630E+03 0.  0.
         23    2    4    4    0    0  0.72293808435E+03  0.45180083881E+03 -0.49595013074E+03  0.99026500597E+03  0.88852563874E+02 0.  0.
         23    2    4    4    0    0  0.20653645643E+03  0.14679666565E+03 -0.11671966642E+04  0.11978338822E+04  0.90837147638E+02 0.  0.
          3    1    3    3  502    0 -0.56049007104E+02 -0.48537088286E+02 -0.49246898901E+02  0.89008972514E+02  0.00000000000E+00 0. -1.
         -4    1    3    3    0  502 -0.87342553368E+03 -0.55006041617E+03 -0.39400265642E+03  0.11048423949E+04  0.00000000000E+00 0.  1.
         11    1    5    5    0    0  0.28845733178E+03  0.14825998771E+03 -0.22737242121E+03  0.39608947744E+03  0.00000000000E+00 0. -1.
        -11    1    5    5    0    0  0.43448075257E+03  0.30354085111E+03 -0.26857770953E+03  0.59417552853E+03  0.00000000000E+00 0.  1.
          1    1    6    6  503    0 -0.76352279050E+00  0.16612106681E+02 -0.27432882678E+02  0.32079714890E+02  0.00000000000E+00 0. -1.
         -1    1    6    6    0  503  0.20729997922E+03  0.13018455897E+03 -0.11397637815E+04  0.11657541673E+04  0.00000000000E+00 0.  1.
<mgrwt>
<rscale>  0 0.26458802E+04</rscale>
<asrwt>0</asrwt>
<pdfrwt beam="1">  1        1 0.42218051E+00 0.26458802E+04</pdfrwt>
<pdfrwt beam="2">  1       -2 0.98119531E-01 0.26458802E+04</pdfrwt>
<totfact> 0.60844519E-01</totfact>
</mgrwt>
</event>
<event>
12    4  0.4413110E-008  0.2278830E+04  0.7818608E-02  0.8486315E-01
          1   -1    0    0  501    0  0.00000000000E+00  0.00000000000E+00  0.64810518169E+03  0.64810518169E+03  0.00000000000E+00 0. -1.
         -2   -1    0    0    0  501 -0.00000000000E+00 -0.00000000000E+00 -0.20031718098E+04  0.20031718098E+04  0.00000000000E+00 0.  1.
        -24    2    1    2    0    0  0.49304079680E+03  0.70838256319E+03 -0.96341121844E+02  0.87214412135E+03  0.80365872745E+02 0.  0.
        254    2    1    2    0    0 -0.49304079680E+03 -0.70838256319E+03 -0.12587255063E+04  0.17791328702E+04  0.91434609771E+03 0.  0.
         23    2    4    4    0    0 -0.26900494954E+03  0.17090459531E+03 -0.22325765113E+03  0.39926721507E+03  0.89433140760E+02 0.  0.
         23    2    4    4    0    0 -0.22403584726E+03 -0.87928715850E+03 -0.10354678552E+04  0.13798656551E+04  0.92182314477E+02 0.  0.
          1    1    3    3  502    0  0.46880865503E+02  0.67322551975E+02 -0.33401824980E+02  0.88576653056E+02  0.00000000000E+00 0. -1.
         -4    1    3    3    0  502  0.44615993130E+03  0.64106001121E+03 -0.62939296864E+02  0.78356746829E+03  0.00000000000E+00 0.  1.
         11    1    5    5    0    0 -0.10437410478E+02  0.36200613579E+02 -0.39769636769E+02  0.54781821526E+02  0.00000000000E+00 0. -1.
        -11    1    5    5    0    0 -0.25856753906E+03  0.13470398173E+03 -0.18348801436E+03  0.34448539355E+03  0.00000000000E+00 0.  1.
          2    1    6    6  503    0 -0.58559621525E+02 -0.25066395552E+03 -0.35843699161E+03  0.44129210828E+03  0.00000000000E+00 0. -1.
         -2    1    6    6    0  503 -0.16547622574E+03 -0.62862320298E+03 -0.67703086355E+03  0.93857354683E+03  0.00000000000E+00 0.  1.
<mgrwt>
<rscale>  0 0.22788296E+04</rscale>
<asrwt>0</asrwt>
<pdfrwt beam="1">  1        1 0.99708489E-01 0.22788296E+04</pdfrwt>
<pdfrwt beam="2">  1       -2 0.30818028E+00 0.22788296E+04</pdfrwt>
<totfact> 0.68760232E-01</totfact>
</mgrwt>
</event>
<event>
12    4  0.4413110E-008  0.3262453E+04  0.7818608E-02  0.8172515E-01
          1   -1    0    0  501    0  0.00000000000E+00  0.00000000000E+00  0.11791494996E+04  0.11791494996E+04  0.00000000000E+00 0. -1.
         -2   -1    0    0    0  501 -0.00000000000E+00 -0.00000000000E+00 -0.22566265808E+04  0.22566265808E+04  0.00000000000E+00 0.  1.
        -24    2    1    2    0    0 -0.29922999479E+03  0.33722632610E+03 -0.20108759467E+04  0.20622812370E+04  0.78240928577E+02 0.  0.
        254    2    1    2    0    0  0.29922999479E+03 -0.33722632610E+03  0.93339886551E+03  0.13734948434E+04  0.90110735089E+03 0.  0.
         23    2    4    4    0    0  0.18832862174E+03 -0.61944591501E+03  0.44508279524E+03  0.78967099158E+03  0.79376753114E+02 0.  0.
         23    2    4    4    0    0  0.11090137304E+03  0.28221958890E+03  0.48831607026E+03  0.58382385178E+03  0.10222863850E+03 0.  0.
          3    1    3    3  502    0 -0.11405149213E+03  0.11163211560E+03 -0.87970711180E+03  0.89406603484E+03  0.00000000000E+00 0. -1.
         -4    1    3    3    0  502 -0.18517850265E+03  0.22559421050E+03 -0.11311688348E+04  0.11682152022E+04  0.00000000000E+00 0.  1.
         11    1    5    5    0    0  0.12759090695E+03 -0.44595934634E+03  0.35979692505E+03  0.58703748211E+03  0.00000000000E+00 0.  1.
        -11    1    5    5    0    0  0.60737714790E+02 -0.17348656867E+03  0.85285870189E+02  0.20263350947E+03  0.00000000000E+00 0. -1.
          1    1    6    6  503    0 -0.72185385646E+01  0.64739298996E+01 -0.11314496089E+01  0.97621332490E+01  0.00000000000E+00 0. -1.
         -1    1    6    6    0  503  0.11811991161E+03  0.27574565900E+03  0.48944751987E+03  0.57406171854E+03  0.00000000000E+00 0.  1.
<mgrwt>
<rscale>  0 0.32624531E+04</rscale>
<asrwt>0</asrwt>
<pdfrwt beam="1">  1        1 0.18140762E+00 0.32624531E+04</pdfrwt>
<pdfrwt beam="2">  1       -2 0.34717331E+00 0.32624531E+04</pdfrwt>
<totfact> 0.13102512E-01</totfact>
</mgrwt>
</event>
<event>
12    4  0.4413110E-008  0.2100147E+04  0.7818608E-02  0.8561178E-01
          1   -1    0    0  501    0  0.00000000000E+00  0.00000000000E+00  0.17560389079E+04  0.17560389079E+04  0.00000000000E+00 0. -1.
         -2   -1    0    0    0  501 -0.00000000000E+00 -0.00000000000E+00 -0.62792165872E+03  0.62792165872E+03  0.00000000000E+00 0.  1.
        -24    2    1    2    0    0  0.50235434043E+03 -0.62065538955E+03  0.80299020644E+03  0.11351593672E+04  0.78870281286E+02 0.  0.
        254    2    1    2    0    0 -0.50235434043E+03  0.62065538955E+03  0.32512704277E+03  0.12488011995E+04  0.90345107559E+03 0.  0.
         23    2    4    4    0    0 -0.21537418085E+03 -0.19993394440E+03  0.19590921407E+03  0.36513310485E+03  0.92639862902E+02 0.  0.
         23    2    4    4    0    0 -0.28698015958E+03  0.82058933395E+03  0.12921782870E+03  0.88366809465E+03  0.91910757071E+02 0.  0.
          1    1    3    3  502    0  0.45605833759E+03 -0.56280446639E+03  0.75799506978E+03  0.10484725082E+04  0.00000000000E+00 0. -1.
         -2    1    3    3    0  502  0.46296002844E+02 -0.57850923161E+02  0.44995136666E+02  0.86686858944E+02  0.00000000000E+00 0.  1.
         11    1    5    5    0    0 -0.22300084918E+03 -0.17939923530E+03  0.18291894080E+03  0.33966572283E+03  0.00000000000E+00 0.  1.
        -11    1    5    5    0    0  0.76266683245E+01 -0.20534709095E+02  0.12990273266E+02  0.25467382019E+02  0.00000000000E+00 0. -1.
          2    1    6    6  503    0 -0.10632393777E+03  0.22634833148E+03  0.41786175111E+01  0.25011159060E+03  0.00000000000E+00 0. -1.
         -2    1    6    6    0  503 -0.18065622181E+03  0.59424100247E+03  0.12503921119E+03  0.63355650405E+03  0.00000000000E+00 0.  1.
<mgrwt>
<rscale>  0 0.21001475E+04</rscale>
<asrwt>0</asrwt>
<pdfrwt beam="1">  1        1 0.27015983E+00 0.21001475E+04</pdfrwt>
<pdfrwt beam="2">  1       -2 0.96603333E-01 0.21001475E+04</pdfrwt>
<totfact> 0.31585980E+00</totfact>
</mgrwt>
</event>
<event>
12    4  0.4413110E-008  0.1094029E+04  0.7818608E-02  0.9211031E-01
         -4   -1    0    0    0  501 -0.00000000000E+00  0.00000000000E+00  0.12815896190E+03  0.12815896190E+03  0.00000000000E+00 0.  1.
          3   -1    0    0  501    0  0.00000000000E+00 -0.00000000000E+00 -0.23347946289E+04  0.23347946289E+04  0.00000000000E+00 0. -1.
        -24    2    1    2    0    0  0.11579433475E+03 -0.96678100361E+02 -0.41328587021E+03  0.44984773120E+03  0.93823172502E+02 0.  0.
        254    2    1    2    0    0 -0.11579433475E+03  0.96678100361E+02 -0.17933497968E+04  0.20131058596E+04  0.90207356976E+03 0.  0.
         23    2    4    4    0    0 -0.34624978060E+03 -0.26463364691E+03 -0.64007194759E+03  0.77978111219E+03  0.91905425262E+02 0.  0.
         23    2    4    4    0    0  0.23045544586E+03  0.36131174727E+03 -0.11532778492E+04  0.12333247474E+04  0.85931623232E+02 0.  0.
          1    1    3    3  502    0  0.19157419053E+02 -0.28370063068E+02 -0.22408637878E+03  0.22668606561E+03  0.00000000000E+00 0. -1.
         -2    1    3    3    0  502  0.96636915692E+02 -0.68308037293E+02 -0.18919949143E+03  0.22316166559E+03  0.00000000000E+00 0.  1.
         11    1    5    5    0    0 -0.33717476336E+03 -0.27004053515E+03 -0.60670288477E+03  0.74477990176E+03  0.00000000000E+00 0.  1.
        -11    1    5    5    0    0 -0.90750172445E+01  0.54068882398E+01 -0.33369062822E+02  0.35001210437E+02  0.00000000000E+00 0. -1.
          3    1    6    6  503    0  0.55933927428E+01  0.28907855202E+02 -0.38216289958E+02  0.48243496482E+02  0.00000000000E+00 0. -1.
         -3    1    6    6    0  503  0.22486205312E+03  0.33240389207E+03 -0.11150615593E+04  0.11850812510E+04  0.00000000000E+00 0.  1.
<mgrwt>
<rscale>  0 0.10940290E+04</rscale>
<asrwt>0</asrwt>
<pdfrwt beam="1">  1        3 0.35919918E+00 0.10940290E+04</pdfrwt>
<pdfrwt beam="2">  1       -4 0.19716763E-01 0.10940290E+04</pdfrwt>
<totfact> 0.10123028E+00</totfact>
</mgrwt>
</event>
<event>
12    4  0.4413110E-008  0.3400396E+04  0.7818608E-02  0.8137809E-01
         -2   -1    0    0    0  501 -0.00000000000E+00  0.00000000000E+00  0.10706667455E+04  0.10706667455E+04  0.00000000000E+00 0.  1.
          1   -1    0    0  501    0  0.00000000000E+00 -0.00000000000E+00 -0.26998820918E+04  0.26998820918E+04  0.00000000000E+00 0. -1.
        -24    2    1    2    0    0  0.15353727633E+04 -0.33326643496E+03 -0.10286011896E+04  0.18797381431E+04  0.83420863627E+02 0.  0.
        254    2    1    2    0    0 -0.15353727633E+04  0.33326643496E+03 -0.60061415665E+03  0.18908106942E+04  0.86370809731E+03 0.  0.
         23    2    4    4    0    0 -0.10993799405E+04  0.17829614439E+03  0.11156207883E+02  0.11175968288E+04  0.92045868754E+02 0.  0.
         23    2    4    4    0    0 -0.43599282275E+03  0.15497029057E+03 -0.61177036454E+03  0.77321386546E+03  0.97422637855E+02 0.  0.
          1    1    3    3  502    0  0.72257164989E+03 -0.16303769294E+03 -0.53424309768E+03  0.91329445742E+03  0.00000000000E+00 0. -1.
         -2    1    3    3    0  502  0.81280111340E+03 -0.17022874202E+03 -0.49435809195E+03  0.96644368570E+03  0.00000000000E+00 0.  1.
         11    1    5    5    0    0 -0.99267185238E+03  0.18784462955E+03  0.53007147774E+01  0.10103024839E+04  0.00000000000E+00 0. -1.
        -11    1    5    5    0    0 -0.10670808816E+03 -0.95484851572E+01  0.58554931061E+01  0.10729434489E+03  0.00000000000E+00 0.  1.
          1    1    6    6  503    0 -0.35463976519E+03  0.84241749323E+02 -0.45606549266E+03  0.58383368264E+03  0.00000000000E+00 0. -1.
         -1    1    6    6    0  503 -0.81353057557E+02  0.70728541245E+02 -0.15570487187E+03  0.18938018282E+03  0.00000000000E+00 0.  1.
<mgrwt>
<rscale>  0 0.34003964E+04</rscale>
<asrwt>0</asrwt>
<pdfrwt beam="1">  1        1 0.41536647E+00 0.34003964E+04</pdfrwt>
<pdfrwt beam="2">  1       -2 0.16471796E+00 0.34003964E+04</pdfrwt>
<totfact> 0.16526693E-01</totfact>
</mgrwt>
</event>
<event>
12    4  0.4413110E-008  0.3206838E+04  0.7818608E-02  0.8187014E-01
         -2   -1    0    0    0  501 -0.00000000000E+00  0.00000000000E+00  0.14233537901E+04  0.14233537901E+04  0.00000000000E+00 0.  1.
          1   -1    0    0  501    0  0.00000000000E+00 -0.00000000000E+00 -0.18062636669E+04  0.18062636669E+04  0.00000000000E+00 0. -1.
        -24    2    1    2    0    0 -0.55697697808E+03 -0.35086866172E+03 -0.15050044949E+04  0.16446060089E+04  0.79738466332E+02 0.  0.
        254    2    1    2    0    0  0.55697697808E+03  0.35086866172E+03  0.11220946182E+04  0.15850114481E+04  0.90544618094E+03 0.  0.
         23    2    4    4    0    0  0.61350585329E+03  0.29370537424E+03  0.12385951698E+04  0.14159794390E+04  0.90705557551E+02 0.  0.
         23    2    4    4    0    0 -0.56528875213E+02  0.57163287473E+02 -0.11650055160E+03  0.16903200910E+03  0.92392025685E+02 0.  0.
          1    1    3    3  502    0 -0.25610446198E+03 -0.19599939420E+03 -0.80146046058E+03  0.86391210655E+03  0.00000000000E+00 0. -1.
         -2    1    3    3    0  502 -0.30087251609E+03 -0.15486926752E+03 -0.70354403433E+03  0.78069390237E+03  0.00000000000E+00 0.  1.
         11    1    5    5    0    0  0.58203432731E+03  0.29860138347E+03  0.11878924546E+04  0.13561029563E+04  0.00000000000E+00 0. -1.
        -11    1    5    5    0    0  0.31471525983E+02 -0.48960092242E+01  0.50702715202E+02  0.59876482720E+02  0.00000000000E+00 0.  1.
          4    1    6    6  503    0 -0.16495948481E+02  0.32233022983E+02 -0.11636765106E+03  0.12187089193E+03  0.00000000000E+00 0. -1.
         -4    1    6    6    0  503 -0.40032926732E+02  0.24930264490E+02 -0.13290054258E+00  0.47161117171E+02  0.00000000000E+00 0.  1.
<mgrwt>
<rscale>  0 0.32068378E+04</rscale>
<asrwt>0</asrwt>
<pdfrwt beam="1">  1        1 0.27788672E+00 0.32068378E+04</pdfrwt>
<pdfrwt beam="2">  1       -2 0.21897751E+00 0.32068378E+04</pdfrwt>
<totfact> 0.29744613E-01</totfact>
</mgrwt>
</event>
<event>
12    4  0.4413110E-008  0.1898521E+04  0.7818608E-02  0.8655593E-01
          1   -1    0    0  501    0  0.00000000000E+00  0.00000000000E+00  0.29879818934E+04  0.29879818934E+04  0.00000000000E+00 0. -1.
         -2   -1    0    0    0  501 -0.00000000000E+00 -0.00000000000E+00 -0.30157320818E+03  0.30157320818E+03  0.00000000000E+00 0.  1.
        -24    2    1    2    0    0 -0.32231746118E+02  0.10891081317E+03 -0.21170405709E+03  0.25242620710E+03  0.77459225129E+02 0.  0.
        254    2    1    2    0    0  0.32231746118E+02 -0.10891081317E+03  0.28981127423E+04  0.30371288945E+04  0.90121806675E+03 0.  0.
         23    2    4    4    0    0  0.12976441704E+02  0.37896613953E+03  0.95283094446E+03  0.10294876491E+04  0.90411768981E+02 0.  0.
         23    2    4    4    0    0  0.19255304414E+02 -0.48787695270E+03  0.19452817979E+04  0.20076412454E+04  0.90041153769E+02 0.  0.
          1    1    3    3  502    0 -0.12957688991E+02  0.43829626055E+02 -0.16193041898E+03  0.16825694166E+03  0.00000000000E+00 0. -1.
         -2    1    3    3    0  502 -0.19274057127E+02  0.65081187112E+02 -0.49773638112E+02  0.84169265442E+02  0.00000000000E+00 0.  1.
         11    1    5    5    0    0 -0.37841578387E+02  0.20961191639E+03  0.51855886797E+03  0.56060007144E+03  0.00000000000E+00 0. -1.
        -11    1    5    5    0    0  0.50818020091E+02  0.16935422314E+03  0.43427207649E+03  0.46888757766E+03  0.00000000000E+00 0.  1.
          3    1    6    6  503    0  0.11626299820E+02 -0.42644277778E+03  0.17972566809E+04  0.18471925159E+04  0.00000000000E+00 0. -1.
         -3    1    6    6    0  503  0.76290045948E+01 -0.61434174918E+02  0.14802511693E+03  0.16044872951E+03  0.00000000000E+00 0.  1.
<mgrwt>
<rscale>  0 0.18985208E+04</rscale>
<asrwt>0</asrwt>
<pdfrwt beam="1">  1        1 0.45968950E+00 0.18985208E+04</pdfrwt>
<pdfrwt beam="2">  1       -2 0.46395880E-01 0.18985208E+04</pdfrwt>
<totfact> 0.22136028E+00</totfact>
</mgrwt>
</event>
<event>
12    4  0.4413110E-008  0.1188092E+04  0.7818608E-02  0.9123344E-01
          1   -1    0    0  501    0  0.00000000000E+00  0.00000000000E+00  0.21327938405E+04  0.21327938405E+04  0.00000000000E+00 0. -1.
         -2   -1    0    0    0  501 -0.00000000000E+00 -0.00000000000E+00 -0.16545940922E+03  0.16545940922E+03  0.00000000000E+00 0.  1.
        -24    2    1    2    0    0 -0.19459337164E+03 -0.43692602337E+02  0.14801982845E+03  0.26062932995E+03  0.79007304892E+02 0.  0.
        254    2    1    2    0    0  0.19459337164E+03  0.43692602337E+02  0.18193146028E+04  0.20376239198E+04  0.89567292614E+03 0.  0.
         23    2    4    4    0    0  0.58331780852E+02  0.34485328959E+03  0.15781474343E+04  0.16190436166E+04  0.91796078503E+02 0.  0.
         23    2    4    4    0    0  0.13626159079E+03 -0.30116068725E+03  0.24116716850E+03  0.41858030317E+03  0.88220668575E+02 0.  0.
          1    1    3    3  502    0 -0.19099881625E+02 -0.34543835068E+00  0.53151234615E+02  0.56479895067E+02  0.00000000000E+00 0. -1.
         -4    1    3    3    0  502 -0.17549349002E+03 -0.43347163987E+02  0.94868593839E+02  0.20414943488E+03  0.00000000000E+00 0.  1.
         11    1    5    5    0    0  0.75639010613E+02  0.20168652350E+03  0.86053233618E+03  0.88708207923E+03  0.00000000000E+00 0.  1.
        -11    1    5    5    0    0 -0.17307229761E+02  0.14316676609E+03  0.71761509817E+03  0.73196153740E+03  0.00000000000E+00 0. -1.
          1    1    6    6  503    0  0.71120325889E+01  0.49821305543E+01  0.12537533358E+02  0.15250979480E+02  0.00000000000E+00 0. -1.
         -1    1    6    6    0  503  0.12914955820E+03 -0.30614281781E+03  0.22862963514E+03  0.40332932369E+03  0.00000000000E+00 0.  1.
<mgrwt>
<rscale>  0 0.11880923E+04</rscale>
<asrwt>0</asrwt>
<pdfrwt beam="1">  1        1 0.32812211E+00 0.11880923E+04</pdfrwt>
<pdfrwt beam="2">  1       -2 0.25455295E-01 0.11880923E+04</pdfrwt>
<totfact> 0.29313148E+01</totfact>
</mgrwt>
</event>
<event>
12    4  0.4413110E-008  0.1623565E+04  0.7818608E-02  0.8806200E-01
         -2   -1    0    0    0  501 -0.00000000000E+00  0.00000000000E+00  0.57518166329E+03  0.57518166329E+03  0.00000000000E+00 0.  1.
          1   -1    0    0  501    0  0.00000000000E+00 -0.00000000000E+00 -0.11457092242E+04  0.11457092242E+04  0.00000000000E+00 0. -1.
        -24    2    1    2    0    0  0.10119124660E+03 -0.34117548309E+03  0.25075377413E+03  0.44240705250E+03  0.78779224473E+02 0.  0.
        254    2    1    2    0    0 -0.10119124660E+03  0.34117548309E+03 -0.82128133509E+03  0.12784838350E+04  0.91289512347E+03 0.  0.
         23    2    4    4    0    0 -0.35827788681E+03  0.52827538873E+03 -0.59159246537E+03  0.87523971086E+03  0.92870748127E+02 0.  0.
         23    2    4    4    0    0  0.25708664021E+03 -0.18709990564E+03 -0.22968886971E+03  0.40324412419E+03  0.93535723420E+02 0.  0.
          1    1    3    3  502    0  0.45648941765E+02 -0.20229647010E+03  0.18900095502E+03  0.28058697172E+03  0.00000000000E+00 0. -1.
         -2    1    3    3    0  502  0.55542304838E+02 -0.13887901298E+03  0.61752819109E+02  0.16182008077E+03  0.00000000000E+00 0.  1.
         11    1    5    5    0    0 -0.10705289615E+03  0.12831572182E+03 -0.20776809278E+03  0.26663238254E+03  0.00000000000E+00 0.  1.
        -11    1    5    5    0    0 -0.25122499066E+03  0.39995966690E+03 -0.38382437259E+03  0.60860732831E+03  0.00000000000E+00 0. -1.
          3    1    6    6  503    0  0.16007846261E+03 -0.15435313465E+03 -0.19311271425E+03  0.29452083929E+03  0.00000000000E+00 0. -1.
         -3    1    6    6    0  503  0.97008177596E+02 -0.32746770989E+02 -0.36576155462E+02  0.10872328490E+03  0.00000000000E+00 0.  1.
<mgrwt>
<rscale>  0 0.16235651E+04</rscale>
<asrwt>0</asrwt>
<pdfrwt beam="1">  1        1 0.17626295E+00 0.16235651E+04</pdfrwt>
<pdfrwt beam="2">  1       -2 0.88489489E-01 0.16235651E+04</pdfrwt>
<totfact> 0.10814647E+01</totfact>
</mgrwt>
</event>
<event>
12    4  0.4413110E-008  0.1147709E+04  0.7818608E-02  0.9159900E-01
          1   -1    0    0  501    0  0.00000000000E+00  0.00000000000E+00  0.37759641786E+03  0.37759641786E+03  0.00000000000E+00 0. -1.
         -2   -1    0    0    0  501 -0.00000000000E+00 -0.00000000000E+00 -0.87211903100E+03  0.87211903100E+03  0.00000000000E+00 0.  1.
        -24    2    1    2    0    0 -0.10934907756E+03 -0.16260139612E+03 -0.16746039166E+03  0.27052038479E+03  0.82108836471E+02 0.  0.
        254    2    1    2    0    0  0.10934907756E+03  0.16260139612E+03 -0.32706222148E+03  0.97919506408E+03  0.90191842314E+03 0.  0.
         23    2    4    4    0    0 -0.17899023170E+02  0.41999508187E+03 -0.47724629802E+03  0.64187869600E+03  0.86763976269E+02 0.  0.
         23    2    4    4    0    0  0.12724810073E+03 -0.25739368575E+03  0.15018407654E+03  0.33731636808E+03  0.93720257803E+02 0.  0.
          1    1    3    3  502    0 -0.32238954076E+02 -0.18718924733E+02 -0.88191652305E+00  0.37289758378E+02  0.00000000000E+00 0. -1.
         -2    1    3    3    0  502 -0.77110123482E+02 -0.14388247139E+03 -0.16657847513E+03  0.23323062641E+03  0.00000000000E+00 0.  1.
         11    1    5    5    0    0  0.40823826953E+01  0.37675695788E+03 -0.39144038206E+03  0.54331210540E+03  0.00000000000E+00 0. -1.
        -11    1    5    5    0    0 -0.21981405865E+02  0.43238123991E+02 -0.85805915958E+02  0.98566590605E+02  0.00000000000E+00 0.  1.
          1    1    6    6  503    0  0.12992963446E+03 -0.19801645508E+03  0.91818863325E+02  0.25401364148E+03  0.00000000000E+00 0. -1.
         -1    1    6    6    0  503 -0.26815337353E+01 -0.59377230672E+02  0.58365213212E+02  0.83302726599E+02  0.00000000000E+00 0.  1.
<mgrwt>
<rscale>  0 0.11477091E+04</rscale>
<asrwt>0</asrwt>
<pdfrwt beam="1">  1        1 0.58091756E-01 0.11477091E+04</pdfrwt>
<pdfrwt beam="2">  1       -2 0.13417216E+00 0.11477091E+04</pdfrwt>
<totfact> 0.22507225E+01</totfact>
</mgrwt>
</event>
<event>
12    4  0.4413110E-008  0.2115614E+04  0.7818608E-02  0.8554396E-01
          1   -1    0    0  501    0  0.00000000000E+00  0.00000000000E+00  0.10658103253E+04  0.10658103253E+04  0.00000000000E+00 0. -1.
         -2   -1    0    0    0  501 -0.00000000000E+00 -0.00000000000E+00 -0.10498641572E+04  0.10498641572E+04  0.00000000000E+00 0.  1.
        -24    2    1    2    0    0  0.83306234733E+03  0.13162212291E+03 -0.15636280204E+03  0.86151666430E+03  0.80276891074E+02 0.  0.
        254    2    1    2    0    0 -0.83306234733E+03 -0.13162212291E+03  0.17230897014E+03  0.12541578182E+04  0.91208782137E+03 0.  0.
         23    2    4    4    0    0 -0.69785066791E+01  0.34080763422E+02 -0.27820635203E+03  0.29442191905E+03  0.89862640298E+02 0.  0.
         23    2    4    4    0    0 -0.82608384065E+03 -0.16570288633E+03  0.45051532217E+03  0.95973589911E+03  0.90867938296E+02 0.  0.
          3    1    3    3  502    0  0.97618524829E+02 -0.78104376384E+01 -0.29668744304E+02  0.10232601680E+03  0.00000000000E+00 0. -1.
         -4    1    3    3    0  502  0.73544382250E+03  0.13943256055E+03 -0.12669405774E+03  0.75919064750E+03  0.00000000000E+00 0.  1.
         11    1    5    5    0    0  0.55916703615E+01  0.28881786326E+02 -0.19356818407E+02  0.35215206625E+02  0.00000000000E+00 0. -1.
        -11    1    5    5    0    0 -0.12570177041E+02  0.51989770959E+01 -0.25884953362E+03  0.25920671243E+03  0.00000000000E+00 0.  1.
          4    1    6    6  503    0 -0.10899306377E+03 -0.46416546502E+01  0.30701631288E+02  0.11332970958E+03  0.00000000000E+00 0. -1.
         -4    1    6    6    0  503 -0.71709077687E+03 -0.16106123168E+03  0.41981369088E+03  0.84640618953E+03  0.00000000000E+00 0.  1.
<mgrwt>
<rscale>  0 0.21156144E+04</rscale>
<asrwt>0</asrwt>
<pdfrwt beam="1">  1        1 0.16397082E+00 0.21156144E+04</pdfrwt>
<pdfrwt beam="2">  1       -2 0.16151756E+00 0.21156144E+04</pdfrwt>
<totfact> 0.26607001E+00</totfact>
</mgrwt>
</event>
<event>
12    4  0.4413110E-008  0.2339712E+04  0.7818608E-02  0.8462426E-01
          1   -1    0    0  501    0  0.00000000000E+00  0.00000000000E+00  0.14457058421E+04  0.14457058421E+04  0.00000000000E+00 0. -1.
         -2   -1    0    0    0  501 -0.00000000000E+00 -0.00000000000E+00 -0.94663965751E+03  0.94663965751E+03  0.00000000000E+00 0.  1.
        -24    2    1    2    0    0  0.39940226242E+03  0.44934678585E+03  0.10289581685E+04  0.11945631742E+04  0.82410942072E+02 0.  0.
        254    2    1    2    0    0 -0.39940226242E+03 -0.44934678585E+03 -0.52989198392E+03  0.11977823254E+04  0.89020350668E+03 0.  0.
         23    2    4    4    0    0 -0.16095729024E+03 -0.43126240882E+03 -0.73364435376E+03  0.87093281277E+03  0.91626480992E+02 0.  0.
         23    2    4    4    0    0 -0.23844497218E+03 -0.18084377034E+02  0.20375236984E+03  0.32684951265E+03  0.90180520379E+02 0.  0.
          3    1    3    3  502    0  0.32205964552E+03  0.39205828276E+03  0.81623010679E+03  0.96107424250E+03  0.00000000000E+00 0. -1.
         -4    1    3    3    0  502  0.77342616902E+02  0.57288503088E+02  0.21272806171E+03  0.23348893168E+03  0.00000000000E+00 0.  1.
         11    1    5    5    0    0  0.12526213416E+01 -0.10482148830E+03 -0.16428963407E+03  0.19488508750E+03  0.00000000000E+00 0. -1.
        -11    1    5    5    0    0 -0.16220991158E+03 -0.32644092052E+03 -0.56935471969E+03  0.67604772527E+03  0.00000000000E+00 0.  1.
          2    1    6    6  503    0 -0.27162637900E+02  0.23754839793E+02  0.10774411339E+02  0.37658853554E+02  0.00000000000E+00 0. -1.
         -2    1    6    6    0  503 -0.21128233428E+03 -0.41839216827E+02  0.19297795850E+03  0.28919065910E+03  0.00000000000E+00 0.  1.
<mgrwt>
<rscale>  0 0.23397115E+04</rscale>
<asrwt>0</asrwt>
<pdfrwt beam="1">  1        1 0.22241628E+00 0.23397115E+04</pdfrwt>
<pdfrwt beam="2">  1       -2 0.14563687E+00 0.23397115E+04</pdfrwt>
<totfact> 0.18281483E+00</totfact>
</mgrwt>
</event>
<event>
12    4  0.4413110E-008  0.1149363E+04  0.7818608E-02  0.9158371E-01
          1   -1    0    0  501    0  0.00000000000E+00  0.00000000000E+00  0.49123766112E+03  0.49123766112E+03  0.00000000000E+00 0. -1.
         -2   -1    0    0    0  501 -0.00000000000E+00 -0.00000000000E+00 -0.67229949985E+03  0.67229949985E+03  0.00000000000E+00 0.  1.
        -24    2    1    2    0    0 -0.53929182510E+02  0.70142080643E+02  0.15076074974E+03  0.19760725084E+03  0.92149626794E+02 0.  0.
        254    2    1    2    0    0  0.53929182510E+02 -0.70142080643E+02 -0.33182258847E+03  0.96592991013E+03  0.90282118543E+03 0.  0.
         23    2    4    4    0    0  0.16133506645E+03 -0.39146084968E+03 -0.42027431729E+03  0.60331469648E+03  0.89930643950E+02 0.  0.
         23    2    4    4    0    0 -0.10740588394E+03  0.32131876903E+03  0.88451728815E+02  0.36261521365E+03  0.94256615690E+02 0.  0.
          1    1    3    3  502    0 -0.20634419953E+02  0.74641952273E+02  0.14375494104E+03  0.16328711952E+03  0.00000000000E+00 0. -1.
         -2    1    3    3    0  502 -0.33294762557E+02 -0.44998716302E+01  0.70058086995E+01  0.34320131322E+02  0.00000000000E+00 0.  1.
         11    1    5    5    0    0  0.14249001794E+03 -0.29965055807E+03 -0.27762707834E+03  0.43263224197E+03  0.00000000000E+00 0.  1.
        -11    1    5    5    0    0  0.18845048514E+02 -0.91810291607E+02 -0.14264723895E+03  0.17068245451E+03  0.00000000000E+00 0. -1.
          4    1    6    6  503    0 -0.10753391236E+03  0.22968416754E+03  0.33622664427E+02  0.25582971424E+03  0.00000000000E+00 0.  1.
         -4    1    6    6    0  503  0.12802841630E+00  0.91634601492E+02  0.54829064388E+02  0.10678549941E+03  0.00000000000E+00 0. -1.
<mgrwt>
<rscale>  0 0.11493630E+04</rscale>
<asrwt>0</asrwt>
<pdfrwt beam="1">  1        1 0.75575025E-01 0.11493630E+04</pdfrwt>
<pdfrwt beam="2">  1       -2 0.10343069E+00 0.11493630E+04</pdfrwt>
<totfact> 0.30064239E+01</totfact>
</mgrwt>
</event>
<event>
12    4  0.4413110E-008  0.3678354E+04  0.7818608E-02  0.8072776E-01
          1   -1    0    0  501    0  0.00000000000E+00  0.00000000000E+00  0.24815424568E+04  0.24815424568E+04  0.00000000000E+00 0. -1.
         -2   -1    0    0    0  501 -0.00000000000E+00 -0.00000000000E+00 -0.13630927257E+04  0.13630927257E+04  0.00000000000E+00 0.  1.
        -24    2    1    2    0    0  0.91315676248E+03  0.29299372261E+03 -0.97166659816E+03  0.13675928243E+04  0.80458441365E+02 0.  0.
        254    2    1    2    0    0 -0.91315676248E+03 -0.29299372261E+03  0.20901163293E+04  0.24770423582E+04  0.92057155071E+03 0.  0.
         23    2    4    4    0    0 -0.84793888251E+02  0.19290176534E+03  0.73341759791E+02  0.24109820137E+03  0.91368673079E+02 0.  0.
         23    2    4    4    0    0 -0.82836287423E+03 -0.48589548795E+03  0.20167745695E+04  0.22359441568E+04  0.98929932949E+02 0.  0.
          3    1    3    3  502    0  0.28917251443E+02  0.13318975376E+02 -0.15027370392E+02  0.35205459761E+02  0.00000000000E+00 0. -1.
         -4    1    3    3    0  502  0.88423951104E+03  0.27967474724E+03 -0.95663922777E+03  0.13323873646E+04  0.00000000000E+00 0.  1.
         11    1    5    5    0    0  0.14752651430E+02  0.31881472088E+02 -0.63550021930E+01  0.35699510354E+02  0.00000000000E+00 0.  1.
        -11    1    5    5    0    0 -0.99546539681E+02  0.16102029325E+03  0.79696761984E+02  0.20539869102E+03  0.00000000000E+00 0. -1.
          4    1    6    6  503    0 -0.53672794174E+02 -0.71008011681E+01  0.13224594286E+03  0.14289919389E+03  0.00000000000E+00 0. -1.
         -4    1    6    6    0  503 -0.77469008006E+03 -0.47879468678E+03  0.18845286267E+04  0.20930449629E+04  0.00000000000E+00 0.  1.
<mgrwt>
<rscale>  0 0.36783542E+04</rscale>
<asrwt>0</asrwt>
<pdfrwt beam="1">  1        1 0.38177576E+00 0.36783542E+04</pdfrwt>
<pdfrwt beam="2">  1       -2 0.20970657E+00 0.36783542E+04</pdfrwt>
<totfact> 0.11348548E-01</totfact>
</mgrwt>
</event>
<event>
12    4  0.4413110E-008  0.1018188E+04  0.7818608E-02  0.9288818E-01
         -2   -1    0    0    0  501 -0.00000000000E+00  0.00000000000E+00  0.48813841348E+03  0.48813841348E+03  0.00000000000E+00 0.  1.
          1   -1    0    0  501    0  0.00000000000E+00 -0.00000000000E+00 -0.53094948497E+03  0.53094948497E+03  0.00000000000E+00 0. -1.
        -24    2    1    2    0    0 -0.92953129408E+01 -0.16329286932E+03 -0.64596510486E+02  0.19302228847E+03  0.79585995413E+02 0.  0.
        254    2    1    2    0    0  0.92953129408E+01  0.16329286932E+03  0.21785439004E+02  0.82606560998E+03  0.80941881781E+03 0.  0.
         23    2    4    4    0    0  0.75691834288E+02  0.47655285760E+03 -0.17157364242E+02  0.49155770714E+03  0.92210218715E+02 0.  0.
         23    2    4    4    0    0 -0.66396521347E+02 -0.31325998827E+03  0.38942803246E+02  0.33450790284E+03  0.88536302376E+02 0.  0.
          1    1    3    3  502    0  0.11925157952E+02 -0.15836472129E+03 -0.48898991554E+02  0.16617071257E+03  0.00000000000E+00 0. -1.
         -4    1    3    3    0  502 -0.21220470893E+02 -0.49281480367E+01 -0.15697518932E+02  0.26851575905E+02  0.00000000000E+00 0.  1.
         11    1    5    5    0    0 -0.43587834914E+01  0.24933319165E+03 -0.24228391270E+02  0.25054551362E+03  0.00000000000E+00 0.  1.
        -11    1    5    5    0    0  0.80050617779E+02  0.22721966595E+03  0.70710270281E+01  0.24101219352E+03  0.00000000000E+00 0. -1.
          3    1    6    6  503    0  0.14807064379E+02 -0.13024249341E+02 -0.51327452099E+01  0.20377077803E+02  0.00000000000E+00 0. -1.
         -3    1    6    6    0  503 -0.81203585726E+02 -0.30023573893E+03  0.44075548456E+02  0.31413082504E+03  0.00000000000E+00 0.  1.
<mgrwt>
<rscale>  0 0.10181883E+04</rscale>
<asrwt>0</asrwt>
<pdfrwt beam="1">  1        1 0.81684536E-01 0.10181883E+04</pdfrwt>
<pdfrwt beam="2">  1       -2 0.75098218E-01 0.10181883E+04</pdfrwt>
<totfact> 0.56904405E+01</totfact>
</mgrwt>
</event>
<event>
12    4  0.4413110E-008  0.1438916E+04  0.7818608E-02  0.8926121E-01
          1   -1    0    0  501    0  0.00000000000E+00  0.00000000000E+00  0.11686857600E+04  0.11686857600E+04  0.00000000000E+00 0. -1.
         -2   -1    0    0    0  501 -0.00000000000E+00 -0.00000000000E+00 -0.44290750495E+03  0.44290750495E+03  0.00000000000E+00 0.  1.
        -24    2    1    2    0    0  0.41022113298E+03 -0.50769777514E+02  0.12312919925E+03  0.43882866013E+03  0.80937290500E+02 0.  0.
        254    2    1    2    0    0 -0.41022113298E+03  0.50769777514E+02  0.60264905579E+03  0.11727646048E+04  0.91724150887E+03 0.  0.
         23    2    4    4    0    0 -0.54758885200E+03  0.16773072478E+03  0.73259012755E+03  0.93442476802E+03  0.92055446586E+02 0.  0.
         23    2    4    4    0    0  0.13736771902E+03 -0.11696094726E+03 -0.12994107176E+03  0.23833983679E+03  0.85857103717E+02 0.  0.
          3    1    3    3  502    0  0.17949680434E+03  0.74104750526E+01  0.81482291172E+02  0.19726475023E+03  0.00000000000E+00 0. -1.
         -4    1    3    3    0  502  0.23072432863E+03 -0.58180252567E+02  0.41646908083E+02  0.24156390990E+03  0.00000000000E+00 0.  1.
         11    1    5    5    0    0 -0.51744624300E+02  0.38392119185E+02  0.53880348019E+02  0.83991385643E+02  0.00000000000E+00 0. -1.
        -11    1    5    5    0    0 -0.49584422769E+03  0.12933860559E+03  0.67870977953E+03  0.85043338238E+03  0.00000000000E+00 0.  1.
          4    1    6    6  503    0  0.34216262423E+02 -0.73941432041E+02 -0.85393856587E+02  0.11802626288E+03  0.00000000000E+00 0. -1.
         -4    1    6    6    0  503  0.10315145660E+03 -0.43019515221E+02 -0.44547215170E+02  0.12031357391E+03  0.00000000000E+00 0.  1.
<mgrwt>
<rscale>  0 0.14389158E+04</rscale>
<asrwt>0</asrwt>
<pdfrwt beam="1">  1        1 0.17979781E+00 0.14389158E+04</pdfrwt>
<pdfrwt beam="2">  1       -2 0.68139617E-01 0.14389158E+04</pdfrwt>
<totfact> 0.18936743E+01</totfact>
</mgrwt>
</event>
<event>
12    4  0.4413110E-008  0.2837805E+04  0.7818608E-02  0.8291627E-01
          1   -1    0    0  501    0  0.00000000000E+00  0.00000000000E+00  0.91526083626E+03  0.91526083626E+03  0.00000000000E+00 0. -1.
         -2   -1    0    0    0  501 -0.00000000000E+00 -0.00000000000E+00 -0.21996832973E+04  0.21996832973E+04  0.00000000000E+00 0.  1.
        -24    2    1    2    0    0 -0.55219922302E+03 -0.22275692142E+03  0.65975916198E+03  0.89201449489E+03  0.76570747175E+02 0.  0.
        254    2    1    2    0    0  0.55219922302E+03  0.22275692142E+03 -0.19441816230E+04  0.22229296387E+04  0.89834813254E+03 0.  0.
         23    2    4    4    0    0  0.36420839892E+03 -0.10525681562E+03 -0.17406828826E+04  0.17837861140E+04  0.90494462093E+02 0.  0.
         23    2    4    4    0    0  0.18799082410E+03  0.32801373704E+03 -0.20349874040E+03  0.43914352464E+03  0.92204860274E+02 0.  0.
          1    1    3    3  502    0 -0.47775815463E+03 -0.18008622639E+03  0.52558475105E+03  0.73275045806E+03  0.00000000000E+00 0. -1.
         -2    1    3    3    0  502 -0.74441068394E+02 -0.42670695034E+02  0.13417441093E+03  0.15926403683E+03  0.00000000000E+00 0.  1.
         11    1    5    5    0    0  0.30128687548E+02 -0.28240369182E+02 -0.30238494800E+03  0.30519160054E+03  0.00000000000E+00 0.  1.
        -11    1    5    5    0    0  0.33407971137E+03 -0.77016446435E+02 -0.14382979346E+04  0.14785945135E+04  0.00000000000E+00 0. -1.
          3    1    6    6  503    0  0.36616553253E+02  0.82384923975E+02 -0.77641739174E+01  0.90489392015E+02  0.00000000000E+00 0. -1.
         -3    1    6    6    0  503  0.15137427085E+03  0.24562881306E+03 -0.19573456649E+03  0.34865413263E+03  0.00000000000E+00 0.  1.
<mgrwt>
<rscale>  0 0.28378048E+04</rscale>
<asrwt>0</asrwt>
<pdfrwt beam="1">  1        1 0.14080936E+00 0.28378048E+04</pdfrwt>
<pdfrwt beam="2">  1       -2 0.33841281E+00 0.28378048E+04</pdfrwt>
<totfact> 0.24621815E-01</totfact>
</mgrwt>
</event>
<event>
12    4  0.4413110E-008  0.1852576E+04  0.7818608E-02  0.8678829E-01
         -2   -1    0    0    0  501 -0.00000000000E+00  0.00000000000E+00  0.10318622779E+04  0.10318622779E+04  0.00000000000E+00 0.  1.
          1   -1    0    0  501    0  0.00000000000E+00 -0.00000000000E+00 -0.83151555848E+03  0.83151555848E+03  0.00000000000E+00 0. -1.
        -24    2    1    2    0    0  0.24781380063E+03  0.62852444998E+03  0.26471279179E+03  0.72997717433E+03  0.79618772337E+02 0.  0.
        254    2    1    2    0    0 -0.24781380063E+03 -0.62852444998E+03 -0.64366072411E+02  0.11334006620E+04  0.90774412989E+03 0.  0.
         23    2    4    4    0    0 -0.37752870158E+03 -0.25493938929E+03  0.32800835112E+03  0.56876326347E+03  0.91543206933E+02 0.  0.
         23    2    4    4    0    0  0.12971490095E+03 -0.37358506068E+03 -0.39237442353E+03  0.56463739854E+03  0.92010599864E+02 0.  0.
          3    1    3    3  502    0  0.10927676133E+03  0.21532841081E+03  0.61807091968E+02  0.24925459211E+03  0.00000000000E+00 0. -1.
         -4    1    3    3    0  502  0.13853703929E+03  0.41319603917E+03  0.20290569982E+03  0.48072258222E+03  0.00000000000E+00 0.  1.
         11    1    5    5    0    0 -0.11506513636E+03 -0.81826709617E+02  0.52236398836E+02  0.15054646251E+03  0.00000000000E+00 0.  1.
        -11    1    5    5    0    0 -0.26246356522E+03 -0.17311267968E+03  0.27577195229E+03  0.41821680096E+03  0.00000000000E+00 0. -1.
          2    1    6    6  503    0  0.52718028118E+02 -0.27761629935E+03 -0.26152393009E+03  0.38502566948E+03  0.00000000000E+00 0. -1.
         -2    1    6    6    0  503  0.76996872834E+02 -0.95968761338E+02 -0.13085049345E+03  0.17961172906E+03  0.00000000000E+00 0.  1.
<mgrwt>
<rscale>  0 0.18525761E+04</rscale>
<asrwt>0</asrwt>
<pdfrwt beam="1">  1        1 0.12792547E+00 0.18525761E+04</pdfrwt>
<pdfrwt beam="2">  1       -2 0.15874804E+00 0.18525761E+04</pdfrwt>
<totfact> 0.43965880E+00</totfact>
</mgrwt>
</event>
<event>
12    4  0.4413110E-008  0.2871739E+04  0.7818608E-02  0.8281336E-01
          1   -1    0    0  501    0  0.00000000000E+00  0.00000000000E+00  0.19747470195E+04  0.19747470195E+04  0.00000000000E+00 0. -1.
         -2   -1    0    0    0  501 -0.00000000000E+00 -0.00000000000E+00 -0.10440434090E+04  0.10440434090E+04  0.00000000000E+00 0.  1.
        -24    2    1    2    0    0  0.38449394307E+02 -0.48180720322E+03 -0.84129963363E+03  0.97351839707E+03  0.79601877330E+02 0.  0.
        254    2    1    2    0    0 -0.38449394307E+02  0.48180720322E+03  0.17720032442E+04  0.20452720315E+04  0.89973643266E+03 0.  0.
         23    2    4    4    0    0  0.48731223901E+02 -0.23170331232E+03  0.23548884892E+03  0.34644222289E+03  0.92228296708E+02 0.  0.
         23    2    4    4    0    0 -0.87180618209E+02  0.71351051554E+03  0.15365143953E+04  0.16988298086E+04  0.91915807312E+02 0.  0.
          1    1    3    3  502    0 -0.89141015547E+01 -0.13616515524E+03 -0.29938087996E+03  0.32901264717E+03  0.00000000000E+00 0. -1.
         -4    1    3    3    0  502  0.47363495862E+02 -0.34564204798E+03 -0.54191875367E+03  0.64450574990E+03  0.00000000000E+00 0.  1.
         11    1    5    5    0    0  0.69971860072E+02 -0.16728497652E+03  0.13889859418E+03  0.22841441294E+03  0.00000000000E+00 0. -1.
        -11    1    5    5    0    0 -0.21240636171E+02 -0.64418335793E+02  0.96590254741E+02  0.11802780995E+03  0.00000000000E+00 0.  1.
          1    1    6    6  503    0 -0.82984582363E+02  0.38269948638E+03  0.89894991505E+03  0.98053877411E+03  0.00000000000E+00 0. -1.
         -1    1    6    6    0  503 -0.41960358451E+01  0.33081102917E+03  0.63756448023E+03  0.71829103446E+03  0.00000000000E+00 0.  1.
<mgrwt>
<rscale>  0 0.28717393E+04</rscale>
<asrwt>0</asrwt>
<pdfrwt beam="1">  1        1 0.30380723E+00 0.28717393E+04</pdfrwt>
<pdfrwt beam="2">  1       -2 0.16062206E+00 0.28717393E+04</pdfrwt>
<totfact> 0.58438802E-01</totfact>
</mgrwt>
</event>
<event>
12    4  0.4413110E-008  0.1183789E+04  0.7818608E-02  0.9127166E-01
          1   -1    0    0  501    0  0.00000000000E+00  0.00000000000E+00  0.16712575786E+04  0.16712575786E+04  0.00000000000E+00 0. -1.
         -2   -1    0    0    0  501 -0.00000000000E+00 -0.00000000000E+00 -0.20962600231E+03  0.20962600231E+03  0.00000000000E+00 0.  1.
        -24    2    1    2    0    0 -0.63226300418E+02  0.11020431615E+03  0.66095476220E+03  0.67784408290E+03  0.80429140731E+02 0.  0.
        254    2    1    2    0    0  0.63226300418E+02 -0.11020431615E+03  0.80067681412E+03  0.12030394981E+04  0.88886338480E+03 0.  0.
         23    2    4    4    0    0 -0.40237243074E+03 -0.94822503541E+02  0.37877301291E+03  0.56798431063E+03  0.90787122502E+02 0.  0.
         23    2    4    4    0    0  0.46559873115E+03 -0.15381812613E+02  0.42190380120E+03  0.63505518742E+03  0.90958754346E+02 0.  0.
          3    1    3    3  502    0 -0.51201501838E+02  0.12123037867E+03  0.61887867740E+03  0.63271574648E+03  0.00000000000E+00 0. -1.
         -4    1    3    3    0  502 -0.12024798580E+02 -0.11026062518E+02  0.42076084796E+02  0.45128336412E+02  0.00000000000E+00 0.  1.
         11    1    5    5    0    0 -0.27181453844E+03 -0.99697900861E+02  0.22828511952E+03  0.36869623071E+03  0.00000000000E+00 0. -1.
        -11    1    5    5    0    0 -0.13055789230E+03  0.48753973201E+01  0.15048789339E+03  0.19928807992E+03  0.00000000000E+00 0.  1.
          4    1    6    6  503    0  0.34586891538E+03  0.16376153829E+02  0.34748127282E+03  0.49054736774E+03  0.00000000000E+00 0. -1.
         -4    1    6    6    0  503  0.11972981577E+03 -0.31757966442E+02  0.74422528389E+02  0.14450781968E+03  0.00000000000E+00 0.  1.
<mgrwt>
<rscale>  0 0.11837889E+04</rscale>
<asrwt>0</asrwt>
<pdfrwt beam="1">  1        1 0.25711654E+00 0.11837889E+04</pdfrwt>
<pdfrwt beam="2">  1       -2 0.32250155E-01 0.11837889E+04</pdfrwt>
<totfact> 0.38829161E+01</totfact>
</mgrwt>
</event>
<event>
12    4  0.4413110E-008  0.1415222E+04  0.7818608E-02  0.8942873E-01
         -2   -1    0    0    0  501 -0.00000000000E+00  0.00000000000E+00  0.37726842009E+03  0.37726842009E+03  0.00000000000E+00 0.  1.
          1   -1    0    0  501    0  0.00000000000E+00 -0.00000000000E+00 -0.13272069109E+04  0.13272069109E+04  0.00000000000E+00 0. -1.
        -24    2    1    2    0    0 -0.10741490736E+03  0.37499649315E+03 -0.47250425062E+03  0.61830072900E+03  0.82916780124E+02 0.  0.
        254    2    1    2    0    0  0.10741490736E+03 -0.37499649315E+03 -0.47743424016E+03  0.10861746020E+04  0.89424352391E+03 0.  0.
         23    2    4    4    0    0  0.17919921845E+03 -0.42938859844E+03 -0.69237460478E+03  0.83904014032E+03  0.90104580088E+02 0.  0.
         23    2    4    4    0    0 -0.71784311097E+02  0.54392105293E+02  0.21494036462E+03  0.24713446164E+03  0.82247147953E+02 0.  0.
          1    1    3    3  502    0 -0.62064483014E+02  0.32425140126E+03 -0.37852502900E+03  0.50226702943E+03  0.00000000000E+00 0. -1.
         -2    1    3    3    0  502 -0.45350424342E+02  0.50745091885E+02 -0.93979221627E+02  0.11603369957E+03  0.00000000000E+00 0.  1.
         11    1    5    5    0    0  0.12947350627E+03 -0.30914556370E+03 -0.56513886411E+03  0.65705121879E+03  0.00000000000E+00 0.  1.
        -11    1    5    5    0    0  0.49725712186E+02 -0.12024303474E+03 -0.12723574067E+03  0.18198892153E+03  0.00000000000E+00 0. -1.
          4    1    6    6  503    0  0.13293853095E+02 -0.61625151588E+01  0.48329987778E+02  0.50502384517E+02  0.00000000000E+00 0. -1.
         -4    1    6    6    0  503 -0.85078164192E+02  0.60554620451E+02  0.16661037685E+03  0.19663207712E+03  0.00000000000E+00 0.  1.
<mgrwt>
<rscale>  0 0.14152219E+04</rscale>
<asrwt>0</asrwt>
<pdfrwt beam="1">  1        1 0.20418568E+00 0.14152219E+04</pdfrwt>
<pdfrwt beam="2">  1       -2 0.58041294E-01 0.14152219E+04</pdfrwt>
<totfact> 0.20527619E+01</totfact>
</mgrwt>
</event>
<event>
12    4  0.4413110E-008  0.2143994E+04  0.7818608E-02  0.8542107E-01
          1   -1    0    0  501    0  0.00000000000E+00  0.00000000000E+00  0.13583170622E+04  0.13583170622E+04  0.00000000000E+00 0. -1.
         -2   -1    0    0    0  501 -0.00000000000E+00 -0.00000000000E+00 -0.84603044873E+03  0.84603044873E+03  0.00000000000E+00 0.  1.
        -24    2    1    2    0    0 -0.14011928176E+03  0.62256818229E+02 -0.68699848652E+03  0.70886913927E+03  0.83780735186E+02 0.  0.
        254    2    1    2    0    0  0.14011928176E+03 -0.62256818229E+02  0.11992851000E+04  0.14954783717E+04  0.88014855822E+03 0.  0.
         23    2    4    4    0    0 -0.21915831410E+03  0.29321707609E+03  0.44283598086E+03  0.58163868034E+03  0.90516452491E+02 0.  0.
         23    2    4    4    0    0  0.35927759586E+03 -0.35547389431E+03  0.75644911912E+03  0.91383969133E+03  0.86288071058E+02 0.  0.
          3    1    3    3  502    0 -0.86921289319E+01 -0.14970692302E+02 -0.32171915097E+02  0.36533640037E+02  0.00000000000E+00 0. -1.
         -4    1    3    3    0  502 -0.13142715283E+03  0.77227510531E+02 -0.65482657142E+03  0.67233549923E+03  0.00000000000E+00 0.  1.
         11    1    5    5    0    0 -0.44621359837E+02  0.11543248163E+03  0.10780654357E+03  0.16412792086E+03  0.00000000000E+00 0. -1.
        -11    1    5    5    0    0 -0.17453695426E+03  0.17778459446E+03  0.33502943729E+03  0.41751075948E+03  0.00000000000E+00 0.  1.
          4    1    6    6  503    0  0.92079172658E+02 -0.59950341576E+02  0.11761502711E+03  0.16095313633E+03  0.00000000000E+00 0. -1.
         -4    1    6    6    0  503  0.26719842320E+03 -0.29552355274E+03  0.63883409201E+03  0.75288655500E+03  0.00000000000E+00 0.  1.
<mgrwt>
<rscale>  0 0.21439940E+04</rscale>
<asrwt>0</asrwt>
<pdfrwt beam="1">  1        1 0.20897185E+00 0.21439940E+04</pdfrwt>
<pdfrwt beam="2">  1       -2 0.13015853E+00 0.21439940E+04</pdfrwt>
<totfact> 0.28620132E+00</totfact>
</mgrwt>
</event>
<event>
12    4  0.4413110E-008  0.1428043E+04  0.7818608E-02  0.8933766E-01
          1   -1    0    0  501    0  0.00000000000E+00  0.00000000000E+00  0.16355708318E+04  0.16355708318E+04  0.00000000000E+00 0. -1.
         -2   -1    0    0    0  501 -0.00000000000E+00 -0.00000000000E+00 -0.31171162139E+03  0.31171162139E+03  0.00000000000E+00 0.  1.
        -24    2    1    2    0    0 -0.43378987960E+02 -0.32575176841E+03  0.39764494018E+02  0.34043188072E+03  0.79477664827E+02 0.  0.
        254    2    1    2    0    0  0.43378987960E+02  0.32575176841E+03  0.12840947164E+04  0.16068505725E+04  0.90833560448E+03 0.  0.
         23    2    4    4    0    0  0.27211635327E+03  0.36080877185E+02  0.22879136694E+02  0.28960521611E+03  0.89434819218E+02 0.  0.
         23    2    4    4    0    0 -0.22873736531E+03  0.28967089123E+03  0.12612155797E+04  0.13172453564E+04  0.90777656077E+02 0.  0.
          1    1    3    3  502    0 -0.44840442278E+00 -0.15470527758E+02 -0.16010096771E+02  0.22267947688E+02  0.00000000000E+00 0. -1.
         -2    1    3    3    0  502 -0.42930583537E+02 -0.31028124066E+03  0.55774590789E+02  0.31816393303E+03  0.00000000000E+00 0.  1.
         11    1    5    5    0    0  0.11423518391E+03 -0.29077386002E+02  0.11177091025E+02  0.11840649891E+03  0.00000000000E+00 0. -1.
        -11    1    5    5    0    0  0.15788116936E+03  0.65158263187E+02  0.11702045669E+02  0.17119871720E+03  0.00000000000E+00 0.  1.
          1    1    6    6  503    0 -0.15362670932E+03  0.19814135533E+03  0.99105699508E+03  0.10222793796E+04  0.00000000000E+00 0. -1.
         -1    1    6    6    0  503 -0.75110655993E+02  0.91529535895E+02  0.27015858467E+03  0.29496597677E+03  0.00000000000E+00 0.  1.
<mgrwt>
<rscale>  0 0.14280426E+04</rscale>
<asrwt>0</asrwt>
<pdfrwt beam="1">  1        1 0.25162628E+00 0.14280426E+04</pdfrwt>
<pdfrwt beam="2">  1       -2 0.47955635E-01 0.14280426E+04</pdfrwt>
<totfact> 0.18557117E+01</totfact>
</mgrwt>
</event>
<event>
12    4  0.4413110E-008  0.1313022E+04  0.7818608E-02  0.9019302E-01
         -2   -1    0    0    0  501 -0.00000000000E+00  0.00000000000E+00  0.46907493804E+03  0.46907493804E+03  0.00000000000E+00 0.  1.
          1   -1    0    0  501    0  0.00000000000E+00 -0.00000000000E+00 -0.91884418372E+03  0.91884418372E+03  0.00000000000E+00 0. -1.
        -24    2    1    2    0    0 -0.24789711729E+03  0.18340723301E+03 -0.26977968364E+03  0.41715248156E+03  0.78383169672E+02 0.  0.
        254    2    1    2    0    0  0.24789711729E+03 -0.18340723301E+03 -0.17998956204E+03  0.97076664019E+03  0.90271835773E+03 0.  0.
         23    2    4    4    0    0 -0.17013207725E+03 -0.10802784145E+03  0.26721701493E+03  0.34671077972E+03  0.90490294870E+02 0.  0.
         23    2    4    4    0    0  0.41802919454E+03 -0.75379391563E+02 -0.44720657697E+03  0.62405586047E+03  0.94981757944E+02 0.  0.
          3    1    3    3  502    0 -0.22408703116E+03  0.12847397904E+03 -0.21892965849E+03  0.33860117571E+03  0.00000000000E+00 0. -1.
         -4    1    3    3    0  502 -0.23810086126E+02  0.54933253975E+02 -0.50850025153E+02  0.78551305856E+02  0.00000000000E+00 0.  1.
         11    1    5    5    0    0 -0.13566399057E+03 -0.61215320313E+02  0.24027531217E+03  0.28263803604E+03  0.00000000000E+00 0. -1.
        -11    1    5    5    0    0 -0.34468086682E+02 -0.46812521138E+02  0.26941702762E+02  0.64072743679E+02  0.00000000000E+00 0.  1.
          3    1    6    6  503    0  0.32486866013E+03 -0.17021356878E+02 -0.33186191969E+03  0.46471680265E+03  0.00000000000E+00 0. -1.
         -3    1    6    6    0  503  0.93160534401E+02 -0.58358034685E+02 -0.11534465728E+03  0.15933905781E+03  0.00000000000E+00 0.  1.
<mgrwt>
<rscale>  0 0.13130221E+04</rscale>
<asrwt>0</asrwt>
<pdfrwt beam="1">  1        1 0.14136064E+00 0.13130221E+04</pdfrwt>
<pdfrwt beam="2">  1       -2 0.72165376E-01 0.13130221E+04</pdfrwt>
<totfact> 0.26274594E+01</totfact>
</mgrwt>
</event>
<event>
12    4  0.4413110E-008  0.2927757E+04  0.7818608E-02  0.8264667E-01
         -2   -1    0    0    0  501 -0.00000000000E+00  0.00000000000E+00  0.11203348945E+04  0.11203348945E+04  0.00000000000E+00 0.  1.
          1   -1    0    0  501    0  0.00000000000E+00 -0.00000000000E+00 -0.19127676912E+04  0.19127676912E+04  0.00000000000E+00 0. -1.
        -24    2    1    2    0    0 -0.53697400529E+03  0.84711010402E+03 -0.12517017374E+04  0.16059932579E+04  0.80749578500E+02 0.  0.
        254    2    1    2    0    0  0.53697400529E+03 -0.84711010402E+03  0.45926894064E+03  0.14271093277E+04  0.90541507760E+03 0.  0.
         23    2    4    4    0    0  0.70545176191E+03 -0.65879559045E+03  0.58305529537E+03  0.11313772305E+04  0.91581339876E+02 0.  0.
         23    2    4    4    0    0 -0.16847775661E+03 -0.18831451358E+03 -0.12378635473E+03  0.29573209725E+03  0.91034615546E+02 0.  0.
          1    1    3    3  502    0 -0.53727870615E+03  0.84107360921E+03 -0.12503002569E+04  0.15997887225E+04  0.00000000000E+00 0. -1.
         -2    1    3    3    0  502  0.30470085377E+00  0.60364948187E+01 -0.14014804571E+01  0.62045354200E+01  0.00000000000E+00 0.  1.
         11    1    5    5    0    0  0.63898577881E+03 -0.56329983828E+03  0.49261559720E+03  0.98401202225E+03  0.00000000000E+00 0. -1.
        -11    1    5    5    0    0  0.66465983099E+02 -0.95495752164E+02  0.90439698170E+02  0.14736520823E+03  0.00000000000E+00 0.  1.
          2    1    6    6  503    0 -0.28181086086E+02 -0.80218979460E+02 -0.10937248255E+02  0.85725618562E+02  0.00000000000E+00 0.  1.
         -2    1    6    6    0  503 -0.14029667053E+03 -0.10809553412E+03 -0.11284910648E+03  0.21000647869E+03  0.00000000000E+00 0. -1.
<mgrwt>
<rscale>  0 0.29277571E+04</rscale>
<asrwt>0</asrwt>
<pdfrwt beam="1">  1        1 0.29427195E+00 0.29277571E+04</pdfrwt>
<pdfrwt beam="2">  1       -2 0.17235922E+00 0.29277571E+04</pdfrwt>
<totfact> 0.52719999E-01</totfact>
</mgrwt>
</event>
<event>
12    4  0.4413110E-008  0.1797900E+04  0.7818608E-02  0.8707417E-01
          1   -1    0    0  501    0  0.00000000000E+00  0.00000000000E+00  0.14196297228E+04  0.14196297228E+04  0.00000000000E+00 0. -1.
         -2   -1    0    0    0  501 -0.00000000000E+00 -0.00000000000E+00 -0.56924092486E+03  0.56924092486E+03  0.00000000000E+00 0.  1.
        -24    2    1    2    0    0 -0.34806361114E+03 -0.55800764117E+03  0.20194136214E+03  0.69559639508E+03  0.10272889609E+03 0.  0.
        254    2    1    2    0    0  0.34806361114E+03  0.55800764117E+03  0.64844743583E+03  0.12932742526E+04  0.90529189239E+03 0.  0.
         23    2    4    4    0    0 -0.26109091857E+03  0.32591064042E+03  0.41318039161E+03  0.59450840227E+03  0.91301648710E+02 0.  0.
         23    2    4    4    0    0  0.60915452972E+03  0.23209700075E+03  0.23526704423E+03  0.69876585035E+03  0.89358114810E+02 0.  0.
          1    1    3    3  502    0 -0.10899905474E+03 -0.13831045420E+03  0.97998641083E+02  0.20152992167E+03  0.00000000000E+00 0. -1.
         -2    1    3    3    0  502 -0.23906455640E+03 -0.41969718697E+03  0.10394272106E+03  0.49406647340E+03  0.00000000000E+00 0.  1.
         11    1    5    5    0    0 -0.42229717477E+02  0.10168884538E+03  0.14508485602E+03  0.18213617367E+03  0.00000000000E+00 0. -1.
        -11    1    5    5    0    0 -0.21886120110E+03  0.22422179505E+03  0.26809553559E+03  0.41237222860E+03  0.00000000000E+00 0.  1.
          3    1    6    6  503    0  0.49169312941E+02 -0.47698404008E+01  0.25377623869E+02  0.55537343345E+02  0.00000000000E+00 0. -1.
         -3    1    6    6    0  503  0.55998521678E+03  0.23686684115E+03  0.20988942036E+03  0.64322850700E+03  0.00000000000E+00 0.  1.
<mgrwt>
<rscale>  0 0.17979003E+04</rscale>
<asrwt>0</asrwt>
<pdfrwt beam="1">  1        1 0.21840457E+00 0.17979003E+04</pdfrwt>
<pdfrwt beam="2">  1       -2 0.87575528E-01 0.17979003E+04</pdfrwt>
<totfact> 0.69366303E+00</totfact>
</mgrwt>
</event>
<event>
12    4  0.4413110E-008  0.1399666E+04  0.7818608E-02  0.8954060E-01
          1   -1    0    0  501    0  0.00000000000E+00  0.00000000000E+00  0.16095202345E+04  0.16095202345E+04  0.00000000000E+00 0. -1.
         -2   -1    0    0    0  501 -0.00000000000E+00 -0.00000000000E+00 -0.30429337391E+03  0.30429337391E+03  0.00000000000E+00 0.  1.
        -24    2    1    2    0    0 -0.26213912714E+03  0.31000160948E+03  0.37097299108E+03  0.55574607696E+03  0.80092584447E+02 0.  0.
        254    2    1    2    0    0  0.26213912714E+03 -0.31000160948E+03  0.93425386950E+03  0.13580675314E+04  0.89816435434E+03 0.  0.
         23    2    4    4    0    0  0.57233744866E+03 -0.10172124408E+03  0.45728544595E+03  0.74507024605E+03  0.90012920356E+02 0.  0.
         23    2    4    4    0    0 -0.31019832152E+03 -0.20828036540E+03  0.47696842355E+03  0.61299728539E+03  0.93075697966E+02 0.  0.
          3    1    3    3  502    0 -0.13106560233E+03  0.10425762633E+03  0.18064782977E+03  0.24633611827E+03  0.00000000000E+00 0. -1.
         -4    1    3    3    0  502 -0.13107352481E+03  0.20574398315E+03  0.19032516131E+03  0.30940995869E+03  0.00000000000E+00 0.  1.
         11    1    5    5    0    0  0.22421696942E+03  0.33005535460E+01  0.18744064520E+03  0.29226381662E+03  0.00000000000E+00 0. -1.
        -11    1    5    5    0    0  0.34812047924E+03 -0.10502179763E+03  0.26984480075E+03  0.45280642943E+03  0.00000000000E+00 0.  1.
          3    1    6    6  503    0 -0.20333535174E+03 -0.14709490497E+03  0.24693468465E+03  0.35207799536E+03  0.00000000000E+00 0. -1.
         -3    1    6    6    0  503 -0.10686296978E+03 -0.61185460429E+02  0.23003373890E+03  0.26091929003E+03  0.00000000000E+00 0.  1.
<mgrwt>
<rscale>  0 0.13996662E+04</rscale>
<asrwt>0</asrwt>
<pdfrwt beam="1">  1        1 0.24761849E+00 0.13996662E+04</pdfrwt>
<pdfrwt beam="2">  1       -2 0.46814366E-01 0.13996662E+04</pdfrwt>
<totfact> 0.20346182E+01</totfact>
</mgrwt>
</event>
<event>
12    4  0.4413110E-008  0.2109011E+04  0.7818608E-02  0.8557284E-01
          1   -1    0    0  501    0  0.00000000000E+00  0.00000000000E+00  0.91486113203E+03  0.91486113203E+03  0.00000000000E+00 0. -1.
         -2   -1    0    0    0  501 -0.00000000000E+00 -0.00000000000E+00 -0.12154655693E+04  0.12154655693E+04  0.00000000000E+00 0.  1.
        -24    2    1    2    0    0 -0.80367936137E+03  0.26437322678E+03  0.24699934864E+02  0.85007177467E+03  0.78855667947E+02 0.  0.
        254    2    1    2    0    0  0.80367936137E+03 -0.26437322678E+03 -0.32530437208E+03  0.12802549266E+04  0.90412168634E+03 0.  0.
         23    2    4    4    0    0  0.88937658045E+03 -0.45699271665E+03 -0.22061841931E+03  0.10275226779E+04  0.85424362523E+02 0.  0.
         23    2    4    4    0    0 -0.85697219074E+02  0.19261948987E+03 -0.10468595277E+03  0.25273224873E+03  0.92022603789E+02 0.  0.
          3    1    3    3  502    0 -0.44396533694E+03  0.11974760051E+03  0.43728967101E+02  0.46190575965E+03  0.00000000000E+00 0. -1.
         -4    1    3    3    0  502 -0.35971402443E+03  0.14462562627E+03 -0.19029032237E+02  0.38816601501E+03  0.00000000000E+00 0.  1.
         11    1    5    5    0    0  0.24819897374E+03 -0.12315974917E+03 -0.22506490697E+02  0.27798848268E+03  0.00000000000E+00 0.  1.
        -11    1    5    5    0    0  0.64117760671E+03 -0.33383296748E+03 -0.19811192861E+03  0.74953419520E+03  0.00000000000E+00 0. -1.
          2    1    6    6  503    0 -0.71717959488E+02  0.18616303155E+03 -0.11850514699E+03  0.23204225885E+03  0.00000000000E+00 0. -1.
         -2    1    6    6    0  503 -0.13979259586E+02  0.64564583243E+01  0.13819194220E+02  0.20689989888E+02  0.00000000000E+00 0.  1.
<mgrwt>
<rscale>  0 0.21090113E+04</rscale>
<asrwt>0</asrwt>
<pdfrwt beam="1">  1        1 0.14074787E+00 0.21090113E+04</pdfrwt>
<pdfrwt beam="2">  1       -2 0.18699470E+00 0.21090113E+04</pdfrwt>
<totfact> 0.23140782E+00</totfact>
</mgrwt>
</event>
<event>
12    4  0.4413110E-008  0.1608649E+04  0.7818608E-02  0.8815252E-01
         -2   -1    0    0    0  501 -0.00000000000E+00  0.00000000000E+00  0.66696367554E+03  0.66696367554E+03  0.00000000000E+00 0.  1.
          1   -1    0    0  501    0  0.00000000000E+00 -0.00000000000E+00 -0.96997511231E+03  0.96997511231E+03  0.00000000000E+00 0. -1.
        -24    2    1    2    0    0 -0.38963480603E+03  0.33901934042E+03  0.10518538269E+02  0.52294920050E+03  0.81337761235E+02 0.  0.
        254    2    1    2    0    0  0.38963480603E+03 -0.33901934042E+03 -0.31352997504E+03  0.11139895873E+04  0.93590723910E+03 0.  0.
         23    2    4    4    0    0 -0.15683088624E+03  0.65001235757E+02 -0.37801691888E+03  0.42507583307E+03  0.94718453149E+02 0.  0.
         23    2    4    4    0    0  0.54646569228E+03 -0.40402057618E+03  0.64486943842E+02  0.68891375428E+03  0.92661837291E+02 0.  0.
          1    1    3    3  502    0 -0.16964975453E+03  0.12332128906E+03 -0.31214810351E+02  0.21204608917E+03  0.00000000000E+00 0. -1.
         -2    1    3    3    0  502 -0.21998505150E+03  0.21569805136E+03  0.41733348620E+02  0.31090311133E+03  0.00000000000E+00 0.  1.
         11    1    5    5    0    0 -0.50307457296E+02 -0.17906171523E+02 -0.64508603163E+02  0.83742648156E+02  0.00000000000E+00 0.  1.
        -11    1    5    5    0    0 -0.10652342895E+03  0.82907407280E+02 -0.31350831572E+03  0.34133318491E+03  0.00000000000E+00 0. -1.
          1    1    6    6  503    0  0.53823221567E+03 -0.37617524584E+03  0.65029205734E+02  0.65987160203E+03  0.00000000000E+00 0. -1.
         -1    1    6    6    0  503  0.82334766043E+01 -0.27845330347E+02 -0.54226189198E+00  0.29042152246E+02  0.00000000000E+00 0.  1.
<mgrwt>
<rscale>  0 0.16086493E+04</rscale>
<asrwt>0</asrwt>
<pdfrwt beam="1">  1        1 0.14922694E+00 0.16086493E+04</pdfrwt>
<pdfrwt beam="2">  1       -2 0.10260980E+00 0.16086493E+04</pdfrwt>
<totfact> 0.10432154E+01</totfact>
</mgrwt>
</event>
<event>
12    4  0.4413110E-008  0.1951830E+04  0.7818608E-02  0.8629479E-01
         -2   -1    0    0    0  501 -0.00000000000E+00  0.00000000000E+00  0.31283102672E+03  0.31283102672E+03  0.00000000000E+00 0.  1.
          1   -1    0    0  501    0  0.00000000000E+00 -0.00000000000E+00 -0.30444878856E+04  0.30444878856E+04  0.00000000000E+00 0. -1.
        -24    2    1    2    0    0  0.11190037381E+03  0.33866108672E+03 -0.22353214339E+04  0.22650235180E+04  0.80352965358E+02 0.  0.
        254    2    1    2    0    0 -0.11190037381E+03 -0.33866108672E+03 -0.49633542503E+03  0.10922953943E+04  0.90528854464E+03 0.  0.
         23    2    4    4    0    0 -0.92549316833E+02  0.16144175199E+03  0.16005238200E+03  0.26179996969E+03  0.91069444994E+02 0.  0.
         23    2    4    4    0    0 -0.19351056976E+02 -0.50010283871E+03 -0.65638780703E+03  0.83049542466E+03  0.91653611298E+02 0.  0.
          3    1    3    3  502    0  0.30141902440E+02  0.16029796147E+03 -0.12265655458E+04  0.12373629253E+04  0.00000000000E+00 0. -1.
         -4    1    3    3    0  502  0.81758471369E+02  0.17836312525E+03 -0.10087558881E+04  0.10276605927E+04  0.00000000000E+00 0.  1.
         11    1    5    5    0    0 -0.10656371589E+03  0.14991446054E+03  0.15980041585E+03  0.24365209609E+03  0.00000000000E+00 0.  1.
        -11    1    5    5    0    0  0.14014399057E+02  0.11527291454E+02  0.25196614993E+00  0.18147873598E+02  0.00000000000E+00 0. -1.
          2    1    6    6  503    0 -0.29749163420E+02 -0.49430826850E+02 -0.84076366064E+02  0.10196692943E+03  0.00000000000E+00 0. -1.
         -2    1    6    6    0  503  0.10398106444E+02 -0.45067201186E+03 -0.57231144097E+03  0.72852849523E+03  0.00000000000E+00 0.  1.
<mgrwt>
<rscale>  0 0.19518302E+04</rscale>
<asrwt>0</asrwt>
<pdfrwt beam="1">  1        1 0.46838274E+00 0.19518302E+04</pdfrwt>
<pdfrwt beam="2">  1       -2 0.48127851E-01 0.19518302E+04</pdfrwt>
<totfact> 0.18603681E+00</totfact>
</mgrwt>
</event>
<event>
12    4  0.4413110E-008  0.2290988E+04  0.7818608E-02  0.8481483E-01
          1   -1    0    0  501    0  0.00000000000E+00  0.00000000000E+00  0.96654549417E+03  0.96654549417E+03  0.00000000000E+00 0. -1.
         -2   -1    0    0    0  501 -0.00000000000E+00 -0.00000000000E+00 -0.13575730919E+04  0.13575730919E+04  0.00000000000E+00 0.  1.
        -24    2    1    2    0    0 -0.40396682398E+03 -0.44268371627E+03 -0.94093193297E+03  0.11184433727E+04  0.80028793861E+02 0.  0.
        254    2    1    2    0    0  0.40396682398E+03  0.44268371627E+03  0.54990433527E+03  0.12056752134E+04  0.88999992960E+03 0.  0.
         23    2    4    4    0    0  0.27505758025E+03  0.39354072164E+03 -0.13127902627E+03  0.50602893528E+03  0.91105041368E+02 0.  0.
         23    2    4    4    0    0  0.12890924373E+03  0.49142994631E+02  0.68118336154E+03  0.69964627810E+03  0.80383551706E+02 0.  0.
          3    1    3    3  502    0 -0.29161833955E+03 -0.27382039743E+03 -0.58302344601E+03  0.70706096244E+03  0.00000000000E+00 0. -1.
         -4    1    3    3    0  502 -0.11234848443E+03 -0.16886331884E+03 -0.35790848696E+03  0.41138241023E+03  0.00000000000E+00 0.  1.
         11    1    5    5    0    0  0.18129900525E+03  0.18564865326E+03 -0.52483366363E+02  0.26474375443E+03  0.00000000000E+00 0.  1.
        -11    1    5    5    0    0  0.93758574996E+02  0.20789206837E+03 -0.78795659908E+02  0.24128518085E+03  0.00000000000E+00 0. -1.
          2    1    6    6  503    0  0.19484339476E+02 -0.20331376793E+02  0.85279612931E+02  0.89808778796E+02  0.00000000000E+00 0. -1.
         -2    1    6    6    0  503  0.10942490425E+03  0.69474371424E+02  0.59590374861E+03  0.60983749931E+03  0.00000000000E+00 0.  1.
<mgrwt>
<rscale>  0 0.22909877E+04</rscale>
<asrwt>0</asrwt>
<pdfrwt beam="1">  1        1 0.14869931E+00 0.22909877E+04</pdfrwt>
<pdfrwt beam="2">  1       -2 0.20885740E+00 0.22909877E+04</pdfrwt>
<totfact> 0.14849927E+00</totfact>
</mgrwt>
</event>
<event>
12    4  0.4413110E-008  0.2235501E+04  0.7818608E-02  0.8503796E-01
         -2   -1    0    0    0  501 -0.00000000000E+00  0.00000000000E+00  0.81310403233E+03  0.81310403233E+03  0.00000000000E+00 0.  1.
          1   -1    0    0  501    0  0.00000000000E+00 -0.00000000000E+00 -0.15365388983E+04  0.15365388983E+04  0.00000000000E+00 0. -1.
        -24    2    1    2    0    0 -0.88068074314E+02  0.19607313926E+03  0.66096496771E+03  0.69981972944E+03  0.81684169343E+02 0.  0.
        254    2    1    2    0    0  0.88068074314E+02 -0.19607313926E+03 -0.13843998337E+04  0.16498232012E+04  0.87129388500E+03 0.  0.
         23    2    4    4    0    0  0.30718774432E+03 -0.26915742408E+03 -0.24732432738E+03  0.48603817104E+03  0.90850160126E+02 0.  0.
         23    2    4    4    0    0 -0.21911967001E+03  0.73084284816E+02 -0.11370755063E+04  0.11637850302E+04  0.90000816178E+02 0.  0.
          3    1    3    3  502    0 -0.48909150780E+02  0.94190900531E+02  0.20349158699E+03  0.22950567912E+03  0.00000000000E+00 0. -1.
         -4    1    3    3    0  502 -0.39158923534E+02  0.10188223873E+03  0.45747338072E+03  0.47031405032E+03  0.00000000000E+00 0.  1.
         11    1    5    5    0    0  0.38100558552E+02 -0.82293218394E+02 -0.58338193197E+02  0.10782936122E+03  0.00000000000E+00 0.  1.
        -11    1    5    5    0    0  0.26908718577E+03 -0.18686420568E+03 -0.18898613419E+03  0.37820880982E+03  0.00000000000E+00 0. -1.
          3    1    6    6  503    0 -0.17439152763E+03  0.84476860711E+02 -0.10137853567E+04  0.10321383117E+04  0.00000000000E+00 0. -1.
         -3    1    6    6    0  503 -0.44728142377E+02 -0.11392575895E+02 -0.12329014960E+03  0.13164671851E+03  0.00000000000E+00 0.  1.
<mgrwt>
<rscale>  0 0.22355008E+04</rscale>
<asrwt>0</asrwt>
<pdfrwt beam="1">  1        1 0.23639060E+00 0.22355008E+04</pdfrwt>
<pdfrwt beam="2">  1       -2 0.12509293E+00 0.22355008E+04</pdfrwt>
<totfact> 0.23570103E+00</totfact>
</mgrwt>
</event>
<event>
12    4  0.4413110E-008  0.1889696E+04  0.7818608E-02  0.8660002E-01
          1   -1    0    0  501    0  0.00000000000E+00  0.00000000000E+00  0.12441575916E+04  0.12441575916E+04  0.00000000000E+00 0. -1.
         -2   -1    0    0    0  501 -0.00000000000E+00 -0.00000000000E+00 -0.71754385945E+03  0.71754385945E+03  0.00000000000E+00 0.  1.
        -24    2    1    2    0    0  0.18922801014E+03  0.85250799910E+02  0.82232857307E+03  0.85190001184E+03  0.80214770394E+02 0.  0.
        254    2    1    2    0    0 -0.18922801014E+03 -0.85250799910E+02 -0.29571484095E+03  0.11098014392E+04  0.10493507653E+04 0.  0.
         23    2    4    4    0    0  0.75403515874E+02 -0.41899741783E+03  0.17347104172E+03  0.46852769469E+03  0.90451489902E+02 0.  0.
         23    2    4    4    0    0 -0.26463152601E+03  0.33374661792E+03 -0.46918588266E+03  0.64127374448E+03  0.98386855529E+02 0.  0.
          3    1    3    3  502    0  0.15805061739E+03  0.51352178567E+02  0.73055829062E+03  0.74922123561E+03  0.00000000000E+00 0. -1.
         -4    1    3    3    0  502  0.31177392749E+02  0.33898621343E+02  0.91770282447E+02  0.10267877623E+03  0.00000000000E+00 0.  1.
         11    1    5    5    0    0  0.64344632372E+02 -0.40404511639E+03  0.18233332107E+03  0.44792647585E+03  0.00000000000E+00 0.  1.
        -11    1    5    5    0    0  0.11058883502E+02 -0.14952301440E+02 -0.88622793498E+01  0.20601218846E+02  0.00000000000E+00 0. -1.
          4    1    6    6  503    0 -0.98107414950E+02  0.60124026979E+02 -0.99449438392E+02  0.15208600950E+03  0.00000000000E+00 0.  1.
         -4    1    6    6    0  503 -0.16652411106E+03  0.27362259094E+03 -0.36973644427E+03  0.48918773499E+03  0.00000000000E+00 0. -1.
<mgrwt>
<rscale>  0 0.18896959E+04</rscale>
<asrwt>0</asrwt>
<pdfrwt beam="1">  1        1 0.19140886E+00 0.18896959E+04</pdfrwt>
<pdfrwt beam="2">  1       -2 0.11039136E+00 0.18896959E+04</pdfrwt>
<totfact> 0.53099769E+00</totfact>
</mgrwt>
</event>
<event>
12    4  0.4413110E-008  0.1376138E+04  0.7818608E-02  0.8971274E-01
          1   -1    0    0  501    0  0.00000000000E+00  0.00000000000E+00  0.39508540838E+03  0.39508540838E+03  0.00000000000E+00 0. -1.
         -2   -1    0    0    0  501 -0.00000000000E+00 -0.00000000000E+00 -0.11983209936E+04  0.11983209936E+04  0.00000000000E+00 0.  1.
        -24    2    1    2    0    0  0.23173353064E+03 -0.21009075770E+03 -0.49868451516E+03  0.59421381026E+03  0.81026236195E+02 0.  0.
        254    2    1    2    0    0 -0.23173353064E+03  0.21009075770E+03 -0.30455107010E+03  0.99919259175E+03  0.89877468000E+03 0.  0.
         23    2    4    4    0    0 -0.28648697661E+03  0.43638163202E+03  0.84855665841E+02  0.53662942882E+03  0.90922732706E+02 0.  0.
         23    2    4    4    0    0  0.54753445969E+02 -0.22629087432E+03 -0.38940673594E+03  0.46256316292E+03  0.90119776157E+02 0.  0.
          3    1    3    3  502    0  0.33012449032E+02 -0.28520032636E+02 -0.27528976993E+02  0.51585449760E+02  0.00000000000E+00 0. -1.
         -4    1    3    3    0  502  0.19872108161E+03 -0.18157072506E+03 -0.47115553817E+03  0.54262836050E+03  0.00000000000E+00 0.  1.
         11    1    5    5    0    0 -0.25396627829E+03  0.38375025201E+03  0.43536138407E+02  0.46223210812E+03  0.00000000000E+00 0.  1.
        -11    1    5    5    0    0 -0.32520698315E+02  0.52631380010E+02  0.41319527434E+02  0.74397320705E+02  0.00000000000E+00 0. -1.
          1    1    6    6  503    0 -0.19480585745E+02 -0.90768480744E+02 -0.17736568414E+03  0.20019239803E+03  0.00000000000E+00 0. -1.
         -1    1    6    6    0  503  0.74234031713E+02 -0.13552239358E+03 -0.21204105180E+03  0.26237076490E+03  0.00000000000E+00 0.  1.
<mgrwt>
<rscale>  0 0.13761383E+04</rscale>
<asrwt>0</asrwt>
<pdfrwt beam="1">  1        1 0.60782372E-01 0.13761383E+04</pdfrwt>
<pdfrwt beam="2">  1       -2 0.18435707E+00 0.13761383E+04</pdfrwt>
<totfact> 0.88023491E+00</totfact>
</mgrwt>
</event>
<event>
12    4  0.4413110E-008  0.2049109E+04  0.7818608E-02  0.8583999E-01
          1   -1    0    0  501    0  0.00000000000E+00  0.00000000000E+00  0.21674012211E+04  0.21674012211E+04  0.00000000000E+00 0. -1.
         -2   -1    0    0    0  501 -0.00000000000E+00 -0.00000000000E+00 -0.48431807271E+03  0.48431807271E+03  0.00000000000E+00 0.  1.
        -24    2    1    2    0    0 -0.26942805570E+03  0.50470918146E+03  0.14578361561E+04  0.15679569085E+04  0.76679682634E+02 0.  0.
        254    2    1    2    0    0  0.26942805570E+03 -0.50470918146E+03  0.22524699226E+03  0.10837623853E+04  0.89245832691E+03 0.  0.
         23    2    4    4    0    0 -0.73770944129E+01 -0.69004663145E+03  0.24441323186E+03  0.73775656464E+03  0.91258674508E+02 0.  0.
         23    2    4    4    0    0  0.27680515012E+03  0.18533744999E+03 -0.19166239607E+02  0.34600582068E+03  0.91551197169E+02 0.  0.
          1    1    3    3  502    0 -0.17829880859E+03  0.40202928796E+03  0.10952397631E+04  0.11802407179E+04  0.00000000000E+00 0. -1.
         -2    1    3    3    0  502 -0.91129247108E+02  0.10267989350E+03  0.36259639308E+03  0.38771619064E+03  0.00000000000E+00 0.  1.
         11    1    5    5    0    0  0.96028958642E+01 -0.13091231737E+03  0.11346302708E+02  0.13175351620E+03  0.00000000000E+00 0.  1.
        -11    1    5    5    0    0 -0.16979990277E+02 -0.55913431408E+03  0.23306692915E+03  0.60600304844E+03  0.00000000000E+00 0. -1.
          2    1    6    6  503    0  0.15657697020E+03  0.14458558690E+03 -0.41454692454E+02  0.21711709067E+03  0.00000000000E+00 0. -1.
         -2    1    6    6    0  503  0.12022817992E+03  0.40751863084E+02  0.22288452847E+02  0.12888873000E+03  0.00000000000E+00 0.  1.
<mgrwt>
<rscale>  0 0.20491087E+04</rscale>
<asrwt>0</asrwt>
<pdfrwt beam="1">  1        1 0.33344633E+00 0.20491087E+04</pdfrwt>
<pdfrwt beam="2">  1       -2 0.74510474E-01 0.20491087E+04</pdfrwt>
<totfact> 0.30143717E+00</totfact>
</mgrwt>
</event>
<event>
12    4  0.4413110E-008  0.1791590E+04  0.7818608E-02  0.8710785E-01
          1   -1    0    0  501    0  0.00000000000E+00  0.00000000000E+00  0.36060535498E+04  0.36060535498E+04  0.00000000000E+00 0. -1.
         -2   -1    0    0    0  501 -0.00000000000E+00 -0.00000000000E+00 -0.22252824977E+03  0.22252824977E+03  0.00000000000E+00 0.  1.
        -24    2    1    2    0    0  0.15861417808E+03 -0.73890886049E+02 -0.10987924543E+03  0.22186127208E+03  0.80812467756E+02 0.  0.
        254    2    1    2    0    0 -0.15861417808E+03  0.73890886049E+02  0.34934045454E+04  0.36067205275E+04  0.87973821375E+03 0.  0.
         23    2    4    4    0    0  0.15877419114E+03  0.20043863707E+03  0.29235929729E+04  0.29361452434E+04  0.90377698530E+02 0.  0.
         23    2    4    4    0    0 -0.31738836921E+03 -0.12654775102E+03  0.56981157255E+03  0.67057528405E+03  0.90753915428E+02 0.  0.
          1    1    3    3  502    0  0.15911461429E+02 -0.33852140821E+02 -0.75410023486E-01  0.37405183193E+02  0.00000000000E+00 0. -1.
         -4    1    3    3    0  502  0.14270271665E+03 -0.40038745227E+02 -0.10980383540E+03  0.18445608889E+03  0.00000000000E+00 0.  1.
         11    1    5    5    0    0  0.14458805537E+03  0.17378035278E+03  0.21269269055E+04  0.21389070523E+04  0.00000000000E+00 0. -1.
        -11    1    5    5    0    0  0.14186135762E+02  0.26658284297E+02  0.79666606734E+03  0.79723819114E+03  0.00000000000E+00 0.  1.
          4    1    6    6  503    0 -0.15002540185E+03 -0.12167190773E+02  0.22920003329E+03  0.27420488141E+03  0.00000000000E+00 0.  1.
         -4    1    6    6    0  503 -0.16736296736E+03 -0.11438056025E+03  0.34061153926E+03  0.39637040264E+03  0.00000000000E+00 0. -1.
<mgrwt>
<rscale>  0 0.17915901E+04</rscale>
<asrwt>0</asrwt>
<pdfrwt beam="1">  1        1 0.55477743E+00 0.17915901E+04</pdfrwt>
<pdfrwt beam="2">  1       -2 0.34235118E-01 0.17915901E+04</pdfrwt>
<totfact> 0.13739197E+00</totfact>
</mgrwt>
</event>
<event>
12    4  0.4413110E-008  0.1309079E+04  0.7818608E-02  0.9022396E-01
          1   -1    0    0  501    0  0.00000000000E+00  0.00000000000E+00  0.17447447100E+04  0.17447447100E+04  0.00000000000E+00 0. -1.
         -2   -1    0    0    0  501 -0.00000000000E+00 -0.00000000000E+00 -0.24555003217E+03  0.24555003217E+03  0.00000000000E+00 0.  1.
        -24    2    1    2    0    0  0.51684758481E+02  0.11203854827E+02  0.88707048481E+03  0.89230280849E+03  0.80705739529E+02 0.  0.
        254    2    1    2    0    0 -0.51684758481E+02 -0.11203854827E+02  0.61212419303E+03  0.10979919337E+04  0.90999638359E+03 0.  0.
         23    2    4    4    0    0 -0.35658755920E+02  0.28529913381E+02  0.84118605341E+03  0.84734752390E+03  0.91204972322E+02 0.  0.
         23    2    4    4    0    0 -0.16026002561E+02 -0.39733768208E+02 -0.22906186038E+03  0.25064440980E+03  0.92291273638E+02 0.  0.
          1    1    3    3  502    0  0.52973961819E+02 -0.13893151305E+02  0.79439683698E+03  0.79628235877E+03  0.00000000000E+00 0. -1.
         -4    1    3    3    0  502 -0.12892033389E+01  0.25097006132E+02  0.92673647830E+02  0.96020449718E+02  0.00000000000E+00 0.  1.
         11    1    5    5    0    0 -0.12080735014E+02  0.39866413330E+02  0.15028866928E+03  0.15595499090E+03  0.00000000000E+00 0. -1.
        -11    1    5    5    0    0 -0.23578020906E+02 -0.11336499949E+02  0.69089738412E+03  0.69139253300E+03  0.00000000000E+00 0.  1.
          1    1    6    6  503    0  0.71705394558E+01  0.24910225682E+02 -0.11165899854E+03  0.11462839061E+03  0.00000000000E+00 0. -1.
         -1    1    6    6    0  503 -0.23196542017E+02 -0.64643993890E+02 -0.11740286184E+03  0.13601601919E+03  0.00000000000E+00 0.  1.
<mgrwt>
<rscale>  0 0.13090792E+04</rscale>
<asrwt>0</asrwt>
<pdfrwt beam="1">  1        1 0.26842225E+00 0.13090792E+04</pdfrwt>
<pdfrwt beam="2">  1       -2 0.37776929E-01 0.13090792E+04</pdfrwt>
<totfact> 0.25323075E+01</totfact>
</mgrwt>
</event>
<event>
12    4  0.4413110E-008  0.1311395E+04  0.7818608E-02  0.9020577E-01
         -2   -1    0    0    0  501 -0.00000000000E+00  0.00000000000E+00  0.11814364094E+03  0.11814364094E+03  0.00000000000E+00 0.  1.
          1   -1    0    0  501    0  0.00000000000E+00 -0.00000000000E+00 -0.36391233360E+04  0.36391233360E+04  0.00000000000E+00 0. -1.
        -24    2    1    2    0    0 -0.23539174939E+03 -0.19190672767E+03 -0.73425852517E+03  0.79865018538E+03  0.80430522926E+02 0.  0.
        254    2    1    2    0    0  0.23539174939E+03  0.19190672767E+03 -0.27867211699E+04  0.29586167915E+04  0.94623515722E+03 0.  0.
         23    2    4    4    0    0 -0.20109950363E+03  0.25846580980E+03 -0.21592428160E+04  0.21858593292E+04  0.91683605074E+02 0.  0.
         23    2    4    4    0    0  0.43649125303E+03 -0.66559082130E+02 -0.62747835386E+03  0.77275746232E+03  0.92034154673E+02 0.  0.
          3    1    3    3  502    0 -0.19475583613E+03 -0.12131502569E+03 -0.58898889342E+03  0.63210370015E+03  0.00000000000E+00 0. -1.
         -4    1    3    3    0  502 -0.40635913262E+02 -0.70591701989E+02 -0.14526963174E+03  0.16654648523E+03  0.00000000000E+00 0.  1.
         11    1    5    5    0    0 -0.19849445272E+03  0.26027221636E+03 -0.21576022706E+04  0.21822899057E+04  0.00000000000E+00 0. -1.
        -11    1    5    5    0    0 -0.26050509185E+01 -0.18064065580E+01 -0.16405453689E+01  0.35694234895E+01  0.00000000000E+00 0.  1.
          3    1    6    6  503    0  0.37931788579E+03 -0.88977844933E+02 -0.54151761008E+03  0.66711351163E+03  0.00000000000E+00 0. -1.
         -3    1    6    6    0  503  0.57173367233E+02  0.22418762803E+02 -0.85960743777E+02  0.10564395069E+03  0.00000000000E+00 0.  1.
<mgrwt>
<rscale>  0 0.13113951E+04</rscale>
<asrwt>0</asrwt>
<pdfrwt beam="1">  1        1 0.55986508E+00 0.13113951E+04</pdfrwt>
<pdfrwt beam="2">  1       -2 0.18175946E-01 0.13113951E+04</pdfrwt>
<totfact> 0.42974279E+00</totfact>
</mgrwt>
</event>
<event>
12    4  0.4413110E-008  0.2421031E+04  0.7818608E-02  0.8431672E-01
          1   -1    0    0  501    0  0.00000000000E+00  0.00000000000E+00  0.38263065531E+04  0.38263065531E+04  0.00000000000E+00 0. -1.
         -2   -1    0    0    0  501 -0.00000000000E+00 -0.00000000000E+00 -0.38296649632E+03  0.38296649632E+03  0.00000000000E+00 0.  1.
        -24    2    1    2    0    0 -0.25211675585E+03  0.74147767325E+03  0.26771235010E+04  0.27902856367E+04  0.73155288470E+02 0.  0.
        254    2    1    2    0    0  0.25211675585E+03 -0.74147767325E+03  0.76621655576E+03  0.14189874127E+04  0.90171251993E+03 0.  0.
         23    2    4    4    0    0  0.38297895454E+03 -0.86445406052E+03  0.46361150945E+03  0.10574288694E+04  0.96262556728E+02 0.  0.
         23    2    4    4    0    0 -0.13086219869E+03  0.12297638727E+03  0.30260504631E+03  0.36155854329E+03  0.83106313227E+02 0.  0.
          1    1    3    3  502    0 -0.18663058917E+03  0.50345945361E+03  0.17215887382E+04  0.18033774374E+04  0.00000000000E+00 0. -1.
         -2    1    3    3    0  502 -0.65486166682E+02  0.23801821964E+03  0.95553476282E+03  0.98690819931E+03  0.00000000000E+00 0.  1.
         11    1    5    5    0    0  0.27449984956E+02 -0.19503893714E+02  0.15862099012E+02  0.37222435830E+02  0.00000000000E+00 0.  1.
        -11    1    5    5    0    0  0.35552896959E+03 -0.84495016681E+03  0.44774941044E+03  0.10202064336E+04  0.00000000000E+00 0. -1.
          1    1    6    6  503    0 -0.80837827031E+02  0.11672014239E+03  0.18191804403E+03  0.23076507678E+03  0.00000000000E+00 0. -1.
         -1    1    6    6    0  503 -0.50024371662E+02  0.62562448760E+01  0.12068700229E+03  0.13079346651E+03  0.00000000000E+00 0.  1.
<mgrwt>
<rscale>  0 0.24210305E+04</rscale>
<asrwt>0</asrwt>
<pdfrwt beam="1">  1        1 0.58866252E+00 0.24210305E+04</pdfrwt>
<pdfrwt beam="2">  1       -2 0.58917925E-01 0.24210305E+04</pdfrwt>
<totfact> 0.28740846E-01</totfact>
</mgrwt>
</event>
<event>
12    4  0.4413110E-008  0.2303975E+04  0.7818608E-02  0.8476355E-01
          1   -1    0    0  501    0  0.00000000000E+00  0.00000000000E+00  0.12112483846E+04  0.12112483846E+04  0.00000000000E+00 0. -1.
         -2   -1    0    0    0  501 -0.00000000000E+00 -0.00000000000E+00 -0.10956262516E+04  0.10956262516E+04  0.00000000000E+00 0.  1.
        -24    2    1    2    0    0  0.97240018461E+03  0.49776996486E+02 -0.38367814572E+01  0.97699140105E+03  0.80359246103E+02 0.  0.
        254    2    1    2    0    0 -0.97240018461E+03 -0.49776996486E+02  0.11945891441E+03  0.13298832352E+04  0.89793046424E+03 0.  0.
         23    2    4    4    0    0 -0.31804452408E+03 -0.26218294571E+03  0.40001688790E+03  0.58097531527E+03  0.87330349976E+02 0.  0.
         23    2    4    4    0    0 -0.65435566053E+03  0.21240594923E+03 -0.28055797349E+03  0.74890791992E+03  0.94088672564E+02 0.  0.
          3    1    3    3  502    0  0.42684038402E+03  0.61363616941E+02  0.42092327486E+01  0.43124926035E+03  0.00000000000E+00 0. -1.
         -4    1    3    3    0  502  0.54555980059E+03 -0.11586620455E+02 -0.80460142059E+01  0.54574214070E+03  0.00000000000E+00 0.  1.
         11    1    5    5    0    0 -0.40415104573E+02 -0.45934862666E+02  0.23328236685E+02  0.65479759565E+02  0.00000000000E+00 0. -1.
        -11    1    5    5    0    0 -0.27762941951E+03 -0.21624808305E+03  0.37668865122E+03  0.51549555571E+03  0.00000000000E+00 0.  1.
          4    1    6    6  503    0 -0.11351055155E+03  0.44226216329E+02 -0.13038285096E+02  0.12251775546E+03  0.00000000000E+00 0. -1.
         -4    1    6    6    0  503 -0.54084510898E+03  0.16817973290E+03 -0.26751968839E+03  0.62639016447E+03  0.00000000000E+00 0.  1.
<mgrwt>
<rscale>  0 0.23039753E+04</rscale>
<asrwt>0</asrwt>
<pdfrwt beam="1">  1        1 0.18634591E+00 0.23039753E+04</pdfrwt>
<pdfrwt beam="2">  1       -2 0.16855788E+00 0.23039753E+04</pdfrwt>
<totfact> 0.18141126E+00</totfact>
</mgrwt>
</event>
<event>
12    4  0.4413110E-008  0.1962785E+04  0.7818608E-02  0.8624220E-01
         -2   -1    0    0    0  501 -0.00000000000E+00  0.00000000000E+00  0.54106135998E+03  0.54106135998E+03  0.00000000000E+00 0.  1.
          1   -1    0    0  501    0  0.00000000000E+00 -0.00000000000E+00 -0.17800771614E+04  0.17800771614E+04  0.00000000000E+00 0. -1.
        -24    2    1    2    0    0 -0.61686051186E+03  0.36485506761E+01 -0.10396217985E+04  0.12114786552E+04  0.79604303385E+02 0.  0.
        254    2    1    2    0    0  0.61686051186E+03 -0.36485506761E+01 -0.19939400293E+03  0.11096598662E+04  0.90058694593E+03 0.  0.
         23    2    4    4    0    0  0.47794907665E+03  0.13055412744E+03  0.28613040412E+03  0.57947824999E+03  0.91895233753E+02 0.  0.
         23    2    4    4    0    0  0.13891143521E+03 -0.13420267812E+03 -0.48552440704E+03  0.53018161618E+03  0.89732104945E+02 0.  0.
          1    1    3    3  502    0 -0.60107187671E+03  0.16045027468E+02 -0.99537578763E+03  0.11628919995E+04  0.00000000000E+00 0. -1.
         -2    1    3    3    0  502 -0.15788635147E+02 -0.12396476792E+02 -0.44246010883E+02  0.48586655737E+02  0.00000000000E+00 0.  1.
         11    1    5    5    0    0  0.24032105863E+03  0.98268511890E+02  0.11020232834E+03  0.28205578318E+03  0.00000000000E+00 0. -1.
        -11    1    5    5    0    0  0.23762801801E+03  0.32285615553E+02  0.17592807577E+03  0.29742246681E+03  0.00000000000E+00 0.  1.
          2    1    6    6  503    0  0.14483080939E+03 -0.14220619449E+03 -0.46038520154E+03  0.50314321907E+03  0.00000000000E+00 0. -1.
         -2    1    6    6    0  503 -0.59193741851E+01  0.80035163702E+01 -0.25139205501E+02  0.27038397110E+02  0.00000000000E+00 0.  1.
<mgrwt>
<rscale>  0 0.19627847E+04</rscale>
<asrwt>0</asrwt>
<pdfrwt beam="1">  1        1 0.27385803E+00 0.19627847E+04</pdfrwt>
<pdfrwt beam="2">  1       -2 0.83240208E-01 0.19627847E+04</pdfrwt>
<totfact> 0.43395625E+00</totfact>
</mgrwt>
</event>
<event>
12    4  0.4413110E-008  0.1482481E+04  0.7818608E-02  0.8896187E-01
         -2   -1    0    0    0  501 -0.00000000000E+00  0.00000000000E+00  0.42757376806E+03  0.42757376806E+03  0.00000000000E+00 0.  1.
          1   -1    0    0  501    0  0.00000000000E+00 -0.00000000000E+00 -0.12850115350E+04  0.12850115350E+04  0.00000000000E+00 0. -1.
        -24    2    1    2    0    0  0.14530027461E+03  0.25875530491E+03 -0.68577603743E+03  0.75180459758E+03  0.82794334332E+02 0.  0.
        254    2    1    2    0    0 -0.14530027461E+03 -0.25875530491E+03 -0.17166172951E+03  0.96078070549E+03  0.89753291697E+03 0.  0.
         23    2    4    4    0    0  0.28272901924E+03 -0.34980041016E+03 -0.22348939989E+03  0.51034911647E+03  0.90623857527E+02 0.  0.
         23    2    4    4    0    0 -0.42802929385E+03  0.91045105248E+02  0.51827670381E+02  0.45043158902E+03  0.93296416784E+02 0.  0.
          3    1    3    3  502    0  0.99827132040E+02  0.15882048161E+03 -0.52152745645E+03  0.55423847710E+03  0.00000000000E+00 0. -1.
         -4    1    3    3    0  502  0.45473142565E+02  0.99934823307E+02 -0.16424858098E+03  0.19756612047E+03  0.00000000000E+00 0.  1.
         11    1    5    5    0    0  0.21282397867E+03 -0.20864037035E+03 -0.17461362536E+03  0.34541969863E+03  0.00000000000E+00 0. -1.
        -11    1    5    5    0    0  0.69905040574E+02 -0.14116003981E+03 -0.48875774529E+02  0.16492941785E+03  0.00000000000E+00 0.  1.
          4    1    6    6  503    0 -0.34618748557E+03  0.47152472171E+02  0.68614355165E+02  0.35605766462E+03  0.00000000000E+00 0. -1.
         -4    1    6    6    0  503 -0.81841808278E+02  0.43892633077E+02 -0.16786684784E+02  0.94373924400E+02  0.00000000000E+00 0.  1.
<mgrwt>
<rscale>  0 0.14824807E+04</rscale>
<asrwt>0</asrwt>
<pdfrwt beam="1">  1        1 0.19769408E+00 0.14824807E+04</pdfrwt>
<pdfrwt beam="2">  1       -2 0.65780581E-01 0.14824807E+04</pdfrwt>
<totfact> 0.16763899E+01</totfact>
</mgrwt>
</event>
<event>
12    4  0.4413110E-008  0.3027356E+04  0.7818608E-02  0.8235962E-01
         -2   -1    0    0    0  501 -0.00000000000E+00  0.00000000000E+00  0.15953820812E+04  0.15953820812E+04  0.00000000000E+00 0.  1.
          1   -1    0    0  501    0  0.00000000000E+00 -0.00000000000E+00 -0.14361581534E+04  0.14361581534E+04  0.00000000000E+00 0. -1.
        -24    2    1    2    0    0 -0.54796910156E+03 -0.60011909886E+03 -0.10387598856E+04  0.13211717517E+04  0.77843614772E+02 0.  0.
        254    2    1    2    0    0  0.54796910156E+03  0.60011909886E+03  0.11979838135E+04  0.17103684829E+04  0.91092374049E+03 0.  0.
         23    2    4    4    0    0  0.70593690463E+03  0.69668651226E+03  0.86083469090E+03  0.13165220273E+04  0.92059076784E+02 0.  0.
         23    2    4    4    0    0 -0.15796780307E+03 -0.96567413400E+02  0.33714912255E+03  0.39384645562E+03  0.84654637398E+02 0.  0.
          3    1    3    3  502    0 -0.28865964999E+03 -0.25958039550E+03 -0.50629487993E+03  0.63799755541E+03  0.00000000000E+00 0. -1.
         -4    1    3    3    0  502 -0.25930945157E+03 -0.34053870336E+03 -0.53246500568E+03  0.68317419626E+03  0.00000000000E+00 0.  1.
         11    1    5    5    0    0  0.33612586184E+02  0.66373616512E+02  0.59298154215E+02  0.95139550199E+02  0.00000000000E+00 0.  1.
        -11    1    5    5    0    0  0.67232431844E+03  0.63031289575E+03  0.80153653669E+03  0.12213824771E+04  0.00000000000E+00 0. -1.
          1    1    6    6  503    0 -0.14814837542E+03 -0.54314555191E+02  0.28718824949E+03  0.32768140425E+03  0.00000000000E+00 0. -1.
         -1    1    6    6    0  503 -0.98194276435E+01 -0.42252858209E+02  0.49960873061E+02  0.66165051372E+02  0.00000000000E+00 0.  1.
<mgrwt>
<rscale>  0 0.30273559E+04</rscale>
<asrwt>0</asrwt>
<pdfrwt beam="1">  1        1 0.22094741E+00 0.30273559E+04</pdfrwt>
<pdfrwt beam="2">  1       -2 0.24544340E+00 0.30273559E+04</pdfrwt>
<totfact> 0.37044328E-01</totfact>
</mgrwt>
</event>
<event>
12    4  0.4413110E-008  0.1242538E+04  0.7818608E-02  0.9076417E-01
          1   -1    0    0  501    0  0.00000000000E+00  0.00000000000E+00  0.18484507126E+04  0.18484507126E+04  0.00000000000E+00 0. -1.
         -2   -1    0    0    0  501 -0.00000000000E+00 -0.00000000000E+00 -0.20881016990E+03  0.20881016990E+03  0.00000000000E+00 0.  1.
        -24    2    1    2    0    0 -0.18535365334E+03  0.20065996419E+03  0.50505060386E+03  0.57996001514E+03  0.81591106534E+02 0.  0.
        254    2    1    2    0    0  0.18535365334E+03 -0.20065996419E+03  0.11345899389E+04  0.14773008674E+04  0.90581627573E+03 0.  0.
         23    2    4    4    0    0  0.40164781047E+03 -0.44429720474E+03  0.76665646375E+03  0.97748855147E+03  0.94872361864E+02 0.  0.
         23    2    4    4    0    0 -0.21629415712E+03  0.24363724055E+03  0.36793347512E+03  0.49981231593E+03  0.91077119248E+02 0.  0.
          3    1    3    3  502    0 -0.57749242922E+02  0.70498049227E+02  0.25295096757E+03  0.26886640176E+03  0.00000000000E+00 0. -1.
         -4    1    3    3    0  502 -0.12760441042E+03  0.13016191496E+03  0.25209963629E+03  0.31109361337E+03  0.00000000000E+00 0.  1.
         11    1    5    5    0    0  0.63669327317E+01 -0.39944343219E+02  0.41892880544E+02  0.58233167765E+02  0.00000000000E+00 0.  1.
        -11    1    5    5    0    0  0.39528087773E+03 -0.40435286152E+03  0.72476358321E+03  0.91925538370E+03  0.00000000000E+00 0. -1.
          2    1    6    6  503    0 -0.20238578378E+03  0.24980827259E+03  0.35996008149E+03  0.48263385583E+03  0.00000000000E+00 0. -1.
         -2    1    6    6    0  503 -0.13908373339E+02 -0.61710320341E+01  0.79733936347E+01  0.17178460098E+02  0.00000000000E+00 0.  1.
<mgrwt>
<rscale>  0 0.12425382E+04</rscale>
<asrwt>0</asrwt>
<pdfrwt beam="1">  1        1 0.28437702E+00 0.12425382E+04</pdfrwt>
<pdfrwt beam="2">  1       -2 0.32124643E-01 0.12425382E+04</pdfrwt>
<totfact> 0.29520045E+01</totfact>
</mgrwt>
</event>
<event>
12    4  0.4413110E-008  0.3036015E+04  0.7818608E-02  0.8233521E-01
          1   -1    0    0  501    0  0.00000000000E+00  0.00000000000E+00  0.25135288539E+04  0.25135288539E+04  0.00000000000E+00 0. -1.
         -2   -1    0    0    0  501 -0.00000000000E+00 -0.00000000000E+00 -0.91677766996E+03  0.91677766996E+03  0.00000000000E+00 0.  1.
        -24    2    1    2    0    0 -0.55245038918E+03  0.81114702559E+03 -0.37302071317E+03  0.10529592121E+04  0.80110674810E+02 0.  0.
        254    2    1    2    0    0  0.55245038918E+03 -0.81114702559E+03  0.19697718971E+04  0.23773473118E+04  0.89923188589E+03 0.  0.
         23    2    4    4    0    0 -0.20771099569E+03 -0.25220214081E+03  0.81702900925E+03  0.88472624022E+03  0.91947488363E+02 0.  0.
         23    2    4    4    0    0  0.76016138486E+03 -0.55894488478E+03  0.11527428878E+04  0.14926210716E+04  0.94004162281E+02 0.  0.
          1    1    3    3  502    0 -0.87602937274E+02  0.18404706439E+03 -0.67891286377E+02  0.21484139102E+03  0.00000000000E+00 0. -1.
         -2    1    3    3    0  502 -0.46484745190E+03  0.62709996120E+03 -0.30512942679E+03  0.83811782106E+03  0.00000000000E+00 0.  1.
         11    1    5    5    0    0 -0.75789565807E+02 -0.43218811125E+02  0.28587253884E+03  0.29888966590E+03  0.00000000000E+00 0. -1.
        -11    1    5    5    0    0 -0.13192142988E+03 -0.20898332969E+03  0.53115647042E+03  0.58583657432E+03  0.00000000000E+00 0.  1.
          4    1    6    6  503    0  0.20250887182E+03 -0.19240769900E+03  0.30208634976E+03  0.41144468463E+03  0.00000000000E+00 0. -1.
         -4    1    6    6    0  503  0.55765251304E+03 -0.36653718578E+03  0.85065653808E+03  0.10811763869E+04  0.00000000000E+00 0.  1.
<mgrwt>
<rscale>  0 0.30360152E+04</rscale>
<asrwt>0</asrwt>
<pdfrwt beam="1">  1        1 0.38669674E+00 0.30360152E+04</pdfrwt>
<pdfrwt beam="2">  1       -2 0.14104272E+00 0.30360152E+04</pdfrwt>
<totfact> 0.34851097E-01</totfact>
</mgrwt>
</event>
<event>
12    4  0.4413110E-008  0.1176569E+04  0.7818608E-02  0.9133616E-01
          1   -1    0    0  501    0  0.00000000000E+00  0.00000000000E+00  0.55823306053E+03  0.55823306053E+03  0.00000000000E+00 0. -1.
         -2   -1    0    0    0  501 -0.00000000000E+00 -0.00000000000E+00 -0.61995396880E+03  0.61995396880E+03  0.00000000000E+00 0.  1.
        -24    2    1    2    0    0 -0.23200745409E+03  0.10204679442E+03  0.89308702989E+02  0.28118064871E+03  0.82737571691E+02 0.  0.
        254    2    1    2    0    0  0.23200745409E+03 -0.10204679442E+03 -0.15102961126E+03  0.89700638063E+03  0.84709473874E+03 0.  0.
         23    2    4    4    0    0  0.23348829217E+03  0.34506520290E+03 -0.53688808092E+02  0.42994237552E+03  0.91548791990E+02 0.  0.
         23    2    4    4    0    0 -0.14808380776E+01 -0.44711199732E+03 -0.97340803168E+02  0.46706400511E+03  0.93606740566E+02 0.  0.
          1    1    3    3  502    0 -0.23429296087E+03  0.85093896846E+02  0.86476451183E+02  0.26384150433E+03  0.00000000000E+00 0. -1.
         -2    1    3    3    0  502  0.22855067800E+01  0.16952897577E+02  0.28322518059E+01  0.17339144379E+02  0.00000000000E+00 0.  1.
         11    1    5    5    0    0  0.15110535692E+03  0.26777189793E+03 -0.71270135312E+02  0.31561693617E+03  0.00000000000E+00 0. -1.
        -11    1    5    5    0    0  0.82382935254E+02  0.77293304967E+02  0.17581327220E+02  0.11432543934E+03  0.00000000000E+00 0.  1.
          3    1    6    6  503    0 -0.40723788038E+02 -0.11165147283E+03 -0.31624043830E+02  0.12298194358E+03  0.00000000000E+00 0. -1.
         -3    1    6    6    0  503  0.39242949960E+02 -0.33546052449E+03 -0.65716759338E+02  0.34408206154E+03  0.00000000000E+00 0.  1.
<mgrwt>
<rscale>  0 0.11765693E+04</rscale>
<asrwt>0</asrwt>
<pdfrwt beam="1">  1        1 0.85882009E-01 0.11765693E+04</pdfrwt>
<pdfrwt beam="2">  1       -2 0.95377534E-01 0.11765693E+04</pdfrwt>
<totfact> 0.30426071E+01</totfact>
</mgrwt>
</event>
<event>
12    4  0.4413110E-008  0.2248924E+04  0.7818608E-02  0.8498336E-01
          1   -1    0    0  501    0  0.00000000000E+00  0.00000000000E+00  0.17034407379E+04  0.17034407379E+04  0.00000000000E+00 0. -1.
         -2   -1    0    0    0  501 -0.00000000000E+00 -0.00000000000E+00 -0.74227099603E+03  0.74227099603E+03  0.00000000000E+00 0.  1.
        -24    2    1    2    0    0 -0.32500255882E+03  0.44724991528E+03 -0.40772475950E+03  0.69223785097E+03  0.85408505712E+02 0.  0.
        254    2    1    2    0    0  0.32500255882E+03 -0.44724991528E+03  0.13688945014E+04  0.17534738830E+04  0.94611804359E+03 0.  0.
         23    2    4    4    0    0  0.48827667019E+03  0.10812092821E+03  0.66850029213E+03  0.84011194148E+03  0.93761355976E+02 0.  0.
         23    2    4    4    0    0 -0.16327411137E+03 -0.55537084350E+03  0.70039420926E+03  0.91336194151E+03  0.92643286703E+02 0.  0.
          3    1    3    3  502    0 -0.75235707770E+01  0.48768670706E+02 -0.27339615389E+02  0.56413136142E+02  0.00000000000E+00 0. -1.
         -4    1    3    3    0  502 -0.31747898804E+03  0.39848124458E+03 -0.38038514411E+03  0.63582471483E+03  0.00000000000E+00 0.  1.
         11    1    5    5    0    0  0.20023573383E+03  0.88310338776E+02  0.31762401372E+03  0.38571761579E+03  0.00000000000E+00 0. -1.
        -11    1    5    5    0    0  0.28804093636E+03  0.19810589435E+02  0.35087627841E+03  0.45439432570E+03  0.00000000000E+00 0.  1.
          4    1    6    6  503    0 -0.95045218695E+02 -0.26329957444E+03  0.40551259581E+03  0.49274813531E+03  0.00000000000E+00 0.  1.
         -4    1    6    6    0  503 -0.68228892675E+02 -0.29207126906E+03  0.29488161346E+03  0.42061380619E+03  0.00000000000E+00 0. -1.
<mgrwt>
<rscale>  0 0.22489239E+04</rscale>
<asrwt>0</asrwt>
<pdfrwt beam="1">  1        1 0.26206780E+00 0.22489239E+04</pdfrwt>
<pdfrwt beam="2">  1       -2 0.11419554E+00 0.22489239E+04</pdfrwt>
<totfact> 0.22670607E+00</totfact>
</mgrwt>
</event>
<event>
12    4  0.4413110E-008  0.1286152E+04  0.7818608E-02  0.9040619E-01
         -2   -1    0    0    0  501 -0.00000000000E+00  0.00000000000E+00  0.75861588718E+03  0.75861588718E+03  0.00000000000E+00 0.  1.
          1   -1    0    0  501    0  0.00000000000E+00 -0.00000000000E+00 -0.54513343800E+03  0.54513343800E+03  0.00000000000E+00 0. -1.
        -24    2    1    2    0    0 -0.16147452953E+03 -0.17266453970E+03 -0.17180043602E+03  0.30274666958E+03  0.79076476720E+02 0.  0.
        254    2    1    2    0    0  0.16147452953E+03  0.17266453970E+03  0.38528288519E+03  0.10010026556E+04  0.89312728541E+03 0.  0.
         23    2    4    4    0    0 -0.17514428392E+03 -0.15717743435E+03 -0.14038875561E+03  0.28912714347E+03  0.92223838203E+02 0.  0.
         23    2    4    4    0    0  0.33661881345E+03  0.32984197405E+03  0.52567164080E+03  0.71187551213E+03  0.91258519660E+02 0.  0.
          1    1    3    3  502    0 -0.90292168115E+02 -0.14847473883E+03 -0.12692713351E+03  0.21519275293E+03  0.00000000000E+00 0. -1.
         -2    1    3    3    0  502 -0.71182361416E+02 -0.24189800872E+02 -0.44873302503E+02  0.87553916648E+02  0.00000000000E+00 0.  1.
         11    1    5    5    0    0 -0.37607623356E+02 -0.12853012896E+02  0.80764217741E+01  0.40555663768E+02  0.00000000000E+00 0. -1.
        -11    1    5    5    0    0 -0.13753666056E+03 -0.14432442145E+03 -0.14846517739E+03  0.24857147970E+03  0.00000000000E+00 0.  1.
          1    1    6    6  503    0  0.14460552485E+03  0.13745909176E+03  0.15722659736E+03  0.25401961074E+03  0.00000000000E+00 0. -1.
         -1    1    6    6    0  503  0.19201328860E+03  0.19238288229E+03  0.36844504344E+03  0.45785590139E+03  0.00000000000E+00 0.  1.
<mgrwt>
<rscale>  0 0.12861522E+04</rscale>
<asrwt>0</asrwt>
<pdfrwt beam="1">  1        1 0.83866683E-01 0.12861522E+04</pdfrwt>
<pdfrwt beam="2">  1       -2 0.11671014E+00 0.12861522E+04</pdfrwt>
<totfact> 0.19216821E+01</totfact>
</mgrwt>
</event>
<event>
12    4  0.4413110E-008  0.1442501E+04  0.7818608E-02  0.8923616E-01
         -2   -1    0    0    0  501 -0.00000000000E+00  0.00000000000E+00  0.19282181882E+03  0.19282181882E+03  0.00000000000E+00 0.  1.
          1   -1    0    0  501    0  0.00000000000E+00 -0.00000000000E+00 -0.26978406290E+04  0.26978406290E+04  0.00000000000E+00 0. -1.
        -24    2    1    2    0    0  0.38566213900E+02 -0.27928414397E+03 -0.13945911215E+04  0.14250794547E+04  0.80498882689E+02 0.  0.
        254    2    1    2    0    0 -0.38566213900E+02  0.27928414397E+03 -0.11104276887E+04  0.14655829932E+04  0.91400047704E+03 0.  0.
         23    2    4    4    0    0  0.19009602241E+03  0.11036611953E+03  0.70028388653E+02  0.24803637077E+03  0.91109208829E+02 0.  0.
         23    2    4    4    0    0 -0.22866223631E+03  0.16891802444E+03 -0.11804560774E+04  0.12175466224E+04  0.90130515321E+02 0.  0.
          3    1    3    3  502    0  0.16016809308E+02 -0.26266471912E+03 -0.12025441185E+04  0.12310002639E+04  0.00000000000E+00 0. -1.
         -4    1    3    3    0  502  0.22549404592E+02 -0.16619424850E+02 -0.19204700297E+03  0.19407919074E+03  0.00000000000E+00 0.  1.
         11    1    5    5    0    0  0.13573134172E+03  0.35191177730E+02  0.17182478892E+02  0.14126802078E+03  0.00000000000E+00 0.  1.
        -11    1    5    5    0    0  0.54364680685E+02  0.75174941800E+02  0.52845909761E+02  0.10676834999E+03  0.00000000000E+00 0. -1.
          3    1    6    6  503    0 -0.21238208813E+03  0.14242429798E+03 -0.11275098462E+04  0.11561441456E+04  0.00000000000E+00 0. -1.
         -3    1    6    6    0  503 -0.16280148172E+02  0.26493726461E+02 -0.52946231165E+02  0.61402476830E+02  0.00000000000E+00 0.  1.
<mgrwt>
<rscale>  0 0.14425014E+04</rscale>
<asrwt>0</asrwt>
<pdfrwt beam="1">  1        1 0.41505238E+00 0.14425014E+04</pdfrwt>
<pdfrwt beam="2">  1       -2 0.29664897E-01 0.14425014E+04</pdfrwt>
<totfact> 0.88400653E+00</totfact>
</mgrwt>
</event>
<event>
12    4  0.4413110E-008  0.1726275E+04  0.7818608E-02  0.8746519E-01
         -2   -1    0    0    0  501 -0.00000000000E+00  0.00000000000E+00  0.77243464673E+03  0.77243464673E+03  0.00000000000E+00 0.  1.
          1   -1    0    0  501    0  0.00000000000E+00 -0.00000000000E+00 -0.96449061064E+03  0.96449061064E+03  0.00000000000E+00 0. -1.
        -24    2    1    2    0    0  0.16627080814E+03  0.43741866555E+03 -0.46951822312E+03  0.66689090536E+03  0.72904370241E+02 0.  0.
        254    2    1    2    0    0 -0.16627080814E+03 -0.43741866555E+03  0.27746225921E+03  0.10700343520E+04  0.92141583370E+03 0.  0.
         23    2    4    4    0    0 -0.25288491890E+03  0.16375845082E+03  0.32604951683E+03  0.45392580927E+03  0.94724550572E+02 0.  0.
         23    2    4    4    0    0  0.86614110758E+02 -0.60117711637E+03 -0.48587257617E+02  0.61610854274E+03  0.91176122990E+02 0.  0.
          3    1    3    3  502    0  0.13309264774E+03  0.37805064054E+03 -0.43172265086E+03  0.58908436320E+03  0.00000000000E+00 0. -1.
         -4    1    3    3    0  502  0.33178160400E+02  0.59368025011E+02 -0.37795572253E+02  0.77806542161E+02  0.00000000000E+00 0.  1.
         11    1    5    5    0    0 -0.18724376719E+03  0.99102965713E+02  0.27944769609E+03  0.35067455142E+03  0.00000000000E+00 0. -1.
        -11    1    5    5    0    0 -0.65641151714E+02  0.64655485104E+02  0.46601820734E+02  0.10325125785E+03  0.00000000000E+00 0.  1.
          2    1    6    6  503    0  0.84455270878E+02 -0.58121853434E+03 -0.64000147514E+02  0.59079920135E+03  0.00000000000E+00 0. -1.
         -2    1    6    6    0  503  0.21588398802E+01 -0.19958582027E+02  0.15412889897E+02  0.25309341381E+02  0.00000000000E+00 0.  1.
<mgrwt>
<rscale>  0 0.17262746E+04</rscale>
<asrwt>0</asrwt>
<pdfrwt beam="1">  1        1 0.14838317E+00 0.17262746E+04</pdfrwt>
<pdfrwt beam="2">  1       -2 0.11883610E+00 0.17262746E+04</pdfrwt>
<totfact> 0.73070903E+00</totfact>
</mgrwt>
</event>
<event>
12    4  0.4413110E-008  0.1497840E+04  0.7818608E-02  0.8885891E-01
          1   -1    0    0  501    0  0.00000000000E+00  0.00000000000E+00  0.14006699625E+04  0.14006699625E+04  0.00000000000E+00 0. -1.
         -2   -1    0    0    0  501 -0.00000000000E+00 -0.00000000000E+00 -0.40043770986E+03  0.40043770986E+03  0.00000000000E+00 0.  1.
        -24    2    1    2    0    0  0.42981953231E+03  0.47647355785E+01  0.56528680805E+03  0.71449289642E+03  0.78634538329E+02 0.  0.
        254    2    1    2    0    0 -0.42981953231E+03 -0.47647355785E+01  0.43494544455E+03  0.10866147759E+04  0.89821300281E+03 0.  0.
         23    2    4    4    0    0 -0.45709651745E+03 -0.38381585225E+03  0.24044500532E+03  0.65006269223E+03  0.92281463688E+02 0.  0.
         23    2    4    4    0    0  0.27276985140E+02  0.37905111667E+03  0.19450043924E+03  0.43655208368E+03  0.91233315906E+02 0.  0.
          3    1    3    3  502    0  0.38565316913E+03  0.27210384358E+02  0.48629069168E+03  0.62124665688E+03  0.00000000000E+00 0. -1.
         -4    1    3    3    0  502  0.44166363179E+02 -0.22445648779E+02  0.78996116368E+02  0.93246239532E+02  0.00000000000E+00 0.  1.
         11    1    5    5    0    0 -0.30269332020E+03 -0.19577096672E+03  0.13615814567E+03  0.38534213127E+03  0.00000000000E+00 0. -1.
        -11    1    5    5    0    0 -0.15440319725E+03 -0.18804488553E+03  0.10428685965E+03  0.26472056095E+03  0.00000000000E+00 0.  1.
          4    1    6    6  503    0  0.33893058038E+02  0.10986864943E+03  0.22840068564E+02  0.11722426473E+03  0.00000000000E+00 0. -1.
         -4    1    6    6    0  503 -0.66160728981E+01  0.26918246724E+03  0.17166037067E+03  0.31932781894E+03  0.00000000000E+00 0.  1.
<mgrwt>
<rscale>  0 0.14978399E+04</rscale>
<asrwt>0</asrwt>
<pdfrwt beam="1">  1        1 0.21548768E+00 0.14978399E+04</pdfrwt>
<pdfrwt beam="2">  1       -2 0.61605802E-01 0.14978399E+04</pdfrwt>
<totfact> 0.15951780E+01</totfact>
</mgrwt>
</event>
<event>
12    4  0.4413110E-008  0.1924921E+04  0.7818608E-02  0.8642550E-01
          1   -1    0    0  501    0  0.00000000000E+00  0.00000000000E+00  0.96022130796E+03  0.96022130796E+03  0.00000000000E+00 0. -1.
         -2   -1    0    0    0  501 -0.00000000000E+00 -0.00000000000E+00 -0.96470485380E+03  0.96470485380E+03  0.00000000000E+00 0.  1.
        -24    2    1    2    0    0 -0.12634920768E+03  0.60019236101E+02 -0.75163785246E+03  0.76843132946E+03  0.77206320036E+02 0.  0.
        254    2    1    2    0    0  0.12634920768E+03 -0.60019236101E+02  0.74715430662E+03  0.11564948323E+04  0.87159297166E+03 0.  0.
         23    2    4    4    0    0 -0.12596066332E+03  0.30286321584E+03  0.78094416013E+02  0.34940464361E+03  0.91611412807E+02 0.  0.
         23    2    4    4    0    0  0.25230987099E+03 -0.36288245194E+03  0.66905989061E+03  0.80709018868E+03  0.91703274312E+02 0.  0.
          3    1    3    3  502    0 -0.69545846479E+02 -0.57422282663E+01 -0.26154557192E+03  0.27069481735E+03  0.00000000000E+00 0. -1.
         -4    1    3    3    0  502 -0.56803361198E+02  0.65761464368E+02 -0.49009228054E+03  0.49773651211E+03  0.00000000000E+00 0.  1.
         11    1    5    5    0    0 -0.42723683347E+02  0.18674116293E+03  0.77178270342E+02  0.20652859479E+03  0.00000000000E+00 0.  1.
        -11    1    5    5    0    0 -0.83236979971E+02  0.11612205291E+03  0.91614567058E+00  0.14287604883E+03  0.00000000000E+00 0. -1.
          4    1    6    6  503    0 -0.79345931843E+00 -0.42894406627E+02  0.75445744552E+02  0.86790668096E+02  0.00000000000E+00 0. -1.
         -4    1    6    6    0  503  0.25310333031E+03 -0.31998804531E+03  0.59361414606E+03  0.72029952058E+03  0.00000000000E+00 0.  1.
<mgrwt>
<rscale>  0 0.19249209E+04</rscale>
<asrwt>0</asrwt>
<pdfrwt beam="1">  1        1 0.14772636E+00 0.19249209E+04</pdfrwt>
<pdfrwt beam="2">  1       -2 0.14841613E+00 0.19249209E+04</pdfrwt>
<totfact> 0.41015459E+00</totfact>
</mgrwt>
</event>
<event>
12    4  0.4413110E-008  0.1799919E+04  0.7818608E-02  0.8706343E-01
          1   -1    0    0  501    0  0.00000000000E+00  0.00000000000E+00  0.11456747462E+04  0.11456747462E+04  0.00000000000E+00 0. -1.
         -2   -1    0    0    0  501 -0.00000000000E+00 -0.00000000000E+00 -0.70694334001E+03  0.70694334001E+03  0.00000000000E+00 0.  1.
        -24    2    1    2    0    0  0.55050717422E+02  0.66742425320E+03  0.23078384020E+03  0.71309302170E+03  0.82187355814E+02 0.  0.
        254    2    1    2    0    0 -0.55050717422E+02 -0.66742425320E+03  0.20794756597E+03  0.11395250645E+04  0.89821459971E+03 0.  0.
         23    2    4    4    0    0 -0.33948707651E+03  0.55973244981E+01  0.19738250031E+03  0.40317783234E+03  0.91157599259E+02 0.  0.
         23    2    4    4    0    0  0.28443635909E+03 -0.67302157770E+03  0.10565065663E+02  0.73634723215E+03  0.90738851971E+02 0.  0.
          1    1    3    3  502    0  0.69229061328E+02  0.63014346323E+03  0.22555491892E+03  0.67286586229E+03  0.00000000000E+00 0. -1.
         -2    1    3    3    0  502 -0.14178343906E+02  0.37280789974E+02  0.52289212726E+01  0.40227159416E+02  0.00000000000E+00 0.  1.
         11    1    5    5    0    0 -0.15707358163E+03  0.46706783128E+02  0.79544500648E+02  0.18215641965E+03  0.00000000000E+00 0.  1.
        -11    1    5    5    0    0 -0.18241349488E+03 -0.41109458630E+02  0.11783799966E+03  0.22102141269E+03  0.00000000000E+00 0. -1.
          1    1    6    6  503    0  0.20718200428E+03 -0.37839691175E+03  0.16255815914E+02  0.43170922769E+03  0.00000000000E+00 0. -1.
         -1    1    6    6    0  503  0.77254354807E+02 -0.29462466595E+03 -0.56907502513E+01  0.30463800446E+03  0.00000000000E+00 0.  1.
<mgrwt>
<rscale>  0 0.17999190E+04</rscale>
<asrwt>0</asrwt>
<pdfrwt beam="1">  1        1 0.17625765E+00 0.17999190E+04</pdfrwt>
<pdfrwt beam="2">  1       -2 0.10876051E+00 0.17999190E+04</pdfrwt>
<totfact> 0.65491443E+00</totfact>
</mgrwt>
</event>
<event>
12    4  0.4413110E-008  0.1154855E+04  0.7818608E-02  0.9153316E-01
         -4   -1    0    0    0  501 -0.00000000000E+00  0.00000000000E+00  0.14749687525E+04  0.14749687525E+04  0.00000000000E+00 0.  1.
          3   -1    0    0  501    0  0.00000000000E+00 -0.00000000000E+00 -0.22605390171E+03  0.22605390171E+03  0.00000000000E+00 0. -1.
        -24    2    1    2    0    0  0.11645493389E+03 -0.14083347508E+03  0.62986509890E+02  0.20925725325E+03  0.80159081081E+02 0.  0.
        254    2    1    2    0    0 -0.11645493389E+03  0.14083347508E+03  0.11859283409E+04  0.14917654010E+04  0.88630816447E+03 0.  0.
         23    2    4    4    0    0 -0.46330311670E+03 -0.73833530655E+02  0.73523505043E+03  0.87692511282E+03  0.91246402214E+02 0.  0.
         23    2    4    4    0    0  0.34684818281E+03  0.21466700574E+03  0.45069329048E+03  0.61484028814E+03  0.92296005168E+02 0.  0.
          3    1    3    3  502    0  0.89904735384E+02 -0.12504704011E+03  0.18529110822E+02  0.15512237631E+03  0.00000000000E+00 0. -1.
         -4    1    3    3    0  502  0.26550198504E+02 -0.15786434978E+02  0.44457399068E+02  0.54134876944E+02  0.00000000000E+00 0.  1.
         11    1    5    5    0    0 -0.44754695863E+03 -0.55689714817E+02  0.67231265180E+03  0.80957021084E+03  0.00000000000E+00 0.  1.
        -11    1    5    5    0    0 -0.15756158064E+02 -0.18143815838E+02  0.62922398634E+02  0.67354901974E+02  0.00000000000E+00 0. -1.
          1    1    6    6  503    0  0.29585001932E+01  0.19964278907E+01  0.34112771433E+02  0.34298974074E+02  0.00000000000E+00 0. -1.
         -1    1    6    6    0  503  0.34388968262E+03  0.21267057785E+03  0.41658051905E+03  0.58054131407E+03  0.00000000000E+00 0.  1.
<mgrwt>
<rscale>  0 0.11548549E+04</rscale>
<asrwt>0</asrwt>
<pdfrwt beam="1">  1        3 0.34777524E-01 0.11548549E+04</pdfrwt>
<pdfrwt beam="2">  1       -4 0.22691826E+00 0.11548549E+04</pdfrwt>
<totfact> 0.16348348E+00</totfact>
</mgrwt>
</event>
<event>
12    4  0.4413110E-008  0.1759738E+04  0.7818608E-02  0.8728008E-01
         -2   -1    0    0    0  501 -0.00000000000E+00  0.00000000000E+00  0.52539043902E+03  0.52539043902E+03  0.00000000000E+00 0.  1.
          1   -1    0    0  501    0  0.00000000000E+00 -0.00000000000E+00 -0.14735124298E+04  0.14735124298E+04  0.00000000000E+00 0. -1.
        -24    2    1    2    0    0 -0.51650602349E+03 -0.37552322428E+03 -0.45798021584E+03  0.79006728786E+03  0.81635022892E+02 0.  0.
        254    2    1    2    0    0  0.51650602349E+03  0.37552322428E+03 -0.49014177496E+03  0.12088355810E+04  0.90180282657E+03 0.  0.
         23    2    4    4    0    0  0.76321419065E+03  0.22866834824E+03 -0.33019310168E+03  0.86757459352E+03  0.94197009685E+02 0.  0.
         23    2    4    4    0    0 -0.24670816717E+03  0.14685487604E+03 -0.15994867328E+03  0.34126098745E+03  0.91892377865E+02 0.  0.
          1    1    3    3  502    0 -0.43667475407E+02 -0.22577869538E+02 -0.12442899791E+02  0.50709312325E+02  0.00000000000E+00 0. -1.
         -2    1    3    3    0  502 -0.47283854808E+03 -0.35294535475E+03 -0.44553731605E+03  0.73935797553E+03  0.00000000000E+00 0.  1.
         11    1    5    5    0    0  0.15396927738E+03  0.29753292281E+02 -0.10292009897E+03  0.18757490118E+03  0.00000000000E+00 0.  1.
        -11    1    5    5    0    0  0.60924491327E+03  0.19891505596E+03 -0.22727300270E+03  0.67999969235E+03  0.00000000000E+00 0. -1.
          1    1    6    6  503    0 -0.17885920198E+03  0.57970539059E+02 -0.11714987470E+03  0.22152943523E+03  0.00000000000E+00 0. -1.
         -1    1    6    6    0  503 -0.67848965190E+02  0.88884336984E+02 -0.42798798582E+02  0.11973155223E+03  0.00000000000E+00 0.  1.
<mgrwt>
<rscale>  0 0.17597379E+04</rscale>
<asrwt>0</asrwt>
<pdfrwt beam="1">  1        1 0.22669421E+00 0.17597379E+04</pdfrwt>
<pdfrwt beam="2">  1       -2 0.80829300E-01 0.17597379E+04</pdfrwt>
<totfact> 0.76583722E+00</totfact>
</mgrwt>
</event>
<event>
12    4  0.4413110E-008  0.1553736E+04  0.7818608E-02  0.8849485E-01
          1   -1    0    0  501    0  0.00000000000E+00  0.00000000000E+00  0.12325073031E+04  0.12325073031E+04  0.00000000000E+00 0. -1.
         -2   -1    0    0    0  501 -0.00000000000E+00 -0.00000000000E+00 -0.48967192783E+03  0.48967192783E+03  0.00000000000E+00 0.  1.
        -24    2    1    2    0    0  0.44026280029E+03  0.10699784250E+03  0.55610057534E+03  0.72175117742E+03  0.79981501550E+02 0.  0.
        254    2    1    2    0    0 -0.44026280029E+03 -0.10699784250E+03  0.18673479991E+03  0.10004280535E+04  0.87218491908E+03 0.  0.
         23    2    4    4    0    0 -0.31108997196E+03  0.35866915255E+03  0.14826740032E+03  0.50586021675E+03  0.92145565547E+02 0.  0.
         23    2    4    4    0    0 -0.12917282833E+03 -0.46566699505E+03  0.38467399585E+02  0.49456783673E+03  0.97909317436E+02 0.  0.
          1    1    3    3  502    0  0.29560635546E+03  0.46474947693E+02  0.40874058790E+03  0.50656875777E+03  0.00000000000E+00 0. -1.
         -2    1    3    3    0  502  0.14465644483E+03  0.60522894807E+02  0.14735998744E+03  0.21518241965E+03  0.00000000000E+00 0.  1.
         11    1    5    5    0    0 -0.29356750687E+03  0.29375145527E+03  0.13923034520E+03  0.43801471160E+03  0.00000000000E+00 0. -1.
        -11    1    5    5    0    0 -0.17522465096E+02  0.64917697280E+02  0.90370551217E+01  0.67845505146E+02  0.00000000000E+00 0.  1.
          4    1    6    6  503    0 -0.17366665541E+02 -0.66878783892E+02 -0.29014241179E+02  0.74941303686E+02  0.00000000000E+00 0. -1.
         -4    1    6    6    0  503 -0.11180616279E+03 -0.39878821115E+03  0.67481640764E+02  0.41962653304E+03  0.00000000000E+00 0.  1.
<mgrwt>
<rscale>  0 0.15537364E+04</rscale>
<asrwt>0</asrwt>
<pdfrwt beam="1">  1        1 0.18961651E+00 0.15537364E+04</pdfrwt>
<pdfrwt beam="2">  1       -2 0.75334143E-01 0.15537364E+04</pdfrwt>
<totfact> 0.13515010E+01</totfact>
</mgrwt>
</event>
<event>
12    4  0.4413110E-008  0.1689578E+04  0.7818608E-02  0.8767331E-01
          1   -1    0    0  501    0  0.00000000000E+00  0.00000000000E+00  0.33718452891E+03  0.33718452891E+03  0.00000000000E+00 0. -1.
         -2   -1    0    0    0  501 -0.00000000000E+00 -0.00000000000E+00 -0.21165524808E+04  0.21165524808E+04  0.00000000000E+00 0.  1.
        -24    2    1    2    0    0 -0.55775992886E+02  0.29294672368E+03 -0.14529731895E+04  0.14854417087E+04  0.80481278324E+02 0.  0.
        254    2    1    2    0    0  0.55775992886E+02 -0.29294672368E+03 -0.32639476240E+03  0.96829530106E+03  0.86147170867E+03 0.  0.
         23    2    4    4    0    0  0.23073562703E+03  0.32426742503E+02 -0.49164759189E+03  0.55336782293E+03  0.10103548700E+03 0.  0.
         23    2    4    4    0    0 -0.17495963414E+03 -0.32537346618E+03  0.16525282949E+03  0.41492747813E+03  0.91528948328E+02 0.  0.
          3    1    3    3  502    0 -0.35159386529E+02  0.33533927466E+02 -0.23952259429E+03  0.24440085910E+03  0.00000000000E+00 0. -1.
         -4    1    3    3    0  502 -0.20616606357E+02  0.25941279621E+03 -0.12134505952E+04  0.12410408496E+04  0.00000000000E+00 0.  1.
         11    1    5    5    0    0  0.78597623082E+02 -0.10994159720E+02 -0.81473340847E+02  0.11373813420E+03  0.00000000000E+00 0. -1.
        -11    1    5    5    0    0  0.15213800394E+03  0.43420902224E+02 -0.41017425104E+03  0.43962968873E+03  0.00000000000E+00 0.  1.
          4    1    6    6  503    0 -0.14040874603E+03 -0.24449438539E+03  0.81518327483E+02  0.29349166626E+03  0.00000000000E+00 0. -1.
         -4    1    6    6    0  503 -0.34550888112E+02 -0.80879080791E+02  0.83734502006E+02  0.12143581187E+03  0.00000000000E+00 0.  1.
<mgrwt>
<rscale>  0 0.16895784E+04</rscale>
<asrwt>0</asrwt>
<pdfrwt beam="1">  1        1 0.51874544E-01 0.16895784E+04</pdfrwt>
<pdfrwt beam="2">  1       -2 0.32562345E+00 0.16895784E+04</pdfrwt>
<totfact> 0.13888429E+00</totfact>
</mgrwt>
</event>
<event>
12    4  0.4413110E-008  0.1267187E+04  0.7818608E-02  0.9055999E-01
          1   -1    0    0  501    0  0.00000000000E+00  0.00000000000E+00  0.13205911614E+04  0.13205911614E+04  0.00000000000E+00 0. -1.
         -2   -1    0    0    0  501 -0.00000000000E+00 -0.00000000000E+00 -0.30398563425E+03  0.30398563425E+03  0.00000000000E+00 0.  1.
        -24    2    1    2    0    0  0.25730777691E+03  0.87495130173E+02  0.51603555998E+03  0.58857118274E+03  0.79124257509E+02 0.  0.
        254    2    1    2    0    0 -0.25730777691E+03 -0.87495130173E+02  0.50056996720E+03  0.10360056129E+04  0.86537543766E+03 0.  0.
         23    2    4    4    0    0  0.16398768491E+03 -0.34254463251E+03  0.31393593298E+03  0.50143125441E+03  0.92998638781E+02 0.  0.
         23    2    4    4    0    0 -0.42129546182E+03  0.25504950234E+03  0.18663403423E+03  0.53457435853E+03  0.91637150066E+02 0.  0.
          1    1    3    3  502    0  0.20458980388E+03  0.41857104168E+02  0.33724918056E+03  0.39666864612E+03  0.00000000000E+00 0. -1.
         -2    1    3    3    0  502  0.52717973032E+02  0.45638026005E+02  0.17878637942E+03  0.19190253663E+03  0.00000000000E+00 0.  1.
         11    1    5    5    0    0  0.12406717852E+03 -0.16609168390E+03  0.13777397782E+03  0.24891922628E+03  0.00000000000E+00 0. -1.
        -11    1    5    5    0    0  0.39920506393E+02 -0.17645294861E+03  0.17616195516E+03  0.25251202813E+03  0.00000000000E+00 0.  1.
          2    1    6    6  503    0 -0.18538290955E+03  0.73510157071E+02  0.42786963406E+02  0.20396394432E+03  0.00000000000E+00 0. -1.
         -2    1    6    6    0  503 -0.23591255227E+03  0.18153934527E+03  0.14384707082E+03  0.33061041421E+03  0.00000000000E+00 0.  1.
<mgrwt>
<rscale>  0 0.12671870E+04</rscale>
<asrwt>0</asrwt>
<pdfrwt beam="1">  1        1 0.20316787E+00 0.12671870E+04</pdfrwt>
<pdfrwt beam="2">  1       -2 0.46767021E-01 0.12671870E+04</pdfrwt>
<totfact> 0.32740868E+01</totfact>
</mgrwt>
</event>
<event>
12    4  0.4413110E-008  0.1246138E+04  0.7818608E-02  0.9073404E-01
          3   -1    0    0  501    0  0.00000000000E+00  0.00000000000E+00  0.81105722410E+03  0.81105722410E+03  0.00000000000E+00 0. -1.
         -4   -1    0    0    0  501 -0.00000000000E+00 -0.00000000000E+00 -0.47865320406E+03  0.47865320406E+03  0.00000000000E+00 0.  1.
        -24    2    1    2    0    0 -0.22497287182E+03 -0.20120710525E+03  0.11207681117E+03  0.33166742048E+03  0.79655344751E+02 0.  0.
        254    2    1    2    0    0  0.22497287182E+03  0.20120710525E+03  0.22032720886E+03  0.95804300768E+03  0.88215941492E+03 0.  0.
         23    2    4    4    0    0 -0.24850558004E+03 -0.17464853019E+03  0.40296915186E+02  0.32065176441E+03  0.94533487377E+02 0.  0.
         23    2    4    4    0    0  0.47347845186E+03  0.37585563545E+03  0.18003029368E+03  0.63739124327E+03  0.91691805977E+02 0.  0.
          1    1    3    3  502    0 -0.16308101042E+03 -0.12434894015E+03  0.11054143550E+03  0.23297528590E+03  0.00000000000E+00 0. -1.
         -2    1    3    3    0  502 -0.61891861393E+02 -0.76858165103E+02  0.15353756718E+01  0.98692134581E+02  0.00000000000E+00 0.  1.
         11    1    5    5    0    0 -0.14686303207E+03 -0.78649390462E+02  0.64715096181E+02  0.17872470586E+03  0.00000000000E+00 0.  1.
        -11    1    5    5    0    0 -0.10164254797E+03 -0.95999139732E+02 -0.24418180995E+02  0.14192705855E+03  0.00000000000E+00 0. -1.
          4    1    6    6  503    0  0.11637267546E+03  0.13162229010E+03  0.81517530526E+02  0.19368049625E+03  0.00000000000E+00 0. -1.
         -4    1    6    6    0  503  0.35710577640E+03  0.24423334535E+03  0.98512763152E+02  0.44371074702E+03  0.00000000000E+00 0.  1.
<mgrwt>
<rscale>  0 0.12461383E+04</rscale>
<asrwt>0</asrwt>
<pdfrwt beam="1">  1        3 0.12477803E+00 0.12461383E+04</pdfrwt>
<pdfrwt beam="2">  1       -4 0.73638955E-01 0.12461383E+04</pdfrwt>
<totfact> 0.19386428E+00</totfact>
</mgrwt>
</event>
<event>
12    4  0.4413110E-008  0.1855667E+04  0.7818608E-02  0.8677244E-01
         -2   -1    0    0    0  501 -0.00000000000E+00  0.00000000000E+00  0.31786466522E+03  0.31786466522E+03  0.00000000000E+00 0.  1.
          1   -1    0    0  501    0  0.00000000000E+00 -0.00000000000E+00 -0.27083063300E+04  0.27083063300E+04  0.00000000000E+00 0. -1.
        -24    2    1    2    0    0 -0.50487811554E+03  0.30333353523E+02 -0.17173049149E+04  0.17919988067E+04  0.79382167583E+02 0.  0.
        254    2    1    2    0    0  0.50487811554E+03 -0.30333353523E+02 -0.67313674987E+03  0.12341721885E+04  0.90235574083E+03 0.  0.
         23    2    4    4    0    0  0.16571309954E+03  0.21996674371E+03 -0.74281633612E+03  0.79735382583E+03  0.90281862293E+02 0.  0.
         23    2    4    4    0    0  0.33916501600E+03 -0.25030009723E+03  0.69679586250E+02  0.43681836270E+03  0.90950483759E+02 0.  0.
          1    1    3    3  502    0 -0.35265702406E+03 -0.23763345402E+01 -0.12848221030E+04  0.13323439721E+04  0.00000000000E+00 0. -1.
         -2    1    3    3    0  502 -0.15222109148E+03  0.32709688063E+02 -0.43248281190E+03  0.45965483461E+03  0.00000000000E+00 0.  1.
         11    1    5    5    0    0  0.30970116524E+02  0.10365987910E+03 -0.34418497430E+03  0.36078777028E+03  0.00000000000E+00 0. -1.
        -11    1    5    5    0    0  0.13474298301E+03  0.11630686460E+03 -0.39863136182E+03  0.43656605555E+03  0.00000000000E+00 0.  1.
          4    1    6    6  503    0  0.73476380821E+02 -0.57085392866E+02 -0.22277358989E+02  0.95675500211E+02  0.00000000000E+00 0.  1.
         -4    1    6    6    0  503  0.26568863518E+03 -0.19321470436E+03  0.91956945239E+02  0.34114286248E+03  0.00000000000E+00 0. -1.
<mgrwt>
<rscale>  0 0.18556669E+04</rscale>
<asrwt>0</asrwt>
<pdfrwt beam="1">  1        1 0.41666251E+00 0.18556669E+04</pdfrwt>
<pdfrwt beam="2">  1       -2 0.48902257E-01 0.18556669E+04</pdfrwt>
<totfact> 0.31672005E+00</totfact>
</mgrwt>
</event>
<event>
12    4  0.4413110E-008  0.2369642E+04  0.7818608E-02  0.8450957E-01
          1   -1    0    0  501    0  0.00000000000E+00  0.00000000000E+00  0.16007050306E+04  0.16007050306E+04  0.00000000000E+00 0. -1.
         -2   -1    0    0    0  501 -0.00000000000E+00 -0.00000000000E+00 -0.87698910961E+03  0.87698910961E+03  0.00000000000E+00 0.  1.
        -24    2    1    2    0    0 -0.55914259853E+02 -0.89715941195E+03  0.77241905759E+03  0.11875250373E+04  0.74586183303E+02 0.  0.
        254    2    1    2    0    0  0.55914259853E+02  0.89715941195E+03 -0.48703136596E+02  0.12901691029E+04  0.92419851965E+03 0.  0.
         23    2    4    4    0    0 -0.20629779460E+03  0.63007335672E+03 -0.39096436350E+03  0.77512367552E+03  0.91718939843E+02 0.  0.
         23    2    4    4    0    0  0.26221205445E+03  0.26708605523E+03  0.34226122690E+03  0.51504542741E+03  0.89660038231E+02 0.  0.
          1    1    3    3  502    0 -0.13841264168E+02 -0.55757089763E+03  0.51725479345E+03  0.76067694051E+03  0.00000000000E+00 0. -1.
         -2    1    3    3    0  502 -0.42072995685E+02 -0.33958851432E+03  0.25516426414E+03  0.42684809677E+03  0.00000000000E+00 0.  1.
         11    1    5    5    0    0 -0.16108940174E+03  0.54610233010E+03 -0.30106563151E+03  0.64406371173E+03  0.00000000000E+00 0.  1.
        -11    1    5    5    0    0 -0.45208392851E+02  0.83971026625E+02 -0.89898731983E+02  0.13105996379E+03  0.00000000000E+00 0. -1.
          4    1    6    6  503    0  0.40875906125E+02  0.16016669064E+02  0.13607142133E+02  0.45962242183E+02  0.00000000000E+00 0. -1.
         -4    1    6    6    0  503  0.22133614832E+03  0.25106938617E+03  0.32865408477E+03  0.46908318522E+03  0.00000000000E+00 0.  1.
<mgrwt>
<rscale>  0 0.23696421E+04</rscale>
<asrwt>0</asrwt>
<pdfrwt beam="1">  1        1 0.24626231E+00 0.23696421E+04</pdfrwt>
<pdfrwt beam="2">  1       -2 0.13492140E+00 0.23696421E+04</pdfrwt>
<totfact> 0.17376545E+00</totfact>
</mgrwt>
</event>
<event>
12    4  0.4413110E-008  0.1103363E+04  0.7818608E-02  0.9201920E-01
         -2   -1    0    0    0  501 -0.00000000000E+00  0.00000000000E+00  0.15133716530E+03  0.15133716530E+03  0.00000000000E+00 0.  1.
          1   -1    0    0  501    0  0.00000000000E+00 -0.00000000000E+00 -0.20110886365E+04  0.20110886365E+04  0.00000000000E+00 0. -1.
        -24    2    1    2    0    0  0.15572786454E+03  0.53337793373E+02 -0.32546445629E+03  0.37345351432E+03  0.80276566047E+02 0.  0.
        254    2    1    2    0    0 -0.15572786454E+03 -0.53337793373E+02 -0.15342870149E+04  0.17889722875E+04  0.90514590715E+03 0.  0.
         23    2    4    4    0    0 -0.37428127308E+03 -0.29021532233E+03 -0.12816502263E+04  0.13695620728E+04  0.93603226856E+02 0.  0.
         23    2    4    4    0    0  0.21855340854E+03  0.23687752895E+03 -0.25263678862E+03  0.41941021465E+03  0.90570553069E+02 0.  0.
          1    1    3    3  502    0  0.16524994377E+03  0.47468823793E+02 -0.30415264437E+03  0.34938469375E+03  0.00000000000E+00 0. -1.
         -2    1    3    3    0  502 -0.95220792244E+01  0.58689695803E+01 -0.21311811915E+02  0.24068820573E+02  0.00000000000E+00 0.  1.
         11    1    5    5    0    0 -0.42505078731E+02 -0.16135149074E+02 -0.20730529722E+03  0.21223221011E+03  0.00000000000E+00 0. -1.
        -11    1    5    5    0    0 -0.33177619435E+03 -0.27408017325E+03 -0.10743449291E+04  0.11573298627E+04  0.00000000000E+00 0.  1.
          1    1    6    6  503    0  0.16993916225E+03  0.11964827066E+03 -0.15373645295E+03  0.25851484387E+03  0.00000000000E+00 0. -1.
         -1    1    6    6    0  503  0.48614246293E+02  0.11722925829E+03 -0.98900335673E+02  0.16089537078E+03  0.00000000000E+00 0.  1.
<mgrwt>
<rscale>  0 0.11033630E+04</rscale>
<asrwt>0</asrwt>
<pdfrwt beam="1">  1        1 0.30939824E+00 0.11033630E+04</pdfrwt>
<pdfrwt beam="2">  1       -2 0.23282642E-01 0.11033630E+04</pdfrwt>
<totfact> 0.41912092E+01</totfact>
</mgrwt>
</event>
<event>
12    4  0.4413110E-008  0.1363250E+04  0.7818608E-02  0.8980858E-01
          1   -1    0    0  501    0  0.00000000000E+00  0.00000000000E+00  0.12894851033E+04  0.12894851033E+04  0.00000000000E+00 0. -1.
         -2   -1    0    0    0  501 -0.00000000000E+00 -0.00000000000E+00 -0.36030860939E+03  0.36030860939E+03  0.00000000000E+00 0.  1.
        -24    2    1    2    0    0  0.53134894778E+02 -0.31720105763E+03  0.49351088420E+03  0.59439998792E+03  0.79489148998E+02 0.  0.
        254    2    1    2    0    0 -0.53134894778E+02  0.31720105763E+03  0.43566560971E+03  0.10553937248E+04  0.90587612995E+03 0.  0.
         23    2    4    4    0    0 -0.33457741055E+02  0.37837150602E+03 -0.17964642625E+03  0.43000040668E+03  0.91340540146E+02 0.  0.
         23    2    4    4    0    0 -0.19677153724E+02 -0.61170448393E+02  0.61531203596E+03  0.62539331810E+03  0.91536258354E+02 0.  0.
          1    1    3    3  502    0  0.28726225059E+02 -0.12122222531E+03  0.12602062443E+03  0.17720389865E+03  0.00000000000E+00 0. -1.
         -2    1    3    3    0  502  0.24408669719E+02 -0.19597883232E+03  0.36749025976E+03  0.41719608926E+03  0.00000000000E+00 0.  1.
         11    1    5    5    0    0 -0.47543938072E+02  0.34740639243E+03 -0.18351210755E+03  0.39576296083E+03  0.00000000000E+00 0. -1.
        -11    1    5    5    0    0  0.14086197017E+02  0.30965113599E+02  0.38656813027E+01  0.34237445853E+02  0.00000000000E+00 0.  1.
          3    1    6    6  503    0 -0.19697504446E+02 -0.58670337765E+02  0.61836099412E+03  0.62145033532E+03  0.00000000000E+00 0. -1.
         -3    1    6    6    0  503  0.20350722839E-01 -0.25001106278E+01 -0.30489581661E+01  0.39429827798E+01  0.00000000000E+00 0.  1.
<mgrwt>
<rscale>  0 0.13632499E+04</rscale>
<asrwt>0</asrwt>
<pdfrwt beam="1">  1        1 0.19838232E+00 0.13632499E+04</pdfrwt>
<pdfrwt beam="2">  1       -2 0.55432094E-01 0.13632499E+04</pdfrwt>
<totfact> 0.24145791E+01</totfact>
</mgrwt>
</event>
<event>
12    4  0.4413110E-008  0.1138520E+04  0.7818608E-02  0.9168441E-01
          1   -1    0    0  501    0  0.00000000000E+00  0.00000000000E+00  0.66326485117E+03  0.66326485117E+03  0.00000000000E+00 0. -1.
         -2   -1    0    0    0  501 -0.00000000000E+00 -0.00000000000E+00 -0.48857812621E+03  0.48857812621E+03  0.00000000000E+00 0.  1.
        -24    2    1    2    0    0 -0.16203969837E+03  0.15507179029E+02  0.80024238609E+02  0.19826882771E+03  0.80058184002E+02 0.  0.
        254    2    1    2    0    0  0.16203969837E+03 -0.15507179029E+02  0.94662486353E+02  0.95357414967E+03  0.93479694915E+03 0.  0.
         23    2    4    4    0    0 -0.57275861407E+02 -0.43859399673E+03 -0.33238788205E+02  0.45232005814E+03  0.88562970188E+02 0.  0.
         23    2    4    4    0    0  0.21931555978E+03  0.42308681770E+03  0.12790127456E+03  0.50125409153E+03  0.88290192962E+02 0.  0.
          3    1    3    3  502    0 -0.13220696445E+03  0.39810433994E+02  0.80427200188E+02  0.15978762979E+03  0.00000000000E+00 0. -1.
         -4    1    3    3    0  502 -0.29832733920E+02 -0.24303254965E+02 -0.40296157877E+00  0.38481197916E+02  0.00000000000E+00 0.  1.
         11    1    5    5    0    0  0.22779431721E+02 -0.10480302914E+03 -0.17791989885E+02  0.10871583293E+03  0.00000000000E+00 0. -1.
        -11    1    5    5    0    0 -0.80055293127E+02 -0.33379096759E+03 -0.15446798320E+02  0.34360422520E+03  0.00000000000E+00 0.  1.
          1    1    6    6  503    0  0.39135239239E+02  0.15339924710E+03  0.20716490253E+02  0.15966235915E+03  0.00000000000E+00 0. -1.
         -1    1    6    6    0  503  0.18018032054E+03  0.26968757060E+03  0.10718478430E+03  0.34159173238E+03  0.00000000000E+00 0.  1.
<mgrwt>
<rscale>  0 0.11385196E+04</rscale>
<asrwt>0</asrwt>
<pdfrwt beam="1">  1        1 0.10204075E+00 0.11385196E+04</pdfrwt>
<pdfrwt beam="2">  1       -2 0.75165865E-01 0.11385196E+04</pdfrwt>
<totfact> 0.40882327E+01</totfact>
</mgrwt>
</event>
<event>
12    4  0.4413110E-008  0.1251154E+04  0.7818608E-02  0.9069224E-01
          1   -1    0    0  501    0  0.00000000000E+00  0.00000000000E+00  0.65563875575E+03  0.65563875575E+03  0.00000000000E+00 0. -1.
         -2   -1    0    0    0  501 -0.00000000000E+00 -0.00000000000E+00 -0.59689315286E+03  0.59689315286E+03  0.00000000000E+00 0.  1.
        -24    2    1    2    0    0  0.11386974878E+03  0.11120729216E+03 -0.23505663538E+03  0.29484879411E+03  0.79691957145E+02 0.  0.
        254    2    1    2    0    0 -0.11386974878E+03 -0.11120729216E+03  0.29380223828E+03  0.95768311450E+03  0.89749864126E+03 0.  0.
         23    2    4    4    0    0  0.16816698994E+03 -0.43010257503E+03  0.10689153967E+03  0.48377294740E+03  0.96654548925E+02 0.  0.
         23    2    4    4    0    0 -0.28203673872E+03  0.31889528287E+03  0.18691069860E+03  0.47391016711E+03  0.91740469842E+02 0.  0.
          3    1    3    3  502    0  0.52217363499E+02  0.91992526010E+01 -0.10987332067E+03  0.12199764709E+03  0.00000000000E+00 0. -1.
         -4    1    3    3    0  502  0.61652385283E+02  0.10200803955E+03 -0.12518331471E+03  0.17285114702E+03  0.00000000000E+00 0.  1.
         11    1    5    5    0    0  0.14258548440E+03 -0.41831246516E+03  0.11001375376E+03  0.45543272268E+03  0.00000000000E+00 0. -1.
        -11    1    5    5    0    0  0.25581505537E+02 -0.11790109870E+02 -0.31222140884E+01  0.28340224719E+02  0.00000000000E+00 0.  1.
          4    1    6    6  503    0 -0.16517694888E+03  0.21985620730E+03  0.77618923918E+02  0.28573567100E+03  0.00000000000E+00 0. -1.
         -4    1    6    6    0  503 -0.11685978984E+03  0.99039075573E+02  0.10929177469E+03  0.18817449611E+03  0.00000000000E+00 0.  1.
<mgrwt>
<rscale>  0 0.12511535E+04</rscale>
<asrwt>0</asrwt>
<pdfrwt beam="1">  1        1 0.10086750E+00 0.12511535E+04</pdfrwt>
<pdfrwt beam="2">  1       -2 0.91829716E-01 0.12511535E+04</pdfrwt>
<totfact> 0.26187530E+01</totfact>
</mgrwt>
</event>
<event>
12    4  0.4413110E-008  0.1412289E+04  0.7818608E-02  0.8944971E-01
         -2   -1    0    0    0  501 -0.00000000000E+00  0.00000000000E+00  0.40769716794E+03  0.40769716794E+03  0.00000000000E+00 0.  1.
          1   -1    0    0  501    0  0.00000000000E+00 -0.00000000000E+00 -0.12230651454E+04  0.12230651454E+04  0.00000000000E+00 0. -1.
        -24    2    1    2    0    0  0.25371225713E+03 -0.31075511039E+03 -0.94334982381E+02  0.42007232428E+03  0.81381943169E+02 0.  0.
        254    2    1    2    0    0 -0.25371225713E+03  0.31075511039E+03 -0.72103299505E+03  0.12106899890E+04  0.88597010193E+03 0.  0.
         23    2    4    4    0    0 -0.24615661392E+03  0.43111946073E+03 -0.86507065822E+03  0.10014183635E+04  0.89634966030E+02 0.  0.
         23    2    4    4    0    0 -0.75556432179E+01 -0.12036435034E+03  0.14403766316E+03  0.20927162548E+03  0.92212256487E+02 0.  0.
          3    1    3    3  502    0  0.65112410775E+02 -0.33904247548E+02 -0.61230997634E+01  0.73665571262E+02  0.00000000000E+00 0. -1.
         -4    1    3    3    0  502  0.18859984636E+03 -0.27685086284E+03 -0.88211882618E+02  0.34640675302E+03  0.00000000000E+00 0.  1.
         11    1    5    5    0    0 -0.20528311519E+03  0.40986779331E+03 -0.78662383323E+03  0.91044484752E+03  0.00000000000E+00 0.  1.
        -11    1    5    5    0    0 -0.40873498722E+02  0.21251667414E+02 -0.78446824990E+02  0.90973516018E+02  0.00000000000E+00 0. -1.
          4    1    6    6  503    0 -0.12765724533E+02 -0.10607668821E+03  0.57351968561E+02  0.12126201302E+03  0.00000000000E+00 0. -1.
         -4    1    6    6    0  503  0.52100813152E+01 -0.14287662123E+02  0.86685694603E+02  0.88009612458E+02  0.00000000000E+00 0.  1.
<mgrwt>
<rscale>  0 0.14122892E+04</rscale>
<asrwt>0</asrwt>
<pdfrwt beam="1">  1        1 0.18816387E+00 0.14122892E+04</pdfrwt>
<pdfrwt beam="2">  1       -2 0.62722642E-01 0.14122892E+04</pdfrwt>
<totfact> 0.20697177E+01</totfact>
</mgrwt>
</event>
<event>
12    4  0.4413110E-008  0.3238521E+04  0.7818608E-02  0.8178717E-01
         -2   -1    0    0    0  501 -0.00000000000E+00  0.00000000000E+00  0.22686142540E+04  0.22686142540E+04  0.00000000000E+00 0.  1.
          1   -1    0    0  501    0  0.00000000000E+00 -0.00000000000E+00 -0.11557739450E+04  0.11557739450E+04  0.00000000000E+00 0. -1.
        -24    2    1    2    0    0 -0.62200350944E+03 -0.56339913954E+03 -0.79320311270E+03  0.11575119153E+04  0.79722642826E+02 0.  0.
        254    2    1    2    0    0  0.62200350944E+03  0.56339913954E+03  0.19060434217E+04  0.22668762837E+04  0.89522042217E+03 0.  0.
         23    2    4    4    0    0 -0.22837822754E+02  0.42713455713E+03  0.12819007076E+04  0.13544983378E+04  0.91819534872E+02 0.  0.
         23    2    4    4    0    0  0.64484133220E+03  0.13626458241E+03  0.62414271409E+03  0.91237794593E+03  0.92146668606E+02 0.  0.
          3    1    3    3  502    0 -0.35197862510E+03 -0.34356454564E+03 -0.41626459659E+03  0.64436151648E+03  0.00000000000E+00 0. -1.
         -4    1    3    3    0  502 -0.27002488435E+03 -0.21983459390E+03 -0.37693851612E+03  0.51315039879E+03  0.00000000000E+00 0.  1.
         11    1    5    5    0    0  0.98532539922E+01  0.33621159447E+03  0.10697026536E+04  0.11213380802E+04  0.00000000000E+00 0.  1.
        -11    1    5    5    0    0 -0.32691076746E+02  0.90922962661E+02  0.21219805393E+03  0.23316025761E+03  0.00000000000E+00 0. -1.
          3    1    6    6  503    0  0.26533049790E+03  0.46492040261E+02  0.31681036836E+03  0.41584924243E+03  0.00000000000E+00 0. -1.
         -3    1    6    6    0  503  0.37951083429E+03  0.89772542152E+02  0.30733234573E+03  0.49652870350E+03  0.00000000000E+00 0.  1.
<mgrwt>
<rscale>  0 0.32385214E+04</rscale>
<asrwt>0</asrwt>
<pdfrwt beam="1">  1        1 0.17781138E+00 0.32385214E+04</pdfrwt>
<pdfrwt beam="2">  1       -2 0.34901758E+00 0.32385214E+04</pdfrwt>
<totfact> 0.13300184E-01</totfact>
</mgrwt>
</event>
<event>
12    4  0.4413110E-008  0.2055732E+04  0.7818608E-02  0.8580998E-01
          1   -1    0    0  501    0  0.00000000000E+00  0.00000000000E+00  0.12821039953E+04  0.12821039953E+04  0.00000000000E+00 0. -1.
         -2   -1    0    0    0  501 -0.00000000000E+00 -0.00000000000E+00 -0.82404283611E+03  0.82404283611E+03  0.00000000000E+00 0.  1.
        -24    2    1    2    0    0  0.75109105262E+03  0.12377687246E+03  0.52207577741E+03  0.92652497590E+03  0.80168136567E+02 0.  0.
        254    2    1    2    0    0 -0.75109105262E+03 -0.12377687246E+03 -0.64014618258E+02  0.11796218555E+04  0.89886115004E+03 0.  0.
         23    2    4    4    0    0  0.52274396215E+02  0.15487049229E+03 -0.24092210234E+03  0.30634703738E+03  0.95328726158E+02 0.  0.
         23    2    4    4    0    0 -0.80336544884E+03 -0.27864736476E+03  0.17690748409E+03  0.87327481809E+03  0.90951919758E+02 0.  0.
          1    1    3    3  502    0  0.44388623067E+03  0.10977636060E+03  0.33076088038E+03  0.56434793799E+03  0.00000000000E+00 0. -1.
         -2    1    3    3    0  502  0.30720482195E+03  0.14000511869E+02  0.19131489703E+03  0.36217703791E+03  0.00000000000E+00 0.  1.
         11    1    5    5    0    0  0.57968894924E+02  0.53695825911E+02 -0.60893461782E+02  0.99757947988E+02  0.00000000000E+00 0. -1.
        -11    1    5    5    0    0 -0.56944987098E+01  0.10117466638E+03 -0.18002864056E+03  0.20658908939E+03  0.00000000000E+00 0.  1.
          3    1    6    6  503    0 -0.21030374760E+03 -0.58702119626E+02  0.76014777303E+01  0.21847514176E+03  0.00000000000E+00 0. -1.
         -3    1    6    6    0  503 -0.59306170124E+03 -0.21994524513E+03  0.16930600636E+03  0.65479967633E+03  0.00000000000E+00 0.  1.
<mgrwt>
<rscale>  0 0.20557321E+04</rscale>
<asrwt>0</asrwt>
<pdfrwt beam="1">  1        1 0.19724677E+00 0.20557321E+04</pdfrwt>
<pdfrwt beam="2">  1       -2 0.12677582E+00 0.20557321E+04</pdfrwt>
<totfact> 0.34924755E+00</totfact>
</mgrwt>
</event>
<event>
12    4  0.4413110E-008  0.2677100E+04  0.7818608E-02  0.8342474E-01
          1   -1    0    0  501    0  0.00000000000E+00  0.00000000000E+00  0.10765617121E+04  0.10765617121E+04  0.00000000000E+00 0. -1.
         -2   -1    0    0    0  501 -0.00000000000E+00 -0.00000000000E+00 -0.16642950743E+04  0.16642950743E+04  0.00000000000E+00 0.  1.
        -24    2    1    2    0    0 -0.31800950156E+03  0.99350265189E+03 -0.83798320108E+03  0.13409351802E+04  0.87827955167E+02 0.  0.
        254    2    1    2    0    0  0.31800950156E+03 -0.99350265189E+03  0.25024983885E+03  0.13999216062E+04  0.89943202036E+03 0.  0.
         23    2    4    4    0    0  0.26448770632E+03 -0.83262871657E+03  0.55419891387E+03  0.10383187619E+04  0.88006185232E+02 0.  0.
         23    2    4    4    0    0  0.53521795237E+02 -0.16087393531E+03 -0.30394907502E+03  0.36160284433E+03  0.98115091560E+02 0.  0.
          3    1    3    3  502    0 -0.77480798161E+01  0.12682693776E+02 -0.27643676503E+02  0.31385606778E+02  0.00000000000E+00 0. -1.
         -4    1    3    3    0  502 -0.31026142174E+03  0.98081995811E+03 -0.81033952458E+03  0.13095495734E+04  0.00000000000E+00 0.  1.
         11    1    5    5    0    0  0.85554774111E+02 -0.20000169228E+03  0.17630215944E+03  0.28000490658E+03  0.00000000000E+00 0.  1.
        -11    1    5    5    0    0  0.17893293221E+03 -0.63262702429E+03  0.37789675444E+03  0.75831385528E+03  0.00000000000E+00 0. -1.
          1    1    6    6  503    0 -0.12818518068E+02 -0.11063528418E+03 -0.19421573713E+03  0.22388441898E+03  0.00000000000E+00 0. -1.
         -1    1    6    6    0  503  0.66340313305E+02 -0.50238651135E+02 -0.10973333789E+03  0.13771842535E+03  0.00000000000E+00 0.  1.
<mgrwt>
<rscale>  0 0.26771002E+04</rscale>
<asrwt>0</asrwt>
<pdfrwt beam="1">  1        1 0.16562488E+00 0.26771002E+04</pdfrwt>
<pdfrwt beam="2">  1       -2 0.25604539E+00 0.26771002E+04</pdfrwt>
<totfact> 0.59804591E-01</totfact>
</mgrwt>
</event>
<event>
12    4  0.4413110E-008  0.1588919E+04  0.7818608E-02  0.8827385E-01
          1   -1    0    0  501    0  0.00000000000E+00  0.00000000000E+00  0.42724624964E+03  0.42724624964E+03  0.00000000000E+00 0. -1.
         -2   -1    0    0    0  501 -0.00000000000E+00 -0.00000000000E+00 -0.14772882741E+04  0.14772882741E+04  0.00000000000E+00 0.  1.
        -24    2    1    2    0    0 -0.18951016120E+03 -0.13488533778E+03 -0.88060569068E+03  0.91437972038E+03  0.80720103035E+02 0.  0.
        254    2    1    2    0    0  0.18951016120E+03  0.13488533778E+03 -0.16943633377E+03  0.99015480336E+03  0.94741211089E+03 0.  0.
         23    2    4    4    0    0  0.48586077219E+03  0.28147674340E+03  0.68018062916E+02  0.57291062876E+03  0.91160762585E+02 0.  0.
         23    2    4    4    0    0 -0.29635061099E+03 -0.14659140562E+03 -0.23745439669E+03  0.41724417460E+03  0.91626338449E+02 0.  0.
          3    1    3    3  502    0 -0.42191002148E+02 -0.41239320102E+02 -0.11649441227E+03  0.13058219739E+03  0.00000000000E+00 0. -1.
         -4    1    3    3    0  502 -0.14731915905E+03 -0.93646017678E+02 -0.76411127841E+03  0.78379752299E+03  0.00000000000E+00 0.  1.
         11    1    5    5    0    0  0.36314936364E+03  0.21412782693E+03  0.90379484277E+02  0.43115732368E+03  0.00000000000E+00 0. -1.
        -11    1    5    5    0    0  0.12271140855E+03  0.67348916464E+02 -0.22361421361E+02  0.14175330508E+03  0.00000000000E+00 0.  1.
          3    1    6    6  503    0 -0.18701632676E+03 -0.12807484494E+03 -0.19325600075E+03  0.29786935762E+03  0.00000000000E+00 0. -1.
         -3    1    6    6    0  503 -0.10933428423E+03 -0.18516560680E+02 -0.44198395942E+02  0.11937481699E+03  0.00000000000E+00 0.  1.
<mgrwt>
<rscale>  0 0.15889190E+04</rscale>
<asrwt>0</asrwt>
<pdfrwt beam="1">  1        1 0.65730192E-01 0.15889190E+04</pdfrwt>
<pdfrwt beam="2">  1       -2 0.22727512E+00 0.15889190E+04</pdfrwt>
<totfact> 0.40996863E+00</totfact>
</mgrwt>
</event>
<event>
12    4  0.4413110E-008  0.2770386E+04  0.7818608E-02  0.8312522E-01
         -2   -1    0    0    0  501 -0.00000000000E+00  0.00000000000E+00  0.82980106812E+03  0.82980106812E+03  0.00000000000E+00 0.  1.
          1   -1    0    0  501    0  0.00000000000E+00 -0.00000000000E+00 -0.23123134241E+04  0.23123134241E+04  0.00000000000E+00 0. -1.
        -24    2    1    2    0    0  0.14234477679E+03  0.70672499720E+03  0.47657910646E+03  0.86785438722E+03  0.79506827050E+02 0.  0.
        254    2    1    2    0    0 -0.14234477679E+03 -0.70672499720E+03 -0.19590914624E+04  0.22742601050E+04  0.90249510239E+03 0.  0.
         23    2    4    4    0    0 -0.11623951290E+03 -0.88397986578E+03 -0.18235369283E+04  0.20318059733E+04  0.89535227550E+02 0.  0.
         23    2    4    4    0    0 -0.26105263890E+02  0.17725486858E+03 -0.13555453416E+03  0.24245413168E+03  0.91149333511E+02 0.  0.
          1    1    3    3  502    0  0.29019815714E+02  0.15435624171E+03  0.14474072784E+03  0.21358342013E+03  0.00000000000E+00 0. -1.
         -2    1    3    3    0  502  0.11332496107E+03  0.55236875550E+03  0.33183837862E+03  0.65427096709E+03  0.00000000000E+00 0.  1.
         11    1    5    5    0    0 -0.52018087026E+02 -0.68525196767E+03 -0.14008330939E+04  0.15603235234E+04  0.00000000000E+00 0. -1.
        -11    1    5    5    0    0 -0.64221425872E+02 -0.19872789811E+03 -0.42270383437E+03  0.47148244996E+03  0.00000000000E+00 0.  1.
          4    1    6    6  503    0 -0.26008238504E+01  0.17723636198E+03 -0.12352024992E+03  0.21604801418E+03  0.00000000000E+00 0. -1.
         -4    1    6    6    0  503 -0.23504440039E+02  0.18506598925E-01 -0.12034284247E+02  0.26406117500E+02  0.00000000000E+00 0.  1.
<mgrwt>
<rscale>  0 0.27703864E+04</rscale>
<asrwt>0</asrwt>
<pdfrwt beam="1">  1        1 0.35574052E+00 0.27703864E+04</pdfrwt>
<pdfrwt beam="2">  1       -2 0.12766170E+00 0.27703864E+04</pdfrwt>
<totfact> 0.63331433E-01</totfact>
</mgrwt>
</event>
<event>
12    4  0.4413110E-008  0.1841350E+04  0.7818608E-02  0.8684614E-01
         -2   -1    0    0    0  501 -0.00000000000E+00  0.00000000000E+00  0.15294265862E+04  0.15294265862E+04  0.00000000000E+00 0.  1.
          1   -1    0    0  501    0  0.00000000000E+00 -0.00000000000E+00 -0.55422238042E+03  0.55422238042E+03  0.00000000000E+00 0. -1.
        -24    2    1    2    0    0 -0.40073517927E+03  0.18598800135E+03  0.11113493512E+04  0.11990348090E+04  0.86063187401E+02 0.  0.
        254    2    1    2    0    0  0.40073517927E+03 -0.18598800135E+03 -0.13614514550E+03  0.88461415755E+03  0.75420586483E+03 0.  0.
         23    2    4    4    0    0 -0.18877735473E+03  0.30176236939E+02 -0.12983523348E+03  0.25017222176E+03  0.95819923579E+02 0.  0.
         23    2    4    4    0    0  0.58951253400E+03 -0.21616423829E+03 -0.63099120223E+01  0.63444193579E+03  0.90690403226E+02 0.  0.
          1    1    3    3  502    0 -0.13761927082E+03  0.22061794250E+02  0.31404929319E+03  0.34358804552E+03  0.00000000000E+00 0. -1.
         -2    1    3    3    0  502 -0.26311590845E+03  0.16392620710E+03  0.79730005805E+03  0.85544676352E+03  0.00000000000E+00 0.  1.
         11    1    5    5    0    0 -0.55233529309E+02 -0.30710528680E+02 -0.61832637545E+02  0.88414672976E+02  0.00000000000E+00 0. -1.
        -11    1    5    5    0    0 -0.13354382542E+03  0.60886765619E+02 -0.68002595931E+02  0.16175754879E+03  0.00000000000E+00 0.  1.
          2    1    6    6  503    0  0.41038465970E+03 -0.19216298907E+03  0.72533671542E+01  0.45320502493E+03  0.00000000000E+00 0.  1.
         -2    1    6    6    0  503  0.17912787430E+03 -0.24001249217E+02 -0.13563279177E+02  0.18123691086E+03  0.00000000000E+00 0. -1.
<mgrwt>
<rscale>  0 0.18413500E+04</rscale>
<asrwt>0</asrwt>
<pdfrwt beam="1">  1        1 0.85264982E-01 0.18413500E+04</pdfrwt>
<pdfrwt beam="2">  1       -2 0.23529640E+00 0.18413500E+04</pdfrwt>
<totfact> 0.25012602E+00</totfact>
</mgrwt>
</event>
<event>
12    4  0.4413110E-008  0.1799703E+04  0.7818608E-02  0.8706457E-01
         -2   -1    0    0    0  501 -0.00000000000E+00  0.00000000000E+00  0.58702816614E+03  0.58702816614E+03  0.00000000000E+00 0.  1.
          1   -1    0    0  501    0  0.00000000000E+00 -0.00000000000E+00 -0.13793769752E+04  0.13793769752E+04  0.00000000000E+00 0. -1.
        -24    2    1    2    0    0 -0.39742523459E+03 -0.50166658212E+03 -0.52404740926E+03  0.83105313255E+03  0.80046519400E+02 0.  0.
        254    2    1    2    0    0  0.39742523459E+03  0.50166658212E+03 -0.26830139978E+03  0.11353520088E+04  0.89856684001E+03 0.  0.
         23    2    4    4    0    0  0.14377598301E+03 -0.25125074103E+03 -0.65572507655E+02  0.30973907253E+03  0.88544176167E+02 0.  0.
         23    2    4    4    0    0  0.25364925158E+03  0.75291732315E+03 -0.20272889212E+03  0.82561293623E+03  0.96515690164E+02 0.  0.
          3    1    3    3  502    0 -0.39924428279E+03 -0.49735391444E+03 -0.52524716080E+03  0.82622121340E+03  0.00000000000E+00 0. -1.
         -2    1    3    3    0  502  0.18190481983E+01 -0.43126676868E+01  0.11997515433E+01  0.48319191518E+01  0.00000000000E+00 0.  1.
         11    1    5    5    0    0  0.10786714604E+03 -0.14850402681E+03 -0.17245052233E+01  0.18355310156E+03  0.00000000000E+00 0. -1.
        -11    1    5    5    0    0  0.35908836969E+02 -0.10274671422E+03 -0.63848002432E+02  0.12618597097E+03  0.00000000000E+00 0.  1.
          4    1    6    6  503    0  0.24239408933E+03  0.73605889482E+03 -0.21185876025E+03  0.80338143212E+03  0.00000000000E+00 0. -1.
         -4    1    6    6    0  503  0.11255162246E+02  0.16858428330E+02  0.91298681265E+01  0.22231504109E+02  0.00000000000E+00 0.  1.
<mgrwt>
<rscale>  0 0.17997035E+04</rscale>
<asrwt>0</asrwt>
<pdfrwt beam="1">  1        1 0.21221184E+00 0.17997035E+04</pdfrwt>
<pdfrwt beam="2">  1       -2 0.90312026E-01 0.17997035E+04</pdfrwt>
<totfact> 0.68958765E+00</totfact>
</mgrwt>
</event>
<event>
12    4  0.4413110E-008  0.1328389E+04  0.7818608E-02  0.9007351E-01
          1   -1    0    0  501    0  0.00000000000E+00  0.00000000000E+00  0.78235634710E+03  0.78235634710E+03  0.00000000000E+00 0. -1.
         -2   -1    0    0    0  501 -0.00000000000E+00 -0.00000000000E+00 -0.56387894926E+03  0.56387894926E+03  0.00000000000E+00 0.  1.
        -24    2    1    2    0    0  0.29595639382E+01 -0.35368910155E+03  0.13404734465E+03  0.38649833125E+03  0.79419958918E+02 0.  0.
        254    2    1    2    0    0 -0.29595639382E+01  0.35368910155E+03  0.84430053193E+02  0.95973696511E+03  0.88817896211E+03 0.  0.
         23    2    4    4    0    0 -0.10469777655E+03 -0.14590986436E+03 -0.26527388735E+03  0.33481572429E+03  0.97365399344E+02 0.  0.
         23    2    4    4    0    0  0.10173821261E+03  0.49959896591E+03  0.34970394054E+03  0.62492124082E+03  0.91016045551E+02 0.  0.
          3    1    3    3  502    0  0.19228204308E+02 -0.14267241410E+03  0.91622128608E+02  0.17064511724E+03  0.00000000000E+00 0. -1.
         -4    1    3    3    0  502 -0.16268640370E+02 -0.21101668745E+03  0.42425216039E+02  0.21585321401E+03  0.00000000000E+00 0.  1.
         11    1    5    5    0    0 -0.10594515107E+03 -0.77453126229E+02 -0.13894675894E+03  0.19112708761E+03  0.00000000000E+00 0. -1.
        -11    1    5    5    0    0  0.12473745186E+01 -0.68456738130E+02 -0.12632712841E+03  0.14368863668E+03  0.00000000000E+00 0.  1.
          4    1    6    6  503    0  0.51300349453E+02  0.42246083974E+03  0.29374876914E+03  0.51710078934E+03  0.00000000000E+00 0. -1.
         -4    1    6    6    0  503  0.50437863161E+02  0.77138126173E+02  0.55955171406E+02  0.10782045148E+03  0.00000000000E+00 0.  1.
<mgrwt>
<rscale>  0 0.13283889E+04</rscale>
<asrwt>0</asrwt>
<pdfrwt beam="1">  1        1 0.12036252E+00 0.13283889E+04</pdfrwt>
<pdfrwt beam="2">  1       -2 0.86750607E-01 0.13283889E+04</pdfrwt>
<totfact> 0.22636321E+01</totfact>
</mgrwt>
</event>
<event>
12    4  0.4413110E-008  0.2073753E+04  0.7818608E-02  0.8572894E-01
          1   -1    0    0  501    0  0.00000000000E+00  0.00000000000E+00  0.15012059091E+04  0.15012059091E+04  0.00000000000E+00 0. -1.
         -2   -1    0    0    0  501 -0.00000000000E+00 -0.00000000000E+00 -0.71616629979E+03  0.71616629979E+03  0.00000000000E+00 0.  1.
        -24    2    1    2    0    0  0.83382660323E+03  0.12117825851E+03  0.18879253847E+03  0.86611275292E+03  0.67510766553E+02 0.  0.
        254    2    1    2    0    0 -0.83382660323E+03 -0.12117825851E+03  0.59624707083E+03  0.13512594560E+04  0.87203243820E+03 0.  0.
         23    2    4    4    0    0 -0.22354044956E+03  0.17895157017E+03 -0.15274990542E+03  0.33626736316E+03  0.88029590838E+02 0.  0.
         23    2    4    4    0    0 -0.61028615367E+03 -0.30012982868E+03  0.74899697625E+03  0.10149920928E+04  0.81764140086E+02 0.  0.
          3    1    3    3  502    0  0.62184215352E+03  0.66639336807E+02  0.15816293781E+03  0.64509222597E+03  0.00000000000E+00 0. -1.
         -4    1    3    3    0  502  0.21198444971E+03  0.54538921699E+02  0.30629600665E+02  0.22102052696E+03  0.00000000000E+00 0.  1.
         11    1    5    5    0    0 -0.15809425219E+03  0.10365442082E+03 -0.55686349290E+02  0.19707613003E+03  0.00000000000E+00 0. -1.
        -11    1    5    5    0    0 -0.65446197371E+02  0.75297149355E+02 -0.97063556129E+02  0.13919123313E+03  0.00000000000E+00 0.  1.
          2    1    6    6  503    0 -0.37949853581E+03 -0.21607656300E+03  0.52156451095E+03  0.68024830676E+03  0.00000000000E+00 0. -1.
         -2    1    6    6    0  503 -0.23078761785E+03 -0.84053265686E+02  0.22743246530E+03  0.33474378605E+03  0.00000000000E+00 0.  1.
<mgrwt>
<rscale>  0 0.20737532E+04</rscale>
<asrwt>0</asrwt>
<pdfrwt beam="1">  1        1 0.23095476E+00 0.20737532E+04</pdfrwt>
<pdfrwt beam="2">  1       -2 0.11017943E+00 0.20737532E+04</pdfrwt>
<totfact> 0.34572601E+00</totfact>
</mgrwt>
</event>
<event>
12    4  0.4413110E-008  0.1456106E+04  0.7818608E-02  0.8914178E-01
          1   -1    0    0  501    0  0.00000000000E+00  0.00000000000E+00  0.18105691760E+04  0.18105691760E+04  0.00000000000E+00 0. -1.
         -4   -1    0    0    0  501 -0.00000000000E+00 -0.00000000000E+00 -0.29275947547E+03  0.29275947547E+03  0.00000000000E+00 0.  1.
        -24    2    1    2    0    0  0.17762578563E+03  0.62071967441E+02  0.10503800445E+04  0.10701702422E+04  0.81007781119E+02 0.  0.
        254    2    1    2    0    0 -0.17762578563E+03 -0.62071967441E+02  0.46742965604E+03  0.10331584093E+04  0.90195452569E+03 0.  0.
         23    2    4    4    0    0  0.14907063242E+03 -0.20285337307E+03 -0.15529905975E+03  0.30921573206E+03  0.90138929320E+02 0.  0.
         23    2    4    4    0    0 -0.32669641804E+03  0.14078140562E+03  0.62272871578E+03  0.72394267720E+03  0.98752178088E+02 0.  0.
          3    1    3    3  502    0  0.72627241354E+02  0.65637525685E+02  0.57973644585E+03  0.58794332007E+03  0.00000000000E+00 0. -1.
         -4    1    3    3    0  502  0.10499854427E+03 -0.35655582437E+01  0.47064359863E+03  0.48222692214E+03  0.00000000000E+00 0.  1.
         11    1    5    5    0    0  0.15022126162E+03 -0.18875367289E+03 -0.11645010728E+03  0.26787124511E+03  0.00000000000E+00 0. -1.
        -11    1    5    5    0    0 -0.11506292032E+01 -0.14099700173E+02 -0.38848952470E+02  0.41344486943E+02  0.00000000000E+00 0.  1.
          1    1    6    6  503    0 -0.20251229398E+03  0.10841829488E+03  0.47917701301E+03  0.53139097252E+03  0.00000000000E+00 0. -1.
         -1    1    6    6    0  503 -0.12418412406E+03  0.32363110745E+02  0.14355170277E+03  0.19255170468E+03  0.00000000000E+00 0.  1.
<mgrwt>
<rscale>  0 0.14561062E+04</rscale>
<asrwt>0</asrwt>
<pdfrwt beam="1">  1        1 0.27854910E+00 0.14561062E+04</pdfrwt>
<pdfrwt beam="2">  1       -4 0.45039920E-01 0.14561062E+04</pdfrwt>
<totfact> 0.92027029E+00</totfact>
</mgrwt>
</event>
<event>
12    4  0.5574892E-008  0.2529323E+04  0.7818608E-02  0.8392613E-01
          1   -1    0    0  501    0  0.00000000000E+00  0.00000000000E+00  0.17145967078E+04  0.17145967078E+04  0.00000000000E+00 0. -1.
         -2   -1    0    0    0  501 -0.00000000000E+00 -0.00000000000E+00 -0.93279551997E+03  0.93279551997E+03  0.00000000000E+00 0.  1.
        -24    2    1    2    0    0  0.44213264343E+03 -0.95227417790E+03  0.70293646887E+03  0.12660408017E+04  0.80201296327E+02 0.  0.
        254    2    1    2    0    0 -0.44213264343E+03  0.95227417790E+03  0.78864719010E+02  0.13813514261E+04  0.89420620347E+03 0.  0.
         23    2    4    4    0    0 -0.54371181933E+02 -0.77679623415E+02 -0.20404282546E+03  0.24130841186E+03  0.87211958426E+02 0.  0.
         23    2    4    4    0    0 -0.38776146149E+03  0.10299538013E+04  0.28290754447E+03  0.11400430143E+04  0.92182492098E+02 0.  0.
          1    1    3    3  502    0  0.27971016436E+03 -0.60884453166E+03  0.40179169076E+03  0.78125924157E+03  0.00000000000E+00 0. -1.
         -2    1    3    3    0  502  0.16242247907E+03 -0.34342964625E+03  0.30114477811E+03  0.48478156010E+03  0.00000000000E+00 0.  1.
         11    1    5    5    0    0 -0.50565330251E+02 -0.96434826936E+02 -0.16301557372E+03  0.19603725601E+03  0.00000000000E+00 0. -1.
        -11    1    5    5    0    0 -0.38058516819E+01  0.18755203521E+02 -0.41027251743E+02  0.45271155847E+02  0.00000000000E+00 0.  1.
          3    1    6    6  503    0 -0.35722106639E+03  0.93173935556E+03  0.22854902291E+03  0.10237088321E+04  0.00000000000E+00 0. -1.
         -3    1    6    6    0  503 -0.30540395107E+02  0.98214445755E+02  0.54358521559E+02  0.11633418223E+03  0.00000000000E+00 0.  1.
<mgrwt>
<rscale>  0 0.25293225E+04</rscale>
<asrwt>0</asrwt>
<pdfrwt beam="1">  1        1 0.26378411E+00 0.25293225E+04</pdfrwt>
<pdfrwt beam="2">  1       -2 0.14350700E+00 0.25293225E+04</pdfrwt>
<totfact> 0.12208629E+00</totfact>
</mgrwt>
</event>
<event>
12    4  0.4413110E-008  0.2688225E+04  0.7818608E-02  0.8338836E-01
          3   -1    0    0  501    0  0.00000000000E+00  0.00000000000E+00  0.12934403608E+04  0.12934403608E+04  0.00000000000E+00 0. -1.
         -4   -1    0    0    0  501 -0.00000000000E+00 -0.00000000000E+00 -0.13967697393E+04  0.13967697393E+04  0.00000000000E+00 0.  1.
        -24    2    1    2    0    0  0.11180576822E+04 -0.15823513414E+03 -0.41785084339E+03  0.12066317104E+04  0.79179662012E+02 0.  0.
        254    2    1    2    0    0 -0.11180576822E+04  0.15823513414E+03  0.31452146487E+03  0.14835783897E+04  0.90938976694E+03 0.  0.
         23    2    4    4    0    0 -0.36408253829E+03  0.48799536499E+03  0.68524528579E+02  0.61986531042E+03  0.94030958262E+02 0.  0.
         23    2    4    4    0    0 -0.75397514393E+03 -0.32976023085E+03  0.24599693629E+03  0.86371307932E+03  0.90914592929E+02 0.  0.
          3    1    3    3  502    0  0.35064382493E+03 -0.13499165986E+02 -0.13786065087E+03  0.37701310123E+03  0.00000000000E+00 0. -1.
         -4    1    3    3    0  502  0.76741385729E+03 -0.14473596815E+03 -0.27999019252E+03  0.82961860921E+03  0.00000000000E+00 0.  1.
         11    1    5    5    0    0 -0.20370485080E+03  0.19473086591E+03  0.30100058849E+02  0.28341099118E+03  0.00000000000E+00 0. -1.
        -11    1    5    5    0    0 -0.16037768748E+03  0.29326449908E+03  0.38424469730E+02  0.33645431924E+03  0.00000000000E+00 0.  1.
          3    1    6    6  503    0 -0.30683071676E+03 -0.18311524270E+03  0.10169744488E+03  0.37150861518E+03  0.00000000000E+00 0. -1.
         -3    1    6    6    0  503 -0.44714442716E+03 -0.14664498815E+03  0.14429949142E+03  0.49220446414E+03  0.00000000000E+00 0.  1.
<mgrwt>
<rscale>  0 0.26882250E+04</rscale>
<asrwt>0</asrwt>
<pdfrwt beam="1">  1        3 0.19899083E+00 0.26882250E+04</pdfrwt>
<pdfrwt beam="2">  1       -4 0.21488765E+00 0.26882250E+04</pdfrwt>
<totfact> 0.31431884E-02</totfact>
</mgrwt>
</event>
<event>
12    4  0.4413110E-008  0.1446903E+04  0.7818608E-02  0.8920550E-01
          1   -1    0    0  501    0  0.00000000000E+00  0.00000000000E+00  0.62529031663E+03  0.62529031663E+03  0.00000000000E+00 0. -1.
         -2   -1    0    0    0  501 -0.00000000000E+00 -0.00000000000E+00 -0.83702246636E+03  0.83702246636E+03  0.00000000000E+00 0.  1.
        -24    2    1    2    0    0 -0.41830013375E+03 -0.10743634168E+03  0.29378166427E+02  0.44011317036E+03  0.79491865346E+02 0.  0.
        254    2    1    2    0    0  0.41830013375E+03  0.10743634168E+03 -0.24111031616E+03  0.10221996126E+04  0.89456150938E+03 0.  0.
         23    2    4    4    0    0  0.49526942035E+03  0.41566504664E+03 -0.22872226666E+03  0.69202951366E+03  0.92313286005E+02 0.  0.
         23    2    4    4    0    0 -0.76969286605E+02 -0.30822870496E+03 -0.12388049498E+02  0.33017009896E+03  0.89048440952E+02 0.  0.
          1    1    3    3  502    0 -0.86192659001E+02  0.38911812932E+01 -0.13127379800E+02  0.87273385737E+02  0.00000000000E+00 0. -1.
         -2    1    3    3    0  502 -0.33210747475E+03 -0.11132752298E+03  0.42505546227E+02  0.35283978463E+03  0.00000000000E+00 0.  1.
         11    1    5    5    0    0  0.10722874087E+03  0.98044665679E+02 -0.93074547556E+02  0.17255037160E+03  0.00000000000E+00 0.  1.
        -11    1    5    5    0    0  0.38804067948E+03  0.31762038096E+03 -0.13564771910E+03  0.51947914206E+03  0.00000000000E+00 0. -1.
          2    1    6    6  503    0 -0.94521731204E+02 -0.21571569746E+03 -0.14750068899E+02  0.23597708434E+03  0.00000000000E+00 0. -1.
         -2    1    6    6    0  503  0.17552444599E+02 -0.92513007497E+02  0.23620194010E+01  0.94193014620E+02  0.00000000000E+00 0.  1.
<mgrwt>
<rscale>  0 0.14469030E+04</rscale>
<asrwt>0</asrwt>
<pdfrwt beam="1">  1        1 0.96198510E-01 0.14469030E+04</pdfrwt>
<pdfrwt beam="2">  1       -2 0.12877269E+00 0.14469030E+04</pdfrwt>
<totfact> 0.12193269E+01</totfact>
</mgrwt>
</event>
<event>
12    4  0.4413110E-008  0.1282560E+04  0.7818608E-02  0.9043511E-01
         -2   -1    0    0    0  501 -0.00000000000E+00  0.00000000000E+00  0.25376130921E+03  0.25376130921E+03  0.00000000000E+00 0.  1.
          1   -1    0    0  501    0  0.00000000000E+00 -0.00000000000E+00 -0.16205776909E+04  0.16205776909E+04  0.00000000000E+00 0. -1.
        -24    2    1    2    0    0 -0.21185650050E+03 -0.57066941118E+02 -0.69194585010E+03  0.73040066982E+03  0.80970775156E+02 0.  0.
        254    2    1    2    0    0  0.21185650050E+03  0.57066941118E+02 -0.67487053155E+03  0.11439383302E+04  0.89722062865E+03 0.  0.
         23    2    4    4    0    0  0.50204399426E+03 -0.16459168969E+03 -0.48050014330E+03  0.72014175672E+03  0.92656168564E+02 0.  0.
         23    2    4    4    0    0 -0.29018749377E+03  0.22165863081E+03 -0.19437038825E+03  0.42379657352E+03  0.92099716338E+02 0.  0.
          1    1    3    3  502    0 -0.17394068974E+03 -0.42627347495E+02 -0.63944348871E+03  0.66404851446E+03  0.00000000000E+00 0. -1.
         -2    1    3    3    0  502 -0.37915810758E+02 -0.14439593623E+02 -0.52502361393E+02  0.66352155363E+02  0.00000000000E+00 0.  1.
         11    1    5    5    0    0  0.46424519539E+03 -0.12313607736E+03 -0.43028019564E+03  0.64484660327E+03  0.00000000000E+00 0.  1.
        -11    1    5    5    0    0  0.37798798870E+02 -0.41455612334E+02 -0.50219947669E+02  0.75295153455E+02  0.00000000000E+00 0. -1.
          4    1    6    6  503    0 -0.82514090531E+02  0.15986647823E+02 -0.36880151585E+02  0.91783950807E+02  0.00000000000E+00 0. -1.
         -4    1    6    6    0  503 -0.20767340323E+03  0.20567198299E+03 -0.15749023666E+03  0.33201262271E+03  0.00000000000E+00 0.  1.
<mgrwt>
<rscale>  0 0.12825598E+04</rscale>
<asrwt>0</asrwt>
<pdfrwt beam="1">  1        1 0.24931965E+00 0.12825598E+04</pdfrwt>
<pdfrwt beam="2">  1       -2 0.39040201E-01 0.12825598E+04</pdfrwt>
<totfact> 0.28925479E+01</totfact>
</mgrwt>
</event>
<event>
12    4  0.4413110E-008  0.1492631E+04  0.7818608E-02  0.8889368E-01
         -2   -1    0    0    0  501 -0.00000000000E+00  0.00000000000E+00  0.69306235085E+03  0.69306235085E+03  0.00000000000E+00 0.  1.
          1   -1    0    0  501    0  0.00000000000E+00 -0.00000000000E+00 -0.80366012591E+03  0.80366012591E+03  0.00000000000E+00 0. -1.
        -24    2    1    2    0    0 -0.46724218780E+02 -0.25811143938E+03 -0.43513170645E+03  0.51428195386E+03  0.79634529917E+02 0.  0.
        254    2    1    2    0    0  0.46724218780E+02  0.25811143938E+03  0.32453393138E+03  0.98244052290E+03  0.88941691048E+03 0.  0.
         23    2    4    4    0    0 -0.27278593480E+03  0.44545910956E+03  0.99619435971E+02  0.53947348202E+03  0.90893461031E+02 0.  0.
         23    2    4    4    0    0  0.31951015358E+03 -0.18734767019E+03  0.22491449541E+03  0.44296704088E+03  0.91909636551E+02 0.  0.
          3    1    3    3  502    0 -0.66493764258E+02 -0.23205886513E+03 -0.38086256988E+03  0.45092020880E+03  0.00000000000E+00 0. -1.
         -4    1    3    3    0  502  0.19769545478E+02 -0.26052574246E+02 -0.54269136571E+02  0.63361745063E+02  0.00000000000E+00 0.  1.
         11    1    5    5    0    0 -0.42025225281E+02  0.14221188142E+03  0.41620626091E+02  0.15402147673E+03  0.00000000000E+00 0.  1.
        -11    1    5    5    0    0 -0.23076070952E+03  0.30324722815E+03  0.57998809880E+02  0.38545200529E+03  0.00000000000E+00 0. -1.
          3    1    6    6  503    0  0.26605415642E+03 -0.17068699371E+03  0.22318141317E+03  0.38694806777E+03  0.00000000000E+00 0. -1.
         -3    1    6    6    0  503  0.53455997163E+02 -0.16660676483E+02  0.17330822378E+01  0.56018973103E+02  0.00000000000E+00 0.  1.
<mgrwt>
<rscale>  0 0.14926307E+04</rscale>
<asrwt>0</asrwt>
<pdfrwt beam="1">  1        1 0.12364002E+00 0.14926307E+04</pdfrwt>
<pdfrwt beam="2">  1       -2 0.10662498E+00 0.14926307E+04</pdfrwt>
<totfact> 0.13183471E+01</totfact>
</mgrwt>
</event>
<event>
12    4  0.4413110E-008  0.2602256E+04  0.7818608E-02  0.8367435E-01
         -2   -1    0    0    0  501 -0.00000000000E+00  0.00000000000E+00  0.66961637665E+03  0.66961637665E+03  0.00000000000E+00 0.  1.
          1   -1    0    0  501    0  0.00000000000E+00 -0.00000000000E+00 -0.25282152177E+04  0.25282152177E+04  0.00000000000E+00 0. -1.
        -24    2    1    2    0    0  0.49480806408E+03 -0.44918399854E+02 -0.20655823963E+04  0.21259650688E+04  0.79019967199E+02 0.  0.
        254    2    1    2    0    0 -0.49480806408E+03  0.44918399854E+02  0.20698355517E+03  0.10718665256E+04  0.92693202209E+03 0.  0.
         23    2    4    4    0    0  0.13998998040E+03 -0.21248624234E+03  0.26454151418E+03  0.37846633930E+03  0.92233179837E+02 0.  0.
         23    2    4    4    0    0 -0.63479804448E+03  0.25740464219E+03 -0.57557959016E+02  0.69340018625E+03  0.90913104436E+02 0.  0.
          1    1    3    3  502    0  0.39607982966E+03 -0.35058937862E+02 -0.15034333790E+04  0.15551270963E+04  0.00000000000E+00 0. -1.
         -2    1    3    3    0  502  0.98728234423E+02 -0.98594619922E+01 -0.56214901727E+03  0.57083797253E+03  0.00000000000E+00 0.  1.
         11    1    5    5    0    0  0.93401448052E+02 -0.19415816502E+03  0.24060701689E+03  0.32297516951E+03  0.00000000000E+00 0. -1.
        -11    1    5    5    0    0  0.46588532347E+02 -0.18328077318E+02  0.23934497296E+02  0.55491169795E+02  0.00000000000E+00 0.  1.
          1    1    6    6  503    0 -0.44612489556E+03  0.19350405089E+03 -0.80434450873E+02  0.49289039455E+03  0.00000000000E+00 0. -1.
         -1    1    6    6    0  503 -0.18867314892E+03  0.63900591301E+02  0.22876491857E+02  0.20050979171E+03  0.00000000000E+00 0.  1.
<mgrwt>
<rscale>  0 0.26022562E+04</rscale>
<asrwt>0</asrwt>
<pdfrwt beam="1">  1        1 0.38895618E+00 0.26022562E+04</pdfrwt>
<pdfrwt beam="2">  1       -2 0.10301791E+00 0.26022562E+04</pdfrwt>
<totfact> 0.77126113E-01</totfact>
</mgrwt>
</event>
<event>
12    4  0.4413110E-008  0.1551309E+04  0.7818608E-02  0.8851032E-01
          1   -1    0    0  501    0  0.00000000000E+00  0.00000000000E+00  0.14646235943E+04  0.14646235943E+04  0.00000000000E+00 0. -1.
         -2   -1    0    0    0  501 -0.00000000000E+00 -0.00000000000E+00 -0.41078138025E+03  0.41078138025E+03  0.00000000000E+00 0.  1.
        -24    2    1    2    0    0  0.41672014049E+03  0.25830325173E+03  0.57760428472E+03  0.76199469694E+03  0.81443005158E+02 0.  0.
        254    2    1    2    0    0 -0.41672014049E+03 -0.25830325173E+03  0.47623792932E+03  0.11134102776E+04  0.87892185979E+03 0.  0.
         23    2    4    4    0    0  0.74404725175E+02 -0.43288302152E+03  0.87861681431E+02  0.45692070583E+03  0.90183606604E+02 0.  0.
         23    2    4    4    0    0 -0.49112486566E+03  0.17457976979E+03  0.38837624789E+03  0.65648957178E+03  0.91982162603E+02 0.  0.
          1    1    3    3  502    0  0.40781476917E+03  0.23429135505E+03  0.55779980555E+03  0.72962041369E+03  0.00000000000E+00 0. -1.
         -2    1    3    3    0  502  0.89053713173E+01  0.24011896678E+02  0.19804479176E+02  0.32374283247E+02  0.00000000000E+00 0.  1.
         11    1    5    5    0    0  0.67760799514E+02 -0.16557313395E+03  0.56947289514E+02  0.18774712359E+03  0.00000000000E+00 0. -1.
        -11    1    5    5    0    0  0.66439256612E+01 -0.26730988758E+03  0.30914391917E+02  0.26917358223E+03  0.00000000000E+00 0.  1.
          4    1    6    6  503    0 -0.19755741746E+03  0.25283171334E+02  0.12938110372E+03  0.23750293040E+03  0.00000000000E+00 0. -1.
         -4    1    6    6    0  503 -0.29356744820E+03  0.14929659846E+03  0.25899514416E+03  0.41898664138E+03  0.00000000000E+00 0.  1.
<mgrwt>
<rscale>  0 0.15513093E+04</rscale>
<asrwt>0</asrwt>
<pdfrwt beam="1">  1        1 0.22532670E+00 0.15513093E+04</pdfrwt>
<pdfrwt beam="2">  1       -2 0.63197136E-01 0.15513093E+04</pdfrwt>
<totfact> 0.13569883E+01</totfact>
</mgrwt>
</event>
<event>
12    4  0.4413110E-008  0.1209545E+04  0.7818608E-02  0.9104542E-01
          1   -1    0    0  501    0  0.00000000000E+00  0.00000000000E+00  0.29795021569E+04  0.29795021569E+04  0.00000000000E+00 0. -1.
         -2   -1    0    0    0  501 -0.00000000000E+00 -0.00000000000E+00 -0.12275536410E+03  0.12275536410E+03  0.00000000000E+00 0.  1.
        -24    2    1    2    0    0 -0.36996449966E+02  0.15581976629E+03  0.11789984783E+03  0.21601134971E+03  0.84332628386E+02 0.  0.
        254    2    1    2    0    0  0.36996449966E+02 -0.15581976629E+03  0.27388469450E+04  0.28862461713E+04  0.89637371472E+03 0.  0.
         23    2    4    4    0    0  0.12442093428E+03 -0.39900938089E+03  0.24546111065E+04  0.24916489014E+04  0.92246999272E+02 0.  0.
         23    2    4    4    0    0 -0.87424484317E+02  0.24318961460E+03  0.28423583852E+03  0.39459726992E+03  0.90181840848E+02 0.  0.
          1    1    3    3  502    0  0.17341018038E+02  0.68059029006E+02  0.78995192164E+02  0.10570233073E+03  0.00000000000E+00 0. -1.
         -2    1    3    3    0  502 -0.54337468004E+02  0.87760737285E+02  0.38904655662E+02  0.11030901899E+03  0.00000000000E+00 0.  1.
         11    1    5    5    0    0  0.38291568342E+02 -0.20176238113E+03  0.96856965814E+03  0.99010175503E+03  0.00000000000E+00 0.  1.
        -11    1    5    5    0    0  0.86129365941E+02 -0.19724699977E+03  0.14860414483E+04  0.15015471463E+04  0.00000000000E+00 0. -1.
          1    1    6    6  503    0 -0.63107263210E+02  0.20596501599E+03  0.17803699336E+03  0.27946607216E+03  0.00000000000E+00 0. -1.
         -1    1    6    6    0  503 -0.24317221108E+02  0.37224598607E+02  0.10619884516E+03  0.11513119776E+03  0.00000000000E+00 0.  1.
<mgrwt>
<rscale>  0 0.12095452E+04</rscale>
<asrwt>0</asrwt>
<pdfrwt beam="1">  1        1 0.45838489E+00 0.12095452E+04</pdfrwt>
<pdfrwt beam="2">  1       -2 0.18885443E-01 0.12095452E+04</pdfrwt>
<totfact> 0.12857150E+01</totfact>
</mgrwt>
</event>
<event>
12    4  0.4413110E-008  0.1757370E+04  0.7818608E-02  0.8729304E-01
          1   -1    0    0  501    0  0.00000000000E+00  0.00000000000E+00  0.26557471069E+04  0.26557471069E+04  0.00000000000E+00 0. -1.
         -2   -1    0    0    0  501 -0.00000000000E+00 -0.00000000000E+00 -0.29072336666E+03  0.29072336666E+03  0.00000000000E+00 0.  1.
        -24    2    1    2    0    0 -0.58709216364E+03 -0.24706271398E+03  0.80043258878E+03  0.10260497373E+04  0.79803138558E+02 0.  0.
        254    2    1    2    0    0  0.58709216364E+03  0.24706271398E+03  0.15645911515E+04  0.19204207363E+04  0.91342932947E+03 0.  0.
         23    2    4    4    0    0 -0.62386407357E+02  0.42067395134E+03  0.63745982442E+03  0.77162546806E+03  0.90510762016E+02 0.  0.
         23    2    4    4    0    0  0.64947857100E+03 -0.17361123737E+03  0.92713132709E+03  0.11487952683E+04  0.90525106118E+02 0.  0.
          1    1    3    3  502    0 -0.13179353137E+02 -0.63917761018E+01  0.37706410260E+01  0.15125074697E+02  0.00000000000E+00 0. -1.
         -2    1    3    3    0  502 -0.57391281050E+03 -0.24067093787E+03  0.79666194775E+03  0.10109246626E+04  0.00000000000E+00 0.  1.
         11    1    5    5    0    0 -0.54860008050E+02  0.33435533105E+03  0.43487374345E+03  0.55128783827E+03  0.00000000000E+00 0.  1.
        -11    1    5    5    0    0 -0.75263993067E+01  0.86318620294E+02  0.20258608097E+03  0.22033762978E+03  0.00000000000E+00 0. -1.
          2    1    6    6  503    0  0.61905868877E+03 -0.14953090754E+03  0.84652885250E+03  0.10593414230E+04  0.00000000000E+00 0.  1.
         -2    1    6    6    0  503  0.30419882228E+02 -0.24080329826E+02  0.80602474591E+02  0.89453845247E+02  0.00000000000E+00 0. -1.
<mgrwt>
<rscale>  0 0.17573705E+04</rscale>
<asrwt>0</asrwt>
<pdfrwt beam="1">  1        1 0.40857646E+00 0.17573705E+04</pdfrwt>
<pdfrwt beam="2">  1       -2 0.44726674E-01 0.17573705E+04</pdfrwt>
<totfact> 0.41654101E+00</totfact>
</mgrwt>
</event>
<event>
12    4  0.4413110E-008  0.3183851E+04  0.7818608E-02  0.8193095E-01
          1   -1    0    0  501    0  0.00000000000E+00  0.00000000000E+00  0.13893066247E+04  0.13893066247E+04  0.00000000000E+00 0. -1.
         -2   -1    0    0    0  501 -0.00000000000E+00 -0.00000000000E+00 -0.18240941514E+04  0.18240941514E+04  0.00000000000E+00 0.  1.
        -24    2    1    2    0    0  0.38619366085E+03 -0.16720215723E+03 -0.16195536983E+04  0.16752606121E+04  0.80261022488E+02 0.  0.
        254    2    1    2    0    0 -0.38619366085E+03  0.16720215723E+03  0.11847661716E+04  0.15381401641E+04  0.88605991781E+03 0.  0.
         23    2    4    4    0    0 -0.58331575984E+03 -0.42025874982E+02  0.10552826725E+04  0.12098927419E+04  0.90528881348E+02 0.  0.
         23    2    4    4    0    0  0.19712209899E+03  0.20922803221E+03  0.12948349910E+03  0.32824742212E+03  0.91361382524E+02 0.  0.
          3    1    3    3  502    0  0.45495811755E+01 -0.60588569565E+01 -0.69038873646E+01  0.10250468147E+02  0.00000000000E+00 0. -1.
         -4    1    3    3    0  502  0.38164407967E+03 -0.16114330027E+03 -0.16126498109E+04  0.16650101439E+04  0.00000000000E+00 0.  1.
         11    1    5    5    0    0 -0.25079781689E+03  0.11046103483E+02  0.52146035461E+03  0.57874213842E+03  0.00000000000E+00 0.  1.
        -11    1    5    5    0    0 -0.33251794295E+03 -0.53071978465E+02  0.53382231785E+03  0.63115060352E+03  0.00000000000E+00 0. -1.
          2    1    6    6  503    0  0.31689114119E+01  0.11781461135E+02  0.32929050703E+02  0.35116480550E+02  0.00000000000E+00 0.  1.
         -2    1    6    6    0  503  0.19395318758E+03  0.19744657107E+03  0.96554448398E+02  0.29313094157E+03  0.00000000000E+00 0. -1.
<mgrwt>
<rscale>  0 0.31838506E+04</rscale>
<asrwt>0</asrwt>
<pdfrwt beam="1">  1        1 0.21373948E+00 0.31838506E+04</pdfrwt>
<pdfrwt beam="2">  1       -2 0.28062987E+00 0.31838506E+04</pdfrwt>
<totfact> 0.24004736E-01</totfact>
</mgrwt>
</event>
<event>
12    4  0.4413110E-008  0.1561716E+04  0.7818608E-02  0.8844419E-01
          1   -1    0    0  501    0  0.00000000000E+00  0.00000000000E+00  0.12706170792E+04  0.12706170792E+04  0.00000000000E+00 0. -1.
         -2   -1    0    0    0  501 -0.00000000000E+00 -0.00000000000E+00 -0.47987615715E+03  0.47987615715E+03  0.00000000000E+00 0.  1.
        -24    2    1    2    0    0 -0.91552568208E+02 -0.35829162284E+03  0.67349223764E+03  0.77236198864E+03  0.78717771771E+02 0.  0.
        254    2    1    2    0    0  0.91552568208E+02  0.35829162284E+03  0.11724868441E+03  0.97813124770E+03  0.89790797078E+03 0.  0.
         23    2    4    4    0    0  0.16435758725E+03  0.37367053649E+03  0.45640547167E+03  0.61926705304E+03  0.92426414450E+02 0.  0.
         23    2    4    4    0    0 -0.72805019045E+02 -0.15378913646E+02 -0.33915678726E+03  0.35886419466E+03  0.90659263611E+02 0.  0.
          1    1    3    3  502    0 -0.80183199698E+02 -0.20354525281E+03  0.33648511452E+03  0.40135052978E+03  0.00000000000E+00 0. -1.
         -2    1    3    3    0  502 -0.11369368510E+02 -0.15474637003E+03  0.33700712311E+03  0.37101145886E+03  0.00000000000E+00 0.  1.
         11    1    5    5    0    0  0.97270266936E+02  0.23588934315E+03  0.34815033223E+03  0.43164098609E+03  0.00000000000E+00 0. -1.
        -11    1    5    5    0    0  0.67087320317E+02  0.13778119334E+03  0.10825513944E+03  0.18762606695E+03  0.00000000000E+00 0.  1.
          3    1    6    6  503    0 -0.39541562731E+02 -0.26877223151E+01 -0.31088726446E+03  0.31340333476E+03  0.00000000000E+00 0. -1.
         -3    1    6    6    0  503 -0.33263456313E+02 -0.12691191331E+02 -0.28269522802E+02  0.45460859899E+02  0.00000000000E+00 0.  1.
<mgrwt>
<rscale>  0 0.15617155E+04</rscale>
<asrwt>0</asrwt>
<pdfrwt beam="1">  1        1 0.19547955E+00 0.15617155E+04</pdfrwt>
<pdfrwt beam="2">  1       -2 0.73827102E-01 0.15617155E+04</pdfrwt>
<totfact> 0.13257300E+01</totfact>
</mgrwt>
</event>
<event>
12    4  0.4413110E-008  0.1341393E+04  0.7818608E-02  0.8997369E-01
         -2   -1    0    0    0  501 -0.00000000000E+00  0.00000000000E+00  0.19604433948E+03  0.19604433948E+03  0.00000000000E+00 0.  1.
          1   -1    0    0  501    0  0.00000000000E+00 -0.00000000000E+00 -0.22945523847E+04  0.22945523847E+04  0.00000000000E+00 0. -1.
        -24    2    1    2    0    0 -0.27559819838E+03 -0.90466974692E+02 -0.94153996088E+03  0.98848182634E+03  0.80375261247E+02 0.  0.
        254    2    1    2    0    0  0.27559819838E+03  0.90466974692E+02 -0.11569680844E+04  0.15021148979E+04  0.91303635068E+03 0.  0.
         23    2    4    4    0    0 -0.16777659795E+01  0.44644791695E+03 -0.35522566966E+03  0.57774357445E+03  0.91015405191E+02 0.  0.
         23    2    4    4    0    0  0.27727596436E+03 -0.35598094225E+03 -0.80174241471E+03  0.92437132342E+03  0.89816770980E+02 0.  0.
          3    1    3    3  502    0 -0.14063604723E+03 -0.83373979607E+02 -0.57619358959E+03  0.59893970560E+03  0.00000000000E+00 0. -1.
         -4    1    3    3    0  502 -0.13496215115E+03 -0.70929950850E+01 -0.36534637129E+03  0.38954212074E+03  0.00000000000E+00 0.  1.
         11    1    5    5    0    0  0.27513207243E+02  0.34919821148E+03 -0.24250118158E+03  0.42603191259E+03  0.00000000000E+00 0. -1.
        -11    1    5    5    0    0 -0.29190973223E+02  0.97249705467E+02 -0.11272448808E+03  0.15171166186E+03  0.00000000000E+00 0.  1.
          4    1    6    6  503    0  0.22965892475E+03 -0.27326669513E+03 -0.55573962366E+03  0.66050317008E+03  0.00000000000E+00 0.  1.
         -4    1    6    6    0  503  0.47617039610E+02 -0.82714247125E+02 -0.24600279106E+03  0.26386815334E+03  0.00000000000E+00 0. -1.
<mgrwt>
<rscale>  0 0.13413933E+04</rscale>
<asrwt>0</asrwt>
<pdfrwt beam="1">  1        1 0.35300808E+00 0.13413933E+04</pdfrwt>
<pdfrwt beam="2">  1       -2 0.30160665E-01 0.13413933E+04</pdfrwt>
<totfact> 0.16433343E+01</totfact>
</mgrwt>
</event>
<event>
12    4  0.4413110E-008  0.2869616E+04  0.7818608E-02  0.8281975E-01
         -2   -1    0    0    0  501 -0.00000000000E+00  0.00000000000E+00  0.10386611644E+04  0.10386611644E+04  0.00000000000E+00 0.  1.
          1   -1    0    0  501    0  0.00000000000E+00 -0.00000000000E+00 -0.19820457212E+04  0.19820457212E+04  0.00000000000E+00 0. -1.
        -24    2    1    2    0    0 -0.58591026014E+02  0.18891861268E+03 -0.17667432596E+04  0.17794838264E+04  0.77831822508E+02 0.  0.
        254    2    1    2    0    0  0.58591026014E+02 -0.18891861268E+03  0.82335870277E+03  0.12412230592E+04  0.90751968499E+03 0.  0.
         23    2    4    4    0    0 -0.81264888547E+02  0.26654277591E+03  0.67110023740E+03  0.73248872919E+03  0.92277712677E+02 0.  0.
         23    2    4    4    0    0  0.13985591456E+03 -0.45546138860E+03  0.15225846537E+03  0.50873432998E+03  0.92861320726E+02 0.  0.
          1    1    3    3  502    0 -0.13069933014E+01  0.13102728881E+03 -0.10653773975E+04  0.10734052626E+04  0.00000000000E+00 0. -1.
         -2    1    3    3    0  502 -0.57284032713E+02  0.57891323873E+02 -0.70136586211E+03  0.70607856384E+03  0.00000000000E+00 0.  1.
         11    1    5    5    0    0  0.63985346430E+01  0.12258814279E+03  0.32817286351E+03  0.35038011122E+03  0.00000000000E+00 0. -1.
        -11    1    5    5    0    0 -0.87663423190E+02  0.14395463312E+03  0.34292737389E+03  0.38210861797E+03  0.00000000000E+00 0.  1.
          2    1    6    6  503    0  0.10577765358E+02 -0.17302143459E+03  0.73509451023E+02  0.18828686979E+03  0.00000000000E+00 0. -1.
         -2    1    6    6    0  503  0.12927814920E+03 -0.28243995401E+03  0.78749014350E+02  0.32044746019E+03  0.00000000000E+00 0.  1.
<mgrwt>
<rscale>  0 0.28696159E+04</rscale>
<asrwt>0</asrwt>
<pdfrwt beam="1">  1        1 0.30493011E+00 0.28696159E+04</pdfrwt>
<pdfrwt beam="2">  1       -2 0.15979403E+00 0.28696159E+04</pdfrwt>
<totfact> 0.58607133E-01</totfact>
</mgrwt>
</event>
<event>
12    4  0.4413110E-008  0.1451458E+04  0.7818608E-02  0.8917390E-01
          1   -1    0    0  501    0  0.00000000000E+00  0.00000000000E+00  0.11919895051E+04  0.11919895051E+04  0.00000000000E+00 0. -1.
         -2   -1    0    0    0  501 -0.00000000000E+00 -0.00000000000E+00 -0.44185164849E+03  0.44185164849E+03  0.00000000000E+00 0.  1.
        -24    2    1    2    0    0 -0.43063392551E+03  0.46154741800E+02  0.29565456393E+03  0.53062827972E+03  0.81110493022E+02 0.  0.
        254    2    1    2    0    0  0.43063392551E+03 -0.46154741800E+02  0.45448329268E+03  0.11032128739E+04  0.90716467290E+03 0.  0.
         23    2    4    4    0    0  0.69071321784E+03 -0.37310236598E+02  0.44499943911E+03  0.82749717190E+03  0.90830972978E+02 0.  0.
         23    2    4    4    0    0 -0.26007929233E+03 -0.88445052025E+01  0.94838535727E+01  0.27571570196E+03  0.90607622535E+02 0.  0.
          3    1    3    3  502    0 -0.32809156098E+03  0.31268742023E+01  0.23823711655E+03  0.40547598379E+03  0.00000000000E+00 0. -1.
         -4    1    3    3    0  502 -0.10254236453E+03  0.43027867598E+02  0.57417447373E+02  0.12515229593E+03  0.00000000000E+00 0.  1.
         11    1    5    5    0    0  0.22721206386E+03 -0.40169393333E+02  0.11009359654E+03  0.25565504518E+03  0.00000000000E+00 0.  1.
        -11    1    5    5    0    0  0.46350115397E+03  0.28591567356E+01  0.33490584256E+03  0.57184212672E+03  0.00000000000E+00 0. -1.
          2    1    6    6  503    0 -0.20857502163E+03  0.29805120819E+02  0.14043152257E+02  0.21116130090E+03  0.00000000000E+00 0.  1.
         -2    1    6    6    0  503 -0.51504270702E+02 -0.38649626021E+02 -0.45592986842E+01  0.64554401063E+02  0.00000000000E+00 0. -1.
<mgrwt>
<rscale>  0 0.14514579E+04</rscale>
<asrwt>0</asrwt>
<pdfrwt beam="1">  1        1 0.18338300E+00 0.14514579E+04</pdfrwt>
<pdfrwt beam="2">  1       -2 0.67977177E-01 0.14514579E+04</pdfrwt>
<totfact> 0.18280506E+01</totfact>
</mgrwt>
</event>
<event>
12    4  0.4413110E-008  0.1094080E+04  0.7818608E-02  0.9210981E-01
          1   -1    0    0  501    0  0.00000000000E+00  0.00000000000E+00  0.11065379085E+04  0.11065379085E+04  0.00000000000E+00 0. -1.
         -2   -1    0    0    0  501 -0.00000000000E+00 -0.00000000000E+00 -0.27044070295E+03  0.27044070295E+03  0.00000000000E+00 0.  1.
        -24    2    1    2    0    0  0.12508696664E+03  0.11111006190E+03  0.12114641435E+03  0.22146631077E+03  0.79866626438E+02 0.  0.
        254    2    1    2    0    0 -0.12508696664E+03 -0.11111006190E+03  0.71495079118E+03  0.11555123007E+04  0.89222298115E+03 0.  0.
         23    2    4    4    0    0  0.42506948640E+01  0.37933904661E+03  0.31404719820E+03  0.50101797903E+03  0.92071667326E+02 0.  0.
         23    2    4    4    0    0 -0.12933766150E+03 -0.49044910851E+03  0.40090359298E+03  0.65449432163E+03  0.10183598312E+03 0.  0.
          1    1    3    3  502    0  0.43863665332E+01 -0.69311939173E+01  0.26883211665E+02  0.28106738158E+02  0.00000000000E+00 0. -1.
         -2    1    3    3    0  502  0.12070060011E+03  0.11804125581E+03  0.94263202681E+02  0.19335957261E+03  0.00000000000E+00 0.  1.
         11    1    5    5    0    0  0.24393881158E+01  0.38371484621E+03  0.30277083614E+03  0.48878749272E+03  0.00000000000E+00 0.  1.
        -11    1    5    5    0    0  0.18113067482E+01 -0.43757995994E+01  0.11276362055E+02  0.12230486314E+02  0.00000000000E+00 0. -1.
          4    1    6    6  503    0 -0.29454665783E+02 -0.13092851436E+03  0.16645455374E+03  0.21381527464E+03  0.00000000000E+00 0. -1.
         -4    1    6    6    0  503 -0.99882995719E+02 -0.35952059415E+03  0.23444903924E+03  0.44067904699E+03  0.00000000000E+00 0.  1.
<mgrwt>
<rscale>  0 0.10940802E+04</rscale>
<asrwt>0</asrwt>
<pdfrwt beam="1">  1        1 0.17023660E+00 0.10940802E+04</pdfrwt>
<pdfrwt beam="2">  1       -2 0.41606263E-01 0.10940802E+04</pdfrwt>
<totfact> 0.59954517E+01</totfact>
</mgrwt>
</event>
<event>
12    4  0.4413110E-008  0.1391533E+04  0.7818608E-02  0.8959970E-01
         -2   -1    0    0    0  501 -0.00000000000E+00  0.00000000000E+00  0.52578005365E+03  0.52578005365E+03  0.00000000000E+00 0.  1.
          1   -1    0    0  501    0  0.00000000000E+00 -0.00000000000E+00 -0.92070990338E+03  0.92070990338E+03  0.00000000000E+00 0. -1.
        -24    2    1    2    0    0 -0.58359350100E+02 -0.23290839795E+03 -0.44864886684E+03  0.51496616401E+03  0.79070909832E+02 0.  0.
        254    2    1    2    0    0  0.58359350100E+02  0.23290839795E+03  0.53719017110E+02  0.93152379303E+03  0.89844237912E+03 0.  0.
         23    2    4    4    0    0 -0.10634850399E+03  0.51658249088E+03  0.18628265712E+03  0.56668991794E+03  0.90932725509E+02 0.  0.
         23    2    4    4    0    0  0.16470785409E+03 -0.28367409293E+03 -0.13256364001E+03  0.36483387508E+03  0.89055991114E+02 0.  0.
          3    1    3    3  502    0 -0.55781215566E+02 -0.22670310387E+03 -0.37999577735E+03  0.44598501333E+03  0.00000000000E+00 0. -1.
         -4    1    3    3    0  502 -0.25781345343E+01 -0.62052940755E+01 -0.68653089489E+02  0.68981150676E+02  0.00000000000E+00 0.  1.
         11    1    5    5    0    0 -0.34190633840E+02  0.34645585599E+03  0.14622839843E+03  0.37760217703E+03  0.00000000000E+00 0. -1.
        -11    1    5    5    0    0 -0.72157870149E+02  0.17012663489E+03  0.40054258698E+02  0.18908774091E+03  0.00000000000E+00 0.  1.
          4    1    6    6  503    0  0.62834187015E+02 -0.10378654108E+03 -0.96406727605E+02  0.15496463563E+03  0.00000000000E+00 0. -1.
         -4    1    6    6    0  503  0.10187366707E+03 -0.17988755185E+03 -0.36156912408E+02  0.20986923945E+03  0.00000000000E+00 0.  1.
<mgrwt>
<rscale>  0 0.13915328E+04</rscale>
<asrwt>0</asrwt>
<pdfrwt beam="1">  1        1 0.14164768E+00 0.13915328E+04</pdfrwt>
<pdfrwt beam="2">  1       -2 0.80889240E-01 0.13915328E+04</pdfrwt>
<totfact> 0.20181066E+01</totfact>
</mgrwt>
</event>
<event>
12    4  0.4413110E-008  0.1557603E+04  0.7818608E-02  0.8847026E-01
         -2   -1    0    0    0  501 -0.00000000000E+00  0.00000000000E+00  0.80333786272E+03  0.80333786272E+03  0.00000000000E+00 0.  1.
          1   -1    0    0  501    0  0.00000000000E+00 -0.00000000000E+00 -0.75501420127E+03  0.75501420127E+03  0.00000000000E+00 0. -1.
        -24    2    1    2    0    0 -0.36691162521E+03 -0.61252727345E+02 -0.33153292060E+03  0.50446135575E+03  0.78683827282E+02 0.  0.
        254    2    1    2    0    0  0.36691162521E+03  0.61252727345E+02  0.37985658205E+03  0.10538907082E+04  0.90995525421E+03 0.  0.
         23    2    4    4    0    0 -0.38132339741E+02  0.28961946400E+02  0.58217123736E+03  0.59081245443E+03  0.88561487312E+02 0.  0.
         23    2    4    4    0    0  0.40504396495E+03  0.32290780945E+02 -0.20231465530E+03  0.46307825381E+03  0.91689374093E+02 0.  0.
          1    1    3    3  502    0 -0.17521300519E+03 -0.47925354765E+02 -0.11516091407E+03  0.21507782997E+03  0.00000000000E+00 0. -1.
         -2    1    3    3    0  502 -0.19169862003E+03 -0.13327372580E+02 -0.21637200653E+03  0.28938352577E+03  0.00000000000E+00 0.  1.
         11    1    5    5    0    0  0.12815578313E+02  0.18814858477E+02  0.38963731269E+02  0.45126603034E+02  0.00000000000E+00 0.  1.
        -11    1    5    5    0    0 -0.50947918053E+02  0.10147087923E+02  0.54320750609E+03  0.54568585140E+03  0.00000000000E+00 0. -1.
          3    1    6    6  503    0  0.33462739209E+03  0.55305156728E+02 -0.14259739583E+03  0.36792413511E+03  0.00000000000E+00 0. -1.
         -3    1    6    6    0  503  0.70416572860E+02 -0.23014375783E+02 -0.59717259477E+02  0.95154118699E+02  0.00000000000E+00 0.  1.
<mgrwt>
<rscale>  0 0.15576026E+04</rscale>
<asrwt>0</asrwt>
<pdfrwt beam="1">  1        1 0.11615603E+00 0.15576026E+04</pdfrwt>
<pdfrwt beam="2">  1       -2 0.12359044E+00 0.15576026E+04</pdfrwt>
<totfact> 0.10081298E+01</totfact>
</mgrwt>
</event>
<event>
12    4  0.4413110E-008  0.1872975E+04  0.7818608E-02  0.8668427E-01
          1   -1    0    0  501    0  0.00000000000E+00  0.00000000000E+00  0.27779264794E+04  0.27779264794E+04  0.00000000000E+00 0. -1.
         -2   -1    0    0    0  501 -0.00000000000E+00 -0.00000000000E+00 -0.31570627972E+03  0.31570627972E+03  0.00000000000E+00 0.  1.
        -24    2    1    2    0    0 -0.17266511730E+03 -0.18124811662E+03  0.20431024606E+04  0.20599488471E+04  0.80358357463E+02 0.  0.
        254    2    1    2    0    0  0.17266511730E+03  0.18124811662E+03  0.41911773908E+03  0.10336839120E+04  0.91114138764E+03 0.  0.
         23    2    4    4    0    0 -0.16395081056E+03  0.88922838757E+02 -0.21986187418E+03  0.30000264596E+03  0.82916851902E+02 0.  0.
         23    2    4    4    0    0  0.33661592786E+03  0.92325277863E+02  0.63897961326E+03  0.73368126608E+03  0.90327261709E+02 0.  0.
          1    1    3    3  502    0 -0.16765497675E+03 -0.16449054756E+03  0.19947530134E+04  0.20085330259E+04  0.00000000000E+00 0. -1.
         -2    1    3    3    0  502 -0.50101405472E+01 -0.16757569062E+02  0.48349447174E+02  0.51415821215E+02  0.00000000000E+00 0.  1.
         11    1    5    5    0    0 -0.15749597699E+03  0.65058579882E+02 -0.21577052170E+03  0.27494457554E+03  0.00000000000E+00 0.  1.
        -11    1    5    5    0    0 -0.64548335682E+01  0.23864258875E+02 -0.40913524809E+01  0.25058070420E+02  0.00000000000E+00 0. -1.
          4    1    6    6  503    0  0.63484382582E+02 -0.17128372003E+02  0.10172704088E+03  0.12112819162E+03  0.00000000000E+00 0. -1.
         -4    1    6    6    0  503  0.27313154527E+03  0.10945364987E+03  0.53725257239E+03  0.61255307446E+03  0.00000000000E+00 0.  1.
<mgrwt>
<rscale>  0 0.18729750E+04</rscale>
<asrwt>0</asrwt>
<pdfrwt beam="1">  1        1 0.42737329E+00 0.18729750E+04</pdfrwt>
<pdfrwt beam="2">  1       -2 0.48570199E-01 0.18729750E+04</pdfrwt>
<totfact> 0.28625818E+00</totfact>
</mgrwt>
</event>
<event>
12    4  0.4413110E-008  0.2073157E+04  0.7818608E-02  0.8573161E-01
         -2   -1    0    0    0  501 -0.00000000000E+00  0.00000000000E+00  0.51484961709E+03  0.51484961709E+03  0.00000000000E+00 0.  1.
          1   -1    0    0  501    0  0.00000000000E+00 -0.00000000000E+00 -0.20870079257E+04  0.20870079257E+04  0.00000000000E+00 0. -1.
        -24    2    1    2    0    0  0.13323275798E+03  0.68165722542E+03 -0.51132272298E+02  0.70105611132E+03  0.80359325414E+02 0.  0.
        254    2    1    2    0    0 -0.13323275798E+03 -0.68165722542E+03 -0.15210260364E+04  0.19008014315E+04  0.90394598180E+03 0.  0.
         23    2    4    4    0    0 -0.30803964590E+03 -0.74135485904E+03 -0.14866902174E+04  0.16923416492E+04  0.96317207523E+02 0.  0.
         23    2    4    4    0    0  0.17480688792E+03  0.59697633624E+02 -0.34335818951E+02  0.20845978236E+03  0.90306571586E+02 0.  0.
          1    1    3    3  502    0  0.18572846362E+02  0.17453221719E+03  0.18493402095E+02  0.17648923871E+03  0.00000000000E+00 0. -1.
         -4    1    3    3    0  502  0.11465991161E+03  0.50712500823E+03 -0.69625674393E+02  0.52456687261E+03  0.00000000000E+00 0.  1.
         11    1    5    5    0    0 -0.30325339451E+03 -0.67856706121E+03 -0.13321298397E+04  0.15254460946E+04  0.00000000000E+00 0.  1.
        -11    1    5    5    0    0 -0.47862513860E+01 -0.62787797835E+02 -0.15456037773E+03  0.16689555454E+03  0.00000000000E+00 0. -1.
          1    1    6    6  503    0  0.12235642882E+02  0.13718639151E+02 -0.34973730821E+02  0.39510427287E+02  0.00000000000E+00 0. -1.
         -1    1    6    6    0  503  0.16257124504E+03  0.45978994472E+02  0.63791186974E+00  0.16894935507E+03  0.00000000000E+00 0.  1.
<mgrwt>
<rscale>  0 0.20731572E+04</rscale>
<asrwt>0</asrwt>
<pdfrwt beam="1">  1        1 0.32107814E+00 0.20731572E+04</pdfrwt>
<pdfrwt beam="2">  1       -2 0.79207634E-01 0.20731572E+04</pdfrwt>
<totfact> 0.29767357E+00</totfact>
</mgrwt>
</event>
<event>
12    4  0.4413110E-008  0.1974398E+04  0.7818608E-02  0.8618685E-01
         -2   -1    0    0    0  501 -0.00000000000E+00  0.00000000000E+00  0.40644121328E+03  0.40644121328E+03  0.00000000000E+00 0.  1.
          1   -1    0    0  501    0  0.00000000000E+00 -0.00000000000E+00 -0.23977934343E+04  0.23977934343E+04  0.00000000000E+00 0. -1.
        -24    2    1    2    0    0  0.20140408389E+01 -0.48056362562E+03  0.89164288053E+02  0.49563496806E+03  0.82208860014E+02 0.  0.
        254    2    1    2    0    0 -0.20140408389E+01  0.48056362562E+03 -0.20805165091E+04  0.23085996795E+04  0.87757511426E+03 0.  0.
         23    2    4    4    0    0 -0.30081666941E+02  0.48838654996E+03 -0.43673823086E+03  0.66196476683E+03  0.89614403719E+02 0.  0.
         23    2    4    4    0    0  0.28067626102E+02 -0.78229243433E+01 -0.16437782782E+04  0.16466349127E+04  0.92469011178E+02 0.  0.
          1    1    3    3  502    0 -0.16824656922E+02 -0.16527857317E+03 -0.44952681281E+01  0.16619351150E+03  0.00000000000E+00 0. -1.
         -2    1    3    3    0  502  0.18838697761E+02 -0.31528505245E+03  0.93659556181E+02  0.32944145655E+03  0.00000000000E+00 0.  1.
         11    1    5    5    0    0 -0.59188783322E+01  0.97028832405E+02 -0.13905451614E+03  0.16966374361E+03  0.00000000000E+00 0.  1.
        -11    1    5    5    0    0 -0.24162788609E+02  0.39135771756E+03 -0.29768371472E+03  0.49230102322E+03  0.00000000000E+00 0. -1.
          4    1    6    6  503    0 -0.28239025755E+02 -0.16356866682E+02 -0.32667519244E+03  0.32830118949E+03  0.00000000000E+00 0.  1.
         -4    1    6    6    0  503  0.56306651857E+02  0.85339423387E+01 -0.13171030858E+04  0.13183337232E+04  0.00000000000E+00 0. -1.
<mgrwt>
<rscale>  0 0.19743982E+04</rscale>
<asrwt>0</asrwt>
<pdfrwt beam="1">  1        1 0.36889130E+00 0.19743982E+04</pdfrwt>
<pdfrwt beam="2">  1       -2 0.62529416E-01 0.19743982E+04</pdfrwt>
<totfact> 0.30897508E+00</totfact>
</mgrwt>
</event>
<event>
12    4  0.4413110E-008  0.4709486E+04  0.7818608E-02  0.7874954E-01
         -2   -1    0    0    0  501 -0.00000000000E+00  0.00000000000E+00  0.17257157225E+04  0.17257157225E+04  0.00000000000E+00 0.  1.
          1   -1    0    0  501    0  0.00000000000E+00 -0.00000000000E+00 -0.32130520325E+04  0.32130520325E+04  0.00000000000E+00 0. -1.
        -24    2    1    2    0    0 -0.13594860452E+03  0.44419818629E+03 -0.30460102483E+04  0.30822961720E+04  0.81099984369E+02 0.  0.
        254    2    1    2    0    0  0.13594860452E+03 -0.44419818629E+03  0.15586739383E+04  0.18564715831E+04  0.89511353530E+03 0.  0.
         23    2    4    4    0    0 -0.35781433549E+03 -0.32649981821E+03  0.75098698293E+03  0.89815232758E+03  0.89793791781E+02 0.  0.
         23    2    4    4    0    0  0.49376294000E+03 -0.11769836808E+03  0.80768695536E+03  0.95831925549E+03  0.91448514563E+02 0.  0.
          1    1    3    3  502    0 -0.14482771250E+03  0.42417862475E+03 -0.29471383197E+04  0.29810278173E+04  0.00000000000E+00 0. -1.
         -2    1    3    3    0  502  0.88791079861E+01  0.20019561543E+02 -0.98871928611E+02  0.10126835473E+03  0.00000000000E+00 0.  1.
         11    1    5    5    0    0 -0.78780962435E+02 -0.34413974882E+02  0.17049539855E+03  0.19094355878E+03  0.00000000000E+00 0.  1.
        -11    1    5    5    0    0 -0.27903337305E+03 -0.29208584332E+03  0.58049158438E+03  0.70720876881E+03  0.00000000000E+00 0. -1.
          1    1    6    6  503    0  0.47648086889E+03 -0.13072156608E+03  0.77128040845E+03  0.91596703800E+03  0.00000000000E+00 0. -1.
         -1    1    6    6    0  503  0.17282071110E+02  0.13023197992E+02  0.36406546913E+02  0.42352217485E+02  0.00000000000E+00 0.  1.
<mgrwt>
<rscale>  0 0.47094859E+04</rscale>
<asrwt>0</asrwt>
<pdfrwt beam="1">  1        1 0.49431568E+00 0.47094859E+04</pdfrwt>
<pdfrwt beam="2">  1       -2 0.26549473E+00 0.47094859E+04</pdfrwt>
<totfact> 0.13950602E-02</totfact>
</mgrwt>
</event>
<event>
12    4  0.4413110E-008  0.1094323E+04  0.7818608E-02  0.9210743E-01
         -2   -1    0    0    0  501 -0.00000000000E+00  0.00000000000E+00  0.30048060807E+03  0.30048060807E+03  0.00000000000E+00 0.  1.
          1   -1    0    0  501    0  0.00000000000E+00 -0.00000000000E+00 -0.99635638531E+03  0.99635638531E+03  0.00000000000E+00 0. -1.
        -24    2    1    2    0    0 -0.10981936057E+03 -0.61179395270E+02 -0.22987459216E+03  0.27446061045E+03  0.81750157209E+02 0.  0.
        254    2    1    2    0    0  0.10981936057E+03  0.61179395270E+02 -0.46600118508E+03  0.10223763829E+04  0.90127307378E+03 0.  0.
         23    2    4    4    0    0 -0.32960035470E+02  0.87201778721E+02 -0.71201058293E+03  0.72383627868E+03  0.91045999209E+02 0.  0.
         23    2    4    4    0    0  0.14277939604E+03 -0.26022383451E+02  0.24600939785E+03  0.29854010426E+03  0.86847277716E+02 0.  0.
          1    1    3    3  502    0 -0.83993051777E+02 -0.68287874107E+02 -0.22126286886E+03  0.24632361566E+03  0.00000000000E+00 0. -1.
         -2    1    3    3    0  502 -0.25826308794E+02  0.71084788374E+01 -0.86117233022E+01  0.28136994785E+02  0.00000000000E+00 0.  1.
         11    1    5    5    0    0  0.16716909132E+02  0.38485701413E+02 -0.10854294938E+03  0.11637085599E+03  0.00000000000E+00 0.  1.
        -11    1    5    5    0    0 -0.49676944602E+02  0.48716077307E+02 -0.60346763355E+03  0.60746542268E+03  0.00000000000E+00 0. -1.
          3    1    6    6  503    0  0.15189691617E+03 -0.15287391683E+02  0.23668452115E+03  0.28164861093E+03  0.00000000000E+00 0. -1.
         -3    1    6    6    0  503 -0.91175201258E+01 -0.10734991768E+02  0.93248766982E+01  0.16891493331E+02  0.00000000000E+00 0.  1.
<mgrwt>
<rscale>  0 0.10943231E+04</rscale>
<asrwt>0</asrwt>
<pdfrwt beam="1">  1        1 0.15328560E+00 0.10943231E+04</pdfrwt>
<pdfrwt beam="2">  1       -2 0.46227785E-01 0.10943231E+04</pdfrwt>
<totfact> 0.59041386E+01</totfact>
</mgrwt>
</event>
<event>
12    4  0.4413110E-008  0.1109472E+04  0.7818608E-02  0.9196008E-01
         -2   -1    0    0    0  501 -0.00000000000E+00  0.00000000000E+00  0.83582535920E+02  0.83582535920E+02  0.00000000000E+00 0.  1.
          1   -1    0    0  501    0  0.00000000000E+00 -0.00000000000E+00 -0.36817764678E+04  0.36817764678E+04  0.00000000000E+00 0. -1.
        -24    2    1    2    0    0  0.14061440424E+03  0.78162567909E+02 -0.15237960241E+04  0.15343717843E+04  0.80378180470E+02 0.  0.
        254    2    1    2    0    0 -0.14061440424E+03 -0.78162567909E+02 -0.20743979078E+04  0.22309872194E+04  0.80516799205E+03 0.  0.
         23    2    4    4    0    0 -0.15315132398E+03 -0.37905401396E+03 -0.65708894558E+03  0.77912421227E+03  0.90174177058E+02 0.  0.
         23    2    4    4    0    0  0.12536919738E+02  0.30089144605E+03 -0.14173089623E+04  0.14518630071E+04  0.91916594462E+02 0.  0.
          1    1    3    3  502    0  0.13499518678E+03  0.80031281383E+02 -0.15179826736E+04  0.15260734268E+04  0.00000000000E+00 0. -1.
         -2    1    3    3    0  502  0.56192174661E+01 -0.18687134739E+01 -0.58133504409E+01  0.82983575681E+01  0.00000000000E+00 0.  1.
         11    1    5    5    0    0 -0.85292087294E+02 -0.10232042662E+03 -0.22756171380E+03  0.26368265671E+03  0.00000000000E+00 0.  1.
        -11    1    5    5    0    0 -0.67859236686E+02 -0.27673358734E+03 -0.42952723178E+03  0.51544155556E+03  0.00000000000E+00 0. -1.
          1    1    6    6  503    0 -0.59394466302E+01  0.20837811112E+03 -0.77017358783E+03  0.79788725370E+03  0.00000000000E+00 0. -1.
         -1    1    6    6    0  503  0.18476366368E+02  0.92513334931E+02 -0.64713537442E+03  0.65397575344E+03  0.00000000000E+00 0.  1.
<mgrwt>
<rscale>  0 0.11094723E+04</rscale>
<asrwt>0</asrwt>
<pdfrwt beam="1">  1        1 0.56642722E+00 0.11094723E+04</pdfrwt>
<pdfrwt beam="2">  1       -2 0.12858850E-01 0.11094723E+04</pdfrwt>
<totfact> 0.73345681E+00</totfact>
</mgrwt>
</event>
<event>
12    4  0.4413110E-008  0.1737464E+04  0.7818608E-02  0.8740281E-01
         -2   -1    0    0    0  501 -0.00000000000E+00  0.00000000000E+00  0.47981764198E+03  0.47981764198E+03  0.00000000000E+00 0.  1.
          1   -1    0    0  501    0  0.00000000000E+00 -0.00000000000E+00 -0.15728794080E+04  0.15728794080E+04  0.00000000000E+00 0. -1.
        -24    2    1    2    0    0 -0.88811446883E+02 -0.49166127780E+03  0.50902983503E+02  0.51145525303E+03  0.96835308296E+02 0.  0.
        254    2    1    2    0    0  0.88811446883E+02  0.49166127780E+03 -0.11439647495E+04  0.15412417970E+04  0.90396495693E+03 0.  0.
         23    2    4    4    0    0 -0.26334905459E+03 -0.12896679305E+03 -0.26823478921E+03  0.40735384582E+03  0.89454431384E+02 0.  0.
         23    2    4    4    0    0  0.35216050147E+03  0.62062807085E+03 -0.87572996031E+03  0.11338879511E+04  0.97993373454E+02 0.  0.
          1    1    3    3  502    0 -0.15118025527E+01 -0.56879414632E+02  0.36816806138E+02  0.67771901036E+02  0.00000000000E+00 0. -1.
         -2    1    3    3    0  502 -0.87299644330E+02 -0.43478186317E+03  0.14086177365E+02  0.44368335199E+03  0.00000000000E+00 0.  1.
         11    1    5    5    0    0 -0.84997188199E+02 -0.83773960273E+02 -0.77255240463E+02  0.14216529323E+03  0.00000000000E+00 0. -1.
        -11    1    5    5    0    0 -0.17835186639E+03 -0.45192832777E+02 -0.19097954875E+03  0.26518855258E+03  0.00000000000E+00 0.  1.
          1    1    6    6  503    0  0.31547317733E+01  0.47648712223E+02 -0.40831151066E+02  0.62829411953E+02  0.00000000000E+00 0. -1.
         -1    1    6    6    0  503  0.34900576970E+03  0.57297935863E+03 -0.83489880924E+03  0.10710585392E+04  0.00000000000E+00 0.  1.
<mgrwt>
<rscale>  0 0.17374640E+04</rscale>
<asrwt>0</asrwt>
<pdfrwt beam="1">  1        1 0.24198144E+00 0.17374640E+04</pdfrwt>
<pdfrwt beam="2">  1       -2 0.73818100E-01 0.17374640E+04</pdfrwt>
<totfact> 0.80211798E+00</totfact>
</mgrwt>
</event>
<event>
12    4  0.4413110E-008  0.1259317E+04  0.7818608E-02  0.9062464E-01
         -2   -1    0    0    0  501 -0.00000000000E+00  0.00000000000E+00  0.28276931420E+03  0.28276931420E+03  0.00000000000E+00 0.  1.
          1   -1    0    0  501    0  0.00000000000E+00 -0.00000000000E+00 -0.14020956737E+04  0.14020956737E+04  0.00000000000E+00 0. -1.
        -24    2    1    2    0    0 -0.68365525699E+02 -0.28507697645E+03 -0.38183327238E+03  0.48780674647E+03  0.78841907622E+02 0.  0.
        254    2    1    2    0    0  0.68365525699E+02  0.28507697645E+03 -0.73749308713E+03  0.11970582414E+04  0.89616385345E+03 0.  0.
         23    2    4    4    0    0  0.36137668924E+03 -0.41838098830E+02 -0.63427281729E+03  0.73692176720E+03  0.91695944184E+02 0.  0.
         23    2    4    4    0    0 -0.29301116354E+03  0.32691507528E+03 -0.10322026985E+03  0.46013647424E+03  0.91335329508E+02 0.  0.
          1    1    3    3  502    0 -0.11685865537E+02 -0.44580313856E+02 -0.21398635579E+02  0.50812060000E+02  0.00000000000E+00 0. -1.
         -2    1    3    3    0  502 -0.56679660161E+02 -0.24049666259E+03 -0.36043463680E+03  0.43699468647E+03  0.00000000000E+00 0.  1.
         11    1    5    5    0    0  0.32742286253E+03 -0.63424125448E+02 -0.58411449678E+03  0.67262032080E+03  0.00000000000E+00 0. -1.
        -11    1    5    5    0    0  0.33953826713E+02  0.21586026618E+02 -0.50158320504E+02  0.64301446402E+02  0.00000000000E+00 0.  1.
          4    1    6    6  503    0 -0.27268360203E+03  0.32635401492E+03 -0.10894087025E+03  0.43901184846E+03  0.00000000000E+00 0. -1.
         -4    1    6    6    0  503 -0.20327561507E+02  0.56106035211E+00  0.57206004004E+01  0.21124625784E+02  0.00000000000E+00 0.  1.
<mgrwt>
<rscale>  0 0.12593167E+04</rscale>
<asrwt>0</asrwt>
<pdfrwt beam="1">  1        1 0.21570703E+00 0.12593167E+04</pdfrwt>
<pdfrwt beam="2">  1       -2 0.43502970E-01 0.12593167E+04</pdfrwt>
<totfact> 0.33164712E+01</totfact>
</mgrwt>
</event>
<event>
12    4  0.4413110E-008  0.1601371E+04  0.7818608E-02  0.8819706E-01
          1   -1    0    0  501    0  0.00000000000E+00  0.00000000000E+00  0.11334624427E+04  0.11334624427E+04  0.00000000000E+00 0. -1.
         -2   -1    0    0    0  501 -0.00000000000E+00 -0.00000000000E+00 -0.56560997603E+03  0.56560997603E+03  0.00000000000E+00 0.  1.
        -24    2    1    2    0    0  0.45787930356E+03 -0.13082964004E+03  0.47651761330E+03  0.67888286343E+03  0.83922911874E+02 0.  0.
        254    2    1    2    0    0 -0.45787930356E+03  0.13082964004E+03  0.91334853338E+02  0.10201895553E+04  0.89759390700E+03 0.  0.
         23    2    4    4    0    0 -0.51233263099E+03  0.10244885029E+03  0.41728992622E+03  0.67498304360E+03  0.92145183923E+02 0.  0.
         23    2    4    4    0    0  0.54453327430E+02  0.28380789743E+02 -0.32595507288E+03  0.34520651166E+03  0.95656636240E+02 0.  0.
          1    1    3    3  502    0  0.39817205977E+03 -0.82277000008E+02  0.40005114589E+03  0.57039583908E+03  0.00000000000E+00 0. -1.
         -2    1    3    3    0  502  0.59707243785E+02 -0.48552640028E+02  0.76466467409E+02  0.10848702435E+03  0.00000000000E+00 0.  1.
         11    1    5    5    0    0 -0.29782594486E+03  0.31781916299E+02  0.28390023700E+03  0.41268599225E+03  0.00000000000E+00 0.  1.
        -11    1    5    5    0    0 -0.21450668613E+03  0.70666933995E+02  0.13338968923E+03  0.26229705135E+03  0.00000000000E+00 0. -1.
          3    1    6    6  503    0  0.23155612705E+02 -0.10578013607E+02 -0.13567618717E+02  0.28847132427E+02  0.00000000000E+00 0. -1.
         -3    1    6    6    0  503  0.31297714725E+02  0.38958803349E+02 -0.31238745417E+03  0.31635937923E+03  0.00000000000E+00 0.  1.
<mgrwt>
<rscale>  0 0.16013715E+04</rscale>
<asrwt>0</asrwt>
<pdfrwt beam="1">  1        1 0.17437884E+00 0.16013715E+04</pdfrwt>
<pdfrwt beam="2">  1       -2 0.87016920E-01 0.16013715E+04</pdfrwt>
<totfact> 0.11498682E+01</totfact>
</mgrwt>
</event>
<event>
12    4  0.4413110E-008  0.2036268E+04  0.7818608E-02  0.8589849E-01
         -2   -1    0    0    0  501 -0.00000000000E+00  0.00000000000E+00  0.14850501074E+04  0.14850501074E+04  0.00000000000E+00 0.  1.
          1   -1    0    0  501    0  0.00000000000E+00 -0.00000000000E+00 -0.69802170076E+03  0.69802170076E+03  0.00000000000E+00 0. -1.
        -24    2    1    2    0    0  0.16365922872E+03 -0.70437731383E+03  0.69745753092E+03  0.10078039456E+04  0.79309783990E+02 0.  0.
        254    2    1    2    0    0 -0.16365922872E+03  0.70437731383E+03  0.89570875762E+02  0.11752678627E+04  0.92211705537E+03 0.  0.
         23    2    4    4    0    0 -0.19992783410E+03  0.90199065767E+03  0.16357172790E+03  0.94281927414E+03  0.92704844255E+02 0.  0.
         23    2    4    4    0    0  0.36268605372E+02 -0.19761334383E+03 -0.74000852134E+02  0.23244858851E+03  0.90497374488E+02 0.  0.
          1    1    3    3  502    0  0.67529211814E+02 -0.35655305440E+03  0.40059615294E+03  0.54052525640E+03  0.00000000000E+00 0. -1.
         -2    1    3    3    0  502  0.96130016909E+02 -0.34782425943E+03  0.29686137798E+03  0.46727868916E+03  0.00000000000E+00 0.  1.
         11    1    5    5    0    0 -0.15014236554E+02  0.25884890467E+03  0.41712352367E+02  0.26261778898E+03  0.00000000000E+00 0.  1.
        -11    1    5    5    0    0 -0.18491359754E+03  0.64314175299E+03  0.12185937553E+03  0.68020148515E+03  0.00000000000E+00 0. -1.
          3    1    6    6  503    0  0.51864734043E+02 -0.18346192361E+03 -0.84939842036E+02  0.20871752398E+03  0.00000000000E+00 0. -1.
         -3    1    6    6    0  503 -0.15596128671E+02 -0.14151420227E+02  0.10938989902E+02  0.23731064536E+02  0.00000000000E+00 0.  1.
<mgrwt>
<rscale>  0 0.20362684E+04</rscale>
<asrwt>0</asrwt>
<pdfrwt beam="1">  1        1 0.10738795E+00 0.20362684E+04</pdfrwt>
<pdfrwt beam="2">  1       -2 0.22846925E+00 0.20362684E+04</pdfrwt>
<totfact> 0.19365982E+00</totfact>
</mgrwt>
</event>
<event>
12    4  0.4413110E-008  0.1703501E+04  0.7818608E-02  0.8759370E-01
         -4   -1    0    0    0  501 -0.00000000000E+00  0.00000000000E+00  0.50184831479E+03  0.50184831479E+03  0.00000000000E+00 0.  1.
          1   -1    0    0  501    0  0.00000000000E+00 -0.00000000000E+00 -0.14456146879E+04  0.14456146879E+04  0.00000000000E+00 0. -1.
        -24    2    1    2    0    0 -0.81342593775E+02  0.59657532807E+03 -0.27208840572E+03  0.66506614375E+03  0.75908730747E+02 0.  0.
        254    2    1    2    0    0  0.81342593775E+02 -0.59657532807E+03 -0.67167796744E+03  0.12823968590E+04  0.91152162475E+03 0.  0.
         23    2    4    4    0    0  0.11945554189E+03 -0.17362204316E+03  0.20220444781E+03  0.30645899420E+03  0.92823682621E+02 0.  0.
         23    2    4    4    0    0 -0.38112948112E+02 -0.42295328492E+03 -0.87388241525E+03  0.97593786479E+03  0.91881239710E+02 0.  0.
          1    1    3    3  502    0 -0.87173744271E+02  0.59191701601E+03 -0.26369635575E+03  0.65383544074E+03  0.00000000000E+00 0. -1.
         -2    1    3    3    0  502  0.58311504958E+01  0.46583120670E+01 -0.83920499678E+01  0.11230703009E+02  0.00000000000E+00 0.  1.
         11    1    5    5    0    0  0.23335152916E+02 -0.96381937305E+02  0.13020580093E+03  0.16366904960E+03  0.00000000000E+00 0.  1.
        -11    1    5    5    0    0  0.96120388971E+02 -0.77240105851E+02  0.71998646888E+02  0.14278994461E+03  0.00000000000E+00 0. -1.
          3    1    6    6  503    0 -0.62847077975E+02 -0.18856260009E+03 -0.40646709676E+03  0.45246116972E+03  0.00000000000E+00 0. -1.
         -3    1    6    6    0  503  0.24734129863E+02 -0.23439068483E+03 -0.46741531849E+03  0.52347669507E+03  0.00000000000E+00 0.  1.
<mgrwt>
<rscale>  0 0.17035014E+04</rscale>
<asrwt>0</asrwt>
<pdfrwt beam="1">  1        1 0.22240225E+00 0.17035014E+04</pdfrwt>
<pdfrwt beam="2">  1       -4 0.77207435E-01 0.17035014E+04</pdfrwt>
<totfact> 0.50031447E+00</totfact>
</mgrwt>
</event>
<event>
12    4  0.4413110E-008  0.1489168E+04  0.7818608E-02  0.8891688E-01
         -2   -1    0    0    0  501 -0.00000000000E+00  0.00000000000E+00  0.62012863949E+03  0.62012863949E+03  0.00000000000E+00 0.  1.
          1   -1    0    0  501    0  0.00000000000E+00 -0.00000000000E+00 -0.89401670683E+03  0.89401670683E+03  0.00000000000E+00 0. -1.
        -24    2    1    2    0    0  0.19874273707E+03  0.38782681347E+03  0.10336448243E+02  0.44559873297E+03  0.92428761091E+02 0.  0.
        254    2    1    2    0    0 -0.19874273707E+03 -0.38782681347E+03 -0.28422451559E+03  0.10685466134E+04  0.93332736854E+03 0.  0.
         23    2    4    4    0    0  0.22247871817E+03  0.10072858534E+03 -0.32394854261E+03  0.41575697614E+03  0.90929516699E+02 0.  0.
         23    2    4    4    0    0 -0.42122145524E+03 -0.48855539880E+03  0.39724027027E+02  0.65278963721E+03  0.91882642958E+02 0.  0.
          3    1    3    3  502    0 -0.51246978129E+01  0.44208861974E+02 -0.97120368556E+01  0.45552273979E+02  0.00000000000E+00 0. -1.
         -4    1    3    3    0  502  0.20386743489E+03  0.34361795149E+03  0.20048485099E+02  0.40004645899E+03  0.00000000000E+00 0.  1.
         11    1    5    5    0    0  0.19453768881E+03  0.92324853074E+02 -0.32085605400E+03  0.38641609471E+03  0.00000000000E+00 0. -1.
        -11    1    5    5    0    0  0.27941029351E+02  0.84037322617E+01 -0.30924886138E+01  0.29340881427E+02  0.00000000000E+00 0.  1.
          2    1    6    6  503    0 -0.98055583124E+02 -0.15922031047E+03  0.40746906892E+02  0.19138002788E+03  0.00000000000E+00 0.  1.
         -2    1    6    6    0  503 -0.32316587211E+03 -0.32933508833E+03 -0.10228798649E+01  0.46140960934E+03  0.00000000000E+00 0. -1.
<mgrwt>
<rscale>  0 0.14891680E+04</rscale>
<asrwt>0</asrwt>
<pdfrwt beam="1">  1        1 0.13754103E+00 0.14891680E+04</pdfrwt>
<pdfrwt beam="2">  1       -2 0.95404407E-01 0.14891680E+04</pdfrwt>
<totfact> 0.14410559E+01</totfact>
</mgrwt>
</event>
<event>
12    4  0.4413110E-008  0.2128986E+04  0.7818608E-02  0.8548581E-01
         -2   -1    0    0    0  501 -0.00000000000E+00  0.00000000000E+00  0.50352325868E+03  0.50352325868E+03  0.00000000000E+00 0.  1.
          1   -1    0    0  501    0  0.00000000000E+00 -0.00000000000E+00 -0.22504339405E+04  0.22504339405E+04  0.00000000000E+00 0. -1.
        -24    2    1    2    0    0  0.75581577928E+03 -0.19523007239E+03 -0.12182175546E+04  0.14498075539E+04  0.92280331302E+02 0.  0.
        254    2    1    2    0    0 -0.75581577928E+03  0.19523007239E+03 -0.52869312716E+03  0.13041496453E+04  0.90106470421E+03 0.  0.
         23    2    4    4    0    0 -0.79366166984E+03 -0.11566335371E+03 -0.55035986978E+03  0.97698883111E+03  0.91292564139E+02 0.  0.
         23    2    4    4    0    0  0.37845890567E+02  0.31089342610E+03  0.21666742624E+02  0.32716081416E+03  0.92074517437E+02 0.  0.
          3    1    3    3  502    0  0.59934627144E+03 -0.15707782667E+03 -0.10309765467E+04  0.12028308429E+04  0.00000000000E+00 0. -1.
         -4    1    3    3    0  502  0.15646950783E+03 -0.38152245716E+02 -0.18724100794E+03  0.24697671102E+03  0.00000000000E+00 0.  1.
         11    1    5    5    0    0 -0.51121551452E+03 -0.52423174428E+02 -0.30532583935E+03  0.59775694030E+03  0.00000000000E+00 0.  1.
        -11    1    5    5    0    0 -0.28244615532E+03 -0.63240179282E+02 -0.24503403043E+03  0.37923189080E+03  0.00000000000E+00 0. -1.
          3    1    6    6  503    0 -0.18812987543E+02  0.53397563644E+02  0.28569229330E+02  0.63414739359E+02  0.00000000000E+00 0. -1.
         -3    1    6    6    0  503  0.56658878110E+02  0.25749586246E+03 -0.69024867062E+01  0.26374607480E+03  0.00000000000E+00 0.  1.
<mgrwt>
<rscale>  0 0.21289865E+04</rscale>
<asrwt>0</asrwt>
<pdfrwt beam="1">  1        1 0.34622060E+00 0.21289865E+04</pdfrwt>
<pdfrwt beam="2">  1       -2 0.77465117E-01 0.21289865E+04</pdfrwt>
<totfact> 0.24098066E+00</totfact>
</mgrwt>
</event>
<event>
12    4  0.4413110E-008  0.1872898E+04  0.7818608E-02  0.8668465E-01
         -2   -1    0    0    0  501 -0.00000000000E+00  0.00000000000E+00  0.16526508091E+04  0.16526508091E+04  0.00000000000E+00 0.  1.
          1   -1    0    0  501    0  0.00000000000E+00 -0.00000000000E+00 -0.53062452563E+03  0.53062452563E+03  0.00000000000E+00 0. -1.
        -24    2    1    2    0    0 -0.26173012678E+03 -0.64220177335E+03  0.23382131005E+03  0.73645637537E+03  0.82278860111E+02 0.  0.
        254    2    1    2    0    0  0.26173012678E+03  0.64220177335E+03  0.88820497346E+03  0.14468189594E+04  0.90744214663E+03 0.  0.
         23    2    4    4    0    0  0.55839545353E+02 -0.12598067128E+03  0.55619386247E+03  0.58034428751E+03  0.91971164172E+02 0.  0.
         23    2    4    4    0    0  0.20589058143E+03  0.76818244463E+03  0.33201111099E+03  0.86647467190E+03  0.89731708227E+02 0.  0.
          3    1    3    3  502    0 -0.17441822999E+03 -0.41092043589E+03  0.10900712820E+03  0.45952135704E+03  0.00000000000E+00 0. -1.
         -4    1    3    3    0  502 -0.87311896793E+02 -0.23128133747E+03  0.12481418185E+03  0.27693501832E+03  0.00000000000E+00 0.  1.
         11    1    5    5    0    0  0.17145092680E+02 -0.54588558248E+01  0.12011529165E+02  0.21634004317E+02  0.00000000000E+00 0.  1.
        -11    1    5    5    0    0  0.38694452674E+02 -0.12052181545E+03  0.54418233331E+03  0.55871028320E+03  0.00000000000E+00 0. -1.
          1    1    6    6  503    0  0.12861850608E+03  0.47172192697E+03  0.15640000205E+03  0.51334711174E+03  0.00000000000E+00 0. -1.
         -1    1    6    6    0  503  0.77272075345E+02  0.29646051766E+03  0.17561110894E+03  0.35312756016E+03  0.00000000000E+00 0.  1.
<mgrwt>
<rscale>  0 0.18728983E+04</rscale>
<asrwt>0</asrwt>
<pdfrwt beam="1">  1        1 0.81634543E-01 0.18728983E+04</pdfrwt>
<pdfrwt beam="2">  1       -2 0.25425397E+00 0.18728983E+04</pdfrwt>
<totfact> 0.20263249E+00</totfact>
</mgrwt>
</event>
<event>
12    4  0.4413110E-008  0.1281220E+04  0.7818608E-02  0.9044592E-01
          1   -1    0    0  501    0  0.00000000000E+00  0.00000000000E+00  0.50558472312E+03  0.50558472312E+03  0.00000000000E+00 0. -1.
         -2   -1    0    0    0  501 -0.00000000000E+00 -0.00000000000E+00 -0.81169626975E+03  0.81169626975E+03  0.00000000000E+00 0.  1.
        -24    2    1    2    0    0  0.12581074446E+03  0.90122476681E+02  0.21880916661E+03  0.27893330383E+03  0.77304154930E+02 0.  0.
        254    2    1    2    0    0 -0.12581074446E+03 -0.90122476681E+02 -0.52492071324E+03  0.10383476890E+04  0.88242493388E+03 0.  0.
         23    2    4    4    0    0 -0.44928649783E+03 -0.21047681494E+03 -0.44146477461E+03  0.67026344629E+03  0.90570930521E+02 0.  0.
         23    2    4    4    0    0  0.32347575337E+03  0.12035433825E+03 -0.83455938629E+02  0.36808424275E+03  0.96950432255E+02 0.  0.
          1    1    3    3  502    0  0.80270550951E+02  0.97949654441E+02  0.15517201489E+03  0.20028941650E+03  0.00000000000E+00 0. -1.
         -2    1    3    3    0  502  0.45540193507E+02 -0.78271777592E+01  0.63637151717E+02  0.78643887334E+02  0.00000000000E+00 0.  1.
         11    1    5    5    0    0 -0.15290781214E+03 -0.61199842968E+02 -0.93337032540E+02  0.18930932739E+03  0.00000000000E+00 0. -1.
        -11    1    5    5    0    0 -0.29637868569E+03 -0.14927697197E+03 -0.34812774207E+03  0.48095411890E+03  0.00000000000E+00 0.  1.
          2    1    6    6  503    0  0.36427529186E+02  0.30904247369E+02 -0.43812127967E+02  0.64819286829E+02  0.00000000000E+00 0. -1.
         -2    1    6    6    0  503  0.28704822418E+03  0.89450090886E+02 -0.39643810662E+02  0.30326495592E+03  0.00000000000E+00 0.  1.
<mgrwt>
<rscale>  0 0.12812201E+04</rscale>
<asrwt>0</asrwt>
<pdfrwt beam="1">  1        1 0.77782266E-01 0.12812201E+04</pdfrwt>
<pdfrwt beam="2">  1       -2 0.12487635E+00 0.12812201E+04</pdfrwt>
<totfact> 0.18043759E+01</totfact>
</mgrwt>
</event>
<event>
12    4  0.4413110E-008  0.1390557E+04  0.7818608E-02  0.8960682E-01
          1   -1    0    0  501    0  0.00000000000E+00  0.00000000000E+00  0.16150735746E+03  0.16150735746E+03  0.00000000000E+00 0. -1.
         -2   -1    0    0    0  501 -0.00000000000E+00 -0.00000000000E+00 -0.29931272666E+04  0.29931272666E+04  0.00000000000E+00 0.  1.
        -24    2    1    2    0    0 -0.13920548302E+03 -0.99526905543E+02 -0.19791066682E+04  0.19881006277E+04  0.79982063264E+02 0.  0.
        254    2    1    2    0    0  0.13920548302E+03  0.99526905543E+02 -0.85251324091E+03  0.11665339963E+04  0.77764964293E+03 0.  0.
         23    2    4    4    0    0 -0.20228458089E+02  0.84286628680E+02 -0.94955740145E+03  0.95828995747E+03  0.95639728436E+02 0.  0.
         23    2    4    4    0    0  0.15943394111E+03  0.15240276863E+02  0.97044160543E+02  0.20824403882E+03  0.91085470806E+02 0.  0.
          3    1    3    3  502    0 -0.32784372918E+02 -0.49781651993E+01 -0.15820323125E+03  0.16164114456E+03  0.00000000000E+00 0. -1.
         -4    1    3    3    0  502 -0.10642111010E+03 -0.94548740344E+02 -0.18209034369E+04  0.18264594832E+04  0.00000000000E+00 0.  1.
         11    1    5    5    0    0 -0.26164000645E+02 -0.14607246984E+02 -0.21085882831E+03  0.21297739803E+03  0.00000000000E+00 0.  1.
        -11    1    5    5    0    0  0.59355425561E+01  0.98893875664E+02 -0.73869857314E+03  0.74531255945E+03  0.00000000000E+00 0. -1.
          2    1    6    6  503    0  0.15739474865E+03 -0.63267002925E+01  0.99694688478E+02  0.18641932558E+03  0.00000000000E+00 0. -1.
         -2    1    6    6    0  503  0.20391924563E+01  0.21566977156E+02 -0.26505279358E+01  0.21824713236E+02  0.00000000000E+00 0.  1.
<mgrwt>
<rscale>  0 0.13905568E+04</rscale>
<asrwt>0</asrwt>
<pdfrwt beam="1">  1        1 0.24847287E-01 0.13905568E+04</pdfrwt>
<pdfrwt beam="2">  1       -2 0.46048110E+00 0.13905568E+04</pdfrwt>
<totfact> 0.50130963E-01</totfact>
</mgrwt>
</event>
<event>
12    4  0.4413110E-008  0.1086047E+04  0.7818608E-02  0.9218899E-01
          1   -1    0    0  501    0  0.00000000000E+00  0.00000000000E+00  0.17719346837E+03  0.17719346837E+03  0.00000000000E+00 0. -1.
         -2   -1    0    0    0  501 -0.00000000000E+00 -0.00000000000E+00 -0.16641376110E+04  0.16641376110E+04  0.00000000000E+00 0.  1.
        -24    2    1    2    0    0 -0.39649058108E+02  0.20326075152E+02 -0.70743526911E+01  0.10047013107E+03  0.89771953474E+02 0.  0.
        254    2    1    2    0    0  0.39649058108E+02 -0.20326075152E+02 -0.14798697899E+04  0.17408609483E+04  0.91574944663E+03 0.  0.
         23    2    4    4    0    0 -0.33347199700E+03  0.12919736083E+03 -0.11671714400E+04  0.12236915014E+04  0.85065795624E+02 0.  0.
         23    2    4    4    0    0  0.37312105511E+03 -0.14952343598E+03 -0.31269834993E+03  0.51716944683E+03  0.90041096253E+02 0.  0.
          3    1    3    3  502    0 -0.67867003264E+02  0.22905285787E+02 -0.18180399005E+01  0.71651151548E+02  0.00000000000E+00 0. -1.
         -4    1    3    3    0  502  0.28217945156E+02 -0.25792106347E+01 -0.52563127906E+01  0.28818979518E+02  0.00000000000E+00 0.  1.
         11    1    5    5    0    0 -0.20443646811E+03  0.34047759394E+02 -0.65074206607E+03  0.68294857491E+03  0.00000000000E+00 0. -1.
        -11    1    5    5    0    0 -0.12903552888E+03  0.95149601432E+02 -0.51642937390E+03  0.54074292653E+03  0.00000000000E+00 0.  1.
          3    1    6    6  503    0  0.13084139415E+03 -0.16098969838E+02 -0.13340867278E+03  0.18755404881E+03  0.00000000000E+00 0. -1.
         -3    1    6    6    0  503  0.24227966095E+03 -0.13342446614E+03 -0.17928967716E+03  0.32961539802E+03  0.00000000000E+00 0.  1.
<mgrwt>
<rscale>  0 0.10860466E+04</rscale>
<asrwt>0</asrwt>
<pdfrwt beam="1">  1        1 0.27260533E-01 0.10860466E+04</pdfrwt>
<pdfrwt beam="2">  1       -2 0.25602118E+00 0.10860466E+04</pdfrwt>
<totfact> 0.89848981E+00</totfact>
</mgrwt>
</event>
<event>
12    4  0.4413110E-008  0.1169481E+04  0.7818608E-02  0.9139997E-01
         -2   -1    0    0    0  501 -0.00000000000E+00  0.00000000000E+00  0.27655747693E+03  0.27655747693E+03  0.00000000000E+00 0.  1.
          1   -1    0    0  501    0  0.00000000000E+00 -0.00000000000E+00 -0.12363489836E+04  0.12363489836E+04  0.00000000000E+00 0. -1.
        -24    2    1    2    0    0  0.18658242552E+03 -0.13134618669E+03 -0.14604526096E+03  0.28370098316E+03  0.84215244011E+02 0.  0.
        254    2    1    2    0    0 -0.18658242552E+03  0.13134618669E+03 -0.81374624573E+03  0.12292054774E+04  0.89257959361E+03 0.  0.
         23    2    4    4    0    0  0.12399020288E+03  0.38824519626E+03 -0.14791766772E+03  0.44545590056E+03  0.10219305305E+03 0.  0.
         23    2    4    4    0    0 -0.31057262840E+03 -0.25689900957E+03 -0.66582857801E+03  0.78374957683E+03  0.92104534364E+02 0.  0.
          1    1    3    3  502    0 -0.34339206806E+00  0.92896098105E+01 -0.52788390059E+01  0.10690224965E+02  0.00000000000E+00 0. -1.
         -2    1    3    3    0  502  0.18692581759E+03 -0.14063579650E+03 -0.14076642195E+03  0.27301075819E+03  0.00000000000E+00 0.  1.
         11    1    5    5    0    0  0.64991040374E+02  0.92109014504E+02 -0.90323220120E+01  0.11309062173E+03  0.00000000000E+00 0.  1.
        -11    1    5    5    0    0  0.58999162509E+02  0.29613618176E+03 -0.13888534571E+03  0.33236527884E+03  0.00000000000E+00 0. -1.
          1    1    6    6  503    0 -0.82883525074E+02 -0.10611085267E+03 -0.16183294067E+03  0.21052100244E+03  0.00000000000E+00 0. -1.
         -1    1    6    6    0  503 -0.22768910333E+03 -0.15078815691E+03 -0.50399563734E+03  0.57322857439E+03  0.00000000000E+00 0.  1.
<mgrwt>
<rscale>  0 0.11694812E+04</rscale>
<asrwt>0</asrwt>
<pdfrwt beam="1">  1        1 0.19020754E+00 0.11694812E+04</pdfrwt>
<pdfrwt beam="2">  1       -2 0.42547304E-01 0.11694812E+04</pdfrwt>
<totfact> 0.45784032E+01</totfact>
</mgrwt>
</event>
<event>
12    4  0.4413110E-008  0.1330380E+04  0.7818608E-02  0.9005814E-01
         -4   -1    0    0    0  501 -0.00000000000E+00  0.00000000000E+00  0.49353011186E+03  0.49353011186E+03  0.00000000000E+00 0.  1.
          1   -1    0    0  501    0  0.00000000000E+00 -0.00000000000E+00 -0.89655682905E+03  0.89655682905E+03  0.00000000000E+00 0. -1.
        -24    2    1    2    0    0  0.11651119204E+02 -0.33792533714E+02  0.21213865945E+03  0.22802077611E+03  0.75584254914E+02 0.  0.
        254    2    1    2    0    0 -0.11651119204E+02  0.33792533714E+02 -0.61516537664E+03  0.11620661648E+04  0.98523684810E+03 0.  0.
         23    2    4    4    0    0  0.10411812589E+03 -0.40595053017E+03 -0.54506569240E+03  0.69356605650E+03  0.91108993022E+02 0.  0.
         23    2    4    4    0    0 -0.11576924509E+03  0.43974306389E+03 -0.70099684238E+02  0.46850010831E+03  0.88328395271E+02 0.  0.
          1    1    3    3  502    0  0.54563044236E+01 -0.13451725683E+02 -0.30131527671E+00  0.14519331001E+02  0.00000000000E+00 0. -1.
         -2    1    3    3    0  502  0.61948147803E+01 -0.20340808030E+02  0.21243997473E+03  0.21350144511E+03  0.00000000000E+00 0.  1.
         11    1    5    5    0    0  0.25682842646E+02 -0.38605471672E+02 -0.10632315538E+03  0.11599398355E+03  0.00000000000E+00 0. -1.
        -11    1    5    5    0    0  0.78435283239E+02 -0.36734505850E+03 -0.43874253702E+03  0.57757207295E+03  0.00000000000E+00 0.  1.
          3    1    6    6  503    0 -0.77499659048E+02  0.15947052938E+03 -0.99292909600E+00  0.17730773475E+03  0.00000000000E+00 0. -1.
         -3    1    6    6    0  503 -0.38269586042E+02  0.28027253450E+03 -0.69106755142E+02  0.29119237356E+03  0.00000000000E+00 0.  1.
<mgrwt>
<rscale>  0 0.13303801E+04</rscale>
<asrwt>0</asrwt>
<pdfrwt beam="1">  1        1 0.13793182E+00 0.13303801E+04</pdfrwt>
<pdfrwt beam="2">  1       -4 0.75927710E-01 0.13303801E+04</pdfrwt>
<totfact> 0.13623859E+01</totfact>
</mgrwt>
</event>
<event>
12    4  0.4413110E-008  0.2424162E+04  0.7818608E-02  0.8430513E-01
          1   -1    0    0  501    0  0.00000000000E+00  0.00000000000E+00  0.18646940402E+04  0.18646940402E+04  0.00000000000E+00 0. -1.
         -2   -1    0    0    0  501 -0.00000000000E+00 -0.00000000000E+00 -0.78787199123E+03  0.78787199123E+03  0.00000000000E+00 0.  1.
        -24    2    1    2    0    0  0.16633520704E+03  0.49693486774E+03  0.14496454588E+04  0.15435408866E+04  0.80217507961E+02 0.  0.
        254    2    1    2    0    0 -0.16633520704E+03 -0.49693486774E+03 -0.37282340977E+03  0.11090251449E+04  0.90350861268E+03 0.  0.
         23    2    4    4    0    0 -0.35877663903E+03 -0.31949284120E+03 -0.58327265940E+03  0.76111106838E+03  0.91031373208E+02 0.  0.
         23    2    4    4    0    0  0.19244143199E+03 -0.17744202654E+03  0.21044924963E+03  0.34791407648E+03  0.90752082171E+02 0.  0.
          3    1    3    3  502    0  0.79783572054E+02  0.17833760828E+03  0.64052079744E+03  0.66965409940E+03  0.00000000000E+00 0. -1.
         -4    1    3    3    0  502  0.86551634987E+02  0.31859725946E+03  0.80912466135E+03  0.87388678721E+03  0.00000000000E+00 0.  1.
         11    1    5    5    0    0 -0.11308604517E+02 -0.14416331048E+02 -0.21108208900E+01  0.18443717137E+02  0.00000000000E+00 0.  1.
        -11    1    5    5    0    0 -0.34746803451E+03 -0.30507651016E+03 -0.58116183851E+03  0.74266735124E+03  0.00000000000E+00 0. -1.
          2    1    6    6  503    0  0.15155937308E+03 -0.12822843729E+03  0.20226320841E+03  0.28341344565E+03  0.00000000000E+00 0. -1.
         -2    1    6    6    0  503  0.40882058911E+02 -0.49213589248E+02  0.81860412203E+01  0.64500630836E+02  0.00000000000E+00 0.  1.
<mgrwt>
<rscale>  0 0.24241619E+04</rscale>
<asrwt>0</asrwt>
<pdfrwt beam="1">  1        1 0.28687600E+00 0.24241619E+04</pdfrwt>
<pdfrwt beam="2">  1       -2 0.12121108E+00 0.24241619E+04</pdfrwt>
<totfact> 0.14980070E+00</totfact>
</mgrwt>
</event>
<event>
12    4  0.4413110E-008  0.1285992E+04  0.7818608E-02  0.9040748E-01
          1   -1    0    0  501    0  0.00000000000E+00  0.00000000000E+00  0.13671936282E+04  0.13671936282E+04  0.00000000000E+00 0. -1.
         -2   -1    0    0    0  501 -0.00000000000E+00 -0.00000000000E+00 -0.30240346143E+03  0.30240346143E+03  0.00000000000E+00 0.  1.
        -24    2    1    2    0    0 -0.25186193441E+03  0.36888956306E+02  0.52892316655E+03  0.59253457101E+03  0.80884316334E+02 0.  0.
        254    2    1    2    0    0  0.25186193441E+03 -0.36888956306E+02  0.53586700023E+03  0.10770625186E+04  0.89895216670E+03 0.  0.
         23    2    4    4    0    0 -0.62122212151E+02  0.28888600002E+03 -0.67354583248E+02  0.31674026147E+03  0.92051415562E+02 0.  0.
         23    2    4    4    0    0  0.31398414656E+03 -0.32577495632E+03  0.60322158348E+03  0.76032225716E+03  0.97459168383E+02 0.  0.
          1    1    3    3  502    0 -0.18976795769E+03  0.16524037327E+02  0.30796062990E+03  0.36211140709E+03  0.00000000000E+00 0. -1.
         -2    1    3    3    0  502 -0.62093976721E+02  0.20364918978E+02  0.22096253665E+03  0.23042316392E+03  0.00000000000E+00 0.  1.
         11    1    5    5    0    0 -0.62833082460E+02  0.90099015615E+02 -0.35346937844E+02  0.11539165863E+03  0.00000000000E+00 0.  1.
        -11    1    5    5    0    0  0.71087030867E+00  0.19878698440E+03 -0.32007645405E+02  0.20134860285E+03  0.00000000000E+00 0. -1.
          3    1    6    6  503    0  0.84900295524E+02 -0.37560935643E+02  0.15002652248E+03  0.17642800660E+03  0.00000000000E+00 0. -1.
         -3    1    6    6    0  503  0.22908385104E+03 -0.28821402068E+03  0.45319506101E+03  0.58389425056E+03  0.00000000000E+00 0.  1.
<mgrwt>
<rscale>  0 0.12859924E+04</rscale>
<asrwt>0</asrwt>
<pdfrwt beam="1">  1        1 0.21033748E+00 0.12859924E+04</pdfrwt>
<pdfrwt beam="2">  1       -2 0.46523610E-01 0.12859924E+04</pdfrwt>
<totfact> 0.30621062E+01</totfact>
</mgrwt>
</event>
<event>
12    4  0.4413110E-008  0.2201664E+04  0.7818608E-02  0.8517736E-01
         -4   -1    0    0    0  501 -0.00000000000E+00  0.00000000000E+00  0.10930405333E+04  0.10930405333E+04  0.00000000000E+00 0.  1.
          1   -1    0    0  501    0  0.00000000000E+00 -0.00000000000E+00 -0.11086793845E+04  0.11086793845E+04  0.00000000000E+00 0. -1.
        -24    2    1    2    0    0  0.41868421112E+02 -0.27811227650E+03  0.86228257039E+03  0.91070940962E+03  0.82225267044E+02 0.  0.
        254    2    1    2    0    0 -0.41868421112E+02  0.27811227650E+03 -0.87792142166E+03  0.12910105082E+04  0.90380457323E+03 0.  0.
         23    2    4    4    0    0 -0.25085506102E+03  0.52932588724E+03 -0.44616548323E+03  0.74202225697E+03  0.91756388689E+02 0.  0.
         23    2    4    4    0    0  0.20898663991E+03 -0.25121361074E+03 -0.43175593843E+03  0.54898825122E+03  0.90505335304E+02 0.  0.
          1    1    3    3  502    0  0.55695314074E+02 -0.10442455317E+03  0.37333174323E+03  0.39164147613E+03  0.00000000000E+00 0. -1.
         -2    1    3    3    0  502 -0.13826892962E+02 -0.17368772333E+03  0.48895082716E+03  0.51906793350E+03  0.00000000000E+00 0.  1.
         11    1    5    5    0    0 -0.97480383271E+01  0.80950529487E+02 -0.40326412834E+02  0.90962805846E+02  0.00000000000E+00 0.  1.
        -11    1    5    5    0    0 -0.24110702269E+03  0.44837535776E+03 -0.40583907040E+03  0.65105945112E+03  0.00000000000E+00 0. -1.
          2    1    6    6  503    0  0.10994691266E+01 -0.33422395801E+01  0.45994858752E+01  0.57909125436E+01  0.00000000000E+00 0.  1.
         -2    1    6    6    0  503  0.20788717078E+03 -0.24787137116E+03 -0.43635542431E+03  0.54319733867E+03  0.00000000000E+00 0. -1.
<mgrwt>
<rscale>  0 0.22016644E+04</rscale>
<asrwt>0</asrwt>
<pdfrwt beam="1">  1        1 0.17056606E+00 0.22016644E+04</pdfrwt>
<pdfrwt beam="2">  1       -4 0.16816008E+00 0.22016644E+04</pdfrwt>
<totfact> 0.12034551E+00</totfact>
</mgrwt>
</event>
<event>
12    4  0.4413110E-008  0.1284880E+04  0.7818608E-02  0.9041642E-01
         -2   -1    0    0    0  501 -0.00000000000E+00  0.00000000000E+00  0.10562009945E+04  0.10562009945E+04  0.00000000000E+00 0.  1.
          1   -1    0    0  501    0  0.00000000000E+00 -0.00000000000E+00 -0.39076750619E+03  0.39076750619E+03  0.00000000000E+00 0. -1.
        -24    2    1    2    0    0  0.43043570280E+02 -0.22312453783E+03  0.42397423679E+03  0.48770720247E+03  0.80416749222E+02 0.  0.
        254    2    1    2    0    0 -0.43043570280E+02  0.22312453783E+03  0.24145925151E+03  0.95926129821E+03  0.90013463425E+03 0.  0.
         23    2    4    4    0    0 -0.34469618172E+03  0.36615094108E+03  0.32236624472E+03  0.60419681300E+03  0.90839549580E+02 0.  0.
         23    2    4    4    0    0  0.30165261144E+03 -0.14302640325E+03 -0.80906993206E+02  0.35506448521E+03  0.89855423300E+02 0.  0.
          3    1    3    3  502    0  0.32444242611E+02 -0.29925197987E+02  0.50374919083E+02  0.66975957073E+02  0.00000000000E+00 0. -1.
         -4    1    3    3    0  502  0.10599327669E+02 -0.19319933984E+03  0.37359931770E+03  0.42073124540E+03  0.00000000000E+00 0.  1.
         11    1    5    5    0    0 -0.29868221189E+03  0.34219602502E+03  0.31265800483E+03  0.55142017666E+03  0.00000000000E+00 0. -1.
        -11    1    5    5    0    0 -0.46013969823E+02  0.23954916063E+02  0.97082398847E+01  0.52776636347E+02  0.00000000000E+00 0.  1.
          1    1    6    6  503    0  0.27480866207E+03 -0.15485723193E+03 -0.81226449022E+02  0.32572733851E+03  0.00000000000E+00 0. -1.
         -1    1    6    6    0  503  0.26843949362E+02  0.11830828680E+02  0.31945581553E+00  0.29337146703E+02  0.00000000000E+00 0.  1.
<mgrwt>
<rscale>  0 0.12848798E+04</rscale>
<asrwt>0</asrwt>
<pdfrwt beam="1">  1        1 0.60118078E-01 0.12848798E+04</pdfrwt>
<pdfrwt beam="2">  1       -2 0.16249246E+00 0.12848798E+04</pdfrwt>
<totfact> 0.12829456E+01</totfact>
</mgrwt>
</event>
<event>
12    4  0.4413110E-008  0.1999830E+04  0.7818608E-02  0.8606700E-01
         -2   -1    0    0    0  501 -0.00000000000E+00  0.00000000000E+00  0.49568371512E+03  0.49568371512E+03  0.00000000000E+00 0.  1.
          1   -1    0    0  501    0  0.00000000000E+00 -0.00000000000E+00 -0.20170718047E+04  0.20170718047E+04  0.00000000000E+00 0. -1.
        -24    2    1    2    0    0  0.51194180895E+03 -0.34047823512E+03  0.27177048019E+02  0.62026910603E+03  0.77364899112E+02 0.  0.
        254    2    1    2    0    0 -0.51194180895E+03  0.34047823512E+03 -0.15485651376E+04  0.18924864138E+04  0.89746364641E+03 0.  0.
         23    2    4    4    0    0 -0.71124852572E+03  0.14909154853E+03 -0.77581417730E+03  0.10670748259E+04  0.93049939613E+02 0.  0.
         23    2    4    4    0    0  0.19930671677E+03  0.19138668659E+03 -0.77275096031E+03  0.82541158786E+03  0.88364085234E+02 0.  0.
          1    1    3    3  502    0  0.19058490136E+02 -0.50662947929E+01  0.13554953080E+02  0.23929691644E+02  0.00000000000E+00 0. -1.
         -2    1    3    3    0  502  0.49288331881E+03 -0.33541194033E+03  0.13622094939E+02  0.59633941439E+03  0.00000000000E+00 0.  1.
         11    1    5    5    0    0 -0.52157702441E+03  0.11029520665E+03 -0.50618044810E+03  0.73513690633E+03  0.00000000000E+00 0.  1.
        -11    1    5    5    0    0 -0.18967150130E+03  0.38796341878E+02 -0.26963372919E+03  0.33193791960E+03  0.00000000000E+00 0. -1.
          3    1    6    6  503    0  0.39419741697E+02  0.15489541527E+02 -0.55611438714E+02  0.69903319292E+02  0.00000000000E+00 0. -1.
         -3    1    6    6    0  503  0.15988697507E+03  0.17589714506E+03 -0.71713952159E+03  0.75550826857E+03  0.00000000000E+00 0.  1.
<mgrwt>
<rscale>  0 0.19998296E+04</rscale>
<asrwt>0</asrwt>
<pdfrwt beam="1">  1        1 0.31031874E+00 0.19998296E+04</pdfrwt>
<pdfrwt beam="2">  1       -2 0.76259033E-01 0.19998296E+04</pdfrwt>
<totfact> 0.36374691E+00</totfact>
</mgrwt>
</event>
<event>
12    4  0.4413110E-008  0.1697573E+04  0.7818608E-02  0.8762750E-01
          1   -1    0    0  501    0  0.00000000000E+00  0.00000000000E+00  0.14087499180E+04  0.14087499180E+04  0.00000000000E+00 0. -1.
         -2   -1    0    0    0  501 -0.00000000000E+00 -0.00000000000E+00 -0.51140281549E+03  0.51140281549E+03  0.00000000000E+00 0.  1.
        -24    2    1    2    0    0 -0.44160613521E+03 -0.40282846099E+02  0.85533159158E+03  0.96674937234E+03  0.79834397512E+02 0.  0.
        254    2    1    2    0    0  0.44160613521E+03  0.40282846099E+02  0.42015510904E+02  0.95340336112E+03  0.84295550267E+03 0.  0.
         23    2    4    4    0    0  0.48633808111E+03  0.38499629986E+02 -0.31119383568E+03  0.58578568933E+03  0.91084135893E+02 0.  0.
         23    2    4    4    0    0 -0.44731945905E+02  0.17832161128E+01  0.35320934658E+03  0.36761767179E+03  0.91552079451E+02 0.  0.
          3    1    3    3  502    0 -0.25214210243E+03  0.94353982767E+01  0.53009171016E+03  0.58707911540E+03  0.00000000000E+00 0. -1.
         -4    1    3    3    0  502 -0.18946403278E+03 -0.49718244376E+02  0.32523988142E+03  0.37967025694E+03  0.00000000000E+00 0.  1.
         11    1    5    5    0    0  0.28861816467E+03  0.18150032212E+02 -0.13090568797E+03  0.31743687213E+03  0.00000000000E+00 0. -1.
        -11    1    5    5    0    0  0.19771991644E+03  0.20349597774E+02 -0.18028814771E+03  0.26834881720E+03  0.00000000000E+00 0.  1.
          4    1    6    6  503    0 -0.54192025332E+02  0.18748073851E+02  0.11389209807E+03  0.12751343413E+03  0.00000000000E+00 0. -1.
         -4    1    6    6    0  503  0.94600794269E+01 -0.16964857738E+02  0.23931724852E+03  0.24010423765E+03  0.00000000000E+00 0.  1.
<mgrwt>
<rscale>  0 0.16975732E+04</rscale>
<asrwt>0</asrwt>
<pdfrwt beam="1">  1        1 0.21673076E+00 0.16975732E+04</pdfrwt>
<pdfrwt beam="2">  1       -2 0.78677357E-01 0.16975732E+04</pdfrwt>
<totfact> 0.90780477E+00</totfact>
</mgrwt>
</event>
<event>
12    4  0.4413110E-008  0.2720662E+04  0.7818608E-02  0.8328332E-01
         -2   -1    0    0    0  501 -0.00000000000E+00  0.00000000000E+00  0.96595726816E+03  0.96595726816E+03  0.00000000000E+00 0.  1.
          1   -1    0    0  501    0  0.00000000000E+00 -0.00000000000E+00 -0.19157167467E+04  0.19157167467E+04  0.00000000000E+00 0. -1.
        -24    2    1    2    0    0 -0.34142331178E+03  0.39552045901E+03  0.73487087000E+03  0.90483775016E+03  0.75431076063E+02 0.  0.
        254    2    1    2    0    0  0.34142331178E+03 -0.39552045901E+03 -0.16846303485E+04  0.19768362647E+04  0.89269025695E+03 0.  0.
         23    2    4    4    0    0  0.47256419533E+03 -0.53135767038E+03 -0.83149275372E+03  0.10978180306E+04  0.90367783296E+02 0.  0.
         23    2    4    4    0    0 -0.13114088356E+03  0.13583721137E+03 -0.85313759481E+03  0.87901823407E+03  0.95810337780E+02 0.  0.
          3    1    3    3  502    0 -0.11965405211E+03  0.92054939624E+02  0.18498306456E+03  0.23876754023E+03  0.00000000000E+00 0. -1.
         -4    1    3    3    0  502 -0.22176925966E+03  0.30346551939E+03  0.54988780544E+03  0.66607020993E+03  0.00000000000E+00 0.  1.
         11    1    5    5    0    0  0.21644072292E+03 -0.20101225665E+03 -0.39778109168E+03  0.49546171472E+03  0.00000000000E+00 0. -1.
        -11    1    5    5    0    0  0.25612347241E+03 -0.33034541373E+03 -0.43371166204E+03  0.60235631588E+03  0.00000000000E+00 0.  1.
          3    1    6    6  503    0 -0.11603709077E+03  0.56385104844E+02 -0.57905497511E+03  0.59325251848E+03  0.00000000000E+00 0. -1.
         -3    1    6    6    0  503 -0.15103792781E+02  0.79452106523E+02 -0.27408261970E+03  0.28576571559E+03  0.00000000000E+00 0.  1.
<mgrwt>
<rscale>  0 0.27206621E+04</rscale>
<asrwt>0</asrwt>
<pdfrwt beam="1">  1        1 0.29472565E+00 0.27206621E+04</pdfrwt>
<pdfrwt beam="2">  1       -2 0.14860881E+00 0.27206621E+04</pdfrwt>
<totfact> 0.79976446E-01</totfact>
</mgrwt>
</event>
<event>
12    4  0.4413110E-008  0.2084288E+04  0.7818608E-02  0.8568196E-01
          1   -1    0    0  501    0  0.00000000000E+00  0.00000000000E+00  0.13117716218E+04  0.13117716218E+04  0.00000000000E+00 0. -1.
         -2   -1    0    0    0  501 -0.00000000000E+00 -0.00000000000E+00 -0.82793693313E+03  0.82793693313E+03  0.00000000000E+00 0.  1.
        -24    2    1    2    0    0  0.24497300801E+03 -0.31318459661E+03  0.95161647291E+03  0.10344039569E+04  0.79506404508E+02 0.  0.
        254    2    1    2    0    0 -0.24497300801E+03  0.31318459661E+03 -0.46778178428E+03  0.11053045980E+04  0.91912028070E+03 0.  0.
         23    2    4    4    0    0 -0.47932987031E+03 -0.93590624772E+02 -0.11255123110E+03  0.50958228566E+03  0.92141177689E+02 0.  0.
         23    2    4    4    0    0  0.23435686230E+03  0.40677522138E+03 -0.35523055318E+03  0.59572231231E+03  0.91143336772E+02 0.  0.
          1    1    3    3  502    0  0.11533233560E+03 -0.11765568550E+03  0.48331432630E+03  0.51062427085E+03  0.00000000000E+00 0. -1.
         -2    1    3    3    0  502  0.12964067241E+03 -0.19552891111E+03  0.46830214661E+03  0.52377968607E+03  0.00000000000E+00 0.  1.
         11    1    5    5    0    0 -0.72199420385E+02  0.12188449039E+02  0.32274971393E+01  0.73292095970E+02  0.00000000000E+00 0. -1.
        -11    1    5    5    0    0 -0.40713044992E+03 -0.10577907381E+03 -0.11577872824E+03  0.43629018969E+03  0.00000000000E+00 0.  1.
          2    1    6    6  503    0  0.15090679218E+03  0.33556995324E+03 -0.28577243213E+03  0.46588189106E+03  0.00000000000E+00 0.  1.
         -2    1    6    6    0  503  0.83450070112E+02  0.71205268137E+02 -0.69458121049E+02  0.12984042126E+03  0.00000000000E+00 0. -1.
<mgrwt>
<rscale>  0 0.20842881E+04</rscale>
<asrwt>0</asrwt>
<pdfrwt beam="1">  1        1 0.20181102E+00 0.20842881E+04</pdfrwt>
<pdfrwt beam="2">  1       -2 0.12737491E+00 0.20842881E+04</pdfrwt>
<totfact> 0.32786163E+00</totfact>
</mgrwt>
</event>
<event>
12    4  0.4413110E-008  0.1149774E+04  0.7818608E-02  0.9157992E-01
         -2   -1    0    0    0  501 -0.00000000000E+00  0.00000000000E+00  0.22403162029E+03  0.22403162029E+03  0.00000000000E+00 0.  1.
          1   -1    0    0  501    0  0.00000000000E+00 -0.00000000000E+00 -0.14752160105E+04  0.14752160105E+04  0.00000000000E+00 0. -1.
        -24    2    1    2    0    0  0.30072504227E+02  0.14615274686E+03 -0.22788789550E+02  0.17082707298E+03  0.79984867366E+02 0.  0.
        254    2    1    2    0    0 -0.30072504227E+02 -0.14615274686E+03 -0.12283956006E+04  0.15284205578E+04  0.89713358475E+03 0.  0.
         23    2    4    4    0    0 -0.31218295586E+03 -0.13380670402E+02 -0.81996056224E+02  0.33672851278E+03  0.95002620006E+02 0.  0.
         23    2    4    4    0    0  0.28211045164E+03 -0.13277207646E+03 -0.11463995444E+04  0.11916920450E+04  0.93184137655E+02 0.  0.
          3    1    3    3  502    0 -0.20876715112E+02  0.21206116273E+02 -0.20016317431E+02  0.35863485117E+02  0.00000000000E+00 0. -1.
         -4    1    3    3    0  502  0.50949219339E+02  0.12494663059E+03 -0.27724721183E+01  0.13496358786E+03  0.00000000000E+00 0.  1.
         11    1    5    5    0    0 -0.45980008447E+02 -0.20782714903E+02  0.16045952074E+02  0.52948607097E+02  0.00000000000E+00 0.  1.
        -11    1    5    5    0    0 -0.26620294742E+03  0.74020445008E+01 -0.98042008298E+02  0.28377990568E+03  0.00000000000E+00 0. -1.
          3    1    6    6  503    0  0.15952733907E+03 -0.10703392982E+03 -0.55908527191E+03  0.59116966711E+03  0.00000000000E+00 0. -1.
         -3    1    6    6    0  503  0.12258311257E+03 -0.25738146635E+02 -0.58731427248E+03  0.60052237789E+03  0.00000000000E+00 0.  1.
<mgrwt>
<rscale>  0 0.11497739E+04</rscale>
<asrwt>0</asrwt>
<pdfrwt beam="1">  1        1 0.22695632E+00 0.11497739E+04</pdfrwt>
<pdfrwt beam="2">  1       -2 0.34466402E-01 0.11497739E+04</pdfrwt>
<totfact> 0.46787631E+01</totfact>
</mgrwt>
</event>
<event>
12    4  0.4413110E-008  0.1614806E+04  0.7818608E-02  0.8811503E-01
         -2   -1    0    0    0  501 -0.00000000000E+00  0.00000000000E+00  0.61934442208E+03  0.61934442208E+03  0.00000000000E+00 0.  1.
          1   -1    0    0  501    0  0.00000000000E+00 -0.00000000000E+00 -0.10525640548E+04  0.10525640548E+04  0.00000000000E+00 0. -1.
        -24    2    1    2    0    0 -0.12749960476E+02  0.26137020343E+03 -0.65724399629E+03  0.71164305328E+03  0.77390050261E+02 0.  0.
        254    2    1    2    0    0  0.12749960476E+02 -0.26137020343E+03  0.22402436359E+03  0.96026542358E+03  0.89635139511E+03 0.  0.
         23    2    4    4    0    0 -0.39973463988E+03 -0.30108226559E+03  0.12918124238E+03  0.52493318790E+03  0.91808198990E+02 0.  0.
         23    2    4    4    0    0  0.41248460036E+03  0.39712062154E+02  0.94843121213E+02  0.43533223569E+03  0.93799490257E+02 0.  0.
          3    1    3    3  502    0  0.21223855341E+01  0.20267244809E+03 -0.57378861985E+03  0.60853430963E+03  0.00000000000E+00 0. -1.
         -4    1    3    3    0  502 -0.14872346010E+02  0.58697755340E+02 -0.83455376448E+02  0.10310874364E+03  0.00000000000E+00 0.  1.
         11    1    5    5    0    0 -0.37931473218E+03 -0.28487333360E+03  0.14295419514E+03  0.49544766035E+03  0.00000000000E+00 0. -1.
        -11    1    5    5    0    0 -0.20419907703E+02 -0.16208931991E+02 -0.13772952759E+02  0.29485527545E+02  0.00000000000E+00 0.  1.
          4    1    6    6  503    0  0.40347629478E+03  0.40712311608E+02  0.73483510810E+02  0.41212915346E+03  0.00000000000E+00 0. -1.
         -4    1    6    6    0  503  0.90083055742E+01 -0.10002494539E+01  0.21359610403E+02  0.23203082228E+02  0.00000000000E+00 0.  1.
<mgrwt>
<rscale>  0 0.16148061E+04</rscale>
<asrwt>0</asrwt>
<pdfrwt beam="1">  1        1 0.16193293E+00 0.16148061E+04</pdfrwt>
<pdfrwt beam="2">  1       -2 0.95283758E-01 0.16148061E+04</pdfrwt>
<totfact> 0.10714327E+01</totfact>
</mgrwt>
</event>
<event>
12    4  0.4413110E-008  0.1525618E+04  0.7818608E-02  0.8867594E-01
          1   -1    0    0  501    0  0.00000000000E+00  0.00000000000E+00  0.16211445507E+04  0.16211445507E+04  0.00000000000E+00 0. -1.
         -2   -1    0    0    0  501 -0.00000000000E+00 -0.00000000000E+00 -0.35893005803E+03  0.35893005803E+03  0.00000000000E+00 0.  1.
        -24    2    1    2    0    0 -0.32245942655E+03  0.13453487669E+03 -0.34868571331E+02  0.36001740608E+03  0.79479560865E+02 0.  0.
        254    2    1    2    0    0  0.32245942655E+03 -0.13453487669E+03  0.12970830640E+04  0.16200572026E+04  0.90558332036E+03 0.  0.
         23    2    4    4    0    0  0.15359056540E+02  0.13771779616E+03  0.11669667085E+04  0.11788425670E+04  0.93039814139E+02 0.  0.
         23    2    4    4    0    0  0.30710037001E+03 -0.27225267285E+03  0.13011635554E+03  0.44121463569E+03  0.96477632792E+02 0.  0.
          3    1    3    3  502    0 -0.24335588770E+02  0.27782867267E+02  0.14216131257E+02  0.39575333003E+02  0.00000000000E+00 0. -1.
         -4    1    3    3    0  502 -0.29812383778E+03  0.10675200943E+03 -0.49084702588E+02  0.32044207308E+03  0.00000000000E+00 0.  1.
         11    1    5    5    0    0 -0.34350735486E+02  0.58022595669E+02  0.64278449000E+03  0.64631145373E+03  0.00000000000E+00 0.  1.
        -11    1    5    5    0    0  0.49709792026E+02  0.79695200491E+02  0.52418221847E+03  0.53253111323E+03  0.00000000000E+00 0. -1.
          1    1    6    6  503    0  0.92724455341E+02 -0.65025445914E+02  0.80514083742E+02  0.13895557173E+03  0.00000000000E+00 0. -1.
         -1    1    6    6    0  503  0.21437591467E+03 -0.20722722694E+03  0.49602271796E+02  0.30225906395E+03  0.00000000000E+00 0.  1.
<mgrwt>
<rscale>  0 0.15256179E+04</rscale>
<asrwt>0</asrwt>
<pdfrwt beam="1">  1        1 0.24940685E+00 0.15256179E+04</pdfrwt>
<pdfrwt beam="2">  1       -2 0.55220010E-01 0.15256179E+04</pdfrwt>
<totfact> 0.14096728E+01</totfact>
</mgrwt>
</event>
<event>
12    4  0.4413110E-008  0.1940331E+04  0.7818608E-02  0.8635037E-01
          1   -1    0    0  501    0  0.00000000000E+00  0.00000000000E+00  0.23909850798E+04  0.23909850798E+04  0.00000000000E+00 0. -1.
         -2   -1    0    0    0  501 -0.00000000000E+00 -0.00000000000E+00 -0.39365408379E+03  0.39365408379E+03  0.00000000000E+00 0.  1.
        -24    2    1    2    0    0  0.35085959811E+03 -0.11623825786E+03 -0.16923661781E+03  0.41442537634E+03  0.80582687792E+02 0.  0.
        254    2    1    2    0    0 -0.35085959811E+03  0.11623825786E+03  0.21665676138E+04  0.23702137873E+04  0.88729047207E+03 0.  0.
         23    2    4    4    0    0 -0.38880564211E+03  0.15549946382E+03  0.35747967892E+03  0.55800015852E+03  0.90678252538E+02 0.  0.
         23    2    4    4    0    0  0.37946044001E+02 -0.39261205957E+02  0.18090879349E+04  0.18122136287E+04  0.91311200786E+02 0.  0.
          3    1    3    3  502    0  0.41289509208E+02 -0.31108651757E+02 -0.44728816974E+00  0.51698857352E+02  0.00000000000E+00 0. -1.
         -4    1    3    3    0  502  0.30957008890E+03 -0.85129606103E+02 -0.16878932964E+03  0.36272651899E+03  0.00000000000E+00 0.  1.
         11    1    5    5    0    0 -0.24554387837E+03  0.58086223952E+02  0.17971524463E+03  0.30977955834E+03  0.00000000000E+00 0. -1.
        -11    1    5    5    0    0 -0.14326176374E+03  0.97413239865E+02  0.17776443429E+03  0.24822060017E+03  0.00000000000E+00 0.  1.
          3    1    6    6  503    0  0.63694594291E+02 -0.13653771073E+02  0.14008350015E+04  0.14023487898E+04  0.00000000000E+00 0. -1.
         -3    1    6    6    0  503 -0.25748550290E+02 -0.25607434885E+02  0.40825293339E+03  0.40986483892E+03  0.00000000000E+00 0.  1.
<mgrwt>
<rscale>  0 0.19403309E+04</rscale>
<asrwt>0</asrwt>
<pdfrwt beam="1">  1        1 0.36784385E+00 0.19403309E+04</pdfrwt>
<pdfrwt beam="2">  1       -2 0.60562168E-01 0.19403309E+04</pdfrwt>
<totfact> 0.33530155E+00</totfact>
</mgrwt>
</event>
<event>
12    4  0.4413110E-008  0.1345249E+04  0.7818608E-02  0.8994432E-01
         -2   -1    0    0    0  501 -0.00000000000E+00  0.00000000000E+00  0.28601315665E+03  0.28601315665E+03  0.00000000000E+00 0.  1.
          1   -1    0    0  501    0  0.00000000000E+00 -0.00000000000E+00 -0.15818287921E+04  0.15818287921E+04  0.00000000000E+00 0. -1.
        -24    2    1    2    0    0 -0.17326091385E+03 -0.31949102236E+03 -0.33689350734E+03  0.50196051450E+03  0.79832732604E+02 0.  0.
        254    2    1    2    0    0  0.17326091385E+03  0.31949102236E+03 -0.95892212811E+03  0.13658814342E+04  0.90222313592E+03 0.  0.
         23    2    4    4    0    0  0.30551869748E+03  0.53661829265E+03 -0.39293635903E+03  0.73873209101E+03  0.10012618798E+03 0.  0.
         23    2    4    4    0    0 -0.13225778363E+03 -0.21712727029E+03 -0.56598576908E+03  0.62714934323E+03  0.91323792558E+02 0.  0.
          3    1    3    3  502    0 -0.39122534237E+02 -0.73595534837E+02 -0.12714584962E+03  0.15202941330E+03  0.00000000000E+00 0. -1.
         -4    1    3    3    0  502 -0.13413837961E+03 -0.24589548752E+03 -0.20974765772E+03  0.34993110120E+03  0.00000000000E+00 0.  1.
         11    1    5    5    0    0 -0.71964212463E+01  0.24297521031E+02 -0.15749779698E+02  0.29836446966E+02  0.00000000000E+00 0. -1.
        -11    1    5    5    0    0  0.31271511872E+03  0.51232077162E+03 -0.37718657933E+03  0.70889564404E+03  0.00000000000E+00 0.  1.
          3    1    6    6  503    0 -0.44974787053E+02 -0.15358483972E+03 -0.37579960338E+03  0.40845608866E+03  0.00000000000E+00 0.  1.
         -3    1    6    6    0  503 -0.87282996575E+02 -0.63542430570E+02 -0.19018616570E+03  0.21869325458E+03  0.00000000000E+00 0. -1.
<mgrwt>
<rscale>  0 0.13452492E+04</rscale>
<asrwt>0</asrwt>
<pdfrwt beam="1">  1        1 0.24335828E+00 0.13452492E+04</pdfrwt>
<pdfrwt beam="2">  1       -2 0.44002024E-01 0.13452492E+04</pdfrwt>
<totfact> 0.24171091E+01</totfact>
</mgrwt>
</event>
<event>
12    4  0.4413110E-008  0.2046029E+04  0.7818608E-02  0.8585398E-01
          3   -1    0    0  501    0  0.00000000000E+00  0.00000000000E+00  0.54531919705E+03  0.54531919705E+03  0.00000000000E+00 0. -1.
         -4   -1    0    0    0  501 -0.00000000000E+00 -0.00000000000E+00 -0.19191664969E+04  0.19191664969E+04  0.00000000000E+00 0.  1.
        -24    2    1    2    0    0 -0.68673384161E+03  0.46031129711E+03 -0.64376894614E+03  0.10509666435E+04  0.81256201422E+02 0.  0.
        254    2    1    2    0    0  0.68673384161E+03 -0.46031129711E+03 -0.73007835375E+03  0.14135190505E+04  0.88404289718E+03 0.  0.
         23    2    4    4    0    0  0.40790267169E+03 -0.33630305591E+03  0.80259974022E+02  0.54312740633E+03  0.95191286859E+02 0.  0.
         23    2    4    4    0    0  0.27883116992E+03 -0.12400824120E+03 -0.81033832777E+03  0.87039164417E+03  0.88365963931E+02 0.  0.
          3    1    3    3  502    0 -0.10865154849E+03  0.41991216171E+02 -0.76020566723E+02  0.13909546287E+03  0.00000000000E+00 0. -1.
         -4    1    3    3    0  502 -0.57808229312E+03  0.41832008094E+03 -0.56774837942E+03  0.91187118063E+03  0.00000000000E+00 0.  1.
         11    1    5    5    0    0  0.82488373413E+02 -0.80471772767E+02 -0.20633142449E+02  0.11707162136E+03  0.00000000000E+00 0. -1.
        -11    1    5    5    0    0  0.32541429828E+03 -0.25583128314E+03  0.10089311647E+03  0.42605578497E+03  0.00000000000E+00 0.  1.
          2    1    6    6  503    0  0.53576843176E+02 -0.42123274893E+02 -0.10261536836E+03  0.12318588489E+03  0.00000000000E+00 0. -1.
         -2    1    6    6    0  503  0.22525432674E+03 -0.81884966307E+02 -0.70772295941E+03  0.74720575928E+03  0.00000000000E+00 0.  1.
<mgrwt>
<rscale>  0 0.20460287E+04</rscale>
<asrwt>0</asrwt>
<pdfrwt beam="1">  1        3 0.83895262E-01 0.20460287E+04</pdfrwt>
<pdfrwt beam="2">  1       -4 0.29525638E+00 0.20460287E+04</pdfrwt>
<totfact> 0.91487756E-02</totfact>
</mgrwt>
</event>
<event>
12    4  0.4413110E-008  0.1612881E+04  0.7818608E-02  0.8812674E-01
          1   -1    0    0  501    0  0.00000000000E+00  0.00000000000E+00  0.62006073722E+03  0.62006073722E+03  0.00000000000E+00 0. -1.
         -2   -1    0    0    0  501 -0.00000000000E+00 -0.00000000000E+00 -0.10488425060E+04  0.10488425060E+04  0.00000000000E+00 0.  1.
        -24    2    1    2    0    0 -0.78641211072E+02  0.54082081310E+03 -0.12637940344E+03  0.56664784069E+03  0.80289661759E+02 0.  0.
        254    2    1    2    0    0  0.78641211072E+02 -0.54082081310E+03 -0.30240236535E+03  0.11022554025E+04  0.90821153368E+03 0.  0.
         23    2    4    4    0    0  0.38248891083E+03 -0.59610640052E+03 -0.31413682815E+03  0.78005308800E+03  0.90334188714E+02 0.  0.
         23    2    4    4    0    0 -0.30384769976E+03  0.55285587421E+02  0.11734462800E+02  0.32220231454E+03  0.91086294539E+02 0.  0.
          3    1    3    3  502    0 -0.84733299343E+02  0.51356764301E+03 -0.10385543676E+03  0.53077057917E+03  0.00000000000E+00 0. -1.
         -4    1    3    3    0  502  0.60920882719E+01  0.27253170093E+02 -0.22523966682E+02  0.35877261528E+02  0.00000000000E+00 0.  1.
         11    1    5    5    0    0  0.61213162833E+02 -0.79585176635E+02 -0.12791787421E+02  0.10121502591E+03  0.00000000000E+00 0. -1.
        -11    1    5    5    0    0  0.32127574800E+03 -0.51652122389E+03 -0.30134504073E+03  0.67883806210E+03  0.00000000000E+00 0.  1.
          1    1    6    6  503    0 -0.80887633383E+02 -0.17807562101E+02 -0.20603666361E+02  0.85348869763E+02  0.00000000000E+00 0. -1.
         -1    1    6    6    0  503 -0.22296006638E+03  0.73093149522E+02  0.32338129161E+02  0.23685344478E+03  0.00000000000E+00 0.  1.
<mgrwt>
<rscale>  0 0.16128807E+04</rscale>
<asrwt>0</asrwt>
<pdfrwt beam="1">  1        1 0.95393961E-01 0.16128807E+04</pdfrwt>
<pdfrwt beam="2">  1       -2 0.16136038E+00 0.16128807E+04</pdfrwt>
<totfact> 0.67367039E+00</totfact>
</mgrwt>
</event>
<event>
12    4  0.4413110E-008  0.1645313E+04  0.7818608E-02  0.8793184E-01
         -2   -1    0    0    0  501 -0.00000000000E+00  0.00000000000E+00  0.13638062279E+04  0.13638062279E+04  0.00000000000E+00 0.  1.
          1   -1    0    0  501    0  0.00000000000E+00 -0.00000000000E+00 -0.49623170318E+03  0.49623170318E+03  0.00000000000E+00 0. -1.
        -24    2    1    2    0    0  0.10198504915E+03  0.50839984519E+03  0.23087692027E+02  0.52491740503E+03  0.78319140306E+02 0.  0.
        254    2    1    2    0    0 -0.10198504915E+03 -0.50839984519E+03  0.84448683270E+03  0.13351205261E+04  0.89471641074E+03 0.  0.
         23    2    4    4    0    0 -0.43394136753E+03 -0.35532677134E+03  0.22858187041E+03  0.61222309367E+03  0.89471895352E+02 0.  0.
         23    2    4    4    0    0  0.33195631837E+03 -0.15307307386E+03  0.61590496229E+03  0.72289743239E+03  0.98058206861E+02 0.  0.
          3    1    3    3  502    0  0.71504801755E+02  0.36088566837E+03 -0.19391195400E+02  0.36841202582E+03  0.00000000000E+00 0. -1.
         -4    1    3    3    0  502  0.30480247398E+02  0.14751417682E+03  0.42478887427E+02  0.15650537921E+03  0.00000000000E+00 0.  1.
         11    1    5    5    0    0 -0.41971433990E+03 -0.33300222738E+03  0.19659248078E+03  0.57070063435E+03  0.00000000000E+00 0.  1.
        -11    1    5    5    0    0 -0.14227027627E+02 -0.22324543962E+02  0.31989389633E+02  0.41522459312E+02  0.00000000000E+00 0. -1.
          3    1    6    6  503    0  0.19268484530E+02  0.10674499976E+02  0.17433807957E+02  0.28091940227E+02  0.00000000000E+00 0. -1.
         -3    1    6    6    0  503  0.31268783384E+03 -0.16374757383E+03  0.59847115434E+03  0.69480549217E+03  0.00000000000E+00 0.  1.
<mgrwt>
<rscale>  0 0.16453132E+04</rscale>
<asrwt>0</asrwt>
<pdfrwt beam="1">  1        1 0.76343340E-01 0.16453132E+04</pdfrwt>
<pdfrwt beam="2">  1       -2 0.20981634E+00 0.16453132E+04</pdfrwt>
<totfact> 0.42970950E+00</totfact>
</mgrwt>
</event>
<event>
12    4  0.4413110E-008  0.1019463E+04  0.7818608E-02  0.9287452E-01
          3   -1    0    0  501    0  0.00000000000E+00  0.00000000000E+00  0.91973815355E+03  0.91973815355E+03  0.00000000000E+00 0. -1.
         -4   -1    0    0    0  501 -0.00000000000E+00 -0.00000000000E+00 -0.28250033519E+03  0.28250033519E+03  0.00000000000E+00 0.  1.
        -24    2    1    2    0    0  0.56757330705E+02  0.17451175564E+02  0.30767334369E+02  0.10390037149E+03  0.79515534424E+02 0.  0.
        254    2    1    2    0    0 -0.56757330705E+02 -0.17451175564E+02  0.60647048399E+03  0.10983381173E+04  0.91379113245E+03 0.  0.
         23    2    4    4    0    0 -0.20859605351E+03 -0.10153244756E+03 -0.16622210788E+03  0.30117714833E+03  0.96211922745E+02 0.  0.
         23    2    4    4    0    0  0.15183872281E+03  0.84081272001E+02  0.77269259187E+03  0.79716096893E+03  0.91033569613E+02 0.  0.
          3    1    3    3  502    0  0.29922675966E+02  0.28940721018E+02  0.52865683527E+02  0.67288278064E+02  0.00000000000E+00 0. -1.
         -4    1    3    3    0  502  0.26834654739E+02 -0.11489545455E+02 -0.22098349157E+02  0.36612093429E+02  0.00000000000E+00 0.  1.
         11    1    5    5    0    0 -0.16559849678E+03 -0.10200897787E+03 -0.91450879370E+02  0.21492314217E+03  0.00000000000E+00 0. -1.
        -11    1    5    5    0    0 -0.42997556728E+02  0.47653030084E+00 -0.74771228511E+02  0.86254006161E+02  0.00000000000E+00 0.  1.
          3    1    6    6  503    0  0.15228766975E+03  0.94314874261E+02  0.76013257761E+03  0.78095349759E+03  0.00000000000E+00 0. -1.
         -3    1    6    6    0  503 -0.44894694219E+00 -0.10233602260E+02  0.12560014266E+02  0.16207471331E+02  0.00000000000E+00 0.  1.
<mgrwt>
<rscale>  0 0.10194633E+04</rscale>
<asrwt>0</asrwt>
<pdfrwt beam="1">  1        3 0.14149818E+00 0.10194633E+04</pdfrwt>
<pdfrwt beam="2">  1       -4 0.43461590E-01 0.10194633E+04</pdfrwt>
<totfact> 0.44165709E+00</totfact>
</mgrwt>
</event>
<event>
12    4  0.4413110E-008  0.1423444E+04  0.7818608E-02  0.8937021E-01
         -2   -1    0    0    0  501 -0.00000000000E+00  0.00000000000E+00  0.86144317172E+03  0.86144317172E+03  0.00000000000E+00 0.  1.
          1   -1    0    0  501    0  0.00000000000E+00 -0.00000000000E+00 -0.58802300965E+03  0.58802300965E+03  0.00000000000E+00 0. -1.
        -24    2    1    2    0    0  0.16949393227E+03 -0.23197507393E+03 -0.23669212312E+03  0.38072367004E+03  0.79916980573E+02 0.  0.
        254    2    1    2    0    0 -0.16949393227E+03  0.23197507393E+03  0.51011228519E+03  0.10687425113E+04  0.89412268958E+03 0.  0.
         23    2    4    4    0    0 -0.17114062512E+02 -0.24240541590E+03  0.49852703634E+03  0.56185053969E+03  0.89964138397E+02 0.  0.
         23    2    4    4    0    0 -0.15237986975E+03  0.47438048982E+03  0.11585248850E+02  0.50689197164E+03  0.92459607901E+02 0.  0.
          3    1    3    3  502    0  0.93570787471E+02 -0.74601227191E+02 -0.66976594940E+02  0.13713752089E+03  0.00000000000E+00 0. -1.
         -4    1    3    3    0  502  0.75923144795E+02 -0.15737384674E+03 -0.16971552818E+03  0.24358614915E+03  0.00000000000E+00 0.  1.
         11    1    5    5    0    0  0.36940448738E+01 -0.78035941577E+02  0.80447114902E+02  0.11213827376E+03  0.00000000000E+00 0. -1.
        -11    1    5    5    0    0 -0.20808107386E+02 -0.16436947432E+03  0.41807992143E+03  0.44971226593E+03  0.00000000000E+00 0.  1.
          3    1    6    6  503    0 -0.81204515895E+02  0.12211864995E+03 -0.89440084953E+01  0.14692560484E+03  0.00000000000E+00 0. -1.
         -3    1    6    6    0  503 -0.71175353859E+02  0.35226183987E+03  0.20529257345E+02  0.35996636680E+03  0.00000000000E+00 0.  1.
<mgrwt>
<rscale>  0 0.14234443E+04</rscale>
<asrwt>0</asrwt>
<pdfrwt beam="1">  1        1 0.90465078E-01 0.14234443E+04</pdfrwt>
<pdfrwt beam="2">  1       -2 0.13252972E+00 0.14234443E+04</pdfrwt>
<totfact> 0.12412741E+01</totfact>
</mgrwt>
</event>
<event>
12    4  0.4413110E-008  0.1351185E+04  0.7818608E-02  0.8989931E-01
         -2   -1    0    0    0  501 -0.00000000000E+00  0.00000000000E+00  0.61100114777E+03  0.61100114777E+03  0.00000000000E+00 0.  1.
          1   -1    0    0  501    0  0.00000000000E+00 -0.00000000000E+00 -0.74701261131E+03  0.74701261131E+03  0.00000000000E+00 0. -1.
        -24    2    1    2    0    0 -0.33972915503E+03 -0.14196648158E+03 -0.58169909923E+02  0.38102943976E+03  0.78926008861E+02 0.  0.
        254    2    1    2    0    0  0.33972915503E+03  0.14196648158E+03 -0.77841553612E+02  0.97698431932E+03  0.90159229813E+03 0.  0.
         23    2    4    4    0    0  0.48136049199E+03  0.75836440098E+02 -0.38081073937E+03  0.62424540475E+03  0.84890619216E+02 0.  0.
         23    2    4    4    0    0 -0.14163133696E+03  0.66130041486E+02  0.30296918576E+03  0.35273891457E+03  0.90563769446E+02 0.  0.
          1    1    3    3  502    0 -0.22145977596E+03 -0.98850705707E+02 -0.75404205680E+02  0.25397182644E+03  0.00000000000E+00 0. -1.
         -2    1    3    3    0  502 -0.11826937907E+03 -0.43115775876E+02  0.17234295757E+02  0.12705761333E+03  0.00000000000E+00 0.  1.
         11    1    5    5    0    0  0.31577057706E+03  0.10621592791E+02 -0.22729277510E+03  0.38921187184E+03  0.00000000000E+00 0. -1.
        -11    1    5    5    0    0  0.16558991494E+03  0.65214847307E+02 -0.15351796427E+03  0.23503353291E+03  0.00000000000E+00 0.  1.
          3    1    6    6  503    0 -0.13837708780E+03  0.40924171732E+02  0.19964812360E+03  0.24633793763E+03  0.00000000000E+00 0. -1.
         -3    1    6    6    0  503 -0.32542491614E+01  0.25205869753E+02  0.10332106216E+03  0.10640097694E+03  0.00000000000E+00 0.  1.
<mgrwt>
<rscale>  0 0.13511855E+04</rscale>
<asrwt>0</asrwt>
<pdfrwt beam="1">  1        1 0.11492502E+00 0.13511855E+04</pdfrwt>
<pdfrwt beam="2">  1       -2 0.94000176E-01 0.13511855E+04</pdfrwt>
<totfact> 0.20185679E+01</totfact>
</mgrwt>
</event>
<event>
12    4  0.4413110E-008  0.1745108E+04  0.7818608E-02  0.8736048E-01
          1   -1    0    0  501    0  0.00000000000E+00  0.00000000000E+00  0.93879114339E+03  0.93879114339E+03  0.00000000000E+00 0. -1.
         -2   -1    0    0    0  501 -0.00000000000E+00 -0.00000000000E+00 -0.81099006167E+03  0.81099006167E+03  0.00000000000E+00 0.  1.
        -24    2    1    2    0    0 -0.17551751593E+03  0.51559684651E+03  0.37458461562E+03  0.66556994431E+03  0.77609342102E+02 0.  0.
        254    2    1    2    0    0  0.17551751593E+03 -0.51559684651E+03 -0.24678353390E+03  0.10842112608E+04  0.90441441762E+03 0.  0.
         23    2    4    4    0    0  0.35571038042E+03 -0.69158435594E+03 -0.22824010098E+03  0.81580692036E+03  0.92890212003E+02 0.  0.
         23    2    4    4    0    0 -0.18019286449E+03  0.17598750943E+03 -0.18543432919E+02  0.26840434039E+03  0.90862308738E+02 0.  0.
          3    1    3    3  502    0 -0.10770711458E+03  0.41257871173E+03  0.27959911256E+03  0.50989967607E+03  0.00000000000E+00 0. -1.
         -4    1    3    3    0  502 -0.67810401355E+02  0.10301813478E+03  0.94985503056E+02  0.15567026825E+03  0.00000000000E+00 0.  1.
         11    1    5    5    0    0  0.21131022430E+02 -0.13049632629E+02  0.22436092072E+01  0.24936856316E+02  0.00000000000E+00 0.  1.
        -11    1    5    5    0    0  0.33457935799E+03 -0.67853472331E+03 -0.23048371019E+03  0.79087006404E+03  0.00000000000E+00 0. -1.
          2    1    6    6  503    0 -0.15104080907E+03  0.88660252959E+02 -0.39061031889E+01  0.17518340133E+03  0.00000000000E+00 0.  1.
         -2    1    6    6    0  503 -0.29152055416E+02  0.87327256472E+02 -0.14637329730E+02  0.93220939062E+02  0.00000000000E+00 0. -1.
<mgrwt>
<rscale>  0 0.17451078E+04</rscale>
<asrwt>0</asrwt>
<pdfrwt beam="1">  1        1 0.14442941E+00 0.17451078E+04</pdfrwt>
<pdfrwt beam="2">  1       -2 0.12476770E+00 0.17451078E+04</pdfrwt>
<totfact> 0.67725370E+00</totfact>
</mgrwt>
</event>
<event>
12    4  0.4413110E-008  0.1076359E+04  0.7818608E-02  0.9228546E-01
          1   -1    0    0  501    0  0.00000000000E+00  0.00000000000E+00  0.27499429868E+04  0.27499429868E+04  0.00000000000E+00 0. -1.
         -2   -1    0    0    0  501 -0.00000000000E+00 -0.00000000000E+00 -0.10532473389E+03  0.10532473389E+03  0.00000000000E+00 0.  1.
        -24    2    1    2    0    0  0.10126429188E+02 -0.84371587303E+02  0.10139353070E+03  0.15638712058E+03  0.83397686429E+02 0.  0.
        254    2    1    2    0    0 -0.10126429188E+02  0.84371587303E+02  0.25432247222E+04  0.26988806001E+04  0.89930161608E+03 0.  0.
         23    2    4    4    0    0  0.27006773235E+02 -0.46928868728E+02 -0.41645414347E+02  0.10889599954E+03  0.84807509446E+02 0.  0.
         23    2    4    4    0    0 -0.37133202424E+02  0.13130045603E+03  0.25848701365E+04  0.25899846005E+04  0.88588508730E+02 0.  0.
          3    1    3    3  502    0 -0.59454871278E+01 -0.32100756751E+02  0.96043173365E+02  0.10144012299E+03  0.00000000000E+00 0. -1.
         -4    1    3    3    0  502  0.16071916316E+02 -0.52270830552E+02  0.53503573377E+01  0.54946997592E+02  0.00000000000E+00 0.  1.
         11    1    5    5    0    0  0.22550405984E+02 -0.12019972936E+02 -0.62824265457E+02  0.67822480710E+02  0.00000000000E+00 0. -1.
        -11    1    5    5    0    0  0.44563672513E+01 -0.34908895792E+02  0.21178851110E+02  0.41073518827E+02  0.00000000000E+00 0.  1.
          4    1    6    6  503    0 -0.53363133645E+02  0.38496612791E+02  0.13006367148E+04  0.13023000718E+04  0.00000000000E+00 0. -1.
         -4    1    6    6    0  503  0.16229931222E+02  0.92803843240E+02  0.12842334217E+04  0.12876845287E+04  0.00000000000E+00 0.  1.
<mgrwt>
<rscale>  0 0.10763587E+04</rscale>
<asrwt>0</asrwt>
<pdfrwt beam="1">  1        1 0.42306810E+00 0.10763587E+04</pdfrwt>
<pdfrwt beam="2">  1       -2 0.16203807E-01 0.10763587E+04</pdfrwt>
<totfact> 0.24743088E+01</totfact>
</mgrwt>
</event>
<event>
12    4  0.4413110E-008  0.2371148E+04  0.7818608E-02  0.8450385E-01
          1   -1    0    0  501    0  0.00000000000E+00  0.00000000000E+00  0.12424479150E+04  0.12424479150E+04  0.00000000000E+00 0. -1.
         -2   -1    0    0    0  501 -0.00000000000E+00 -0.00000000000E+00 -0.11313037897E+04  0.11313037897E+04  0.00000000000E+00 0.  1.
        -24    2    1    2    0    0  0.48550242487E+03 -0.53619892813E+03 -0.66196067603E+03  0.98373570658E+03  0.79511689128E+02 0.  0.
        254    2    1    2    0    0 -0.48550242487E+03  0.53619892813E+03  0.77310480129E+03  0.13900159981E+04  0.90068393240E+03 0.  0.
         23    2    4    4    0    0  0.67014268395E+02  0.55693053313E+03  0.53366652722E+03  0.77972253424E+03  0.92221132229E+02 0.  0.
         23    2    4    4    0    0 -0.55251669326E+03 -0.20731604994E+02  0.23943827407E+03  0.61029346385E+03  0.97071773176E+02 0.  0.
          1    1    3    3  502    0  0.31575397829E+03 -0.29052048218E+03 -0.38800763474E+03  0.57849170261E+03  0.00000000000E+00 0. -1.
         -2    1    3    3    0  502  0.16974844657E+03 -0.24567844596E+03 -0.27395304129E+03  0.40524400397E+03  0.00000000000E+00 0.  1.
         11    1    5    5    0    0  0.79174090287E+02  0.45066399630E+03  0.39413355463E+03  0.60391045116E+03  0.00000000000E+00 0. -1.
        -11    1    5    5    0    0 -0.12159821893E+02  0.10626653682E+03  0.13953297258E+03  0.17581208307E+03  0.00000000000E+00 0.  1.
          2    1    6    6  503    0 -0.26679617138E+03 -0.28978420829E+02  0.16458864213E+03  0.31481640214E+03  0.00000000000E+00 0. -1.
         -2    1    6    6    0  503 -0.28572052188E+03  0.82468158351E+01  0.74849631942E+02  0.29547706171E+03  0.00000000000E+00 0.  1.
<mgrwt>
<rscale>  0 0.23711483E+04</rscale>
<asrwt>0</asrwt>
<pdfrwt beam="1">  1        1 0.19114583E+00 0.23711483E+04</pdfrwt>
<pdfrwt beam="2">  1       -2 0.17404674E+00 0.23711483E+04</pdfrwt>
<totfact> 0.15652536E+00</totfact>
</mgrwt>
</event>
<event>
12    4  0.4413110E-008  0.1545791E+04  0.7818608E-02  0.8854560E-01
          1   -1    0    0  501    0  0.00000000000E+00  0.00000000000E+00  0.11160776346E+04  0.11160776346E+04  0.00000000000E+00 0. -1.
         -2   -1    0    0    0  501 -0.00000000000E+00 -0.00000000000E+00 -0.53523858493E+03  0.53523858493E+03  0.00000000000E+00 0.  1.
        -24    2    1    2    0    0  0.20885815781E+03  0.43831945711E+03  0.51061345633E+02  0.49467346497E+03  0.79679980918E+02 0.  0.
        254    2    1    2    0    0 -0.20885815781E+03 -0.43831945711E+03  0.52977770403E+03  0.11566427546E+04  0.90631802885E+03 0.  0.
         23    2    4    4    0    0 -0.24650334010E+03  0.59731442139E+02 -0.15113063706E+03  0.30756858565E+03  0.86175539239E+02 0.  0.
         23    2    4    4    0    0  0.37645182284E+02 -0.49805089925E+03  0.68090834109E+03  0.84907416891E+03  0.88424642258E+02 0.  0.
          3    1    3    3  502    0  0.13310279105E+01  0.32165659213E+02  0.19147427551E+02  0.37456978652E+02  0.00000000000E+00 0. -1.
         -4    1    3    3    0  502  0.20752712990E+03  0.40615379790E+03  0.31913918082E+02  0.45721648632E+03  0.00000000000E+00 0.  1.
         11    1    5    5    0    0 -0.15109003541E+03  0.78548087499E+02 -0.88714889618E+02  0.19201128219E+03  0.00000000000E+00 0.  1.
        -11    1    5    5    0    0 -0.95413304688E+02 -0.18816645359E+02 -0.62415747438E+02  0.11555730346E+03  0.00000000000E+00 0. -1.
          4    1    6    6  503    0 -0.16287231251E+02 -0.54660491151E+02  0.11284910590E+03  0.12644352058E+03  0.00000000000E+00 0. -1.
         -4    1    6    6    0  503  0.53932413535E+02 -0.44339040810E+03  0.56805923519E+03  0.72263064833E+03  0.00000000000E+00 0.  1.
<mgrwt>
<rscale>  0 0.15457915E+04</rscale>
<asrwt>0</asrwt>
<pdfrwt beam="1">  1        1 0.17170425E+00 0.15457915E+04</pdfrwt>
<pdfrwt beam="2">  1       -2 0.82344398E-01 0.15457915E+04</pdfrwt>
<totfact> 0.13495858E+01</totfact>
</mgrwt>
</event>
<event>
12    4  0.4413110E-008  0.1635295E+04  0.7818608E-02  0.8799154E-01
         -2   -1    0    0    0  501 -0.00000000000E+00  0.00000000000E+00  0.68862494885E+03  0.68862494885E+03  0.00000000000E+00 0.  1.
          1   -1    0    0  501    0  0.00000000000E+00 -0.00000000000E+00 -0.97084413681E+03  0.97084413681E+03  0.00000000000E+00 0. -1.
        -24    2    1    2    0    0  0.40158422410E+03  0.15893599038E+03 -0.46711919688E+03  0.64121515851E+03  0.80162318600E+02 0.  0.
        254    2    1    2    0    0 -0.40158422410E+03 -0.15893599038E+03  0.18490000892E+03  0.10182539272E+04  0.90339499046E+03 0.  0.
         23    2    4    4    0    0 -0.31176253338E+01  0.32481823426E+03 -0.54330261444E+02  0.34134331148E+03  0.89704370480E+02 0.  0.
         23    2    4    4    0    0 -0.39846659876E+03 -0.48375422464E+03  0.23923027036E+03  0.67691061568E+03  0.90460373481E+02 0.  0.
          1    1    3    3  502    0  0.23491471082E+03  0.69400808104E+02 -0.31127225470E+03  0.39609570822E+03  0.00000000000E+00 0. -1.
         -2    1    3    3    0  502  0.16666951328E+03  0.89535182278E+02 -0.15584694218E+03  0.24511945029E+03  0.00000000000E+00 0.  1.
         11    1    5    5    0    0  0.27585388536E+02  0.24738873222E+03 -0.15394049910E+02  0.24939750453E+03  0.00000000000E+00 0. -1.
        -11    1    5    5    0    0 -0.30703013870E+02  0.77429502038E+02 -0.38936211533E+02  0.91945806947E+02  0.00000000000E+00 0.  1.
          2    1    6    6  503    0 -0.34074952202E+03 -0.44745069581E+03  0.19337457446E+03  0.59474035342E+03  0.00000000000E+00 0. -1.
         -2    1    6    6    0  503 -0.57717076741E+02 -0.36303528839E+02  0.45855695898E+02  0.82170262260E+02  0.00000000000E+00 0.  1.
<mgrwt>
<rscale>  0 0.16352951E+04</rscale>
<asrwt>0</asrwt>
<pdfrwt beam="1">  1        1 0.14936064E+00 0.16352951E+04</pdfrwt>
<pdfrwt beam="2">  1       -2 0.10594230E+00 0.16352951E+04</pdfrwt>
<totfact> 0.96255035E+00</totfact>
</mgrwt>
</event>
<event>
12    4  0.4413110E-008  0.1701637E+04  0.7818608E-02  0.8760431E-01
          1   -1    0    0  501    0  0.00000000000E+00  0.00000000000E+00  0.12467776668E+04  0.12467776668E+04  0.00000000000E+00 0. -1.
         -2   -1    0    0    0  501 -0.00000000000E+00 -0.00000000000E+00 -0.58061023784E+03  0.58061023784E+03  0.00000000000E+00 0.  1.
        -24    2    1    2    0    0 -0.39121951281E+03  0.48543604776E+03  0.26308608945E+03  0.68137772180E+03  0.79752402035E+02 0.  0.
        254    2    1    2    0    0  0.39121951281E+03 -0.48543604776E+03  0.40308133951E+03  0.11460101828E+04  0.87301999362E+03 0.  0.
         23    2    4    4    0    0 -0.90426847730E+02 -0.52189251207E+03  0.37051666350E+03  0.65316778706E+03  0.93790997302E+02 0.  0.
         23    2    4    4    0    0  0.48164636054E+03  0.36456464306E+02  0.32564676005E+02  0.49284239579E+03  0.92308604963E+02 0.  0.
          1    1    3    3  502    0 -0.36378611267E+03  0.47686468200E+03  0.25009131608E+03  0.64983530767E+03  0.00000000000E+00 0. -1.
         -2    1    3    3    0  502 -0.27433400144E+02  0.85713657620E+01  0.12994773371E+02  0.31542414135E+02  0.00000000000E+00 0.  1.
         11    1    5    5    0    0  0.11608957893E+02 -0.23043977784E+02  0.34619480551E+02  0.43177554923E+02  0.00000000000E+00 0.  1.
        -11    1    5    5    0    0 -0.10203580562E+03 -0.49884853428E+03  0.33589718295E+03  0.60999023214E+03  0.00000000000E+00 0. -1.
          3    1    6    6  503    0  0.33204397390E+03  0.61581237008E+02  0.44740952231E+02  0.34065701543E+03  0.00000000000E+00 0. -1.
         -3    1    6    6    0  503  0.14960238664E+03 -0.25124772702E+02 -0.12176276225E+02  0.15218538036E+03  0.00000000000E+00 0.  1.
<mgrwt>
<rscale>  0 0.17016367E+04</rscale>
<asrwt>0</asrwt>
<pdfrwt beam="1">  1        1 0.19181195E+00 0.17016367E+04</pdfrwt>
<pdfrwt beam="2">  1       -2 0.89324652E-01 0.17016367E+04</pdfrwt>
<totfact> 0.88671915E+00</totfact>
</mgrwt>
</event>
<event>
12    4  0.4413110E-008  0.1884904E+04  0.7818608E-02  0.8662407E-01
          1   -1    0    0  501    0  0.00000000000E+00  0.00000000000E+00  0.11674298234E+04  0.11674298234E+04  0.00000000000E+00 0. -1.
         -2   -1    0    0    0  501 -0.00000000000E+00 -0.00000000000E+00 -0.76083047760E+03  0.76083047760E+03  0.00000000000E+00 0.  1.
        -24    2    1    2    0    0  0.14555047881E+03  0.50194279883E+03  0.64990784531E+03  0.83747356782E+03  0.76486954549E+02 0.  0.
        254    2    1    2    0    0 -0.14555047881E+03 -0.50194279883E+03 -0.24330849952E+03  0.10907867332E+04  0.92600494392E+03 0.  0.
         23    2    4    4    0    0  0.22763408683E+03 -0.44439928113E+03 -0.42310441166E+03  0.66108946594E+03  0.93348488237E+02 0.  0.
         23    2    4    4    0    0 -0.37318456563E+03 -0.57543517697E+02  0.17979591213E+03  0.42969726724E+03  0.98667091770E+02 0.  0.
          3    1    3    3  502    0  0.15428436823E+03  0.45640679846E+03  0.59581272299E+03  0.76622688079E+03  0.00000000000E+00 0. -1.
         -4    1    3    3    0  502 -0.87338894214E+01  0.45536000365E+02  0.54095122319E+02  0.71246687027E+02  0.00000000000E+00 0.  1.
         11    1    5    5    0    0  0.17315987550E+03 -0.25890569124E+03 -0.29623777870E+03  0.42985267356E+03  0.00000000000E+00 0.  1.
        -11    1    5    5    0    0  0.54474211323E+02 -0.18549358989E+03 -0.12686663296E+03  0.23123679238E+03  0.00000000000E+00 0. -1.
          1    1    6    6  503    0 -0.18900036522E+03  0.92832766703E+01  0.12302978449E+03  0.22570698959E+03  0.00000000000E+00 0. -1.
         -1    1    6    6    0  503 -0.18418420041E+03 -0.66826794367E+02  0.56766127641E+02  0.20399027765E+03  0.00000000000E+00 0.  1.
<mgrwt>
<rscale>  0 0.18849044E+04</rscale>
<asrwt>0</asrwt>
<pdfrwt beam="1">  1        1 0.17960459E+00 0.18849044E+04</pdfrwt>
<pdfrwt beam="2">  1       -2 0.11705084E+00 0.18849044E+04</pdfrwt>
<totfact> 0.52391310E+00</totfact>
</mgrwt>
</event>
<event>
12    4  0.4413110E-008  0.1157471E+04  0.7818608E-02  0.9150918E-01
         -2   -1    0    0    0  501 -0.00000000000E+00  0.00000000000E+00  0.19405269665E+03  0.19405269665E+03  0.00000000000E+00 0.  1.
          1   -1    0    0  501    0  0.00000000000E+00 -0.00000000000E+00 -0.17260001100E+04  0.17260001100E+04  0.00000000000E+00 0. -1.
        -24    2    1    2    0    0 -0.24301597323E+02 -0.29046988993E+02  0.46859401747E+02  0.99581147250E+02  0.79286229280E+02 0.  0.
        254    2    1    2    0    0  0.24301597323E+02  0.29046988993E+02 -0.15788068151E+04  0.18204716594E+04  0.90556711962E+03 0.  0.
         23    2    4    4    0    0 -0.34623306110E+03 -0.10585712951E+03 -0.29745940934E+03  0.47670894761E+03  0.87671295523E+02 0.  0.
         23    2    4    4    0    0  0.37053465842E+03  0.13490411850E+03 -0.12813474058E+04  0.13437627118E+04  0.91389261485E+02 0.  0.
          3    1    3    3  502    0 -0.41797380026E+02  0.50771405907E+01  0.43468310256E+01  0.42328397957E+02  0.00000000000E+00 0. -1.
         -4    1    3    3    0  502  0.17495782703E+02 -0.34124129584E+02  0.42512570721E+02  0.57252749293E+02  0.00000000000E+00 0.  1.
         11    1    5    5    0    0 -0.21389995806E+03 -0.10874488792E+03 -0.18423463274E+03  0.30252444960E+03  0.00000000000E+00 0. -1.
        -11    1    5    5    0    0 -0.13233310304E+03  0.28877584153E+01 -0.11322477660E+03  0.17418449801E+03  0.00000000000E+00 0.  1.
          1    1    6    6  503    0  0.14446483904E+03  0.10057208623E+03 -0.57168220493E+03  0.59816835229E+03  0.00000000000E+00 0. -1.
         -1    1    6    6    0  503  0.22606981939E+03  0.34332032273E+02 -0.70966520086E+03  0.74559435955E+03  0.00000000000E+00 0.  1.
<mgrwt>
<rscale>  0 0.11574713E+04</rscale>
<asrwt>0</asrwt>
<pdfrwt beam="1">  1        1 0.26553848E+00 0.11574713E+04</pdfrwt>
<pdfrwt beam="2">  1       -2 0.29854261E-01 0.11574713E+04</pdfrwt>
<totfact> 0.41275161E+01</totfact>
</mgrwt>
</event>
<event>
12    4  0.4413110E-008  0.1397239E+04  0.7818608E-02  0.8955819E-01
          1   -1    0    0  501    0  0.00000000000E+00  0.00000000000E+00  0.27513865642E+04  0.27513865642E+04  0.00000000000E+00 0. -1.
         -4   -1    0    0    0  501 -0.00000000000E+00 -0.00000000000E+00 -0.17739038432E+03  0.17739038432E+03  0.00000000000E+00 0.  1.
        -24    2    1    2    0    0 -0.29288032944E+03  0.62816968587E+02  0.13215613384E+04  0.13572602240E+04  0.76851061585E+02 0.  0.
        254    2    1    2    0    0  0.29288032944E+03 -0.62816968587E+02  0.12524348415E+04  0.15715167245E+04  0.90074798047E+03 0.  0.
         23    2    4    4    0    0 -0.26726809196E+03  0.10788145378E+03  0.69243219095E+03  0.75603816730E+03  0.95187868455E+02 0.  0.
         23    2    4    4    0    0  0.56014842140E+03 -0.17069842236E+03  0.56000265059E+03  0.81547855725E+03  0.92185157535E+02 0.  0.
          3    1    3    3  502    0 -0.29527535122E+03  0.54753308489E+02  0.12964575696E+04  0.13307846136E+04  0.00000000000E+00 0. -1.
         -4    1    3    3    0  502  0.23950217761E+01  0.80636600977E+01  0.25103768718E+02  0.26475610424E+02  0.00000000000E+00 0.  1.
         11    1    5    5    0    0 -0.27497359009E+03  0.10599484094E+03  0.68188239141E+03  0.74283845973E+03  0.00000000000E+00 0. -1.
        -11    1    5    5    0    0  0.77054981271E+01  0.18866128392E+01  0.10549799543E+02  0.13199707565E+02  0.00000000000E+00 0.  1.
          2    1    6    6  503    0  0.47372296653E+03 -0.12381403521E+03  0.42429995787E+03  0.64789954359E+03  0.00000000000E+00 0. -1.
         -2    1    6    6    0  503  0.86425454870E+02 -0.46884387151E+02  0.13570269272E+03  0.16757901366E+03  0.00000000000E+00 0.  1.
<mgrwt>
<rscale>  0 0.13972394E+04</rscale>
<asrwt>0</asrwt>
<pdfrwt beam="1">  1        1 0.42329021E+00 0.13972394E+04</pdfrwt>
<pdfrwt beam="2">  1       -4 0.27290830E-01 0.13972394E+04</pdfrwt>
<totfact> 0.57075787E+00</totfact>
</mgrwt>
</event>
<event>
12    4  0.5190898E-008  0.2266490E+04  0.7818608E-02  0.8491252E-01
          1   -1    0    0  501    0  0.00000000000E+00  0.00000000000E+00  0.12654362150E+04  0.12654362150E+04  0.00000000000E+00 0. -1.
         -2   -1    0    0    0  501 -0.00000000000E+00 -0.00000000000E+00 -0.10148629828E+04  0.10148629828E+04  0.00000000000E+00 0.  1.
        -24    2    1    2    0    0 -0.19210557820E+03  0.15329255196E+02  0.10432270289E+04  0.10638892735E+04  0.79988832123E+02 0.  0.
        254    2    1    2    0    0  0.19210557820E+03 -0.15329255196E+02 -0.79265379661E+03  0.12164099243E+04  0.90233781008E+03 0.  0.
         23    2    4    4    0    0 -0.29800262767E+03 -0.21322831787E+03 -0.40962175777E+03  0.55713897825E+03  0.91334413074E+02 0.  0.
         23    2    4    4    0    0  0.49010820586E+03  0.19789906267E+03 -0.38303203884E+03  0.65927094608E+03  0.92490783886E+02 0.  0.
          1    1    3    3  502    0 -0.12586866760E+03 -0.34054406750E+01  0.83846006813E+03  0.84786190170E+03  0.00000000000E+00 0. -1.
         -2    1    3    3    0  502 -0.66236910603E+02  0.18734695870E+02  0.20476696074E+03  0.21602737180E+03  0.00000000000E+00 0.  1.
         11    1    5    5    0    0 -0.55229068766E+00 -0.35449804948E+01  0.45493252635E+01  0.57938132577E+01  0.00000000000E+00 0. -1.
        -11    1    5    5    0    0 -0.29745033698E+03 -0.20968333737E+03 -0.41417108304E+03  0.55134516500E+03  0.00000000000E+00 0.  1.
          4    1    6    6  503    0  0.76516464408E+01 -0.60513749655E+00 -0.25976381910E+02  0.27086644343E+02  0.00000000000E+00 0. -1.
         -4    1    6    6    0  503  0.48245655942E+03  0.19850420017E+03 -0.35705565693E+03  0.63218430174E+03  0.00000000000E+00 0.  1.
<mgrwt>
<rscale>  0 0.22664901E+04</rscale>
<asrwt>0</asrwt>
<pdfrwt beam="1">  1        1 0.19468249E+00 0.22664901E+04</pdfrwt>
<pdfrwt beam="2">  1       -2 0.15613277E+00 0.22664901E+04</pdfrwt>
<totfact> 0.20508038E+00</totfact>
</mgrwt>
</event>
<event>
12    4  0.4413110E-008  0.1846436E+04  0.7818608E-02  0.8681988E-01
         -2   -1    0    0    0  501 -0.00000000000E+00  0.00000000000E+00  0.23092669802E+03  0.23092669802E+03  0.00000000000E+00 0.  1.
          1   -1    0    0  501    0  0.00000000000E+00 -0.00000000000E+00 -0.36909194808E+04  0.36909194808E+04  0.00000000000E+00 0. -1.
        -24    2    1    2    0    0  0.63960051541E+03 -0.11185192312E+02 -0.71536467274E+03  0.96301586779E+03  0.80243496854E+02 0.  0.
        254    2    1    2    0    0 -0.63960051541E+03  0.11185192312E+02 -0.27446281100E+04  0.29588303110E+04  0.90137640261E+03 0.  0.
         23    2    4    4    0    0 -0.60565152659E+03  0.26416103308E+03 -0.10590727214E+04  0.12516071363E+04  0.91052574797E+02 0.  0.
         23    2    4    4    0    0 -0.33948988820E+02 -0.25297584077E+03 -0.16855553886E+04  0.17072231747E+04  0.91458680785E+02 0.  0.
          1    1    3    3  502    0  0.13321143877E+03  0.30026761028E+02 -0.15834181181E+03  0.20909094472E+03  0.00000000000E+00 0. -1.
         -2    1    3    3    0  502  0.50638907664E+03 -0.41211953340E+02 -0.55702286092E+03  0.75392492307E+03  0.00000000000E+00 0.  1.
         11    1    5    5    0    0 -0.36650809277E+03  0.11206731529E+03 -0.58939316757E+03  0.70304450158E+03  0.00000000000E+00 0. -1.
        -11    1    5    5    0    0 -0.23914343381E+03  0.15209371779E+03 -0.46967955386E+03  0.54856263474E+03  0.00000000000E+00 0.  1.
          4    1    6    6  503    0 -0.17602553293E+02 -0.53789159880E+02 -0.65684181147E+03  0.65927557888E+03  0.00000000000E+00 0. -1.
         -4    1    6    6    0  503 -0.16346435527E+02 -0.19918668089E+03 -0.10287135771E+04  0.10479475958E+04  0.00000000000E+00 0.  1.
<mgrwt>
<rscale>  0 0.18464364E+04</rscale>
<asrwt>0</asrwt>
<pdfrwt beam="1">  1        1 0.56783373E+00 0.18464364E+04</pdfrwt>
<pdfrwt beam="2">  1       -2 0.35527187E-01 0.18464364E+04</pdfrwt>
<totfact> 0.10869472E+00</totfact>
</mgrwt>
</event>
<event>
12    4  0.4413110E-008  0.1996584E+04  0.7818608E-02  0.8608220E-01
          1   -1    0    0  501    0  0.00000000000E+00  0.00000000000E+00  0.25386788716E+04  0.25386788716E+04  0.00000000000E+00 0. -1.
         -2   -1    0    0    0  501 -0.00000000000E+00 -0.00000000000E+00 -0.39256106655E+03  0.39256106655E+03  0.00000000000E+00 0.  1.
        -24    2    1    2    0    0  0.95849564852E+01 -0.16391802614E+03 -0.28233487527E+03  0.33601167492E+03  0.78929545841E+02 0.  0.
        254    2    1    2    0    0 -0.95849564852E+01  0.16391802614E+03  0.24284526803E+04  0.25952282632E+04  0.90048116420E+03 0.  0.
         23    2    4    4    0    0  0.12574149585E+03  0.48063646881E+03  0.18350528573E+04  0.19032808649E+04  0.90756392729E+02 0.  0.
         23    2    4    4    0    0 -0.13532645233E+03 -0.31671844267E+03  0.59339982300E+03  0.69194739829E+03  0.89688524500E+02 0.  0.
          3    1    3    3  502    0  0.21828983965E+02 -0.14591411568E+03 -0.18685251679E+03  0.23807834157E+03  0.00000000000E+00 0. -1.
         -4    1    3    3    0  502 -0.12244027479E+02 -0.18003910469E+02 -0.95482358479E+02  0.97933333354E+02  0.00000000000E+00 0.  1.
         11    1    5    5    0    0  0.11155548237E+03  0.37878795264E+03  0.15721837959E+04  0.16210141353E+04  0.00000000000E+00 0.  1.
        -11    1    5    5    0    0  0.14186013473E+02  0.10184851617E+03  0.26286906136E+03  0.28226672962E+03  0.00000000000E+00 0. -1.
          1    1    6    6  503    0 -0.29366538425E+02 -0.61712204207E+02  0.19959448424E+03  0.21097096451E+03  0.00000000000E+00 0. -1.
         -1    1    6    6    0  503 -0.10595991391E+03 -0.25500623846E+03  0.39380533876E+03  0.48097643378E+03  0.00000000000E+00 0.  1.
<mgrwt>
<rscale>  0 0.19965836E+04</rscale>
<asrwt>0</asrwt>
<pdfrwt beam="1">  1        1 0.39056597E+00 0.19965836E+04</pdfrwt>
<pdfrwt beam="2">  1       -2 0.60394012E-01 0.19965836E+04</pdfrwt>
<totfact> 0.26529076E+00</totfact>
</mgrwt>
</event>
<event>
12    4  0.4413110E-008  0.1588130E+04  0.7818608E-02  0.8827874E-01
         -2   -1    0    0    0  501 -0.00000000000E+00  0.00000000000E+00  0.43406057465E+03  0.43406057465E+03  0.00000000000E+00 0.  1.
          1   -1    0    0  501    0  0.00000000000E+00 -0.00000000000E+00 -0.14526523691E+04  0.14526523691E+04  0.00000000000E+00 0. -1.
        -24    2    1    2    0    0  0.50756852009E+03 -0.15971298772E+03 -0.47093584503E+03  0.71488484972E+03  0.78394752302E+02 0.  0.
        254    2    1    2    0    0 -0.50756852009E+03  0.15971298772E+03 -0.54765594945E+03  0.11718280941E+04  0.88888694559E+03 0.  0.
         23    2    4    4    0    0 -0.18787997593E+02  0.52226239947E+01 -0.63622430326E+03  0.64331329704E+03  0.93222150979E+02 0.  0.
         23    2    4    4    0    0 -0.48878052250E+03  0.15449036372E+03  0.88568353810E+02  0.52851479703E+03  0.93326661406E+02 0.  0.
          3    1    3    3  502    0  0.29578834246E+03 -0.11222851261E+03 -0.32366540873E+03  0.45259836432E+03  0.00000000000E+00 0. -1.
         -4    1    3    3    0  502  0.21178017763E+03 -0.47484475103E+02 -0.14727043630E+03  0.26228648540E+03  0.00000000000E+00 0.  1.
         11    1    5    5    0    0 -0.21876421845E+02 -0.38648152543E+02 -0.19966342239E+03  0.20454275780E+03  0.00000000000E+00 0. -1.
        -11    1    5    5    0    0  0.30884242518E+01  0.43870776537E+02 -0.43656088086E+03  0.43877053923E+03  0.00000000000E+00 0.  1.
          3    1    6    6  503    0 -0.14017329512E+03  0.88132847261E+02  0.16436426796E+02  0.16639142873E+03  0.00000000000E+00 0. -1.
         -3    1    6    6    0  503 -0.34860722738E+03  0.66357516460E+02  0.72131927014E+02  0.36212336830E+03  0.00000000000E+00 0.  1.
<mgrwt>
<rscale>  0 0.15881299E+04</rscale>
<asrwt>0</asrwt>
<pdfrwt beam="1">  1        1 0.22348498E+00 0.15881299E+04</pdfrwt>
<pdfrwt beam="2">  1       -2 0.66778549E-01 0.15881299E+04</pdfrwt>
<totfact> 0.12248944E+01</totfact>
</mgrwt>
</event>
<event>
12    4  0.4413110E-008  0.1479384E+04  0.7818608E-02  0.8898279E-01
         -2   -1    0    0    0  501 -0.00000000000E+00  0.00000000000E+00  0.60744586754E+03  0.60744586754E+03  0.00000000000E+00 0.  1.
          1   -1    0    0  501    0  0.00000000000E+00 -0.00000000000E+00 -0.90072962622E+03  0.90072962622E+03  0.00000000000E+00 0. -1.
        -24    2    1    2    0    0 -0.40705468767E+03  0.16399131196E+03 -0.25677689847E+03  0.51495438719E+03  0.81590294444E+02 0.  0.
        254    2    1    2    0    0  0.40705468767E+03 -0.16399131196E+03 -0.36506860211E+02  0.99322110657E+03  0.89026330180E+03 0.  0.
         23    2    4    4    0    0 -0.11830607163E+02 -0.38531370928E+03  0.21315476084E+03  0.45022877487E+03  0.93082650482E+02 0.  0.
         23    2    4    4    0    0  0.41888529483E+03  0.22132239732E+03 -0.24966162105E+03  0.54299233170E+03  0.89784483499E+02 0.  0.
          3    1    3    3  502    0 -0.35087611103E+03  0.11340448803E+03 -0.23078445171E+03  0.43501274275E+03  0.00000000000E+00 0. -1.
         -4    1    3    3    0  502 -0.56178576634E+02  0.50586823927E+02 -0.25992446754E+02  0.79941644441E+02  0.00000000000E+00 0.  1.
         11    1    5    5    0    0  0.45353189318E+01 -0.35789104166E+03  0.21619898041E+03  0.41814897578E+03  0.00000000000E+00 0. -1.
        -11    1    5    5    0    0 -0.16365926095E+02 -0.27422667622E+02 -0.30442195658E+01  0.32079799083E+02  0.00000000000E+00 0.  1.
          4    1    6    6  503    0  0.36130674055E+03  0.21908709658E+03 -0.23516641012E+03  0.48357518248E+03  0.00000000000E+00 0. -1.
         -4    1    6    6    0  503  0.57578554277E+02  0.22353007391E+01 -0.14495210937E+02  0.59417149226E+02  0.00000000000E+00 0.  1.
<mgrwt>
<rscale>  0 0.14793843E+04</rscale>
<asrwt>0</asrwt>
<pdfrwt beam="1">  1        1 0.13857379E+00 0.14793843E+04</pdfrwt>
<pdfrwt beam="2">  1       -2 0.93453211E-01 0.14793843E+04</pdfrwt>
<totfact> 0.14944339E+01</totfact>
</mgrwt>
</event>
<event>
12    4  0.4413110E-008  0.1853312E+04  0.7818608E-02  0.8678451E-01
          1   -1    0    0  501    0  0.00000000000E+00  0.00000000000E+00  0.68677426162E+03  0.68677426162E+03  0.00000000000E+00 0. -1.
         -2   -1    0    0    0  501 -0.00000000000E+00 -0.00000000000E+00 -0.12503255125E+04  0.12503255125E+04  0.00000000000E+00 0.  1.
        -24    2    1    2    0    0 -0.46845102284E+03 -0.23875959049E+03  0.28149899288E+03  0.60168412672E+03  0.79558799063E+02 0.  0.
        254    2    1    2    0    0  0.46845102284E+03  0.23875959049E+03 -0.84505024380E+03  0.13354156474E+04  0.89037774795E+03 0.  0.
         23    2    4    4    0    0  0.36827419765E+03  0.46157217856E+03 -0.18423415202E+03  0.62530583020E+03  0.91599114797E+02 0.  0.
         23    2    4    4    0    0  0.10017682519E+03 -0.22281258808E+03 -0.66081609177E+03  0.71010981724E+03  0.88866189781E+02 0.  0.
          3    1    3    3  502    0 -0.46775263709E+03 -0.22717969005E+03  0.27749189717E+03  0.58941063281E+03  0.00000000000E+00 0. -1.
         -4    1    3    3    0  502 -0.69838575226E+00 -0.11579900437E+02  0.40070957051E+01  0.12273493911E+02  0.00000000000E+00 0.  1.
         11    1    5    5    0    0  0.16018495135E+03  0.14174535446E+03 -0.91446351181E+02  0.23262286924E+03  0.00000000000E+00 0.  1.
        -11    1    5    5    0    0  0.20808924630E+03  0.31982682411E+03 -0.92787800844E+02  0.39268296096E+03  0.00000000000E+00 0. -1.
          1    1    6    6  503    0  0.56989079336E+01  0.84204586369E+01 -0.25554671604E+02  0.27503143749E+02  0.00000000000E+00 0. -1.
         -1    1    6    6    0  503  0.94477917258E+02 -0.23123304671E+03 -0.63526142017E+03  0.68260667349E+03  0.00000000000E+00 0.  1.
<mgrwt>
<rscale>  0 0.18533120E+04</rscale>
<asrwt>0</asrwt>
<pdfrwt beam="1">  1        1 0.10565758E+00 0.18533120E+04</pdfrwt>
<pdfrwt beam="2">  1       -2 0.19235777E+00 0.18533120E+04</pdfrwt>
<totfact> 0.34457672E+00</totfact>
</mgrwt>
</event>
<event>
12    4  0.4413110E-008  0.1504928E+04  0.7818608E-02  0.8881182E-01
         -2   -1    0    0    0  501 -0.00000000000E+00  0.00000000000E+00  0.20956936453E+03  0.20956936453E+03  0.00000000000E+00 0.  1.
          1   -1    0    0  501    0  0.00000000000E+00 -0.00000000000E+00 -0.27017415120E+04  0.27017415120E+04  0.00000000000E+00 0. -1.
        -24    2    1    2    0    0 -0.25649759199E+03  0.18300393960E+03 -0.10427702521E+03  0.34126889889E+03  0.79431144720E+02 0.  0.
        254    2    1    2    0    0  0.25649759199E+03 -0.18300393960E+03 -0.23878951223E+04  0.25700419776E+04  0.89654402869E+03 0.  0.
         23    2    4    4    0    0  0.39374069914E+03 -0.10978495247E+03 -0.23484314417E+04  0.23854268292E+04  0.89701989910E+02 0.  0.
         23    2    4    4    0    0 -0.13724310715E+03 -0.73218987135E+02 -0.39463680531E+02  0.18461514846E+03  0.91261604313E+02 0.  0.
          3    1    3    3  502    0 -0.59069903078E+02  0.11565388761E+02 -0.39157544526E+02  0.71807555035E+02  0.00000000000E+00 0. -1.
         -4    1    3    3    0  502 -0.19742768891E+03  0.17143855084E+03 -0.65119480689E+02  0.26946134385E+03  0.00000000000E+00 0.  1.
         11    1    5    5    0    0  0.37395323837E+03 -0.83552526274E+02 -0.20808271041E+04  0.21158127247E+04  0.00000000000E+00 0. -1.
        -11    1    5    5    0    0  0.19787460770E+02 -0.26232426196E+02 -0.26760433765E+03  0.26961410445E+03  0.00000000000E+00 0.  1.
          1    1    6    6  503    0 -0.78070143713E+02 -0.77278741097E+02 -0.55639411370E+02  0.12313689643E+03  0.00000000000E+00 0. -1.
         -1    1    6    6    0  503 -0.59172963436E+02  0.40597539618E+01  0.16175730839E+02  0.61478252027E+02  0.00000000000E+00 0.  1.
<mgrwt>
<rscale>  0 0.15049282E+04</rscale>
<asrwt>0</asrwt>
<pdfrwt beam="1">  1        1 0.41565251E+00 0.15049282E+04</pdfrwt>
<pdfrwt beam="2">  1       -2 0.32241443E-01 0.15049282E+04</pdfrwt>
<totfact> 0.74705263E+00</totfact>
</mgrwt>
</event>
<event>
12    4  0.4413110E-008  0.2756302E+04  0.7818608E-02  0.8316965E-01
         -2   -1    0    0    0  501 -0.00000000000E+00  0.00000000000E+00  0.13679660169E+04  0.13679660169E+04  0.00000000000E+00 0.  1.
          1   -1    0    0  501    0  0.00000000000E+00 -0.00000000000E+00 -0.13884114093E+04  0.13884114093E+04  0.00000000000E+00 0. -1.
        -24    2    1    2    0    0 -0.85138703602E+02 -0.12240830623E+04  0.71109687421E+02  0.12316205127E+04  0.78769013192E+02 0.  0.
        254    2    1    2    0    0  0.85138703602E+02  0.12240830623E+04 -0.91555079816E+02  0.15247569136E+04  0.90048507519E+03 0.  0.
         23    2    4    4    0    0 -0.25899528663E+03  0.89004531331E+03  0.20503046962E+03  0.95302689844E+03  0.83447932508E+02 0.  0.
         23    2    4    4    0    0  0.34413399023E+03  0.33403774897E+03 -0.29658554944E+03  0.57173001513E+03  0.94354655923E+02 0.  0.
          3    1    3    3  502    0 -0.80256928814E+02 -0.11496818822E+04  0.47683311373E+02  0.11534657788E+04  0.00000000000E+00 0. -1.
         -4    1    3    3    0  502 -0.48817747886E+01 -0.74401180127E+02  0.23426376048E+02  0.78154733857E+02  0.00000000000E+00 0.  1.
         11    1    5    5    0    0 -0.25327694755E+03  0.77249542314E+03  0.18284783815E+03  0.83326569763E+03  0.00000000000E+00 0.  1.
        -11    1    5    5    0    0 -0.57183390813E+01  0.11754989017E+03  0.22182631465E+02  0.11976120081E+03  0.00000000000E+00 0. -1.
          1    1    6    6  503    0  0.36573578077E+02  0.49430476613E+02 -0.77321881490E+02  0.98791052169E+02  0.00000000000E+00 0. -1.
         -1    1    6    6    0  503  0.30756041216E+03  0.28460727236E+03 -0.21926366795E+03  0.47293896296E+03  0.00000000000E+00 0.  1.
<mgrwt>
<rscale>  0 0.27563016E+04</rscale>
<asrwt>0</asrwt>
<pdfrwt beam="1">  1        1 0.21360175E+00 0.27563016E+04</pdfrwt>
<pdfrwt beam="2">  1       -2 0.21045631E+00 0.27563016E+04</pdfrwt>
<totfact> 0.67932238E-01</totfact>
</mgrwt>
</event>
<event>
12    4  0.4413110E-008  0.1550220E+04  0.7818608E-02  0.8851727E-01
         -2   -1    0    0    0  501 -0.00000000000E+00  0.00000000000E+00  0.29753984863E+03  0.29753984863E+03  0.00000000000E+00 0.  1.
          1   -1    0    0  501    0  0.00000000000E+00 -0.00000000000E+00 -0.20192096249E+04  0.20192096249E+04  0.00000000000E+00 0. -1.
        -24    2    1    2    0    0  0.37091900281E+03 -0.32377905679E+03 -0.76575295639E+03  0.91398822824E+03  0.81136347490E+02 0.  0.
        254    2    1    2    0    0 -0.37091900281E+03  0.32377905679E+03 -0.95591681991E+03  0.14027612453E+04  0.90085978959E+03 0.  0.
         23    2    4    4    0    0 -0.56517683568E+03  0.29874951352E+02 -0.28687933781E+03  0.64111286235E+03  0.91698306946E+02 0.  0.
         23    2    4    4    0    0  0.19425783287E+03  0.29390410544E+03 -0.66903748211E+03  0.76164838296E+03  0.91549866072E+02 0.  0.
          3    1    3    3  502    0  0.14101601849E+03 -0.13909825592E+03 -0.37895088578E+03  0.42759515445E+03  0.00000000000E+00 0. -1.
         -4    1    3    3    0  502  0.22990298433E+03 -0.18468080087E+03 -0.38680207060E+03  0.48639307379E+03  0.00000000000E+00 0.  1.
         11    1    5    5    0    0 -0.29320994278E+03  0.10449029144E+02 -0.19948498520E+03  0.35478939115E+03  0.00000000000E+00 0.  1.
        -11    1    5    5    0    0 -0.27196689291E+03  0.19425922208E+02 -0.87394352607E+02  0.28632347120E+03  0.00000000000E+00 0. -1.
          3    1    6    6  503    0 -0.19278430177E+01  0.54060926753E+02 -0.10379105358E+03  0.11704222821E+03  0.00000000000E+00 0. -1.
         -3    1    6    6    0  503  0.19618567589E+03  0.23984317869E+03 -0.56524642853E+03  0.64460615476E+03  0.00000000000E+00 0.  1.
<mgrwt>
<rscale>  0 0.15502198E+04</rscale>
<asrwt>0</asrwt>
<pdfrwt beam="1">  1        1 0.31064762E+00 0.15502198E+04</pdfrwt>
<pdfrwt beam="2">  1       -2 0.45775363E-01 0.15502198E+04</pdfrwt>
<totfact> 0.11075206E+01</totfact>
</mgrwt>
</event>
<event>
12    4  0.4413110E-008  0.1334858E+04  0.7818608E-02  0.9002371E-01
          1   -1    0    0  501    0  0.00000000000E+00  0.00000000000E+00  0.58109389949E+03  0.58109389949E+03  0.00000000000E+00 0. -1.
         -2   -1    0    0    0  501 -0.00000000000E+00 -0.00000000000E+00 -0.76659064316E+03  0.76659064316E+03  0.00000000000E+00 0.  1.
        -24    2    1    2    0    0 -0.24922613052E+03  0.23937914565E+03  0.40549074920E+02  0.35714485832E+03  0.80574082962E+02 0.  0.
        254    2    1    2    0    0  0.24922613052E+03 -0.23937914565E+03 -0.22604581859E+03  0.99053968432E+03  0.90036443433E+03 0.  0.
         23    2    4    4    0    0  0.43244794375E+03 -0.51121108941E+02 -0.45073524361E+03  0.63308180286E+03  0.89474674913E+02 0.  0.
         23    2    4    4    0    0 -0.18322181323E+03 -0.18825803671E+03  0.22468942502E+03  0.35745788146E+03  0.90991637353E+02 0.  0.
          3    1    3    3  502    0 -0.11957956260E+03  0.11312870499E+03  0.59851518515E+02  0.17515587330E+03  0.00000000000E+00 0. -1.
         -4    1    3    3    0  502 -0.12964656792E+03  0.12625044067E+03 -0.19302443595E+02  0.18198898502E+03  0.00000000000E+00 0.  1.
         11    1    5    5    0    0  0.53456823236E+02  0.10048848619E+02 -0.25126607420E+02  0.59916255803E+02  0.00000000000E+00 0. -1.
        -11    1    5    5    0    0  0.37899112051E+03 -0.61169957560E+02 -0.42560863619E+03  0.57316554706E+03  0.00000000000E+00 0.  1.
          2    1    6    6  503    0 -0.13632729199E+03 -0.14201670913E+03  0.21393533617E+03  0.29072702708E+03  0.00000000000E+00 0.  1.
         -2    1    6    6    0  503 -0.46894521240E+02 -0.46241327580E+02  0.10754088857E+02  0.66730854377E+02  0.00000000000E+00 0. -1.
<mgrwt>
<rscale>  0 0.13348575E+04</rscale>
<asrwt>0</asrwt>
<pdfrwt beam="1">  1        1 0.89399062E-01 0.13348575E+04</pdfrwt>
<pdfrwt beam="2">  1       -2 0.11793702E+00 0.13348575E+04</pdfrwt>
<totfact> 0.17043471E+01</totfact>
</mgrwt>
</event>
<event>
12    4  0.4413110E-008  0.1219810E+04  0.7818608E-02  0.9095692E-01
         -2   -1    0    0    0  501 -0.00000000000E+00  0.00000000000E+00  0.33902536543E+03  0.33902536543E+03  0.00000000000E+00 0.  1.
          1   -1    0    0  501    0  0.00000000000E+00 -0.00000000000E+00 -0.10972156917E+04  0.10972156917E+04  0.00000000000E+00 0. -1.
        -24    2    1    2    0    0  0.14066130280E+03 -0.14852790177E+03  0.33051032538E+02  0.22180498925E+03  0.79113480490E+02 0.  0.
        254    2    1    2    0    0 -0.14066130280E+03  0.14852790177E+03 -0.79124135884E+03  0.12144360679E+04  0.89830169510E+03 0.  0.
         23    2    4    4    0    0  0.36924712045E+03  0.11397503812E+03 -0.27386737071E+03  0.48247764133E+03  0.91910784825E+02 0.  0.
         23    2    4    4    0    0 -0.50990842325E+03  0.34552863646E+02 -0.51737398814E+03  0.73195842659E+03  0.82986710795E+02 0.  0.
          3    1    3    3  502    0  0.46952773159E+02 -0.13063553431E+02 -0.13619214142E+02  0.50603382589E+02  0.00000000000E+00 0. -1.
         -4    1    3    3    0  502  0.93708529637E+02 -0.13546434834E+03  0.46670246679E+02  0.17120160666E+03  0.00000000000E+00 0.  1.
         11    1    5    5    0    0  0.35105754635E+03  0.11868686561E+03 -0.27797087623E+03  0.46324483910E+03  0.00000000000E+00 0. -1.
        -11    1    5    5    0    0  0.18189574103E+02 -0.47118274847E+01  0.41035055193E+01  0.19232802236E+02  0.00000000000E+00 0.  1.
          1    1    6    6  503    0 -0.47859342154E+03  0.12762569470E+02 -0.48951814816E+03  0.68472079252E+03  0.00000000000E+00 0. -1.
         -1    1    6    6    0  503 -0.31315001708E+02  0.21790294176E+02 -0.27855839971E+02  0.47237634072E+02  0.00000000000E+00 0.  1.
<mgrwt>
<rscale>  0 0.12198097E+04</rscale>
<asrwt>0</asrwt>
<pdfrwt beam="1">  1        1 0.16880241E+00 0.12198097E+04</pdfrwt>
<pdfrwt beam="2">  1       -2 0.52157750E-01 0.12198097E+04</pdfrwt>
<totfact> 0.38309512E+01</totfact>
</mgrwt>
</event>
<event>
12    4  0.4413110E-008  0.1301165E+04  0.7818608E-02  0.9028642E-01
          1   -1    0    0  501    0  0.00000000000E+00  0.00000000000E+00  0.11000820960E+04  0.11000820960E+04  0.00000000000E+00 0. -1.
         -2   -1    0    0    0  501 -0.00000000000E+00 -0.00000000000E+00 -0.38475065105E+03  0.38475065105E+03  0.00000000000E+00 0.  1.
        -24    2    1    2    0    0 -0.13182865469E+03 -0.32629384565E+02 -0.14737068334E+03  0.21515852400E+03  0.78304541436E+02 0.  0.
        254    2    1    2    0    0  0.13182865469E+03  0.32629384565E+02  0.86270212831E+03  0.12696742231E+04  0.92161499532E+03 0.  0.
         23    2    4    4    0    0  0.30622603443E+03 -0.11184549022E+03  0.95278629417E+03  0.10111224202E+04  0.91011144108E+02 0.  0.
         23    2    4    4    0    0 -0.17439737974E+03  0.14447487478E+03 -0.90084165865E+02  0.25855180290E+03  0.86292771070E+02 0.  0.
          1    1    3    3  502    0 -0.36708741717E+02  0.88812630993E+00 -0.16628346463E+00  0.36719860252E+02  0.00000000000E+00 0. -1.
         -2    1    3    3    0  502 -0.95119912971E+02 -0.33517510875E+02 -0.14720439987E+03  0.17843866375E+03  0.00000000000E+00 0.  1.
         11    1    5    5    0    0  0.27236633392E+03 -0.99728513442E+02  0.73103609966E+03  0.78647503155E+03  0.00000000000E+00 0. -1.
        -11    1    5    5    0    0  0.33859700512E+02 -0.12116976774E+02  0.22175019452E+03  0.22464738862E+03  0.00000000000E+00 0.  1.
          1    1    6    6  503    0 -0.15093347978E+03  0.11099283696E+03 -0.36041660317E+02  0.19078607510E+03  0.00000000000E+00 0. -1.
         -1    1    6    6    0  503 -0.23463899969E+02  0.33482037816E+02 -0.54042505548E+02  0.67765727798E+02  0.00000000000E+00 0.  1.
<mgrwt>
<rscale>  0 0.13011646E+04</rscale>
<asrwt>0</asrwt>
<pdfrwt beam="1">  1        1 0.16924340E+00 0.13011646E+04</pdfrwt>
<pdfrwt beam="2">  1       -2 0.59192408E-01 0.13011646E+04</pdfrwt>
<totfact> 0.29106473E+01</totfact>
</mgrwt>
</event>
<event>
12    4  0.4413110E-008  0.1102189E+04  0.7818608E-02  0.9203061E-01
         -2   -1    0    0    0  501 -0.00000000000E+00  0.00000000000E+00  0.40306158576E+03  0.40306158576E+03  0.00000000000E+00 0.  1.
          1   -1    0    0  501    0  0.00000000000E+00 -0.00000000000E+00 -0.75349514463E+03  0.75349514463E+03  0.00000000000E+00 0. -1.
        -24    2    1    2    0    0  0.12102787146E+02  0.15096184354E+03 -0.14713855656E+03  0.22568313708E+03  0.79669114936E+02 0.  0.
        254    2    1    2    0    0 -0.12102787146E+02 -0.15096184354E+03 -0.20329500232E+03  0.93087359331E+03  0.89569014347E+03 0.  0.
         23    2    4    4    0    0 -0.13305532830E+03 -0.49380289012E+03 -0.37333974091E+02  0.52106031148E+03  0.92547327913E+02 0.  0.
         23    2    4    4    0    0  0.12095254116E+03  0.34284104657E+03 -0.16596102823E+03  0.40981328183E+03  0.90743389002E+02 0.  0.
          1    1    3    3  502    0 -0.77948744458E+01  0.11086053110E+03 -0.14244798706E+03  0.18067165367E+03  0.00000000000E+00 0. -1.
         -2    1    3    3    0  502  0.19897661592E+02  0.40101312440E+02 -0.46905694962E+01  0.45011483406E+02  0.00000000000E+00 0.  1.
         11    1    5    5    0    0  0.39337948504E+01 -0.58336004878E+02 -0.27090874682E+02  0.64439736950E+02  0.00000000000E+00 0. -1.
        -11    1    5    5    0    0 -0.13698912315E+03 -0.43546688524E+03 -0.10243099408E+02  0.45662057453E+03  0.00000000000E+00 0.  1.
          2    1    6    6  503    0  0.65380629807E+02  0.68304125546E+02 -0.44747281336E+02  0.10460592482E+03  0.00000000000E+00 0. -1.
         -2    1    6    6    0  503  0.55571911350E+02  0.27453692103E+03 -0.12121374689E+03  0.30520735701E+03  0.00000000000E+00 0.  1.
<mgrwt>
<rscale>  0 0.11021886E+04</rscale>
<asrwt>0</asrwt>
<pdfrwt beam="1">  1        1 0.11592233E+00 0.11021886E+04</pdfrwt>
<pdfrwt beam="2">  1       -2 0.62009476E-01 0.11021886E+04</pdfrwt>
<totfact> 0.51261657E+01</totfact>
</mgrwt>
</event>
<event>
12    4  0.4413110E-008  0.1998650E+04  0.7818608E-02  0.8607252E-01
         -2   -1    0    0    0  501 -0.00000000000E+00  0.00000000000E+00  0.54576788651E+03  0.54576788651E+03  0.00000000000E+00 0.  1.
          1   -1    0    0  501    0  0.00000000000E+00 -0.00000000000E+00 -0.18298084576E+04  0.18298084576E+04  0.00000000000E+00 0. -1.
        -24    2    1    2    0    0  0.66395957985E+03 -0.35203414796E+03 -0.18965600905E+03  0.77913231529E+03  0.79419128335E+02 0.  0.
        254    2    1    2    0    0 -0.66395957985E+03  0.35203414796E+03 -0.10943845620E+04  0.15964440288E+04  0.88667107907E+03 0.  0.
         23    2    4    4    0    0 -0.48579848309E+03  0.35104722031E+02 -0.62996105178E+02  0.49947636235E+03  0.90970432508E+02 0.  0.
         23    2    4    4    0    0 -0.17816109676E+03  0.31692942593E+03 -0.10313884568E+04  0.10969676664E+04  0.85966708138E+02 0.  0.
          1    1    3    3  502    0  0.43816949897E+03 -0.26159531870E+03 -0.10077996425E+03  0.52017422253E+03  0.00000000000E+00 0. -1.
         -2    1    3    3    0  502  0.22579008088E+03 -0.90438829259E+02 -0.88876044799E+02  0.25895809275E+03  0.00000000000E+00 0.  1.
         11    1    5    5    0    0 -0.20615838976E+03  0.59542582682E+02 -0.34278085657E+02  0.21730528751E+03  0.00000000000E+00 0.  1.
        -11    1    5    5    0    0 -0.27964009333E+03 -0.24437860651E+02 -0.28718019521E+02  0.28217107484E+03  0.00000000000E+00 0. -1.
          3    1    6    6  503    0 -0.12907070027E+03  0.14329254722E+03 -0.51071994614E+03  0.54591836674E+03  0.00000000000E+00 0. -1.
         -3    1    6    6    0  503 -0.49090396494E+02  0.17363687870E+03 -0.52066851068E+03  0.55104929969E+03  0.00000000000E+00 0.  1.
<mgrwt>
<rscale>  0 0.19986502E+04</rscale>
<asrwt>0</asrwt>
<pdfrwt beam="1">  1        1 0.28150900E+00 0.19986502E+04</pdfrwt>
<pdfrwt beam="2">  1       -2 0.83964290E-01 0.19986502E+04</pdfrwt>
<totfact> 0.39245355E+00</totfact>
</mgrwt>
</event>
<event>
12    4  0.4413110E-008  0.2697498E+04  0.7818608E-02  0.8335817E-01
         -2   -1    0    0    0  501 -0.00000000000E+00  0.00000000000E+00  0.73260832737E+03  0.73260832737E+03  0.00000000000E+00 0.  1.
          1   -1    0    0  501    0  0.00000000000E+00 -0.00000000000E+00 -0.24830791946E+04  0.24830791946E+04  0.00000000000E+00 0. -1.
        -24    2    1    2    0    0 -0.39923804873E+03  0.74393466624E+03  0.23399306111E+03  0.87916721876E+03  0.73160362936E+02 0.  0.
        254    2    1    2    0    0  0.39923804873E+03 -0.74393466624E+03 -0.19844639284E+04  0.23365203032E+04  0.89911080369E+03 0.  0.
         23    2    4    4    0    0  0.61186754749E+03 -0.21396402455E+03 -0.10902838359E+04  0.12716362975E+04  0.90429700812E+02 0.  0.
         23    2    4    4    0    0 -0.21262949877E+03 -0.52997064168E+03 -0.89418009250E+03  0.10648840058E+04  0.91322084730E+02 0.  0.
          1    1    3    3  502    0 -0.13528979808E+03  0.30386795765E+03  0.65112497782E+02  0.33893760859E+03  0.00000000000E+00 0. -1.
         -2    1    3    3    0  502 -0.26394825065E+03  0.44006670859E+03  0.16888056333E+03  0.54022961017E+03  0.00000000000E+00 0.  1.
         11    1    5    5    0    0  0.61180401837E+03 -0.20875504376E+03 -0.10651190094E+04  0.12459379316E+04  0.00000000000E+00 0. -1.
        -11    1    5    5    0    0  0.63529118020E-01 -0.52089807934E+01 -0.25164826522E+02  0.25698365916E+02  0.00000000000E+00 0.  1.
          2    1    6    6  503    0 -0.90522379879E+02 -0.23698347942E+03 -0.31522583137E+03  0.40462673607E+03  0.00000000000E+00 0.  1.
         -2    1    6    6    0  503 -0.12210711889E+03 -0.29298716226E+03 -0.57895426112E+03  0.66025726971E+03  0.00000000000E+00 0. -1.
<mgrwt>
<rscale>  0 0.26974985E+04</rscale>
<asrwt>0</asrwt>
<pdfrwt beam="1">  1        1 0.38201218E+00 0.26974985E+04</pdfrwt>
<pdfrwt beam="2">  1       -2 0.11270897E+00 0.26974985E+04</pdfrwt>
<totfact> 0.66182228E-01</totfact>
</mgrwt>
</event>
<event>
12    4  0.4413110E-008  0.1416731E+04  0.7818608E-02  0.8941796E-01
         -2   -1    0    0    0  501 -0.00000000000E+00  0.00000000000E+00  0.16436606189E+03  0.16436606189E+03  0.00000000000E+00 0.  1.
          1   -1    0    0  501    0  0.00000000000E+00 -0.00000000000E+00 -0.30528314851E+04  0.30528314851E+04  0.00000000000E+00 0. -1.
        -24    2    1    2    0    0 -0.34065719655E+03 -0.62740824880E+02 -0.16070973199E+04  0.16459126153E+04  0.79264144534E+02 0.  0.
        254    2    1    2    0    0  0.34065719655E+03  0.62740824880E+02 -0.12813681032E+04  0.15712849317E+04  0.84086169133E+03 0.  0.
         23    2    4    4    0    0  0.26374048265E+03 -0.18166613921E+03 -0.83966127377E+02  0.34326649454E+03  0.90663925601E+02 0.  0.
         23    2    4    4    0    0  0.76916713902E+02  0.24440696409E+03 -0.11974019759E+04  0.12280184372E+04  0.92773084681E+02 0.  0.
          3    1    3    3  502    0 -0.30684511030E+03 -0.36628062738E+02 -0.14769671052E+04  0.15089490934E+04  0.00000000000E+00 0. -1.
         -4    1    3    3    0  502 -0.33812086249E+02 -0.26112762141E+02 -0.13013021477E+03  0.13696352185E+03  0.00000000000E+00 0.  1.
         11    1    5    5    0    0  0.85772212765E+02 -0.11905990650E+02 -0.28237180702E+02  0.91082179761E+02  0.00000000000E+00 0. -1.
        -11    1    5    5    0    0  0.17796826989E+03 -0.16976014856E+03 -0.55728946675E+02  0.25218431478E+03  0.00000000000E+00 0.  1.
          1    1    6    6  503    0  0.54395718299E+02  0.97748781482E+02 -0.34162719757E+03  0.35947581361E+03  0.00000000000E+00 0. -1.
         -1    1    6    6    0  503  0.22520995604E+02  0.14665818261E+03 -0.85577477831E+03  0.86854262357E+03  0.00000000000E+00 0.  1.
<mgrwt>
<rscale>  0 0.14167313E+04</rscale>
<asrwt>0</asrwt>
<pdfrwt beam="1">  1        1 0.46966638E+00 0.14167313E+04</pdfrwt>
<pdfrwt beam="2">  1       -2 0.25287087E-01 0.14167313E+04</pdfrwt>
<totfact> 0.66234479E+00</totfact>
</mgrwt>
</event>
<event>
12    4  0.4413110E-008  0.2415773E+04  0.7818608E-02  0.8433622E-01
          1   -1    0    0  501    0  0.00000000000E+00  0.00000000000E+00  0.23357127332E+04  0.23357127332E+04  0.00000000000E+00 0. -1.
         -2   -1    0    0    0  501 -0.00000000000E+00 -0.00000000000E+00 -0.62464445882E+03  0.62464445882E+03  0.00000000000E+00 0.  1.
        -24    2    1    2    0    0 -0.49909487747E+03 -0.65042767295E+03  0.14312142556E+04  0.16511736195E+04  0.76473668020E+02 0.  0.
        254    2    1    2    0    0  0.49909487747E+03  0.65042767295E+03  0.27985401879E+03  0.13091835725E+04  0.98157602877E+03 0.  0.
         23    2    4    4    0    0  0.59219154500E+03  0.57317908127E+03 -0.15984299017E+03  0.84460956017E+03  0.92684639794E+02 0.  0.
         23    2    4    4    0    0 -0.93096667532E+02  0.77248591680E+02  0.43969700897E+03  0.46457401234E+03  0.88663514629E+02 0.  0.
          3    1    3    3  502    0 -0.44430921977E+03 -0.61267441746E+03  0.13204884787E+04  0.15219955476E+04  0.00000000000E+00 0. -1.
         -4    1    3    3    0  502 -0.54785657697E+02 -0.37753255481E+02  0.11072577683E+03  0.12917807184E+03  0.00000000000E+00 0.  1.
         11    1    5    5    0    0  0.45738066137E+01  0.33925257710E+01  0.72535562468E+01  0.92218770471E+01  0.00000000000E+00 0. -1.
        -11    1    5    5    0    0  0.58761773839E+03  0.56978655549E+03 -0.16709654642E+03  0.83538768312E+03  0.00000000000E+00 0.  1.
          4    1    6    6  503    0  0.97844368428E+01 -0.10528816908E+02  0.33423602069E+02  0.36383078004E+02  0.00000000000E+00 0. -1.
         -4    1    6    6    0  503 -0.10288110437E+03  0.87777408588E+02  0.40627340690E+03  0.42819093434E+03  0.00000000000E+00 0.  1.
<mgrwt>
<rscale>  0 0.24157732E+04</rscale>
<asrwt>0</asrwt>
<pdfrwt beam="1">  1        1 0.35934042E+00 0.24157732E+04</pdfrwt>
<pdfrwt beam="2">  1       -2 0.96099149E-01 0.24157732E+04</pdfrwt>
<totfact> 0.12550409E+00</totfact>
</mgrwt>
</event>
<event>
12    4  0.4847342E-008  0.1882231E+04  0.7818608E-02  0.8663752E-01
         -2   -1    0    0    0  501 -0.00000000000E+00  0.00000000000E+00  0.64235708559E+03  0.64235708559E+03  0.00000000000E+00 0.  1.
          1   -1    0    0  501    0  0.00000000000E+00 -0.00000000000E+00 -0.13788255332E+04  0.13788255332E+04  0.00000000000E+00 0. -1.
        -24    2    1    2    0    0 -0.13364715261E+03  0.29891525345E+03 -0.98758473246E+03  0.10433981183E+04  0.78384560800E+02 0.  0.
        254    2    1    2    0    0  0.13364715261E+03 -0.29891525345E+03  0.25111628484E+03  0.97778450049E+03  0.88644867350E+03 0.  0.
         23    2    4    4    0    0  0.77579230991E+02 -0.35388581790E+03  0.54481178961E+03  0.66051605050E+03  0.90597227758E+02 0.  0.
         23    2    4    4    0    0  0.56067921617E+02  0.54970564449E+02 -0.29369550477E+03  0.31726844999E+03  0.90757066113E+02 0.  0.
          1    1    3    3  502    0 -0.11828024567E+03  0.28983348783E+03 -0.96562587553E+03  0.10150995019E+04  0.00000000000E+00 0. -1.
         -2    1    3    3    0  502 -0.15366906939E+02  0.90817656193E+01 -0.21958856930E+02  0.28298616456E+02  0.00000000000E+00 0.  1.
         11    1    5    5    0    0  0.82979548320E+02 -0.17816998503E+03  0.31279913493E+03  0.36942312843E+03  0.00000000000E+00 0. -1.
        -11    1    5    5    0    0 -0.54003173285E+01 -0.17571583286E+03  0.23201265468E+03  0.29109292206E+03  0.00000000000E+00 0.  1.
          1    1    6    6  503    0 -0.24634275730E+02  0.13183522917E+02 -0.89571134177E+02  0.93827719225E+02  0.00000000000E+00 0. -1.
         -1    1    6    6    0  503  0.80702197347E+02  0.41787041532E+02 -0.20412437059E+03  0.22344073077E+03  0.00000000000E+00 0.  1.
<mgrwt>
<rscale>  0 0.18822310E+04</rscale>
<asrwt>0</asrwt>
<pdfrwt beam="1">  1        1 0.21212700E+00 0.18822310E+04</pdfrwt>
<pdfrwt beam="2">  1       -2 0.98824168E-01 0.18822310E+04</pdfrwt>
<totfact> 0.55535529E+00</totfact>
</mgrwt>
</event>
<event>
12    4  0.4413110E-008  0.1401666E+04  0.7818608E-02  0.8952613E-01
         -4   -1    0    0    0  501 -0.00000000000E+00  0.00000000000E+00  0.82366741992E+03  0.82366741992E+03  0.00000000000E+00 0.  1.
          1   -1    0    0  501    0  0.00000000000E+00 -0.00000000000E+00 -0.59631721988E+03  0.59631721988E+03  0.00000000000E+00 0. -1.
        -24    2    1    2    0    0  0.47866276931E+02  0.35435640298E+03 -0.13374606099E+03  0.39020399842E+03  0.80693932555E+02 0.  0.
        254    2    1    2    0    0 -0.47866276931E+02 -0.35435640298E+03  0.36109626103E+03  0.10297806414E+04  0.89565507805E+03 0.  0.
         23    2    4    4    0    0  0.18828816935E+03 -0.40163687677E+03  0.54833236532E+03  0.71130488714E+03  0.92312751619E+02 0.  0.
         23    2    4    4    0    0 -0.23615444628E+03  0.47280473786E+02 -0.18723610429E+03  0.31847575424E+03  0.91460819964E+02 0.  0.
          1    1    3    3  502    0  0.62123403469E+02  0.31890427620E+03 -0.10202374948E+03  0.34054089342E+03  0.00000000000E+00 0. -1.
         -2    1    3    3    0  502 -0.14257126538E+02  0.35452126785E+02 -0.31722311501E+02  0.49663104995E+02  0.00000000000E+00 0.  1.
         11    1    5    5    0    0  0.62148795775E+02 -0.52809129109E+02  0.85258399326E+02  0.11798420059E+03  0.00000000000E+00 0.  1.
        -11    1    5    5    0    0  0.12613937358E+03 -0.34882774766E+03  0.46307396600E+03  0.59332068655E+03  0.00000000000E+00 0. -1.
          3    1    6    6  503    0 -0.13529525570E+03  0.43596437047E+02 -0.15982886278E+03  0.21389418159E+03  0.00000000000E+00 0. -1.
         -3    1    6    6    0  503 -0.10085919058E+03  0.36840367394E+01 -0.27407241508E+02  0.10458157265E+03  0.00000000000E+00 0.  1.
<mgrwt>
<rscale>  0 0.14016662E+04</rscale>
<asrwt>0</asrwt>
<pdfrwt beam="1">  1        1 0.91741111E-01 0.14016662E+04</pdfrwt>
<pdfrwt beam="2">  1       -4 0.12671806E+00 0.14016662E+04</pdfrwt>
<totfact> 0.74803728E+00</totfact>
</mgrwt>
</event>
<event>
12    4  0.4413110E-008  0.1956542E+04  0.7818608E-02  0.8627213E-01
          1   -1    0    0  501    0  0.00000000000E+00  0.00000000000E+00  0.17655599220E+04  0.17655599220E+04  0.00000000000E+00 0. -1.
         -2   -1    0    0    0  501 -0.00000000000E+00 -0.00000000000E+00 -0.54204556632E+03  0.54204556632E+03  0.00000000000E+00 0.  1.
        -24    2    1    2    0    0 -0.49322549328E+03 -0.83046776777E+02 -0.20593654922E+03  0.54651411118E+03  0.78100301227E+02 0.  0.
        254    2    1    2    0    0  0.49322549328E+03  0.83046776777E+02  0.14294509049E+04  0.17610913771E+04  0.89885749413E+03 0.  0.
         23    2    4    4    0    0  0.39897713276E+03  0.33211286852E+03  0.13766641150E+04  0.14741631549E+04  0.92039186507E+02 0.  0.
         23    2    4    4    0    0  0.94248360522E+02 -0.24906609174E+03  0.52786789846E+02  0.28692822219E+03  0.92869198269E+02 0.  0.
          1    1    3    3  502    0 -0.30714131101E+03 -0.58010185188E+02 -0.16836137139E+03  0.35503030560E+03  0.00000000000E+00 0. -1.
         -2    1    3    3    0  502 -0.18608418227E+03 -0.25036591589E+02 -0.37575177830E+02  0.19148380558E+03  0.00000000000E+00 0.  1.
         11    1    5    5    0    0  0.50599450481E+02  0.77331519535E+02  0.18613703353E+03  0.20781593672E+03  0.00000000000E+00 0. -1.
        -11    1    5    5    0    0  0.34837768228E+03  0.25478134899E+03  0.11905270815E+04  0.12663472182E+04  0.00000000000E+00 0.  1.
          3    1    6    6  503    0  0.96312861455E+02 -0.22979612096E+03  0.72284896026E+02  0.25943694934E+03  0.00000000000E+00 0. -1.
         -3    1    6    6    0  503 -0.20645009332E+01 -0.19269970788E+02 -0.19498106179E+02  0.27491272849E+02  0.00000000000E+00 0.  1.
<mgrwt>
<rscale>  0 0.19565418E+04</rscale>
<asrwt>0</asrwt>
<pdfrwt beam="1">  1        1 0.27162460E+00 0.19565418E+04</pdfrwt>
<pdfrwt beam="2">  1       -2 0.83391627E-01 0.19565418E+04</pdfrwt>
<totfact> 0.44234266E+00</totfact>
</mgrwt>
</event>
<event>
12    4  0.4413110E-008  0.1983864E+04  0.7818608E-02  0.8614202E-01
          1   -1    0    0  501    0  0.00000000000E+00  0.00000000000E+00  0.13069959612E+04  0.13069959612E+04  0.00000000000E+00 0. -1.
         -2   -1    0    0    0  501 -0.00000000000E+00 -0.00000000000E+00 -0.75281760631E+03  0.75281760631E+03  0.00000000000E+00 0.  1.
        -24    2    1    2    0    0 -0.32042529057E+03 -0.64643892985E+01  0.95907334414E+03  0.10142062727E+04  0.77964921682E+02 0.  0.
        254    2    1    2    0    0  0.32042529057E+03  0.64643892985E+01 -0.40489498923E+03  0.10456072948E+04  0.90919772739E+03 0.  0.
         23    2    4    4    0    0 -0.17604504867E+03 -0.30998700343E+03 -0.14994203791E+03  0.39746543891E+03  0.91718912682E+02 0.  0.
         23    2    4    4    0    0  0.49647033923E+03  0.31645139273E+03 -0.25495295133E+03  0.64814185590E+03  0.91992262088E+02 0.  0.
          3    1    3    3  502    0 -0.29081719160E+03 -0.51385361535E+01  0.92171516786E+03  0.96651947427E+03  0.00000000000E+00 0. -1.
         -4    1    3    3    0  502 -0.29608098965E+02 -0.13258531449E+01  0.37358176283E+02  0.47686798446E+02  0.00000000000E+00 0.  1.
         11    1    5    5    0    0 -0.17058792250E+03 -0.23447356381E+03 -0.13684096849E+03  0.32062991452E+03  0.00000000000E+00 0.  1.
        -11    1    5    5    0    0 -0.54571261715E+01 -0.75513439620E+02 -0.13101069420E+02  0.76835524396E+02  0.00000000000E+00 0. -1.
          2    1    6    6  503    0  0.31267790710E+03  0.19746428335E+03 -0.11099369798E+03  0.38610778001E+03  0.00000000000E+00 0.  1.
         -2    1    6    6    0  503  0.18379243213E+03  0.11898710938E+03 -0.14395925335E+03  0.26203407590E+03  0.00000000000E+00 0. -1.
<mgrwt>
<rscale>  0 0.19838645E+04</rscale>
<asrwt>0</asrwt>
<pdfrwt beam="1">  1        1 0.20107630E+00 0.19838645E+04</pdfrwt>
<pdfrwt beam="2">  1       -2 0.11581809E+00 0.19838645E+04</pdfrwt>
<totfact> 0.42237571E+00</totfact>
</mgrwt>
</event>
<event>
12    4  0.5375711E-008  0.1899168E+04  0.7818608E-02  0.8655270E-01
          1   -1    0    0  501    0  0.00000000000E+00  0.00000000000E+00  0.16914259417E+04  0.16914259417E+04  0.00000000000E+00 0. -1.
         -2   -1    0    0    0  501 -0.00000000000E+00 -0.00000000000E+00 -0.53310647161E+03  0.53310647161E+03  0.00000000000E+00 0.  1.
        -24    2    1    2    0    0  0.50826471068E+03  0.49875459888E+03  0.25370658451E+03  0.76031663395E+03  0.81395250604E+02 0.  0.
        254    2    1    2    0    0 -0.50826471068E+03 -0.49875459888E+03  0.90461288562E+03  0.14642157794E+04  0.90471775145E+03 0.  0.
         23    2    4    4    0    0 -0.55773801467E+03 -0.40963276052E+02  0.80557573065E+03  0.98446270482E+03  0.86399516110E+02 0.  0.
         23    2    4    4    0    0  0.49473303993E+02 -0.45779132282E+03  0.99037154970E+02  0.47975307458E+03  0.91291573753E+02 0.  0.
          1    1    3    3  502    0  0.21310324099E+03  0.19200759666E+03  0.62099437838E+02  0.29348977610E+03  0.00000000000E+00 0. -1.
         -2    1    3    3    0  502  0.29516146969E+03  0.30674700222E+03  0.19160714667E+03  0.46682685785E+03  0.00000000000E+00 0.  1.
         11    1    5    5    0    0 -0.48846987629E+02 -0.12403448437E+02  0.38193606512E+02  0.63234684406E+02  0.00000000000E+00 0. -1.
        -11    1    5    5    0    0 -0.50889102704E+03 -0.28559827614E+02  0.76738212414E+03  0.92122802042E+03  0.00000000000E+00 0.  1.
          2    1    6    6  503    0  0.27271548673E+02 -0.32372807877E+02 -0.28668641010E+00  0.42329874155E+02  0.00000000000E+00 0. -1.
         -2    1    6    6    0  503  0.22201755320E+02 -0.42541851495E+03  0.99323841381E+02  0.43742320042E+03  0.00000000000E+00 0.  1.
<mgrwt>
<rscale>  0 0.18991684E+04</rscale>
<asrwt>0</asrwt>
<pdfrwt beam="1">  1        1 0.26021937E+00 0.18991684E+04</pdfrwt>
<pdfrwt beam="2">  1       -2 0.82016381E-01 0.18991684E+04</pdfrwt>
<totfact> 0.51850296E+00</totfact>
</mgrwt>
</event>
<event>
12    4  0.4413110E-008  0.2668263E+04  0.7818608E-02  0.8345377E-01
          1   -1    0    0  501    0  0.00000000000E+00  0.00000000000E+00  0.13013611154E+04  0.13013611154E+04  0.00000000000E+00 0. -1.
         -2   -1    0    0    0  501 -0.00000000000E+00 -0.00000000000E+00 -0.13677270330E+04  0.13677270330E+04  0.00000000000E+00 0.  1.
        -24    2    1    2    0    0  0.87113521856E+03  0.31852764834E+03  0.69394697643E+03  0.11634744223E+04  0.10850757385E+03 0.  0.
        254    2    1    2    0    0 -0.87113521856E+03 -0.31852764834E+03 -0.76031289396E+03  0.15056137261E+04  0.91019809034E+03 0.  0.
         23    2    4    4    0    0 -0.96285855284E+03 -0.25987369654E+03 -0.33289500116E+03  0.10551165029E+04  0.88435410718E+02 0.  0.
         23    2    4    4    0    0  0.91723334281E+02 -0.58653951802E+02 -0.42741789280E+03  0.45049722322E+03  0.91696439023E+02 0.  0.
          3    1    3    3  502    0  0.63907739942E+03  0.28340938836E+03  0.52561471668E+03  0.87464943506E+03  0.00000000000E+00 0. -1.
         -4    1    3    3    0  502  0.23205781914E+03  0.35118259982E+02  0.16833225975E+03  0.28882498728E+03  0.00000000000E+00 0.  1.
         11    1    5    5    0    0 -0.40116596379E+03 -0.81636692949E+02 -0.99648113434E+02  0.42134122354E+03  0.00000000000E+00 0.  1.
        -11    1    5    5    0    0 -0.56169258905E+03 -0.17823700359E+03 -0.23324688773E+03  0.63377527931E+03  0.00000000000E+00 0. -1.
          3    1    6    6  503    0  0.72837439401E+02 -0.20317317652E+02 -0.37651375218E+03  0.38403214911E+03  0.00000000000E+00 0. -1.
         -3    1    6    6    0  503  0.18885894880E+02 -0.38336634150E+02 -0.50904140628E+02  0.66465074110E+02  0.00000000000E+00 0.  1.
<mgrwt>
<rscale>  0 0.26682629E+04</rscale>
<asrwt>0</asrwt>
<pdfrwt beam="1">  1        1 0.20020940E+00 0.26682629E+04</pdfrwt>
<pdfrwt beam="2">  1       -2 0.21041954E+00 0.26682629E+04</pdfrwt>
<totfact> 0.78933423E-01</totfact>
</mgrwt>
</event>
<event>
12    4  0.4413110E-008  0.2350542E+04  0.7818608E-02  0.8458256E-01
          1   -1    0    0  501    0  0.00000000000E+00  0.00000000000E+00  0.28833107161E+04  0.28833107161E+04  0.00000000000E+00 0. -1.
         -2   -1    0    0    0  501 -0.00000000000E+00 -0.00000000000E+00 -0.47905403731E+03  0.47905403731E+03  0.00000000000E+00 0.  1.
        -24    2    1    2    0    0 -0.13643354142E+03  0.37369308955E+03  0.23355651270E+04  0.23705204844E+04  0.79008023891E+02 0.  0.
        254    2    1    2    0    0  0.13643354142E+03 -0.37369308955E+03  0.68691551771E+02  0.99184426905E+03  0.90596682519E+03 0.  0.
         23    2    4    4    0    0 -0.35237031602E+03 -0.32272408207E+03 -0.57366606443E+01  0.48652185944E+03  0.91405348191E+02 0.  0.
         23    2    4    4    0    0  0.48880385743E+03 -0.50969007484E+02  0.74428212415E+02  0.50532240961E+03  0.91017185653E+02 0.  0.
          1    1    3    3  502    0 -0.99221040451E+02  0.30166511671E+03  0.20145545302E+04  0.20394304628E+04  0.00000000000E+00 0. -1.
         -2    1    3    3    0  502 -0.37212500967E+02  0.72027972844E+02  0.32101059688E+03  0.33109002161E+03  0.00000000000E+00 0.  1.
         11    1    5    5    0    0 -0.30117232042E+03 -0.31218216541E+03  0.12954913766E+01  0.43377891752E+03  0.00000000000E+00 0. -1.
        -11    1    5    5    0    0 -0.51197995600E+02 -0.10541916660E+02 -0.70321520210E+01  0.52742941920E+02  0.00000000000E+00 0.  1.
          1    1    6    6  503    0  0.43645297658E+03 -0.41800422826E+02  0.94486652080E+02  0.44851555551E+03  0.00000000000E+00 0. -1.
         -1    1    6    6    0  503  0.52350880855E+02 -0.91685846583E+01 -0.20058439665E+02  0.56806854100E+02  0.00000000000E+00 0.  1.
<mgrwt>
<rscale>  0 0.23505418E+04</rscale>
<asrwt>0</asrwt>
<pdfrwt beam="1">  1        1 0.44358625E+00 0.23505418E+04</pdfrwt>
<pdfrwt beam="2">  1       -2 0.73700623E-01 0.23505418E+04</pdfrwt>
<totfact> 0.95395541E-01</totfact>
</mgrwt>
</event>
<event>
12    4  0.4413110E-008  0.2642105E+04  0.7818608E-02  0.8354038E-01
         -2   -1    0    0    0  501 -0.00000000000E+00  0.00000000000E+00  0.18192740378E+04  0.18192740378E+04  0.00000000000E+00 0.  1.
          1   -1    0    0  501    0  0.00000000000E+00 -0.00000000000E+00 -0.95927273571E+03  0.95927273571E+03  0.00000000000E+00 0. -1.
        -24    2    1    2    0    0  0.20202307106E+03  0.13625459412E+03 -0.82167968695E+03  0.86090745636E+03  0.81397203888E+02 0.  0.
        254    2    1    2    0    0 -0.20202307106E+03 -0.13625459412E+03  0.16816809890E+04  0.19176393171E+04  0.88876935483E+03 0.  0.
         23    2    4    4    0    0  0.94338196888E+02  0.34705514858E+02 -0.54328216709E+02  0.14567851691E+03  0.90368728023E+02 0.  0.
         23    2    4    4    0    0 -0.29636126794E+03 -0.17096010898E+03  0.17360092057E+04  0.17719608002E+04  0.95182745856E+02 0.  0.
          3    1    3    3  502    0  0.13963921144E+03  0.48428245881E+02 -0.51868996148E+03  0.53933633338E+03  0.00000000000E+00 0. -1.
         -4    1    3    3    0  502  0.62383859616E+02  0.87826348242E+02 -0.30298972548E+03  0.32157112297E+03  0.00000000000E+00 0.  1.
         11    1    5    5    0    0 -0.12542556983E+02 -0.24228164614E+01  0.93626581185E+01  0.15838091499E+02  0.00000000000E+00 0. -1.
        -11    1    5    5    0    0  0.10688075387E+03  0.37128331320E+02 -0.63690874827E+02  0.12984042541E+03  0.00000000000E+00 0.  1.
          4    1    6    6  503    0 -0.21514061760E+03 -0.12666179275E+03  0.14507332477E+04  0.14720583043E+04  0.00000000000E+00 0. -1.
         -4    1    6    6    0  503 -0.81220650344E+02 -0.44298316227E+02  0.28527595801E+03  0.29990249595E+03  0.00000000000E+00 0.  1.
<mgrwt>
<rscale>  0 0.26421052E+04</rscale>
<asrwt>0</asrwt>
<pdfrwt beam="1">  1        1 0.14758042E+00 0.26421052E+04</pdfrwt>
<pdfrwt beam="2">  1       -2 0.27988831E+00 0.26421052E+04</pdfrwt>
<totfact> 0.52901246E-01</totfact>
</mgrwt>
</event>
<event>
12    4  0.4413110E-008  0.3752192E+04  0.7818608E-02  0.8056493E-01
         -2   -1    0    0    0  501 -0.00000000000E+00  0.00000000000E+00  0.28431904537E+04  0.28431904537E+04  0.00000000000E+00 0.  1.
          1   -1    0    0  501    0  0.00000000000E+00 -0.00000000000E+00 -0.12379531731E+04  0.12379531731E+04  0.00000000000E+00 0. -1.
        -24    2    1    2    0    0 -0.44419914033E+03  0.10662716047E+04  0.22126455640E+04  0.24975157588E+04  0.86813375580E+02 0.  0.
        254    2    1    2    0    0  0.44419914033E+03 -0.10662716047E+04 -0.60740828348E+03  0.15836278681E+04  0.89704202268E+03 0.  0.
         23    2    4    4    0    0  0.57273912124E+03 -0.63492065737E+03 -0.70729504111E+03  0.11134124808E+04  0.90921587933E+02 0.  0.
         23    2    4    4    0    0 -0.12853998091E+03 -0.43135094729E+03  0.99886757631E+02  0.47021538721E+03  0.92406599347E+02 0.  0.
          1    1    3    3  502    0 -0.19566561188E+03  0.50948418612E+03  0.11327975236E+04  0.12574137732E+04  0.00000000000E+00 0. -1.
         -2    1    3    3    0  502 -0.24853352845E+03  0.55678741854E+03  0.10798480404E+04  0.12401019856E+04  0.00000000000E+00 0.  1.
         11    1    5    5    0    0  0.74746272712E+02 -0.77856389601E+02 -0.13131377977E+03  0.16997626729E+03  0.00000000000E+00 0.  1.
        -11    1    5    5    0    0  0.49799284852E+03 -0.55706426777E+03 -0.57598126135E+03  0.94343621355E+03  0.00000000000E+00 0. -1.
          2    1    6    6  503    0 -0.11494168581E+03 -0.23396957762E+03  0.71771855343E+02  0.27037853762E+03  0.00000000000E+00 0. -1.
         -2    1    6    6    0  503 -0.13598295093E+02 -0.19738136968E+03  0.28114902289E+02  0.19983684959E+03  0.00000000000E+00 0.  1.
<mgrwt>
<rscale>  0 0.37521922E+04</rscale>
<asrwt>0</asrwt>
<pdfrwt beam="1">  1        1 0.19045433E+00 0.37521922E+04</pdfrwt>
<pdfrwt beam="2">  1       -2 0.43741392E+00 0.37521922E+04</pdfrwt>
<totfact> 0.29541817E-02</totfact>
</mgrwt>
</event>
<event>
12    4  0.4413110E-008  0.1469360E+04  0.7818608E-02  0.8905088E-01
          1   -1    0    0  501    0  0.00000000000E+00  0.00000000000E+00  0.71687626036E+03  0.71687626036E+03  0.00000000000E+00 0. -1.
         -2   -1    0    0    0  501 -0.00000000000E+00 -0.00000000000E+00 -0.75292570389E+03  0.75292570389E+03  0.00000000000E+00 0.  1.
        -24    2    1    2    0    0 -0.19927837297E+03 -0.17582988554E+03 -0.39041031594E+03  0.47901138516E+03  0.80022957530E+02 0.  0.
        254    2    1    2    0    0  0.19927837297E+03  0.17582988554E+03  0.35436087241E+03  0.99079057909E+03  0.88626538077E+03 0.  0.
         23    2    4    4    0    0  0.18019912117E+03 -0.18000089932E+03 -0.19234146270E+03  0.33207086579E+03  0.91672103751E+02 0.  0.
         23    2    4    4    0    0  0.19079251802E+02  0.35583078487E+03  0.54670233510E+03  0.65871971330E+03  0.89714280800E+02 0.  0.
          1    1    3    3  502    0 -0.14711811160E+02  0.78913809571E+01 -0.30441817920E+02  0.34719095024E+02  0.00000000000E+00 0. -1.
         -2    1    3    3    0  502 -0.18456656181E+03 -0.18372126650E+03 -0.35996849802E+03  0.44429229013E+03  0.00000000000E+00 0.  1.
         11    1    5    5    0    0  0.26705044982E+02 -0.88072555088E+00 -0.49642029542E+02  0.56376113754E+02  0.00000000000E+00 0.  1.
        -11    1    5    5    0    0  0.15349407619E+03 -0.17912017377E+03 -0.14269943316E+03  0.27569475204E+03  0.00000000000E+00 0. -1.
          1    1    6    6  503    0  0.69388643286E+00  0.34664705858E+03  0.51001852704E+03  0.61667135707E+03  0.00000000000E+00 0. -1.
         -1    1    6    6    0  503  0.18385365369E+02  0.91837262845E+01  0.36683808064E+02  0.42048356238E+02  0.00000000000E+00 0.  1.
<mgrwt>
<rscale>  0 0.14693598E+04</rscale>
<asrwt>0</asrwt>
<pdfrwt beam="1">  1        1 0.11028866E+00 0.14693598E+04</pdfrwt>
<pdfrwt beam="2">  1       -2 0.11583472E+00 0.14693598E+04</pdfrwt>
<totfact> 0.12920761E+01</totfact>
</mgrwt>
</event>
<event>
12    4  0.4413110E-008  0.1638222E+04  0.7818608E-02  0.8797405E-01
         -2   -1    0    0    0  501 -0.00000000000E+00  0.00000000000E+00  0.22011782835E+03  0.22011782835E+03  0.00000000000E+00 0.  1.
          1   -1    0    0  501    0  0.00000000000E+00 -0.00000000000E+00 -0.30481064849E+04  0.30481064849E+04  0.00000000000E+00 0. -1.
        -24    2    1    2    0    0  0.11326871777E+02 -0.81234601707E+02  0.13165116557E+03  0.17428837238E+03  0.79479864194E+02 0.  0.
        254    2    1    2    0    0 -0.11326871777E+02  0.81234601707E+02 -0.29596398222E+04  0.30939359409E+04  0.89791111529E+03 0.  0.
         23    2    4    4    0    0  0.10506565359E+03  0.46448376633E+03 -0.14212138892E+04  0.15016606796E+04  0.91388823472E+02 0.  0.
         23    2    4    4    0    0 -0.11639252536E+03 -0.38324916463E+03 -0.15384259330E+04  0.15922752613E+04  0.90327262777E+02 0.  0.
          1    1    3    3  502    0  0.91253913744E+01  0.13677780528E+02  0.76984059973E+01  0.18155437280E+02  0.00000000000E+00 0. -1.
         -2    1    3    3    0  502  0.22014804023E+01 -0.94912382236E+02  0.12395275958E+03  0.15613293510E+03  0.00000000000E+00 0.  1.
         11    1    5    5    0    0  0.12170746732E+03  0.41633275417E+03 -0.12847516170E+04  0.13559986678E+04  0.00000000000E+00 0. -1.
        -11    1    5    5    0    0 -0.16641813736E+02  0.48151012163E+02 -0.13646227222E+03  0.14566201178E+03  0.00000000000E+00 0.  1.
          1    1    6    6  503    0 -0.74062998782E+02 -0.15450290763E+03 -0.51539203739E+03  0.54312561020E+03  0.00000000000E+00 0. -1.
         -1    1    6    6    0  503 -0.42329526583E+02 -0.22874625699E+03 -0.10230338956E+04  0.10491496511E+04  0.00000000000E+00 0.  1.
<mgrwt>
<rscale>  0 0.16382217E+04</rscale>
<asrwt>0</asrwt>
<pdfrwt beam="1">  1        1 0.46893945E+00 0.16382217E+04</pdfrwt>
<pdfrwt beam="2">  1       -2 0.33864282E-01 0.16382217E+04</pdfrwt>
<totfact> 0.37963828E+00</totfact>
</mgrwt>
</event>
<event>
12    4  0.4413110E-008  0.1441437E+04  0.7818608E-02  0.8924358E-01
         -2   -1    0    0    0  501 -0.00000000000E+00  0.00000000000E+00  0.32730612167E+03  0.32730612167E+03  0.00000000000E+00 0.  1.
          1   -1    0    0  501    0  0.00000000000E+00 -0.00000000000E+00 -0.15870016913E+04  0.15870016913E+04  0.00000000000E+00 0. -1.
        -24    2    1    2    0    0  0.32494209701E+03  0.27480656304E+03 -0.57478144302E+03  0.71952574206E+03  0.78978305521E+02 0.  0.
        254    2    1    2    0    0 -0.32494209701E+03 -0.27480656304E+03 -0.68491412663E+03  0.11947820709E+04  0.88164098287E+03 0.  0.
         23    2    4    4    0    0 -0.27226543121E+03  0.26685425920E+03 -0.13074397336E+03  0.41272053881E+03  0.88907794374E+02 0.  0.
         23    2    4    4    0    0 -0.52676665794E+02 -0.54166082225E+03 -0.55417015327E+03  0.78206153212E+03  0.91347708086E+02 0.  0.
          1    1    3    3  502    0  0.32450542343E+03  0.26521036703E+03 -0.57275163312E+03  0.70970750444E+03  0.00000000000E+00 0. -1.
         -2    1    3    3    0  502  0.43667357974E+00  0.95961960083E+01 -0.20298098979E+01  0.98182376151E+01  0.00000000000E+00 0.  1.
         11    1    5    5    0    0 -0.11241951532E+03  0.16801742944E+03 -0.50493191318E+02  0.20836882298E+03  0.00000000000E+00 0. -1.
        -11    1    5    5    0    0 -0.15984591590E+03  0.98836829760E+02 -0.80250782043E+02  0.20435171583E+03  0.00000000000E+00 0.  1.
          3    1    6    6  503    0 -0.48521838344E+02 -0.15039568315E+03 -0.19427642791E+03  0.25043274696E+03  0.00000000000E+00 0. -1.
         -3    1    6    6    0  503 -0.41548274504E+01 -0.39126513909E+03 -0.35989372536E+03  0.53162878516E+03  0.00000000000E+00 0.  1.
<mgrwt>
<rscale>  0 0.14414373E+04</rscale>
<asrwt>0</asrwt>
<pdfrwt beam="1">  1        1 0.24415411E+00 0.14414373E+04</pdfrwt>
<pdfrwt beam="2">  1       -2 0.50354787E-01 0.14414373E+04</pdfrwt>
<totfact> 0.18121194E+01</totfact>
</mgrwt>
</event>
<event>
12    4  0.4413110E-008  0.2298257E+04  0.7818608E-02  0.8478609E-01
         -2   -1    0    0    0  501 -0.00000000000E+00  0.00000000000E+00  0.12258912292E+04  0.12258912292E+04  0.00000000000E+00 0.  1.
          1   -1    0    0  501    0  0.00000000000E+00 -0.00000000000E+00 -0.10771723837E+04  0.10771723837E+04  0.00000000000E+00 0. -1.
        -24    2    1    2    0    0 -0.66587613761E+02 -0.90048724686E+03  0.42993114845E+03  0.10034306273E+04  0.81981945093E+02 0.  0.
        254    2    1    2    0    0  0.66587613761E+02  0.90048724686E+03 -0.28121230303E+03  0.12996329856E+04  0.89143387069E+03 0.  0.
         23    2    4    4    0    0  0.19127995010E+03  0.88994712730E+03 -0.49100470166E+03  0.10383338835E+04  0.91965906069E+02 0.  0.
         23    2    4    4    0    0 -0.12469233634E+03  0.10540119564E+02  0.20979239863E+03  0.26129910210E+03  0.92763664066E+02 0.  0.
          3    1    3    3  502    0 -0.46275535401E+02 -0.21229341600E+03  0.12231748279E+03  0.24934210685E+03  0.00000000000E+00 0. -1.
         -2    1    3    3    0  502 -0.20312078360E+02 -0.68819383087E+03  0.30761366566E+03  0.75408852045E+03  0.00000000000E+00 0.  1.
         11    1    5    5    0    0  0.19002020080E+03  0.83073688489E+03 -0.48006840521E+03  0.97810895217E+03  0.00000000000E+00 0. -1.
        -11    1    5    5    0    0  0.12597493036E+01  0.59210242407E+02 -0.10936296451E+02  0.60224931335E+02  0.00000000000E+00 0.  1.
          3    1    6    6  503    0 -0.71072694150E+02 -0.39249565450E+02  0.12775323183E+03  0.15136956261E+03  0.00000000000E+00 0. -1.
         -3    1    6    6    0  503 -0.53619642193E+02  0.49789685014E+02  0.82039166799E+02  0.10992953949E+03  0.00000000000E+00 0.  1.
<mgrwt>
<rscale>  0 0.22982569E+04</rscale>
<asrwt>0</asrwt>
<pdfrwt beam="1">  1        1 0.16571883E+00 0.22982569E+04</pdfrwt>
<pdfrwt beam="2">  1       -2 0.18859865E+00 0.22982569E+04</pdfrwt>
<totfact> 0.16568431E+00</totfact>
</mgrwt>
</event>
<event>
12    4  0.4413110E-008  0.1481084E+04  0.7818608E-02  0.8897130E-01
         -2   -1    0    0    0  501 -0.00000000000E+00  0.00000000000E+00  0.55188503414E+03  0.55188503414E+03  0.00000000000E+00 0.  1.
          1   -1    0    0  501    0  0.00000000000E+00 -0.00000000000E+00 -0.99368983850E+03  0.99368983850E+03  0.00000000000E+00 0. -1.
        -24    2    1    2    0    0 -0.54691920895E+02  0.37558490612E+03 -0.40596342130E+03  0.56147652742E+03  0.79964764100E+02 0.  0.
        254    2    1    2    0    0  0.54691920895E+02 -0.37558490612E+03 -0.35841383057E+02  0.98409834521E+03  0.90725394482E+03 0.  0.
         23    2    4    4    0    0  0.46274882325E+03 -0.10168165391E+03 -0.44115994354E+02  0.48464161710E+03  0.91954575235E+02 0.  0.
         23    2    4    4    0    0 -0.40805690235E+03 -0.27390325221E+03  0.82746112966E+01  0.49945672811E+03  0.88629153985E+02 0.  0.
          3    1    3    3  502    0 -0.74535321864E+02  0.29353658569E+03 -0.30407855962E+03  0.42916548296E+03  0.00000000000E+00 0. -1.
         -4    1    3    3    0  502  0.19843400969E+02  0.82048320432E+02 -0.10188486168E+03  0.13231104447E+03  0.00000000000E+00 0.  1.
         11    1    5    5    0    0  0.28218693941E+03 -0.15980640077E+02 -0.31215409414E+02  0.28435761185E+03  0.00000000000E+00 0.  1.
        -11    1    5    5    0    0  0.18056188384E+03 -0.85701013836E+02 -0.12900584940E+02  0.20028400525E+03  0.00000000000E+00 0. -1.
          4    1    6    6  503    0 -0.16399188409E+03 -0.65268502350E+02  0.23216058395E+02  0.17802331537E+03  0.00000000000E+00 0. -1.
         -4    1    6    6    0  503 -0.24406501826E+03 -0.20863474986E+03 -0.14941447098E+02  0.32143341275E+03  0.00000000000E+00 0.  1.
<mgrwt>
<rscale>  0 0.14810841E+04</rscale>
<asrwt>0</asrwt>
<pdfrwt beam="1">  1        1 0.15287536E+00 0.14810841E+04</pdfrwt>
<pdfrwt beam="2">  1       -2 0.84905391E-01 0.14810841E+04</pdfrwt>
<totfact> 0.15702290E+01</totfact>
</mgrwt>
</event>
<event>
12    4  0.4413110E-008  0.1151001E+04  0.7818608E-02  0.9156860E-01
          1   -1    0    0  501    0  0.00000000000E+00  0.00000000000E+00  0.51681624197E+03  0.51681624197E+03  0.00000000000E+00 0. -1.
         -2   -1    0    0    0  501 -0.00000000000E+00 -0.00000000000E+00 -0.64084847643E+03  0.64084847643E+03  0.00000000000E+00 0.  1.
        -24    2    1    2    0    0 -0.66830881851E+02  0.18371091457E+03 -0.10207248947E+03  0.23422135627E+03  0.78897298606E+02 0.  0.
        254    2    1    2    0    0  0.66830881851E+02 -0.18371091457E+03 -0.21959744996E+02  0.92344336214E+03  0.90224683196E+03 0.  0.
         23    2    4    4    0    0  0.30008723797E+03  0.14966509390E+03  0.24837747992E+03  0.42650776194E+03  0.88122118344E+02 0.  0.
         23    2    4    4    0    0 -0.23325635612E+03 -0.33337600846E+03 -0.27033722492E+03  0.49693560020E+03  0.91184893948E+02 0.  0.
          1    1    3    3  502    0 -0.78078654158E+02  0.17762894480E+03 -0.82500724254E+02  0.21084280346E+03  0.00000000000E+00 0. -1.
         -2    1    3    3    0  502  0.11247772307E+02  0.60819697616E+01 -0.19571765212E+02  0.23378552812E+02  0.00000000000E+00 0.  1.
         11    1    5    5    0    0  0.17180445200E+03  0.13181435267E+03  0.16803117680E+03  0.27409171763E+03  0.00000000000E+00 0. -1.
        -11    1    5    5    0    0  0.12828278597E+03  0.17850741229E+02  0.80346303119E+02  0.15241604431E+03  0.00000000000E+00 0.  1.
          1    1    6    6  503    0 -0.14530922140E+03 -0.24588646622E+03 -0.22930531478E+03  0.36627291939E+03  0.00000000000E+00 0. -1.
         -1    1    6    6    0  503 -0.87947134716E+02 -0.87489542236E+02 -0.41031910137E+02  0.13066268080E+03  0.00000000000E+00 0.  1.
<mgrwt>
<rscale>  0 0.11510011E+04</rscale>
<asrwt>0</asrwt>
<pdfrwt beam="1">  1        1 0.79510191E-01 0.11510011E+04</pdfrwt>
<pdfrwt beam="2">  1       -2 0.98592073E-01 0.11510011E+04</pdfrwt>
<totfact> 0.31412806E+01</totfact>
</mgrwt>
</event>
<event>
12    4  0.4413110E-008  0.1844267E+04  0.7818608E-02  0.8683107E-01
          3   -1    0    0  501    0  0.00000000000E+00  0.00000000000E+00  0.14746379682E+04  0.14746379682E+04  0.00000000000E+00 0. -1.
         -4   -1    0    0    0  501 -0.00000000000E+00 -0.00000000000E+00 -0.57663668389E+03  0.57663668389E+03  0.00000000000E+00 0.  1.
        -24    2    1    2    0    0  0.60147666330E+03 -0.18564063321E+03  0.18590700342E+02  0.63538534704E+03  0.84452968586E+02 0.  0.
        254    2    1    2    0    0 -0.60147666330E+03  0.18564063321E+03  0.87941058402E+03  0.14158893051E+04  0.91386154738E+03 0.  0.
         23    2    4    4    0    0 -0.14191962679E+03 -0.29838600205E+03  0.58976788725E+03  0.68263576191E+03  0.94815799937E+02 0.  0.
         23    2    4    4    0    0 -0.45955703651E+03  0.48402663526E+03  0.28964269677E+03  0.73325354318E+03  0.91068179667E+02 0.  0.
          3    1    3    3  502    0  0.14894933756E+03 -0.28068196593E+02 -0.27324402519E+02  0.15401412854E+03  0.00000000000E+00 0. -1.
         -4    1    3    3    0  502  0.45252732575E+03 -0.15757243662E+03  0.45915102862E+02  0.48137121850E+03  0.00000000000E+00 0.  1.
         11    1    5    5    0    0 -0.52991913970E+02 -0.29798891884E+02  0.10780057754E+03  0.12376219706E+03  0.00000000000E+00 0. -1.
        -11    1    5    5    0    0 -0.88927712817E+02 -0.26858711016E+03  0.48196730971E+03  0.55887356485E+03  0.00000000000E+00 0.  1.
          4    1    6    6  503    0 -0.33641997602E+03  0.40547590894E+03  0.21284620011E+03  0.56823641022E+03  0.00000000000E+00 0.  1.
         -4    1    6    6    0  503 -0.12313706049E+03  0.78550726316E+02  0.76796496663E+02  0.16501713296E+03  0.00000000000E+00 0. -1.
<mgrwt>
<rscale>  0 0.18442672E+04</rscale>
<asrwt>0</asrwt>
<pdfrwt beam="1">  1        3 0.22686738E+00 0.18442672E+04</pdfrwt>
<pdfrwt beam="2">  1       -4 0.88713336E-01 0.18442672E+04</pdfrwt>
<totfact> 0.23806582E-01</totfact>
</mgrwt>
</event>
<event>
12    4  0.4413110E-008  0.1130595E+04  0.7818608E-02  0.9175874E-01
         -2   -1    0    0    0  501 -0.00000000000E+00  0.00000000000E+00  0.10927392121E+04  0.10927392121E+04  0.00000000000E+00 0.  1.
          3   -1    0    0  501    0  0.00000000000E+00 -0.00000000000E+00 -0.29244076603E+03  0.29244076603E+03  0.00000000000E+00 0. -1.
        -24    2    1    2    0    0 -0.81015654288E+02 -0.45411934108E+02 -0.62739834088E+02  0.13747620095E+03  0.79609289950E+02 0.  0.
        254    2    1    2    0    0  0.81015654288E+02  0.45411934108E+02  0.86303828013E+03  0.12477037772E+04  0.89627220338E+03 0.  0.
         23    2    4    4    0    0  0.36463884116E+03 -0.15538346742E+03  0.12178272376E+03  0.42392865931E+03  0.88198469081E+02 0.  0.
         23    2    4    4    0    0 -0.28362318687E+03  0.20079540153E+03  0.74125555637E+03  0.82377511784E+03  0.91568223351E+02 0.  0.
          1    1    3    3  502    0  0.18201352245E+01 -0.29890037830E+02 -0.40400098911E+02  0.50288122312E+02  0.00000000000E+00 0. -1.
         -2    1    3    3    0  502 -0.82835789513E+02 -0.15521896278E+02 -0.22339735177E+02  0.87188078635E+02  0.00000000000E+00 0.  1.
         11    1    5    5    0    0  0.77967499634E+02 -0.38279536608E+01  0.47106128727E+02  0.91173305261E+02  0.00000000000E+00 0. -1.
        -11    1    5    5    0    0  0.28667134152E+03 -0.15155551376E+03  0.74676595033E+02  0.33275535405E+03  0.00000000000E+00 0.  1.
          2    1    6    6  503    0 -0.67485816906E+02  0.40533284100E+02  0.92686289476E+02  0.12160604779E+03  0.00000000000E+00 0. -1.
         -2    1    6    6    0  503 -0.21613736996E+03  0.16026211743E+03  0.64856926689E+03  0.70216907005E+03  0.00000000000E+00 0.  1.
<mgrwt>
<rscale>  0 0.11305954E+04</rscale>
<asrwt>0</asrwt>
<pdfrwt beam="1">  1        3 0.44990888E-01 0.11305954E+04</pdfrwt>
<pdfrwt beam="2">  1       -2 0.16811372E+00 0.11305954E+04</pdfrwt>
<totfact> 0.44961880E+00</totfact>
</mgrwt>
</event>
<event>
12    4  0.4413110E-008  0.1361573E+04  0.7818608E-02  0.8982113E-01
          1   -1    0    0  501    0  0.00000000000E+00  0.00000000000E+00  0.15514783803E+04  0.15514783803E+04  0.00000000000E+00 0. -1.
         -2   -1    0    0    0  501 -0.00000000000E+00 -0.00000000000E+00 -0.29872830868E+03  0.29872830868E+03  0.00000000000E+00 0.  1.
        -24    2    1    2    0    0  0.10454062320E+03  0.98377550977E+02  0.84927525358E+03  0.86508303817E+03  0.80581152534E+02 0.  0.
        254    2    1    2    0    0 -0.10454062320E+03 -0.98377550977E+02  0.40347481799E+03  0.98512365076E+03  0.88716954079E+03 0.  0.
         23    2    4    4    0    0  0.74119959882E+02 -0.31805866064E+03 -0.13928725723E+03  0.36620975982E+03  0.89741674281E+02 0.  0.
         23    2    4    4    0    0 -0.17866058308E+03  0.21968110966E+03  0.54276207522E+03  0.61891389095E+03  0.91018351020E+02 0.  0.
          1    1    3    3  502    0  0.71610390923E+02  0.97969838310E+02  0.76564352616E+03  0.77520071366E+03  0.00000000000E+00 0. -1.
         -2    1    3    3    0  502  0.32930232278E+02  0.40771266668E+00  0.83631727417E+02  0.89882324504E+02  0.00000000000E+00 0.  1.
         11    1    5    5    0    0 -0.27312360341E+01 -0.75005988760E+02  0.13639545374E+01  0.75068091571E+02  0.00000000000E+00 0. -1.
        -11    1    5    5    0    0  0.76851195916E+02 -0.24305267187E+03 -0.14065121176E+03  0.29114166825E+03  0.00000000000E+00 0.  1.
          4    1    6    6  503    0 -0.15165967633E+03  0.15644885179E+03  0.47395665177E+03  0.52164337282E+03  0.00000000000E+00 0.  1.
         -4    1    6    6    0  503 -0.27000906754E+02  0.63232257866E+02  0.68805423448E+02  0.97270518125E+02  0.00000000000E+00 0. -1.
<mgrwt>
<rscale>  0 0.13615734E+04</rscale>
<asrwt>0</asrwt>
<pdfrwt beam="1">  1        1 0.23868898E+00 0.13615734E+04</pdfrwt>
<pdfrwt beam="2">  1       -2 0.45958202E-01 0.13615734E+04</pdfrwt>
<totfact> 0.23217488E+01</totfact>
</mgrwt>
</event>
<event>
12    4  0.4413110E-008  0.1852782E+04  0.7818608E-02  0.8678723E-01
          1   -1    0    0  501    0  0.00000000000E+00  0.00000000000E+00  0.33331662156E+04  0.33331662156E+04  0.00000000000E+00 0. -1.
         -2   -1    0    0    0  501 -0.00000000000E+00 -0.00000000000E+00 -0.25747306145E+03  0.25747306145E+03  0.00000000000E+00 0.  1.
        -24    2    1    2    0    0  0.52293535411E+03 -0.45509660678E+03  0.14054131937E+04  0.15690508587E+04  0.78485960526E+02 0.  0.
        254    2    1    2    0    0 -0.52293535411E+03  0.45509660678E+03  0.16702799604E+04  0.20215884184E+04  0.90355424903E+03 0.  0.
         23    2    4    4    0    0 -0.56250549702E+03  0.18719885195E+02  0.13667463434E+04  0.14808621366E+04  0.90521998246E+02 0.  0.
         23    2    4    4    0    0  0.39570142906E+02  0.43637672159E+03  0.30353361703E+03  0.54072628175E+03  0.90894530927E+02 0.  0.
          3    1    3    3  502    0  0.34546159311E+03 -0.26742766612E+03  0.94596975218E+03  0.10419789062E+04  0.00000000000E+00 0. -1.
         -4    1    3    3    0  502  0.17747376100E+03 -0.18766894067E+03  0.45944344153E+03  0.52707195248E+03  0.00000000000E+00 0.  1.
         11    1    5    5    0    0 -0.45636902201E+03  0.15742384891E+02  0.10054548323E+04  0.11042915950E+04  0.00000000000E+00 0. -1.
        -11    1    5    5    0    0 -0.10613647500E+03  0.29775003046E+01  0.36129151108E+03  0.37657054161E+03  0.00000000000E+00 0.  1.
          4    1    6    6  503    0  0.60219189633E+02  0.40048664219E+03  0.26372438732E+03  0.48328713394E+03  0.00000000000E+00 0. -1.
         -4    1    6    6    0  503 -0.20649046728E+02  0.35890079401E+02  0.39809229708E+02  0.57439147801E+02  0.00000000000E+00 0.  1.
<mgrwt>
<rscale>  0 0.18527822E+04</rscale>
<asrwt>0</asrwt>
<pdfrwt beam="1">  1        1 0.51279477E+00 0.18527822E+04</pdfrwt>
<pdfrwt beam="2">  1       -2 0.39611243E-01 0.18527822E+04</pdfrwt>
<totfact> 0.16836903E+00</totfact>
</mgrwt>
</event>
<event>
12    4  0.4413110E-008  0.3527873E+04  0.7818608E-02  0.8107216E-01
         -2   -1    0    0    0  501 -0.00000000000E+00  0.00000000000E+00  0.13201132995E+04  0.13201132995E+04  0.00000000000E+00 0.  1.
          1   -1    0    0  501    0  0.00000000000E+00 -0.00000000000E+00 -0.23569738127E+04  0.23569738127E+04  0.00000000000E+00 0. -1.
        -24    2    1    2    0    0 -0.15274184646E+04 -0.11308530122E+03  0.14554753965E+03  0.15405082717E+04  0.78652385007E+02 0.  0.
        254    2    1    2    0    0  0.15274184646E+04  0.11308530122E+03 -0.11824080528E+04  0.21365788405E+04  0.90613734433E+03 0.  0.
         23    2    4    4    0    0  0.14056309841E+04 -0.88788868315E+02 -0.12352758661E+04  0.18756722513E+04  0.92509471985E+02 0.  0.
         23    2    4    4    0    0  0.12178748053E+03  0.20187416953E+03  0.52867813251E+02  0.26090658918E+03  0.98447305005E+02 0.  0.
          3    1    3    3  502    0 -0.71780122991E+02  0.96771750035E+01 -0.39259355951E+00  0.72430572981E+02  0.00000000000E+00 0. -1.
         -4    1    3    3    0  502 -0.14556383416E+04 -0.12276247622E+03  0.14594013321E+03  0.14680776988E+04  0.00000000000E+00 0.  1.
         11    1    5    5    0    0  0.55786502431E+03 -0.24934457269E+01 -0.44743430432E+03  0.71513429459E+03  0.00000000000E+00 0. -1.
        -11    1    5    5    0    0  0.84776595976E+03 -0.86295422588E+02 -0.78784156176E+03  0.11605379567E+04  0.00000000000E+00 0.  1.
          3    1    6    6  503    0  0.66902858502E+02  0.38869241261E+02  0.43248110686E+02  0.88640901789E+02  0.00000000000E+00 0. -1.
         -3    1    6    6    0  503  0.54884622026E+02  0.16300492827E+03  0.96197025648E+01  0.17226568739E+03  0.00000000000E+00 0.  1.
<mgrwt>
<rscale>  0 0.35278733E+04</rscale>
<asrwt>0</asrwt>
<pdfrwt beam="1">  1        1 0.36261135E+00 0.35278733E+04</pdfrwt>
<pdfrwt beam="2">  1       -2 0.20309435E+00 0.35278733E+04</pdfrwt>
<totfact> 0.15459365E-01</totfact>
</mgrwt>
</event>
<event>
12    4  0.4413110E-008  0.1813460E+04  0.7818608E-02  0.8699174E-01
         -2   -1    0    0    0  501 -0.00000000000E+00  0.00000000000E+00  0.39565000810E+03  0.39565000810E+03  0.00000000000E+00 0.  1.
          1   -1    0    0  501    0  0.00000000000E+00 -0.00000000000E+00 -0.20779972341E+04  0.20779972341E+04  0.00000000000E+00 0. -1.
        -24    2    1    2    0    0 -0.81563782438E+02  0.96439316697E+02 -0.15494980003E+04  0.15564641475E+04  0.75388308750E+02 0.  0.
        254    2    1    2    0    0  0.81563782438E+02 -0.96439316697E+02 -0.13284922567E+03  0.91718309467E+03  0.89867831841E+03 0.  0.
         23    2    4    4    0    0  0.32031064898E+03  0.27712536567E+03  0.36480093874E+02  0.43472058564E+03  0.90850482543E+02 0.  0.
         23    2    4    4    0    0 -0.23874686655E+03 -0.37356468237E+03 -0.16932931954E+03  0.48246250903E+03  0.86873563111E+02 0.  0.
          1    1    3    3  502    0 -0.78796782962E+02  0.46377890716E+02 -0.11868504279E+04  0.11903670778E+04  0.00000000000E+00 0. -1.
         -2    1    3    3    0  502 -0.27669994752E+01  0.50061425980E+02 -0.36264757238E+03  0.36609706966E+03  0.00000000000E+00 0.  1.
         11    1    5    5    0    0  0.18604654789E+03  0.10153981924E+03  0.11275698845E+02  0.21225172381E+03  0.00000000000E+00 0.  1.
        -11    1    5    5    0    0  0.13426410109E+03  0.17558554643E+03  0.25204395029E+02  0.22246886183E+03  0.00000000000E+00 0. -1.
          3    1    6    6  503    0 -0.21751155218E+03 -0.30052781831E+03 -0.16572347073E+03  0.40631578072E+03  0.00000000000E+00 0. -1.
         -3    1    6    6    0  503 -0.21235314364E+02 -0.73036864052E+02 -0.36058488154E+01  0.76146728311E+02  0.00000000000E+00 0.  1.
<mgrwt>
<rscale>  0 0.18134604E+04</rscale>
<asrwt>0</asrwt>
<pdfrwt beam="1">  1        1 0.31969188E+00 0.18134604E+04</pdfrwt>
<pdfrwt beam="2">  1       -2 0.60869233E-01 0.18134604E+04</pdfrwt>
<totfact> 0.54854625E+00</totfact>
</mgrwt>
</event>
<event>
12    4  0.4413110E-008  0.1635321E+04  0.7818608E-02  0.8799138E-01
         -2   -1    0    0    0  501 -0.00000000000E+00  0.00000000000E+00  0.39232559403E+03  0.39232559403E+03  0.00000000000E+00 0.  1.
          1   -1    0    0  501    0  0.00000000000E+00 -0.00000000000E+00 -0.17041172059E+04  0.17041172059E+04  0.00000000000E+00 0. -1.
        -24    2    1    2    0    0 -0.37079162494E+03 -0.41031696568E+03 -0.29655626688E+03  0.63272465318E+03  0.80922344634E+02 0.  0.
        254    2    1    2    0    0  0.37079162494E+03  0.41031696568E+03 -0.10152353450E+04  0.14637181467E+04  0.89773134397E+03 0.  0.
         23    2    4    4    0    0 -0.22877222721E+03  0.11879796995E+02 -0.43776531075E+02  0.25085317805E+03  0.92374621746E+02 0.  0.
         23    2    4    4    0    0  0.59956385215E+03  0.39843716869E+03 -0.97145881388E+03  0.12128649687E+04  0.95290162020E+02 0.  0.
          1    1    3    3  502    0 -0.92222127551E+01 -0.18663639270E+02 -0.30640661968E+02  0.37043633795E+02  0.00000000000E+00 0. -1.
         -2    1    3    3    0  502 -0.36156941218E+03 -0.39165332641E+03 -0.26591560492E+03  0.59568101938E+03  0.00000000000E+00 0.  1.
         11    1    5    5    0    0 -0.23524114785E+03  0.89882495374E+01 -0.50848916226E+02  0.24084185382E+03  0.00000000000E+00 0. -1.
        -11    1    5    5    0    0  0.64689206399E+01  0.28915474572E+01  0.70723851510E+01  0.10011324221E+02  0.00000000000E+00 0.  1.
          3    1    6    6  503    0  0.34050570145E+03  0.21000517869E+03 -0.46284219327E+03  0.61177545199E+03  0.00000000000E+00 0. -1.
         -3    1    6    6    0  503  0.25905815070E+03  0.18843199000E+03 -0.50861662061E+03  0.60108951668E+03  0.00000000000E+00 0.  1.
<mgrwt>
<rscale>  0 0.16353211E+04</rscale>
<asrwt>0</asrwt>
<pdfrwt beam="1">  1        1 0.26217188E+00 0.16353211E+04</pdfrwt>
<pdfrwt beam="2">  1       -2 0.60357783E-01 0.16353211E+04</pdfrwt>
<totfact> 0.10170228E+01</totfact>
</mgrwt>
</event>
<event>
12    4  0.4413110E-008  0.1553090E+04  0.7818608E-02  0.8849897E-01
         -2   -1    0    0    0  501 -0.00000000000E+00  0.00000000000E+00  0.11745318288E+04  0.11745318288E+04  0.00000000000E+00 0.  1.
          1   -1    0    0  501    0  0.00000000000E+00 -0.00000000000E+00 -0.51341459652E+03  0.51341459652E+03  0.00000000000E+00 0. -1.
        -24    2    1    2    0    0 -0.91505333612E+02  0.35325845611E+03  0.60902362106E+03  0.71458979573E+03  0.81018777246E+02 0.  0.
        254    2    1    2    0    0  0.91505333612E+02 -0.35325845611E+03  0.52093611176E+02  0.97335662954E+03  0.90085771410E+03 0.  0.
         23    2    4    4    0    0 -0.36077732193E+03 -0.30994020482E+02 -0.10682461239E+03  0.38861108189E+03  0.92120409399E+02 0.  0.
         23    2    4    4    0    0  0.45228265554E+03 -0.32226443562E+03  0.15891822356E+03  0.58474554765E+03  0.90875666400E+02 0.  0.
          3    1    3    3  502    0  0.74722999789E+01  0.93149745382E+00  0.86480198038E+01  0.11466961281E+02  0.00000000000E+00 0. -1.
         -4    1    3    3    0  502 -0.98977633590E+02  0.35232695865E+03  0.60037560125E+03  0.70312283445E+03  0.00000000000E+00 0.  1.
         11    1    5    5    0    0 -0.31402227056E+03 -0.58320789310E+02 -0.94372181143E+02  0.33304265409E+03  0.00000000000E+00 0. -1.
        -11    1    5    5    0    0 -0.46755051373E+02  0.27326768827E+02 -0.12452431243E+02  0.55568427792E+02  0.00000000000E+00 0.  1.
          3    1    6    6  503    0  0.26285504628E+03 -0.14234213122E+03  0.56966444690E+02  0.30430122164E+03  0.00000000000E+00 0. -1.
         -3    1    6    6    0  503  0.18942760927E+03 -0.17992230440E+03  0.10195177887E+03  0.28044432601E+03  0.00000000000E+00 0.  1.
<mgrwt>
<rscale>  0 0.15530895E+04</rscale>
<asrwt>0</asrwt>
<pdfrwt beam="1">  1        1 0.78986861E-01 0.15530895E+04</pdfrwt>
<pdfrwt beam="2">  1       -2 0.18069720E+00 0.15530895E+04</pdfrwt>
<totfact> 0.64488480E+00</totfact>
</mgrwt>
</event>
<event>
12    4  0.4413110E-008  0.1132646E+04  0.7818608E-02  0.9173944E-01
          1   -1    0    0  501    0  0.00000000000E+00  0.00000000000E+00  0.18928888391E+04  0.18928888391E+04  0.00000000000E+00 0. -1.
         -2   -1    0    0    0  501 -0.00000000000E+00 -0.00000000000E+00 -0.16943505022E+03  0.16943505022E+03  0.00000000000E+00 0.  1.
        -24    2    1    2    0    0 -0.35163247246E+02  0.11847810265E+03  0.60112288352E+03  0.61873005957E+03  0.78769605613E+02 0.  0.
        254    2    1    2    0    0  0.35163247246E+02 -0.11847810265E+03  0.11223309054E+04  0.14435938297E+04  0.89947927678E+03 0.  0.
         23    2    4    4    0    0 -0.82162198228E+02  0.20094941195E+02 -0.12577136154E+03  0.17836039421E+03  0.94018941486E+02 0.  0.
         23    2    4    4    0    0  0.11732544547E+03 -0.13857304384E+03  0.12481022669E+04  0.12652334355E+04  0.10044216792E+03 0.  0.
          1    1    3    3  502    0 -0.27832561403E+01  0.11365348491E+03  0.47726230849E+03  0.49061611495E+03  0.00000000000E+00 0. -1.
         -2    1    3    3    0  502 -0.32379991105E+02  0.48246177416E+01  0.12386057503E+03  0.12811394462E+03  0.00000000000E+00 0.  1.
         11    1    5    5    0    0 -0.15853061900E+02  0.91254383141E+00  0.14830559017E+02  0.21727811408E+02  0.00000000000E+00 0. -1.
        -11    1    5    5    0    0 -0.66309136328E+02  0.19182397364E+02 -0.14060192056E+03  0.15663258280E+03  0.00000000000E+00 0.  1.
          2    1    6    6  503    0  0.40729456849E+01  0.15099875367E+02  0.13203300994E+03  0.13295604852E+03  0.00000000000E+00 0. -1.
         -2    1    6    6    0  503  0.11325249979E+03 -0.15367291921E+03  0.11160692570E+04  0.11322773870E+04  0.00000000000E+00 0.  1.
<mgrwt>
<rscale>  0 0.11326460E+04</rscale>
<asrwt>0</asrwt>
<pdfrwt beam="1">  1        1 0.29121365E+00 0.11326460E+04</pdfrwt>
<pdfrwt beam="2">  1       -2 0.26066932E-01 0.11326460E+04</pdfrwt>
<totfact> 0.40951334E+01</totfact>
</mgrwt>
</event>
<event>
12    4  0.4413110E-008  0.1599201E+04  0.7818608E-02  0.8821039E-01
          1   -1    0    0  501    0  0.00000000000E+00  0.00000000000E+00  0.12146019563E+04  0.12146019563E+04  0.00000000000E+00 0. -1.
         -4   -1    0    0    0  501 -0.00000000000E+00 -0.00000000000E+00 -0.52639550861E+03  0.52639550861E+03  0.00000000000E+00 0.  1.
        -24    2    1    2    0    0 -0.24170511809E+03  0.50276953875E+02 -0.26976740368E+03  0.37402804082E+03  0.78570904461E+02 0.  0.
        254    2    1    2    0    0  0.24170511809E+03 -0.50276953875E+02  0.95797385137E+03  0.13669694241E+04  0.94336756904E+03 0.  0.
         23    2    4    4    0    0  0.82832390591E+02 -0.42215650672E+03  0.81847701757E+03  0.92970817555E+03  0.96826351237E+02 0.  0.
         23    2    4    4    0    0  0.15887272750E+03  0.37187955285E+03  0.13949683380E+03  0.43726124855E+03  0.90570897495E+02 0.  0.
          3    1    3    3  502    0 -0.15512811269E+02  0.17735927900E+02 -0.46541301035E+01  0.24018146868E+02  0.00000000000E+00 0. -1.
         -4    1    3    3    0  502 -0.22619230682E+03  0.32541025976E+02 -0.26511327358E+03  0.35000989395E+03  0.00000000000E+00 0.  1.
         11    1    5    5    0    0  0.97885730526E+02 -0.40837014886E+03  0.76908805569E+03  0.87626721503E+03  0.00000000000E+00 0. -1.
        -11    1    5    5    0    0 -0.15053339935E+02 -0.13786357862E+02  0.49388961876E+02  0.53440960522E+02  0.00000000000E+00 0.  1.
          1    1    6    6  503    0  0.61318388943E+02  0.25114252906E+03  0.99138079988E+02  0.27687700090E+03  0.00000000000E+00 0. -1.
         -1    1    6    6    0  503  0.97554338553E+02  0.12073702379E+03  0.40358753815E+02  0.16038424765E+03  0.00000000000E+00 0.  1.
<mgrwt>
<rscale>  0 0.15992011E+04</rscale>
<asrwt>0</asrwt>
<pdfrwt beam="1">  1        1 0.18686184E+00 0.15992011E+04</pdfrwt>
<pdfrwt beam="2">  1       -4 0.80983925E-01 0.15992011E+04</pdfrwt>
<totfact> 0.65936412E+00</totfact>
</mgrwt>
</event>
<event>
12    4  0.4413110E-008  0.2099156E+04  0.7818608E-02  0.8561615E-01
         -2   -1    0    0    0  501 -0.00000000000E+00  0.00000000000E+00  0.74988371436E+03  0.74988371436E+03  0.00000000000E+00 0.  1.
          1   -1    0    0  501    0  0.00000000000E+00 -0.00000000000E+00 -0.14690465431E+04  0.14690465431E+04  0.00000000000E+00 0. -1.
        -24    2    1    2    0    0 -0.80405501118E+03 -0.49973511851E+02 -0.57271195184E+03  0.99176269701E+03  0.81193931449E+02 0.  0.
        254    2    1    2    0    0  0.80405501118E+03  0.49973511851E+02 -0.14645087686E+03  0.12271675604E+04  0.91405172126E+03 0.  0.
         23    2    4    4    0    0  0.17326930477E+03 -0.36999417759E+03  0.89451521277E+02  0.42816044367E+03  0.91661591909E+02 0.  0.
         23    2    4    4    0    0  0.63078570640E+03  0.41996768944E+03 -0.23590239813E+03  0.79900711675E+03  0.92189823737E+02 0.  0.
          3    1    3    3  502    0 -0.42413008325E+03 -0.60096201025E+02 -0.27579325179E+03  0.50947011554E+03  0.00000000000E+00 0. -1.
         -4    1    3    3    0  502 -0.37992492792E+03  0.10122689174E+02 -0.29691870005E+03  0.48229258146E+03  0.00000000000E+00 0.  1.
         11    1    5    5    0    0  0.10675531233E+03 -0.12808813517E+03  0.20672383298E+02  0.16801968489E+03  0.00000000000E+00 0. -1.
        -11    1    5    5    0    0  0.66513992449E+02 -0.24190604243E+03  0.68779137979E+02  0.26014075877E+03  0.00000000000E+00 0.  1.
          2    1    6    6  503    0  0.71695320662E+02  0.15740880479E+02 -0.19472008249E+02  0.75941776568E+02  0.00000000000E+00 0.  1.
         -2    1    6    6    0  503  0.55909038574E+03  0.40422680897E+03 -0.21643038989E+03  0.72306534019E+03  0.00000000000E+00 0. -1.
<mgrwt>
<rscale>  0 0.20991561E+04</rscale>
<asrwt>0</asrwt>
<pdfrwt beam="1">  1        1 0.22600716E+00 0.20991561E+04</pdfrwt>
<pdfrwt beam="2">  1       -2 0.11536673E+00 0.20991561E+04</pdfrwt>
<totfact> 0.32469441E+00</totfact>
</mgrwt>
</event>
<event>
12    4  0.4413110E-008  0.1187746E+04  0.7818608E-02  0.9123650E-01
         -2   -1    0    0    0  501 -0.00000000000E+00  0.00000000000E+00  0.33185421558E+03  0.33185421558E+03  0.00000000000E+00 0.  1.
          1   -1    0    0  501    0  0.00000000000E+00 -0.00000000000E+00 -0.10627718536E+04  0.10627718536E+04  0.00000000000E+00 0. -1.
        -24    2    1    2    0    0  0.19916318947E+03 -0.14775733005E+03 -0.15111387569E+03  0.30084309234E+03  0.78568175253E+02 0.  0.
        254    2    1    2    0    0 -0.19916318947E+03  0.14775733005E+03 -0.57980376234E+03  0.10937829768E+04  0.89369491046E+03 0.  0.
         23    2    4    4    0    0 -0.14697565033E+03  0.49141412202E+03 -0.50931408374E+03  0.72720901007E+03  0.79639357948E+02 0.  0.
         23    2    4    4    0    0 -0.52187539138E+02 -0.34365679197E+03 -0.70489678602E+02  0.36657396676E+03  0.92650679494E+02 0.  0.
          3    1    3    3  502    0  0.15269355008E+03 -0.14600734192E+03 -0.13864713048E+03  0.25269841891E+03  0.00000000000E+00 0. -1.
         -4    1    3    3    0  502  0.46469639393E+02 -0.17499881288E+01 -0.12466745202E+02  0.48144673431E+02  0.00000000000E+00 0.  1.
         11    1    5    5    0    0 -0.48005189225E+02  0.23570418202E+03 -0.28505779433E+03  0.37298646855E+03  0.00000000000E+00 0.  1.
        -11    1    5    5    0    0 -0.98970461106E+02  0.25570994000E+03 -0.22425628940E+03  0.35422254152E+03  0.00000000000E+00 0. -1.
          2    1    6    6  503    0 -0.41604458901E+02 -0.23845488719E+03 -0.91499877841E+02  0.25877382378E+03  0.00000000000E+00 0. -1.
         -2    1    6    6    0  503 -0.10583080237E+02 -0.10520190478E+03  0.21010199239E+02  0.10780014299E+03  0.00000000000E+00 0.  1.
<mgrwt>
<rscale>  0 0.11877463E+04</rscale>
<asrwt>0</asrwt>
<pdfrwt beam="1">  1        1 0.16350336E+00 0.11877463E+04</pdfrwt>
<pdfrwt beam="2">  1       -2 0.51054495E-01 0.11877463E+04</pdfrwt>
<totfact> 0.42608765E+01</totfact>
</mgrwt>
</event>
<event>
12    4  0.4413110E-008  0.1340612E+04  0.7818608E-02  0.8997966E-01
         -2   -1    0    0    0  501 -0.00000000000E+00  0.00000000000E+00  0.41335737122E+03  0.41335737122E+03  0.00000000000E+00 0.  1.
          1   -1    0    0  501    0  0.00000000000E+00 -0.00000000000E+00 -0.10869766573E+04  0.10869766573E+04  0.00000000000E+00 0. -1.
        -24    2    1    2    0    0  0.12808203561E+03 -0.16400446400E+03  0.15004263505E+03  0.26872133396E+03  0.79974314216E+02 0.  0.
        254    2    1    2    0    0 -0.12808203561E+03  0.16400446400E+03 -0.82366192111E+03  0.12316126945E+04  0.89171093802E+03 0.  0.
         23    2    4    4    0    0 -0.23707290275E+03  0.28029704461E+03  0.91471822328E+01  0.37822300441E+03  0.90548195388E+02 0.  0.
         23    2    4    4    0    0  0.10899086714E+03 -0.11629258060E+03 -0.83280910334E+03  0.85338969012E+03  0.96436441129E+02 0.  0.
          1    1    3    3  502    0 -0.69688818931E+01 -0.24862166780E+02  0.34183746601E+02  0.42839481597E+02  0.00000000000E+00 0. -1.
         -2    1    3    3    0  502  0.13505091750E+03 -0.13914229722E+03  0.11585888845E+03  0.22588185236E+03  0.00000000000E+00 0.  1.
         11    1    5    5    0    0 -0.15468468098E+02  0.95677061915E+01 -0.20140895299E+02  0.27137983906E+02  0.00000000000E+00 0. -1.
        -11    1    5    5    0    0 -0.22160443465E+03  0.27072933841E+03  0.29288077531E+02  0.35108502050E+03  0.00000000000E+00 0.  1.
          4    1    6    6  503    0  0.73067501839E+02 -0.31679534377E+02 -0.22521181985E+03  0.23887824623E+03  0.00000000000E+00 0. -1.
         -4    1    6    6    0  503  0.35923365303E+02 -0.84613046228E+02 -0.60759728349E+03  0.61451144389E+03  0.00000000000E+00 0.  1.
<mgrwt>
<rscale>  0 0.13406115E+04</rscale>
<asrwt>0</asrwt>
<pdfrwt beam="1">  1        1 0.16722718E+00 0.13406115E+04</pdfrwt>
<pdfrwt beam="2">  1       -2 0.63593443E-01 0.13406115E+04</pdfrwt>
<totfact> 0.25489406E+01</totfact>
</mgrwt>
</event>
<event>
12    4  0.4413110E-008  0.1164442E+04  0.7818608E-02  0.9144562E-01
         -2   -1    0    0    0  501 -0.00000000000E+00  0.00000000000E+00  0.20378939160E+03  0.20378939160E+03  0.00000000000E+00 0.  1.
          1   -1    0    0  501    0  0.00000000000E+00 -0.00000000000E+00 -0.16633914025E+04  0.16633914025E+04  0.00000000000E+00 0. -1.
        -24    2    1    2    0    0  0.20476618612E+03  0.10091734121E+03 -0.29984190577E+03  0.38521056804E+03  0.79802960706E+02 0.  0.
        254    2    1    2    0    0 -0.20476618612E+03 -0.10091734121E+03 -0.11597601051E+04  0.14819702261E+04  0.89391204754E+03 0.  0.
         23    2    4    4    0    0 -0.51819518877E+03 -0.20932312055E+03 -0.83715135697E+03  0.10106998390E+04  0.91374765133E+02 0.  0.
         23    2    4    4    0    0  0.31342900265E+03  0.10840577934E+03 -0.32260874816E+03  0.47127038701E+03  0.89609266195E+02 0.  0.
          3    1    3    3  502    0  0.20388626478E+03  0.91071306619E+02 -0.30149943905E+03  0.37518729136E+03  0.00000000000E+00 0. -1.
         -4    1    3    3    0  502  0.87992134012E+00  0.98460345943E+01  0.16575332742E+01  0.10023276677E+02  0.00000000000E+00 0.  1.
         11    1    5    5    0    0 -0.19868670026E+03 -0.36761693959E+02 -0.33004498536E+03  0.38698516685E+03  0.00000000000E+00 0.  1.
        -11    1    5    5    0    0 -0.31950848851E+03 -0.17256142659E+03 -0.50710637161E+03  0.62371467219E+03  0.00000000000E+00 0. -1.
          3    1    6    6  503    0  0.18577509821E+02  0.32126998627E+02 -0.21003711309E+02  0.42642980673E+02  0.00000000000E+00 0. -1.
         -3    1    6    6    0  503  0.29485149283E+03  0.76278780713E+02 -0.30160503685E+03  0.42862740634E+03  0.00000000000E+00 0.  1.
<mgrwt>
<rscale>  0 0.11644424E+04</rscale>
<asrwt>0</asrwt>
<pdfrwt beam="1">  1        1 0.25590637E+00 0.11644424E+04</pdfrwt>
<pdfrwt beam="2">  1       -2 0.31352215E-01 0.11644424E+04</pdfrwt>
<totfact> 0.41519538E+01</totfact>
</mgrwt>
</event>
<event>
12    4  0.4413110E-008  0.1455061E+04  0.7818608E-02  0.8914899E-01
          1   -1    0    0  501    0  0.00000000000E+00  0.00000000000E+00  0.54500833234E+03  0.54500833234E+03  0.00000000000E+00 0. -1.
         -2   -1    0    0    0  501 -0.00000000000E+00 -0.00000000000E+00 -0.97117945464E+03  0.97117945464E+03  0.00000000000E+00 0.  1.
        -24    2    1    2    0    0 -0.23250635685E+03  0.14059266928E+03  0.23447177038E+03  0.36775340966E+03  0.80249950664E+02 0.  0.
        254    2    1    2    0    0  0.23250635685E+03 -0.14059266928E+03 -0.66064289269E+03  0.11484343773E+04  0.89923688909E+03 0.  0.
         23    2    4    4    0    0  0.17994150187E+03 -0.28343582520E+03  0.10467622600E+03  0.36294133593E+03  0.89746810198E+02 0.  0.
         23    2    4    4    0    0  0.52564854987E+02  0.14284315592E+03 -0.76531911869E+03  0.78549304138E+03  0.90104014628E+02 0.  0.
          1    1    3    3  502    0 -0.11682050236E+03  0.25845842657E+02  0.86378643049E+02  0.14756797529E+03  0.00000000000E+00 0. -1.
         -2    1    3    3    0  502 -0.11568585449E+03  0.11474682662E+03  0.14809312733E+03  0.22018543438E+03  0.00000000000E+00 0.  1.
         11    1    5    5    0    0  0.14536205610E+03 -0.15757317365E+03  0.86418899840E+02  0.23114423777E+03  0.00000000000E+00 0.  1.
        -11    1    5    5    0    0  0.34579445767E+02 -0.12586265155E+03  0.18257326162E+02  0.13179709816E+03  0.00000000000E+00 0. -1.
          4    1    6    6  503    0  0.14244262475E+02  0.81088796392E+02 -0.21206910215E+03  0.22748977120E+03  0.00000000000E+00 0. -1.
         -4    1    6    6    0  503  0.38320592512E+02  0.61754359525E+02 -0.55325001653E+03  0.55800327017E+03  0.00000000000E+00 0.  1.
<mgrwt>
<rscale>  0 0.14550614E+04</rscale>
<asrwt>0</asrwt>
<pdfrwt beam="1">  1        1 0.83847436E-01 0.14550614E+04</pdfrwt>
<pdfrwt beam="2">  1       -2 0.14941222E+00 0.14550614E+04</pdfrwt>
<totfact> 0.10095930E+01</totfact>
</mgrwt>
</event>
<event>
12    4  0.4413110E-008  0.1667628E+04  0.7818608E-02  0.8780046E-01
          1   -1    0    0  501    0  0.00000000000E+00  0.00000000000E+00  0.17620283734E+04  0.17620283734E+04  0.00000000000E+00 0. -1.
         -2   -1    0    0    0  501 -0.00000000000E+00 -0.00000000000E+00 -0.39457111462E+03  0.39457111462E+03  0.00000000000E+00 0.  1.
        -24    2    1    2    0    0  0.78050153736E+02  0.43274588708E+03 -0.12406798703E+02  0.44705399478E+03  0.79639916598E+02 0.  0.
        254    2    1    2    0    0 -0.78050153736E+02 -0.43274588708E+03  0.13798640575E+04  0.17095454932E+04  0.90838326001E+03 0.  0.
         23    2    4    4    0    0 -0.28342017181E+03 -0.63770106349E+03  0.92878463639E+03  0.11653136878E+04  0.91243904250E+02 0.  0.
         23    2    4    4    0    0  0.20537001808E+03  0.20495517641E+03  0.45107942109E+03  0.54423180542E+03  0.92369612114E+02 0.  0.
          3    1    3    3  502    0  0.97471464180E+01  0.18798765296E+03  0.26106920469E+02  0.19004193176E+03  0.00000000000E+00 0. -1.
         -4    1    3    3    0  502  0.68303007317E+02  0.24475823411E+03 -0.38513719172E+02  0.25701206302E+03  0.00000000000E+00 0.  1.
         11    1    5    5    0    0 -0.11487546822E+03 -0.33336054688E+03  0.52378321432E+03  0.63140674927E+03  0.00000000000E+00 0. -1.
        -11    1    5    5    0    0 -0.16854470359E+03 -0.30434051660E+03  0.40500142207E+03  0.53390693855E+03  0.00000000000E+00 0.  1.
          2    1    6    6  503    0  0.25947125159E+02  0.23043999683E+01  0.85368990319E+02  0.89254849007E+02  0.00000000000E+00 0.  1.
         -2    1    6    6    0  503  0.17942289292E+03  0.20265077644E+03  0.36571043077E+03  0.45497695641E+03  0.00000000000E+00 0. -1.
<mgrwt>
<rscale>  0 0.16676277E+04</rscale>
<asrwt>0</asrwt>
<pdfrwt beam="1">  1        1 0.27108128E+00 0.16676277E+04</pdfrwt>
<pdfrwt beam="2">  1       -2 0.60703250E-01 0.16676277E+04</pdfrwt>
<totfact> 0.91510798E+00</totfact>
</mgrwt>
</event>
<event>
12    4  0.4413110E-008  0.1682449E+04  0.7818608E-02  0.8771438E-01
         -2   -1    0    0    0  501 -0.00000000000E+00  0.00000000000E+00  0.60296434044E+03  0.60296434044E+03  0.00000000000E+00 0.  1.
          1   -1    0    0  501    0  0.00000000000E+00 -0.00000000000E+00 -0.11736332917E+04  0.11736332917E+04  0.00000000000E+00 0. -1.
        -24    2    1    2    0    0 -0.45183833072E+03  0.39549787147E+03 -0.25946334555E+03  0.65893776395E+03  0.79380763654E+02 0.  0.
        254    2    1    2    0    0  0.45183833072E+03 -0.39549787147E+03 -0.31120560570E+03  0.11176598682E+04  0.88979672311E+03 0.  0.
         23    2    4    4    0    0 -0.11299030894E+03  0.13827499130E+03  0.11016833198E+03  0.22902535039E+03  0.91808314529E+02 0.  0.
         23    2    4    4    0    0  0.56482863966E+03 -0.53377286277E+03 -0.42137393768E+03  0.88863451777E+03  0.90390539418E+02 0.  0.
          1    1    3    3  502    0 -0.37450741882E+03  0.28876966246E+03 -0.21827442257E+03  0.52085261664E+03  0.00000000000E+00 0. -1.
         -2    1    3    3    0  502 -0.77330911894E+02  0.10672820901E+03 -0.41188922974E+02  0.13808514731E+03  0.00000000000E+00 0.  1.
         11    1    5    5    0    0  0.10501385363E+02  0.42094458351E+01  0.25802250760E+02  0.28173652107E+02  0.00000000000E+00 0. -1.
        -11    1    5    5    0    0 -0.12349169430E+03  0.13406554547E+03  0.84366081223E+02  0.20085169829E+03  0.00000000000E+00 0.  1.
          4    1    6    6  503    0  0.13873896948E+02  0.11670289143E+01 -0.12133909738E+02  0.18468317156E+02  0.00000000000E+00 0. -1.
         -4    1    6    6    0  503  0.55095474271E+03 -0.53493989168E+03 -0.40924002794E+03  0.87016620062E+03  0.00000000000E+00 0.  1.
<mgrwt>
<rscale>  0 0.16824494E+04</rscale>
<asrwt>0</asrwt>
<pdfrwt beam="1">  1        1 0.18055897E+00 0.16824494E+04</pdfrwt>
<pdfrwt beam="2">  1       -2 0.92763744E-01 0.16824494E+04</pdfrwt>
<totfact> 0.92014505E+00</totfact>
</mgrwt>
</event>
<event>
12    4  0.4413110E-008  0.2554746E+04  0.7818608E-02  0.8383738E-01
         -2   -1    0    0    0  501 -0.00000000000E+00  0.00000000000E+00  0.78190394098E+03  0.78190394098E+03  0.00000000000E+00 0.  1.
          1   -1    0    0  501    0  0.00000000000E+00 -0.00000000000E+00 -0.20868053676E+04  0.20868053676E+04  0.00000000000E+00 0. -1.
        -24    2    1    2    0    0  0.48939722392E+03  0.79152689710E+03  0.11041992230E+03  0.94039661099E+03  0.78286366078E+02 0.  0.
        254    2    1    2    0    0 -0.48939722392E+03 -0.79152689710E+03 -0.14153213490E+04  0.19283126976E+04  0.92153723059E+03 0.  0.
         23    2    4    4    0    0 -0.40047995221E+03 -0.18522644718E+03 -0.81571292508E+02  0.45757865533E+03  0.89617638863E+02 0.  0.
         23    2    4    4    0    0 -0.88917271708E+02 -0.60630044992E+03 -0.13337500565E+04  0.14707340423E+04  0.93074665015E+02 0.  0.
          3    1    3    3  502    0  0.14650208629E+03  0.23291406924E+03  0.68742370104E+02  0.28361477110E+03  0.00000000000E+00 0. -1.
         -4    1    3    3    0  502  0.34289513763E+03  0.55861282786E+03  0.41677552198E+02  0.65678183989E+03  0.00000000000E+00 0.  1.
         11    1    5    5    0    0 -0.32315978577E+03 -0.16166722824E+03 -0.31994967202E+02  0.36275641655E+03  0.00000000000E+00 0.  1.
        -11    1    5    5    0    0 -0.77320166448E+02 -0.23559218935E+02 -0.49576325306E+02  0.94822238780E+02  0.00000000000E+00 0. -1.
          2    1    6    6  503    0 -0.37680158751E+02 -0.28009621744E+03 -0.72606670206E+03  0.77913191516E+03  0.00000000000E+00 0. -1.
         -2    1    6    6    0  503 -0.51237112957E+02 -0.32620423248E+03 -0.60768335440E+03  0.69160212712E+03  0.00000000000E+00 0.  1.
<mgrwt>
<rscale>  0 0.25547457E+04</rscale>
<asrwt>0</asrwt>
<pdfrwt beam="1">  1        1 0.32104697E+00 0.25547457E+04</pdfrwt>
<pdfrwt beam="2">  1       -2 0.12029292E+00 0.25547457E+04</pdfrwt>
<totfact> 0.10670082E+00</totfact>
</mgrwt>
</event>
<event>
12    4  0.4413110E-008  0.1669614E+04  0.7818608E-02  0.8778887E-01
         -2   -1    0    0    0  501 -0.00000000000E+00  0.00000000000E+00  0.91181425060E+03  0.91181425060E+03  0.00000000000E+00 0.  1.
          1   -1    0    0  501    0  0.00000000000E+00 -0.00000000000E+00 -0.76430301485E+03  0.76430301485E+03  0.00000000000E+00 0. -1.
        -24    2    1    2    0    0 -0.49432334521E+03  0.32337911236E+03  0.93109131015E+02  0.60266994983E+03  0.74914205757E+02 0.  0.
        254    2    1    2    0    0  0.49432334521E+03 -0.32337911236E+03  0.54402104739E+02  0.10734473156E+04  0.89465073100E+03 0.  0.
         23    2    4    4    0    0 -0.23302583556E+03 -0.37648676544E+02 -0.10220171273E+03  0.27128475740E+03  0.86207694701E+02 0.  0.
         23    2    4    4    0    0  0.72734918077E+03 -0.28573043582E+03  0.15660381746E+03  0.80216255822E+03  0.90891701741E+02 0.  0.
          3    1    3    3  502    0 -0.29008888697E+03  0.21755755829E+03  0.28381032684E+02  0.36371463612E+03  0.00000000000E+00 0. -1.
         -4    1    3    3    0  502 -0.20423445824E+03  0.10582155407E+03  0.64728098331E+02  0.23895531371E+03  0.00000000000E+00 0.  1.
         11    1    5    5    0    0 -0.11011452637E+03 -0.46123115450E+02 -0.14953240806E+02  0.12031687374E+03  0.00000000000E+00 0.  1.
        -11    1    5    5    0    0 -0.12291130919E+03  0.84744389060E+01 -0.87248471920E+02  0.15096788365E+03  0.00000000000E+00 0. -1.
          1    1    6    6  503    0  0.19638422768E+03 -0.10715994996E+03  0.14262857359E+02  0.22417281026E+03  0.00000000000E+00 0. -1.
         -1    1    6    6    0  503  0.53096495309E+03 -0.17857048585E+03  0.14234096011E+03  0.57798974796E+03  0.00000000000E+00 0.  1.
<mgrwt>
<rscale>  0 0.16696136E+04</rscale>
<asrwt>0</asrwt>
<pdfrwt beam="1">  1        1 0.11758508E+00 0.16696136E+04</pdfrwt>
<pdfrwt beam="2">  1       -2 0.14027912E+00 0.16696136E+04</pdfrwt>
<totfact> 0.70963347E+00</totfact>
</mgrwt>
</event>
<event>
12    4  0.4413110E-008  0.1433251E+04  0.7818608E-02  0.8930096E-01
          1   -1    0    0  501    0  0.00000000000E+00  0.00000000000E+00  0.19783527569E+03  0.19783527569E+03  0.00000000000E+00 0. -1.
         -2   -1    0    0    0  501 -0.00000000000E+00 -0.00000000000E+00 -0.25958560857E+04  0.25958560857E+04  0.00000000000E+00 0.  1.
        -24    2    1    2    0    0 -0.21655341458E+02  0.31576630068E+03 -0.13274469971E+04  0.13671330799E+04  0.82219326831E+02 0.  0.
        254    2    1    2    0    0  0.21655341458E+02 -0.31576630068E+03 -0.10705738129E+04  0.14265582815E+04  0.88812326344E+03 0.  0.
         23    2    4    4    0    0  0.15864993817E+03  0.20149365663E+03 -0.74850848045E+03  0.79662805053E+03  0.92638053952E+02 0.  0.
         23    2    4    4    0    0 -0.13699459671E+03 -0.51725995731E+03 -0.32206533248E+03  0.62993023094E+03  0.82223077728E+02 0.  0.
          3    1    3    3  502    0 -0.15919365796E+02  0.25083839095E+02 -0.62468909474E+02  0.69173620998E+02  0.00000000000E+00 0. -1.
         -4    1    3    3    0  502 -0.57359756625E+01  0.29068246158E+03 -0.12649780876E+04  0.12979594589E+04  0.00000000000E+00 0.  1.
         11    1    5    5    0    0  0.17063913532E+03  0.18116273689E+03 -0.67464838622E+03  0.71908837897E+03  0.00000000000E+00 0. -1.
        -11    1    5    5    0    0 -0.11989197150E+02  0.20330919742E+02 -0.73860094223E+02  0.77539671553E+02  0.00000000000E+00 0.  1.
          4    1    6    6  503    0 -0.12537584481E+03 -0.49405036863E+03 -0.28293031037E+03  0.58297035065E+03  0.00000000000E+00 0. -1.
         -4    1    6    6    0  503 -0.11618751897E+02 -0.23209588674E+02 -0.39135022104E+02  0.46959880293E+02  0.00000000000E+00 0.  1.
<mgrwt>
<rscale>  0 0.14332507E+04</rscale>
<asrwt>0</asrwt>
<pdfrwt beam="1">  1        1 0.30436199E-01 0.14332507E+04</pdfrwt>
<pdfrwt beam="2">  1       -2 0.39936243E+00 0.14332507E+04</pdfrwt>
<totfact> 0.96988368E-01</totfact>
</mgrwt>
</event>
<event>
12    4  0.4413110E-008  0.1307989E+04  0.7818608E-02  0.9023253E-01
         -2   -1    0    0    0  501 -0.00000000000E+00  0.00000000000E+00  0.22576850769E+03  0.22576850769E+03  0.00000000000E+00 0.  1.
          1   -1    0    0  501    0  0.00000000000E+00 -0.00000000000E+00 -0.18944583161E+04  0.18944583161E+04  0.00000000000E+00 0. -1.
        -24    2    1    2    0    0  0.35737522641E+03 -0.13406095395E+03 -0.51101283367E+03  0.64280271804E+03  0.79823720206E+02 0.  0.
        254    2    1    2    0    0 -0.35737522641E+03  0.13406095395E+03 -0.11576769748E+04  0.14774241058E+04  0.83479136232E+03 0.  0.
         23    2    4    4    0    0 -0.53080160893E+03  0.25954879548E+03 -0.10803198608E+04  0.12347387568E+04  0.91503391368E+02 0.  0.
         23    2    4    4    0    0  0.17342638251E+03 -0.12548784152E+03 -0.77357113938E+02  0.24268534896E+03  0.84191133733E+02 0.  0.
          3    1    3    3  502    0  0.26132931072E+03 -0.77647440974E+02 -0.30865156377E+03  0.41181054084E+03  0.00000000000E+00 0. -1.
         -4    1    3    3    0  502  0.96045915697E+02 -0.56413512981E+02 -0.20236126991E+03  0.23099217720E+03  0.00000000000E+00 0.  1.
         11    1    5    5    0    0 -0.43102467435E+03  0.17355731119E+03 -0.87682515482E+03  0.99233399735E+03  0.00000000000E+00 0.  1.
        -11    1    5    5    0    0 -0.99776934578E+02  0.85991484292E+02 -0.20349470601E+03  0.24240475948E+03  0.00000000000E+00 0. -1.
          2    1    6    6  503    0  0.22510514060E+02 -0.40213564513E+02 -0.48597087351E+02  0.66974106288E+02  0.00000000000E+00 0. -1.
         -2    1    6    6    0  503  0.15091586845E+03 -0.85274277009E+02 -0.28760026588E+02  0.17571124267E+03  0.00000000000E+00 0.  1.
<mgrwt>
<rscale>  0 0.13079893E+04</rscale>
<asrwt>0</asrwt>
<pdfrwt beam="1">  1        1 0.29145515E+00 0.13079893E+04</pdfrwt>
<pdfrwt beam="2">  1       -2 0.34733614E-01 0.13079893E+04</pdfrwt>
<totfact> 0.23567646E+01</totfact>
</mgrwt>
</event>
<event>
12    4  0.4413110E-008  0.1302072E+04  0.7818608E-02  0.9027924E-01
         -2   -1    0    0    0  501 -0.00000000000E+00  0.00000000000E+00  0.10214031706E+04  0.10214031706E+04  0.00000000000E+00 0.  1.
          1   -1    0    0  501    0  0.00000000000E+00 -0.00000000000E+00 -0.41496599424E+03  0.41496599424E+03  0.00000000000E+00 0. -1.
        -24    2    1    2    0    0  0.18345364718E+03 -0.27995814050E+03  0.21954384454E+03  0.40831806977E+03  0.80575091280E+02 0.  0.
        254    2    1    2    0    0 -0.18345364718E+03  0.27995814050E+03  0.38689333183E+03  0.10280510951E+04  0.89172350130E+03 0.  0.
         23    2    4    4    0    0 -0.34418587893E+03  0.47313581552E+03  0.45206503709E+02  0.59380520066E+03  0.90772072638E+02 0.  0.
         23    2    4    4    0    0  0.16073223175E+03 -0.19317767502E+03  0.34168682812E+03  0.43424589441E+03  0.93097496496E+02 0.  0.
          3    1    3    3  502    0  0.17750855051E+03 -0.21395781478E+03  0.17725808179E+03  0.32970844631E+03  0.00000000000E+00 0. -1.
         -4    1    3    3    0  502  0.59450966649E+01 -0.66000325720E+02  0.42285762749E+02  0.78609623462E+02  0.00000000000E+00 0.  1.
         11    1    5    5    0    0 -0.17280639184E+03  0.22830186349E+03 -0.23049182419E+02  0.28725433808E+03  0.00000000000E+00 0. -1.
        -11    1    5    5    0    0 -0.17137948709E+03  0.24483395203E+03  0.68255686128E+02  0.30655086258E+03  0.00000000000E+00 0.  1.
          3    1    6    6  503    0  0.11707351381E+02  0.64429698777E+01  0.28059590178E+01  0.13654572246E+02  0.00000000000E+00 0. -1.
         -3    1    6    6    0  503  0.14902488037E+03 -0.19962064490E+03  0.33888086910E+03  0.42059132217E+03  0.00000000000E+00 0.  1.
<mgrwt>
<rscale>  0 0.13020716E+04</rscale>
<asrwt>0</asrwt>
<pdfrwt beam="1">  1        1 0.63840922E-01 0.13020716E+04</pdfrwt>
<pdfrwt beam="2">  1       -2 0.15713895E+00 0.13020716E+04</pdfrwt>
<totfact> 0.12958566E+01</totfact>
</mgrwt>
</event>
<event>
12    4  0.4413110E-008  0.1368132E+04  0.7818608E-02  0.8977215E-01
         -2   -1    0    0    0  501 -0.00000000000E+00  0.00000000000E+00  0.75249712525E+03  0.75249712525E+03  0.00000000000E+00 0.  1.
          1   -1    0    0  501    0  0.00000000000E+00 -0.00000000000E+00 -0.62185779718E+03  0.62185779718E+03  0.00000000000E+00 0. -1.
        -24    2    1    2    0    0  0.17251006350E+03  0.24920040350E+03 -0.19851385999E+03  0.37110952962E+03  0.80336587248E+02 0.  0.
        254    2    1    2    0    0 -0.17251006350E+03 -0.24920040350E+03  0.32915318806E+03  0.10032453928E+04  0.89794149803E+03 0.  0.
         23    2    4    4    0    0  0.30336363402E+03 -0.25726112481E+03 -0.13848936032E+02  0.40943344099E+03  0.96078971622E+02 0.  0.
         23    2    4    4    0    0 -0.47587369752E+03  0.80607213066E+01  0.34300212409E+03  0.59381195183E+03  0.91877232101E+02 0.  0.
          3    1    3    3  502    0  0.12661911756E+03  0.22281950444E+03 -0.13933277872E+03  0.29170971138E+03  0.00000000000E+00 0. -1.
         -4    1    3    3    0  502  0.45890945941E+02  0.26380899058E+02 -0.59181081275E+02  0.79399818233E+02  0.00000000000E+00 0.  1.
         11    1    5    5    0    0  0.27829962335E+03 -0.18913122109E+03 -0.75773019939E+01  0.33656903401E+03  0.00000000000E+00 0.  1.
        -11    1    5    5    0    0  0.25064010671E+02 -0.68129903713E+02 -0.62716340385E+01  0.72864406979E+02  0.00000000000E+00 0. -1.
          3    1    6    6  503    0 -0.47257056559E+01  0.29597926526E+01  0.24400512143E+02  0.25029535740E+02  0.00000000000E+00 0. -1.
         -3    1    6    6    0  503 -0.47114799187E+03  0.51009286539E+01  0.31860161195E+03  0.56878241609E+03  0.00000000000E+00 0.  1.
<mgrwt>
<rscale>  0 0.13681319E+04</rscale>
<asrwt>0</asrwt>
<pdfrwt beam="1">  1        1 0.95670430E-01 0.13681319E+04</pdfrwt>
<pdfrwt beam="2">  1       -2 0.11576879E+00 0.13681319E+04</pdfrwt>
<totfact> 0.16131509E+01</totfact>
</mgrwt>
</event>
<event>
12    4  0.4413110E-008  0.1134289E+04  0.7818608E-02  0.9172401E-01
         -2   -1    0    0    0  501 -0.00000000000E+00  0.00000000000E+00  0.97641907430E+03  0.97641907430E+03  0.00000000000E+00 0.  1.
          1   -1    0    0  501    0  0.00000000000E+00 -0.00000000000E+00 -0.32942103457E+03  0.32942103457E+03  0.00000000000E+00 0. -1.
        -24    2    1    2    0    0 -0.14467905944E+03  0.66286992232E+01 -0.70911110983E+02  0.18010129080E+03  0.80200494973E+02 0.  0.
        254    2    1    2    0    0  0.14467905944E+03 -0.66286992232E+01  0.71790915071E+03  0.11257388181E+04  0.85493763980E+03 0.  0.
         23    2    4    4    0    0  0.43972436482E+03 -0.12726500926E+03  0.19355941244E+03  0.50531683363E+03  0.91246679970E+02 0.  0.
         23    2    4    4    0    0 -0.29504530539E+03  0.12063631004E+03  0.52434973828E+03  0.62042198444E+03  0.91520157456E+02 0.  0.
          3    1    3    3  502    0 -0.80023167827E+02  0.21699988048E+02 -0.77361707608E+02  0.11339942978E+03  0.00000000000E+00 0. -1.
         -4    1    3    3    0  502 -0.64655891610E+02 -0.15071288825E+02  0.64505966243E+01  0.66701861021E+02  0.00000000000E+00 0.  1.
         11    1    5    5    0    0  0.38983432226E+03 -0.12777423624E+03  0.19742787536E+03  0.45527444496E+03  0.00000000000E+00 0. -1.
        -11    1    5    5    0    0  0.49890042563E+02  0.50922697817E+00 -0.38684629229E+01  0.50042388676E+02  0.00000000000E+00 0.  1.
          4    1    6    6  503    0 -0.19417018694E+03  0.68689726999E+02  0.41268777235E+03  0.46122829222E+03  0.00000000000E+00 0. -1.
         -4    1    6    6    0  503 -0.10087511845E+03  0.51946583040E+02  0.11166196592E+03  0.15919369223E+03  0.00000000000E+00 0.  1.
<mgrwt>
<rscale>  0 0.11342892E+04</rscale>
<asrwt>0</asrwt>
<pdfrwt beam="1">  1        1 0.50680159E-01 0.11342892E+04</pdfrwt>
<pdfrwt beam="2">  1       -2 0.15021832E+00 0.11342892E+04</pdfrwt>
<totfact> 0.20070625E+01</totfact>
</mgrwt>
</event>
<event>
12    4  0.4413110E-008  0.1638741E+04  0.7818608E-02  0.8797095E-01
          1   -1    0    0  501    0  0.00000000000E+00  0.00000000000E+00  0.19205618963E+04  0.19205618963E+04  0.00000000000E+00 0. -1.
         -2   -1    0    0    0  501 -0.00000000000E+00 -0.00000000000E+00 -0.34956861674E+03  0.34956861674E+03  0.00000000000E+00 0.  1.
        -24    2    1    2    0    0 -0.23406930801E+03 -0.34416470257E+03  0.11159318634E+02  0.42376275226E+03  0.78819771384E+02 0.  0.
        254    2    1    2    0    0  0.23406930801E+03  0.34416470257E+03  0.15598339609E+04  0.18463677608E+04  0.89596547867E+03 0.  0.
         23    2    4    4    0    0  0.17452830357E+03 -0.28634270967E+03  0.58672630407E+03  0.68187875999E+03  0.90876902013E+02 0.  0.
         23    2    4    4    0    0  0.59541004441E+02  0.63050741224E+03  0.97310765685E+03  0.11644890008E+04  0.89506385366E+02 0.  0.
          3    1    3    3  502    0  0.60699042771E+01 -0.84828415783E+01  0.33483906562E+01  0.10955092841E+02  0.00000000000E+00 0. -1.
         -4    1    3    3    0  502 -0.24013921229E+03 -0.33568186099E+03  0.78109279782E+01  0.41280765942E+03  0.00000000000E+00 0.  1.
         11    1    5    5    0    0  0.82375144434E+02 -0.11458197345E+03  0.16386925451E+03  0.21625870071E+03  0.00000000000E+00 0. -1.
        -11    1    5    5    0    0  0.92153159137E+02 -0.17176073622E+03  0.42285704956E+03  0.46562005928E+03  0.00000000000E+00 0.  1.
          4    1    6    6  503    0 -0.47052996660E+01 -0.70456916046E+00  0.43113441806E+01  0.64205880799E+01  0.00000000000E+00 0. -1.
         -4    1    6    6    0  503  0.64246304107E+02  0.63121198140E+03  0.96879631267E+03  0.11580684127E+04  0.00000000000E+00 0.  1.
<mgrwt>
<rscale>  0 0.16387412E+04</rscale>
<asrwt>0</asrwt>
<pdfrwt beam="1">  1        1 0.29547105E+00 0.16387412E+04</pdfrwt>
<pdfrwt beam="2">  1       -2 0.53779788E-01 0.16387412E+04</pdfrwt>
<totfact> 0.92302814E+00</totfact>
</mgrwt>
</event>
<event>
12    4  0.4413110E-008  0.1382931E+04  0.7818608E-02  0.8966267E-01
          1   -1    0    0  501    0  0.00000000000E+00  0.00000000000E+00  0.22858477516E+04  0.22858477516E+04  0.00000000000E+00 0. -1.
         -2   -1    0    0    0  501 -0.00000000000E+00 -0.00000000000E+00 -0.20916736990E+03  0.20916736990E+03  0.00000000000E+00 0.  1.
        -24    2    1    2    0    0  0.21317660966E+03 -0.30408092568E+03  0.78375586607E+03  0.87101255007E+03  0.80499245371E+02 0.  0.
        254    2    1    2    0    0 -0.21317660966E+03  0.30408092568E+03  0.12929245157E+04  0.16240025715E+04  0.90984673032E+03 0.  0.
         23    2    4    4    0    0 -0.78132988860E+02 -0.53192179664E+02  0.12170771139E+04  0.12240845224E+04  0.90399362216E+02 0.  0.
         23    2    4    4    0    0 -0.13504362080E+03  0.35727310534E+03  0.75847401731E+02  0.39991804911E+03  0.91108541530E+02 0.  0.
          1    1    3    3  502    0  0.18058753936E+03 -0.28637428741E+03  0.73918063070E+03  0.81302527431E+03  0.00000000000E+00 0. -1.
         -2    1    3    3    0  502  0.32589070294E+02 -0.17706638264E+02  0.44575235374E+02  0.57987275759E+02  0.00000000000E+00 0.  1.
         11    1    5    5    0    0  0.49055410481E+01 -0.40027403228E+02  0.23686914680E+03  0.24027744390E+03  0.00000000000E+00 0.  1.
        -11    1    5    5    0    0 -0.83038529908E+02 -0.13164776436E+02  0.98020796714E+03  0.98380707846E+03  0.00000000000E+00 0. -1.
          4    1    6    6  503    0  0.42706269572E+01  0.99920930225E+02  0.20343691775E+02  0.10206025841E+03  0.00000000000E+00 0. -1.
         -4    1    6    6    0  503 -0.13931424775E+03  0.25735217512E+03  0.55503709956E+02  0.29785779070E+03  0.00000000000E+00 0.  1.
<mgrwt>
<rscale>  0 0.13829313E+04</rscale>
<asrwt>0</asrwt>
<pdfrwt beam="1">  1        1 0.35166887E+00 0.13829313E+04</pdfrwt>
<pdfrwt beam="2">  1       -2 0.32179597E-01 0.13829313E+04</pdfrwt>
<totfact> 0.14698215E+01</totfact>
</mgrwt>
</event>
<event>
12    4  0.4413110E-008  0.1160437E+04  0.7818608E-02  0.9148208E-01
          1   -1    0    0  501    0  0.00000000000E+00  0.00000000000E+00  0.12728589031E+04  0.12728589031E+04  0.00000000000E+00 0. -1.
         -2   -1    0    0    0  501 -0.00000000000E+00 -0.00000000000E+00 -0.26448622805E+03  0.26448622805E+03  0.00000000000E+00 0.  1.
        -24    2    1    2    0    0  0.30164159137E+02  0.56062369752E+02  0.10179765354E+03  0.14262697845E+03  0.76985887785E+02 0.  0.
        254    2    1    2    0    0 -0.30164159137E+02 -0.56062369752E+02  0.90657502152E+03  0.13947181527E+04  0.10579733409E+04 0.  0.
         23    2    4    4    0    0  0.23818358316E+02  0.40749152014E+03  0.80975802988E+03  0.91114402561E+03  0.88649395218E+02 0.  0.
         23    2    4    4    0    0 -0.53982517453E+02 -0.46355388989E+03  0.96816991639E+02  0.48357412710E+03  0.81695076360E+02 0.  0.
          1    1    3    3  502    0 -0.24120055777E+02  0.20047571532E+02  0.51606007579E+02  0.60389255943E+02  0.00000000000E+00 0. -1.
         -2    1    3    3    0  502  0.54284214913E+02  0.36014798219E+02  0.50191645956E+02  0.82237722508E+02  0.00000000000E+00 0.  1.
         11    1    5    5    0    0 -0.13663919294E+02  0.71443223184E+01  0.35372236088E+02  0.38586773870E+02  0.00000000000E+00 0. -1.
        -11    1    5    5    0    0  0.37482277609E+02  0.40034719782E+03  0.77438579380E+03  0.87255725174E+03  0.00000000000E+00 0.  1.
          4    1    6    6  503    0 -0.23247304877E+02 -0.50566176409E+02  0.32588282856E+02  0.64493190029E+02  0.00000000000E+00 0. -1.
         -4    1    6    6    0  503 -0.30735212575E+02 -0.41298771349E+03  0.64228708783E+02  0.41908093707E+03  0.00000000000E+00 0.  1.
<mgrwt>
<rscale>  0 0.11604372E+04</rscale>
<asrwt>0</asrwt>
<pdfrwt beam="1">  1        1 0.19582444E+00 0.11604372E+04</pdfrwt>
<pdfrwt beam="2">  1       -2 0.40690190E-01 0.11604372E+04</pdfrwt>
<totfact> 0.47085341E+01</totfact>
</mgrwt>
</event>
<event>
12    4  0.4413110E-008  0.1298130E+04  0.7818608E-02  0.9031050E-01
         -2   -1    0    0    0  501 -0.00000000000E+00  0.00000000000E+00  0.27290318642E+03  0.27290318642E+03  0.00000000000E+00 0.  1.
          1   -1    0    0  501    0  0.00000000000E+00 -0.00000000000E+00 -0.15437164177E+04  0.15437164177E+04  0.00000000000E+00 0. -1.
        -24    2    1    2    0    0 -0.21581095647E+03 -0.19398889980E+03 -0.83105173584E+02  0.31239005302E+03  0.80467466549E+02 0.  0.
        254    2    1    2    0    0  0.21581095647E+03  0.19398889980E+03 -0.11877080577E+04  0.15042295511E+04  0.87627053465E+03 0.  0.
         23    2    4    4    0    0  0.13034001391E+03 -0.21230173635E+03 -0.24898890694E+02  0.26604873912E+03  0.90007946012E+02 0.  0.
         23    2    4    4    0    0  0.85470942561E+02  0.40629063615E+03 -0.11628091670E+04  0.12381808120E+04  0.92677943607E+02 0.  0.
          1    1    3    3  502    0 -0.58567751254E+02 -0.26919539680E+02  0.91564796540E+01  0.65105178160E+02  0.00000000000E+00 0. -1.
         -2    1    3    3    0  502 -0.15724320521E+03 -0.16706936012E+03 -0.92261653238E+02  0.24728487486E+03  0.00000000000E+00 0.  1.
         11    1    5    5    0    0  0.30913221040E+02 -0.75352439135E+00 -0.63321200285E+01  0.31564074169E+02  0.00000000000E+00 0.  1.
        -11    1    5    5    0    0  0.99426792867E+02 -0.21154821196E+03 -0.18566770666E+02  0.23448466495E+03  0.00000000000E+00 0. -1.
          2    1    6    6  503    0  0.40851330361E+02  0.33666227395E+03 -0.86505971056E+03  0.92916016958E+03  0.00000000000E+00 0. -1.
         -2    1    6    6    0  503  0.44619612200E+02  0.69628362200E+02 -0.29774945648E+03  0.30902064243E+03  0.00000000000E+00 0.  1.
<mgrwt>
<rscale>  0 0.12981296E+04</rscale>
<asrwt>0</asrwt>
<pdfrwt beam="1">  1        1 0.23749483E+00 0.12981296E+04</pdfrwt>
<pdfrwt beam="2">  1       -2 0.41985106E-01 0.12981296E+04</pdfrwt>
<totfact> 0.28284418E+01</totfact>
</mgrwt>
</event>
<event>
12    4  0.4413110E-008  0.1056703E+04  0.7818608E-02  0.9248451E-01
         -2   -1    0    0    0  501 -0.00000000000E+00  0.00000000000E+00  0.38786114737E+03  0.38786114737E+03  0.00000000000E+00 0.  1.
          1   -1    0    0  501    0  0.00000000000E+00 -0.00000000000E+00 -0.71973024815E+03  0.71973024815E+03  0.00000000000E+00 0. -1.
        -24    2    1    2    0    0  0.35434907741E+01 -0.74268916565E+02  0.56240868461E+02  0.12537427569E+03  0.83828667080E+02 0.  0.
        254    2    1    2    0    0 -0.35434907741E+01  0.74268916565E+02 -0.38810996924E+03  0.98221711983E+03  0.89921782343E+03 0.  0.
         23    2    4    4    0    0  0.21423951149E+03 -0.30417575798E+03  0.11136822217E+02  0.38335904248E+03  0.91753292138E+02 0.  0.
         23    2    4    4    0    0 -0.21778300227E+03  0.37844467454E+03 -0.39924679146E+03  0.59885807735E+03  0.92645499350E+02 0.  0.
          3    1    3    3  502    0 -0.73542771458E+01 -0.25621682597E+02 -0.20661833946E+02  0.33726360513E+02  0.00000000000E+00 0. -1.
         -4    1    3    3    0  502  0.10897767920E+02 -0.48647233968E+02  0.76902702408E+02  0.91647915175E+02  0.00000000000E+00 0.  1.
         11    1    5    5    0    0  0.21404107358E+03 -0.27119057678E+03  0.27428755616E+02  0.34656925245E+03  0.00000000000E+00 0. -1.
        -11    1    5    5    0    0  0.19843791294E+00 -0.32985181202E+02 -0.16291933400E+02  0.36789790030E+02  0.00000000000E+00 0.  1.
          4    1    6    6  503    0 -0.50722315996E+02  0.12883400941E+03 -0.17950661083E+03  0.22670151886E+03  0.00000000000E+00 0.  1.
         -4    1    6    6    0  503 -0.16706068627E+03  0.24961066513E+03 -0.21974018063E+03  0.37215655849E+03  0.00000000000E+00 0. -1.
<mgrwt>
<rscale>  0 0.10567032E+04</rscale>
<asrwt>0</asrwt>
<pdfrwt beam="1">  1        1 0.11072773E+00 0.10567032E+04</pdfrwt>
<pdfrwt beam="2">  1       -2 0.59670947E-01 0.10567032E+04</pdfrwt>
<totfact> 0.59891756E+01</totfact>
</mgrwt>
</event>
<event>
12    4  0.4413110E-008  0.2022463E+04  0.7818608E-02  0.8596190E-01
         -2   -1    0    0    0  501 -0.00000000000E+00  0.00000000000E+00  0.54339398260E+03  0.54339398260E+03  0.00000000000E+00 0.  1.
          1   -1    0    0  501    0  0.00000000000E+00 -0.00000000000E+00 -0.18818567148E+04  0.18818567148E+04  0.00000000000E+00 0. -1.
        -24    2    1    2    0    0  0.40721508373E+03  0.12830905422E+03 -0.13646242097E+04  0.14320870621E+04  0.79917344725E+02 0.  0.
        254    2    1    2    0    0 -0.40721508373E+03 -0.12830905422E+03  0.26161477508E+02  0.99316363528E+03  0.89632708634E+03 0.  0.
         23    2    4    4    0    0 -0.41435559310E+03  0.24590190084E+03 -0.21854047078E+03  0.53641460598E+03  0.88444274938E+02 0.  0.
         23    2    4    4    0    0  0.71405093683E+01 -0.37421095507E+03  0.24470194829E+03  0.45674902929E+03  0.93036586884E+02 0.  0.
          1    1    3    3  502    0  0.25326549782E+03  0.82063865192E+02 -0.71758858026E+03  0.76538308112E+03  0.00000000000E+00 0. -1.
         -2    1    3    3    0  502  0.15394958591E+03  0.46245189030E+02 -0.64703562945E+03  0.66670398100E+03  0.00000000000E+00 0.  1.
         11    1    5    5    0    0 -0.35604156453E+03  0.24365999376E+03 -0.19574019354E+03  0.47376155563E+03  0.00000000000E+00 0. -1.
        -11    1    5    5    0    0 -0.58314028572E+02  0.22419070879E+01 -0.22800277239E+02  0.62653050348E+02  0.00000000000E+00 0.  1.
          3    1    6    6  503    0  0.28908698920E+01 -0.37827706613E+03  0.24526572218E+03  0.45084051545E+03  0.00000000000E+00 0. -1.
         -3    1    6    6    0  503  0.42496394762E+01  0.40661110683E+01 -0.56377388872E+00  0.59085138483E+01  0.00000000000E+00 0.  1.
<mgrwt>
<rscale>  0 0.20224635E+04</rscale>
<asrwt>0</asrwt>
<pdfrwt beam="1">  1        1 0.28951642E+00 0.20224635E+04</pdfrwt>
<pdfrwt beam="2">  1       -2 0.83599074E-01 0.20224635E+04</pdfrwt>
<totfact> 0.36465442E+00</totfact>
</mgrwt>
</event>
<event>
12    4  0.4413110E-008  0.1310597E+04  0.7818608E-02  0.9021204E-01
         -2   -1    0    0    0  501 -0.00000000000E+00  0.00000000000E+00  0.48711843604E+03  0.48711843604E+03  0.00000000000E+00 0.  1.
          1   -1    0    0  501    0  0.00000000000E+00 -0.00000000000E+00 -0.88154305704E+03  0.88154305704E+03  0.00000000000E+00 0. -1.
        -24    2    1    2    0    0 -0.30328887035E+03  0.20364971416E+03 -0.56517344346E+02  0.37813435365E+03  0.79586646170E+02 0.  0.
        254    2    1    2    0    0  0.30328887035E+03 -0.20364971416E+03 -0.33790727666E+03  0.99052713942E+03  0.85644926374E+03 0.  0.
         23    2    4    4    0    0  0.22209882918E+03  0.62277431159E+02  0.23818436189E+03  0.34426020449E+03  0.92611715186E+02 0.  0.
         23    2    4    4    0    0  0.81190041167E+02 -0.26592714531E+03 -0.57609163854E+03  0.64626693493E+03  0.92034264214E+02 0.  0.
          1    1    3    3  502    0 -0.10913511090E+03  0.65639435504E+02 -0.57960891490E+02  0.13992309626E+03  0.00000000000E+00 0. -1.
         -2    1    3    3    0  502 -0.19415375944E+03  0.13801027865E+03  0.14435471436E+01  0.23821125739E+03  0.00000000000E+00 0.  1.
         11    1    5    5    0    0 -0.39167053719E+01  0.17302158895E+02  0.22227136493E+02  0.28438545674E+02  0.00000000000E+00 0. -1.
        -11    1    5    5    0    0  0.22601553455E+03  0.44975272263E+02  0.21595722540E+03  0.31582165881E+03  0.00000000000E+00 0.  1.
          4    1    6    6  503    0 -0.13796354070E+02 -0.10201649317E+02 -0.16904955870E+02  0.24087145272E+02  0.00000000000E+00 0. -1.
         -4    1    6    6    0  503  0.94986395238E+02 -0.25572549600E+03 -0.55918668267E+03  0.62217978966E+03  0.00000000000E+00 0.  1.
<mgrwt>
<rscale>  0 0.13105966E+04</rscale>
<asrwt>0</asrwt>
<pdfrwt beam="1">  1        1 0.13562201E+00 0.13105966E+04</pdfrwt>
<pdfrwt beam="2">  1       -2 0.74941299E-01 0.13105966E+04</pdfrwt>
<totfact> 0.25940684E+01</totfact>
</mgrwt>
</event>
<event>
12    4  0.4413110E-008  0.1542949E+04  0.7818608E-02  0.8856384E-01
         -4   -1    0    0    0  501 -0.00000000000E+00  0.00000000000E+00  0.14521751505E+04  0.14521751505E+04  0.00000000000E+00 0.  1.
          1   -1    0    0  501    0  0.00000000000E+00 -0.00000000000E+00 -0.40984909549E+03  0.40984909549E+03  0.00000000000E+00 0. -1.
        -24    2    1    2    0    0  0.22584920703E+03 -0.14300915371E+03  0.85751846339E+03  0.90172487590E+03  0.79437739194E+02 0.  0.
        254    2    1    2    0    0 -0.22584920703E+03  0.14300915371E+03  0.18480759162E+03  0.96029937009E+03  0.90363795400E+03 0.  0.
         23    2    4    4    0    0  0.25781046908E+03  0.27321529937E+03  0.22731804149E+03  0.44821141233E+03  0.90039660002E+02 0.  0.
         23    2    4    4    0    0 -0.48365967611E+03 -0.13020614567E+03 -0.42510449874E+02  0.51208795776E+03  0.97706783129E+02 0.  0.
          3    1    3    3  502    0  0.37970740885E+02 -0.14853964451E+02  0.60976243115E+02  0.73352025518E+02  0.00000000000E+00 0. -1.
         -4    1    3    3    0  502  0.18787846615E+03 -0.12815518926E+03  0.79654222027E+03  0.82837285038E+03  0.00000000000E+00 0.  1.
         11    1    5    5    0    0  0.35611910444E+02  0.30305623967E+02 -0.23298287119E+01  0.46819516351E+02  0.00000000000E+00 0.  1.
        -11    1    5    5    0    0  0.22219855864E+03  0.24290967541E+03  0.22964787020E+03  0.40139189598E+03  0.00000000000E+00 0. -1.
          1    1    6    6  503    0 -0.41426364147E+03 -0.11619281548E+03 -0.70445757912E+02  0.43597905893E+03  0.00000000000E+00 0. -1.
         -1    1    6    6    0  503 -0.69396034643E+02 -0.14013330185E+02  0.27935308037E+02  0.76108898837E+02  0.00000000000E+00 0.  1.
<mgrwt>
<rscale>  0 0.15429487E+04</rscale>
<asrwt>0</asrwt>
<pdfrwt beam="1">  1        1 0.63053708E-01 0.15429487E+04</pdfrwt>
<pdfrwt beam="2">  1       -4 0.22341156E+00 0.15429487E+04</pdfrwt>
<totfact> 0.24760167E+00</totfact>
</mgrwt>
</event>
<event>
12    4  0.4413110E-008  0.1770210E+04  0.7818608E-02  0.8722304E-01
         -2   -1    0    0    0  501 -0.00000000000E+00  0.00000000000E+00  0.16663358638E+04  0.16663358638E+04  0.00000000000E+00 0.  1.
          1   -1    0    0  501    0  0.00000000000E+00 -0.00000000000E+00 -0.47013991979E+03  0.47013991979E+03  0.00000000000E+00 0. -1.
        -24    2    1    2    0    0 -0.63395195692E+03  0.15491544273E+03  0.53618801121E+03  0.84860571911E+03  0.82098751922E+02 0.  0.
        254    2    1    2    0    0  0.63395195692E+03 -0.15491544273E+03  0.66000793281E+03  0.12878700645E+04  0.89280734400E+03 0.  0.
         23    2    4    4    0    0 -0.10895310049E+03 -0.17659576661E+02 -0.12841079243E+03  0.19221571431E+03  0.90966534833E+02 0.  0.
         23    2    4    4    0    0  0.74290505741E+03 -0.13725586607E+03  0.78841872525E+03  0.10956543502E+04  0.90040388853E+02 0.  0.
          1    1    3    3  502    0 -0.54967241706E+01 -0.60862643732E+01  0.25814893201E+01  0.85977135180E+01  0.00000000000E+00 0. -1.
         -2    1    3    3    0  502 -0.62845523275E+03  0.16100170711E+03  0.53360652189E+03  0.84000800560E+03  0.00000000000E+00 0.  1.
         11    1    5    5    0    0 -0.11448264622E+03  0.94713606363E+01 -0.97059917217E+02  0.15038819930E+03  0.00000000000E+00 0.  1.
        -11    1    5    5    0    0  0.55295457381E+01 -0.27130937297E+02 -0.31350875217E+02  0.41827515006E+02  0.00000000000E+00 0. -1.
          1    1    6    6  503    0  0.56450095070E+02  0.13358942298E+02  0.62794491643E+02  0.85488143935E+02  0.00000000000E+00 0. -1.
         -1    1    6    6    0  503  0.68645496234E+03 -0.15061480837E+03  0.72562423360E+03  0.10101662062E+04  0.00000000000E+00 0.  1.
<mgrwt>
<rscale>  0 0.17702102E+04</rscale>
<asrwt>0</asrwt>
<pdfrwt beam="1">  1        1 0.72329219E-01 0.17702102E+04</pdfrwt>
<pdfrwt beam="2">  1       -2 0.25635936E+00 0.17702102E+04</pdfrwt>
<totfact> 0.23453142E+00</totfact>
</mgrwt>
</event>
<event>
12    4  0.4413110E-008  0.2077502E+04  0.7818608E-02  0.8571219E-01
          1   -1    0    0  501    0  0.00000000000E+00  0.00000000000E+00  0.25517486515E+04  0.25517486515E+04  0.00000000000E+00 0. -1.
         -2   -1    0    0    0  501 -0.00000000000E+00 -0.00000000000E+00 -0.42284870558E+03  0.42284870558E+03  0.00000000000E+00 0.  1.
        -24    2    1    2    0    0 -0.25081099680E+03 -0.50112734916E+02 -0.27953961474E+03  0.38735618921E+03  0.80529365994E+02 0.  0.
        254    2    1    2    0    0  0.25081099680E+03  0.50112734916E+02  0.24084395606E+04  0.25872411678E+04  0.90984520718E+03 0.  0.
         23    2    4    4    0    0  0.51568216937E+03  0.15844382547E+03  0.93781411054E+03  0.10861540893E+04  0.95931507497E+02 0.  0.
         23    2    4    4    0    0 -0.26487117257E+03 -0.10833109055E+03  0.14706254501E+04  0.15010870786E+04  0.92902312484E+02 0.  0.
          3    1    3    3  502    0 -0.96564161860E+02 -0.38030267823E+02 -0.63637031930E+02  0.12173992960E+03  0.00000000000E+00 0. -1.
         -4    1    3    3    0  502 -0.15424683494E+03 -0.12082467093E+02 -0.21590258281E+03  0.26561625960E+03  0.00000000000E+00 0.  1.
         11    1    5    5    0    0  0.41175211866E+03  0.10649689502E+03  0.79890478946E+03  0.90505815199E+03  0.00000000000E+00 0. -1.
        -11    1    5    5    0    0  0.10393005072E+03  0.51946930450E+02  0.13890932108E+03  0.18109593730E+03  0.00000000000E+00 0.  1.
          3    1    6    6  503    0 -0.27053832249E+03 -0.10075815803E+03  0.14490704628E+04  0.14775481029E+04  0.00000000000E+00 0. -1.
         -3    1    6    6    0  503  0.56671499202E+01 -0.75729325184E+01  0.21554987304E+02  0.23538975611E+02  0.00000000000E+00 0.  1.
<mgrwt>
<rscale>  0 0.20775020E+04</rscale>
<asrwt>0</asrwt>
<pdfrwt beam="1">  1        1 0.39257670E+00 0.20775020E+04</pdfrwt>
<pdfrwt beam="2">  1       -2 0.65053649E-01 0.20775020E+04</pdfrwt>
<totfact> 0.22008964E+00</totfact>
</mgrwt>
</event>
<event>
12    4  0.4413110E-008  0.1368377E+04  0.7818608E-02  0.8977033E-01
          1   -1    0    0  501    0  0.00000000000E+00  0.00000000000E+00  0.78806603211E+03  0.78806603211E+03  0.00000000000E+00 0. -1.
         -2   -1    0    0    0  501 -0.00000000000E+00 -0.00000000000E+00 -0.59400308603E+03  0.59400308603E+03  0.00000000000E+00 0.  1.
        -24    2    1    2    0    0 -0.69157110584E+02  0.21291053998E+03 -0.25730151827E+03  0.34925041626E+03  0.75220861301E+02 0.  0.
        254    2    1    2    0    0  0.69157110584E+02 -0.21291053998E+03  0.45136446435E+03  0.10328187019E+04  0.90159358212E+03 0.  0.
         23    2    4    4    0    0 -0.72662683469E+01  0.87155858686E+02  0.64380644639E+03  0.65615409925E+03  0.91665256173E+02 0.  0.
         23    2    4    4    0    0  0.76423378931E+02 -0.30006639866E+03 -0.19244198204E+03  0.37666460264E+03  0.94667470541E+02 0.  0.
          3    1    3    3  502    0  0.14713048182E+02  0.14425654585E+02 -0.25063334124E+02  0.32446016927E+02  0.00000000000E+00 0. -1.
         -4    1    3    3    0  502 -0.83870158765E+02  0.19848488539E+03 -0.23223818415E+03  0.31680439933E+03  0.00000000000E+00 0.  1.
         11    1    5    5    0    0 -0.30303704466E+02  0.50355336325E+02  0.16085592919E+03  0.17125596152E+03  0.00000000000E+00 0.  1.
        -11    1    5    5    0    0  0.23037436119E+02  0.36800522360E+02  0.48295051720E+03  0.48489813773E+03  0.00000000000E+00 0. -1.
          4    1    6    6  503    0  0.25462633372E+02 -0.25223130248E+03 -0.14314761067E+03  0.29113607487E+03  0.00000000000E+00 0. -1.
         -4    1    6    6    0  503  0.50960745558E+02 -0.47835096186E+02 -0.49294371366E+02  0.85528527775E+02  0.00000000000E+00 0.  1.
<mgrwt>
<rscale>  0 0.13683766E+04</rscale>
<asrwt>0</asrwt>
<pdfrwt beam="1">  1        1 0.12124093E+00 0.13683766E+04</pdfrwt>
<pdfrwt beam="2">  1       -2 0.91385090E-01 0.13683766E+04</pdfrwt>
<totfact> 0.19785726E+01</totfact>
</mgrwt>
</event>
<event>
12    4  0.4413110E-008  0.1900232E+04  0.7818608E-02  0.8654741E-01
         -2   -1    0    0    0  501 -0.00000000000E+00  0.00000000000E+00  0.76024802936E+03  0.76024802936E+03  0.00000000000E+00 0.  1.
          3   -1    0    0  501    0  0.00000000000E+00 -0.00000000000E+00 -0.11874020625E+04  0.11874020625E+04  0.00000000000E+00 0. -1.
        -24    2    1    2    0    0  0.11610488431E+03 -0.59050905594E+03 -0.65656185945E+03  0.89395536226E+03  0.76820733700E+02 0.  0.
        254    2    1    2    0    0 -0.11610488431E+03  0.59050905594E+03  0.22940782633E+03  0.10536947296E+04  0.83394444843E+03 0.  0.
         23    2    4    4    0    0 -0.16190838692E+03  0.77396719473E+03  0.89037722460E+02  0.80096069211E+03  0.91491912309E+02 0.  0.
         23    2    4    4    0    0  0.45803502613E+02 -0.18345813879E+03  0.14037010387E+03  0.25273403747E+03  0.91738095101E+02 0.  0.
          3    1    3    3  502    0  0.37695415471E+02 -0.16791084118E+03 -0.13914647107E+03  0.22130688047E+03  0.00000000000E+00 0. -1.
         -4    1    3    3    0  502  0.78409468834E+02 -0.42259821476E+03 -0.51741538838E+03  0.67264848179E+03  0.00000000000E+00 0.  1.
         11    1    5    5    0    0 -0.16416627184E+03  0.77189635188E+03  0.94398169708E+02  0.79478648535E+03  0.00000000000E+00 0.  1.
        -11    1    5    5    0    0  0.22578849191E+01  0.20708428480E+01 -0.53604472482E+01  0.61742067595E+01  0.00000000000E+00 0. -1.
          3    1    6    6  503    0  0.22772308018E+02 -0.14221081009E+02 -0.63298179394E+01  0.27584121386E+02  0.00000000000E+00 0. -1.
         -3    1    6    6    0  503  0.23031194595E+02 -0.16923705778E+03  0.14669992181E+03  0.22514991608E+03  0.00000000000E+00 0.  1.
<mgrwt>
<rscale>  0 0.19002316E+04</rscale>
<asrwt>0</asrwt>
<pdfrwt beam="1">  1        3 0.18267724E+00 0.19002316E+04</pdfrwt>
<pdfrwt beam="2">  1       -2 0.11696124E+00 0.19002316E+04</pdfrwt>
<totfact> 0.41648253E-01</totfact>
</mgrwt>
</event>
<event>
12    4  0.4413110E-008  0.3830105E+04  0.7818608E-02  0.8039725E-01
          1   -1    0    0  501    0  0.00000000000E+00  0.00000000000E+00  0.16867474635E+04  0.16867474635E+04  0.00000000000E+00 0. -1.
         -2   -1    0    0    0  501 -0.00000000000E+00 -0.00000000000E+00 -0.21742595329E+04  0.21742595329E+04  0.00000000000E+00 0.  1.
        -24    2    1    2    0    0  0.11325604708E+03  0.33193202874E+03  0.15576868871E+04  0.15986534896E+04  0.79364586836E+02 0.  0.
        254    2    1    2    0    0 -0.11325604708E+03 -0.33193202874E+03 -0.20451989565E+04  0.22623535069E+04  0.90133168949E+03 0.  0.
         23    2    4    4    0    0 -0.11309161251E+03 -0.37205044050E+03 -0.21074068676E+04  0.21449576138E+04  0.92022911142E+02 0.  0.
         23    2    4    4    0    0 -0.16443457298E+00  0.40118411758E+02  0.62207911151E+02  0.11739589305E+03  0.91117822047E+02 0.  0.
          3    1    3    3  502    0  0.82089476474E+02  0.20658471399E+03  0.81277350933E+03  0.84262488906E+03  0.00000000000E+00 0. -1.
         -2    1    3    3    0  502  0.31166570605E+02  0.12534731476E+03  0.74491337778E+03  0.75602860054E+03  0.00000000000E+00 0.  1.
         11    1    5    5    0    0 -0.25256198015E+02 -0.21516487938E+03 -0.10161171873E+04  0.10389552152E+04  0.00000000000E+00 0.  1.
        -11    1    5    5    0    0 -0.87835414492E+02 -0.15688556112E+03 -0.10912896803E+04  0.11060023986E+04  0.00000000000E+00 0. -1.
          1    1    6    6  503    0  0.37699643423E+02 -0.73291586121E+01  0.18738758278E+02  0.42733134006E+02  0.00000000000E+00 0. -1.
         -1    1    6    6    0  503 -0.37864077996E+02  0.47447570371E+02  0.43469152873E+02  0.74662759044E+02  0.00000000000E+00 0.  1.
<mgrwt>
<rscale>  0 0.38301054E+04</rscale>
<asrwt>0</asrwt>
<pdfrwt beam="1">  1        1 0.25949961E+00 0.38301054E+04</pdfrwt>
<pdfrwt beam="2">  1       -2 0.33450147E+00 0.38301054E+04</pdfrwt>
<totfact> 0.66015441E-02</totfact>
</mgrwt>
</event>
<event>
12    4  0.4413110E-008  0.1928035E+04  0.7818608E-02  0.8641026E-01
         -2   -1    0    0    0  501 -0.00000000000E+00  0.00000000000E+00  0.67578994911E+03  0.67578994911E+03  0.00000000000E+00 0.  1.
          1   -1    0    0  501    0  0.00000000000E+00 -0.00000000000E+00 -0.13751748504E+04  0.13751748504E+04  0.00000000000E+00 0. -1.
        -24    2    1    2    0    0  0.33023204965E+02 -0.15090835564E+03  0.50460206792E+03  0.53369183612E+03  0.79623269982E+02 0.  0.
        254    2    1    2    0    0 -0.33023204965E+02  0.15090835564E+03 -0.12039869692E+04  0.15172729634E+04  0.91031245158E+03 0.  0.
         23    2    4    4    0    0 -0.19187380940E+02  0.38704845507E+03 -0.13601285387E+03  0.41974270039E+03  0.86658963493E+02 0.  0.
         23    2    4    4    0    0 -0.13835824026E+02 -0.23614009943E+03 -0.10679741153E+04  0.10975302630E+04  0.89723968726E+02 0.  0.
          3    1    3    3  502    0 -0.10753216550E+02 -0.67633872629E+02  0.12420902302E+03  0.14183742028E+03  0.00000000000E+00 0. -1.
         -4    1    3    3    0  502  0.43776421515E+02 -0.83274483010E+02  0.38039304490E+03  0.39185441584E+03  0.00000000000E+00 0.  1.
         11    1    5    5    0    0  0.16140704740E+02  0.86701535622E+02 -0.10832135341E+00  0.88191214768E+02  0.00000000000E+00 0. -1.
        -11    1    5    5    0    0 -0.35328085680E+02  0.30034691945E+03 -0.13590453252E+03  0.33155148563E+03  0.00000000000E+00 0.  1.
          3    1    6    6  503    0 -0.90734175277E+01 -0.22671943561E+03 -0.10607321646E+04  0.10847288852E+04  0.00000000000E+00 0. -1.
         -3    1    6    6    0  503 -0.47624064978E+01 -0.94206638226E+01 -0.72419507242E+01  0.12801377770E+02  0.00000000000E+00 0.  1.
<mgrwt>
<rscale>  0 0.19280346E+04</rscale>
<asrwt>0</asrwt>
<pdfrwt beam="1">  1        1 0.21156536E+00 0.19280346E+04</pdfrwt>
<pdfrwt beam="2">  1       -2 0.10396769E+00 0.19280346E+04</pdfrwt>
<totfact> 0.49313404E+00</totfact>
</mgrwt>
</event>
<event>
12    4  0.4413110E-008  0.1706543E+04  0.7818608E-02  0.8757642E-01
         -2   -1    0    0    0  501 -0.00000000000E+00  0.00000000000E+00  0.80768954025E+03  0.80768954025E+03  0.00000000000E+00 0.  1.
          1   -1    0    0  501    0  0.00000000000E+00 -0.00000000000E+00 -0.90142551917E+03  0.90142551917E+03  0.00000000000E+00 0. -1.
        -24    2    1    2    0    0 -0.79528984625E+02 -0.29937592690E+03  0.49550052843E+03  0.58976926036E+03  0.79725791233E+02 0.  0.
        254    2    1    2    0    0  0.79528984625E+02  0.29937592690E+03 -0.58923650735E+03  0.11193457991E+04  0.89988029832E+03 0.  0.
         23    2    4    4    0    0 -0.16338764488E+03  0.14730841806E+03  0.17638315366E+03  0.29653879434E+03  0.91809297570E+02 0.  0.
         23    2    4    4    0    0  0.24291662951E+03  0.15206750884E+03 -0.76561966101E+03  0.82280700473E+03  0.93299976328E+02 0.  0.
          1    1    3    3  502    0 -0.32129003186E+01 -0.79974019053E+02  0.76684734893E+02  0.11084545556E+03  0.00000000000E+00 0. -1.
         -2    1    3    3    0  502 -0.76316084306E+02 -0.21940190785E+03  0.41881579353E+03  0.47892380480E+03  0.00000000000E+00 0.  1.
         11    1    5    5    0    0 -0.15413014369E+03  0.15483700803E+03  0.18103399355E+03  0.28373210441E+03  0.00000000000E+00 0. -1.
        -11    1    5    5    0    0 -0.92575011932E+01 -0.75285899666E+01 -0.46508398963E+01  0.12806689930E+02  0.00000000000E+00 0.  1.
          2    1    6    6  503    0  0.17689585470E+03  0.13072031780E+03 -0.66617978854E+03  0.70155217593E+03  0.00000000000E+00 0. -1.
         -2    1    6    6    0  503  0.66020774808E+02  0.21347191035E+02 -0.99439872466E+02  0.12125482880E+03  0.00000000000E+00 0.  1.
<mgrwt>
<rscale>  0 0.17065427E+04</rscale>
<asrwt>0</asrwt>
<pdfrwt beam="1">  1        1 0.13868085E+00 0.17065427E+04</pdfrwt>
<pdfrwt beam="2">  1       -2 0.12425993E+00 0.17065427E+04</pdfrwt>
<totfact> 0.73605401E+00</totfact>
</mgrwt>
</event>
<event>
12    4  0.4413110E-008  0.1905984E+04  0.7818608E-02  0.8651884E-01
          1   -1    0    0  501    0  0.00000000000E+00  0.00000000000E+00  0.39090883853E+03  0.39090883853E+03  0.00000000000E+00 0. -1.
         -2   -1    0    0    0  501 -0.00000000000E+00 -0.00000000000E+00 -0.23232868201E+04  0.23232868201E+04  0.00000000000E+00 0.  1.
        -24    2    1    2    0    0 -0.34982161131E+02  0.77079046951E+03 -0.81699250789E+03  0.11264057066E+04  0.77274565098E+02 0.  0.
        254    2    1    2    0    0  0.34982161131E+02 -0.77079046951E+03 -0.11153854736E+04  0.15877899520E+04  0.82562126754E+03 0.  0.
         23    2    4    4    0    0 -0.71823365175E+02  0.15451060409E+03 -0.16581833265E+03  0.25465778427E+03  0.91229080275E+02 0.  0.
         23    2    4    4    0    0  0.10680552631E+03 -0.92530107360E+03 -0.94956714100E+03  0.13331321677E+04  0.89297951508E+02 0.  0.
          1    1    3    3  502    0 -0.37779268313E+02  0.30064117768E+03 -0.27855329583E+03  0.41158757203E+03  0.00000000000E+00 0. -1.
         -2    1    3    3    0  502  0.27971071818E+01  0.47014929183E+03 -0.53843921206E+03  0.71481813456E+03  0.00000000000E+00 0.  1.
         11    1    5    5    0    0 -0.92114368932E+02  0.10474095315E+03 -0.11726506276E+03  0.18222738316E+03  0.00000000000E+00 0. -1.
        -11    1    5    5    0    0  0.20291003757E+02  0.49769650944E+02 -0.48553269891E+02  0.72430401115E+02  0.00000000000E+00 0.  1.
          2    1    6    6  503    0  0.36823205142E+00 -0.38411658451E+03 -0.39639412556E+03  0.55197281533E+03  0.00000000000E+00 0.  1.
         -2    1    6    6    0  503  0.10643729425E+03 -0.54118448909E+03 -0.55317301544E+03  0.78115935240E+03  0.00000000000E+00 0. -1.
<mgrwt>
<rscale>  0 0.19059836E+04</rscale>
<asrwt>0</asrwt>
<pdfrwt beam="1">  1        1 0.60139821E-01 0.19059836E+04</pdfrwt>
<pdfrwt beam="2">  1       -2 0.35742874E+00 0.19059836E+04</pdfrwt>
<totfact> 0.70881021E-01</totfact>
</mgrwt>
</event>
<event>
12    4  0.4413110E-008  0.1751395E+04  0.7818608E-02  0.8732583E-01
         -2   -1    0    0    0  501 -0.00000000000E+00  0.00000000000E+00  0.11383772953E+04  0.11383772953E+04  0.00000000000E+00 0.  1.
          1   -1    0    0  501    0  0.00000000000E+00 -0.00000000000E+00 -0.67363099519E+03  0.67363099519E+03  0.00000000000E+00 0. -1.
        -24    2    1    2    0    0  0.77632789827E+02  0.17176527905E+02  0.78878786629E+03  0.79666317475E+03  0.78511354736E+02 0.  0.
        254    2    1    2    0    0 -0.77632789827E+02 -0.17176527905E+02 -0.32404156614E+03  0.10153451158E+04  0.95895822871E+03 0.  0.
         23    2    4    4    0    0  0.62527307581E+02  0.29776094642E+03 -0.51986352445E+03  0.60860568061E+03  0.87014625289E+02 0.  0.
         23    2    4    4    0    0 -0.14016009741E+03 -0.31493747433E+03  0.19582195831E+03  0.40673943518E+03  0.90885989718E+02 0.  0.
          3    1    3    3  502    0  0.16735332097E+02  0.67185135265E+01  0.27585189284E+02  0.32956826793E+02  0.00000000000E+00 0. -1.
         -4    1    3    3    0  502  0.60897457730E+02  0.10458014379E+02  0.76120267701E+03  0.76370634796E+03  0.00000000000E+00 0.  1.
         11    1    5    5    0    0  0.54970798781E+02  0.28563001888E+03 -0.43986169682E+03  0.52733728176E+03  0.00000000000E+00 0.  1.
        -11    1    5    5    0    0  0.75565088004E+01  0.12130927543E+02 -0.80001827629E+02  0.81268398854E+02  0.00000000000E+00 0. -1.
          3    1    6    6  503    0 -0.42075781089E+02 -0.23200948265E+02  0.35218546513E+02  0.59573495559E+02  0.00000000000E+00 0. -1.
         -3    1    6    6    0  503 -0.98084316320E+02 -0.29173652606E+03  0.16060341180E+03  0.34716593962E+03  0.00000000000E+00 0.  1.
<mgrwt>
<rscale>  0 0.17513951E+04</rscale>
<asrwt>0</asrwt>
<pdfrwt beam="1">  1        1 0.10363554E+00 0.17513951E+04</pdfrwt>
<pdfrwt beam="2">  1       -2 0.17513497E+00 0.17513951E+04</pdfrwt>
<totfact> 0.46930019E+00</totfact>
</mgrwt>
</event>
<event>
12    4  0.4413110E-008  0.1201022E+04  0.7818608E-02  0.9111962E-01
         -2   -1    0    0    0  501 -0.00000000000E+00  0.00000000000E+00  0.27789975872E+03  0.27789975872E+03  0.00000000000E+00 0.  1.
          1   -1    0    0  501    0  0.00000000000E+00 -0.00000000000E+00 -0.12976386695E+04  0.12976386695E+04  0.00000000000E+00 0. -1.
        -24    2    1    2    0    0 -0.14926608242E+03  0.17591322179E+03 -0.35952806808E+03  0.43454165180E+03  0.79625312858E+02 0.  0.
        254    2    1    2    0    0  0.14926608242E+03 -0.17591322179E+03 -0.66021084270E+03  0.11409967764E+04  0.90153727712E+03 0.  0.
         23    2    4    4    0    0 -0.31047636856E+03 -0.22413247163E+03 -0.51374331904E+03  0.64710760216E+03  0.90471601246E+02 0.  0.
         23    2    4    4    0    0  0.45974245098E+03  0.48219249845E+02 -0.14646752365E+03  0.49388917427E+03  0.93731337790E+02 0.  0.
          3    1    3    3  502    0 -0.79539129786E+02  0.65081059621E+02 -0.22207405377E+03  0.24470166090E+03  0.00000000000E+00 0. -1.
         -4    1    3    3    0  502 -0.69726952636E+02  0.11083216217E+03 -0.13745401431E+03  0.18983999090E+03  0.00000000000E+00 0.  1.
         11    1    5    5    0    0  0.24611877189E+01  0.43468337338E+01 -0.13228089010E+02  0.14139828406E+02  0.00000000000E+00 0.  1.
        -11    1    5    5    0    0 -0.31293755628E+03 -0.22847930537E+03 -0.50051523003E+03  0.63296777375E+03  0.00000000000E+00 0. -1.
          3    1    6    6  503    0  0.79747795222E+02 -0.26250456226E+02 -0.34825098471E+02  0.90893260357E+02  0.00000000000E+00 0. -1.
         -3    1    6    6    0  503  0.37999465576E+03  0.74469706071E+02 -0.11164242518E+03  0.40299591391E+03  0.00000000000E+00 0.  1.
<mgrwt>
<rscale>  0 0.12010220E+04</rscale>
<asrwt>0</asrwt>
<pdfrwt beam="1">  1        1 0.19963672E+00 0.12010220E+04</pdfrwt>
<pdfrwt beam="2">  1       -2 0.42753809E-01 0.12010220E+04</pdfrwt>
<totfact> 0.40876402E+01</totfact>
</mgrwt>
</event>
<event>
12    4  0.4413110E-008  0.2329319E+04  0.7818608E-02  0.8466450E-01
         -2   -1    0    0    0  501 -0.00000000000E+00  0.00000000000E+00  0.10365375729E+04  0.10365375729E+04  0.00000000000E+00 0.  1.
          1   -1    0    0  501    0  0.00000000000E+00 -0.00000000000E+00 -0.13086177099E+04  0.13086177099E+04  0.00000000000E+00 0. -1.
        -24    2    1    2    0    0 -0.12911473043E+03 -0.57955875608E+03 -0.90953242665E+03  0.10892853600E+04  0.82063360368E+02 0.  0.
        254    2    1    2    0    0  0.12911473043E+03  0.57955875608E+03  0.63745228965E+03  0.12558699227E+04  0.90460205385E+03 0.  0.
         23    2    4    4    0    0 -0.23559665436E+03  0.44565446339E+03  0.98697535656E+01  0.51226223837E+03  0.90562158444E+02 0.  0.
         23    2    4    4    0    0  0.36471138479E+03  0.13390429269E+03  0.62758253608E+03  0.74360768434E+03  0.90265136203E+02 0.  0.
          1    1    3    3  502    0 -0.47930290396E+02 -0.32404280176E+03 -0.43915932233E+03  0.54787038659E+03  0.00000000000E+00 0. -1.
         -2    1    3    3    0  502 -0.81184440030E+02 -0.25551595432E+03 -0.47037310432E+03  0.54141497345E+03  0.00000000000E+00 0.  1.
         11    1    5    5    0    0 -0.16234098397E+03  0.31938388399E+03  0.47758738554E+02  0.36144371282E+03  0.00000000000E+00 0.  1.
        -11    1    5    5    0    0 -0.73255670393E+02  0.12627057940E+03 -0.37888984988E+02  0.15081852555E+03  0.00000000000E+00 0. -1.
          4    1    6    6  503    0  0.34885313297E+03  0.10699390914E+03  0.55065842508E+03  0.66058376160E+03  0.00000000000E+00 0. -1.
         -4    1    6    6    0  503  0.15858251824E+02  0.26910383553E+02  0.76924111001E+02  0.83023922741E+02  0.00000000000E+00 0.  1.
<mgrwt>
<rscale>  0 0.23293187E+04</rscale>
<asrwt>0</asrwt>
<pdfrwt beam="1">  1        1 0.20132580E+00 0.23293187E+04</pdfrwt>
<pdfrwt beam="2">  1       -2 0.15946732E+00 0.23293187E+04</pdfrwt>
<totfact> 0.17937302E+00</totfact>
</mgrwt>
</event>
<event>
12    4  0.4413110E-008  0.1107167E+04  0.7818608E-02  0.9198234E-01
          1   -1    0    0  501    0  0.00000000000E+00  0.00000000000E+00  0.51869932758E+03  0.51869932758E+03  0.00000000000E+00 0. -1.
         -2   -1    0    0    0  501 -0.00000000000E+00 -0.00000000000E+00 -0.59081370735E+03  0.59081370735E+03  0.00000000000E+00 0.  1.
        -24    2    1    2    0    0  0.14482357709E+03  0.66895750982E+02  0.40935274834E+02  0.19093470954E+03  0.96599464798E+02 0.  0.
        254    2    1    2    0    0 -0.14482357709E+03 -0.66895750982E+02 -0.11304965460E+03  0.91857832540E+03  0.89752827560E+03 0.  0.
         23    2    4    4    0    0  0.13812689279E+03 -0.36601616645E+03  0.14120089012E+03  0.42614844714E+03  0.92832833707E+02 0.  0.
         23    2    4    4    0    0 -0.28295046988E+03  0.29912041547E+03 -0.25425054471E+03  0.49242987826E+03  0.91158401465E+02 0.  0.
          1    1    3    3  502    0  0.11990351164E+03  0.61437021768E+02  0.70358213633E+02  0.15199222998E+03  0.00000000000E+00 0. -1.
         -2    1    3    3    0  502  0.24920065449E+02  0.54587292144E+01 -0.29422938800E+02  0.38942479560E+02  0.00000000000E+00 0.  1.
         11    1    5    5    0    0  0.10564486446E+03 -0.32706747761E+03  0.92731315917E+02  0.35599588375E+03  0.00000000000E+00 0.  1.
        -11    1    5    5    0    0  0.32482028330E+02 -0.38948688846E+02  0.48469574199E+02  0.70152563391E+02  0.00000000000E+00 0. -1.
          1    1    6    6  503    0  0.61365798363E+00  0.26198067795E+01  0.60019195415E+01  0.65774616582E+01  0.00000000000E+00 0. -1.
         -1    1    6    6    0  503 -0.28356412786E+03  0.29650060869E+03 -0.26025246426E+03  0.48585241660E+03  0.00000000000E+00 0.  1.
<mgrwt>
<rscale>  0 0.11071670E+04</rscale>
<asrwt>0</asrwt>
<pdfrwt beam="1">  1        1 0.79799896E-01 0.11071670E+04</pdfrwt>
<pdfrwt beam="2">  1       -2 0.90894417E-01 0.11071670E+04</pdfrwt>
<totfact> 0.37912923E+01</totfact>
</mgrwt>
</event>
<event>
12    4  0.4413110E-008  0.1280785E+04  0.7818608E-02  0.9044943E-01
         -4   -1    0    0    0  501 -0.00000000000E+00  0.00000000000E+00  0.24675217840E+03  0.24675217840E+03  0.00000000000E+00 0.  1.
          1   -1    0    0  501    0  0.00000000000E+00 -0.00000000000E+00 -0.16620027386E+04  0.16620027386E+04  0.00000000000E+00 0. -1.
        -24    2    1    2    0    0  0.31615705545E+03 -0.42137345666E+02 -0.38605469883E+03  0.50696022938E+03  0.78991164560E+02 0.  0.
        254    2    1    2    0    0 -0.31615705545E+03  0.42137345666E+02 -0.10291958614E+04  0.14017946876E+04  0.89669023948E+03 0.  0.
         23    2    4    4    0    0  0.30695721535E+03 -0.79832996566E+01 -0.34255221614E+03  0.46890434757E+03  0.90789874166E+02 0.  0.
         23    2    4    4    0    0 -0.62311427080E+03  0.50120645322E+02 -0.68664364526E+03  0.93289034008E+03  0.89562366377E+02 0.  0.
          3    1    3    3  502    0  0.14969585029E+03 -0.29186686344E+02 -0.24398960401E+03  0.28773535952E+03  0.00000000000E+00 0. -1.
         -4    1    3    3    0  502  0.16646120516E+03 -0.12950659321E+02 -0.14206509481E+03  0.21922486986E+03  0.00000000000E+00 0.  1.
         11    1    5    5    0    0  0.27355151610E+03  0.23156420288E+02 -0.29445066420E+03  0.40257650876E+03  0.00000000000E+00 0. -1.
        -11    1    5    5    0    0  0.33405699255E+02 -0.31139719944E+02 -0.48101551946E+02  0.66327838805E+02  0.00000000000E+00 0.  1.
          3    1    6    6  503    0 -0.27472851799E+03  0.26702405400E+02 -0.23859563533E+03  0.36485155098E+03  0.00000000000E+00 0. -1.
         -3    1    6    6    0  503 -0.34838575281E+03  0.23418239922E+02 -0.44804800992E+03  0.56803878910E+03  0.00000000000E+00 0.  1.
<mgrwt>
<rscale>  0 0.12807854E+04</rscale>
<asrwt>0</asrwt>
<pdfrwt beam="1">  1        1 0.25569272E+00 0.12807854E+04</pdfrwt>
<pdfrwt beam="2">  1       -4 0.37961875E-01 0.12807854E+04</pdfrwt>
<totfact> 0.16647928E+01</totfact>
</mgrwt>
</event>
<event>
12    4  0.4413110E-008  0.2156721E+04  0.7818608E-02  0.8536661E-01
          1   -1    0    0  501    0  0.00000000000E+00  0.00000000000E+00  0.85533315494E+03  0.85533315494E+03  0.00000000000E+00 0. -1.
         -2   -1    0    0    0  501 -0.00000000000E+00 -0.00000000000E+00 -0.13595425124E+04  0.13595425124E+04  0.00000000000E+00 0.  1.
        -24    2    1    2    0    0  0.30293086533E+03  0.55248037644E+02 -0.10486258532E+04  0.10966002863E+04  0.89980848285E+02 0.  0.
        254    2    1    2    0    0 -0.30293086533E+03 -0.55248037644E+02  0.54441649582E+03  0.11182753810E+04  0.92700110676E+03 0.  0.
         23    2    4    4    0    0 -0.48067555571E+03 -0.31425279570E+03  0.53648952189E+03  0.79112285861E+03  0.90832598010E+02 0.  0.
         23    2    4    4    0    0  0.17774469038E+03  0.25900475805E+03  0.79269739342E+01  0.32715252236E+03  0.91045572759E+02 0.  0.
          3    1    3    3  502    0  0.16260050878E+03 -0.12195509636E+02 -0.47436615345E+03  0.50160831677E+03  0.00000000000E+00 0. -1.
         -4    1    3    3    0  502  0.14033035655E+03  0.67443547280E+02 -0.57425969978E+03  0.59499196955E+03  0.00000000000E+00 0.  1.
         11    1    5    5    0    0 -0.32705824976E+03 -0.16237837383E+03  0.32565957356E+03  0.48927292269E+03  0.00000000000E+00 0. -1.
        -11    1    5    5    0    0 -0.15361730595E+03 -0.15187442187E+03  0.21082994832E+03  0.30184993592E+03  0.00000000000E+00 0.  1.
          1    1    6    6  503    0  0.16766880279E+03  0.19633405905E+03 -0.17489703932E+02  0.25877747181E+03  0.00000000000E+00 0. -1.
         -1    1    6    6    0  503  0.10075887589E+02  0.62670699000E+02  0.25416677866E+02  0.68375050549E+02  0.00000000000E+00 0.  1.
<mgrwt>
<rscale>  0 0.21567214E+04</rscale>
<asrwt>0</asrwt>
<pdfrwt beam="1">  1        1 0.13158972E+00 0.21567214E+04</pdfrwt>
<pdfrwt beam="2">  1       -2 0.20916039E+00 0.21567214E+04</pdfrwt>
<totfact> 0.18427503E+00</totfact>
</mgrwt>
</event>
<event>
12    4  0.4413110E-008  0.3789365E+04  0.7818608E-02  0.8048441E-01
         -2   -1    0    0    0  501 -0.00000000000E+00  0.00000000000E+00  0.79121763390E+03  0.79121763390E+03  0.00000000000E+00 0.  1.
          1   -1    0    0  501    0  0.00000000000E+00 -0.00000000000E+00 -0.45370842442E+04  0.45370842442E+04  0.00000000000E+00 0. -1.
        -24    2    1    2    0    0 -0.10213121951E+04  0.45793466279E+03 -0.37237789624E+04  0.38891797759E+04  0.80042571695E+02 0.  0.
        254    2    1    2    0    0  0.10213121951E+04 -0.45793466279E+03 -0.22087647958E+02  0.14391221022E+04  0.90432394959E+03 0.  0.
         23    2    4    4    0    0  0.98903828783E+03 -0.65269278074E+03  0.93613852011E+02  0.11922273569E+04  0.91858132707E+02 0.  0.
         23    2    4    4    0    0  0.32273907243E+02  0.19475811795E+03 -0.11570149997E+03  0.24689474530E+03  0.92724584469E+02 0.  0.
          1    1    3    3  502    0 -0.92301684623E+03  0.41453166640E+03 -0.32765581045E+04  0.34292316359E+04  0.00000000000E+00 0. -1.
         -2    1    3    3    0  502 -0.98295348847E+02  0.43402996390E+02 -0.44722085790E+03  0.45994813995E+03  0.00000000000E+00 0.  1.
         11    1    5    5    0    0  0.76656492699E+03 -0.54992184301E+03  0.79371664650E+02  0.94675006303E+03  0.00000000000E+00 0.  1.
        -11    1    5    5    0    0  0.22247336084E+03 -0.10277093773E+03  0.14242187362E+02  0.24547729391E+03  0.00000000000E+00 0. -1.
          3    1    6    6  503    0  0.21082398579E+02  0.32434294065E+01  0.26332439118E+01  0.21492355331E+02  0.00000000000E+00 0. -1.
         -3    1    6    6    0  503  0.11191508664E+02  0.19151468854E+03 -0.11833474388E+03  0.22540238997E+03  0.00000000000E+00 0.  1.
<mgrwt>
<rscale>  0 0.37893646E+04</rscale>
<asrwt>0</asrwt>
<pdfrwt beam="1">  1        1 0.69801298E+00 0.37893646E+04</pdfrwt>
<pdfrwt beam="2">  1       -2 0.12172579E+00 0.37893646E+04</pdfrwt>
<totfact> 0.10552250E-02</totfact>
</mgrwt>
</event>
<event>
12    4  0.4413110E-008  0.2044628E+04  0.7818608E-02  0.8586035E-01
          1   -1    0    0  501    0  0.00000000000E+00  0.00000000000E+00  0.14014117554E+04  0.14014117554E+04  0.00000000000E+00 0. -1.
         -2   -1    0    0    0  501 -0.00000000000E+00 -0.00000000000E+00 -0.74576643522E+03  0.74576643522E+03  0.00000000000E+00 0.  1.
        -24    2    1    2    0    0 -0.62527529897E+03  0.21066453921E+03 -0.25101707702E+03  0.71035408839E+03  0.79022847092E+02 0.  0.
        254    2    1    2    0    0  0.62527529897E+03 -0.21066453921E+03  0.90666239720E+03  0.14368241022E+04  0.89837522821E+03 0.  0.
         23    2    4    4    0    0  0.61752307519E+02  0.29471904122E+03  0.10707899286E+03  0.33203753829E+03  0.90057511500E+02 0.  0.
         23    2    4    4    0    0  0.56352299145E+03 -0.50538358043E+03  0.79958340434E+03  0.11047865639E+04  0.90824039162E+02 0.  0.
          3    1    3    3  502    0 -0.26134416763E+03  0.50488979034E+02 -0.84418417047E+02  0.27924251126E+03  0.00000000000E+00 0. -1.
         -4    1    3    3    0  502 -0.36393113134E+03  0.16017556017E+03 -0.16659865997E+03  0.43111157713E+03  0.00000000000E+00 0.  1.
         11    1    5    5    0    0  0.42890547290E+02  0.10919552828E+03  0.63909655072E+00  0.11731867237E+03  0.00000000000E+00 0.  1.
        -11    1    5    5    0    0  0.18861760228E+02  0.18552351295E+03  0.10643989631E+03  0.21471886592E+03  0.00000000000E+00 0. -1.
          3    1    6    6  503    0  0.36933265107E+03 -0.35631032815E+03  0.48440146270E+03  0.70569712636E+03  0.00000000000E+00 0. -1.
         -3    1    6    6    0  503  0.19419034039E+03 -0.14907325228E+03  0.31518194165E+03  0.39908943758E+03  0.00000000000E+00 0.  1.
<mgrwt>
<rscale>  0 0.20446279E+04</rscale>
<asrwt>0</asrwt>
<pdfrwt beam="1">  1        1 0.21560181E+00 0.20446279E+04</pdfrwt>
<pdfrwt beam="2">  1       -2 0.11473330E+00 0.20446279E+04</pdfrwt>
<totfact> 0.36865168E+00</totfact>
</mgrwt>
</event>
<event>
12    4  0.4413110E-008  0.1943551E+04  0.7818608E-02  0.8633477E-01
         -2   -1    0    0    0  501 -0.00000000000E+00  0.00000000000E+00  0.14308061707E+04  0.14308061707E+04  0.00000000000E+00 0.  1.
          1   -1    0    0  501    0  0.00000000000E+00 -0.00000000000E+00 -0.66001106533E+03  0.66001106533E+03  0.00000000000E+00 0. -1.
        -24    2    1    2    0    0 -0.11384106988E+03  0.25336813949E+03 -0.46228073889E+03  0.54484770428E+03  0.77461835812E+02 0.  0.
        254    2    1    2    0    0  0.11384106988E+03 -0.25336813949E+03  0.12330758443E+04  0.15459695318E+04  0.89016321656E+03 0.  0.
         23    2    4    4    0    0  0.13454211065E+03 -0.12033268616E+03 -0.82374347328E+02  0.22056242962E+03  0.96336479947E+02 0.  0.
         23    2    4    4    0    0 -0.20701040764E+02 -0.13303545333E+03  0.13154501916E+04  0.13254071022E+04  0.90375963999E+02 0.  0.
          3    1    3    3  502    0 -0.94093431429E+02  0.11501955760E+03 -0.23570774003E+03  0.27864172549E+03  0.00000000000E+00 0. -1.
         -4    1    3    3    0  502 -0.19747638456E+02  0.13834858189E+03 -0.22657299886E+03  0.26620597880E+03  0.00000000000E+00 0.  1.
         11    1    5    5    0    0  0.85666073763E+02 -0.12587905779E+03 -0.44966626054E+02  0.15876463977E+03  0.00000000000E+00 0.  1.
        -11    1    5    5    0    0  0.48876036885E+02  0.55463716278E+01 -0.37407721274E+02  0.61797789853E+02  0.00000000000E+00 0. -1.
          2    1    6    6  503    0 -0.15446560697E+02  0.10120574482E+02  0.12188200597E+03  0.12327305320E+03  0.00000000000E+00 0. -1.
         -2    1    6    6    0  503 -0.52544800665E+01 -0.14315602782E+03  0.11935681857E+04  0.12021340490E+04  0.00000000000E+00 0.  1.
<mgrwt>
<rscale>  0 0.19435513E+04</rscale>
<asrwt>0</asrwt>
<pdfrwt beam="1">  1        1 0.10154016E+00 0.19435513E+04</pdfrwt>
<pdfrwt beam="2">  1       -2 0.22012403E+00 0.19435513E+04</pdfrwt>
<totfact> 0.23963935E+00</totfact>
</mgrwt>
</event>
<event>
12    4  0.4413110E-008  0.1129226E+04  0.7818608E-02  0.9177166E-01
         -2   -1    0    0    0  501 -0.00000000000E+00  0.00000000000E+00  0.23222963051E+03  0.23222963051E+03  0.00000000000E+00 0.  1.
          1   -1    0    0  501    0  0.00000000000E+00 -0.00000000000E+00 -0.13727261776E+04  0.13727261776E+04  0.00000000000E+00 0. -1.
        -24    2    1    2    0    0  0.11043139666E+03  0.58948233119E+02 -0.75560323162E+02  0.16728705920E+03  0.81274904995E+02 0.  0.
        254    2    1    2    0    0 -0.11043139666E+03 -0.58948233119E+02 -0.10649362239E+04  0.14376687489E+04  0.95767023708E+03 0.  0.
         23    2    4    4    0    0  0.90076060870E+02 -0.14154689338E+02 -0.11788008805E+04  0.11857954675E+04  0.90693566402E+02 0.  0.
         23    2    4    4    0    0 -0.20050745753E+03 -0.44793543781E+02  0.11386465658E+03  0.25187328136E+03  0.90913627986E+02 0.  0.
          1    1    3    3  502    0  0.27630072287E+01 -0.17164421314E+02 -0.81787075338E+01  0.19213089937E+02  0.00000000000E+00 0. -1.
         -2    1    3    3    0  502  0.10766838943E+03  0.76112654433E+02 -0.67381615628E+02  0.14807396926E+03  0.00000000000E+00 0.  1.
         11    1    5    5    0    0  0.20387203818E+02 -0.15421698073E+02 -0.81367301273E+03  0.81407446742E+03  0.00000000000E+00 0. -1.
        -11    1    5    5    0    0  0.69688857052E+02  0.12670087346E+01 -0.36512786778E+03  0.37172100013E+03  0.00000000000E+00 0.  1.
          1    1    6    6  503    0  0.12745390274E+01  0.97796624643E+00  0.27690695877E+02  0.27737258442E+02  0.00000000000E+00 0. -1.
         -1    1    6    6    0  503 -0.20178199656E+03 -0.45771510027E+02  0.86173960706E+02  0.22413602292E+03  0.00000000000E+00 0.  1.
<mgrwt>
<rscale>  0 0.11292257E+04</rscale>
<asrwt>0</asrwt>
<pdfrwt beam="1">  1        1 0.21118864E+00 0.11292257E+04</pdfrwt>
<pdfrwt beam="2">  1       -2 0.35727637E-01 0.11292257E+04</pdfrwt>
<totfact> 0.51583893E+01</totfact>
</mgrwt>
</event>
<event>
12    4  0.4413110E-008  0.1727478E+04  0.7818608E-02  0.8745846E-01
          1   -1    0    0  501    0  0.00000000000E+00  0.00000000000E+00  0.16449564089E+04  0.16449564089E+04  0.00000000000E+00 0. -1.
         -2   -1    0    0    0  501 -0.00000000000E+00 -0.00000000000E+00 -0.45353498464E+03  0.45353498464E+03  0.00000000000E+00 0.  1.
        -24    2    1    2    0    0  0.33845537592E+03 -0.52636254641E+03  0.43165509053E+03  0.76462996244E+03  0.81995673865E+02 0.  0.
        254    2    1    2    0    0 -0.33845537592E+03  0.52636254641E+03  0.75976633377E+03  0.13338614311E+04  0.90018434990E+03 0.  0.
         23    2    4    4    0    0 -0.13138792663E+03  0.74867621819E+03  0.44343585593E+03  0.88501818977E+03  0.94037072223E+02 0.  0.
         23    2    4    4    0    0 -0.20706744929E+03 -0.22231367178E+03  0.31633047785E+03  0.44884324138E+03  0.95367640769E+02 0.  0.
          3    1    3    3  502    0  0.24178364489E+03 -0.39235987619E+03  0.35867193572E+03  0.58399585688E+03  0.00000000000E+00 0. -1.
         -4    1    3    3    0  502  0.96671731031E+02 -0.13400267022E+03  0.72983154810E+02  0.18063410556E+03  0.00000000000E+00 0.  1.
         11    1    5    5    0    0 -0.81985236208E+02  0.43465174466E+03  0.20425604798E+03  0.48720042203E+03  0.00000000000E+00 0.  1.
        -11    1    5    5    0    0 -0.49402690423E+02  0.31402447353E+03  0.23917980795E+03  0.39781776774E+03  0.00000000000E+00 0. -1.
          2    1    6    6  503    0 -0.60238875748E+02 -0.11514723853E+02  0.67397831163E+02  0.91125071535E+02  0.00000000000E+00 0. -1.
         -2    1    6    6    0  503 -0.14682857354E+03 -0.21079894792E+03  0.24893264668E+03  0.35771816985E+03  0.00000000000E+00 0.  1.
<mgrwt>
<rscale>  0 0.17274783E+04</rscale>
<asrwt>0</asrwt>
<pdfrwt beam="1">  1        1 0.25307021E+00 0.17274783E+04</pdfrwt>
<pdfrwt beam="2">  1       -2 0.69774614E-01 0.17274783E+04</pdfrwt>
<totfact> 0.81080963E+00</totfact>
</mgrwt>
</event>
<event>
12    4  0.4413110E-008  0.2527330E+04  0.7818608E-02  0.8393313E-01
          1   -1    0    0  501    0  0.00000000000E+00  0.00000000000E+00  0.26783543854E+04  0.26783543854E+04  0.00000000000E+00 0. -1.
         -2   -1    0    0    0  501 -0.00000000000E+00 -0.00000000000E+00 -0.59620542503E+03  0.59620542503E+03  0.00000000000E+00 0.  1.
        -24    2    1    2    0    0  0.24731596224E+03  0.81978633487E+03  0.22419640474E+02  0.86026117073E+03  0.79572743778E+02 0.  0.
        254    2    1    2    0    0 -0.24731596224E+03 -0.81978633487E+03  0.20597293199E+04  0.24142986397E+04  0.92365482208E+03 0.  0.
         23    2    4    4    0    0 -0.18748949949E+03 -0.21920324702E+03  0.41062959985E+02  0.30547341343E+03  0.91790324679E+02 0.  0.
         23    2    4    4    0    0 -0.59826462754E+02 -0.60058308785E+03  0.20186663599E+04  0.21088252262E+04  0.88604239394E+02 0.  0.
          3    1    3    3  502    0  0.21462857450E+03  0.72112813250E+03  0.45615906141E+02  0.75377186162E+03  0.00000000000E+00 0. -1.
         -4    1    3    3    0  502  0.32687387747E+02  0.98658202377E+02 -0.23196265667E+02  0.10648930911E+03  0.00000000000E+00 0.  1.
         11    1    5    5    0    0 -0.12178827858E+02 -0.78821635944E+01  0.26867127559E+02  0.30533504453E+02  0.00000000000E+00 0.  1.
        -11    1    5    5    0    0 -0.17531067163E+03 -0.21132108343E+03  0.14195832427E+02  0.27493990898E+03  0.00000000000E+00 0. -1.
          1    1    6    6  503    0 -0.70997069465E+02 -0.39604338164E+03  0.12387505667E+04  0.13024568748E+04  0.00000000000E+00 0. -1.
         -1    1    6    6    0  503  0.11170606711E+02 -0.20453970622E+03  0.77991579315E+03  0.80636835149E+03  0.00000000000E+00 0.  1.
<mgrwt>
<rscale>  0 0.25273301E+04</rscale>
<asrwt>0</asrwt>
<pdfrwt beam="1">  1        1 0.41205452E+00 0.25273301E+04</pdfrwt>
<pdfrwt beam="2">  1       -2 0.91723913E-01 0.25273301E+04</pdfrwt>
<totfact> 0.80100211E-01</totfact>
</mgrwt>
</event>
<event>
12    4  0.4413110E-008  0.9566961E+03  0.7818608E-02  0.9357358E-01
          1   -1    0    0  501    0  0.00000000000E+00  0.00000000000E+00  0.68041580327E+03  0.68041580327E+03  0.00000000000E+00 0. -1.
         -2   -1    0    0    0  501 -0.00000000000E+00 -0.00000000000E+00 -0.33628977131E+03  0.33628977131E+03  0.00000000000E+00 0.  1.
        -24    2    1    2    0    0  0.14061925816E+02  0.77177824238E+01  0.26313964092E+01  0.80403411106E+02  0.78743141588E+02 0.  0.
        254    2    1    2    0    0 -0.14061925816E+02 -0.77177824238E+01  0.34149463555E+03  0.93630216347E+03  0.87165695849E+03 0.  0.
         23    2    4    4    0    0 -0.10547276853E+03 -0.36584368442E+03  0.39091142271E+03  0.55328807579E+03  0.91377503079E+02 0.  0.
         23    2    4    4    0    0  0.91410842718E+02  0.35812590200E+03 -0.49416787162E+02  0.38301408768E+03  0.87450950039E+02 0.  0.
          1    1    3    3  502    0 -0.14823637493E+02  0.15980183899E+02  0.31784239454E+02  0.38540165849E+02  0.00000000000E+00 0. -1.
         -2    1    3    3    0  502  0.28885563309E+02 -0.82624014755E+01 -0.29152843045E+02  0.41863245257E+02  0.00000000000E+00 0.  1.
         11    1    5    5    0    0 -0.81378852067E+02 -0.35612543305E+03  0.36985377776E+03  0.51984580267E+03  0.00000000000E+00 0. -1.
        -11    1    5    5    0    0 -0.24093916467E+02 -0.97182513720E+01  0.21057644947E+02  0.33442273116E+02  0.00000000000E+00 0.  1.
          4    1    6    6  503    0  0.45595485506E+02  0.30308811224E+03 -0.54154780564E+02  0.31124603184E+03  0.00000000000E+00 0. -1.
         -4    1    6    6    0  503  0.45815357211E+02  0.55037789760E+02  0.47379934022E+01  0.71768055844E+02  0.00000000000E+00 0.  1.
<mgrwt>
<rscale>  0 0.95669614E+03</rscale>
<asrwt>0</asrwt>
<pdfrwt beam="1">  1        1 0.10467935E+00 0.95669614E+03</pdfrwt>
<pdfrwt beam="2">  1       -2 0.51736888E-01 0.95669614E+03</pdfrwt>
<totfact> 0.88347138E+01</totfact>
</mgrwt>
</event>
<event>
12    4  0.4413110E-008  0.1790452E+04  0.7818608E-02  0.8711394E-01
         -2   -1    0    0    0  501 -0.00000000000E+00  0.00000000000E+00  0.71312751936E+03  0.71312751936E+03  0.00000000000E+00 0.  1.
          1   -1    0    0  501    0  0.00000000000E+00 -0.00000000000E+00 -0.11238236469E+04  0.11238236469E+04  0.00000000000E+00 0. -1.
        -24    2    1    2    0    0  0.20511046490E+03 -0.38600613581E+03  0.36181964605E+03  0.57248128901E+03  0.75830932373E+02 0.  0.
        254    2    1    2    0    0 -0.20511046490E+03  0.38600613581E+03 -0.77251577356E+03  0.12644698772E+04  0.90057337863E+03 0.  0.
         23    2    4    4    0    0  0.17334054853E+03  0.46148731588E+03 -0.70186076535E+03  0.86260910508E+03  0.92024158460E+02 0.  0.
         23    2    4    4    0    0 -0.37845101343E+03 -0.75481180076E+02 -0.70655008215E+02  0.40186077214E+03  0.87048101004E+02 0.  0.
          3    1    3    3  502    0 -0.37585992888E+01 -0.17563298917E+02  0.49066456247E+01  0.18619122126E+02  0.00000000000E+00 0. -1.
         -4    1    3    3    0  502  0.20886906419E+03 -0.36844283689E+03  0.35691300043E+03  0.55386216689E+03  0.00000000000E+00 0.  1.
         11    1    5    5    0    0  0.14678468583E+03  0.38678423376E+03 -0.52205595662E+03  0.66610075013E+03  0.00000000000E+00 0. -1.
        -11    1    5    5    0    0  0.26555862701E+02  0.74703082123E+02 -0.17980480873E+03  0.19650835495E+03  0.00000000000E+00 0.  1.
          1    1    6    6  503    0 -0.28972318475E+03 -0.60597738460E+02 -0.90914940934E+02  0.30964033357E+03  0.00000000000E+00 0. -1.
         -1    1    6    6    0  503 -0.88727828681E+02 -0.14883441615E+02  0.20259932719E+02  0.92220438573E+02  0.00000000000E+00 0.  1.
<mgrwt>
<rscale>  0 0.17904520E+04</rscale>
<asrwt>0</asrwt>
<pdfrwt beam="1">  1        1 0.17289595E+00 0.17904520E+04</pdfrwt>
<pdfrwt beam="2">  1       -2 0.10971193E+00 0.17904520E+04</pdfrwt>
<totfact> 0.66626834E+00</totfact>
</mgrwt>
</event>
<event>
12    4  0.4413110E-008  0.2714543E+04  0.7818608E-02  0.8330302E-01
          1   -1    0    0  501    0  0.00000000000E+00  0.00000000000E+00  0.28900841011E+04  0.28900841011E+04  0.00000000000E+00 0. -1.
         -2   -1    0    0    0  501 -0.00000000000E+00 -0.00000000000E+00 -0.63741610940E+03  0.63741610940E+03  0.00000000000E+00 0.  1.
        -24    2    1    2    0    0  0.80899766619E+03 -0.22810461738E+03  0.21203208032E+04  0.22822413464E+04  0.79726496057E+02 0.  0.
        254    2    1    2    0    0 -0.80899766619E+03  0.22810461738E+03  0.13234718853E+03  0.12452588642E+04  0.90920015407E+03 0.  0.
         23    2    4    4    0    0 -0.25435501219E+03 -0.33427776837E+03  0.13421130313E+03  0.45038871498E+03  0.91647269694E+02 0.  0.
         23    2    4    4    0    0 -0.55464265400E+03  0.56238238575E+03 -0.18641145980E+01  0.79487014921E+03  0.88953120988E+02 0.  0.
          1    1    3    3  502    0  0.78229763908E+03 -0.23473393622E+03  0.20468311511E+04  0.22037711719E+04  0.00000000000E+00 0. -1.
         -2    1    3    3    0  502  0.26700027112E+02  0.66293188371E+01  0.73489652119E+02  0.78470174490E+02  0.00000000000E+00 0.  1.
         11    1    5    5    0    0 -0.50227675023E+02 -0.55934992564E+02  0.62691690054E+02  0.97886621830E+02  0.00000000000E+00 0. -1.
        -11    1    5    5    0    0 -0.20412733716E+03 -0.27834277581E+03  0.71519613078E+02  0.35250209315E+03  0.00000000000E+00 0.  1.
          4    1    6    6  503    0 -0.39176338564E+03  0.34774228789E+03 -0.25025563620E+02  0.52443257713E+03  0.00000000000E+00 0. -1.
         -4    1    6    6    0  503 -0.16287926836E+03  0.21464009786E+03  0.23161449022E+02  0.27043757208E+03  0.00000000000E+00 0.  1.
<mgrwt>
<rscale>  0 0.27145432E+04</rscale>
<asrwt>0</asrwt>
<pdfrwt beam="1">  1        1 0.44462832E+00 0.27145432E+04</pdfrwt>
<pdfrwt beam="2">  1       -2 0.98064018E-01 0.27145432E+04</pdfrwt>
<totfact> 0.47639041E-01</totfact>
</mgrwt>
</event>
<event>
12    4  0.4413110E-008  0.1960516E+04  0.7818608E-02  0.8625307E-01
          1   -1    0    0  501    0  0.00000000000E+00  0.00000000000E+00  0.15086655999E+04  0.15086655999E+04  0.00000000000E+00 0. -1.
         -2   -1    0    0    0  501 -0.00000000000E+00 -0.00000000000E+00 -0.63692404021E+03  0.63692404021E+03  0.00000000000E+00 0.  1.
        -24    2    1    2    0    0  0.58763183296E+03  0.49905196313E+03  0.29630041498E+03  0.82978752734E+03  0.79933544869E+02 0.  0.
        254    2    1    2    0    0 -0.58763183296E+03 -0.49905196313E+03  0.57544114476E+03  0.13158021128E+04  0.89768516530E+03 0.  0.
         23    2    4    4    0    0 -0.65870625215E+03 -0.15958031582E+02  0.20416667620E+03  0.69619522154E+03  0.94101909824E+02 0.  0.
         23    2    4    4    0    0  0.71074419189E+02 -0.48309393155E+03  0.37127446856E+03  0.61960689128E+03  0.87387922244E+02 0.  0.
          1    1    3    3  502    0  0.23484898505E+03  0.19356226578E+03  0.75723065982E+02  0.31361501755E+03  0.00000000000E+00 0. -1.
         -2    1    3    3    0  502  0.35278284791E+03  0.30548969736E+03  0.22057734900E+03  0.51617250979E+03  0.00000000000E+00 0.  1.
         11    1    5    5    0    0 -0.40630197366E+03 -0.55553277490E+02  0.12781858527E+03  0.42954051169E+03  0.00000000000E+00 0. -1.
        -11    1    5    5    0    0 -0.25240427849E+03  0.39595245909E+02  0.76348090925E+02  0.26665470985E+03  0.00000000000E+00 0.  1.
          4    1    6    6  503    0  0.73969551269E+02 -0.22271106414E+03  0.15659315363E+03  0.28212254141E+03  0.00000000000E+00 0. -1.
         -4    1    6    6    0  503 -0.28951320798E+01 -0.26038286741E+03  0.21468131493E+03  0.33748434988E+03  0.00000000000E+00 0.  1.
<mgrwt>
<rscale>  0 0.19605156E+04</rscale>
<asrwt>0</asrwt>
<pdfrwt beam="1">  1        1 0.23210240E+00 0.19605156E+04</pdfrwt>
<pdfrwt beam="2">  1       -2 0.97988314E-01 0.19605156E+04</pdfrwt>
<totfact> 0.45679713E+00</totfact>
</mgrwt>
</event>
<event>
12    4  0.4413110E-008  0.2348229E+04  0.7818608E-02  0.8459144E-01
          3   -1    0    0  501    0  0.00000000000E+00  0.00000000000E+00  0.14738851977E+04  0.14738851977E+04  0.00000000000E+00 0. -1.
         -4   -1    0    0    0  501 -0.00000000000E+00 -0.00000000000E+00 -0.93531353325E+03  0.93531353325E+03  0.00000000000E+00 0.  1.
        -24    2    1    2    0    0 -0.53666021986E+03 -0.19069284382E+03  0.10753063422E+04  0.12194549448E+04  0.80116668625E+02 0.  0.
        254    2    1    2    0    0  0.53666021986E+03  0.19069284382E+03 -0.53673467784E+03  0.11897437861E+04  0.89612399242E+03 0.  0.
         23    2    4    4    0    0  0.48845061384E+03 -0.28553822250E+03 -0.26350117588E+03  0.63054379243E+03  0.89646672025E+02 0.  0.
         23    2    4    4    0    0  0.48209606018E+02  0.47623106631E+03 -0.27323350195E+03  0.55919999362E+03  0.94487521104E+02 0.  0.
          1    1    3    3  502    0 -0.48850831070E+03 -0.14761416474E+03  0.94381882263E+03  0.10729512017E+04  0.00000000000E+00 0. -1.
         -2    1    3    3    0  502 -0.48151909163E+02 -0.43078679078E+02  0.13148751960E+03  0.14650374316E+03  0.00000000000E+00 0.  1.
         11    1    5    5    0    0  0.39938937203E+03 -0.21677241678E+03 -0.24579262405E+03  0.51663929894E+03  0.00000000000E+00 0. -1.
        -11    1    5    5    0    0  0.89061241811E+02 -0.68765805720E+02 -0.17708551832E+02  0.11390449349E+03  0.00000000000E+00 0.  1.
          4    1    6    6  503    0  0.71069179662E+02  0.40691694558E+03 -0.21409680330E+03  0.46526301172E+03  0.00000000000E+00 0. -1.
         -4    1    6    6    0  503 -0.22859573644E+02  0.69314120738E+02 -0.59136698657E+02  0.93936981902E+02  0.00000000000E+00 0.  1.
<mgrwt>
<rscale>  0 0.23482289E+04</rscale>
<asrwt>0</asrwt>
<pdfrwt beam="1">  1        3 0.22675157E+00 0.23482289E+04</pdfrwt>
<pdfrwt beam="2">  1       -4 0.14389439E+00 0.23482289E+04</pdfrwt>
<totfact> 0.69351417E-02</totfact>
</mgrwt>
</event>
<event>
12    4  0.4413110E-008  0.1330451E+04  0.7818608E-02  0.9005760E-01
          1   -1    0    0  501    0  0.00000000000E+00  0.00000000000E+00  0.49652332165E+04  0.49652332165E+04  0.00000000000E+00 0. -1.
         -2   -1    0    0    0  501 -0.00000000000E+00 -0.00000000000E+00 -0.89124686847E+02  0.89124686847E+02  0.00000000000E+00 0.  1.
        -24    2    1    2    0    0 -0.17961423236E+03  0.28946308127E+03  0.85225418810E+03  0.92089408934E+03  0.75223498796E+02 0.  0.
        254    2    1    2    0    0  0.17961423236E+03 -0.28946308127E+03  0.40238543416E+04  0.41334638141E+04  0.88208230441E+03 0.  0.
         23    2    4    4    0    0  0.50402251792E+03 -0.22714820635E+02  0.20211849288E+04  0.20852283295E+04  0.91836853959E+02 0.  0.
         23    2    4    4    0    0 -0.32440828556E+03 -0.26674826064E+03  0.20026694128E+04  0.20482354846E+04  0.90490072638E+02 0.  0.
          3    1    3    3  502    0 -0.10789090473E+03  0.22292237966E+03  0.66504285566E+03  0.70965966106E+03  0.00000000000E+00 0. -1.
         -4    1    3    3    0  502 -0.71723327631E+02  0.66540701615E+02  0.18721133244E+03  0.21123442828E+03  0.00000000000E+00 0.  1.
         11    1    5    5    0    0  0.75606133607E+02  0.29220596947E+02  0.34221503833E+03  0.35168347016E+03  0.00000000000E+00 0. -1.
        -11    1    5    5    0    0  0.42841638432E+03 -0.51935417582E+02  0.16789698905E+04  0.17335448593E+04  0.00000000000E+00 0.  1.
          3    1    6    6  503    0 -0.37419152172E+00  0.34437936061E+01  0.31255915519E+01  0.46657321233E+01  0.00000000000E+00 0. -1.
         -3    1    6    6    0  503 -0.32403409404E+03 -0.27019205424E+03  0.19995438212E+04  0.20435697525E+04  0.00000000000E+00 0.  1.
<mgrwt>
<rscale>  0 0.13304508E+04</rscale>
<asrwt>0</asrwt>
<pdfrwt beam="1">  1        1 0.76388182E+00 0.13304508E+04</pdfrwt>
<pdfrwt beam="2">  1       -2 0.13711494E-01 0.13304508E+04</pdfrwt>
<totfact> 0.35602279E-01</totfact>
</mgrwt>
</event>
<event>
12    4  0.4413110E-008  0.2463160E+04  0.7818608E-02  0.8416229E-01
          3   -1    0    0  501    0  0.00000000000E+00  0.00000000000E+00  0.11069722822E+04  0.11069722822E+04  0.00000000000E+00 0. -1.
         -4   -1    0    0    0  501 -0.00000000000E+00 -0.00000000000E+00 -0.13702142892E+04  0.13702142892E+04  0.00000000000E+00 0.  1.
        -24    2    1    2    0    0  0.56351444269E+03 -0.61593771629E+03 -0.77858107068E+03  0.11447258539E+04  0.85328772648E+02 0.  0.
        254    2    1    2    0    0 -0.56351444269E+03  0.61593771629E+03  0.51533906363E+03  0.13324607175E+04  0.90163707540E+03 0.  0.
         23    2    4    4    0    0 -0.37814212075E+03  0.81961056002E+03  0.51254413740E+03  0.10419754111E+04  0.90875359358E+02 0.  0.
         23    2    4    4    0    0 -0.18537232194E+03 -0.20367284373E+03  0.27949262261E+01  0.29048530642E+03  0.92349210174E+02 0.  0.
          1    1    3    3  502    0  0.64671971562E+02 -0.52486341246E+02 -0.49291831811E+02  0.96783080166E+02  0.00000000000E+00 0. -1.
         -2    1    3    3    0  502  0.49884247112E+03 -0.56345137505E+03 -0.72928923887E+03  0.10479427737E+04  0.00000000000E+00 0.  1.
         11    1    5    5    0    0 -0.28595590047E+03  0.51867527641E+03  0.34458772274E+03  0.68522661801E+03  0.00000000000E+00 0. -1.
        -11    1    5    5    0    0 -0.92186220281E+02  0.30093528361E+03  0.16795641466E+03  0.35674879307E+03  0.00000000000E+00 0.  1.
          2    1    6    6  503    0 -0.42709637511E+02 -0.11408834059E+03 -0.40580635890E+01  0.12188818841E+03  0.00000000000E+00 0. -1.
         -2    1    6    6    0  503 -0.14266268443E+03 -0.89584503143E+02  0.68529898150E+01  0.16859711801E+03  0.00000000000E+00 0.  1.
<mgrwt>
<rscale>  0 0.24631600E+04</rscale>
<asrwt>0</asrwt>
<pdfrwt beam="1">  1        3 0.17030343E+00 0.24631600E+04</pdfrwt>
<pdfrwt beam="2">  1       -4 0.21080220E+00 0.24631600E+04</pdfrwt>
<totfact> 0.52697491E-02</totfact>
</mgrwt>
</event>
<event>
12    4  0.4413110E-008  0.1294407E+04  0.7818608E-02  0.9034012E-01
          1   -1    0    0  501    0  0.00000000000E+00  0.00000000000E+00  0.12519958394E+04  0.12519958394E+04  0.00000000000E+00 0. -1.
         -2   -1    0    0    0  501 -0.00000000000E+00 -0.00000000000E+00 -0.33456378629E+03  0.33456378629E+03  0.00000000000E+00 0.  1.
        -24    2    1    2    0    0  0.17090080472E+03 -0.89863626242E+02 -0.98837829789E+02  0.22554212057E+03  0.61788147566E+02 0.  0.
        254    2    1    2    0    0 -0.17090080472E+03  0.89863626242E+02  0.10162698829E+04  0.13610175051E+04  0.88446685522E+03 0.  0.
         23    2    4    4    0    0  0.82263931535E+02  0.34271924313E+03  0.10664012405E+03  0.37927775813E+03  0.90860704986E+02 0.  0.
         23    2    4    4    0    0 -0.25316473626E+03 -0.25285561689E+03  0.90962975884E+03  0.98173974699E+03  0.91423661954E+02 0.  0.
          1    1    3    3  502    0  0.61811174925E+02 -0.38555119361E+01 -0.16638094772E+02  0.64127314895E+02  0.00000000000E+00 0. -1.
         -2    1    3    3    0  502  0.10908962979E+03 -0.86008114306E+02 -0.82199735017E+02  0.16141480568E+03  0.00000000000E+00 0.  1.
         11    1    5    5    0    0 -0.19625967565E+02  0.74502581823E+02  0.24005051957E+02  0.80697309872E+02  0.00000000000E+00 0. -1.
        -11    1    5    5    0    0  0.10188989910E+03  0.26821666131E+03  0.82635072098E+02  0.29858044826E+03  0.00000000000E+00 0.  1.
          1    1    6    6  503    0 -0.54020798844E+02 -0.10170675055E+03  0.35879074022E+03  0.37681999029E+03  0.00000000000E+00 0. -1.
         -1    1    6    6    0  503 -0.19914393741E+03 -0.15114886634E+03  0.55083901862E+03  0.60491975670E+03  0.00000000000E+00 0.  1.
<mgrwt>
<rscale>  0 0.12944072E+04</rscale>
<asrwt>0</asrwt>
<pdfrwt beam="1">  1        1 0.19261474E+00 0.12944072E+04</pdfrwt>
<pdfrwt beam="2">  1       -2 0.51471352E-01 0.12944072E+04</pdfrwt>
<totfact> 0.30108243E+01</totfact>
</mgrwt>
</event>
<event>
12    4  0.4413110E-008  0.1923722E+04  0.7818608E-02  0.8643138E-01
          1   -1    0    0  501    0  0.00000000000E+00  0.00000000000E+00  0.15531378466E+04  0.15531378466E+04  0.00000000000E+00 0. -1.
         -2   -1    0    0    0  501 -0.00000000000E+00 -0.00000000000E+00 -0.59568246271E+03  0.59568246271E+03  0.00000000000E+00 0.  1.
        -24    2    1    2    0    0 -0.44245688886E+03  0.38041958662E+03 -0.15114981119E+03  0.60820215465E+03  0.81095222520E+02 0.  0.
        254    2    1    2    0    0  0.44245688886E+03 -0.38041958662E+03  0.11086051950E+04  0.15406181546E+04  0.89666697247E+03 0.  0.
         23    2    4    4    0    0  0.58088684585E+03  0.60074991828E+02  0.70990644252E+03  0.92364350911E+03  0.90064657189E+02 0.  0.
         23    2    4    4    0    0 -0.13842995698E+03 -0.44049457845E+03  0.39869875251E+03  0.61697464551E+03  0.92188346964E+02 0.  0.
          3    1    3    3  502    0 -0.25603117414E+02  0.47094486324E+02 -0.27864510974E+02  0.60413915907E+02  0.00000000000E+00 0. -1.
         -4    1    3    3    0  502 -0.41685377145E+03  0.33332510029E+03 -0.12328530021E+03  0.54778823874E+03  0.00000000000E+00 0.  1.
         11    1    5    5    0    0  0.56463161550E+03  0.65690493606E+02  0.66102310379E+03  0.87182317353E+03  0.00000000000E+00 0.  1.
        -11    1    5    5    0    0  0.16255230348E+02 -0.56155017778E+01  0.48883338730E+02  0.51820335577E+02  0.00000000000E+00 0. -1.
          1    1    6    6  503    0 -0.10982403560E+03 -0.19594762175E+03  0.19187484234E+03  0.29541960732E+03  0.00000000000E+00 0. -1.
         -1    1    6    6    0  503 -0.28605921384E+02 -0.24454695669E+03  0.20682391017E+03  0.32155503819E+03  0.00000000000E+00 0.  1.
<mgrwt>
<rscale>  0 0.19237224E+04</rscale>
<asrwt>0</asrwt>
<pdfrwt beam="1">  1        1 0.23894428E+00 0.19237224E+04</pdfrwt>
<pdfrwt beam="2">  1       -2 0.91643456E-01 0.19237224E+04</pdfrwt>
<totfact> 0.49923364E+00</totfact>
</mgrwt>
</event>
<event>
12    4  0.4413110E-008  0.3075354E+04  0.7818608E-02  0.8222535E-01
         -2   -1    0    0    0  501 -0.00000000000E+00  0.00000000000E+00  0.13360516185E+04  0.13360516185E+04  0.00000000000E+00 0.  1.
          1   -1    0    0  501    0  0.00000000000E+00 -0.00000000000E+00 -0.17697295475E+04  0.17697295475E+04  0.00000000000E+00 0. -1.
        -24    2    1    2    0    0  0.85327545057E+02  0.93659319095E+02  0.12137713675E+04  0.12229529583E+04  0.79499356343E+02 0.  0.
        254    2    1    2    0    0 -0.85327545057E+02 -0.93659319095E+02 -0.16474492965E+04  0.18828282078E+04  0.90271812736E+03 0.  0.
         23    2    4    4    0    0  0.27097839450E+03 -0.32285329128E+03 -0.52319583922E+03  0.67780752217E+03  0.89585785465E+02 0.  0.
         23    2    4    4    0    0 -0.35630593955E+03  0.22919397218E+03 -0.11242534573E+04  0.12050206856E+04  0.92979659615E+02 0.  0.
          1    1    3    3  502    0 -0.22168949536E+01 -0.39777402994E+01  0.39006003094E+01  0.59959756419E+01  0.00000000000E+00 0. -1.
         -2    1    3    3    0  502  0.87544440011E+02  0.97637059395E+02  0.12098707671E+04  0.12169569826E+04  0.00000000000E+00 0.  1.
         11    1    5    5    0    0  0.20614821256E+03 -0.25930782414E+03 -0.34782118855E+03  0.48033031594E+03  0.00000000000E+00 0. -1.
        -11    1    5    5    0    0  0.64830181933E+02 -0.63545467138E+02 -0.17537465067E+03  0.19747720623E+03  0.00000000000E+00 0.  1.
          1    1    6    6  503    0 -0.31730158362E+03  0.21873414342E+03 -0.10707081937E+04  0.11379547251E+04  0.00000000000E+00 0. -1.
         -1    1    6    6    0  503 -0.39004355930E+02  0.10459828763E+02 -0.53545263594E+02  0.67065960461E+02  0.00000000000E+00 0.  1.
<mgrwt>
<rscale>  0 0.30753537E+04</rscale>
<asrwt>0</asrwt>
<pdfrwt beam="1">  1        1 0.27226608E+00 0.30753537E+04</pdfrwt>
<pdfrwt beam="2">  1       -2 0.20554640E+00 0.30753537E+04</pdfrwt>
<totfact> 0.38843377E-01</totfact>
</mgrwt>
</event>
<event>
12    4  0.4413110E-008  0.1723791E+04  0.7818608E-02  0.8747911E-01
          1   -1    0    0  501    0  0.00000000000E+00  0.00000000000E+00  0.70758370029E+03  0.70758370029E+03  0.00000000000E+00 0. -1.
         -2   -1    0    0    0  501 -0.00000000000E+00 -0.00000000000E+00 -0.10498600518E+04  0.10498600518E+04  0.00000000000E+00 0.  1.
        -24    2    1    2    0    0  0.45186393359E+03 -0.24073154311E+01 -0.56091129353E+03  0.72466318533E+03  0.79551513621E+02 0.  0.
        254    2    1    2    0    0 -0.45186393359E+03  0.24073154311E+01  0.21863494206E+03  0.10327805667E+04  0.90257833536E+03 0.  0.
         23    2    4    4    0    0  0.96903709583E+02 -0.25016876591E+03  0.30467736531E+03  0.41578662330E+03  0.89863667961E+02 0.  0.
         23    2    4    4    0    0 -0.54876764317E+03  0.25257608134E+03 -0.86042423251E+02  0.61699394342E+03  0.91310593905E+02 0.  0.
          3    1    3    3  502    0  0.10926256280E+03  0.32860474054E+02 -0.12824097810E+03  0.17165042048E+03  0.00000000000E+00 0. -1.
         -4    1    3    3    0  502  0.34260137078E+03 -0.35267789485E+02 -0.43267031543E+03  0.55301276485E+03  0.00000000000E+00 0.  1.
         11    1    5    5    0    0  0.11668520019E+02 -0.39360162978E+02  0.10657166459E+03  0.11420550110E+03  0.00000000000E+00 0.  1.
        -11    1    5    5    0    0  0.85235189564E+02 -0.21080860293E+03  0.19810570072E+03  0.30158112220E+03  0.00000000000E+00 0. -1.
          3    1    6    6  503    0 -0.48060621900E+03  0.25067908363E+03 -0.66876030187E+02  0.54616366057E+03  0.00000000000E+00 0. -1.
         -3    1    6    6    0  503 -0.68161424166E+02  0.18969977041E+01 -0.19166393064E+02  0.70830282844E+02  0.00000000000E+00 0.  1.
<mgrwt>
<rscale>  0 0.17237910E+04</rscale>
<asrwt>0</asrwt>
<pdfrwt beam="1">  1        1 0.10885903E+00 0.17237910E+04</pdfrwt>
<pdfrwt beam="2">  1       -2 0.16151693E+00 0.17237910E+04</pdfrwt>
<totfact> 0.54681029E+00</totfact>
</mgrwt>
</event>
<event>
12    4  0.4413110E-008  0.3463822E+04  0.7818608E-02  0.8122418E-01
          1   -1    0    0  501    0  0.00000000000E+00  0.00000000000E+00  0.17865528098E+04  0.17865528098E+04  0.00000000000E+00 0. -1.
         -2   -1    0    0    0  501 -0.00000000000E+00 -0.00000000000E+00 -0.16789399398E+04  0.16789399398E+04  0.00000000000E+00 0.  1.
        -24    2    1    2    0    0 -0.15262920646E+04 -0.36801734101E+03 -0.32296111126E+03  0.16049677130E+04  0.81321896354E+02 0.  0.
        254    2    1    2    0    0  0.15262920646E+04  0.36801734101E+03  0.43057398125E+03  0.18605250366E+04  0.90064156507E+03 0.  0.
         23    2    4    4    0    0  0.12257559899E+04  0.59009237856E+03  0.12532667741E+03  0.13691529822E+04  0.90478454469E+02 0.  0.
         23    2    4    4    0    0  0.30053607471E+03 -0.22207503755E+03  0.30524730384E+03  0.49137205436E+03  0.92904923452E+02 0.  0.
          3    1    3    3  502    0 -0.24159483164E+03 -0.39071959469E+02 -0.73829875319E+02  0.25562771990E+03  0.00000000000E+00 0. -1.
         -4    1    3    3    0  502 -0.12846972329E+04 -0.32894538154E+03 -0.24913123594E+03  0.13493399931E+04  0.00000000000E+00 0.  1.
         11    1    5    5    0    0  0.11104771485E+04  0.54926710904E+03  0.91499662460E+02  0.12422664942E+04  0.00000000000E+00 0.  1.
        -11    1    5    5    0    0  0.11527884132E+03  0.40825269515E+02  0.33827014954E+02  0.12688648796E+03  0.00000000000E+00 0. -1.
          2    1    6    6  503    0  0.72899063339E+02 -0.33091225310E+02  0.25046415122E+02  0.83884596552E+02  0.00000000000E+00 0. -1.
         -2    1    6    6    0  503  0.22763701137E+03 -0.18898381224E+03  0.28020088871E+03  0.40748745780E+03  0.00000000000E+00 0.  1.
<mgrwt>
<rscale>  0 0.34638215E+04</rscale>
<asrwt>0</asrwt>
<pdfrwt beam="1">  1        1 0.27485428E+00 0.34638215E+04</pdfrwt>
<pdfrwt beam="2">  1       -2 0.25829845E+00 0.34638215E+04</pdfrwt>
<totfact> 0.17100308E-01</totfact>
</mgrwt>
</event>
<event>
12    4  0.4413110E-008  0.1760137E+04  0.7818608E-02  0.8727790E-01
          1   -1    0    0  501    0  0.00000000000E+00  0.00000000000E+00  0.49278829958E+03  0.49278829958E+03  0.00000000000E+00 0. -1.
         -2   -1    0    0    0  501 -0.00000000000E+00 -0.00000000000E+00 -0.15717106028E+04  0.15717106028E+04  0.00000000000E+00 0.  1.
        -24    2    1    2    0    0 -0.26178431760E+03  0.51548585861E+02  0.29155573999E+03  0.40328367126E+03  0.80278791348E+02 0.  0.
        254    2    1    2    0    0  0.26178431760E+03 -0.51548585861E+02 -0.13704780433E+04  0.16612152312E+04  0.90013204118E+03 0.  0.
         23    2    4    4    0    0  0.57814179934E+03 -0.46806958593E+02 -0.69238623044E+03  0.90762663095E+03  0.89154795639E+02 0.  0.
         23    2    4    4    0    0 -0.31635748174E+03 -0.47416272684E+01 -0.67809181282E+03  0.75358860022E+03  0.89346138641E+02 0.  0.
          3    1    3    3  502    0 -0.21145994179E+03  0.35792676896E+02  0.18038958339E+03  0.28024422294E+03  0.00000000000E+00 0. -1.
         -4    1    3    3    0  502 -0.50324375814E+02  0.15755908965E+02  0.11116615660E+03  0.12303944832E+03  0.00000000000E+00 0.  1.
         11    1    5    5    0    0  0.62904694295E+02 -0.33847918774E+02 -0.86205554201E+02  0.11195570439E+03  0.00000000000E+00 0. -1.
        -11    1    5    5    0    0  0.51523710504E+03 -0.12959039818E+02 -0.60618067624E+03  0.79567092656E+03  0.00000000000E+00 0.  1.
          3    1    6    6  503    0 -0.87467526842E+02  0.37297754568E+02 -0.17139614572E+03  0.19600594255E+03  0.00000000000E+00 0. -1.
         -3    1    6    6    0  503 -0.22888995490E+03 -0.42039381836E+02 -0.50669566709E+03  0.55758265766E+03  0.00000000000E+00 0.  1.
<mgrwt>
<rscale>  0 0.17601370E+04</rscale>
<asrwt>0</asrwt>
<pdfrwt beam="1">  1        1 0.75813586E-01 0.17601370E+04</pdfrwt>
<pdfrwt beam="2">  1       -2 0.24180163E+00 0.17601370E+04</pdfrwt>
<totfact> 0.27040317E+00</totfact>
</mgrwt>
</event>
<event>
12    4  0.4413110E-008  0.1289501E+04  0.7818608E-02  0.9037933E-01
          1   -1    0    0  501    0  0.00000000000E+00  0.00000000000E+00  0.33904157923E+03  0.33904157923E+03  0.00000000000E+00 0. -1.
         -2   -1    0    0    0  501 -0.00000000000E+00 -0.00000000000E+00 -0.12261123391E+04  0.12261123391E+04  0.00000000000E+00 0.  1.
        -24    2    1    2    0    0  0.24107215109E+03 -0.20453220538E+03 -0.94204608733E+02  0.33954997574E+03  0.80439248165E+02 0.  0.
        254    2    1    2    0    0 -0.24107215109E+03  0.20453220538E+03 -0.79286615111E+03  0.12256039426E+04  0.87949933790E+03 0.  0.
         23    2    4    4    0    0 -0.17353141886E+03 -0.26106431522E+03 -0.64685705889E+03  0.72484376708E+03  0.93309710270E+02 0.  0.
         23    2    4    4    0    0 -0.67540732235E+02  0.46559652060E+03 -0.14600909222E+03  0.50076017548E+03  0.90001265710E+02 0.  0.
          1    1    3    3  502    0  0.21569609531E+03 -0.19833381682E+03 -0.10502742589E+03  0.31127458716E+03  0.00000000000E+00 0. -1.
         -2    1    3    3    0  502  0.25376055782E+02 -0.61983885660E+01  0.10822817153E+02  0.28275388573E+02  0.00000000000E+00 0.  1.
         11    1    5    5    0    0 -0.16140061468E+03 -0.19702467472E+03 -0.56833550750E+03  0.62279541581E+03  0.00000000000E+00 0. -1.
        -11    1    5    5    0    0 -0.12130804181E+02 -0.64039640493E+02 -0.78521551386E+02  0.10204835127E+03  0.00000000000E+00 0.  1.
          1    1    6    6  503    0 -0.28917113409E+02  0.40607339016E+03 -0.11294721572E+03  0.42247943285E+03  0.00000000000E+00 0. -1.
         -1    1    6    6    0  503 -0.38623618826E+02  0.59523130438E+02 -0.33061876497E+02  0.78280742625E+02  0.00000000000E+00 0.  1.
<mgrwt>
<rscale>  0 0.12895008E+04</rscale>
<asrwt>0</asrwt>
<pdfrwt beam="1">  1        1 0.52160243E-01 0.12895008E+04</pdfrwt>
<pdfrwt beam="2">  1       -2 0.18863267E+00 0.12895008E+04</pdfrwt>
<totfact> 0.10142196E+01</totfact>
</mgrwt>
</event>
<event>
12    4  0.4413110E-008  0.2352412E+04  0.7818608E-02  0.8457538E-01
          1   -1    0    0  501    0  0.00000000000E+00  0.00000000000E+00  0.66956427542E+03  0.66956427542E+03  0.00000000000E+00 0. -1.
         -2   -1    0    0    0  501 -0.00000000000E+00 -0.00000000000E+00 -0.20662108483E+04  0.20662108483E+04  0.00000000000E+00 0.  1.
        -24    2    1    2    0    0  0.43327145473E+03  0.24748339978E+03  0.41291805619E+03  0.65239101370E+03  0.78361514639E+02 0.  0.
        254    2    1    2    0    0 -0.43327145473E+03 -0.24748339978E+03 -0.18095646291E+04  0.20833841100E+04  0.90387666001E+03 0.  0.
         23    2    4    4    0    0 -0.10218773965E+03 -0.17295952298E+03 -0.17009980815E+04  0.17152168436E+04  0.90647760880E+02 0.  0.
         23    2    4    4    0    0 -0.33108371508E+03 -0.74523876798E+02 -0.10856654757E+03  0.36816726644E+03  0.92683365407E+02 0.  0.
          3    1    3    3  502    0  0.35121070372E+03  0.16358835548E+03  0.30744392244E+03  0.49460274353E+03  0.00000000000E+00 0. -1.
         -4    1    3    3    0  502  0.82060751011E+02  0.83895044302E+02  0.10547413374E+03  0.15778827017E+03  0.00000000000E+00 0.  1.
         11    1    5    5    0    0 -0.17973419491E+02 -0.63129088165E+02 -0.28450377221E+03  0.29197726279E+03  0.00000000000E+00 0.  1.
        -11    1    5    5    0    0 -0.84214320159E+02 -0.10983043482E+03 -0.14164943093E+04  0.14232395808E+04  0.00000000000E+00 0. -1.
          1    1    6    6  503    0 -0.25532033321E+03 -0.71691175740E+02 -0.12072793549E+03  0.29138176271E+03  0.00000000000E+00 0. -1.
         -1    1    6    6    0  503 -0.75763381867E+02 -0.28327010578E+01  0.12161387923E+02  0.76785503732E+02  0.00000000000E+00 0.  1.
<mgrwt>
<rscale>  0 0.23524124E+04</rscale>
<asrwt>0</asrwt>
<pdfrwt beam="1">  1        1 0.10300989E+00 0.23524124E+04</pdfrwt>
<pdfrwt beam="2">  1       -2 0.31787859E+00 0.23524124E+04</pdfrwt>
<totfact> 0.56731768E-01</totfact>
</mgrwt>
</event>
<event>
12    4  0.4413110E-008  0.1893790E+04  0.7818608E-02  0.8657954E-01
          1   -1    0    0  501    0  0.00000000000E+00  0.00000000000E+00  0.12642715514E+04  0.12642715514E+04  0.00000000000E+00 0. -1.
         -2   -1    0    0    0  501 -0.00000000000E+00 -0.00000000000E+00 -0.70919120889E+03  0.70919120889E+03  0.00000000000E+00 0.  1.
        -24    2    1    2    0    0 -0.53611352333E+03  0.42087490380E+03 -0.58989015167E+02  0.68871071566E+03  0.79305431135E+02 0.  0.
        254    2    1    2    0    0  0.53611352333E+03 -0.42087490380E+03  0.61406935769E+03  0.12847520446E+04  0.89941828179E+03 0.  0.
         23    2    4    4    0    0  0.76416621340E+03 -0.37204710378E+03  0.35579133472E+03  0.92602072508E+03  0.92508703877E+02 0.  0.
         23    2    4    4    0    0 -0.22805269006E+03 -0.48827800026E+02  0.25827802297E+03  0.35873131956E+03  0.87111646656E+02 0.  0.
          3    1    3    3  502    0 -0.90847688690E+02  0.51338662496E+02  0.14781658516E+02  0.10539192680E+03  0.00000000000E+00 0. -1.
         -4    1    3    3    0  502 -0.44526583464E+03  0.36953624131E+03 -0.73770673683E+02  0.58331878886E+03  0.00000000000E+00 0.  1.
         11    1    5    5    0    0  0.14870543882E+03 -0.90377041092E+02  0.11027853521E+03  0.20601619456E+03  0.00000000000E+00 0. -1.
        -11    1    5    5    0    0  0.61546077457E+03 -0.28167006269E+03  0.24551279951E+03  0.72000453053E+03  0.00000000000E+00 0.  1.
          1    1    6    6  503    0 -0.12849613436E+03 -0.46673829976E+02  0.91561852345E+02  0.16453958719E+03  0.00000000000E+00 0. -1.
         -1    1    6    6    0  503 -0.99556555709E+02 -0.21539700500E+01  0.16671617063E+03  0.19419173237E+03  0.00000000000E+00 0.  1.
<mgrwt>
<rscale>  0 0.18937901E+04</rscale>
<asrwt>0</asrwt>
<pdfrwt beam="1">  1        1 0.19450332E+00 0.18937901E+04</pdfrwt>
<pdfrwt beam="2">  1       -2 0.10910634E+00 0.18937901E+04</pdfrwt>
<totfact> 0.52813464E+00</totfact>
</mgrwt>
</event>
<event>
12    4  0.4413110E-008  0.2832242E+04  0.7818608E-02  0.8293328E-01
         -2   -1    0    0    0  501 -0.00000000000E+00  0.00000000000E+00  0.89522934408E+03  0.89522934408E+03  0.00000000000E+00 0.  1.
          1   -1    0    0  501    0  0.00000000000E+00 -0.00000000000E+00 -0.22400941780E+04  0.22400941780E+04  0.00000000000E+00 0. -1.
        -24    2    1    2    0    0 -0.83201685558E+03 -0.34088595490E+03 -0.16106988097E+04  0.18464045090E+04  0.80022954333E+02 0.  0.
        254    2    1    2    0    0  0.83201685558E+03  0.34088595490E+03  0.26583397576E+03  0.12889190131E+04  0.88441462976E+03 0.  0.
         23    2    4    4    0    0  0.26172753564E+03  0.11606995515E+02  0.51024398429E+03  0.58061286618E+03  0.90146278965E+02 0.  0.
         23    2    4    4    0    0  0.57028931995E+03  0.32927895938E+03 -0.24441000854E+03  0.70830614688E+03  0.91141669363E+02 0.  0.
          1    1    3    3  502    0 -0.70115462547E+03 -0.31652712721E+03 -0.13559872939E+04  0.15590089070E+04  0.00000000000E+00 0. -1.
         -2    1    3    3    0  502 -0.13086223012E+03 -0.24358827689E+02 -0.25471151583E+03  0.28739560201E+03  0.00000000000E+00 0.  1.
         11    1    5    5    0    0  0.72167769843E+02 -0.76447791200E+01  0.69658311934E+02  0.10059279335E+03  0.00000000000E+00 0.  1.
        -11    1    5    5    0    0  0.18955976579E+03  0.19251774635E+02  0.44058567236E+03  0.48002007283E+03  0.00000000000E+00 0. -1.
          1    1    6    6  503    0  0.38158872738E+03  0.17047972838E+03 -0.14458850084E+03  0.44224329189E+03  0.00000000000E+00 0. -1.
         -1    1    6    6    0  503  0.18870059257E+03  0.15879923100E+03 -0.99821507696E+02  0.26606285498E+03  0.00000000000E+00 0.  1.
<mgrwt>
<rscale>  0 0.28322415E+04</rscale>
<asrwt>0</asrwt>
<pdfrwt beam="1">  1        1 0.34462987E+00 0.28322415E+04</pdfrwt>
<pdfrwt beam="2">  1       -2 0.13772759E+00 0.28322415E+04</pdfrwt>
<totfact> 0.58182335E-01</totfact>
</mgrwt>
</event>
<event>
12    4  0.4413110E-008  0.1725870E+04  0.7818608E-02  0.8746746E-01
          1   -1    0    0  501    0  0.00000000000E+00  0.00000000000E+00  0.14497159903E+04  0.14497159903E+04  0.00000000000E+00 0. -1.
         -2   -1    0    0    0  501 -0.00000000000E+00 -0.00000000000E+00 -0.51365709324E+03  0.51365709324E+03  0.00000000000E+00 0.  1.
        -24    2    1    2    0    0  0.25467231553E+02 -0.12751401404E+03 -0.35340306689E+03  0.38421059297E+03  0.76260398635E+02 0.  0.
        254    2    1    2    0    0 -0.25467231553E+02  0.12751401404E+03  0.12894619639E+04  0.15791624905E+04  0.90229352846E+03 0.  0.
         23    2    4    4    0    0 -0.23761992251E+03 -0.32029350619E+03  0.56571704890E+03  0.69763111493E+03  0.87190798946E+02 0.  0.
         23    2    4    4    0    0  0.21215269096E+03  0.44780752024E+03  0.72374491502E+03  0.88153137562E+03  0.88037064464E+02 0.  0.
          1    1    3    3  502    0  0.27779418882E+02 -0.54964949297E+01 -0.56341907038E+02  0.63058053083E+02  0.00000000000E+00 0. -1.
         -2    1    3    3    0  502 -0.23121873297E+01 -0.12201751911E+03 -0.29706115985E+03  0.32115253988E+03  0.00000000000E+00 0.  1.
         11    1    5    5    0    0 -0.18651658363E+03 -0.28101526257E+03  0.42277654133E+03  0.54083085865E+03  0.00000000000E+00 0.  1.
        -11    1    5    5    0    0 -0.51103338883E+02 -0.39278243627E+02  0.14294050756E+03  0.15680025628E+03  0.00000000000E+00 0. -1.
          3    1    6    6  503    0  0.88959273900E+02  0.18391647751E+03  0.22444273190E+03  0.30350216312E+03  0.00000000000E+00 0. -1.
         -3    1    6    6    0  503  0.12319341705E+03  0.26389104272E+03  0.49930218312E+03  0.57802921250E+03  0.00000000000E+00 0.  1.
<mgrwt>
<rscale>  0 0.17258701E+04</rscale>
<asrwt>0</asrwt>
<pdfrwt beam="1">  1        1 0.22303323E+00 0.17258701E+04</pdfrwt>
<pdfrwt beam="2">  1       -2 0.79024169E-01 0.17258701E+04</pdfrwt>
<totfact> 0.83950024E+00</totfact>
</mgrwt>
</event>
<event>
12    4  0.4413110E-008  0.3083986E+04  0.7818608E-02  0.8220147E-01
          1   -1    0    0  501    0  0.00000000000E+00  0.00000000000E+00  0.13904891857E+04  0.13904891857E+04  0.00000000000E+00 0. -1.
         -2   -1    0    0    0  501 -0.00000000000E+00 -0.00000000000E+00 -0.17100042180E+04  0.17100042180E+04  0.00000000000E+00 0.  1.
        -24    2    1    2    0    0  0.65103549435E+03  0.13850497587E+03  0.11027094908E+04  0.12904740502E+04  0.79524901543E+02 0.  0.
        254    2    1    2    0    0 -0.65103549435E+03 -0.13850497587E+03 -0.14222245231E+04  0.18100193534E+04  0.90023142717E+03 0.  0.
         23    2    4    4    0    0 -0.24415188814E+02 -0.29349746988E+03 -0.81205554098E+02  0.31889933650E+03  0.91463536631E+02 0.  0.
         23    2    4    4    0    0 -0.62662030554E+03  0.15499249401E+03 -0.13410189690E+04  0.14911200169E+04  0.91822378474E+02 0.  0.
          1    1    3    3  502    0  0.54606744996E+03  0.13268190384E+03  0.97174421498E+03  0.11225332810E+04  0.00000000000E+00 0. -1.
         -2    1    3    3    0  502  0.10496804439E+03  0.58230720300E+01  0.13096527578E+03  0.16794076923E+03  0.00000000000E+00 0.  1.
         11    1    5    5    0    0 -0.82397274694E+01  0.42503986271E+01 -0.70018805785E+01  0.11618318678E+02  0.00000000000E+00 0. -1.
        -11    1    5    5    0    0 -0.16175461344E+02 -0.29774786851E+03 -0.74203673520E+02  0.30728101782E+03  0.00000000000E+00 0.  1.
          4    1    6    6  503    0 -0.19204863981E+03  0.88041073920E+02 -0.39661484689E+03  0.44937428445E+03  0.00000000000E+00 0. -1.
         -4    1    6    6    0  503 -0.43457166573E+03  0.66951420090E+02 -0.94440412211E+03  0.10417457325E+04  0.00000000000E+00 0.  1.
<mgrwt>
<rscale>  0 0.30839860E+04</rscale>
<asrwt>0</asrwt>
<pdfrwt beam="1">  1        1 0.21392141E+00 0.30839860E+04</pdfrwt>
<pdfrwt beam="2">  1       -2 0.26307757E+00 0.30839860E+04</pdfrwt>
<totfact> 0.30928158E-01</totfact>
</mgrwt>
</event>
<event>
12    4  0.4413110E-008  0.1961017E+04  0.7818608E-02  0.8625066E-01
         -2   -1    0    0    0  501 -0.00000000000E+00  0.00000000000E+00  0.64337124812E+03  0.64337124812E+03  0.00000000000E+00 0.  1.
          1   -1    0    0  501    0  0.00000000000E+00 -0.00000000000E+00 -0.14943116518E+04  0.14943116518E+04  0.00000000000E+00 0. -1.
        -24    2    1    2    0    0  0.16243318567E+03 -0.55634536598E+03  0.21647038769E+03  0.62446484213E+03  0.84806864428E+02 0.  0.
        254    2    1    2    0    0 -0.16243318567E+03  0.55634536598E+03 -0.10674107914E+04  0.15132180578E+04  0.90252888421E+03 0.  0.
         23    2    4    4    0    0  0.20144760077E+02 -0.23576221949E+03 -0.27831363807E+03  0.37665853179E+03  0.91779806819E+02 0.  0.
         23    2    4    4    0    0 -0.18257794574E+03  0.79210758548E+03 -0.78909715330E+03  0.11365595260E+04  0.91236536252E+02 0.  0.
          1    1    3    3  502    0 -0.57829116115E+01 -0.19380079371E+02 -0.30702143812E+01  0.20456191226E+02  0.00000000000E+00 0. -1.
         -2    1    3    3    0  502  0.16821609728E+03 -0.53696528661E+03  0.21954060207E+03  0.60400865091E+03  0.00000000000E+00 0.  1.
         11    1    5    5    0    0  0.93275603792E+01 -0.23294593632E+03 -0.23156710257E+03  0.32859418075E+03  0.00000000000E+00 0. -1.
        -11    1    5    5    0    0  0.10817199697E+02 -0.28162831719E+01 -0.46746535493E+02  0.48064351039E+02  0.00000000000E+00 0.  1.
          2    1    6    6  503    0 -0.15051525248E+03  0.71972301359E+03 -0.74111396180E+03  0.10439856138E+04  0.00000000000E+00 0. -1.
         -2    1    6    6    0  503 -0.32062693260E+02  0.72384571888E+02 -0.47983191499E+02  0.92573912162E+02  0.00000000000E+00 0.  1.
<mgrwt>
<rscale>  0 0.19610172E+04</rscale>
<asrwt>0</asrwt>
<pdfrwt beam="1">  1        1 0.22989410E+00 0.19610172E+04</pdfrwt>
<pdfrwt beam="2">  1       -2 0.98980193E-01 0.19610172E+04</pdfrwt>
<totfact> 0.45638980E+00</totfact>
</mgrwt>
</event>
<event>
12    4  0.4413110E-008  0.2362755E+04  0.7818608E-02  0.8453581E-01
         -2   -1    0    0    0  501 -0.00000000000E+00  0.00000000000E+00  0.83577754772E+03  0.83577754772E+03  0.00000000000E+00 0.  1.
          1   -1    0    0  501    0  0.00000000000E+00 -0.00000000000E+00 -0.16698855300E+04  0.16698855300E+04  0.00000000000E+00 0. -1.
        -24    2    1    2    0    0 -0.73359787672E+03 -0.31145546147E+03  0.29665187174E+03  0.85443445902E+03  0.82979289853E+02 0.  0.
        254    2    1    2    0    0  0.73359787672E+03  0.31145546147E+03 -0.11307598540E+04  0.16512286187E+04  0.90153633011E+03 0.  0.
         23    2    4    4    0    0  0.12404196203E+03  0.51088984155E+03 -0.35887601158E+03  0.64309058994E+03  0.91535111525E+02 0.  0.
         23    2    4    4    0    0  0.60955591469E+03 -0.19943438008E+03 -0.77188384241E+03  0.10081380287E+04  0.95943388028E+02 0.  0.
          3    1    3    3  502    0 -0.29630630340E+02 -0.30863979607E+01 -0.21013632971E+01  0.29864959976E+02  0.00000000000E+00 0. -1.
         -2    1    3    3    0  502 -0.70396724638E+03 -0.30836906351E+03  0.29875323503E+03  0.82456949904E+03  0.00000000000E+00 0.  1.
         11    1    5    5    0    0  0.20921280855E+02  0.18332239965E+03 -0.17137736973E+03  0.25182336083E+03  0.00000000000E+00 0.  1.
        -11    1    5    5    0    0  0.10312068118E+03  0.32756744190E+03 -0.18749864185E+03  0.39126722911E+03  0.00000000000E+00 0. -1.
          2    1    6    6  503    0  0.29195015732E+03 -0.72685798489E+02 -0.42803456509E+03  0.52319375815E+03  0.00000000000E+00 0. -1.
         -2    1    6    6    0  503  0.31760575737E+03 -0.12674858159E+03 -0.34384927732E+03  0.48494427058E+03  0.00000000000E+00 0.  1.
<mgrwt>
<rscale>  0 0.23627550E+04</rscale>
<asrwt>0</asrwt>
<pdfrwt beam="1">  1        1 0.25690547E+00 0.23627550E+04</pdfrwt>
<pdfrwt beam="2">  1       -2 0.12858116E+00 0.23627550E+04</pdfrwt>
<totfact> 0.17619111E+00</totfact>
</mgrwt>
</event>
<event>
12    4  0.4413110E-008  0.2263047E+04  0.7818608E-02  0.8492635E-01
          1   -1    0    0  501    0  0.00000000000E+00  0.00000000000E+00  0.10716280771E+04  0.10716280771E+04  0.00000000000E+00 0. -1.
         -2   -1    0    0    0  501 -0.00000000000E+00 -0.00000000000E+00 -0.11947671229E+04  0.11947671229E+04  0.00000000000E+00 0.  1.
        -24    2    1    2    0    0  0.91757255874E+03  0.21623169875E+03 -0.86847137364E+01  0.94605542346E+03  0.79056257828E+02 0.  0.
        254    2    1    2    0    0 -0.91757255874E+03 -0.21623169875E+03 -0.11445433202E+03  0.13203397765E+04  0.91733406302E+03 0.  0.
         23    2    4    4    0    0  0.52230954517E+02  0.20229679595E+03 -0.12578166738E+03  0.25943107348E+03  0.88495128544E+02 0.  0.
         23    2    4    4    0    0 -0.96980351326E+03 -0.41852849470E+03  0.11327335358E+02  0.10609087030E+04  0.98559689604E+02 0.  0.
          1    1    3    3  502    0  0.74512848581E+03  0.19032915973E+03  0.20110431423E+02  0.76931533123E+03  0.00000000000E+00 0. -1.
         -2    1    3    3    0  502  0.17244407293E+03  0.25902539017E+02 -0.28795145160E+02  0.17674009223E+03  0.00000000000E+00 0.  1.
         11    1    5    5    0    0 -0.16863991077E+02  0.10377627807E+03 -0.73200249670E+02  0.12811005673E+03  0.00000000000E+00 0.  1.
        -11    1    5    5    0    0  0.69094945594E+02  0.98520517883E+02 -0.52581417706E+02  0.13132101674E+03  0.00000000000E+00 0. -1.
          3    1    6    6  503    0 -0.74737540854E+03 -0.27958960820E+03  0.24323649975E+02  0.79833075242E+03  0.00000000000E+00 0. -1.
         -3    1    6    6    0  503 -0.22242810472E+03 -0.13893888650E+03 -0.12996314617E+02  0.26257795061E+03  0.00000000000E+00 0.  1.
<mgrwt>
<rscale>  0 0.22630475E+04</rscale>
<asrwt>0</asrwt>
<pdfrwt beam="1">  1        1 0.16486586E+00 0.22630475E+04</pdfrwt>
<pdfrwt beam="2">  1       -2 0.18381033E+00 0.22630475E+04</pdfrwt>
<totfact> 0.18084338E+00</totfact>
</mgrwt>
</event>
<event>
12    4  0.4413110E-008  0.1319070E+04  0.7818608E-02  0.9014578E-01
         -2   -1    0    0    0  501 -0.00000000000E+00  0.00000000000E+00  0.48682514102E+03  0.48682514102E+03  0.00000000000E+00 0.  1.
          1   -1    0    0  501    0  0.00000000000E+00 -0.00000000000E+00 -0.89351610604E+03  0.89351610604E+03  0.00000000000E+00 0. -1.
        -24    2    1    2    0    0 -0.26749945572E+03 -0.14251020487E+03  0.32163517309E+02  0.31559408116E+03  0.81853618816E+02 0.  0.
        254    2    1    2    0    0  0.26749945572E+03  0.14251020487E+03 -0.43885448233E+03  0.10647471659E+04  0.92153575804E+03 0.  0.
         23    2    4    4    0    0  0.27014301956E+03  0.26921354897E+03 -0.67499045781E+03  0.78130844696E+03  0.96837932654E+02 0.  0.
         23    2    4    4    0    0 -0.26435638360E+01 -0.12670334410E+03  0.23613597547E+03  0.28343871895E+03  0.92285332790E+02 0.  0.
          3    1    3    3  502    0 -0.23749595219E+03 -0.99599043002E+02  0.73198388791E+01  0.25763904346E+03  0.00000000000E+00 0. -1.
         -4    1    3    3    0  502 -0.30003503534E+02 -0.42911161864E+02  0.24843678430E+02  0.57955037700E+02  0.00000000000E+00 0.  1.
         11    1    5    5    0    0  0.27078106979E+03  0.26747984865E+03 -0.67814327120E+03  0.77765426345E+03  0.00000000000E+00 0. -1.
        -11    1    5    5    0    0 -0.63805023301E+00  0.17337003210E+01  0.31528133886E+01  0.36541835157E+01  0.00000000000E+00 0.  1.
          2    1    6    6  503    0 -0.22644576984E+02 -0.12094622186E+03  0.14602648688E+03  0.19095680223E+03  0.00000000000E+00 0. -1.
         -2    1    6    6    0  503  0.20001013148E+02 -0.57571222386E+01  0.90109488598E+02  0.92481916713E+02  0.00000000000E+00 0.  1.
<mgrwt>
<rscale>  0 0.13190695E+04</rscale>
<asrwt>0</asrwt>
<pdfrwt beam="1">  1        1 0.13746401E+00 0.13190695E+04</pdfrwt>
<pdfrwt beam="2">  1       -2 0.74896177E-01 0.13190695E+04</pdfrwt>
<totfact> 0.25374543E+01</totfact>
</mgrwt>
</event>
<event>
12    4  0.4413110E-008  0.1333307E+04  0.7818608E-02  0.9003562E-01
         -2   -1    0    0    0  501 -0.00000000000E+00  0.00000000000E+00  0.26838846287E+03  0.26838846287E+03  0.00000000000E+00 0.  1.
          1   -1    0    0  501    0  0.00000000000E+00 -0.00000000000E+00 -0.16559084415E+04  0.16559084415E+04  0.00000000000E+00 0. -1.
        -24    2    1    2    0    0 -0.15196371809E+03 -0.18119349209E+03 -0.73906090093E+03  0.77984526860E+03  0.77611690376E+02 0.  0.
        254    2    1    2    0    0  0.15196371809E+03  0.18119349209E+03 -0.64845907768E+03  0.11444516357E+04  0.91287804111E+03 0.  0.
         23    2    4    4    0    0  0.50333826817E+03 -0.15630688421E+02 -0.46531397926E+03  0.69291943367E+03  0.10013247048E+03 0.  0.
         23    2    4    4    0    0 -0.35137455008E+03  0.19682418051E+03 -0.18314509842E+03  0.45153220207E+03  0.90196285679E+02 0.  0.
          1    1    3    3  502    0 -0.12862534079E+03 -0.17294027539E+03 -0.70827073585E+03  0.74033793122E+03  0.00000000000E+00 0. -1.
         -2    1    3    3    0  502 -0.23338377304E+02 -0.82532167043E+01 -0.30790165080E+02  0.39507337379E+02  0.00000000000E+00 0.  1.
         11    1    5    5    0    0  0.42061202413E+03  0.16421561799E+02 -0.35005212613E+03  0.54746747259E+03  0.00000000000E+00 0.  1.
        -11    1    5    5    0    0  0.82726244046E+02 -0.32052250220E+02 -0.11526185313E+03  0.14545196109E+03  0.00000000000E+00 0. -1.
          1    1    6    6  503    0 -0.89623784578E-01  0.11733628159E+02  0.42356926270E+01  0.12475061292E+02  0.00000000000E+00 0. -1.
         -1    1    6    6    0  503 -0.35128492630E+03  0.18509055235E+03 -0.18738079105E+03  0.43905714078E+03  0.00000000000E+00 0.  1.
<mgrwt>
<rscale>  0 0.13333067E+04</rscale>
<asrwt>0</asrwt>
<pdfrwt beam="1">  1        1 0.25475515E+00 0.13333067E+04</pdfrwt>
<pdfrwt beam="2">  1       -2 0.41290532E-01 0.13333067E+04</pdfrwt>
<totfact> 0.24417710E+01</totfact>
</mgrwt>
</event>
<event>
12    4  0.4413110E-008  0.3088976E+04  0.7818608E-02  0.8218770E-01
         -4   -1    0    0    0  501 -0.00000000000E+00  0.00000000000E+00  0.63507643454E+03  0.63507643454E+03  0.00000000000E+00 0.  1.
          3   -1    0    0  501    0  0.00000000000E+00 -0.00000000000E+00 -0.37561524864E+04  0.37561524864E+04  0.00000000000E+00 0. -1.
        -24    2    1    2    0    0  0.20234641036E+02  0.13382843076E+04 -0.80916337049E+03  0.15661150646E+04  0.80973493389E+02 0.  0.
        254    2    1    2    0    0 -0.20234641036E+02 -0.13382843076E+04 -0.23119126814E+04  0.28251138563E+04  0.91919188756E+03 0.  0.
         23    2    4    4    0    0 -0.25821544953E+03 -0.50811093649E+03 -0.16045674272E+04  0.17051698135E+04  0.90086194943E+02 0.  0.
         23    2    4    4    0    0  0.23798080850E+03 -0.83017337116E+03 -0.70734525422E+03  0.11199440428E+04  0.90081401844E+02 0.  0.
          3    1    3    3  502    0 -0.19131123618E+02  0.10515494126E+03 -0.72760206061E+02  0.12929659373E+03  0.00000000000E+00 0. -1.
         -4    1    3    3    0  502  0.39365764654E+02  0.12331293664E+04 -0.73640316443E+03  0.14368184709E+04  0.00000000000E+00 0.  1.
         11    1    5    5    0    0 -0.21774516695E+03 -0.41381418029E+03 -0.12025840576E+04  0.12902959154E+04  0.00000000000E+00 0.  1.
        -11    1    5    5    0    0 -0.40470282589E+02 -0.94296756195E+02 -0.40198336954E+03  0.41487389817E+03  0.00000000000E+00 0. -1.
          2    1    6    6  503    0  0.19643347954E+03 -0.64468558598E+03 -0.50376827939E+03  0.84142028498E+03  0.00000000000E+00 0.  1.
         -2    1    6    6    0  503  0.41547328963E+02 -0.18548778518E+03 -0.20357697483E+03  0.27852375783E+03  0.00000000000E+00 0. -1.
<mgrwt>
<rscale>  0 0.30889765E+04</rscale>
<asrwt>0</asrwt>
<pdfrwt beam="1">  1        3 0.57786960E+00 0.30889765E+04</pdfrwt>
<pdfrwt beam="2">  1       -4 0.97704069E-01 0.30889765E+04</pdfrwt>
<totfact> 0.24445039E-03</totfact>
</mgrwt>
</event>
<event>
12    4  0.4413110E-008  0.1935914E+04  0.7818608E-02  0.8637183E-01
          1   -1    0    0  501    0  0.00000000000E+00  0.00000000000E+00  0.80242153960E+03  0.80242153960E+03  0.00000000000E+00 0. -1.
         -2   -1    0    0    0  501 -0.00000000000E+00 -0.00000000000E+00 -0.11676419642E+04  0.11676419642E+04  0.00000000000E+00 0.  1.
        -24    2    1    2    0    0 -0.75618659324E+02  0.97547860811E+02 -0.90820392921E+03  0.92074690117E+03  0.87787881861E+02 0.  0.
        254    2    1    2    0    0  0.75618659324E+02 -0.97547860811E+02  0.54298350465E+03  0.10493166026E+04  0.88938207727E+03 0.  0.
         23    2    4    4    0    0  0.26923788234E+03 -0.29404341508E+03 -0.26754447276E+02  0.40967312601E+03  0.90364276618E+02 0.  0.
         23    2    4    4    0    0 -0.19361922302E+03  0.19649555427E+03  0.56973795192E+03  0.63964347658E+03  0.91888720174E+02 0.  0.
          3    1    3    3  502    0 -0.77785728577E+02  0.66033705497E+02 -0.44855246876E+03  0.46001129015E+03  0.00000000000E+00 0. -1.
         -4    1    3    3    0  502  0.21670692535E+01  0.31514155314E+02 -0.45965146045E+03  0.46073561103E+03  0.00000000000E+00 0.  1.
         11    1    5    5    0    0  0.20855888841E+03 -0.16822695399E+03 -0.28936286251E+01  0.26796546619E+03  0.00000000000E+00 0. -1.
        -11    1    5    5    0    0  0.60678993929E+02 -0.12581646109E+03 -0.23860818651E+02  0.14170765982E+03  0.00000000000E+00 0.  1.
          3    1    6    6  503    0 -0.56916822495E+02  0.13815655311E+02  0.77926670726E+02  0.97483142261E+02  0.00000000000E+00 0. -1.
         -3    1    6    6    0  503 -0.13670240052E+03  0.18267989896E+03  0.49181128120E+03  0.54216033432E+03  0.00000000000E+00 0.  1.
<mgrwt>
<rscale>  0 0.19359143E+04</rscale>
<asrwt>0</asrwt>
<pdfrwt beam="1">  1        1 0.12344947E+00 0.19359143E+04</pdfrwt>
<pdfrwt beam="2">  1       -2 0.17963722E+00 0.19359143E+04</pdfrwt>
<totfact> 0.32777166E+00</totfact>
</mgrwt>
</event>
<event>
12    4  0.4413110E-008  0.1631396E+04  0.7818608E-02  0.8801489E-01
          1   -1    0    0  501    0  0.00000000000E+00  0.00000000000E+00  0.24057735853E+04  0.24057735853E+04  0.00000000000E+00 0. -1.
         -2   -1    0    0    0  501 -0.00000000000E+00 -0.00000000000E+00 -0.27656934532E+03  0.27656934532E+03  0.00000000000E+00 0.  1.
        -24    2    1    2    0    0  0.45149635094E+03  0.18339516962E+03  0.28026739173E+03  0.56774949285E+03  0.79416198645E+02 0.  0.
        254    2    1    2    0    0 -0.45149635094E+03 -0.18339516962E+03  0.18489368483E+04  0.21145934378E+04  0.90302557835E+03 0.  0.
         23    2    4    4    0    0 -0.29034335906E+02 -0.48509320222E+03  0.97058150476E+03  0.10892431608E+04  0.90905436774E+02 0.  0.
         23    2    4    4    0    0 -0.42246201504E+03  0.30169803260E+03  0.87835534353E+03  0.10253502770E+04  0.10168197519E+03 0.  0.
          3    1    3    3  502    0  0.44821984162E+02  0.23833128395E+02  0.59709327721E+02  0.78372393674E+02  0.00000000000E+00 0. -1.
         -4    1    3    3    0  502  0.40667436678E+03  0.15956204122E+03  0.22055806401E+03  0.48937709918E+03  0.00000000000E+00 0.  1.
         11    1    5    5    0    0 -0.82927256158E+01 -0.74248865168E+01  0.57385169627E+02  0.58454734034E+02  0.00000000000E+00 0. -1.
        -11    1    5    5    0    0 -0.20741610290E+02 -0.47766831571E+03  0.91319633513E+03  0.10307884268E+04  0.00000000000E+00 0.  1.
          4    1    6    6  503    0 -0.31329303449E+03  0.19971091340E+03  0.53985046639E+03  0.65534380325E+03  0.00000000000E+00 0.  1.
         -4    1    6    6    0  503 -0.10916898055E+03  0.10198711920E+03  0.33850487714E+03  0.37000647379E+03  0.00000000000E+00 0. -1.
<mgrwt>
<rscale>  0 0.16313960E+04</rscale>
<asrwt>0</asrwt>
<pdfrwt beam="1">  1        1 0.37011900E+00 0.16313960E+04</pdfrwt>
<pdfrwt beam="2">  1       -2 0.42549132E-01 0.16313960E+04</pdfrwt>
<totfact> 0.69374785E+00</totfact>
</mgrwt>
</event>
<event>
12    4  0.4413110E-008  0.1120609E+04  0.7818608E-02  0.9185334E-01
          1   -1    0    0  501    0  0.00000000000E+00  0.00000000000E+00  0.18699703959E+04  0.18699703959E+04  0.00000000000E+00 0. -1.
         -2   -1    0    0    0  501 -0.00000000000E+00 -0.00000000000E+00 -0.16788571231E+03  0.16788571231E+03  0.00000000000E+00 0.  1.
        -24    2    1    2    0    0 -0.72141044978E+02 -0.46122649676E+02  0.59676170181E+03  0.60908690162E+03  0.86779581630E+02 0.  0.
        254    2    1    2    0    0  0.72141044978E+02  0.46122649676E+02  0.11053229818E+04  0.14287692066E+04  0.90128293143E+03 0.  0.
         23    2    4    4    0    0 -0.89891037055E+02  0.36746564927E+03  0.17415331081E+03  0.42596410772E+03  0.89468673077E+02 0.  0.
         23    2    4    4    0    0  0.16203208203E+03 -0.32134299960E+03  0.93116967097E+03  0.10028050989E+04  0.95002058940E+02 0.  0.
          1    1    3    3  502    0 -0.82841661946E+02 -0.46854612283E+02  0.58673671753E+03  0.59440564545E+03  0.00000000000E+00 0. -1.
         -2    1    3    3    0  502  0.10700616968E+02  0.73196260699E+00  0.10024984284E+02  0.14681256167E+02  0.00000000000E+00 0.  1.
         11    1    5    5    0    0 -0.46995676056E+02  0.31455541015E+03  0.16143840446E+03  0.35667360157E+03  0.00000000000E+00 0.  1.
        -11    1    5    5    0    0 -0.42895361000E+02  0.52910239127E+02  0.12714906353E+02  0.69290506156E+02  0.00000000000E+00 0. -1.
          4    1    6    6  503    0  0.16710705115E+03 -0.29128614827E+03  0.89235674871E+03  0.95345317330E+03  0.00000000000E+00 0. -1.
         -4    1    6    6    0  503 -0.50749691178E+01 -0.30056851332E+02  0.38812922265E+02  0.49351925578E+02  0.00000000000E+00 0.  1.
<mgrwt>
<rscale>  0 0.11206093E+04</rscale>
<asrwt>0</asrwt>
<pdfrwt beam="1">  1        1 0.28768774E+00 0.11206093E+04</pdfrwt>
<pdfrwt beam="2">  1       -2 0.25828572E-01 0.11206093E+04</pdfrwt>
<totfact> 0.43194549E+01</totfact>
</mgrwt>
</event>
<event>
12    4  0.4413110E-008  0.2313740E+04  0.7818608E-02  0.8472523E-01
          1   -1    0    0  501    0  0.00000000000E+00  0.00000000000E+00  0.14089499947E+04  0.14089499947E+04  0.00000000000E+00 0. -1.
         -4   -1    0    0    0  501 -0.00000000000E+00 -0.00000000000E+00 -0.94989039601E+03  0.94989039601E+03  0.00000000000E+00 0.  1.
        -24    2    1    2    0    0  0.33477809000E+03 -0.80894226673E+03 -0.25263526280E+03  0.91421884149E+03  0.74212894277E+02 0.  0.
        254    2    1    2    0    0 -0.33477809000E+03  0.80894226673E+03  0.71169486144E+03  0.14446215492E+04  0.90219614503E+03 0.  0.
         23    2    4    4    0    0  0.75067711838E+02  0.25422846025E+03  0.69438725190E+03  0.74866382587E+03  0.89758549424E+02 0.  0.
         23    2    4    4    0    0 -0.40984580184E+03  0.55471380648E+03  0.17307609539E+02  0.69595772331E+03  0.91523826997E+02 0.  0.
          1    1    3    3  502    0  0.30541682352E+02 -0.32020869746E+02 -0.13182925770E+02  0.46172719132E+02  0.00000000000E+00 0. -1.
         -2    1    3    3    0  502  0.30423640765E+03 -0.77692139699E+03 -0.23945233703E+03  0.86804612236E+03  0.00000000000E+00 0.  1.
         11    1    5    5    0    0  0.64505471939E+02  0.25747147522E+03  0.68315834681E+03  0.73291052884E+03  0.00000000000E+00 0. -1.
        -11    1    5    5    0    0  0.10562239899E+02 -0.32430149684E+01  0.11228905090E+02  0.15753297029E+02  0.00000000000E+00 0.  1.
          3    1    6    6  503    0 -0.29747649479E+03  0.33430208555E+03 -0.52949217361E+01  0.44752450832E+03  0.00000000000E+00 0. -1.
         -3    1    6    6    0  503 -0.11236930705E+03  0.22041172093E+03  0.22602531275E+02  0.24843321499E+03  0.00000000000E+00 0.  1.
<mgrwt>
<rscale>  0 0.23137399E+04</rscale>
<asrwt>0</asrwt>
<pdfrwt beam="1">  1        1 0.21676154E+00 0.23137399E+04</pdfrwt>
<pdfrwt beam="2">  1       -4 0.14613698E+00 0.23137399E+04</pdfrwt>
<totfact> 0.10636654E+00</totfact>
</mgrwt>
</event>
<event>
12    4  0.4413110E-008  0.2563257E+04  0.7818608E-02  0.8380790E-01
         -2   -1    0    0    0  501 -0.00000000000E+00  0.00000000000E+00  0.15630424607E+04  0.15630424607E+04  0.00000000000E+00 0.  1.
          1   -1    0    0  501    0  0.00000000000E+00 -0.00000000000E+00 -0.10508811322E+04  0.10508811322E+04  0.00000000000E+00 0. -1.
        -24    2    1    2    0    0 -0.23338506475E+03 -0.59110602172E+03 -0.71099613588E+03  0.95701152204E+03  0.80502364732E+02 0.  0.
        254    2    1    2    0    0  0.23338506475E+03  0.59110602172E+03  0.12231574644E+04  0.16569120709E+04  0.91943923699E+03 0.  0.
         23    2    4    4    0    0  0.26783165578E+03  0.33749747038E+03  0.39204799492E+02  0.44227699352E+03  0.91834548733E+02 0.  0.
         23    2    4    4    0    0 -0.34446591033E+02  0.25360855134E+03  0.11839526649E+04  0.12146350774E+04  0.89947726138E+02 0.  0.
          1    1    3    3  502    0 -0.17365869897E+03 -0.51707416894E+03 -0.60327964494E+03  0.81330767235E+03  0.00000000000E+00 0. -1.
         -4    1    3    3    0  502 -0.59726365776E+02 -0.74031852781E+02 -0.10771649094E+03  0.14370384969E+03  0.00000000000E+00 0.  1.
         11    1    5    5    0    0  0.25019815770E+03  0.33595230790E+03  0.25083889517E+02  0.41963349820E+03  0.00000000000E+00 0.  1.
        -11    1    5    5    0    0  0.17633498079E+02  0.15451624810E+01  0.14120909975E+02  0.22643495316E+02  0.00000000000E+00 0. -1.
          1    1    6    6  503    0  0.11366564723E+02  0.51330268804E+02  0.41068416952E+03  0.41403560521E+03  0.00000000000E+00 0. -1.
         -1    1    6    6    0  503 -0.45813155756E+02  0.20227828254E+03  0.77326849539E+03  0.80059947214E+03  0.00000000000E+00 0.  1.
<mgrwt>
<rscale>  0 0.25632572E+04</rscale>
<asrwt>0</asrwt>
<pdfrwt beam="1">  1        1 0.16167402E+00 0.25632572E+04</pdfrwt>
<pdfrwt beam="2">  1       -2 0.24046807E+00 0.25632572E+04</pdfrwt>
<totfact> 0.78798247E-01</totfact>
</mgrwt>
</event>
<event>
12    4  0.4413110E-008  0.1658829E+04  0.7818608E-02  0.8785201E-01
          1   -1    0    0  501    0  0.00000000000E+00  0.00000000000E+00  0.16498091632E+04  0.16498091632E+04  0.00000000000E+00 0. -1.
         -2   -1    0    0    0  501 -0.00000000000E+00 -0.00000000000E+00 -0.41697430977E+03  0.41697430977E+03  0.00000000000E+00 0.  1.
        -24    2    1    2    0    0  0.31616104372E+03  0.18552859224E+03  0.10027215045E+04  0.10695311137E+04  0.63778706900E+02 0.  0.
        254    2    1    2    0    0 -0.31616104372E+03 -0.18552859224E+03  0.23011334893E+03  0.99725235929E+03  0.89843277469E+03 0.  0.
         23    2    4    4    0    0  0.90455366554E+02 -0.10285690506E+03  0.47782123149E+03  0.50559229088E+03  0.92459283341E+02 0.  0.
         23    2    4    4    0    0 -0.40661641027E+03 -0.82671687187E+02 -0.24770788256E+03  0.49166006841E+03  0.90547859264E+02 0.  0.
          1    1    3    3  502    0  0.31841645357E+03  0.18463343629E+03  0.10010787864E+04  0.10666008065E+04  0.00000000000E+00 0. -1.
         -2    1    3    3    0  502 -0.22554098458E+01  0.89515595436E+00  0.16427180486E+01  0.29303072096E+01  0.00000000000E+00 0.  1.
         11    1    5    5    0    0  0.10953578415E+03 -0.81560609847E+02  0.38827728647E+03  0.41159381953E+03  0.00000000000E+00 0.  1.
        -11    1    5    5    0    0 -0.19080417600E+02 -0.21296295209E+02  0.89543945020E+02  0.93998471345E+02  0.00000000000E+00 0. -1.
          1    1    6    6  503    0 -0.23929395235E+03 -0.25815745546E+02 -0.18705103378E+03  0.30482148478E+03  0.00000000000E+00 0. -1.
         -1    1    6    6    0  503 -0.16732245793E+03 -0.56855941641E+02 -0.60656848784E+02  0.18683858362E+03  0.00000000000E+00 0.  1.
<mgrwt>
<rscale>  0 0.16588285E+04</rscale>
<asrwt>0</asrwt>
<pdfrwt beam="1">  1        1 0.25381679E+00 0.16588285E+04</pdfrwt>
<pdfrwt beam="2">  1       -2 0.64149895E-01 0.16588285E+04</pdfrwt>
<totfact> 0.97080641E+00</totfact>
</mgrwt>
</event>
<event>
12    4  0.4413110E-008  0.1751190E+04  0.7818608E-02  0.8732695E-01
          1   -1    0    0  501    0  0.00000000000E+00  0.00000000000E+00  0.66138944276E+03  0.66138944276E+03  0.00000000000E+00 0. -1.
         -2   -1    0    0    0  501 -0.00000000000E+00 -0.00000000000E+00 -0.11591760321E+04  0.11591760321E+04  0.00000000000E+00 0.  1.
        -24    2    1    2    0    0  0.33855002732E+02  0.11397276586E+02 -0.84859429160E+03  0.85306553915E+03  0.79576901389E+02 0.  0.
        254    2    1    2    0    0 -0.33855002732E+02 -0.11397276586E+02  0.35080770227E+03  0.96749993569E+03  0.90095173149E+03 0.  0.
         23    2    4    4    0    0  0.11697142857E+03 -0.24041827428E+03 -0.19940495443E+03  0.34601454530E+03  0.92089456519E+02 0.  0.
         23    2    4    4    0    0 -0.15082643130E+03  0.22902099769E+03  0.55021265670E+03  0.62148539039E+03  0.91164099869E+02 0.  0.
          3    1    3    3  502    0  0.21222499903E+02  0.11416807778E+02 -0.64268485476E+02  0.68638008620E+02  0.00000000000E+00 0. -1.
         -4    1    3    3    0  502  0.12632502828E+02 -0.19531191591E-01 -0.78432580612E+03  0.78442753053E+03  0.00000000000E+00 0.  1.
         11    1    5    5    0    0  0.62811124143E+01 -0.11589972107E+03 -0.86503472547E+02  0.14475858690E+03  0.00000000000E+00 0.  1.
        -11    1    5    5    0    0  0.11069031615E+03 -0.12451855321E+03 -0.11290148189E+03  0.20125595841E+03  0.00000000000E+00 0. -1.
          2    1    6    6  503    0  0.20552223110E+01  0.58771535641E+02  0.13832909399E+03  0.15031053051E+03  0.00000000000E+00 0. -1.
         -2    1    6    6    0  503 -0.15288165361E+03  0.17024946205E+03  0.41188356272E+03  0.47117485987E+03  0.00000000000E+00 0.  1.
<mgrwt>
<rscale>  0 0.17511902E+04</rscale>
<asrwt>0</asrwt>
<pdfrwt beam="1">  1        1 0.10175222E+00 0.17511902E+04</pdfrwt>
<pdfrwt beam="2">  1       -2 0.17833477E+00 0.17511902E+04</pdfrwt>
<totfact> 0.45814609E+00</totfact>
</mgrwt>
</event>
<event>
12    4  0.4413110E-008  0.1827747E+04  0.7818608E-02  0.8691682E-01
         -2   -1    0    0    0  501 -0.00000000000E+00  0.00000000000E+00  0.55110230977E+03  0.55110230977E+03  0.00000000000E+00 0.  1.
          1   -1    0    0  501    0  0.00000000000E+00 -0.00000000000E+00 -0.15154436603E+04  0.15154436603E+04  0.00000000000E+00 0. -1.
        -24    2    1    2    0    0  0.36872861793E+03  0.23046997812E+03  0.23548180353E+03  0.50061391496E+03  0.78009022342E+02 0.  0.
        254    2    1    2    0    0 -0.36872861793E+03 -0.23046997812E+03 -0.11998231541E+04  0.15659320551E+04  0.90746371592E+03 0.  0.
         23    2    4    4    0    0 -0.59134607504E+03 -0.28490983665E+03 -0.11283950255E+04  0.13084882050E+04  0.89455316112E+02 0.  0.
         23    2    4    4    0    0  0.22261745711E+03  0.54439858530E+02 -0.71428128519E+02  0.25744385007E+03  0.93022190840E+02 0.  0.
          1    1    3    3  502    0  0.59227810538E+02  0.47526271761E+02  0.75553860850E+02  0.10712173420E+03  0.00000000000E+00 0. -1.
         -2    1    3    3    0  502  0.30950080739E+03  0.18294370635E+03  0.15992794268E+03  0.39349218076E+03  0.00000000000E+00 0.  1.
         11    1    5    5    0    0 -0.11666520925E+03 -0.25654802459E+02 -0.24711869735E+03  0.27447511821E+03  0.00000000000E+00 0. -1.
        -11    1    5    5    0    0 -0.47468086579E+03 -0.25925503419E+03 -0.88127632819E+03  0.10340130868E+04  0.00000000000E+00 0.  1.
          4    1    6    6  503    0  0.17631718489E+01  0.14075430674E+02 -0.24148929429E+02  0.28007094033E+02  0.00000000000E+00 0. -1.
         -4    1    6    6    0  503  0.22085428526E+03  0.40364427856E+02 -0.47279199089E+02  0.22943675604E+03  0.00000000000E+00 0.  1.
<mgrwt>
<rscale>  0 0.18277467E+04</rscale>
<asrwt>0</asrwt>
<pdfrwt beam="1">  1        1 0.23314518E+00 0.18277467E+04</pdfrwt>
<pdfrwt beam="2">  1       -2 0.84784970E-01 0.18277467E+04</pdfrwt>
<totfact> 0.63900726E+00</totfact>
</mgrwt>
</event>
<event>
12    4  0.4413110E-008  0.2176179E+04  0.7818608E-02  0.8528409E-01
         -2   -1    0    0    0  501 -0.00000000000E+00  0.00000000000E+00  0.10476828422E+04  0.10476828422E+04  0.00000000000E+00 0.  1.
          1   -1    0    0  501    0  0.00000000000E+00 -0.00000000000E+00 -0.11300548667E+04  0.11300548667E+04  0.00000000000E+00 0. -1.
        -24    2    1    2    0    0 -0.84759828673E+03 -0.49530104029E+02 -0.33336204209E+03  0.91566690386E+03  0.80246749762E+02 0.  0.
        254    2    1    2    0    0  0.84759828673E+03  0.49530104029E+02  0.25099001759E+03  0.12620708051E+04  0.89941683403E+03 0.  0.
         23    2    4    4    0    0  0.42863552468E+03  0.13218338821E+03 -0.30886677388E+03  0.55230687438E+03  0.91887639800E+02 0.  0.
         23    2    4    4    0    0  0.41896276205E+03 -0.82653284184E+02  0.55985679147E+03  0.70976393074E+03  0.89240400353E+02 0.  0.
          1    1    3    3  502    0 -0.32292018623E+03 -0.21588220231E+02 -0.16917315915E+03  0.36518906843E+03  0.00000000000E+00 0. -1.
         -2    1    3    3    0  502 -0.52467810050E+03 -0.27941883798E+02 -0.16418888294E+03  0.55047783543E+03  0.00000000000E+00 0.  1.
         11    1    5    5    0    0  0.18829629991E+03  0.10606436905E+03 -0.14640291554E+03  0.26103440505E+03  0.00000000000E+00 0. -1.
        -11    1    5    5    0    0  0.24033922477E+03  0.26119019165E+02 -0.16246385833E+03  0.29127246933E+03  0.00000000000E+00 0.  1.
          4    1    6    6  503    0  0.22979984520E+03 -0.63472437680E+01  0.33358549911E+03  0.40512657476E+03  0.00000000000E+00 0.  1.
         -4    1    6    6    0  503  0.18916291685E+03 -0.76306040416E+02  0.22627129236E+03  0.30463735598E+03  0.00000000000E+00 0. -1.
<mgrwt>
<rscale>  0 0.21761793E+04</rscale>
<asrwt>0</asrwt>
<pdfrwt beam="1">  1        1 0.17385460E+00 0.21761793E+04</pdfrwt>
<pdfrwt beam="2">  1       -2 0.16118198E+00 0.21761793E+04</pdfrwt>
<totfact> 0.23812578E+00</totfact>
</mgrwt>
</event>
<event>
12    4  0.4413110E-008  0.1559064E+04  0.7818608E-02  0.8846099E-01
          1   -1    0    0  501    0  0.00000000000E+00  0.00000000000E+00  0.10220234504E+04  0.10220234504E+04  0.00000000000E+00 0. -1.
         -2   -1    0    0    0  501 -0.00000000000E+00 -0.00000000000E+00 -0.59457560787E+03  0.59457560787E+03  0.00000000000E+00 0.  1.
        -24    2    1    2    0    0  0.36622405961E+03  0.62593721200E+02 -0.23285382876E+03  0.44518416439E+03  0.77006485970E+02 0.  0.
        254    2    1    2    0    0 -0.36622405961E+03 -0.62593721200E+02  0.66030167130E+03  0.11714148939E+04  0.89340725358E+03 0.  0.
         23    2    4    4    0    0 -0.29040420442E+03  0.39243125817E+03  0.31833163823E+03  0.59002625261E+03  0.91973107736E+02 0.  0.
         23    2    4    4    0    0 -0.75819855196E+02 -0.45502497937E+03  0.34197003307E+03  0.58138864128E+03  0.90955298946E+02 0.  0.
          3    1    3    3  502    0  0.75488440036E+02 -0.88853050359E+01 -0.22461874193E+02  0.79258999596E+02  0.00000000000E+00 0. -1.
         -4    1    3    3    0  502  0.29073561958E+03  0.71479026236E+02 -0.21039195457E+03  0.36592516479E+03  0.00000000000E+00 0.  1.
         11    1    5    5    0    0 -0.45600972152E+02  0.64682104129E+02  0.14504449109E+02  0.80458699341E+02  0.00000000000E+00 0.  1.
        -11    1    5    5    0    0 -0.24480323227E+03  0.32774915404E+03  0.30382718912E+03  0.50956755327E+03  0.00000000000E+00 0. -1.
          4    1    6    6  503    0 -0.84046975004E+02 -0.29480673239E+03  0.25593078591E+03  0.39934380006E+03  0.00000000000E+00 0. -1.
         -4    1    6    6    0  503  0.82271198080E+01 -0.16021824697E+03  0.86039247160E+02  0.18204484122E+03  0.00000000000E+00 0.  1.
<mgrwt>
<rscale>  0 0.15590641E+04</rscale>
<asrwt>0</asrwt>
<pdfrwt beam="1">  1        1 0.15723438E+00 0.15590641E+04</pdfrwt>
<pdfrwt beam="2">  1       -2 0.91473170E-01 0.15590641E+04</pdfrwt>
<totfact> 0.12495738E+01</totfact>
</mgrwt>
</event>
<event>
12    4  0.4413110E-008  0.1861749E+04  0.7818608E-02  0.8674134E-01
          1   -1    0    0  501    0  0.00000000000E+00  0.00000000000E+00  0.96744504020E+03  0.96744504020E+03  0.00000000000E+00 0. -1.
         -2   -1    0    0    0  501 -0.00000000000E+00 -0.00000000000E+00 -0.89568615062E+03  0.89568615062E+03  0.00000000000E+00 0.  1.
        -24    2    1    2    0    0  0.24948610497E+03  0.66638438545E+03  0.25083796698E+00  0.71607689546E+03  0.80340472738E+02 0.  0.
        254    2    1    2    0    0 -0.24948610497E+03 -0.66638438545E+03  0.71508051614E+02  0.11470542954E+04  0.89683258712E+03 0.  0.
         23    2    4    4    0    0 -0.61777158846E+02  0.21020492934E+03  0.64756647238E+02  0.24601730468E+03  0.91260950945E+02 0.  0.
         23    2    4    4    0    0 -0.18770894612E+03 -0.87658931479E+03  0.67514043764E+01  0.90103699068E+03  0.90435622778E+02 0.  0.
          1    1    3    3  502    0  0.25271371913E+03  0.64900916399E+03 -0.81201625431E+01  0.69652211438E+03  0.00000000000E+00 0. -1.
         -2    1    3    3    0  502 -0.32276141581E+01  0.17375221453E+02  0.83710005100E+01  0.19554781084E+02  0.00000000000E+00 0.  1.
         11    1    5    5    0    0  0.63487943248E+01  0.12031142085E+03  0.10735341770E+02  0.12095616040E+03  0.00000000000E+00 0. -1.
        -11    1    5    5    0    0 -0.68125953171E+02  0.89893508491E+02  0.54021305469E+02  0.12506114428E+03  0.00000000000E+00 0.  1.
          4    1    6    6  503    0 -0.15123792979E+03 -0.56236779666E+03  0.35315862229E+02  0.58341894060E+03  0.00000000000E+00 0. -1.
         -4    1    6    6    0  503 -0.36471016335E+02 -0.31422151813E+03 -0.28564457853E+02  0.31761805008E+03  0.00000000000E+00 0.  1.
<mgrwt>
<rscale>  0 0.18617488E+04</rscale>
<asrwt>0</asrwt>
<pdfrwt beam="1">  1        1 0.14883770E+00 0.18617488E+04</pdfrwt>
<pdfrwt beam="2">  1       -2 0.13779787E+00 0.18617488E+04</pdfrwt>
<totfact> 0.49423000E+00</totfact>
</mgrwt>
</event>
<event>
12    4  0.4413110E-008  0.1419280E+04  0.7818608E-02  0.8939980E-01
          1   -1    0    0  501    0  0.00000000000E+00  0.00000000000E+00  0.17392897838E+04  0.17392897838E+04  0.00000000000E+00 0. -1.
         -2   -1    0    0    0  501 -0.00000000000E+00 -0.00000000000E+00 -0.28953705597E+03  0.28953705597E+03  0.00000000000E+00 0.  1.
        -24    2    1    2    0    0  0.24917991530E+03  0.93687059851E+02 -0.30756794333E+02  0.27727927197E+03  0.71203362925E+02 0.  0.
        254    2    1    2    0    0 -0.24917991530E+03 -0.93687059851E+02  0.14805095222E+04  0.17515475678E+04  0.89729735412E+03 0.  0.
         23    2    4    4    0    0  0.24769267300E+03  0.18999381336E+03  0.33112993420E+03  0.46408164029E+03  0.90969369313E+02 0.  0.
         23    2    4    4    0    0 -0.49687258830E+03 -0.28368087321E+03  0.11493795879E+04  0.12874659275E+04  0.95592209294E+02 0.  0.
          3    1    3    3  502    0  0.39999976789E+02  0.45441207194E+02 -0.12645043776E+02  0.61844956031E+02  0.00000000000E+00 0. -1.
         -4    1    3    3    0  502  0.20917993851E+03  0.48245852657E+02 -0.18111750558E+02  0.21543431594E+03  0.00000000000E+00 0.  1.
         11    1    5    5    0    0  0.56709404829E+02  0.19784353523E+01  0.49288223297E+02  0.75161158575E+02  0.00000000000E+00 0. -1.
        -11    1    5    5    0    0  0.19098326817E+03  0.18801537801E+03  0.28184171090E+03  0.38892048171E+03  0.00000000000E+00 0.  1.
          2    1    6    6  503    0 -0.15069623778E+02  0.69452709549E+01  0.45986553413E+02  0.48888581941E+02  0.00000000000E+00 0. -1.
         -2    1    6    6    0  503 -0.48180296452E+03 -0.29062614417E+03  0.11033930345E+04  0.12385773456E+04  0.00000000000E+00 0.  1.
<mgrwt>
<rscale>  0 0.14192799E+04</rscale>
<asrwt>0</asrwt>
<pdfrwt beam="1">  1        1 0.26758304E+00 0.14192799E+04</pdfrwt>
<pdfrwt beam="2">  1       -2 0.44544164E-01 0.14192799E+04</pdfrwt>
<totfact> 0.18304375E+01</totfact>
</mgrwt>
</event>
<event>
12    4  0.4413110E-008  0.1652249E+04  0.7818608E-02  0.8789077E-01
          1   -1    0    0  501    0  0.00000000000E+00  0.00000000000E+00  0.13234334112E+04  0.13234334112E+04  0.00000000000E+00 0. -1.
         -2   -1    0    0    0  501 -0.00000000000E+00 -0.00000000000E+00 -0.51569004344E+03  0.51569004344E+03  0.00000000000E+00 0.  1.
        -24    2    1    2    0    0 -0.42184618668E+03  0.36133440234E+03  0.71478171187E+02  0.56557197374E+03  0.79030202995E+02 0.  0.
        254    2    1    2    0    0  0.42184618668E+03 -0.36133440234E+03  0.73626519658E+03  0.12735514809E+04  0.87825405169E+03 0.  0.
         23    2    4    4    0    0 -0.13436045494E+03 -0.60974929133E+02 -0.11585349156E+03  0.20898058718E+03  0.92087895388E+02 0.  0.
         23    2    4    4    0    0  0.55620664162E+03 -0.30035947321E+03  0.85211868815E+03  0.10645708937E+04  0.87311441233E+02 0.  0.
          1    1    3    3  502    0 -0.61561414945E+02  0.55623502153E+02  0.39750774150E+02  0.91999488299E+02  0.00000000000E+00 0. -1.
         -2    1    3    3    0  502 -0.36028477174E+03  0.30571090019E+03  0.31727397037E+02  0.47357248544E+03  0.00000000000E+00 0.  1.
         11    1    5    5    0    0 -0.44261023110E+02  0.75870854221E+01  0.27780986872E+01  0.44992442302E+02  0.00000000000E+00 0.  1.
        -11    1    5    5    0    0 -0.90099431828E+02 -0.68562014555E+02 -0.11863159025E+03  0.16398814488E+03  0.00000000000E+00 0. -1.
          1    1    6    6  503    0  0.12602202622E+03 -0.70683250388E+02  0.26036234308E+03  0.29776874025E+03  0.00000000000E+00 0. -1.
         -1    1    6    6    0  503  0.43018461541E+03 -0.22967622282E+03  0.59175634506E+03  0.76680215348E+03  0.00000000000E+00 0.  1.
<mgrwt>
<rscale>  0 0.16522487E+04</rscale>
<asrwt>0</asrwt>
<pdfrwt beam="1">  1        1 0.20360514E+00 0.16522487E+04</pdfrwt>
<pdfrwt beam="2">  1       -2 0.79336930E-01 0.16522487E+04</pdfrwt>
<totfact> 0.10274531E+01</totfact>
</mgrwt>
</event>
<event>
12    4  0.4413110E-008  0.1674052E+04  0.7818608E-02  0.8776303E-01
         -2   -1    0    0    0  501 -0.00000000000E+00  0.00000000000E+00  0.57120438558E+03  0.57120438558E+03  0.00000000000E+00 0.  1.
          1   -1    0    0  501    0  0.00000000000E+00 -0.00000000000E+00 -0.12265533562E+04  0.12265533562E+04  0.00000000000E+00 0. -1.
        -24    2    1    2    0    0 -0.12232997706E+03  0.58683540509E+03 -0.24311910157E+03  0.65204896309E+03  0.81978880014E+02 0.  0.
        254    2    1    2    0    0  0.12232997706E+03 -0.58683540509E+03 -0.41222986903E+03  0.11457087787E+04  0.88508458614E+03 0.  0.
         23    2    4    4    0    0  0.34516520149E+03 -0.71220952229E+03 -0.32658311362E+03  0.86100672149E+03  0.91074828456E+02 0.  0.
         23    2    4    4    0    0 -0.22283522443E+03  0.12537411720E+03 -0.85646755408E+02  0.28470205717E+03  0.91354737894E+02 0.  0.
          3    1    3    3  502    0 -0.53138989537E+02  0.35424211544E+03 -0.18206653669E+03  0.40182017414E+03  0.00000000000E+00 0. -1.
         -4    1    3    3    0  502 -0.69190987527E+02  0.23259328964E+03 -0.61052564882E+02  0.25022878895E+03  0.00000000000E+00 0.  1.
         11    1    5    5    0    0  0.25883714325E+03 -0.60412841839E+03 -0.25236988475E+03  0.70403009265E+03  0.00000000000E+00 0.  1.
        -11    1    5    5    0    0  0.86328058240E+02 -0.10808110390E+03 -0.74213228877E+02  0.15697662884E+03  0.00000000000E+00 0. -1.
          1    1    6    6  503    0 -0.14982479819E+03  0.53960985446E+02 -0.13820165917E+02  0.15984447156E+03  0.00000000000E+00 0. -1.
         -1    1    6    6    0  503 -0.73010426244E+02  0.71413131758E+02 -0.71826589491E+02  0.12485758562E+03  0.00000000000E+00 0.  1.
<mgrwt>
<rscale>  0 0.16740522E+04</rscale>
<asrwt>0</asrwt>
<pdfrwt beam="1">  1        1 0.18870052E+00 0.16740522E+04</pdfrwt>
<pdfrwt beam="2">  1       -2 0.87877598E-01 0.16740522E+04</pdfrwt>
<totfact> 0.95447626E+00</totfact>
</mgrwt>
</event>
<event>
12    4  0.4413110E-008  0.2269298E+04  0.7818608E-02  0.8490126E-01
         -2   -1    0    0    0  501 -0.00000000000E+00  0.00000000000E+00  0.58698399115E+03  0.58698399115E+03  0.00000000000E+00 0.  1.
          1   -1    0    0  501    0  0.00000000000E+00 -0.00000000000E+00 -0.21932939628E+04  0.21932939628E+04  0.00000000000E+00 0. -1.
        -24    2    1    2    0    0  0.70721454078E+03  0.36096038588E+03 -0.30184685945E+02  0.79833345417E+03  0.77332929114E+02 0.  0.
        254    2    1    2    0    0 -0.70721454078E+03 -0.36096038588E+03 -0.15761252857E+04  0.19819444998E+04  0.90193584978E+03 0.  0.
         23    2    4    4    0    0 -0.99585162230E+01  0.16850483115E+03 -0.18514406750E+02  0.19300146833E+03  0.91726404904E+02 0.  0.
         23    2    4    4    0    0 -0.69725602455E+03 -0.52946521703E+03 -0.15576108790E+04  0.17889430315E+04  0.87556494429E+02 0.  0.
          1    1    3    3  502    0  0.25593883850E+03  0.12880531623E+03 -0.48076256350E+02  0.29052852694E+03  0.00000000000E+00 0. -1.
         -2    1    3    3    0  502  0.45127570228E+03  0.23215506965E+03  0.17891570405E+02  0.50780492723E+03  0.00000000000E+00 0.  1.
         11    1    5    5    0    0 -0.34642676137E+02  0.16149736859E+03 -0.82874145589E+01  0.16537894760E+03  0.00000000000E+00 0.  1.
        -11    1    5    5    0    0  0.24684159914E+02  0.70074625593E+01 -0.10226992191E+02  0.27622520730E+02  0.00000000000E+00 0. -1.
          1    1    6    6  503    0 -0.48386978091E+03 -0.36564330985E+03 -0.99387825199E+03  0.11643105147E+04  0.00000000000E+00 0. -1.
         -1    1    6    6    0  503 -0.21338624364E+03 -0.16382190718E+03 -0.56373262697E+03  0.62463251673E+03  0.00000000000E+00 0.  1.
<mgrwt>
<rscale>  0 0.22692981E+04</rscale>
<asrwt>0</asrwt>
<pdfrwt beam="1">  1        1 0.33742985E+00 0.22692981E+04</pdfrwt>
<pdfrwt beam="2">  1       -2 0.90305227E-01 0.22692981E+04</pdfrwt>
<totfact> 0.18381409E+00</totfact>
</mgrwt>
</event>
<event>
12    4  0.4413110E-008  0.1544431E+04  0.7818608E-02  0.8855433E-01
         -4   -1    0    0    0  501 -0.00000000000E+00  0.00000000000E+00  0.10095545904E+04  0.10095545904E+04  0.00000000000E+00 0.  1.
          3   -1    0    0  501    0  0.00000000000E+00 -0.00000000000E+00 -0.59067328120E+03  0.59067328120E+03  0.00000000000E+00 0. -1.
        -24    2    1    2    0    0  0.49674164187E+03  0.71458354501E+02  0.17302186214E+03  0.53766444913E+03  0.85369431811E+02 0.  0.
        254    2    1    2    0    0 -0.49674164187E+03 -0.71458354501E+02  0.24585944709E+03  0.10625634225E+04  0.90373425513E+03 0.  0.
         23    2    4    4    0    0 -0.33857815980E+03  0.45057313077E+02 -0.30759129224E+03  0.46862788063E+03  0.91292692389E+02 0.  0.
         23    2    4    4    0    0 -0.15816348207E+03 -0.11651566758E+03  0.55345073933E+03  0.59393554186E+03  0.88657313134E+02 0.  0.
          3    1    3    3  502    0  0.15317550851E+03  0.61440782043E+02  0.65001422366E+02  0.17737781997E+03  0.00000000000E+00 0. -1.
         -4    1    3    3    0  502  0.34356613335E+03  0.10017572458E+02  0.10802043977E+03  0.36028662916E+03  0.00000000000E+00 0.  1.
         11    1    5    5    0    0 -0.16481158518E+03 -0.23609724512E+02 -0.13676007324E+03  0.21546135461E+03  0.00000000000E+00 0.  1.
        -11    1    5    5    0    0 -0.17376657462E+03  0.68667037589E+02 -0.17083121901E+03  0.25316652601E+03  0.00000000000E+00 0. -1.
          1    1    6    6  503    0 -0.20883413650E+02 -0.24263337191E+02  0.26251290781E+02  0.41399960929E+02  0.00000000000E+00 0. -1.
         -1    1    6    6    0  503 -0.13728006842E+03 -0.92252330386E+02  0.52719944855E+03  0.55253558093E+03  0.00000000000E+00 0.  1.
<mgrwt>
<rscale>  0 0.15444312E+04</rscale>
<asrwt>0</asrwt>
<pdfrwt beam="1">  1        3 0.90872813E-01 0.15444312E+04</pdfrwt>
<pdfrwt beam="2">  1       -4 0.15531609E+00 0.15444312E+04</pdfrwt>
<totfact> 0.65240484E-01</totfact>
</mgrwt>
</event>
<event>
12    4  0.4413110E-008  0.1843965E+04  0.7818608E-02  0.8683263E-01
          1   -1    0    0  501    0  0.00000000000E+00  0.00000000000E+00  0.16040079706E+04  0.16040079706E+04  0.00000000000E+00 0. -1.
         -2   -1    0    0    0  501 -0.00000000000E+00 -0.00000000000E+00 -0.52995473722E+03  0.52995473722E+03  0.00000000000E+00 0.  1.
        -24    2    1    2    0    0  0.72170829130E+01  0.15397185339E+03  0.11979884244E+04  0.12105332635E+04  0.80343631717E+02 0.  0.
        254    2    1    2    0    0 -0.72170829130E+01 -0.15397185339E+03 -0.12393519101E+03  0.92342944431E+03  0.90199921792E+03 0.  0.
         23    2    4    4    0    0  0.22480147610E+03  0.15368372566E+03 -0.36100072870E+03  0.46141509756E+03  0.91804002874E+02 0.  0.
         23    2    4    4    0    0 -0.23201855901E+03 -0.30765557905E+03  0.23706553769E+03  0.46201434675E+03  0.93662267725E+02 0.  0.
          1    1    3    3  502    0  0.12024757256E+01  0.14674334835E+03  0.86119171225E+03  0.87360530074E+03  0.00000000000E+00 0. -1.
         -2    1    3    3    0  502  0.60146071873E+01  0.72285050397E+01  0.33679671214E+03  0.33692796277E+03  0.00000000000E+00 0.  1.
         11    1    5    5    0    0  0.73263643727E+02  0.82200044562E+02 -0.20390172406E+03  0.23173329906E+03  0.00000000000E+00 0.  1.
        -11    1    5    5    0    0  0.15153783237E+03  0.71483681098E+02 -0.15709900464E+03  0.22968179850E+03  0.00000000000E+00 0. -1.
          1    1    6    6  503    0 -0.21305015716E+03 -0.22294349711E+03  0.20046153147E+03  0.36780293360E+03  0.00000000000E+00 0. -1.
         -1    1    6    6    0  503 -0.18968401852E+02 -0.84712081940E+02  0.36604006229E+02  0.94211413149E+02  0.00000000000E+00 0.  1.
<mgrwt>
<rscale>  0 0.18439649E+04</rscale>
<asrwt>0</asrwt>
<pdfrwt beam="1">  1        1 0.24677045E+00 0.18439649E+04</pdfrwt>
<pdfrwt beam="2">  1       -2 0.81531499E-01 0.18439649E+04</pdfrwt>
<totfact> 0.60593439E+00</totfact>
</mgrwt>
</event>
<event>
12    4  0.4413110E-008  0.1147962E+04  0.7818608E-02  0.9159666E-01
          1   -1    0    0  501    0  0.00000000000E+00  0.00000000000E+00  0.13416253160E+04  0.13416253160E+04  0.00000000000E+00 0. -1.
         -2   -1    0    0    0  501 -0.00000000000E+00 -0.00000000000E+00 -0.24556331608E+03  0.24556331608E+03  0.00000000000E+00 0.  1.
        -24    2    1    2    0    0  0.22282835634E+02  0.52349111515E+02 -0.63323600429E+02  0.11739648690E+03  0.80839980976E+02 0.  0.
        254    2    1    2    0    0 -0.22282835634E+02 -0.52349111515E+02  0.11593856004E+04  0.14697921452E+04  0.90159693076E+03 0.  0.
         23    2    4    4    0    0 -0.39132339495E+03  0.12694685917E+03  0.31106424647E+03  0.52309880004E+03  0.87303405929E+02 0.  0.
         23    2    4    4    0    0  0.36904055932E+03 -0.17929597068E+03  0.84832135393E+03  0.94669334519E+03  0.90781004521E+02 0.  0.
          1    1    3    3  502    0  0.31574878282E+02 -0.11640830739E+02 -0.27603507616E+02  0.43525113573E+02  0.00000000000E+00 0. -1.
         -2    1    3    3    0  502 -0.92920426486E+01  0.63989942254E+02 -0.35720092814E+02  0.73871373325E+02  0.00000000000E+00 0.  1.
         11    1    5    5    0    0 -0.74252459547E+02  0.66347568667E+01  0.22654903733E+02  0.77914648242E+02  0.00000000000E+00 0.  1.
        -11    1    5    5    0    0 -0.31707093541E+03  0.12031210230E+03  0.28840934273E+03  0.44518415180E+03  0.00000000000E+00 0. -1.
          3    1    6    6  503    0  0.35170651477E+03 -0.16443082475E+03  0.73652546933E+03  0.83258917578E+03  0.00000000000E+00 0. -1.
         -3    1    6    6    0  503  0.17334044547E+02 -0.14865145930E+02  0.11179588460E+03  0.11410416941E+03  0.00000000000E+00 0.  1.
<mgrwt>
<rscale>  0 0.11479616E+04</rscale>
<asrwt>0</asrwt>
<pdfrwt beam="1">  1        1 0.20640389E+00 0.11479616E+04</pdfrwt>
<pdfrwt beam="2">  1       -2 0.37778973E-01 0.11479616E+04</pdfrwt>
<totfact> 0.48655855E+01</totfact>
</mgrwt>
</event>
<event>
12    4  0.4413110E-008  0.2890582E+04  0.7818608E-02  0.8275685E-01
          1   -1    0    0  501    0  0.00000000000E+00  0.00000000000E+00  0.19058516894E+04  0.19058516894E+04  0.00000000000E+00 0. -1.
         -2   -1    0    0    0  501 -0.00000000000E+00 -0.00000000000E+00 -0.10960272790E+04  0.10960272790E+04  0.00000000000E+00 0.  1.
        -24    2    1    2    0    0  0.36150703059E+03  0.10569269241E+04 -0.33523353412E+03  0.11693050910E+04  0.84326848477E+02 0.  0.
        254    2    1    2    0    0 -0.36150703059E+03 -0.10569269241E+04  0.11450579445E+04  0.18325738774E+04  0.89408470730E+03 0.  0.
         23    2    4    4    0    0  0.77586174533E+02 -0.87095360952E+03  0.45787774662E+03  0.99133327377E+03  0.92248709620E+02 0.  0.
         23    2    4    4    0    0 -0.43909320513E+03 -0.18597331460E+03  0.68718019793E+03  0.84124060368E+03  0.89890001186E+02 0.  0.
          1    1    3    3  502    0  0.30500387842E+03  0.92335002050E+03 -0.31877826231E+03  0.10233387546E+04  0.00000000000E+00 0. -1.
         -2    1    3    3    0  502  0.56503152176E+02  0.13357690362E+03 -0.16455271804E+02  0.14596633638E+03  0.00000000000E+00 0.  1.
         11    1    5    5    0    0  0.47950475962E+02 -0.69459454863E+03  0.40203387584E+03  0.80398511955E+03  0.00000000000E+00 0. -1.
        -11    1    5    5    0    0  0.29635698571E+02 -0.17635906089E+03  0.55843870776E+02  0.18734815423E+03  0.00000000000E+00 0.  1.
          1    1    6    6  503    0 -0.29026591443E+03 -0.76565414249E+02  0.44064262231E+03  0.53318147411E+03  0.00000000000E+00 0. -1.
         -1    1    6    6    0  503 -0.14882729070E+03 -0.10940790035E+03  0.24653757562E+03  0.30805912956E+03  0.00000000000E+00 0.  1.
<mgrwt>
<rscale>  0 0.28905816E+04</rscale>
<asrwt>0</asrwt>
<pdfrwt beam="1">  1        1 0.29320795E+00 0.28905816E+04</pdfrwt>
<pdfrwt beam="2">  1       -2 0.16861958E+00 0.28905816E+04</pdfrwt>
<totfact> 0.56835224E-01</totfact>
</mgrwt>
</event>
<event>
12    4  0.4413110E-008  0.1521479E+04  0.7818608E-02  0.8870294E-01
         -2   -1    0    0    0  501 -0.00000000000E+00  0.00000000000E+00  0.60069087267E+03  0.60069087267E+03  0.00000000000E+00 0.  1.
          1   -1    0    0  501    0  0.00000000000E+00 -0.00000000000E+00 -0.96343223284E+03  0.96343223284E+03  0.00000000000E+00 0. -1.
        -24    2    1    2    0    0 -0.18555280450E+03  0.11565767259E+03 -0.53582402973E+03  0.58409493096E+03  0.79075641265E+02 0.  0.
        254    2    1    2    0    0  0.18555280450E+03 -0.11565767259E+03  0.17308266957E+03  0.98002817456E+03  0.93951640323E+03 0.  0.
         23    2    4    4    0    0 -0.24145376915E+03  0.24989084915E+03  0.19790535513E+03  0.40985987786E+03  0.89851158948E+02 0.  0.
         23    2    4    4    0    0  0.42700657365E+03 -0.36554852174E+03 -0.24822685568E+02  0.57016829670E+03  0.92278844545E+02 0.  0.
          3    1    3    3  502    0 -0.16781939432E+03  0.74446211970E+02 -0.46853749369E+03  0.50322258552E+03  0.00000000000E+00 0. -1.
         -4    1    3    3    0  502 -0.17733410186E+02  0.41211460623E+02 -0.67286536042E+02  0.80872345434E+02  0.00000000000E+00 0.  1.
         11    1    5    5    0    0 -0.18929023874E+03  0.13461648570E+03  0.13292505066E+03  0.26762186346E+03  0.00000000000E+00 0. -1.
        -11    1    5    5    0    0 -0.52163530404E+02  0.11527436344E+03  0.64980304477E+02  0.14223801440E+03  0.00000000000E+00 0.  1.
          1    1    6    6  503    0  0.33048648738E+03 -0.23459328304E+03 -0.37368480061E+02  0.40700335390E+03  0.00000000000E+00 0. -1.
         -1    1    6    6    0  503  0.96520086277E+02 -0.13095523870E+03  0.12545794493E+02  0.16316494279E+03  0.00000000000E+00 0.  1.
<mgrwt>
<rscale>  0 0.15214795E+04</rscale>
<asrwt>0</asrwt>
<pdfrwt beam="1">  1        1 0.14822034E+00 0.15214795E+04</pdfrwt>
<pdfrwt beam="2">  1       -2 0.92413982E-01 0.15214795E+04</pdfrwt>
<totfact> 0.13605696E+01</totfact>
</mgrwt>
</event>
<event>
12    4  0.4413110E-008  0.2101484E+04  0.7818608E-02  0.8560590E-01
          1   -1    0    0  501    0  0.00000000000E+00  0.00000000000E+00  0.25555926183E+04  0.25555926183E+04  0.00000000000E+00 0. -1.
         -2   -1    0    0    0  501 -0.00000000000E+00 -0.00000000000E+00 -0.43201668101E+03  0.43201668101E+03  0.00000000000E+00 0.  1.
        -24    2    1    2    0    0 -0.83286942377E+03  0.54145196306E+02  0.80683098957E+03  0.11636059173E+04  0.79995660296E+02 0.  0.
        254    2    1    2    0    0  0.83286942377E+03 -0.54145196306E+02  0.13167449477E+04  0.18240033820E+04  0.94687269526E+03 0.  0.
         23    2    4    4    0    0  0.85550414108E+03 -0.34642727819E+02  0.14342170405E+04  0.16725609952E+04  0.85990170550E+02 0.  0.
         23    2    4    4    0    0 -0.22634717314E+02 -0.19502468486E+02 -0.11747209278E+03  0.15144238683E+03  0.90787814394E+02 0.  0.
          3    1    3    3  502    0 -0.21935418989E+03  0.88313402262E+01  0.16553936402E+03  0.27495005771E+03  0.00000000000E+00 0. -1.
         -4    1    3    3    0  502 -0.61351523388E+03  0.45313856079E+02  0.64129162555E+03  0.88865585957E+03  0.00000000000E+00 0.  1.
         11    1    5    5    0    0  0.69555614062E+03 -0.62630824162E+01  0.12099392774E+04  0.13956326974E+04  0.00000000000E+00 0.  1.
        -11    1    5    5    0    0  0.15994800046E+03 -0.28379645403E+02  0.22427776308E+03  0.27692829783E+03  0.00000000000E+00 0. -1.
          4    1    6    6  503    0 -0.20426774856E+02 -0.19910855950E+02  0.49910226407E+01  0.28958688207E+02  0.00000000000E+00 0. -1.
         -4    1    6    6    0  503 -0.22079424575E+01  0.40838746338E+00 -0.12246311542E+03  0.12248369863E+03  0.00000000000E+00 0.  1.
<mgrwt>
<rscale>  0 0.21014839E+04</rscale>
<asrwt>0</asrwt>
<pdfrwt beam="1">  1        1 0.39316809E+00 0.21014839E+04</pdfrwt>
<pdfrwt beam="2">  1       -2 0.66464106E-01 0.21014839E+04</pdfrwt>
<totfact> 0.20840614E+00</totfact>
</mgrwt>
</event>
<event>
12    4  0.4413110E-008  0.1624952E+04  0.7818608E-02  0.8805364E-01
         -2   -1    0    0    0  501 -0.00000000000E+00  0.00000000000E+00  0.37704767453E+03  0.37704767453E+03  0.00000000000E+00 0.  1.
          1   -1    0    0  501    0  0.00000000000E+00 -0.00000000000E+00 -0.17507521820E+04  0.17507521820E+04  0.00000000000E+00 0. -1.
        -24    2    1    2    0    0  0.27408066354E+03  0.12837185583E+03 -0.10992532463E+04  0.11429259682E+04  0.79514311645E+02 0.  0.
        254    2    1    2    0    0 -0.27408066354E+03 -0.12837185583E+03 -0.27445126117E+03  0.98487388834E+03  0.89613254471E+03 0.  0.
         23    2    4    4    0    0 -0.33183409738E+03 -0.19467556368E+03  0.23484011343E+03  0.45966340131E+03  0.90156088829E+02 0.  0.
         23    2    4    4    0    0  0.57753433840E+02  0.66303707859E+02 -0.50929137460E+03  0.52521048703E+03  0.93470373100E+02 0.  0.
          3    1    3    3  502    0  0.21060459780E+03  0.65401952564E+02 -0.70619114644E+03  0.73982271344E+03  0.00000000000E+00 0. -1.
         -4    1    3    3    0  502  0.63476065738E+02  0.62969903262E+02 -0.39306209986E+03  0.40310325474E+03  0.00000000000E+00 0.  1.
         11    1    5    5    0    0 -0.20875915311E+03 -0.82791856647E+02  0.16775445797E+03  0.28031488313E+03  0.00000000000E+00 0. -1.
        -11    1    5    5    0    0 -0.12307494426E+03 -0.11188370704E+03  0.67085655463E+02  0.17934851818E+03  0.00000000000E+00 0.  1.
          4    1    6    6  503    0 -0.19772625506E+02  0.39127194741E+01 -0.33276216471E+02  0.38904661362E+02  0.00000000000E+00 0.  1.
         -4    1    6    6    0  503  0.77526059346E+02  0.62390988385E+02 -0.47601515813E+03  0.48630582566E+03  0.00000000000E+00 0. -1.
<mgrwt>
<rscale>  0 0.16249517E+04</rscale>
<asrwt>0</asrwt>
<pdfrwt beam="1">  1        1 0.26934649E+00 0.16249517E+04</pdfrwt>
<pdfrwt beam="2">  1       -2 0.58007335E-01 0.16249517E+04</pdfrwt>
<totfact> 0.10288599E+01</totfact>
</mgrwt>
</event>
<event>
12    4  0.4413110E-008  0.2466151E+04  0.7818608E-02  0.8415144E-01
          1   -1    0    0  501    0  0.00000000000E+00  0.00000000000E+00  0.10966788955E+04  0.10966788955E+04  0.00000000000E+00 0. -1.
         -2   -1    0    0    0  501 -0.00000000000E+00 -0.00000000000E+00 -0.13864366182E+04  0.13864366182E+04  0.00000000000E+00 0.  1.
        -24    2    1    2    0    0 -0.56515300534E+03 -0.36855141637E+03 -0.96139859362E+03  0.11772078894E+04  0.79392022203E+02 0.  0.
        254    2    1    2    0    0  0.56515300534E+03  0.36855141637E+03  0.67164087091E+03  0.13059076243E+04  0.89390446795E+03 0.  0.
         23    2    4    4    0    0  0.22300381246E+03  0.52901231017E+01  0.75451338644E+03  0.79207034459E+03  0.91248532568E+02 0.  0.
         23    2    4    4    0    0  0.34214919288E+03  0.36326129327E+03 -0.82872515529E+02  0.51383727972E+03  0.90200104380E+02 0.  0.
          1    1    3    3  502    0 -0.27531228642E+03 -0.19403649310E+03 -0.54512889740E+03  0.64079055119E+03  0.00000000000E+00 0. -1.
         -2    1    3    3    0  502 -0.28984071891E+03 -0.17451492327E+03 -0.41626969622E+03  0.53641733825E+03  0.00000000000E+00 0.  1.
         11    1    5    5    0    0  0.39828134820E+02 -0.60245779965E+00  0.28978835040E+03  0.29251313014E+03  0.00000000000E+00 0. -1.
        -11    1    5    5    0    0  0.18317567764E+03  0.58925809013E+01  0.46472503604E+03  0.49955721445E+03  0.00000000000E+00 0.  1.
          2    1    6    6  503    0  0.19149440225E+03  0.15153789819E+03 -0.12011719601E+02  0.24449564840E+03  0.00000000000E+00 0. -1.
         -2    1    6    6    0  503  0.15065479063E+03  0.21172339508E+03 -0.70860795928E+02  0.26934163132E+03  0.00000000000E+00 0.  1.
<mgrwt>
<rscale>  0 0.24661515E+04</rscale>
<asrwt>0</asrwt>
<pdfrwt beam="1">  1        1 0.16871983E+00 0.24661515E+04</pdfrwt>
<pdfrwt beam="2">  1       -2 0.21329794E+00 0.24661515E+04</pdfrwt>
<totfact> 0.10868534E+00</totfact>
</mgrwt>
</event>
<event>
12    4  0.4413110E-008  0.1575930E+04  0.7818608E-02  0.8835473E-01
         -2   -1    0    0    0  501 -0.00000000000E+00  0.00000000000E+00  0.39901566468E+03  0.39901566468E+03  0.00000000000E+00 0.  1.
          1   -1    0    0  501    0  0.00000000000E+00 -0.00000000000E+00 -0.15560510927E+04  0.15560510927E+04  0.00000000000E+00 0. -1.
        -24    2    1    2    0    0 -0.18119533954E+03 -0.44848574749E+01 -0.10115926113E+04  0.10306763045E+04  0.78244286631E+02 0.  0.
        254    2    1    2    0    0  0.18119533954E+03  0.44848574749E+01 -0.14544281675E+03  0.92439045291E+03  0.89470231445E+03 0.  0.
         23    2    4    4    0    0  0.19084172146E+03 -0.47800671786E+02 -0.50521967434E+03  0.54978361349E+03  0.91157201838E+02 0.  0.
         23    2    4    4    0    0 -0.96463819228E+01  0.52285529261E+02  0.35977685759E+03  0.37460683943E+03  0.89800153881E+02 0.  0.
          1    1    3    3  502    0 -0.14300531963E+02  0.23915370648E+02 -0.16235645768E+03  0.16473029326E+03  0.00000000000E+00 0. -1.
         -2    1    3    3    0  502 -0.16689480757E+03 -0.28400228123E+02 -0.84923615361E+03  0.86594601122E+03  0.00000000000E+00 0.  1.
         11    1    5    5    0    0  0.69323362283E+01  0.19730517070E+02 -0.48340955130E+02  0.52670661020E+02  0.00000000000E+00 0.  1.
        -11    1    5    5    0    0  0.18390938523E+03 -0.67531188856E+02 -0.45687871921E+03  0.49711295247E+03  0.00000000000E+00 0. -1.
          1    1    6    6  503    0 -0.33082617068E+02  0.21735426484E+02  0.57029792929E+02  0.69421074596E+02  0.00000000000E+00 0. -1.
         -1    1    6    6    0  503  0.23436235145E+02  0.30550102777E+02  0.30274706466E+03  0.30518576483E+03  0.00000000000E+00 0.  1.
<mgrwt>
<rscale>  0 0.15759299E+04</rscale>
<asrwt>0</asrwt>
<pdfrwt beam="1">  1        1 0.23939248E+00 0.15759299E+04</pdfrwt>
<pdfrwt beam="2">  1       -2 0.61387025E-01 0.15759299E+04</pdfrwt>
<totfact> 0.12454120E+01</totfact>
</mgrwt>
</event>
<event>
12    4  0.4413110E-008  0.1481696E+04  0.7818608E-02  0.8896717E-01
          1   -1    0    0  501    0  0.00000000000E+00  0.00000000000E+00  0.12672606290E+04  0.12672606290E+04  0.00000000000E+00 0. -1.
         -2   -1    0    0    0  501 -0.00000000000E+00 -0.00000000000E+00 -0.43310388970E+03  0.43310388970E+03  0.00000000000E+00 0.  1.
        -24    2    1    2    0    0 -0.42589156499E+03 -0.15806904491E+03  0.12941560442E+03  0.47833762511E+03  0.75425704119E+02 0.  0.
        254    2    1    2    0    0  0.42589156499E+03  0.15806904491E+03  0.70474113485E+03  0.12220268936E+04  0.88899955755E+03 0.  0.
         23    2    4    4    0    0  0.53027542969E+03  0.26568370768E+02  0.51047260216E+02  0.54095065300E+03  0.90132549856E+02 0.  0.
         23    2    4    4    0    0 -0.10438386470E+03  0.13150067414E+03  0.65369387464E+03  0.68107624055E+03  0.91437110617E+02 0.  0.
          1    1    3    3  502    0 -0.28871966175E+02  0.73588113586E+01  0.14549754681E+02  0.33157772795E+02  0.00000000000E+00 0. -1.
         -2    1    3    3    0  502 -0.39701959882E+03 -0.16542785627E+03  0.11486584974E+03  0.44517985232E+03  0.00000000000E+00 0.  1.
         11    1    5    5    0    0  0.33358274410E+03  0.24681210650E+02  0.74988906991E+02  0.34279723670E+03  0.00000000000E+00 0.  1.
        -11    1    5    5    0    0  0.19669268560E+03  0.18871601181E+01 -0.23941646775E+02  0.19815341630E+03  0.00000000000E+00 0. -1.
          3    1    6    6  503    0 -0.37757243151E+02  0.81503321935E+02  0.48132455451E+03  0.48963427951E+03  0.00000000000E+00 0. -1.
         -3    1    6    6    0  503 -0.66626621550E+02  0.49997352206E+02  0.17236932012E+03  0.19144196104E+03  0.00000000000E+00 0.  1.
<mgrwt>
<rscale>  0 0.14816957E+04</rscale>
<asrwt>0</asrwt>
<pdfrwt beam="1">  1        1 0.19496317E+00 0.14816957E+04</pdfrwt>
<pdfrwt beam="2">  1       -2 0.66631368E-01 0.14816957E+04</pdfrwt>
<totfact> 0.16791881E+01</totfact>
</mgrwt>
</event>
<event>
12    4  0.4413110E-008  0.1938686E+04  0.7818608E-02  0.8635836E-01
          1   -1    0    0  501    0  0.00000000000E+00  0.00000000000E+00  0.22787168575E+04  0.22787168575E+04  0.00000000000E+00 0. -1.
         -2   -1    0    0    0  501 -0.00000000000E+00 -0.00000000000E+00 -0.41234855530E+03  0.41234855530E+03  0.00000000000E+00 0.  1.
        -24    2    1    2    0    0 -0.58641783167E+03  0.17078073722E+03  0.10422317974E+03  0.62484643973E+03  0.80738271868E+02 0.  0.
        254    2    1    2    0    0  0.58641783167E+03 -0.17078073722E+03  0.17621451224E+04  0.20662189730E+04  0.88941187225E+03 0.  0.
         23    2    4    4    0    0  0.28302701475E+03  0.35178776859E+03  0.87706704727E+03  0.99064963485E+03  0.91000925336E+02 0.  0.
         23    2    4    4    0    0  0.30339081692E+03 -0.52256850580E+03  0.88507807518E+03  0.10755693382E+04  0.91446000808E+02 0.  0.
          3    1    3    3  502    0 -0.52934707261E+03  0.16909232628E+03  0.75093346387E+02  0.56074909609E+03  0.00000000000E+00 0. -1.
         -4    1    3    3    0  502 -0.57070759063E+02  0.16884109332E+01  0.29129833356E+02  0.64097343649E+02  0.00000000000E+00 0.  1.
         11    1    5    5    0    0  0.10814794441E+03  0.10697426510E+03  0.38412081989E+03  0.41314437616E+03  0.00000000000E+00 0.  1.
        -11    1    5    5    0    0  0.17487907034E+03  0.24481350348E+03  0.49294622737E+03  0.57750525869E+03  0.00000000000E+00 0. -1.
          4    1    6    6  503    0  0.23491248995E+03 -0.44379712793E+03  0.67825435219E+03  0.84390090352E+03  0.00000000000E+00 0. -1.
         -4    1    6    6    0  503  0.68478326966E+02 -0.78771377872E+02  0.20682372299E+03  0.23166843468E+03  0.00000000000E+00 0.  1.
<mgrwt>
<rscale>  0 0.19386857E+04</rscale>
<asrwt>0</asrwt>
<pdfrwt beam="1">  1        1 0.35057182E+00 0.19386857E+04</pdfrwt>
<pdfrwt beam="2">  1       -2 0.63438241E-01 0.19386857E+04</pdfrwt>
<totfact> 0.36271260E+00</totfact>
</mgrwt>
</event>
<event>
12    4  0.4413110E-008  0.1787329E+04  0.7818608E-02  0.8713067E-01
          1   -1    0    0  501    0  0.00000000000E+00  0.00000000000E+00  0.14599358254E+04  0.14599358254E+04  0.00000000000E+00 0. -1.
         -2   -1    0    0    0  501 -0.00000000000E+00 -0.00000000000E+00 -0.54703523878E+03  0.54703523878E+03  0.00000000000E+00 0.  1.
        -24    2    1    2    0    0  0.28912811426E+03 -0.16045220432E+03 -0.30440652726E+03  0.45645873702E+03  0.79694845731E+02 0.  0.
        254    2    1    2    0    0 -0.28912811426E+03  0.16045220432E+03  0.12173071139E+04  0.15505123272E+04  0.90161626588E+03 0.  0.
         23    2    4    4    0    0  0.22168874063E+03  0.14290590209E+02  0.22853945537E+02  0.23993270591E+03  0.87722755586E+02 0.  0.
         23    2    4    4    0    0 -0.51081685489E+03  0.14616161411E+03  0.11944531684E+04  0.13105796213E+04  0.92755030220E+02 0.  0.
          1    1    3    3  502    0  0.53478674765E+02  0.23496224694E+01 -0.42544564791E+02  0.68377842710E+02  0.00000000000E+00 0. -1.
         -2    1    3    3    0  502  0.23564943949E+03 -0.16280182678E+03 -0.26186196247E+03  0.38808089431E+03  0.00000000000E+00 0.  1.
         11    1    5    5    0    0  0.22603395235E+03  0.20625398569E+02  0.12872887828E+02  0.22733777936E+03  0.00000000000E+00 0. -1.
        -11    1    5    5    0    0 -0.43452117219E+01 -0.63348083601E+01  0.99810577088E+01  0.12594926552E+02  0.00000000000E+00 0.  1.
          3    1    6    6  503    0 -0.48752661262E+03  0.14282800134E+03  0.10771251731E+04  0.11909158974E+04  0.00000000000E+00 0. -1.
         -3    1    6    6    0  503 -0.23290242268E+02  0.33336127630E+01  0.11732799523E+03  0.11966372392E+03  0.00000000000E+00 0.  1.
<mgrwt>
<rscale>  0 0.17873291E+04</rscale>
<asrwt>0</asrwt>
<pdfrwt beam="1">  1        1 0.22460551E+00 0.17873291E+04</pdfrwt>
<pdfrwt beam="2">  1       -2 0.84159268E-01 0.17873291E+04</pdfrwt>
<totfact> 0.71261924E+00</totfact>
</mgrwt>
</event>
<event>
12    4  0.4413110E-008  0.1519910E+04  0.7818608E-02  0.8871320E-01
         -2   -1    0    0    0  501 -0.00000000000E+00  0.00000000000E+00  0.93499670379E+03  0.93499670379E+03  0.00000000000E+00 0.  1.
          1   -1    0    0  501    0  0.00000000000E+00 -0.00000000000E+00 -0.61768341972E+03  0.61768341972E+03  0.00000000000E+00 0. -1.
        -24    2    1    2    0    0  0.41369622876E+03 -0.26609545455E+03  0.98075079867E+02  0.50578577955E+03  0.65185679989E+02 0.  0.
        254    2    1    2    0    0 -0.41369622876E+03  0.26609545455E+03  0.21923820420E+03  0.10468943440E+04  0.89775888557E+03 0.  0.
         23    2    4    4    0    0 -0.38426216764E+03  0.54874518221E+03 -0.16638550696E+01  0.67621153851E+03  0.92090107664E+02 0.  0.
         23    2    4    4    0    0 -0.29434061124E+02 -0.28264972766E+03  0.22090205927E+03  0.37068280545E+03  0.88604683659E+02 0.  0.
          3    1    3    3  502    0  0.26741344325E+03 -0.20606968090E+03  0.76966343808E+02  0.34626360060E+03  0.00000000000E+00 0. -1.
         -4    1    3    3    0  502  0.14628278551E+03 -0.60025773649E+02  0.21108736059E+02  0.15952217895E+03  0.00000000000E+00 0.  1.
         11    1    5    5    0    0 -0.30382227327E+02  0.58512206856E+02 -0.26572876939E+02  0.71083583740E+02  0.00000000000E+00 0.  1.
        -11    1    5    5    0    0 -0.35387994031E+03  0.49023297535E+03  0.24909021869E+02  0.60512795477E+03  0.00000000000E+00 0. -1.
          3    1    6    6  503    0 -0.27241395784E+02 -0.21757559401E+03  0.21193852295E+03  0.30495765323E+03  0.00000000000E+00 0. -1.
         -3    1    6    6    0  503 -0.21926653399E+01 -0.65074133647E+02  0.89635363262E+01  0.65725152222E+02  0.00000000000E+00 0.  1.
<mgrwt>
<rscale>  0 0.15199105E+04</rscale>
<asrwt>0</asrwt>
<pdfrwt beam="1">  1        1 0.95028218E-01 0.15199105E+04</pdfrwt>
<pdfrwt beam="2">  1       -2 0.14384565E+00 0.15199105E+04</pdfrwt>
<totfact> 0.92808937E+00</totfact>
</mgrwt>
</event>
<event>
12    4  0.4413110E-008  0.3003642E+04  0.7818608E-02  0.8242692E-01
          1   -1    0    0  501    0  0.00000000000E+00  0.00000000000E+00  0.10279265459E+04  0.10279265459E+04  0.00000000000E+00 0. -1.
         -2   -1    0    0    0  501 -0.00000000000E+00 -0.00000000000E+00 -0.21941905168E+04  0.21941905168E+04  0.00000000000E+00 0.  1.
        -24    2    1    2    0    0  0.95245999376E+03 -0.73143191044E+03  0.16936813406E+03  0.12153789700E+04  0.79295627374E+02 0.  0.
        254    2    1    2    0    0 -0.95245999376E+03  0.73143191044E+03 -0.13356321050E+04  0.20067380927E+04  0.89493685444E+03 0.  0.
         23    2    4    4    0    0  0.12025812914E+03  0.84269569557E+02  0.10826079279E+01  0.17241590201E+03  0.90347624483E+02 0.  0.
         23    2    4    4    0    0 -0.10727181229E+04  0.64716234088E+03 -0.13367147130E+04  0.18343221907E+04  0.91588256883E+02 0.  0.
          1    1    3    3  502    0  0.90188624680E+03 -0.66765286406E+03  0.15817210215E+03  0.11332155854E+04  0.00000000000E+00 0. -1.
         -2    1    3    3    0  502  0.50573746961E+02 -0.63779046379E+02  0.11196031909E+02  0.82163384602E+02  0.00000000000E+00 0.  1.
         11    1    5    5    0    0  0.12651047085E+01 -0.79937441810E+01  0.19125059971E+02  0.20767001586E+02  0.00000000000E+00 0.  1.
        -11    1    5    5    0    0  0.11899302443E+03  0.92263313738E+02 -0.18042452044E+02  0.15164890043E+03  0.00000000000E+00 0. -1.
          2    1    6    6  503    0 -0.87359082592E+03  0.50593515061E+03 -0.11207576117E+04  0.15083862012E+04  0.00000000000E+00 0. -1.
         -2    1    6    6    0  503 -0.19912729698E+03  0.14122719027E+03 -0.21595710127E+03  0.32593598951E+03  0.00000000000E+00 0.  1.
<mgrwt>
<rscale>  0 0.30036422E+04</rscale>
<asrwt>0</asrwt>
<pdfrwt beam="1">  1        1 0.15814255E+00 0.30036422E+04</pdfrwt>
<pdfrwt beam="2">  1       -2 0.33756777E+00 0.30036422E+04</pdfrwt>
<totfact> 0.20005053E-01</totfact>
</mgrwt>
</event>
<event>
12    4  0.4413110E-008  0.1457441E+04  0.7818608E-02  0.8913258E-01
          1   -1    0    0  501    0  0.00000000000E+00  0.00000000000E+00  0.74658854212E+03  0.74658854212E+03  0.00000000000E+00 0. -1.
         -2   -1    0    0    0  501 -0.00000000000E+00 -0.00000000000E+00 -0.71127993105E+03  0.71127993105E+03  0.00000000000E+00 0.  1.
        -24    2    1    2    0    0 -0.22929041336E+03 -0.26620822081E+03 -0.21787581805E+03  0.42083021033E+03  0.78659286455E+02 0.  0.
        254    2    1    2    0    0  0.22929041336E+03  0.26620822081E+03  0.25318442911E+03  0.10370382628E+04  0.94228716056E+03 0.  0.
         23    2    4    4    0    0  0.16690009656E+03 -0.29200365060E+03 -0.10458353294E+03  0.36514036736E+03  0.96270443660E+02 0.  0.
         23    2    4    4    0    0  0.62390316805E+02  0.55821187141E+03  0.35776796205E+03  0.67189789547E+03  0.89195416115E+02 0.  0.
          1    1    3    3  502    0 -0.34214362497E+02 -0.67423824580E+02 -0.17169674268E+02  0.77533169912E+02  0.00000000000E+00 0. -1.
         -2    1    3    3    0  502 -0.19507605087E+03 -0.19878439623E+03 -0.20070614378E+03  0.34329704041E+03  0.00000000000E+00 0.  1.
         11    1    5    5    0    0  0.52993808795E+02 -0.94858627911E+02 -0.82416505784E+02  0.13637809020E+03  0.00000000000E+00 0. -1.
        -11    1    5    5    0    0  0.11390628776E+03 -0.19714502269E+03 -0.22167027157E+02  0.22876227717E+03  0.00000000000E+00 0.  1.
          2    1    6    6  503    0  0.51942857686E+02  0.33702039258E+03  0.26477901829E+03  0.43172761552E+03  0.00000000000E+00 0.  1.
         -2    1    6    6    0  503  0.10447459119E+02  0.22119147883E+03  0.92988943766E+02  0.24017027995E+03  0.00000000000E+00 0. -1.
<mgrwt>
<rscale>  0 0.14574408E+04</rscale>
<asrwt>0</asrwt>
<pdfrwt beam="1">  1        1 0.11485978E+00 0.14574408E+04</pdfrwt>
<pdfrwt beam="2">  1       -2 0.10942768E+00 0.14574408E+04</pdfrwt>
<totfact> 0.13952357E+01</totfact>
</mgrwt>
</event>
<event>
12    4  0.4413110E-008  0.1396166E+04  0.7818608E-02  0.8956598E-01
         -2   -1    0    0    0  501 -0.00000000000E+00  0.00000000000E+00  0.24323559474E+03  0.24323559474E+03  0.00000000000E+00 0.  1.
          1   -1    0    0  501    0  0.00000000000E+00 -0.00000000000E+00 -0.20034900471E+04  0.20034900471E+04  0.00000000000E+00 0. -1.
        -24    2    1    2    0    0 -0.29374128051E+03  0.25347275105E+03 -0.35321711990E+03  0.53139023519E+03  0.84147922516E+02 0.  0.
        254    2    1    2    0    0  0.29374128051E+03 -0.25347275105E+03 -0.14070373325E+04  0.17153354067E+04  0.90115987871E+03 0.  0.
         23    2    4    4    0    0  0.41664622312E+03 -0.33185314830E+03 -0.34817326487E+03  0.64239086366E+03  0.87868151663E+02 0.  0.
         23    2    4    4    0    0 -0.12290494261E+03  0.78380397249E+02 -0.10588640676E+04  0.10729445430E+04  0.93636355713E+02 0.  0.
          3    1    3    3  502    0 -0.26071815218E+02  0.33120540271E+02 -0.78275146008E+02  0.88902802088E+02  0.00000000000E+00 0. -1.
         -4    1    3    3    0  502 -0.26766946529E+03  0.22035221078E+03 -0.27494197389E+03  0.44248743310E+03  0.00000000000E+00 0.  1.
         11    1    5    5    0    0  0.40749187853E+03 -0.31427696171E+03 -0.31386194069E+03  0.60276774760E+03  0.00000000000E+00 0. -1.
        -11    1    5    5    0    0  0.91543445842E+01 -0.17576186583E+02 -0.34311324180E+02  0.39623116063E+02  0.00000000000E+00 0.  1.
          1    1    6    6  503    0 -0.70730710541E+02  0.30208865195E+02 -0.82395579139E+03  0.82753764573E+03  0.00000000000E+00 0. -1.
         -1    1    6    6    0  503 -0.52174232067E+02  0.48171532054E+02 -0.23490827623E+03  0.24540689728E+03  0.00000000000E+00 0.  1.
<mgrwt>
<rscale>  0 0.13961663E+04</rscale>
<asrwt>0</asrwt>
<pdfrwt beam="1">  1        1 0.30822925E+00 0.13961663E+04</pdfrwt>
<pdfrwt beam="2">  1       -2 0.37420859E-01 0.13961663E+04</pdfrwt>
<totfact> 0.17106647E+01</totfact>
</mgrwt>
</event>
<event>
12    4  0.4413110E-008  0.2517812E+04  0.7818608E-02  0.8396667E-01
          1   -1    0    0  501    0  0.00000000000E+00  0.00000000000E+00  0.28543429375E+04  0.28543429375E+04  0.00000000000E+00 0. -1.
         -2   -1    0    0    0  501 -0.00000000000E+00 -0.00000000000E+00 -0.55523964013E+03  0.55523964013E+03  0.00000000000E+00 0.  1.
        -24    2    1    2    0    0 -0.19597058555E+03 -0.82344879517E+02 -0.45148948482E+03  0.50536413071E+03  0.79780950877E+02 0.  0.
        254    2    1    2    0    0  0.19597058555E+03  0.82344879517E+02  0.27505927822E+04  0.29042184470E+04  0.90749048723E+03 0.  0.
         23    2    4    4    0    0 -0.17382331888E+03 -0.12231345837E+03  0.21591746128E+04  0.21717503083E+04  0.96380830865E+02 0.  0.
         23    2    4    4    0    0  0.36979390444E+03  0.20465833788E+03  0.59141816943E+03  0.73246813870E+03  0.90008644360E+02 0.  0.
          3    1    3    3  502    0 -0.90874763098E+02 -0.54664126494E+00 -0.22442022913E+03  0.24212178883E+03  0.00000000000E+00 0. -1.
         -4    1    3    3    0  502 -0.10509582245E+03 -0.81798238253E+02 -0.22706925569E+03  0.26324234188E+03  0.00000000000E+00 0.  1.
         11    1    5    5    0    0 -0.23759395782E+02 -0.70567175792E+02  0.65013221600E+03  0.65438225332E+03  0.00000000000E+00 0. -1.
        -11    1    5    5    0    0 -0.15006392310E+03 -0.51746282574E+02  0.15090423968E+04  0.15173680549E+04  0.00000000000E+00 0.  1.
          4    1    6    6  503    0 -0.50319418354E+01  0.51103920207E+01  0.13898768492E+02  0.15640086663E+02  0.00000000000E+00 0. -1.
         -4    1    6    6    0  503  0.37482584627E+03  0.19954794586E+03  0.57751940094E+03  0.71682805204E+03  0.00000000000E+00 0.  1.
<mgrwt>
<rscale>  0 0.25178120E+04</rscale>
<asrwt>0</asrwt>
<pdfrwt beam="1">  1        1 0.43912967E+00 0.25178120E+04</pdfrwt>
<pdfrwt beam="2">  1       -2 0.85421485E-01 0.25178120E+04</pdfrwt>
<totfact> 0.70798879E-01</totfact>
</mgrwt>
</event>
<event>
12    4  0.4413110E-008  0.2011537E+04  0.7818608E-02  0.8601246E-01
         -2   -1    0    0    0  501 -0.00000000000E+00  0.00000000000E+00  0.53118885940E+03  0.53118885940E+03  0.00000000000E+00 0.  1.
          1   -1    0    0  501    0  0.00000000000E+00 -0.00000000000E+00 -0.19043519945E+04  0.19043519945E+04  0.00000000000E+00 0. -1.
        -24    2    1    2    0    0 -0.71646286833E+03 -0.26345822524E+03 -0.27165630901E+03  0.81471453712E+03  0.85049095370E+02 0.  0.
        254    2    1    2    0    0  0.71646286833E+03  0.26345822524E+03 -0.11015068261E+04  0.16208263168E+04  0.91160922718E+03 0.  0.
         23    2    4    4    0    0  0.74121862034E+03  0.32541855139E+03 -0.39580185741E+03  0.90561405345E+03  0.90418066498E+02 0.  0.
         23    2    4    4    0    0 -0.24755752008E+02 -0.61960326149E+02 -0.70570496866E+03  0.71521226331E+03  0.95169057586E+02 0.  0.
          1    1    3    3  502    0 -0.67941814733E+03 -0.24409170843E+03 -0.23529473398E+03  0.75931113048E+03  0.00000000000E+00 0. -1.
         -2    1    3    3    0  502 -0.37044721007E+02 -0.19366516812E+02 -0.36361575036E+02  0.55403406637E+02  0.00000000000E+00 0.  1.
         11    1    5    5    0    0  0.16275385913E+03  0.11365108751E+03 -0.99491111922E+02  0.22204474708E+03  0.00000000000E+00 0. -1.
        -11    1    5    5    0    0  0.57846476121E+03  0.21176746388E+03 -0.29631074549E+03  0.68356930637E+03  0.00000000000E+00 0.  1.
          3    1    6    6  503    0  0.19653532020E+02 -0.42454595762E+01 -0.33476047539E+02  0.39050365001E+02  0.00000000000E+00 0. -1.
         -3    1    6    6    0  503 -0.44409284028E+02 -0.57714866573E+02 -0.67222892112E+03  0.67616189831E+03  0.00000000000E+00 0.  1.
<mgrwt>
<rscale>  0 0.20115373E+04</rscale>
<asrwt>0</asrwt>
<pdfrwt beam="1">  1        1 0.29297723E+00 0.20115373E+04</pdfrwt>
<pdfrwt beam="2">  1       -2 0.81721363E-01 0.20115373E+04</pdfrwt>
<totfact> 0.37101173E+00</totfact>
</mgrwt>
</event>
<event>
12    4  0.4413110E-008  0.2957342E+04  0.7818608E-02  0.8256018E-01
         -2   -1    0    0    0  501 -0.00000000000E+00  0.00000000000E+00  0.66932739770E+03  0.66932739770E+03  0.00000000000E+00 0.  1.
          1   -1    0    0  501    0  0.00000000000E+00 -0.00000000000E+00 -0.32666653795E+04  0.32666653795E+04  0.00000000000E+00 0. -1.
        -24    2    1    2    0    0 -0.27041332820E+03 -0.12563119473E+04 -0.16947813119E+04  0.21281876692E+04  0.73864625509E+02 0.  0.
        254    2    1    2    0    0  0.27041332820E+03  0.12563119473E+04 -0.90255666985E+03  0.18078051080E+04  0.89560465000E+03 0.  0.
         23    2    4    4    0    0  0.27668711513E+03  0.12094165634E+04 -0.10498882998E+04  0.16279277702E+04  0.92947293403E+02 0.  0.
         23    2    4    4    0    0 -0.62737869292E+01  0.46895383943E+02  0.14733162992E+03  0.17987733784E+03  0.91709923416E+02 0.  0.
          1    1    3    3  502    0 -0.25166128966E+03 -0.11728052671E+04 -0.15489217731E+04  0.19590722953E+04  0.00000000000E+00 0. -1.
         -2    1    3    3    0  502 -0.18752038537E+02 -0.83506680202E+02 -0.14585953889E+03  0.16911537385E+03  0.00000000000E+00 0.  1.
         11    1    5    5    0    0  0.53309740846E+02  0.11272027791E+03 -0.95900648445E+02  0.15730455776E+03  0.00000000000E+00 0. -1.
        -11    1    5    5    0    0  0.22337737428E+03  0.10966962855E+04 -0.95398765133E+03  0.14706232124E+04  0.00000000000E+00 0.  1.
          2    1    6    6  503    0 -0.28897748756E+02  0.69683318635E+01  0.47635773385E+01  0.30105301878E+02  0.00000000000E+00 0. -1.
         -2    1    6    6    0  503  0.22623961827E+02  0.39927052079E+02  0.14256805259E+03  0.14977203596E+03  0.00000000000E+00 0.  1.
<mgrwt>
<rscale>  0 0.29573425E+04</rscale>
<asrwt>0</asrwt>
<pdfrwt beam="1">  1        1 0.50256391E+00 0.29573425E+04</pdfrwt>
<pdfrwt beam="2">  1       -2 0.10297344E+00 0.29573425E+04</pdfrwt>
<totfact> 0.21905810E-01</totfact>
</mgrwt>
</event>
<event>
12    4  0.4413110E-008  0.2530037E+04  0.7818608E-02  0.8392362E-01
         -2   -1    0    0    0  501 -0.00000000000E+00  0.00000000000E+00  0.43967381529E+03  0.43967381529E+03  0.00000000000E+00 0.  1.
          1   -1    0    0  501    0  0.00000000000E+00 -0.00000000000E+00 -0.36396784272E+04  0.36396784272E+04  0.00000000000E+00 0. -1.
        -24    2    1    2    0    0 -0.67632570620E+03  0.84264770763E+03 -0.18255696284E+04  0.21228786503E+04  0.80235128918E+02 0.  0.
        254    2    1    2    0    0  0.67632570620E+03 -0.84264770763E+03 -0.13744349835E+04  0.19564735921E+04  0.87820599679E+03 0.  0.
         23    2    4    4    0    0  0.56516433458E+03 -0.58498477887E+03 -0.34951177475E+03  0.88998972526E+03  0.91133494376E+02 0.  0.
         23    2    4    4    0    0  0.11116137162E+03 -0.25766292876E+03 -0.10249232088E+04  0.10664838669E+04  0.90405857286E+02 0.  0.
          3    1    3    3  502    0 -0.60960353103E+03  0.77257600337E+03 -0.16164360812E+04  0.18924470272E+04  0.00000000000E+00 0. -1.
         -4    1    3    3    0  502 -0.66722175164E+02  0.70071704259E+02 -0.20913354714E+03  0.23043162312E+03  0.00000000000E+00 0.  1.
         11    1    5    5    0    0  0.38310561212E+03 -0.33915612930E+03 -0.19817981136E+03  0.54870030773E+03  0.00000000000E+00 0. -1.
        -11    1    5    5    0    0  0.18205872246E+03 -0.24582864958E+03 -0.15133196339E+03  0.34128941753E+03  0.00000000000E+00 0.  1.
          2    1    6    6  503    0  0.92091503684E+02 -0.25910409651E+03 -0.97455772951E+03  0.10126097699E+04  0.00000000000E+00 0. -1.
         -2    1    6    6    0  503  0.19069867934E+02  0.14411677501E+01 -0.50365479268E+02  0.53874097017E+02  0.00000000000E+00 0.  1.
<mgrwt>
<rscale>  0 0.25300366E+04</rscale>
<asrwt>0</asrwt>
<pdfrwt beam="1">  1        1 0.55995051E+00 0.25300366E+04</pdfrwt>
<pdfrwt beam="2">  1       -2 0.67642128E-01 0.25300366E+04</pdfrwt>
<totfact> 0.30192480E-01</totfact>
</mgrwt>
</event>
<event>
12    4  0.4413110E-008  0.1741619E+04  0.7818608E-02  0.8737977E-01
         -2   -1    0    0    0  501 -0.00000000000E+00  0.00000000000E+00  0.79796621257E+03  0.79796621257E+03  0.00000000000E+00 0.  1.
          1   -1    0    0  501    0  0.00000000000E+00 -0.00000000000E+00 -0.95030184891E+03  0.95030184891E+03  0.00000000000E+00 0. -1.
        -24    2    1    2    0    0  0.39611206332E+02 -0.37633851977E+03  0.45613829366E+03  0.59791654313E+03  0.79008356973E+02 0.  0.
        254    2    1    2    0    0 -0.39611206332E+02  0.37633851977E+03 -0.60847393000E+03  0.11503515183E+04  0.89992686544E+03 0.  0.
         23    2    4    4    0    0 -0.39794038893E+03 -0.17547815569E+02 -0.12967483541E+03  0.42915065335E+03  0.93221464044E+02 0.  0.
         23    2    4    4    0    0  0.35832918260E+03  0.39388633534E+03 -0.47879909459E+03  0.72120086500E+03  0.85649672615E+02 0.  0.
          3    1    3    3  502    0  0.10623414838E+02 -0.62833526666E+02  0.36958116254E+02  0.73666894689E+02  0.00000000000E+00 0. -1.
         -4    1    3    3    0  502  0.28987791493E+02 -0.31350499311E+03  0.41918017741E+03  0.52424964844E+03  0.00000000000E+00 0.  1.
         11    1    5    5    0    0 -0.23663764919E+02  0.12870640555E+02  0.96683694693E+01  0.28620002212E+02  0.00000000000E+00 0.  1.
        -11    1    5    5    0    0 -0.37427662401E+03 -0.30418456124E+02 -0.13934320488E+03  0.40053065114E+03  0.00000000000E+00 0. -1.
          1    1    6    6  503    0  0.26935809714E+03  0.34500280316E+03 -0.38264954100E+03  0.58137886951E+03  0.00000000000E+00 0. -1.
         -1    1    6    6    0  503  0.88971085463E+02  0.48883532182E+02 -0.96149553587E+02  0.13982199549E+03  0.00000000000E+00 0.  1.
<mgrwt>
<rscale>  0 0.17416185E+04</rscale>
<asrwt>0</asrwt>
<pdfrwt beam="1">  1        1 0.14620028E+00 0.17416185E+04</pdfrwt>
<pdfrwt beam="2">  1       -2 0.12276403E+00 0.17416185E+04</pdfrwt>
<totfact> 0.69068991E+00</totfact>
</mgrwt>
</event>
<event>
12    4  0.4413110E-008  0.2471531E+04  0.7818608E-02  0.8413199E-01
         -2   -1    0    0    0  501 -0.00000000000E+00  0.00000000000E+00  0.95654927281E+03  0.95654927281E+03  0.00000000000E+00 0.  1.
          1   -1    0    0  501    0  0.00000000000E+00 -0.00000000000E+00 -0.15964845876E+04  0.15964845876E+04  0.00000000000E+00 0. -1.
        -24    2    1    2    0    0 -0.92928824619E+03 -0.43544318507E+03 -0.58160480734E+03  0.11821841766E+04  0.78152822089E+02 0.  0.
        254    2    1    2    0    0  0.92928824619E+03  0.43544318507E+03 -0.58330507427E+02  0.13708496838E+04  0.90699448479E+03 0.  0.
         23    2    4    4    0    0  0.18037764399E+03 -0.17178801342E+03 -0.27249437945E+03  0.37938234131E+03  0.87353065512E+02 0.  0.
         23    2    4    4    0    0  0.74891060220E+03  0.60723119849E+03  0.21416387203E+03  0.99146734245E+03  0.86859130507E+02 0.  0.
          3    1    3    3  502    0 -0.24970112478E+03 -0.93041196566E+02 -0.12087405542E+03  0.29260528575E+03  0.00000000000E+00 0. -1.
         -4    1    3    3    0  502 -0.67958712141E+03 -0.34240198850E+03 -0.46073075192E+03  0.88957889087E+03  0.00000000000E+00 0.  1.
         11    1    5    5    0    0  0.67697344803E+02 -0.35077313003E+02 -0.37165665330E+02  0.84821194641E+02  0.00000000000E+00 0. -1.
        -11    1    5    5    0    0  0.11268029919E+03 -0.13671070042E+03 -0.23532871412E+03  0.29456114667E+03  0.00000000000E+00 0.  1.
          2    1    6    6  503    0  0.11741830814E+03  0.68007840063E+02  0.52472438160E+02  0.14548361476E+03  0.00000000000E+00 0. -1.
         -2    1    6    6    0  503  0.63149229406E+03  0.53922335843E+03  0.16169143387E+03  0.84598372769E+03  0.00000000000E+00 0.  1.
<mgrwt>
<rscale>  0 0.24715308E+04</rscale>
<asrwt>0</asrwt>
<pdfrwt beam="1">  1        1 0.24561301E+00 0.24715308E+04</pdfrwt>
<pdfrwt beam="2">  1       -2 0.14716143E+00 0.24715308E+04</pdfrwt>
<totfact> 0.13832145E+00</totfact>
</mgrwt>
</event>
<event>
12    4  0.4413110E-008  0.1880058E+04  0.7818608E-02  0.8664847E-01
          1   -1    0    0  501    0  0.00000000000E+00  0.00000000000E+00  0.66430538359E+03  0.66430538359E+03  0.00000000000E+00 0. -1.
         -2   -1    0    0    0  501 -0.00000000000E+00 -0.00000000000E+00 -0.13301938825E+04  0.13301938825E+04  0.00000000000E+00 0.  1.
        -24    2    1    2    0    0  0.38366232250E+03 -0.51541679360E+03  0.98215655112E+02  0.65489561339E+03  0.79941858175E+02 0.  0.
        254    2    1    2    0    0 -0.38366232250E+03  0.51541679360E+03 -0.76410415399E+03  0.13396036527E+04  0.89321416206E+03 0.  0.
         23    2    4    4    0    0 -0.43547518818E+03  0.59377385218E+03 -0.21108121185E+03  0.77144496023E+03  0.91465958776E+02 0.  0.
         23    2    4    4    0    0  0.51812865681E+02 -0.78357058577E+02 -0.55302294214E+03  0.56815869245E+03  0.90252554527E+02 0.  0.
          3    1    3    3  502    0  0.33719220597E+03 -0.40642302566E+03  0.66667461755E+02  0.53228076239E+03  0.00000000000E+00 0. -1.
         -4    1    3    3    0  502  0.46470116530E+02 -0.10899376794E+03  0.31548193357E+02  0.12261485099E+03  0.00000000000E+00 0.  1.
         11    1    5    5    0    0 -0.43225805003E+03  0.59553810634E+03 -0.20425766717E+03  0.76369748757E+03  0.00000000000E+00 0. -1.
        -11    1    5    5    0    0 -0.32171381479E+01 -0.17642541589E+01 -0.68235446854E+01  0.77474726636E+01  0.00000000000E+00 0.  1.
          2    1    6    6  503    0  0.56578446058E+02 -0.89504727618E+02 -0.54032435980E+03  0.55060206194E+03  0.00000000000E+00 0. -1.
         -2    1    6    6    0  503 -0.47655803761E+01  0.11147669041E+02 -0.12698582338E+02  0.17556630508E+02  0.00000000000E+00 0.  1.
<mgrwt>
<rscale>  0 0.18800585E+04</rscale>
<asrwt>0</asrwt>
<pdfrwt beam="1">  1        1 0.10220083E+00 0.18800585E+04</pdfrwt>
<pdfrwt beam="2">  1       -2 0.20464521E+00 0.18800585E+04</pdfrwt>
<totfact> 0.29989514E+00</totfact>
</mgrwt>
</event>
<event>
12    4  0.4413110E-008  0.1865798E+04  0.7818608E-02  0.8672071E-01
          1   -1    0    0  501    0  0.00000000000E+00  0.00000000000E+00  0.14304768655E+04  0.14304768655E+04  0.00000000000E+00 0. -1.
         -2   -1    0    0    0  501 -0.00000000000E+00 -0.00000000000E+00 -0.60839912176E+03  0.60839912176E+03  0.00000000000E+00 0.  1.
        -24    2    1    2    0    0 -0.34480369401E+02  0.62333626201E+03 -0.63988903446E+02  0.63234430134E+03  0.77638548869E+02 0.  0.
        254    2    1    2    0    0  0.34480369401E+02 -0.62333626201E+03  0.88606664720E+03  0.14065316859E+04  0.89637062024E+03 0.  0.
         23    2    4    4    0    0  0.60624809104E+02 -0.91429136163E+02  0.85312658895E+03  0.86508600949E+03  0.92272274411E+02 0.  0.
         23    2    4    4    0    0 -0.26144439703E+02 -0.53190712584E+03  0.32940058247E+02  0.54144567643E+03  0.92030705958E+02 0.  0.
          1    1    3    3  502    0  0.31532531387E+01  0.21658050437E+03  0.11611462239E+02  0.21691446225E+03  0.00000000000E+00 0. -1.
         -2    1    3    3    0  502 -0.37633622540E+02  0.40675575764E+03 -0.75600365685E+02  0.41542983909E+03  0.00000000000E+00 0.  1.
         11    1    5    5    0    0 -0.15488789623E+02  0.71027676165E+01  0.15604920388E+03  0.15697676880E+03  0.00000000000E+00 0.  1.
        -11    1    5    5    0    0  0.76113598728E+02 -0.98531903779E+02  0.69707738508E+03  0.70810924070E+03  0.00000000000E+00 0. -1.
          1    1    6    6  503    0 -0.14959077992E+02 -0.52324055599E+03  0.22639712626E+02  0.52394370884E+03  0.00000000000E+00 0. -1.
         -1    1    6    6    0  503 -0.11185361711E+02 -0.86665698541E+01  0.10300345621E+02  0.17501967591E+02  0.00000000000E+00 0.  1.
<mgrwt>
<rscale>  0 0.18657983E+04</rscale>
<asrwt>0</asrwt>
<pdfrwt beam="1">  1        1 0.22007336E+00 0.18657983E+04</pdfrwt>
<pdfrwt beam="2">  1       -2 0.93599865E-01 0.18657983E+04</pdfrwt>
<totfact> 0.58109179E+00</totfact>
</mgrwt>
</event>
<event>
12    4  0.4413110E-008  0.1247832E+04  0.7818608E-02  0.9071989E-01
         -2   -1    0    0    0  501 -0.00000000000E+00  0.00000000000E+00  0.21607560737E+03  0.21607560737E+03  0.00000000000E+00 0.  1.
          1   -1    0    0  501    0  0.00000000000E+00 -0.00000000000E+00 -0.18015511281E+04  0.18015511281E+04  0.00000000000E+00 0. -1.
        -24    2    1    2    0    0  0.11409731636E+03  0.23527479841E+02 -0.80630817556E+03  0.81854551000E+03  0.79448965087E+02 0.  0.
        254    2    1    2    0    0 -0.11409731636E+03 -0.23527479841E+02 -0.77916734515E+03  0.11990812255E+04  0.90394816975E+03 0.  0.
         23    2    4    4    0    0 -0.47876085660E+03 -0.18801571700E+02 -0.62741649376E+03  0.79380786099E+03  0.83150505785E+02 0.  0.
         23    2    4    4    0    0  0.36466354024E+03 -0.47259081411E+01 -0.15175085139E+03  0.40527336448E+03  0.90644069114E+02 0.  0.
          1    1    3    3  502    0  0.77771094093E+02  0.53028531356E+02 -0.55172463098E+03  0.55969673631E+03  0.00000000000E+00 0. -1.
         -2    1    3    3    0  502  0.36326222262E+02 -0.29501051515E+02 -0.25458354459E+03  0.25884877368E+03  0.00000000000E+00 0.  1.
         11    1    5    5    0    0 -0.21985615567E+03  0.94226052203E+01 -0.34884953433E+03  0.41245789152E+03  0.00000000000E+00 0. -1.
        -11    1    5    5    0    0 -0.25890470093E+03 -0.28224176920E+02 -0.27856695943E+03  0.38134996947E+03  0.00000000000E+00 0.  1.
          3    1    6    6  503    0  0.25338387331E+03 -0.28133571409E+02 -0.67432273673E+02  0.26370816564E+03  0.00000000000E+00 0. -1.
         -3    1    6    6    0  503  0.11127966693E+03  0.23407663268E+02 -0.84318577718E+02  0.14156519883E+03  0.00000000000E+00 0.  1.
<mgrwt>
<rscale>  0 0.12478321E+04</rscale>
<asrwt>0</asrwt>
<pdfrwt beam="1">  1        1 0.27716170E+00 0.12478321E+04</pdfrwt>
<pdfrwt beam="2">  1       -2 0.33242402E-01 0.12478321E+04</pdfrwt>
<totfact> 0.29756622E+01</totfact>
</mgrwt>
</event>
<event>
12    4  0.4413110E-008  0.1511139E+04  0.7818608E-02  0.8877079E-01
          1   -1    0    0  501    0  0.00000000000E+00  0.00000000000E+00  0.15347512337E+04  0.15347512337E+04  0.00000000000E+00 0. -1.
         -2   -1    0    0    0  501 -0.00000000000E+00 -0.00000000000E+00 -0.37197268526E+03  0.37197268526E+03  0.00000000000E+00 0.  1.
        -24    2    1    2    0    0  0.42589046008E+03  0.22754234486E+03  0.33915472317E+03  0.59535926337E+03  0.79174007997E+02 0.  0.
        254    2    1    2    0    0 -0.42589046008E+03 -0.22754234486E+03  0.82362382525E+03  0.13113646556E+04  0.89897878264E+03 0.  0.
         23    2    4    4    0    0  0.44362655368E+02  0.27027796574E+03  0.42572312379E+03  0.51397323040E+03  0.88938627625E+02 0.  0.
         23    2    4    4    0    0 -0.47025311545E+03 -0.49782031060E+03  0.39790070146E+03  0.79739142516E+03  0.92439507035E+02 0.  0.
          3    1    3    3  502    0  0.11116977398E+03  0.91198571642E+02  0.73254058280E+02  0.16137550982E+03  0.00000000000E+00 0. -1.
         -4    1    3    3    0  502  0.31472068611E+03  0.13634377321E+03  0.26590066489E+03  0.43398375355E+03  0.00000000000E+00 0.  1.
         11    1    5    5    0    0 -0.21636032570E+02  0.57690314637E+02  0.12975133718E+03  0.14363739000E+03  0.00000000000E+00 0. -1.
        -11    1    5    5    0    0  0.65998687938E+02  0.21258765111E+03  0.29597178661E+03  0.37033584040E+03  0.00000000000E+00 0.  1.
          1    1    6    6  503    0 -0.45590629324E+02 -0.95667438881E+02  0.67687942104E+02  0.12574745266E+03  0.00000000000E+00 0. -1.
         -1    1    6    6    0  503 -0.42466248613E+03 -0.40215287172E+03  0.33021275936E+03  0.67164397250E+03  0.00000000000E+00 0.  1.
<mgrwt>
<rscale>  0 0.15111394E+04</rscale>
<asrwt>0</asrwt>
<pdfrwt beam="1">  1        1 0.23611557E+00 0.15111394E+04</pdfrwt>
<pdfrwt beam="2">  1       -2 0.57226568E-01 0.15111394E+04</pdfrwt>
<totfact> 0.15019441E+01</totfact>
</mgrwt>
</event>
<event>
12    4  0.4413110E-008  0.1320346E+04  0.7818608E-02  0.9013584E-01
         -2   -1    0    0    0  501 -0.00000000000E+00  0.00000000000E+00  0.66922926807E+03  0.66922926807E+03  0.00000000000E+00 0.  1.
          1   -1    0    0  501    0  0.00000000000E+00 -0.00000000000E+00 -0.65123954230E+03  0.65123954230E+03  0.00000000000E+00 0. -1.
        -24    2    1    2    0    0 -0.30133076979E+03 -0.16883020393E+02  0.17615054933E+03  0.35895798522E+03  0.82076488267E+02 0.  0.
        254    2    1    2    0    0  0.30133076979E+03  0.16883020393E+02 -0.15816082355E+03  0.96151082515E+03  0.89911231310E+03 0.  0.
         23    2    4    4    0    0  0.60099004813E+03 -0.58415328417E+02 -0.18700428528E+03  0.63858523342E+03  0.90659302263E+02 0.  0.
         23    2    4    4    0    0 -0.29965927833E+03  0.75298348810E+02  0.28843461723E+02  0.32292559173E+03  0.89350255090E+02 0.  0.
          1    1    3    3  502    0  0.40649308354E+00 -0.47804860883E+01  0.16884217003E+02  0.17552637058E+02  0.00000000000E+00 0. -1.
         -2    1    3    3    0  502 -0.30173726288E+03 -0.12102534305E+02  0.15926633233E+03  0.34140534817E+03  0.00000000000E+00 0.  1.
         11    1    5    5    0    0  0.41211309512E+03 -0.76536996428E+02 -0.10656253585E+03  0.43249357110E+03  0.00000000000E+00 0. -1.
        -11    1    5    5    0    0  0.18887695301E+03  0.18121668012E+02 -0.80441749423E+02  0.20609166232E+03  0.00000000000E+00 0.  1.
          4    1    6    6  503    0 -0.23074776452E+03  0.90798631422E+02  0.38459557751E+01  0.24799942273E+03  0.00000000000E+00 0. -1.
         -4    1    6    6    0  503 -0.68911513819E+02 -0.15500282612E+02  0.24997505948E+02  0.74926169003E+02  0.00000000000E+00 0.  1.
<mgrwt>
<rscale>  0 0.13203463E+04</rscale>
<asrwt>0</asrwt>
<pdfrwt beam="1">  1        1 0.10019070E+00 0.13203463E+04</pdfrwt>
<pdfrwt beam="2">  1       -2 0.10295835E+00 0.13203463E+04</pdfrwt>
<totfact> 0.20097588E+01</totfact>
</mgrwt>
</event>
<event>
12    4  0.4413110E-008  0.3149186E+04  0.7818608E-02  0.8202367E-01
          1   -1    0    0  501    0  0.00000000000E+00  0.00000000000E+00  0.13197084946E+04  0.13197084946E+04  0.00000000000E+00 0. -1.
         -2   -1    0    0    0  501 -0.00000000000E+00 -0.00000000000E+00 -0.18787047819E+04  0.18787047819E+04  0.00000000000E+00 0.  1.
        -24    2    1    2    0    0 -0.10365320908E+04 -0.20524111178E+03 -0.12621460119E+04  0.16480156810E+04  0.80127649079E+02 0.  0.
        254    2    1    2    0    0  0.10365320908E+04  0.20524111178E+03  0.70314972453E+03  0.15503975955E+04  0.89038782551E+03 0.  0.
         23    2    4    4    0    0 -0.12851385111E+03  0.95019049123E+02  0.20272071742E+03  0.27447865446E+03  0.93265282175E+02 0.  0.
         23    2    4    4    0    0  0.11650459419E+04  0.11022206266E+03  0.50042900711E+03  0.12759189411E+04  0.89771950445E+02 0.  0.
          1    1    3    3  502    0 -0.56108693767E+03 -0.80766636741E+02 -0.63443332344E+03  0.85079224439E+03  0.00000000000E+00 0. -1.
         -2    1    3    3    0  502 -0.47544515315E+03 -0.12447447504E+03 -0.62771268843E+03  0.79722343657E+03  0.00000000000E+00 0.  1.
         11    1    5    5    0    0 -0.20345304725E+02 -0.13044252135E+02  0.62530966170E+02  0.67038837015E+02  0.00000000000E+00 0. -1.
        -11    1    5    5    0    0 -0.10816854639E+03  0.10806330126E+03  0.14018975125E+03  0.20743981744E+03  0.00000000000E+00 0.  1.
          2    1    6    6  503    0  0.46283524919E+03  0.63380593899E+02  0.15705865416E+03  0.49284986398E+03  0.00000000000E+00 0. -1.
         -2    1    6    6    0  503  0.70221069274E+03  0.46841468759E+02  0.34337035295E+03  0.78306907708E+03  0.00000000000E+00 0.  1.
<mgrwt>
<rscale>  0 0.31491857E+04</rscale>
<asrwt>0</asrwt>
<pdfrwt beam="1">  1        1 0.20303208E+00 0.31491857E+04</pdfrwt>
<pdfrwt beam="2">  1       -2 0.28903150E+00 0.31491857E+04</pdfrwt>
<totfact> 0.23962422E-01</totfact>
</mgrwt>
</event>
<event>
12    4  0.4413110E-008  0.2800843E+04  0.7818608E-02  0.8303007E-01
         -2   -1    0    0    0  501 -0.00000000000E+00  0.00000000000E+00  0.11379836978E+04  0.11379836978E+04  0.00000000000E+00 0.  1.
          1   -1    0    0  501    0  0.00000000000E+00 -0.00000000000E+00 -0.17233816723E+04  0.17233816723E+04  0.00000000000E+00 0. -1.
        -24    2    1    2    0    0 -0.19121709914E+03  0.10837084547E+04 -0.88998955788E+03  0.14175418128E+04  0.79720662669E+02 0.  0.
        254    2    1    2    0    0  0.19121709914E+03 -0.10837084547E+04  0.30459158331E+03  0.14438235573E+04  0.88366421125E+03 0.  0.
         23    2    4    4    0    0 -0.21992025944E+01 -0.17262032705E+03 -0.27963900672E+03  0.34051098618E+03  0.89146754444E+02 0.  0.
         23    2    4    4    0    0  0.19341630174E+03 -0.91108812766E+03  0.58423059003E+03  0.11033125711E+04  0.92096716413E+02 0.  0.
          3    1    3    3  502    0 -0.69383183406E+02  0.43013884666E+03 -0.30340488429E+03  0.53093123600E+03  0.00000000000E+00 0. -1.
         -4    1    3    3    0  502 -0.12183391574E+03  0.65356960805E+03 -0.58658467359E+03  0.88661057679E+03  0.00000000000E+00 0.  1.
         11    1    5    5    0    0  0.21367683035E+01 -0.11938478834E+03 -0.10887651422E+03  0.16159018786E+03  0.00000000000E+00 0.  1.
        -11    1    5    5    0    0 -0.43359708979E+01 -0.53235538708E+02 -0.17076249250E+03  0.17892079831E+03  0.00000000000E+00 0. -1.
          2    1    6    6  503    0  0.18975385762E+03 -0.89435276803E+03  0.58622850854E+03  0.10860650369E+04  0.00000000000E+00 0. -1.
         -2    1    6    6    0  503  0.36624441156E+01 -0.16735359629E+02 -0.19979185110E+01  0.17247534235E+02  0.00000000000E+00 0.  1.
<mgrwt>
<rscale>  0 0.28008429E+04</rscale>
<asrwt>0</asrwt>
<pdfrwt beam="1">  1        1 0.26513564E+00 0.28008429E+04</pdfrwt>
<pdfrwt beam="2">  1       -2 0.17507442E+00 0.28008429E+04</pdfrwt>
<totfact> 0.68574292E-01</totfact>
</mgrwt>
</event>
<event>
12    4  0.4413110E-008  0.2360188E+04  0.7818608E-02  0.8454561E-01
          1   -1    0    0  501    0  0.00000000000E+00  0.00000000000E+00  0.18081239769E+04  0.18081239769E+04  0.00000000000E+00 0. -1.
         -2   -1    0    0    0  501 -0.00000000000E+00 -0.00000000000E+00 -0.77020270869E+03  0.77020270869E+03  0.00000000000E+00 0.  1.
        -24    2    1    2    0    0 -0.52745599014E+03 -0.82501431826E+03  0.70106929005E+03  0.12069048894E+04  0.79137953997E+02 0.  0.
        254    2    1    2    0    0  0.52745599014E+03  0.82501431826E+03  0.33685197817E+03  0.13714217962E+04  0.89914962102E+03 0.  0.
         23    2    4    4    0    0  0.52986616759E+02  0.23617245828E+03 -0.28686850521E+03  0.38688793260E+03  0.93828148807E+02 0.  0.
         23    2    4    4    0    0  0.47446937338E+03  0.58884185998E+03  0.62372048338E+03  0.98453386358E+03  0.91781069996E+02 0.  0.
          3    1    3    3  502    0 -0.37173347907E+03 -0.64229421580E+03  0.54061169154E+03  0.91814412819E+03  0.00000000000E+00 0. -1.
         -4    1    3    3    0  502 -0.15572251108E+03 -0.18272010246E+03  0.16045759851E+03  0.28876076122E+03  0.00000000000E+00 0.  1.
         11    1    5    5    0    0  0.18693014620E+02  0.20867219864E+03 -0.20056406945E+03  0.29003355192E+03  0.00000000000E+00 0. -1.
        -11    1    5    5    0    0  0.34293602139E+02  0.27500259643E+02 -0.86304435753E+02  0.96854380689E+02  0.00000000000E+00 0.  1.
          1    1    6    6  503    0  0.13759137820E+03  0.23915429568E+03  0.23915616197E+03  0.36513262564E+03  0.00000000000E+00 0.  1.
         -1    1    6    6    0  503  0.33687799518E+03  0.34968756430E+03  0.38456432140E+03  0.61940123794E+03  0.00000000000E+00 0. -1.
<mgrwt>
<rscale>  0 0.23601881E+04</rscale>
<asrwt>0</asrwt>
<pdfrwt beam="1">  1        1 0.27817292E+00 0.23601881E+04</pdfrwt>
<pdfrwt beam="2">  1       -2 0.11849273E+00 0.23601881E+04</pdfrwt>
<totfact> 0.17409819E+00</totfact>
</mgrwt>
</event>
<event>
12    4  0.4413110E-008  0.2390552E+04  0.7818608E-02  0.8443049E-01
          1   -1    0    0  501    0  0.00000000000E+00  0.00000000000E+00  0.13046657940E+04  0.13046657940E+04  0.00000000000E+00 0. -1.
         -2   -1    0    0    0  501 -0.00000000000E+00 -0.00000000000E+00 -0.10950578634E+04  0.10950578634E+04  0.00000000000E+00 0.  1.
        -24    2    1    2    0    0 -0.93039816065E+03 -0.42005713453E+03  0.17600508167E+03  0.10390022936E+04  0.80369420869E+02 0.  0.
        254    2    1    2    0    0  0.93039816065E+03  0.42005713453E+03  0.33602848935E+02  0.13607213638E+04  0.89907994354E+03 0.  0.
         23    2    4    4    0    0  0.74265598980E+03  0.68577495716E+03  0.86342044283E+02  0.10186394587E+04  0.91357469017E+02 0.  0.
         23    2    4    4    0    0  0.18774217085E+03 -0.26571782263E+03 -0.52739195348E+02  0.34208190512E+03  0.91572501928E+02 0.  0.
          3    1    3    3  502    0 -0.52167261964E+03 -0.21150320194E+03  0.13086438520E+03  0.57792855426E+03  0.00000000000E+00 0. -1.
         -4    1    3    3    0  502 -0.40872554100E+03 -0.20855393260E+03  0.45140696476E+02  0.46107373938E+03  0.00000000000E+00 0.  1.
         11    1    5    5    0    0  0.65318075456E+02  0.29388683711E+02  0.16659803597E+01  0.71644408031E+02  0.00000000000E+00 0. -1.
        -11    1    5    5    0    0  0.67733791434E+03  0.65638627345E+03  0.84676063923E+02  0.94699505066E+03  0.00000000000E+00 0.  1.
          3    1    6    6  503    0  0.10283841437E+03 -0.85933895652E+02  0.78072998240E+01  0.13424353922E+03  0.00000000000E+00 0.  1.
         -3    1    6    6    0  503  0.84903756478E+02 -0.17978392698E+03 -0.60546495172E+02  0.20783836590E+03  0.00000000000E+00 0. -1.
<mgrwt>
<rscale>  0 0.23905519E+04</rscale>
<asrwt>0</asrwt>
<pdfrwt beam="1">  1        1 0.20071781E+00 0.23905519E+04</pdfrwt>
<pdfrwt beam="2">  1       -2 0.16847044E+00 0.23905519E+04</pdfrwt>
<totfact> 0.15442177E+00</totfact>
</mgrwt>
</event>
<event>
12    4  0.4413110E-008  0.1837894E+04  0.7818608E-02  0.8686404E-01
          1   -1    0    0  501    0  0.00000000000E+00  0.00000000000E+00  0.12945065279E+04  0.12945065279E+04  0.00000000000E+00 0. -1.
         -2   -1    0    0    0  501 -0.00000000000E+00 -0.00000000000E+00 -0.65234368803E+03  0.65234368803E+03  0.00000000000E+00 0.  1.
        -24    2    1    2    0    0  0.32826502426E+03 -0.13632737527E+01  0.90416051846E+03  0.96581151163E+03  0.86751646618E+02 0.  0.
        254    2    1    2    0    0 -0.32826502426E+03  0.13632737527E+01 -0.26199767861E+03  0.98103870427E+03  0.88658579449E+03 0.  0.
         23    2    4    4    0    0  0.89041495268E+02 -0.33595018913E+03  0.35988631141E+02  0.36073737391E+03  0.89695896832E+02 0.  0.
         23    2    4    4    0    0 -0.41730651953E+03  0.33731346289E+03 -0.29798630975E+03  0.62030133035E+03  0.89737373192E+02 0.  0.
          1    1    3    3  502    0  0.22160540641E+03 -0.30055794369E+02  0.51910107092E+03  0.56522405182E+03  0.00000000000E+00 0. -1.
         -2    1    3    3    0  502  0.10665961785E+03  0.28692520616E+02  0.38505944754E+03  0.40058745981E+03  0.00000000000E+00 0.  1.
         11    1    5    5    0    0  0.30473561123E+02 -0.16227854785E+03  0.60446065617E+02  0.17583143026E+03  0.00000000000E+00 0. -1.
        -11    1    5    5    0    0  0.58567934145E+02 -0.17367164129E+03 -0.24457434476E+02  0.18490594365E+03  0.00000000000E+00 0.  1.
          1    1    6    6  503    0 -0.30269545000E+03  0.23757070902E+03 -0.25770916220E+03  0.46311811617E+03  0.00000000000E+00 0. -1.
         -1    1    6    6    0  503 -0.11461106953E+03  0.99742753862E+02 -0.40277147550E+02  0.15718321418E+03  0.00000000000E+00 0.  1.
<mgrwt>
<rscale>  0 0.18378935E+04</rscale>
<asrwt>0</asrwt>
<pdfrwt beam="1">  1        1 0.19915485E+00 0.18378935E+04</pdfrwt>
<pdfrwt beam="2">  1       -2 0.10036057E+00 0.18378935E+04</pdfrwt>
<totfact> 0.61687745E+00</totfact>
</mgrwt>
</event>
<event>
12    4  0.4413110E-008  0.1475394E+04  0.7818608E-02  0.8900983E-01
          1   -1    0    0  501    0  0.00000000000E+00  0.00000000000E+00  0.14429927122E+04  0.14429927122E+04  0.00000000000E+00 0. -1.
         -2   -1    0    0    0  501 -0.00000000000E+00 -0.00000000000E+00 -0.37713064750E+03  0.37713064750E+03  0.00000000000E+00 0.  1.
        -24    2    1    2    0    0 -0.12638665304E+02 -0.13796957574E+03 -0.20128651610E+03  0.25693887056E+03  0.79410213146E+02 0.  0.
        254    2    1    2    0    0  0.12638665304E+02  0.13796957574E+03  0.12671485808E+04  0.15631844891E+04  0.90481206975E+03 0.  0.
         23    2    4    4    0    0  0.13243004159E+03  0.28267078636E+03  0.13103706515E+04  0.13499132683E+04  0.88057357895E+02 0.  0.
         23    2    4    4    0    0 -0.11979137629E+03 -0.14470121062E+03 -0.43222070690E+02  0.21327122084E+03  0.91258161573E+02 0.  0.
          3    1    3    3  502    0  0.25242365693E+01 -0.82726164406E+01 -0.74273575552E+02  0.74775477118E+02  0.00000000000E+00 0. -1.
         -4    1    3    3    0  502 -0.15162901873E+02 -0.12969695930E+03 -0.12701294055E+03  0.18216339345E+03  0.00000000000E+00 0.  1.
         11    1    5    5    0    0  0.14064766107E+03  0.22286599798E+03  0.10378175956E+04  0.10707550510E+04  0.00000000000E+00 0.  1.
        -11    1    5    5    0    0 -0.82176194816E+01  0.59804788377E+02  0.27255305589E+03  0.27915821725E+03  0.00000000000E+00 0. -1.
          1    1    6    6  503    0 -0.35163881350E+02 -0.69853993847E+02  0.24002873261E+02  0.81805971254E+02  0.00000000000E+00 0. -1.
         -1    1    6    6    0  503 -0.84627494938E+02 -0.74847216774E+02 -0.67224943951E+02  0.13146524958E+03  0.00000000000E+00 0.  1.
<mgrwt>
<rscale>  0 0.14753939E+04</rscale>
<asrwt>0</asrwt>
<pdfrwt beam="1">  1        1 0.22199888E+00 0.14753939E+04</pdfrwt>
<pdfrwt beam="2">  1       -2 0.58020100E-01 0.14753939E+04</pdfrwt>
<totfact> 0.16945291E+01</totfact>
</mgrwt>
</event>
<event>
12    4  0.4413110E-008  0.2724237E+04  0.7818608E-02  0.8327184E-01
         -2   -1    0    0    0  501 -0.00000000000E+00  0.00000000000E+00  0.57133216852E+03  0.57133216852E+03  0.00000000000E+00 0.  1.
          1   -1    0    0  501    0  0.00000000000E+00 -0.00000000000E+00 -0.32474394779E+04  0.32474394779E+04  0.00000000000E+00 0. -1.
        -24    2    1    2    0    0  0.91434615223E+03  0.31035832907E+03 -0.17061026406E+03  0.98681380093E+03  0.11109652103E+03 0.  0.
        254    2    1    2    0    0 -0.91434615223E+03 -0.31035832907E+03 -0.25054970453E+04  0.28319578455E+04  0.90006589539E+03 0.  0.
         23    2    4    4    0    0  0.11291219124E+02  0.11319579743E+03 -0.10106923918E+04  0.10211452994E+04  0.91092433587E+02 0.  0.
         23    2    4    4    0    0 -0.92563737135E+03 -0.42355412650E+03 -0.14948046535E+04  0.18108125461E+04  0.91643240919E+02 0.  0.
          3    1    3    3  502    0  0.32672988194E+02 -0.71948039326E+01  0.35755768374E+01  0.33646309023E+02  0.00000000000E+00 0. -1.
         -4    1    3    3    0  502  0.88167316403E+03  0.31755313300E+03 -0.17418584090E+03  0.95316749191E+03  0.00000000000E+00 0.  1.
         11    1    5    5    0    0  0.49285909769E+02  0.85561113047E+02 -0.67868316250E+03  0.68582843338E+03  0.00000000000E+00 0. -1.
        -11    1    5    5    0    0 -0.37994690645E+02  0.27634684381E+02 -0.33200922929E+03  0.33531686601E+03  0.00000000000E+00 0.  1.
          1    1    6    6  503    0 -0.52469887804E+03 -0.19809565431E+03 -0.86521509548E+03  0.10310906664E+04  0.00000000000E+00 0. -1.
         -1    1    6    6    0  503 -0.40093849331E+03 -0.22545847219E+03 -0.62958955803E+03  0.77972187970E+03  0.00000000000E+00 0.  1.
<mgrwt>
<rscale>  0 0.27242369E+04</rscale>
<asrwt>0</asrwt>
<pdfrwt beam="1">  1        1 0.49960608E+00 0.27242369E+04</pdfrwt>
<pdfrwt beam="2">  1       -2 0.87897256E-01 0.27242369E+04</pdfrwt>
<totfact> 0.33478615E-01</totfact>
</mgrwt>
</event>
<event>
12    4  0.4413110E-008  0.3882470E+04  0.7818608E-02  0.8028685E-01
          1   -1    0    0  501    0  0.00000000000E+00  0.00000000000E+00  0.13652667252E+04  0.13652667252E+04  0.00000000000E+00 0. -1.
         -2   -1    0    0    0  501 -0.00000000000E+00 -0.00000000000E+00 -0.27601889104E+04  0.27601889104E+04  0.00000000000E+00 0.  1.
        -24    2    1    2    0    0 -0.67584489917E+03 -0.90799500508E+03  0.87550969846E+03  0.14347314826E+04  0.10351781569E+03 0.  0.
        254    2    1    2    0    0  0.67584489917E+03  0.90799500508E+03 -0.22704318836E+04  0.26907241530E+04  0.89661266567E+03 0.  0.
         23    2    4    4    0    0 -0.18790346302E+03  0.12733062225E+03 -0.63389925245E+03  0.68030449924E+03  0.97289005803E+02 0.  0.
         23    2    4    4    0    0  0.86374836219E+03  0.78066438284E+03 -0.16365326312E+04  0.20104196537E+04  0.89721900478E+02 0.  0.
          1    1    3    3  502    0 -0.67883726705E+03 -0.90584559923E+03  0.86834225822E+03  0.14266725490E+04  0.00000000000E+00 0. -1.
         -2    1    3    3    0  502  0.29923678812E+01 -0.21494058590E+01  0.71674402318E+01  0.80589335869E+01  0.00000000000E+00 0.  1.
         11    1    5    5    0    0 -0.14839793208E+03  0.61370631500E+02 -0.50806992417E+03  0.53284458194E+03  0.00000000000E+00 0. -1.
        -11    1    5    5    0    0 -0.39505530943E+02  0.65959990749E+02 -0.12582932828E+03  0.14745991730E+03  0.00000000000E+00 0.  1.
          4    1    6    6  503    0  0.50290245797E+03  0.51256126653E+03 -0.99402866545E+03  0.12262638060E+04  0.00000000000E+00 0. -1.
         -4    1    6    6    0  503  0.36084590422E+03  0.26810311631E+03 -0.64250396573E+03  0.78415584774E+03  0.00000000000E+00 0.  1.
<mgrwt>
<rscale>  0 0.38824704E+04</rscale>
<asrwt>0</asrwt>
<pdfrwt beam="1">  1        1 0.21004103E+00 0.38824704E+04</pdfrwt>
<pdfrwt beam="2">  1       -2 0.42464445E+00 0.38824704E+04</pdfrwt>
<totfact> 0.28791522E-02</totfact>
</mgrwt>
</event>
<event>
12    4  0.4413110E-008  0.2084582E+04  0.7818608E-02  0.8568066E-01
          1   -1    0    0  501    0  0.00000000000E+00  0.00000000000E+00  0.22620201796E+04  0.22620201796E+04  0.00000000000E+00 0. -1.
         -2   -1    0    0    0  501 -0.00000000000E+00 -0.00000000000E+00 -0.48026560892E+03  0.48026560892E+03  0.00000000000E+00 0.  1.
        -24    2    1    2    0    0 -0.17359306214E+03  0.76653966906E+03  0.31194994375E+03  0.84939288036E+03  0.80236415286E+02 0.  0.
        254    2    1    2    0    0  0.17359306214E+03 -0.76653966906E+03  0.14698046270E+04  0.18928929082E+04  0.89721809219E+03 0.  0.
         23    2    4    4    0    0 -0.33203594988E+03 -0.44966378710E+03  0.89704903416E+03  0.10609554972E+04  0.92109737929E+02 0.  0.
         23    2    4    4    0    0  0.50562901202E+03 -0.31687588196E+03  0.57275559282E+03  0.83193741104E+03  0.89441961155E+02 0.  0.
          3    1    3    3  502    0 -0.65168394265E+02  0.14631223299E+03  0.55027733908E+02  0.16935832024E+03  0.00000000000E+00 0. -1.
         -4    1    3    3    0  502 -0.10842466788E+03  0.62022743607E+03  0.25692220984E+03  0.68003456013E+03  0.00000000000E+00 0.  1.
         11    1    5    5    0    0 -0.27472235851E+03 -0.41817032587E+03  0.77468377967E+03  0.92221133922E+03  0.00000000000E+00 0. -1.
        -11    1    5    5    0    0 -0.57313591367E+02 -0.31493461238E+02  0.12236525449E+03  0.13874415794E+03  0.00000000000E+00 0.  1.
          2    1    6    6  503    0  0.40109946043E+03 -0.21929015256E+03  0.47148031007E+03  0.65670589380E+03  0.00000000000E+00 0. -1.
         -2    1    6    6    0  503  0.10452955159E+03 -0.97585729397E+02  0.10127528275E+03  0.17523151724E+03  0.00000000000E+00 0.  1.
<mgrwt>
<rscale>  0 0.20845820E+04</rscale>
<asrwt>0</asrwt>
<pdfrwt beam="1">  1        1 0.34800310E+00 0.20845820E+04</pdfrwt>
<pdfrwt beam="2">  1       -2 0.73887018E-01 0.20845820E+04</pdfrwt>
<totfact> 0.26387574E+00</totfact>
</mgrwt>
</event>
<event>
12    4  0.4413110E-008  0.1794867E+04  0.7818608E-02  0.8709034E-01
         -2   -1    0    0    0  501 -0.00000000000E+00  0.00000000000E+00  0.10434664044E+04  0.10434664044E+04  0.00000000000E+00 0.  1.
          1   -1    0    0  501    0  0.00000000000E+00 -0.00000000000E+00 -0.77183800198E+03  0.77183800198E+03  0.00000000000E+00 0. -1.
        -24    2    1    2    0    0 -0.30643438060E+03 -0.49568960054E+03  0.42011233383E+03  0.72228802000E+03  0.74802413760E+02 0.  0.
        254    2    1    2    0    0  0.30643438060E+03  0.49568960054E+03 -0.14848393139E+03  0.10930163864E+04  0.91270320114E+03 0.  0.
         23    2    4    4    0    0  0.34477993933E+03  0.60176161723E+03  0.19083168670E+03  0.72492493885E+03  0.90051006512E+02 0.  0.
         23    2    4    4    0    0 -0.38345558730E+02 -0.10607201669E+03 -0.33931561809E+03  0.36809144756E+03  0.87376029241E+02 0.  0.
          1    1    3    3  502    0 -0.12196227574E+03 -0.20821795101E+03  0.12974582514E+03  0.27397717234E+03  0.00000000000E+00 0. -1.
         -2    1    3    3    0  502 -0.18447210486E+03 -0.28747164953E+03  0.29036650869E+03  0.44831084766E+03  0.00000000000E+00 0.  1.
         11    1    5    5    0    0  0.33464250212E+03  0.59806268843E+03  0.17780807593E+03  0.70801150794E+03  0.00000000000E+00 0. -1.
        -11    1    5    5    0    0  0.10137437213E+02  0.36989288031E+01  0.13023610763E+02  0.16913430901E+02  0.00000000000E+00 0.  1.
          2    1    6    6  503    0 -0.55641081926E+02 -0.28700608689E+02 -0.16911378438E+03  0.18033060474E+03  0.00000000000E+00 0. -1.
         -2    1    6    6    0  503  0.17295523195E+02 -0.77371408005E+02 -0.17020183371E+03  0.18776084282E+03  0.00000000000E+00 0.  1.
<mgrwt>
<rscale>  0 0.17948672E+04</rscale>
<asrwt>0</asrwt>
<pdfrwt beam="1">  1        1 0.11874431E+00 0.17948672E+04</pdfrwt>
<pdfrwt beam="2">  1       -2 0.16053329E+00 0.17948672E+04</pdfrwt>
<totfact> 0.48300316E+00</totfact>
</mgrwt>
</event>
<event>
12    4  0.4413110E-008  0.2253481E+04  0.7818608E-02  0.8496492E-01
         -2   -1    0    0    0  501 -0.00000000000E+00  0.00000000000E+00  0.22630688427E+04  0.22630688427E+04  0.00000000000E+00 0.  1.
          1   -1    0    0  501    0  0.00000000000E+00 -0.00000000000E+00 -0.56098362507E+03  0.56098362507E+03  0.00000000000E+00 0. -1.
        -24    2    1    2    0    0 -0.62957575569E+03 -0.16940484676E+02 -0.16569998309E+03  0.65609575976E+03  0.79702882055E+02 0.  0.
        254    2    1    2    0    0  0.62957575569E+03  0.16940484676E+02  0.18677852007E+04  0.21679567080E+04  0.90264174486E+03 0.  0.
         23    2    4    4    0    0  0.50670689587E+03  0.10365136191E+02  0.30642524707E+03  0.59891150276E+03  0.89102422701E+02 0.  0.
         23    2    4    4    0    0  0.12286885982E+03  0.65753484844E+01  0.15613599536E+04  0.15690452052E+04  0.94434947491E+02 0.  0.
          1    1    3    3  502    0 -0.55309037810E+03 -0.38461981601E+02 -0.13287218815E+03  0.57012569558E+03  0.00000000000E+00 0. -1.
         -2    1    3    3    0  502 -0.76485377588E+02  0.21521496925E+02 -0.32827794942E+02  0.85970064182E+02  0.00000000000E+00 0.  1.
         11    1    5    5    0    0  0.65517973377E+02 -0.16233492564E+02  0.71650404473E+02  0.98437348488E+02  0.00000000000E+00 0. -1.
        -11    1    5    5    0    0  0.44118892249E+03  0.26598628755E+02  0.23477484260E+03  0.50047415428E+03  0.00000000000E+00 0.  1.
          2    1    6    6  503    0  0.10564111007E+03  0.23342070003E+02  0.79726460064E+03  0.80457177418E+03  0.00000000000E+00 0. -1.
         -2    1    6    6    0  503  0.17227749750E+02 -0.16766721519E+02  0.76409535298E+03  0.76447343103E+03  0.00000000000E+00 0.  1.
<mgrwt>
<rscale>  0 0.22534814E+04</rscale>
<asrwt>0</asrwt>
<pdfrwt beam="1">  1        1 0.86305175E-01 0.22534814E+04</pdfrwt>
<pdfrwt beam="2">  1       -2 0.34816443E+00 0.22534814E+04</pdfrwt>
<totfact> 0.47965760E-01</totfact>
</mgrwt>
</event>
<event>
12    4  0.4413110E-008  0.1224173E+04  0.7818608E-02  0.9091957E-01
          1   -1    0    0  501    0  0.00000000000E+00  0.00000000000E+00  0.37249114662E+04  0.37249114662E+04  0.00000000000E+00 0. -1.
         -2   -1    0    0    0  501 -0.00000000000E+00 -0.00000000000E+00 -0.10057950313E+03  0.10057950313E+03  0.00000000000E+00 0.  1.
        -24    2    1    2    0    0  0.20829851045E+03  0.15148481977E+03  0.51146721097E+03  0.57774679826E+03  0.76529307633E+02 0.  0.
        254    2    1    2    0    0 -0.20829851045E+03 -0.15148481977E+03  0.31128647521E+04  0.32477441711E+04  0.88970743266E+03 0.  0.
         23    2    4    4    0    0 -0.44151615878E+03 -0.31248167882E+03  0.25853719838E+04  0.26427327009E+04  0.85478161893E+02 0.  0.
         23    2    4    4    0    0  0.23321764832E+03  0.16099685905E+03  0.52749276838E+03  0.60501147016E+03  0.86485826695E+02 0.  0.
          3    1    3    3  502    0  0.43109351821E+02  0.98154011989E+01  0.14442863336E+03  0.15104432611E+03  0.00000000000E+00 0. -1.
         -4    1    3    3    0  502  0.16518915863E+03  0.14166941857E+03  0.36703857760E+03  0.42670247215E+03  0.00000000000E+00 0.  1.
         11    1    5    5    0    0 -0.38676861361E+03 -0.23658380269E+03  0.20925839369E+04  0.21411374054E+04  0.00000000000E+00 0. -1.
        -11    1    5    5    0    0 -0.54747545166E+02 -0.75897876130E+02  0.49278804691E+03  0.50159529551E+03  0.00000000000E+00 0.  1.
          4    1    6    6  503    0  0.11484262333E+03  0.36537336731E+02  0.26763195147E+03  0.29351433790E+03  0.00000000000E+00 0. -1.
         -4    1    6    6    0  503  0.11837502499E+03  0.12445952232E+03  0.25986081691E+03  0.31149713225E+03  0.00000000000E+00 0.  1.
<mgrwt>
<rscale>  0 0.12241728E+04</rscale>
<asrwt>0</asrwt>
<pdfrwt beam="1">  1        1 0.57306320E+00 0.12241728E+04</pdfrwt>
<pdfrwt beam="2">  1       -2 0.15473773E-01 0.12241728E+04</pdfrwt>
<totfact> 0.48814111E+00</totfact>
</mgrwt>
</event>
<event>
12    4  0.4413110E-008  0.1339973E+04  0.7818608E-02  0.8998453E-01
          1   -1    0    0  501    0  0.00000000000E+00  0.00000000000E+00  0.15536110468E+04  0.15536110468E+04  0.00000000000E+00 0. -1.
         -2   -1    0    0    0  501 -0.00000000000E+00 -0.00000000000E+00 -0.28892818065E+03  0.28892818065E+03  0.00000000000E+00 0.  1.
        -24    2    1    2    0    0 -0.63200898170E+02 -0.97919354115E+02 -0.12368512782E+03  0.18686489202E+03  0.77704077009E+02 0.  0.
        254    2    1    2    0    0  0.63200898170E+02  0.97919354115E+02  0.13883679940E+04  0.16556743355E+04  0.89448826985E+03 0.  0.
         23    2    4    4    0    0  0.25006218515E+03 -0.21402459499E+03  0.17098319410E+03  0.38187441680E+03  0.90858097263E+02 0.  0.
         23    2    4    4    0    0 -0.18686128698E+03  0.31194394911E+03  0.12173847999E+04  0.12737999187E+04  0.91182859187E+02 0.  0.
          3    1    3    3  502    0 -0.29425893136E+02 -0.74632502591E+02 -0.31909268957E+02  0.86337101383E+02  0.00000000000E+00 0. -1.
         -4    1    3    3    0  502 -0.33775005034E+02 -0.23286851523E+02 -0.91775858866E+02  0.10052779063E+03  0.00000000000E+00 0.  1.
         11    1    5    5    0    0  0.12625939559E+03 -0.16469916985E+03  0.11565847593E+03  0.23757974362E+03  0.00000000000E+00 0.  1.
        -11    1    5    5    0    0  0.12380278955E+03 -0.49325425144E+02  0.55324718176E+02  0.14429467318E+03  0.00000000000E+00 0. -1.
          1    1    6    6  503    0 -0.33435967399E+02  0.79963035540E+01  0.10685478732E+03  0.11224905505E+03  0.00000000000E+00 0. -1.
         -1    1    6    6    0  503 -0.15342531958E+03  0.30394764555E+03  0.11105300126E+04  0.11615508636E+04  0.00000000000E+00 0.  1.
<mgrwt>
<rscale>  0 0.13399732E+04</rscale>
<asrwt>0</asrwt>
<pdfrwt beam="1">  1        1 0.23901708E+00 0.13399732E+04</pdfrwt>
<pdfrwt beam="2">  1       -2 0.44450490E-01 0.13399732E+04</pdfrwt>
<totfact> 0.24779853E+01</totfact>
</mgrwt>
</event>
<event>
12    4  0.4413110E-008  0.3198468E+04  0.7818608E-02  0.8189222E-01
          1   -1    0    0  501    0  0.00000000000E+00  0.00000000000E+00  0.26229877745E+04  0.26229877745E+04  0.00000000000E+00 0. -1.
         -2   -1    0    0    0  501 -0.00000000000E+00 -0.00000000000E+00 -0.97505226375E+03  0.97505226375E+03  0.00000000000E+00 0.  1.
        -24    2    1    2    0    0 -0.67191274592E+03  0.36229730143E+03  0.21715895997E+04  0.23033911077E+04  0.84161349309E+02 0.  0.
        254    2    1    2    0    0  0.67191274592E+03 -0.36229730143E+03 -0.52365408887E+03  0.12946489306E+04  0.90508351883E+03 0.  0.
         23    2    4    4    0    0  0.21583644561E+03 -0.18308125600E+03 -0.70396857215E+03  0.76435548489E+03  0.92538852150E+02 0.  0.
         23    2    4    4    0    0  0.45607630031E+03 -0.17921604544E+03  0.18031448328E+03  0.53029344575E+03  0.92595048877E+02 0.  0.
          1    1    3    3  502    0 -0.49467664308E+03  0.23938401695E+03  0.16438344230E+04  0.17332631938E+04  0.00000000000E+00 0. -1.
         -2    1    3    3    0  502 -0.17723610284E+03  0.12291328448E+03  0.52775517664E+03  0.57012791383E+03  0.00000000000E+00 0.  1.
         11    1    5    5    0    0  0.11479537918E+03 -0.55280995447E+02 -0.22676818215E+03  0.26011108391E+03  0.00000000000E+00 0. -1.
        -11    1    5    5    0    0  0.10104106643E+03 -0.12780026055E+03 -0.47720039000E+03  0.50424440098E+03  0.00000000000E+00 0.  1.
          3    1    6    6  503    0  0.14728800129E+03 -0.12638228219E+02  0.51698311471E+02  0.15660841467E+03  0.00000000000E+00 0. -1.
         -3    1    6    6    0  503  0.30878829901E+03 -0.16657781722E+03  0.12861617181E+03  0.37368503107E+03  0.00000000000E+00 0.  1.
<mgrwt>
<rscale>  0 0.31984685E+04</rscale>
<asrwt>0</asrwt>
<pdfrwt beam="1">  1        1 0.40353658E+00 0.31984685E+04</pdfrwt>
<pdfrwt beam="2">  1       -2 0.15000804E+00 0.31984685E+04</pdfrwt>
<totfact> 0.24517161E-01</totfact>
</mgrwt>
</event>
<event>
12    4  0.4413110E-008  0.1914178E+04  0.7818608E-02  0.8647831E-01
          1   -1    0    0  501    0  0.00000000000E+00  0.00000000000E+00  0.19045004468E+04  0.19045004468E+04  0.00000000000E+00 0. -1.
         -2   -1    0    0    0  501 -0.00000000000E+00 -0.00000000000E+00 -0.48097620126E+03  0.48097620126E+03  0.00000000000E+00 0.  1.
        -24    2    1    2    0    0  0.36596945895E+01  0.74149584535E+03  0.57930620760E+03  0.94445300658E+03  0.81032817069E+02 0.  0.
        254    2    1    2    0    0 -0.36596945895E+01 -0.74149584535E+03  0.84421803794E+03  0.14410236415E+04  0.90222810736E+03 0.  0.
         23    2    4    4    0    0 -0.11170363723E+03 -0.30262171744E+03 -0.13370286968E+03  0.35981189189E+03  0.86778648001E+02 0.  0.
         23    2    4    4    0    0  0.10804394264E+03 -0.43887412791E+03  0.97792090761E+03  0.10812117496E+04  0.91681798719E+02 0.  0.
          1    1    3    3  502    0  0.16199131829E+01  0.59432130901E+03  0.50328498128E+03  0.77879150923E+03  0.00000000000E+00 0. -1.
         -2    1    3    3    0  502  0.20397814066E+01  0.14717453634E+03  0.76021226324E+02  0.16566149735E+03  0.00000000000E+00 0.  1.
         11    1    5    5    0    0 -0.99640888331E+02 -0.16716983004E+03 -0.10384286880E+03  0.22058422451E+03  0.00000000000E+00 0. -1.
        -11    1    5    5    0    0 -0.12062748901E+02 -0.13545188740E+03 -0.29860000878E+02  0.13922766738E+03  0.00000000000E+00 0.  1.
          4    1    6    6  503    0  0.10292425111E+03 -0.41682957412E+03  0.86091033012E+03  0.96203268751E+03  0.00000000000E+00 0. -1.
         -4    1    6    6    0  503  0.51196915348E+01 -0.22044553784E+02  0.11701057750E+03  0.11917906209E+03  0.00000000000E+00 0.  1.
<mgrwt>
<rscale>  0 0.19141780E+04</rscale>
<asrwt>0</asrwt>
<pdfrwt beam="1">  1        1 0.29300007E+00 0.19141780E+04</pdfrwt>
<pdfrwt beam="2">  1       -2 0.73996340E-01 0.19141780E+04</pdfrwt>
<totfact> 0.46704181E+00</totfact>
</mgrwt>
</event>
<event>
12    4  0.4413110E-008  0.1311003E+04  0.7818608E-02  0.9020885E-01
         -2   -1    0    0    0  501 -0.00000000000E+00  0.00000000000E+00  0.21508585673E+04  0.21508585673E+04  0.00000000000E+00 0.  1.
          1   -1    0    0  501    0  0.00000000000E+00 -0.00000000000E+00 -0.19977231251E+03  0.19977231251E+03  0.00000000000E+00 0. -1.
        -24    2    1    2    0    0  0.19214678394E+03  0.80714184991E+02  0.28970041020E+02  0.22502602855E+03  0.79763926774E+02 0.  0.
        254    2    1    2    0    0 -0.19214678394E+03 -0.80714184991E+02  0.19221162138E+04  0.21256048513E+04  0.88330633316E+03 0.  0.
         23    2    4    4    0    0 -0.35658124150E+02  0.34893322290E+03  0.43096119057E+03  0.56317977841E+03  0.91749763854E+02 0.  0.
         23    2    4    4    0    0 -0.15648865979E+03 -0.42964740789E+03  0.14911550232E+04  0.15624250729E+04  0.92429482797E+02 0.  0.
          1    1    3    3  502    0  0.17816372800E+03  0.87367618329E+02  0.44211792932E+02  0.20329805051E+03  0.00000000000E+00 0. -1.
         -2    1    3    3    0  502  0.13983055933E+02 -0.66534333373E+01 -0.15241751912E+02  0.21727978041E+02  0.00000000000E+00 0.  1.
         11    1    5    5    0    0  0.53473010186E+01  0.65526644640E+02  0.14140252688E+03  0.15593912080E+03  0.00000000000E+00 0. -1.
        -11    1    5    5    0    0 -0.41005425168E+02  0.28340657826E+03  0.28955866369E+03  0.40724065761E+03  0.00000000000E+00 0.  1.
          1    1    6    6  503    0 -0.45189814594E+02 -0.84034912712E+02  0.20712287913E+03  0.22804357688E+03  0.00000000000E+00 0. -1.
         -1    1    6    6    0  503 -0.11129884519E+03 -0.34561249518E+03  0.12840321441E+04  0.13343814960E+04  0.00000000000E+00 0.  1.
<mgrwt>
<rscale>  0 0.13110027E+04</rscale>
<asrwt>0</asrwt>
<pdfrwt beam="1">  1        1 0.30734203E-01 0.13110027E+04</pdfrwt>
<pdfrwt beam="2">  1       -2 0.33090130E+00 0.13110027E+04</pdfrwt>
<totfact> 0.26376259E+00</totfact>
</mgrwt>
</event>
<event>
12    4  0.4413110E-008  0.1416463E+04  0.7818608E-02  0.8941987E-01
          1   -1    0    0  501    0  0.00000000000E+00  0.00000000000E+00  0.51036785221E+03  0.51036785221E+03  0.00000000000E+00 0. -1.
         -2   -1    0    0    0  501 -0.00000000000E+00 -0.00000000000E+00 -0.98280488136E+03  0.98280488136E+03  0.00000000000E+00 0.  1.
        -24    2    1    2    0    0  0.11886908410E+03  0.39000580425E+03 -0.23364637930E+03  0.47593996310E+03  0.75457480822E+02 0.  0.
        254    2    1    2    0    0 -0.11886908410E+03 -0.39000580425E+03 -0.23879064986E+03  0.10172327705E+04  0.90083691551E+03 0.  0.
         23    2    4    4    0    0 -0.28237503645E+03  0.20072957391E+03 -0.17413848660E+02  0.35933214333E+03  0.93746061547E+02 0.  0.
         23    2    4    4    0    0  0.16350595235E+03 -0.59073537816E+03 -0.22137680120E+03  0.65790062714E+03  0.90128040076E+02 0.  0.
          3    1    3    3  502    0  0.18226537821E+02  0.99092725453E+01 -0.18145144874E+02  0.27561688008E+02  0.00000000000E+00 0. -1.
         -4    1    3    3    0  502  0.10064254628E+03  0.38009653171E+03 -0.21550123442E+03  0.44837827509E+03  0.00000000000E+00 0.  1.
         11    1    5    5    0    0 -0.17807182333E+03  0.17741637541E+03 -0.22023269569E+01  0.25137819073E+03  0.00000000000E+00 0. -1.
        -11    1    5    5    0    0 -0.10430321311E+03  0.23313198497E+02 -0.15211521703E+02  0.10795395260E+03  0.00000000000E+00 0.  1.
          3    1    6    6  503    0  0.14982770658E+03 -0.44047211967E+03 -0.19618158299E+03  0.50492696835E+03  0.00000000000E+00 0. -1.
         -3    1    6    6    0  503  0.13678245771E+02 -0.15026325850E+03 -0.25195218206E+02  0.15297365878E+03  0.00000000000E+00 0.  1.
<mgrwt>
<rscale>  0 0.14164632E+04</rscale>
<asrwt>0</asrwt>
<pdfrwt beam="1">  1        1 0.78518132E-01 0.14164632E+04</pdfrwt>
<pdfrwt beam="2">  1       -2 0.15120075E+00 0.14164632E+04</pdfrwt>
<totfact> 0.10753264E+01</totfact>
</mgrwt>
</event>
<event>
12    4  0.4413110E-008  0.3228919E+04  0.7818608E-02  0.8181221E-01
          1   -1    0    0  501    0  0.00000000000E+00  0.00000000000E+00  0.16492925698E+04  0.16492925698E+04  0.00000000000E+00 0. -1.
         -4   -1    0    0    0  501 -0.00000000000E+00 -0.00000000000E+00 -0.15803621657E+04  0.15803621657E+04  0.00000000000E+00 0.  1.
        -24    2    1    2    0    0 -0.37209004073E+03  0.73452128989E+03  0.12714450057E+04  0.15168793551E+04  0.79862706099E+02 0.  0.
        254    2    1    2    0    0  0.37209004073E+03 -0.73452128989E+03 -0.12025146015E+04  0.17127753804E+04  0.89976975563E+03 0.  0.
         23    2    4    4    0    0  0.64629119794E+03 -0.57720102999E+03 -0.10004401707E+04  0.13263365114E+04  0.86224502041E+02 0.  0.
         23    2    4    4    0    0 -0.27420115722E+03 -0.15732025990E+03 -0.20207443078E+03  0.38643886898E+03  0.92547204653E+02 0.  0.
          3    1    3    3  502    0 -0.21444314419E+03  0.33531459361E+03  0.61773248163E+03  0.73485723623E+03  0.00000000000E+00 0. -1.
         -4    1    3    3    0  502 -0.15764689654E+03  0.39920669628E+03  0.65371252403E+03  0.78202211888E+03  0.00000000000E+00 0.  1.
         11    1    5    5    0    0  0.19974119076E+02 -0.39420233416E+02 -0.37332208199E+02  0.57849926572E+02  0.00000000000E+00 0. -1.
        -11    1    5    5    0    0  0.62631707887E+03 -0.53778079657E+03 -0.96310796255E+03  0.12684865849E+04  0.00000000000E+00 0.  1.
          3    1    6    6  503    0 -0.14593292457E+03 -0.43831509101E+02 -0.13124223126E+03  0.20110231956E+03  0.00000000000E+00 0. -1.
         -3    1    6    6    0  503 -0.12826823265E+03 -0.11348875080E+03 -0.70832199523E+02  0.18533654943E+03  0.00000000000E+00 0.  1.
<mgrwt>
<rscale>  0 0.32289191E+04</rscale>
<asrwt>0</asrwt>
<pdfrwt beam="1">  1        1 0.25373732E+00 0.32289191E+04</pdfrwt>
<pdfrwt beam="2">  1       -4 0.24313264E+00 0.32289191E+04</pdfrwt>
<totfact> 0.14542057E-01</totfact>
</mgrwt>
</event>
<event>
12    4  0.4413110E-008  0.3516181E+04  0.7818608E-02  0.8109966E-01
          1   -1    0    0  501    0  0.00000000000E+00  0.00000000000E+00  0.27936316867E+04  0.27936316867E+04  0.00000000000E+00 0. -1.
         -2   -1    0    0    0  501 -0.00000000000E+00 -0.00000000000E+00 -0.11064026708E+04  0.11064026708E+04  0.00000000000E+00 0.  1.
        -24    2    1    2    0    0 -0.94275052267E+03  0.13522096287E+04  0.87050522226E+03  0.18659166253E+04  0.81339305512E+02 0.  0.
        254    2    1    2    0    0  0.94275052267E+03 -0.13522096287E+04  0.81672379357E+03  0.20341177322E+04  0.86795608510E+03 0.  0.
         23    2    4    4    0    0  0.48661684178E+03 -0.11405119820E+04  0.87419926492E+03  0.15205845203E+04  0.10192839082E+03 0.  0.
         23    2    4    4    0    0  0.45613368089E+03 -0.21169764669E+03 -0.57475471346E+02  0.51353321191E+03  0.86827999381E+02 0.  0.
          3    1    3    3  502    0 -0.84729718652E+03  0.11829275121E+04  0.78853205980E+03  0.16549963234E+04  0.00000000000E+00 0. -1.
         -4    1    3    3    0  502 -0.95453336143E+02  0.16928211661E+03  0.81973162467E+02  0.21092030189E+03  0.00000000000E+00 0.  1.
         11    1    5    5    0    0  0.24053842698E+03 -0.54737517599E+03  0.35985168944E+03  0.69783347336E+03  0.00000000000E+00 0. -1.
        -11    1    5    5    0    0  0.24607841480E+03 -0.59313680602E+03  0.51434757548E+03  0.82275104696E+03  0.00000000000E+00 0.  1.
          4    1    6    6  503    0  0.41900869935E+03 -0.21846586476E+03 -0.51810606932E+02  0.47537349862E+03  0.00000000000E+00 0. -1.
         -4    1    6    6    0  503  0.37124981538E+02  0.67682180691E+01 -0.56648644136E+01  0.38159713296E+02  0.00000000000E+00 0.  1.
<mgrwt>
<rscale>  0 0.35161806E+04</rscale>
<asrwt>0</asrwt>
<pdfrwt beam="1">  1        1 0.42978949E+00 0.35161806E+04</pdfrwt>
<pdfrwt beam="2">  1       -2 0.17021580E+00 0.35161806E+04</pdfrwt>
<totfact> 0.12822619E-01</totfact>
</mgrwt>
</event>
<event>
12    4  0.4413110E-008  0.1222085E+04  0.7818608E-02  0.9093742E-01
          1   -1    0    0  501    0  0.00000000000E+00  0.00000000000E+00  0.18265218514E+03  0.18265218514E+03  0.00000000000E+00 0. -1.
         -2   -1    0    0    0  501 -0.00000000000E+00 -0.00000000000E+00 -0.20441735449E+04  0.20441735449E+04  0.00000000000E+00 0.  1.
        -24    2    1    2    0    0  0.14907634633E+03 -0.30076191393E+03 -0.37191571472E+03  0.50781286359E+03  0.82892217136E+02 0.  0.
        254    2    1    2    0    0 -0.14907634633E+03  0.30076191393E+03 -0.14896056451E+04  0.17190128665E+04  0.78955605969E+03 0.  0.
         23    2    4    4    0    0  0.27685405885E+03  0.17887578543E+02 -0.82806968887E+03  0.87797518586E+03  0.90403993230E+02 0.  0.
         23    2    4    4    0    0 -0.42593040518E+03  0.28287433539E+03 -0.66153595621E+03  0.84103768063E+03  0.90994281171E+02 0.  0.
          1    1    3    3  502    0  0.41525268514E+02 -0.11237090763E+03 -0.79737951323E+02  0.14390868524E+03  0.00000000000E+00 0. -1.
         -2    1    3    3    0  502  0.10755107782E+03 -0.18839100631E+03 -0.29217776339E+03  0.36390417835E+03  0.00000000000E+00 0.  1.
         11    1    5    5    0    0  0.69342927445E+02  0.13960985288E+02 -0.11228521440E+03  0.13270764887E+03  0.00000000000E+00 0. -1.
        -11    1    5    5    0    0  0.20751113140E+03  0.39265932551E+01 -0.71578447447E+03  0.74526753698E+03  0.00000000000E+00 0.  1.
          1    1    6    6  503    0  0.26760031461E+01  0.10354473671E+02 -0.80716477943E+01  0.13398791586E+02  0.00000000000E+00 0. -1.
         -1    1    6    6    0  503 -0.42860640832E+03  0.27251986172E+03 -0.65346430841E+03  0.82763888904E+03  0.00000000000E+00 0.  1.
<mgrwt>
<rscale>  0 0.12220847E+04</rscale>
<asrwt>0</asrwt>
<pdfrwt beam="1">  1        1 0.28100338E-01 0.12220847E+04</pdfrwt>
<pdfrwt beam="2">  1       -2 0.31448822E+00 0.12220847E+04</pdfrwt>
<totfact> 0.37712632E+00</totfact>
</mgrwt>
</event>
<event>
12    4  0.4413110E-008  0.1954384E+04  0.7818608E-02  0.8628250E-01
         -2   -1    0    0    0  501 -0.00000000000E+00  0.00000000000E+00  0.71940579447E+03  0.71940579447E+03  0.00000000000E+00 0.  1.
          1   -1    0    0  501    0  0.00000000000E+00 -0.00000000000E+00 -0.13273514637E+04  0.13273514637E+04  0.00000000000E+00 0. -1.
        -24    2    1    2    0    0  0.74779543433E+03 -0.14788785431E+03 -0.13413312744E+03  0.77702578323E+03  0.68618823051E+02 0.  0.
        254    2    1    2    0    0 -0.74779543433E+03  0.14788785431E+03 -0.47381254180E+03  0.12697314749E+04  0.89813744195E+03 0.  0.
         23    2    4    4    0    0  0.16200266607E+03 -0.43739931900E+01  0.68163299653E+02  0.19592957672E+03  0.86476401324E+02 0.  0.
         23    2    4    4    0    0 -0.90979810040E+03  0.15226184750E+03 -0.54197584146E+03  0.10738018982E+04  0.91632146199E+02 0.  0.
          3    1    3    3  502    0  0.37220194560E+03 -0.82981694237E+02 -0.10064032687E+03  0.39439665982E+03  0.00000000000E+00 0. -1.
         -4    1    3    3    0  502  0.37559348873E+03 -0.64906160074E+02 -0.33492800562E+02  0.38262912341E+03  0.00000000000E+00 0.  1.
         11    1    5    5    0    0  0.26062562286E+02 -0.29428754328E+02  0.37524180073E+02  0.54344942951E+02  0.00000000000E+00 0. -1.
        -11    1    5    5    0    0  0.13594010378E+03  0.25054761138E+02  0.30639119579E+02  0.14158463377E+03  0.00000000000E+00 0.  1.
          4    1    6    6  503    0 -0.54648119593E+01  0.61338467805E+01 -0.14670915231E+02  0.16814398585E+02  0.00000000000E+00 0. -1.
         -4    1    6    6    0  503 -0.90433328844E+03  0.14612800072E+03 -0.52730492623E+03  0.10569874996E+04  0.00000000000E+00 0.  1.
<mgrwt>
<rscale>  0 0.19543841E+04</rscale>
<asrwt>0</asrwt>
<pdfrwt beam="1">  1        1 0.20420791E+00 0.19543841E+04</pdfrwt>
<pdfrwt beam="2">  1       -2 0.11067782E+00 0.19543841E+04</pdfrwt>
<totfact> 0.45743537E+00</totfact>
</mgrwt>
</event>
<event>
12    4  0.4413110E-008  0.2174301E+04  0.7818608E-02  0.8529202E-01
          1   -1    0    0  501    0  0.00000000000E+00  0.00000000000E+00  0.83444634960E+03  0.83444634960E+03  0.00000000000E+00 0. -1.
         -2   -1    0    0    0  501 -0.00000000000E+00 -0.00000000000E+00 -0.14163831379E+04  0.14163831379E+04  0.00000000000E+00 0.  1.
        -24    2    1    2    0    0 -0.67229870608E+03 -0.46441775358E+03 -0.63117701332E+03  0.10355120917E+04  0.78939659569E+02 0.  0.
        254    2    1    2    0    0  0.67229870608E+03  0.46441775358E+03  0.49240225007E+02  0.12153173958E+04  0.89827744756E+03 0.  0.
         23    2    4    4    0    0  0.37104242740E+03  0.43770837335E+03 -0.37184328199E+03  0.68911462219E+03  0.85734666947E+02 0.  0.
         23    2    4    4    0    0  0.30125627867E+03  0.26709380226E+02  0.42108350699E+03  0.52620277363E+03  0.90051666734E+02 0.  0.
          1    1    3    3  502    0 -0.89963285420E+02 -0.31681812794E+02 -0.75590480735E+02  0.12170066049E+03  0.00000000000E+00 0. -1.
         -2    1    3    3    0  502 -0.58233542066E+03 -0.43273594078E+03 -0.55558653258E+03  0.91381143120E+03  0.00000000000E+00 0.  1.
         11    1    5    5    0    0  0.20902777537E+03  0.20777810960E+03 -0.23146499788E+03  0.37475378444E+03  0.00000000000E+00 0.  1.
        -11    1    5    5    0    0  0.16201465203E+03  0.22993026375E+03 -0.14037828411E+03  0.31436083775E+03  0.00000000000E+00 0. -1.
          1    1    6    6  503    0  0.39122782395E+02 -0.21795430612E+02  0.34119044116E+02  0.56300462425E+02  0.00000000000E+00 0. -1.
         -1    1    6    6    0  503  0.26213349628E+03  0.48504810838E+02  0.38696446288E+03  0.46990231121E+03  0.00000000000E+00 0.  1.
<mgrwt>
<rscale>  0 0.21743006E+04</rscale>
<asrwt>0</asrwt>
<pdfrwt beam="1">  1        1 0.12837636E+00 0.21743006E+04</pdfrwt>
<pdfrwt beam="2">  1       -2 0.21790509E+00 0.21743006E+04</pdfrwt>
<totfact> 0.16845013E+00</totfact>
</mgrwt>
</event>
<event>
12    4  0.4413110E-008  0.1436028E+04  0.7818608E-02  0.8928145E-01
         -2   -1    0    0    0  501 -0.00000000000E+00  0.00000000000E+00  0.28619205943E+03  0.28619205943E+03  0.00000000000E+00 0.  1.
          1   -1    0    0  501    0  0.00000000000E+00 -0.00000000000E+00 -0.18013920533E+04  0.18013920533E+04  0.00000000000E+00 0. -1.
        -24    2    1    2    0    0 -0.36714296325E+03  0.19331602030E+03 -0.24183531552E+03  0.48644810819E+03  0.77345995132E+02 0.  0.
        254    2    1    2    0    0  0.36714296325E+03 -0.19331602030E+03 -0.12733646784E+04  0.16011360046E+04  0.87750433718E+03 0.  0.
         23    2    4    4    0    0 -0.10090382118E+03 -0.84029551436E+02  0.67633401838E+02  0.17366851308E+03  0.91345107959E+02 0.  0.
         23    2    4    4    0    0  0.46804678443E+03 -0.10928646886E+03 -0.13409980802E+04  0.14274674915E+04  0.91521928374E+02 0.  0.
          1    1    3    3  502    0 -0.28721304433E+03  0.12313527552E+03 -0.20565333801E+03  0.37409480662E+03  0.00000000000E+00 0. -1.
         -4    1    3    3    0  502 -0.79929918923E+02  0.70180744778E+02 -0.36181977512E+02  0.11235330157E+03  0.00000000000E+00 0.  1.
         11    1    5    5    0    0 -0.10031045671E+02  0.12429976734E+02 -0.11165390267E+02  0.19488256430E+02  0.00000000000E+00 0. -1.
        -11    1    5    5    0    0 -0.90872775513E+02 -0.96459528170E+02  0.78798792105E+02  0.15418025665E+03  0.00000000000E+00 0.  1.
          2    1    6    6  503    0  0.16031206038E+03 -0.16542859565E+00 -0.37676889114E+03  0.40945669050E+03  0.00000000000E+00 0. -1.
         -2    1    6    6    0  503  0.30773472406E+03 -0.10912104027E+03 -0.96422918908E+03  0.10180108010E+04  0.00000000000E+00 0.  1.
<mgrwt>
<rscale>  0 0.14360280E+04</rscale>
<asrwt>0</asrwt>
<pdfrwt beam="1">  1        1 0.27713724E+00 0.14360280E+04</pdfrwt>
<pdfrwt beam="2">  1       -2 0.44029548E-01 0.14360280E+04</pdfrwt>
<totfact> 0.16976617E+01</totfact>
</mgrwt>
</event>
<event>
12    4  0.4413110E-008  0.1707947E+04  0.7818608E-02  0.8756845E-01
         -2   -1    0    0    0  501 -0.00000000000E+00  0.00000000000E+00  0.47505557552E+03  0.47505557552E+03  0.00000000000E+00 0.  1.
          1   -1    0    0  501    0  0.00000000000E+00 -0.00000000000E+00 -0.15351264541E+04  0.15351264541E+04  0.00000000000E+00 0. -1.
        -24    2    1    2    0    0  0.15914718675E+03  0.57356143430E+01  0.31268215808E+03  0.36075117274E+03  0.83729041158E+02 0.  0.
        254    2    1    2    0    0 -0.15914718675E+03 -0.57356143430E+01 -0.13727530367E+04  0.16494308569E+04  0.90045018056E+03 0.  0.
         23    2    4    4    0    0  0.63507192676E+02  0.28997506783E+03 -0.10772119570E+03  0.32849854909E+03  0.90491641955E+02 0.  0.
         23    2    4    4    0    0 -0.22265437943E+03 -0.29571068217E+03 -0.12650318410E+04  0.13209323078E+04  0.86814877356E+02 0.  0.
          3    1    3    3  502    0  0.10308840727E+02  0.87608835835E+01  0.10135125418E+03  0.10225019316E+03  0.00000000000E+00 0. -1.
         -4    1    3    3    0  502  0.14883834603E+03 -0.30252692405E+01  0.21133090390E+03  0.25850097958E+03  0.00000000000E+00 0.  1.
         11    1    5    5    0    0  0.86848623588E+02  0.22430562975E+03 -0.87117085289E+02  0.25582237101E+03  0.00000000000E+00 0. -1.
        -11    1    5    5    0    0 -0.23341430912E+02  0.65669438076E+02 -0.20604110413E+02  0.72676178079E+02  0.00000000000E+00 0.  1.
          2    1    6    6  503    0 -0.18294629476E+03 -0.17915079504E+03 -0.80791566189E+03  0.84752113298E+03  0.00000000000E+00 0. -1.
         -2    1    6    6    0  503 -0.39708084670E+02 -0.11655988713E+03 -0.45711617907E+03  0.47341117482E+03  0.00000000000E+00 0.  1.
<mgrwt>
<rscale>  0 0.17079466E+04</rscale>
<asrwt>0</asrwt>
<pdfrwt beam="1">  1        1 0.23617330E+00 0.17079466E+04</pdfrwt>
<pdfrwt beam="2">  1       -2 0.73085472E-01 0.17079466E+04</pdfrwt>
<totfact> 0.87279455E+00</totfact>
</mgrwt>
</event>
<event>
12    4  0.4413110E-008  0.1407731E+04  0.7818608E-02  0.8948241E-01
         -2   -1    0    0    0  501 -0.00000000000E+00  0.00000000000E+00  0.25368642788E+03  0.25368642788E+03  0.00000000000E+00 0.  1.
          1   -1    0    0  501    0  0.00000000000E+00 -0.00000000000E+00 -0.19529092863E+04  0.19529092863E+04  0.00000000000E+00 0. -1.
        -24    2    1    2    0    0 -0.12136206701E+03  0.33277232088E+03 -0.79246670642E+03  0.87176710687E+03  0.80673657396E+02 0.  0.
        254    2    1    2    0    0  0.12136206701E+03 -0.33277232088E+03 -0.90675615204E+03  0.13348286073E+04  0.91328775468E+03 0.  0.
         23    2    4    4    0    0  0.37613314553E+03 -0.52132754951E+03 -0.56235677392E+03  0.85894458695E+03  0.91006072463E+02 0.  0.
         23    2    4    4    0    0 -0.25477107852E+03  0.18855522863E+03 -0.34439937812E+03  0.47588402039E+03  0.85984257407E+02 0.  0.
          1    1    3    3  502    0 -0.69030202658E+02  0.22300538689E+03 -0.60325115259E+03  0.64684505453E+03  0.00000000000E+00 0. -1.
         -2    1    3    3    0  502 -0.52331864354E+02  0.10976693398E+03 -0.18921555383E+03  0.22492205235E+03  0.00000000000E+00 0.  1.
         11    1    5    5    0    0  0.27801276179E+03 -0.35865509306E+03 -0.34349698773E+03  0.56913509123E+03  0.00000000000E+00 0. -1.
        -11    1    5    5    0    0  0.98120383744E+02 -0.16267245645E+03 -0.21885978619E+03  0.28980949571E+03  0.00000000000E+00 0.  1.
          2    1    6    6  503    0 -0.69626893145E+02  0.85054750691E+02 -0.16402491966E+03  0.19744971292E+03  0.00000000000E+00 0. -1.
         -2    1    6    6    0  503 -0.18514418537E+03  0.10350047794E+03 -0.18037445846E+03  0.27843430747E+03  0.00000000000E+00 0.  1.
<mgrwt>
<rscale>  0 0.14077309E+04</rscale>
<asrwt>0</asrwt>
<pdfrwt beam="1">  1        1 0.30044757E+00 0.14077309E+04</pdfrwt>
<pdfrwt beam="2">  1       -2 0.39028682E-01 0.14077309E+04</pdfrwt>
<totfact> 0.17040219E+01</totfact>
</mgrwt>
</event>
<event>
12    4  0.4413110E-008  0.1715490E+04  0.7818608E-02  0.8752579E-01
          1   -1    0    0  501    0  0.00000000000E+00  0.00000000000E+00  0.87452010625E+03  0.87452010625E+03  0.00000000000E+00 0. -1.
         -2   -1    0    0    0  501 -0.00000000000E+00 -0.00000000000E+00 -0.84129167718E+03  0.84129167718E+03  0.00000000000E+00 0.  1.
        -24    2    1    2    0    0  0.21481761880E+03  0.41855656110E+03  0.41448057445E+03  0.63215004186E+03  0.80519094858E+02 0.  0.
        254    2    1    2    0    0 -0.21481761880E+03 -0.41855656110E+03 -0.38125214538E+03  0.10836617416E+04  0.89868424245E+03 0.  0.
         23    2    4    4    0    0  0.20567797559E+03  0.10893778503E+03 -0.30994191634E+03  0.39864984263E+03  0.93203191357E+02 0.  0.
         23    2    4    4    0    0 -0.42049559439E+03 -0.52749434613E+03 -0.71310229040E+02  0.68501189895E+03  0.95337940164E+02 0.  0.
          3    1    3    3  502    0  0.19875195622E+03  0.38907552855E+03  0.40834464005E+03  0.59801960844E+03  0.00000000000E+00 0. -1.
         -4    1    3    3    0  502  0.16065662584E+02  0.29481032549E+02  0.61359343970E+01  0.34130433419E+02  0.00000000000E+00 0.  1.
         11    1    5    5    0    0  0.97826286764E+02  0.40034608700E+02 -0.21405743856E+03  0.23873277798E+03  0.00000000000E+00 0. -1.
        -11    1    5    5    0    0  0.10785168882E+03  0.68903176332E+02 -0.95884477775E+02  0.15991706466E+03  0.00000000000E+00 0.  1.
          3    1    6    6  503    0 -0.66166511610E+02 -0.36369054667E+02 -0.28997233899E+01  0.75558743980E+02  0.00000000000E+00 0. -1.
         -3    1    6    6    0  503 -0.35432908278E+03 -0.49112529146E+03 -0.68410505650E+02  0.60945315497E+03  0.00000000000E+00 0.  1.
<mgrwt>
<rscale>  0 0.17154900E+04</rscale>
<asrwt>0</asrwt>
<pdfrwt beam="1">  1        1 0.13454155E+00 0.17154900E+04</pdfrwt>
<pdfrwt beam="2">  1       -2 0.12942949E+00 0.17154900E+04</pdfrwt>
<totfact> 0.69846932E+00</totfact>
</mgrwt>
</event>
<event>
12    4  0.4413110E-008  0.1184973E+04  0.7818608E-02  0.9126112E-01
         -2   -1    0    0    0  501 -0.00000000000E+00  0.00000000000E+00  0.80133707058E+03  0.80133707058E+03  0.00000000000E+00 0.  1.
          1   -1    0    0  501    0  0.00000000000E+00 -0.00000000000E+00 -0.43806811326E+03  0.43806811326E+03  0.00000000000E+00 0. -1.
        -24    2    1    2    0    0 -0.21779299770E+03 -0.53075720963E+02  0.16581875717E+03  0.29057074914E+03  0.81759880280E+02 0.  0.
        254    2    1    2    0    0  0.21779299770E+03  0.53075720963E+02  0.19745020015E+03  0.94883443470E+03  0.90058280070E+03 0.  0.
         23    2    4    4    0    0 -0.24388436396E+03  0.52820377043E+02  0.36341677666E+03  0.45068113626E+03  0.93659798237E+02 0.  0.
         23    2    4    4    0    0  0.46167736166E+03  0.25534391967E+00 -0.16596657651E+03  0.49815329844E+03  0.86404587611E+02 0.  0.
          1    1    3    3  502    0 -0.29883681866E+02 -0.36358909508E+02  0.16144182956E+02  0.49755797509E+02  0.00000000000E+00 0. -1.
         -2    1    3    3    0  502 -0.18790931584E+03 -0.16716811455E+02  0.14967457422E+03  0.24081495163E+03  0.00000000000E+00 0.  1.
         11    1    5    5    0    0 -0.15088316620E+03  0.78250940768E+02  0.23917600522E+03  0.29341796306E+03  0.00000000000E+00 0. -1.
        -11    1    5    5    0    0 -0.93001197758E+02 -0.25430563725E+02  0.12424077144E+03  0.15726317319E+03  0.00000000000E+00 0.  1.
          3    1    6    6  503    0  0.37964299887E+03 -0.25395004574E+02 -0.15744865452E+03  0.41178124248E+03  0.00000000000E+00 0. -1.
         -3    1    6    6    0  503  0.82034362785E+02  0.25650348493E+02 -0.85179219924E+01  0.86372055959E+02  0.00000000000E+00 0.  1.
<mgrwt>
<rscale>  0 0.11849729E+04</rscale>
<asrwt>0</asrwt>
<pdfrwt beam="1">  1        1 0.67395095E-01 0.11849729E+04</pdfrwt>
<pdfrwt beam="2">  1       -2 0.12328263E+00 0.11849729E+04</pdfrwt>
<totfact> 0.22815794E+01</totfact>
</mgrwt>
</event>
<event>
12    4  0.4413110E-008  0.2719409E+04  0.7818608E-02  0.8328735E-01
          1   -1    0    0  501    0  0.00000000000E+00  0.00000000000E+00  0.26595426740E+04  0.26595426740E+04  0.00000000000E+00 0. -1.
         -2   -1    0    0    0  501 -0.00000000000E+00 -0.00000000000E+00 -0.69515556811E+03  0.69515556811E+03  0.00000000000E+00 0.  1.
        -24    2    1    2    0    0  0.80501107262E+03 -0.23379975228E+03 -0.18698044226E+03  0.86243576839E+03  0.78285487724E+02 0.  0.
        254    2    1    2    0    0 -0.80501107262E+03  0.23379975228E+03  0.21513675482E+04  0.24922624737E+04  0.93823491701E+03 0.  0.
         23    2    4    4    0    0 -0.79318155274E+03  0.30622454125E+03  0.92293505798E+03  0.12583011313E+04  0.92747886732E+02 0.  0.
         23    2    4    4    0    0 -0.11829519884E+02 -0.72424788961E+02  0.12284324902E+04  0.12339613425E+04  0.90713417472E+02 0.  0.
          3    1    3    3  502    0  0.15118678041E+03 -0.48235373846E+02 -0.46793394895E+01  0.15876394452E+03  0.00000000000E+00 0. -1.
         -4    1    3    3    0  502  0.65382429221E+03 -0.18556437844E+03 -0.18230110277E+03  0.70367182387E+03  0.00000000000E+00 0.  1.
         11    1    5    5    0    0 -0.36874062325E+03  0.10014072864E+03  0.37784002542E+03  0.53736477143E+03  0.00000000000E+00 0.  1.
        -11    1    5    5    0    0 -0.42444092949E+03  0.20608381261E+03  0.54509503256E+03  0.72093635986E+03  0.00000000000E+00 0. -1.
          2    1    6    6  503    0  0.26223746268E+02 -0.19306254205E+02  0.14732450490E+03  0.15088050260E+03  0.00000000000E+00 0. -1.
         -2    1    6    6    0  503 -0.38053266152E+02 -0.53118534757E+02  0.10811079853E+04  0.10830808399E+04  0.00000000000E+00 0.  1.
<mgrwt>
<rscale>  0 0.27194087E+04</rscale>
<asrwt>0</asrwt>
<pdfrwt beam="1">  1        1 0.40916041E+00 0.27194087E+04</pdfrwt>
<pdfrwt beam="2">  1       -2 0.10694701E+00 0.27194087E+04</pdfrwt>
<totfact> 0.56486023E-01</totfact>
</mgrwt>
</event>
<event>
12    4  0.4413110E-008  0.1334658E+04  0.7818608E-02  0.9002523E-01
         -2   -1    0    0    0  501 -0.00000000000E+00  0.00000000000E+00  0.49597092888E+03  0.49597092888E+03  0.00000000000E+00 0.  1.
          1   -1    0    0  501    0  0.00000000000E+00 -0.00000000000E+00 -0.89789189748E+03  0.89789189748E+03  0.00000000000E+00 0. -1.
        -24    2    1    2    0    0  0.28754123133E+03  0.66301232340E+02  0.10108506208E+03  0.32128842017E+03  0.77021075261E+02 0.  0.
        254    2    1    2    0    0 -0.28754123133E+03 -0.66301232340E+02 -0.50300603068E+03  0.10725744062E+04  0.90018052456E+03 0.  0.
         23    2    4    4    0    0 -0.37796214135E+03 -0.16530809949E+03 -0.70002725352E+03  0.81774424414E+03  0.92115932954E+02 0.  0.
         23    2    4    4    0    0  0.90420910024E+02  0.99006867147E+02  0.19702122284E+03  0.25483016205E+03  0.90237179309E+02 0.  0.
          1    1    3    3  502    0  0.20601621988E+03  0.34617358474E+02  0.35348074238E+02  0.21187385567E+03  0.00000000000E+00 0. -1.
         -2    1    3    3    0  502  0.81525011445E+02  0.31683873866E+02  0.65736987844E+02  0.10941456450E+03  0.00000000000E+00 0.  1.
         11    1    5    5    0    0 -0.17409733711E+03 -0.10504573945E+03 -0.26959561194E+03  0.33767778154E+03  0.00000000000E+00 0. -1.
        -11    1    5    5    0    0 -0.20386480424E+03 -0.60262360036E+02 -0.43043164158E+03  0.48006646260E+03  0.00000000000E+00 0.  1.
          4    1    6    6  503    0  0.54443235980E+02  0.61507028634E+02  0.18363066235E+03  0.20116510798E+03  0.00000000000E+00 0.  1.
         -4    1    6    6    0  503  0.35977674043E+02  0.37499838513E+02  0.13390560496E+02  0.53665054071E+02  0.00000000000E+00 0. -1.
<mgrwt>
<rscale>  0 0.13346584E+04</rscale>
<asrwt>0</asrwt>
<pdfrwt beam="1">  1        1 0.13813721E+00 0.13346584E+04</pdfrwt>
<pdfrwt beam="2">  1       -2 0.76303220E-01 0.13346584E+04</pdfrwt>
<totfact> 0.24116451E+01</totfact>
</mgrwt>
</event>
<event>
12    4  0.4413110E-008  0.1811152E+04  0.7818608E-02  0.8700392E-01
          1   -1    0    0  501    0  0.00000000000E+00  0.00000000000E+00  0.52838998279E+03  0.52838998279E+03  0.00000000000E+00 0. -1.
         -2   -1    0    0    0  501 -0.00000000000E+00 -0.00000000000E+00 -0.15520119943E+04  0.15520119943E+04  0.00000000000E+00 0.  1.
        -24    2    1    2    0    0  0.27616771711E+03  0.52257533185E+02  0.31916254611E+03  0.43303362526E+03  0.81571637341E+02 0.  0.
        254    2    1    2    0    0 -0.27616771711E+03 -0.52257533185E+02 -0.13427845576E+04  0.16473683519E+04  0.91200474819E+03 0.  0.
         23    2    4    4    0    0 -0.39509479831E+03 -0.36276523536E+03 -0.50836918195E+03  0.74453251125E+03  0.90503698883E+02 0.  0.
         23    2    4    4    0    0  0.11892708120E+03  0.31050770217E+03 -0.83441537570E+03  0.90283584061E+03  0.91130961524E+02 0.  0.
          1    1    3    3  502    0  0.21682861801E+03  0.74536553216E+02  0.25021412923E+03  0.33937804558E+03  0.00000000000E+00 0. -1.
         -2    1    3    3    0  502  0.59339099102E+02 -0.22279020031E+02  0.68948416877E+02  0.93655579682E+02  0.00000000000E+00 0.  1.
         11    1    5    5    0    0 -0.39329542639E+03 -0.35171017715E+03 -0.47718487831E+03  0.71139774333E+03  0.00000000000E+00 0.  1.
        -11    1    5    5    0    0 -0.17993719189E+01 -0.11055058210E+02 -0.31184303639E+02  0.33134767915E+02  0.00000000000E+00 0. -1.
          3    1    6    6  503    0  0.33151931839E+02  0.43935008340E+02 -0.72056048262E+02  0.90671989245E+02  0.00000000000E+00 0. -1.
         -3    1    6    6    0  503  0.85775149361E+02  0.26657269383E+03 -0.76235932743E+03  0.81216385137E+03  0.00000000000E+00 0.  1.
<mgrwt>
<rscale>  0 0.18111517E+04</rscale>
<asrwt>0</asrwt>
<pdfrwt beam="1">  1        1 0.81290768E-01 0.18111517E+04</pdfrwt>
<pdfrwt beam="2">  1       -2 0.23877107E+00 0.18111517E+04</pdfrwt>
<totfact> 0.25518981E+00</totfact>
</mgrwt>
</event>
<event>
12    4  0.4413110E-008  0.2651990E+04  0.7818608E-02  0.8350753E-01
          1   -1    0    0  501    0  0.00000000000E+00  0.00000000000E+00  0.22889455553E+04  0.22889455553E+04  0.00000000000E+00 0. -1.
         -2   -1    0    0    0  501 -0.00000000000E+00 -0.00000000000E+00 -0.76815422571E+03  0.76815422571E+03  0.00000000000E+00 0.  1.
        -24    2    1    2    0    0  0.14543568483E+03  0.96750549544E+03  0.14222174073E+04  0.17278175859E+04  0.73707762517E+02 0.  0.
        254    2    1    2    0    0 -0.14543568483E+03 -0.96750549544E+03  0.98573922268E+02  0.13292821951E+04  0.89445844733E+03 0.  0.
         23    2    4    4    0    0 -0.62264072025E+02 -0.11148819400E+04  0.15004661392E+03  0.11307682441E+04  0.96354972967E+02 0.  0.
         23    2    4    4    0    0 -0.83171612801E+02  0.14737644451E+03 -0.51472691649E+02  0.19851395103E+03  0.90116686561E+02 0.  0.
          3    1    3    3  502    0  0.14799312657E+03  0.80432718228E+03  0.11955988945E+04  0.14485513102E+04  0.00000000000E+00 0. -1.
         -4    1    3    3    0  502 -0.25574417461E+01  0.16317831316E+03  0.22661851277E+03  0.27926627567E+03  0.00000000000E+00 0.  1.
         11    1    5    5    0    0  0.23633212675E+02 -0.37238946574E+03  0.40272763826E+02  0.37530566002E+03  0.00000000000E+00 0.  1.
        -11    1    5    5    0    0 -0.85897284700E+02 -0.74249247421E+03  0.10977385009E+03  0.75546258408E+03  0.00000000000E+00 0. -1.
          4    1    6    6  503    0 -0.60627329255E+01  0.78742594193E+02  0.79969205555E+01  0.79379491112E+02  0.00000000000E+00 0. -1.
         -4    1    6    6    0  503 -0.77108879876E+02  0.68633850316E+02 -0.59469612204E+02  0.11913445992E+03  0.00000000000E+00 0.  1.
<mgrwt>
<rscale>  0 0.26519903E+04</rscale>
<asrwt>0</asrwt>
<pdfrwt beam="1">  1        1 0.35214547E+00 0.26519903E+04</pdfrwt>
<pdfrwt beam="2">  1       -2 0.11817757E+00 0.26519903E+04</pdfrwt>
<totfact> 0.80507759E-01</totfact>
</mgrwt>
</event>
<event>
12    4  0.4413110E-008  0.2094710E+04  0.7818608E-02  0.8563577E-01
         -2   -1    0    0    0  501 -0.00000000000E+00  0.00000000000E+00  0.67256172971E+03  0.67256172971E+03  0.00000000000E+00 0.  1.
          1   -1    0    0  501    0  0.00000000000E+00 -0.00000000000E+00 -0.16310068736E+04  0.16310068736E+04  0.00000000000E+00 0. -1.
        -24    2    1    2    0    0  0.64646907015E+03  0.53243221716E+03 -0.22971379335E+03  0.87193068739E+03  0.78028022153E+02 0.  0.
        254    2    1    2    0    0 -0.64646907015E+03 -0.53243221716E+03 -0.72873135057E+03  0.14316379160E+04  0.90395321591E+03 0.  0.
         23    2    4    4    0    0  0.85731557554E+02 -0.18984846711E+03 -0.55484109012E+03  0.59973168880E+03  0.91853812306E+02 0.  0.
         23    2    4    4    0    0 -0.73220062770E+03 -0.34258375005E+03 -0.17389026045E+03  0.83190622715E+03  0.91371566121E+02 0.  0.
          1    1    3    3  502    0  0.69422638054E+02  0.58522468715E+02 -0.50972357994E+02  0.10412762985E+03  0.00000000000E+00 0. -1.
         -2    1    3    3    0  502  0.57704643209E+03  0.47390974844E+03 -0.17874143535E+03  0.76780305754E+03  0.00000000000E+00 0.  1.
         11    1    5    5    0    0  0.18777898817E+01 -0.84334140633E+02 -0.13898914802E+03  0.16258461378E+03  0.00000000000E+00 0.  1.
        -11    1    5    5    0    0  0.83853767672E+02 -0.10551432647E+03 -0.41585194210E+03  0.43714707501E+03  0.00000000000E+00 0. -1.
          3    1    6    6  503    0 -0.47625905375E+03 -0.22253678269E+03 -0.15733436647E+03  0.54872525803E+03  0.00000000000E+00 0. -1.
         -3    1    6    6    0  503 -0.25594157395E+03 -0.12004696736E+03 -0.16555893985E+02  0.28318096912E+03  0.00000000000E+00 0.  1.
<mgrwt>
<rscale>  0 0.20947103E+04</rscale>
<asrwt>0</asrwt>
<pdfrwt beam="1">  1        1 0.25092413E+00 0.20947103E+04</pdfrwt>
<pdfrwt beam="2">  1       -2 0.10347104E+00 0.20947103E+04</pdfrwt>
<totfact> 0.32680796E+00</totfact>
</mgrwt>
</event>
<event>
12    4  0.4413110E-008  0.1627283E+04  0.7818608E-02  0.8803960E-01
          1   -1    0    0  501    0  0.00000000000E+00  0.00000000000E+00  0.12045551295E+04  0.12045551295E+04  0.00000000000E+00 0. -1.
         -2   -1    0    0    0  501 -0.00000000000E+00 -0.00000000000E+00 -0.54959070194E+03  0.54959070194E+03  0.00000000000E+00 0.  1.
        -24    2    1    2    0    0  0.25233338510E+03  0.23676392377E+03  0.63175981014E+03  0.72482387576E+03  0.80745899754E+02 0.  0.
        254    2    1    2    0    0 -0.25233338510E+03 -0.23676392377E+03  0.23204617377E+02  0.10293219556E+04  0.96914185818E+03 0.  0.
         23    2    4    4    0    0  0.14998099527E+03  0.11201864043E+03 -0.32600296651E+03  0.38628299477E+03  0.88848990606E+02 0.  0.
         23    2    4    4    0    0 -0.40231438037E+03 -0.34878256420E+03  0.34920758389E+03  0.64303896087E+03  0.89705244052E+02 0.  0.
          1    1    3    3  502    0  0.14787526346E+03  0.19011372679E+03  0.43453484768E+03  0.49682074886E+03  0.00000000000E+00 0. -1.
         -2    1    3    3    0  502  0.10445812165E+03  0.46650196986E+02  0.19722496247E+03  0.22800312690E+03  0.00000000000E+00 0.  1.
         11    1    5    5    0    0 -0.48165135182E+00  0.21427404175E+02 -0.87528387958E+02  0.90114284862E+02  0.00000000000E+00 0. -1.
        -11    1    5    5    0    0  0.15046264663E+03  0.90591236252E+02 -0.23847457855E+03  0.29616870991E+03  0.00000000000E+00 0.  1.
          4    1    6    6  503    0 -0.11064723166E+03 -0.14407259503E+03  0.14423273582E+03  0.23195431575E+03  0.00000000000E+00 0. -1.
         -4    1    6    6    0  503 -0.29166714871E+03 -0.20470996917E+03  0.20497484807E+03  0.41108464512E+03  0.00000000000E+00 0.  1.
<mgrwt>
<rscale>  0 0.16272828E+04</rscale>
<asrwt>0</asrwt>
<pdfrwt beam="1">  1        1 0.18531617E+00 0.16272828E+04</pdfrwt>
<pdfrwt beam="2">  1       -2 0.84552416E-01 0.16272828E+04</pdfrwt>
<totfact> 0.10858738E+01</totfact>
</mgrwt>
</event>
<event>
12    4  0.4413110E-008  0.1328644E+04  0.7818608E-02  0.9007154E-01
          1   -1    0    0  501    0  0.00000000000E+00  0.00000000000E+00  0.98139977812E+03  0.98139977812E+03  0.00000000000E+00 0. -1.
         -2   -1    0    0    0  501 -0.00000000000E+00 -0.00000000000E+00 -0.44968779527E+03  0.44968779527E+03  0.00000000000E+00 0.  1.
        -24    2    1    2    0    0 -0.11470661786E+03 -0.77822417622E+02 -0.19204802049E+03  0.25252195953E+03  0.87584022555E+02 0.  0.
        254    2    1    2    0    0  0.11470661786E+03  0.77822417622E+02  0.72376000334E+03  0.11785656139E+04  0.91976868118E+03 0.  0.
         23    2    4    4    0    0 -0.17457330295E+03  0.10165474017E+01 -0.15101621974E+03  0.24948313378E+03  0.94652331945E+02 0.  0.
         23    2    4    4    0    0  0.28927992081E+03  0.76805870220E+02  0.87477622308E+03  0.92908248008E+03  0.91535785632E+02 0.  0.
          1    1    3    3  502    0 -0.16739104425E+02 -0.50133333315E+01  0.71672476110E+01  0.18886518111E+02  0.00000000000E+00 0. -1.
         -2    1    3    3    0  502 -0.97967513432E+02 -0.72809084290E+02 -0.19921526810E+03  0.23363544142E+03  0.00000000000E+00 0.  1.
         11    1    5    5    0    0 -0.14051517862E+03  0.28483898577E+02 -0.14732520085E+03  0.20557374032E+03  0.00000000000E+00 0. -1.
        -11    1    5    5    0    0 -0.34058124333E+02 -0.27467351175E+02 -0.36910188827E+01  0.43909393460E+02  0.00000000000E+00 0.  1.
          4    1    6    6  503    0  0.25299009956E+03  0.63420498411E+02  0.82947765212E+03  0.86951671948E+03  0.00000000000E+00 0. -1.
         -4    1    6    6    0  503  0.36289821255E+02  0.13385371809E+02  0.45298570955E+02  0.59565760599E+02  0.00000000000E+00 0.  1.
<mgrwt>
<rscale>  0 0.13286437E+04</rscale>
<asrwt>0</asrwt>
<pdfrwt beam="1">  1        1 0.15098458E+00 0.13286437E+04</pdfrwt>
<pdfrwt beam="2">  1       -2 0.69182738E-01 0.13286437E+04</pdfrwt>
<totfact> 0.25653697E+01</totfact>
</mgrwt>
</event>
<event>
12    4  0.4413110E-008  0.3725106E+04  0.7818608E-02  0.8062421E-01
         -2   -1    0    0    0  501 -0.00000000000E+00  0.00000000000E+00  0.33802819989E+04  0.33802819989E+04  0.00000000000E+00 0.  1.
          1   -1    0    0  501    0  0.00000000000E+00 -0.00000000000E+00 -0.10262763392E+04  0.10262763392E+04  0.00000000000E+00 0. -1.
        -24    2    1    2    0    0  0.40083259130E+03 -0.17202920019E+03 -0.90478016317E+03  0.10059252932E+04  0.54751620374E+02 0.  0.
        254    2    1    2    0    0 -0.40083259130E+03  0.17202920019E+03  0.32587858229E+04  0.34006330449E+04  0.86853857395E+03 0.  0.
         23    2    4    4    0    0 -0.61813710131E+03  0.18876921122E+03  0.16479414943E+04  0.17725048482E+04  0.91296096205E+02 0.  0.
         23    2    4    4    0    0  0.21730451001E+03 -0.16740011031E+02  0.16108443286E+04  0.16281281967E+04  0.92089607204E+02 0.  0.
          1    1    3    3  502    0  0.28139334734E+03 -0.10442473218E+03 -0.66609408278E+03  0.73059432501E+03  0.00000000000E+00 0. -1.
         -2    1    3    3    0  502  0.11943924396E+03 -0.67604468004E+02 -0.23868608039E+03  0.27533096823E+03  0.00000000000E+00 0.  1.
         11    1    5    5    0    0 -0.53366284453E+03  0.19116868310E+03  0.13931383578E+04  0.15040531843E+04  0.00000000000E+00 0. -1.
        -11    1    5    5    0    0 -0.84474256788E+02 -0.23994718843E+01  0.25480313642E+03  0.26845166390E+03  0.00000000000E+00 0.  1.
          3    1    6    6  503    0  0.12151865967E+03 -0.53012713749E+02  0.10011909979E+04  0.10099309614E+04  0.00000000000E+00 0. -1.
         -3    1    6    6    0  503  0.95785850340E+02  0.36272702718E+02  0.60965333070E+03  0.61819723529E+03  0.00000000000E+00 0.  1.
<mgrwt>
<rscale>  0 0.37251059E+04</rscale>
<asrwt>0</asrwt>
<pdfrwt beam="1">  1        1 0.15788867E+00 0.37251059E+04</pdfrwt>
<pdfrwt beam="2">  1       -2 0.52004338E+00 0.37251059E+04</pdfrwt>
<totfact> 0.12656238E-02</totfact>
</mgrwt>
</event>
<event>
12    4  0.4795969E-008  0.1862177E+04  0.7818608E-02  0.8673916E-01
          1   -1    0    0  501    0  0.00000000000E+00  0.00000000000E+00  0.85836790988E+03  0.85836790988E+03  0.00000000000E+00 0. -1.
         -2   -1    0    0    0  501 -0.00000000000E+00 -0.00000000000E+00 -0.10099695732E+04  0.10099695732E+04  0.00000000000E+00 0.  1.
        -24    2    1    2    0    0  0.55126998537E+02 -0.71519274207E+02  0.64809910423E+03  0.65931480759E+03  0.80681931401E+02 0.  0.
        254    2    1    2    0    0 -0.55126998537E+02  0.71519274207E+02 -0.79970076758E+03  0.12090226755E+04  0.90225302421E+03 0.  0.
         23    2    4    4    0    0 -0.15729634283E+03  0.22945999761E+03  0.80661995154E+02  0.30424100353E+03  0.93070944953E+02 0.  0.
         23    2    4    4    0    0  0.10216934430E+03 -0.15794072340E+03 -0.88036276273E+03  0.90478167199E+03  0.90594883611E+02 0.  0.
          3    1    3    3  502    0  0.75002669192E+02 -0.50868867828E+02  0.53612696353E+03  0.54373262098E+03  0.00000000000E+00 0. -1.
         -4    1    3    3    0  502 -0.19875670655E+02 -0.20650406379E+02  0.11197214070E+03  0.11558218661E+03  0.00000000000E+00 0.  1.
         11    1    5    5    0    0 -0.17436702958E+02  0.14532829538E+01  0.25823985137E+02  0.31193410358E+02  0.00000000000E+00 0.  1.
        -11    1    5    5    0    0 -0.13985963988E+03  0.22800671465E+03  0.54838010018E+02  0.27304759317E+03  0.00000000000E+00 0. -1.
          1    1    6    6  503    0  0.91037536654E+02 -0.16605013032E+03 -0.85690252794E+03  0.87757758703E+03  0.00000000000E+00 0. -1.
         -1    1    6    6    0  503  0.11131807644E+02  0.81094069236E+01 -0.23460234790E+02  0.27204084960E+02  0.00000000000E+00 0.  1.
<mgrwt>
<rscale>  0 0.18621767E+04</rscale>
<asrwt>0</asrwt>
<pdfrwt beam="1">  1        1 0.13205660E+00 0.18621767E+04</pdfrwt>
<pdfrwt beam="2">  1       -2 0.15537993E+00 0.18621767E+04</pdfrwt>
<totfact> 0.44185224E+00</totfact>
</mgrwt>
</event>
<event>
12    4  0.4413110E-008  0.2104023E+04  0.7818608E-02  0.8559473E-01
          1   -1    0    0  501    0  0.00000000000E+00  0.00000000000E+00  0.15906437494E+04  0.15906437494E+04  0.00000000000E+00 0. -1.
         -2   -1    0    0    0  501 -0.00000000000E+00 -0.00000000000E+00 -0.69577349719E+03  0.69577349719E+03  0.00000000000E+00 0.  1.
        -24    2    1    2    0    0  0.70106700362E+03 -0.61548975118E+02 -0.15840438816E+03  0.72576704806E+03  0.79766145403E+02 0.  0.
        254    2    1    2    0    0 -0.70106700362E+03  0.61548975118E+02  0.10532746404E+04  0.15606501985E+04  0.91156917140E+03 0.  0.
         23    2    4    4    0    0  0.51994496177E+02 -0.87573851242E+02  0.69525014532E+03  0.70881178017E+03  0.93106219337E+02 0.  0.
         23    2    4    4    0    0 -0.75306149980E+03  0.14912282636E+03  0.35802449506E+03  0.85183841838E+03  0.90043945614E+02 0.  0.
          1    1    3    3  502    0  0.43478520279E+03 -0.40222885930E+02 -0.58411737480E+02  0.44053147923E+03  0.00000000000E+00 0. -1.
         -2    1    3    3    0  502  0.26628180083E+03 -0.21326089188E+02 -0.99992650676E+02  0.28523556883E+03  0.00000000000E+00 0.  1.
         11    1    5    5    0    0  0.57043801854E+01  0.17086692307E+02  0.18554319576E+03  0.18641559081E+03  0.00000000000E+00 0. -1.
        -11    1    5    5    0    0  0.46290115992E+02 -0.10466054355E+03  0.50970694957E+03  0.52239618935E+03  0.00000000000E+00 0.  1.
          2    1    6    6  503    0  0.18659792386E+01 -0.19898360620E+01  0.28954772762E+01  0.39780792765E+01  0.00000000000E+00 0. -1.
         -2    1    6    6    0  503 -0.75492747904E+03  0.15111266242E+03  0.35512901778E+03  0.84786033910E+03  0.00000000000E+00 0.  1.
<mgrwt>
<rscale>  0 0.21040226E+04</rscale>
<asrwt>0</asrwt>
<pdfrwt beam="1">  1        1 0.24471442E+00 0.21040226E+04</pdfrwt>
<pdfrwt beam="2">  1       -2 0.10704208E+00 0.21040226E+04</pdfrwt>
<totfact> 0.32079277E+00</totfact>
</mgrwt>
</event>
<event>
12    4  0.4413110E-008  0.1571131E+04  0.7818608E-02  0.8838482E-01
          1   -1    0    0  501    0  0.00000000000E+00  0.00000000000E+00  0.40254974634E+03  0.40254974634E+03  0.00000000000E+00 0. -1.
         -2   -1    0    0    0  501 -0.00000000000E+00 -0.00000000000E+00 -0.15330112688E+04  0.15330112688E+04  0.00000000000E+00 0.  1.
        -24    2    1    2    0    0  0.47212461022E+03 -0.21104894200E+03 -0.49638634214E+03  0.72132470860E+03  0.80415365970E+02 0.  0.
        254    2    1    2    0    0 -0.47212461022E+03  0.21104894200E+03 -0.63407518029E+03  0.12142363065E+04  0.89714835467E+03 0.  0.
         23    2    4    4    0    0 -0.68392569870E+03 -0.25173972563E+01 -0.56602701436E+03  0.89246959633E+03  0.91404052241E+02 0.  0.
         23    2    4    4    0    0  0.21180108848E+03  0.21356633925E+03 -0.68048165926E+02  0.32176671017E+03  0.91831261267E+02 0.  0.
          3    1    3    3  502    0  0.56013921708E+02 -0.44899818652E+02 -0.99984981988E+02  0.12308756949E+03  0.00000000000E+00 0. -1.
         -2    1    3    3    0  502  0.41611068851E+03 -0.16614912335E+03 -0.39640136015E+03  0.59823713911E+03  0.00000000000E+00 0.  1.
         11    1    5    5    0    0 -0.23374876072E+03 -0.40418162978E+02 -0.21824281721E+03  0.32233839098E+03  0.00000000000E+00 0. -1.
        -11    1    5    5    0    0 -0.45017693798E+03  0.37900765722E+02 -0.34778419715E+03  0.57013120535E+03  0.00000000000E+00 0.  1.
          2    1    6    6  503    0  0.81735073831E+02  0.10619978790E+03 -0.73847487416E+02  0.15301133501E+03  0.00000000000E+00 0. -1.
         -2    1    6    6    0  503  0.13006601465E+03  0.10736655136E+03  0.57993214905E+01  0.16875537516E+03  0.00000000000E+00 0.  1.
<mgrwt>
<rscale>  0 0.15711312E+04</rscale>
<asrwt>0</asrwt>
<pdfrwt beam="1">  1        1 0.61930732E-01 0.15711312E+04</pdfrwt>
<pdfrwt beam="2">  1       -2 0.23584788E+00 0.15711312E+04</pdfrwt>
<totfact> 0.39311163E+00</totfact>
</mgrwt>
</event>
<event>
12    4  0.4413110E-008  0.1965101E+04  0.7818608E-02  0.8623113E-01
         -2   -1    0    0    0  501 -0.00000000000E+00  0.00000000000E+00  0.48725590183E+03  0.48725590183E+03  0.00000000000E+00 0.  1.
          1   -1    0    0  501    0  0.00000000000E+00 -0.00000000000E+00 -0.19813115761E+04  0.19813115761E+04  0.00000000000E+00 0. -1.
        -24    2    1    2    0    0 -0.68360206008E+01  0.70130830454E+03 -0.47183734271E+03  0.84902662200E+03  0.79596844783E+02 0.  0.
        254    2    1    2    0    0  0.68360206008E+01 -0.70130830454E+03 -0.10222183316E+04  0.16195408560E+04  0.10421622702E+04 0.  0.
         23    2    4    4    0    0  0.24089518351E+02 -0.75527326768E+03 -0.19497182392E+03  0.78561980629E+03  0.90368435559E+02 0.  0.
         23    2    4    4    0    0 -0.17253497750E+02  0.53964963143E+02 -0.82724650768E+03  0.83392104968E+03  0.88756026305E+02 0.  0.
          1    1    3    3  502    0 -0.41370791469E+02  0.33549432706E+03 -0.23979009052E+03  0.41444815525E+03  0.00000000000E+00 0. -1.
         -2    1    3    3    0  502  0.34534770868E+02  0.36581397748E+03 -0.23204725219E+03  0.43457846675E+03  0.00000000000E+00 0.  1.
         11    1    5    5    0    0  0.20244378355E+02 -0.58027303996E+03 -0.10964567346E+03  0.59088815309E+03  0.00000000000E+00 0. -1.
        -11    1    5    5    0    0  0.38451399963E+01 -0.17500022773E+03 -0.85326150462E+02  0.19473165320E+03  0.00000000000E+00 0.  1.
          1    1    6    6  503    0 -0.13595863993E+02 -0.37694175904E+01 -0.57309906091E+03  0.57327270094E+03  0.00000000000E+00 0. -1.
         -1    1    6    6    0  503 -0.36576337566E+01  0.57734380733E+02 -0.25414744677E+03  0.26064834874E+03  0.00000000000E+00 0.  1.
<mgrwt>
<rscale>  0 0.19651013E+04</rscale>
<asrwt>0</asrwt>
<pdfrwt beam="1">  1        1 0.30481716E+00 0.19651013E+04</pdfrwt>
<pdfrwt beam="2">  1       -2 0.74962447E-01 0.19651013E+04</pdfrwt>
<totfact> 0.40077581E+00</totfact>
</mgrwt>
</event>
<event>
12    4  0.4413110E-008  0.2089940E+04  0.7818608E-02  0.8565688E-01
         -2   -1    0    0    0  501 -0.00000000000E+00  0.00000000000E+00  0.74315658135E+03  0.74315658135E+03  0.00000000000E+00 0.  1.
          1   -1    0    0  501    0  0.00000000000E+00 -0.00000000000E+00 -0.14693571781E+04  0.14693571781E+04  0.00000000000E+00 0. -1.
        -24    2    1    2    0    0  0.52176844482E+03  0.13067911591E+03 -0.99436755599E+03  0.11333540760E+04  0.80033017620E+02 0.  0.
        254    2    1    2    0    0 -0.52176844482E+03 -0.13067911591E+03  0.26816695926E+03  0.10791596834E+04  0.89629948282E+03 0.  0.
         23    2    4    4    0    0 -0.52857289868E+03 -0.28402571079E+03 -0.14989438589E+03  0.62505243950E+03  0.90345512321E+02 0.  0.
         23    2    4    4    0    0  0.68044538559E+01  0.15334659488E+03  0.41806134515E+03  0.45410724391E+03  0.88750334690E+02 0.  0.
          3    1    3    3  502    0  0.41950957790E+03  0.13244387811E+03 -0.77079469798E+03  0.88749880746E+03  0.00000000000E+00 0. -1.
         -4    1    3    3    0  502  0.10225886692E+03 -0.17647621965E+01 -0.22357285800E+03  0.24585526857E+03  0.00000000000E+00 0.  1.
         11    1    5    5    0    0 -0.13993464159E+02 -0.16752939073E+02  0.93288032339E+01  0.23738251336E+02  0.00000000000E+00 0. -1.
        -11    1    5    5    0    0 -0.51457943452E+03 -0.26727277172E+03 -0.15922318913E+03  0.60131418816E+03  0.00000000000E+00 0.  1.
          3    1    6    6  503    0 -0.20755499536E+01  0.47291216129E+01  0.12766962672E+03  0.12777404309E+03  0.00000000000E+00 0. -1.
         -3    1    6    6    0  503  0.88800038095E+01  0.14861747327E+03  0.29039171842E+03  0.32633320082E+03  0.00000000000E+00 0.  1.
<mgrwt>
<rscale>  0 0.20899401E+04</rscale>
<asrwt>0</asrwt>
<pdfrwt beam="1">  1        1 0.22605495E+00 0.20899401E+04</pdfrwt>
<pdfrwt beam="2">  1       -2 0.11433178E+00 0.20899401E+04</pdfrwt>
<totfact> 0.33201918E+00</totfact>
</mgrwt>
</event>
<event>
12    4  0.4413110E-008  0.2071917E+04  0.7818608E-02  0.8573716E-01
          1   -1    0    0  501    0  0.00000000000E+00  0.00000000000E+00  0.20550019626E+04  0.20550019626E+04  0.00000000000E+00 0. -1.
         -2   -1    0    0    0  501 -0.00000000000E+00 -0.00000000000E+00 -0.52224271835E+03  0.52224271835E+03  0.00000000000E+00 0.  1.
        -24    2    1    2    0    0 -0.62016033835E+03 -0.26077014232E+03  0.40622067199E+01  0.67767140614E+03  0.81376414215E+02 0.  0.
        254    2    1    2    0    0  0.62016033835E+03  0.26077014232E+03  0.15286970375E+04  0.18995732748E+04  0.90491109032E+03 0.  0.
         23    2    4    4    0    0  0.58442183968E+03  0.53423895604E+03  0.13188206596E+04  0.15410024124E+04  0.91871398502E+02 0.  0.
         23    2    4    4    0    0  0.35738498676E+02 -0.27346881372E+03  0.20987637791E+03  0.35857086242E+03  0.91992048622E+02 0.  0.
          1    1    3    3  502    0 -0.23635669193E+03 -0.71405968084E+02  0.31010032629E+02  0.24884718246E+03  0.00000000000E+00 0. -1.
         -2    1    3    3    0  502 -0.38380364643E+03 -0.18936417423E+03 -0.26947825909E+02  0.42882422368E+03  0.00000000000E+00 0.  1.
         11    1    5    5    0    0  0.11778221718E+03  0.12916836764E+03  0.36195764349E+03  0.40195827342E+03  0.00000000000E+00 0. -1.
        -11    1    5    5    0    0  0.46663962250E+03  0.40507058839E+03  0.95686301613E+03  0.11390441390E+04  0.00000000000E+00 0.  1.
          4    1    6    6  503    0  0.44145715099E+02 -0.49038475238E+02  0.42705376596E+02  0.78596217501E+02  0.00000000000E+00 0. -1.
         -4    1    6    6    0  503 -0.84072164232E+01 -0.22443033848E+03  0.16717100131E+03  0.27997464492E+03  0.00000000000E+00 0.  1.
<mgrwt>
<rscale>  0 0.20719168E+04</rscale>
<asrwt>0</asrwt>
<pdfrwt beam="1">  1        1 0.31615414E+00 0.20719168E+04</pdfrwt>
<pdfrwt beam="2">  1       -2 0.80345035E-01 0.20719168E+04</pdfrwt>
<totfact> 0.30310578E+00</totfact>
</mgrwt>
</event>
<event>
12    4  0.4413110E-008  0.1679294E+04  0.7818608E-02  0.8773263E-01
         -2   -1    0    0    0  501 -0.00000000000E+00  0.00000000000E+00  0.10497382711E+04  0.10497382711E+04  0.00000000000E+00 0.  1.
          1   -1    0    0  501    0  0.00000000000E+00 -0.00000000000E+00 -0.67160236601E+03  0.67160236601E+03  0.00000000000E+00 0. -1.
        -24    2    1    2    0    0  0.52184799486E+03  0.25209028941E+02 -0.14277185366E+03  0.54685512773E+03  0.75537432105E+02 0.  0.
        254    2    1    2    0    0 -0.52184799486E+03 -0.25209028941E+02  0.52090775872E+03  0.11744855094E+04  0.91384380159E+03 0.  0.
         23    2    4    4    0    0 -0.51910814963E+03 -0.19465781621E+03  0.70960271293E+03  0.90539501275E+03  0.94016926642E+02 0.  0.
         23    2    4    4    0    0 -0.27398452302E+01  0.16944878727E+03 -0.18869495421E+03  0.26909049660E+03  0.89908349790E+02 0.  0.
          1    1    3    3  502    0  0.34518472089E+03  0.42324430543E+01 -0.12860415935E+03  0.36838761504E+03  0.00000000000E+00 0. -1.
         -2    1    3    3    0  502  0.17666327397E+03  0.20976585887E+02 -0.14167694306E+02  0.17846751269E+03  0.00000000000E+00 0.  1.
         11    1    5    5    0    0 -0.22823854425E+03 -0.13217440127E+03  0.36137119809E+03  0.44738355830E+03  0.00000000000E+00 0. -1.
        -11    1    5    5    0    0 -0.29086960538E+03 -0.62483414935E+02  0.34823151484E+03  0.45801145445E+03  0.00000000000E+00 0.  1.
          4    1    6    6  503    0  0.18946353227E+02  0.16898127029E+03 -0.17017813268E+03  0.24057063589E+03  0.00000000000E+00 0. -1.
         -4    1    6    6    0  503 -0.21686198457E+02  0.46751697234E+00 -0.18516821522E+02  0.28519860710E+02  0.00000000000E+00 0.  1.
<mgrwt>
<rscale>  0 0.16792935E+04</rscale>
<asrwt>0</asrwt>
<pdfrwt beam="1">  1        1 0.10332344E+00 0.16792935E+04</pdfrwt>
<pdfrwt beam="2">  1       -2 0.16149820E+00 0.16792935E+04</pdfrwt>
<totfact> 0.59406071E+00</totfact>
</mgrwt>
</event>
<event>
12    4  0.4413110E-008  0.4164912E+04  0.7818608E-02  0.7972080E-01
         -2   -1    0    0    0  501 -0.00000000000E+00  0.00000000000E+00  0.16947785290E+04  0.16947785290E+04  0.00000000000E+00 0.  1.
          1   -1    0    0  501    0  0.00000000000E+00 -0.00000000000E+00 -0.25588143791E+04  0.25588143791E+04  0.00000000000E+00 0. -1.
        -24    2    1    2    0    0  0.82730620355E+03 -0.13874765965E+04 -0.15890899064E+04  0.22673668179E+04  0.78858709209E+02 0.  0.
        254    2    1    2    0    0 -0.82730620355E+03  0.13874765965E+04  0.72505405634E+03  0.19862260902E+04  0.89992435040E+03 0.  0.
         23    2    4    4    0    0  0.54764711761E+02  0.52907265422E+03 -0.27830539074E+02  0.54047428037E+03  0.91765253478E+02 0.  0.
         23    2    4    4    0    0 -0.88207091531E+03  0.85840394229E+03  0.75288459542E+03  0.14457518098E+04  0.91960066310E+02 0.  0.
          3    1    3    3  502    0  0.32925786258E+03 -0.57554900353E+03 -0.70424170539E+03  0.96727647296E+03  0.00000000000E+00 0. -1.
         -4    1    3    3    0  502  0.49804834097E+03 -0.81192759298E+03 -0.88484820106E+03  0.13000903450E+04  0.00000000000E+00 0.  1.
         11    1    5    5    0    0  0.23052410645E+02  0.15820763035E+03  0.33190737466E+02  0.16328714889E+03  0.00000000000E+00 0.  1.
        -11    1    5    5    0    0  0.31712301116E+02  0.37086502387E+03 -0.61021276540E+02  0.37718713149E+03  0.00000000000E+00 0. -1.
          4    1    6    6  503    0 -0.82559487790E+03  0.77246933701E+03  0.70401945231E+03  0.13319005850E+04  0.00000000000E+00 0. -1.
         -4    1    6    6    0  503 -0.56476037410E+02  0.85934605280E+02  0.48865143108E+02  0.11385122484E+03  0.00000000000E+00 0.  1.
<mgrwt>
<rscale>  0 0.41649123E+04</rscale>
<asrwt>0</asrwt>
<pdfrwt beam="1">  1        1 0.39366375E+00 0.41649123E+04</pdfrwt>
<pdfrwt beam="2">  1       -2 0.26073516E+00 0.41649123E+04</pdfrwt>
<totfact> 0.46250992E-02</totfact>
</mgrwt>
</event>
<event>
12    4  0.4413110E-008  0.1803842E+04  0.7818608E-02  0.8704259E-01
          1   -1    0    0  501    0  0.00000000000E+00  0.00000000000E+00  0.10643322409E+04  0.10643322409E+04  0.00000000000E+00 0. -1.
         -2   -1    0    0    0  501 -0.00000000000E+00 -0.00000000000E+00 -0.76429291791E+03  0.76429291791E+03  0.00000000000E+00 0.  1.
        -24    2    1    2    0    0 -0.36571559680E+03 -0.55329831532E+03  0.22353191221E+03  0.70538729632E+03  0.87851002023E+02 0.  0.
        254    2    1    2    0    0  0.36571559680E+03  0.55329831532E+03  0.76507410789E+02  0.11232378625E+04  0.90328455559E+03 0.  0.
         23    2    4    4    0    0  0.48280179109E+03  0.30714201185E+03 -0.29725743225E+03  0.65135536598E+03  0.92021991059E+02 0.  0.
         23    2    4    4    0    0 -0.11708619429E+03  0.24615630347E+03  0.37376484304E+03  0.47188249653E+03  0.93117291661E+02 0.  0.
          1    1    3    3  502    0 -0.34152139156E+03 -0.48029644216E+03  0.21768708529E+03  0.62825886412E+03  0.00000000000E+00 0. -1.
         -2    1    3    3    0  502 -0.24194205240E+02 -0.73001873160E+02  0.58448269228E+01  0.77128432201E+02  0.00000000000E+00 0.  1.
         11    1    5    5    0    0  0.29397377874E+03  0.18564140812E+03 -0.23032014048E+03  0.41704997555E+03  0.00000000000E+00 0.  1.
        -11    1    5    5    0    0  0.18882801235E+03  0.12150060373E+03 -0.66937291770E+02  0.23430539043E+03  0.00000000000E+00 0. -1.
          1    1    6    6  503    0 -0.38576500306E+02  0.13706524139E+03  0.12657677396E+03  0.19051694539E+03  0.00000000000E+00 0. -1.
         -1    1    6    6    0  503 -0.78509693981E+02  0.10909106208E+03  0.24718806907E+03  0.28136555114E+03  0.00000000000E+00 0.  1.
<mgrwt>
<rscale>  0 0.18038421E+04</rscale>
<asrwt>0</asrwt>
<pdfrwt beam="1">  1        1 0.16374342E+00 0.18038421E+04</pdfrwt>
<pdfrwt beam="2">  1       -2 0.11758353E+00 0.18038421E+04</pdfrwt>
<totfact> 0.62323897E+00</totfact>
</mgrwt>
</event>
<event>
12    4  0.4413110E-008  0.1502034E+04  0.7818608E-02  0.8883102E-01
         -2   -1    0    0    0  501 -0.00000000000E+00  0.00000000000E+00  0.32145903193E+03  0.32145903193E+03  0.00000000000E+00 0.  1.
          1   -1    0    0  501    0  0.00000000000E+00 -0.00000000000E+00 -0.17545823695E+04  0.17545823695E+04  0.00000000000E+00 0. -1.
        -24    2    1    2    0    0 -0.46339926286E+03 -0.27650575583E+02 -0.35509646334E+03  0.58988521550E+03  0.79797481390E+02 0.  0.
        254    2    1    2    0    0  0.46339926286E+03  0.27650575583E+02 -0.10780268743E+04  0.14861561860E+04  0.91160015153E+03 0.  0.
         23    2    4    4    0    0  0.43207527405E+03  0.42489833436E+03 -0.60714954948E+03  0.86262387988E+03  0.90894145750E+02 0.  0.
         23    2    4    4    0    0  0.31323988817E+02 -0.39724775877E+03 -0.47087732478E+03  0.62353230607E+03  0.90995096551E+02 0.  0.
          3    1    3    3  502    0 -0.44754176347E+03 -0.28211243868E+02 -0.35793538553E+03  0.57376584470E+03  0.00000000000E+00 0. -1.
         -4    1    3    3    0  502 -0.15857499393E+02  0.56066828552E+00  0.28389221832E+01  0.16119370803E+02  0.00000000000E+00 0.  1.
         11    1    5    5    0    0 -0.33551749346E+01  0.93751612272E+01 -0.46173154300E+01  0.10975903091E+02  0.00000000000E+00 0. -1.
        -11    1    5    5    0    0  0.43543044898E+03  0.41552317313E+03 -0.60253223405E+03  0.85164797679E+03  0.00000000000E+00 0.  1.
          2    1    6    6  503    0  0.32340500495E+02 -0.44044367900E+02 -0.77888855294E+02  0.95144564190E+02  0.00000000000E+00 0. -1.
         -2    1    6    6    0  503 -0.10165116787E+01 -0.35320339087E+03 -0.39298846948E+03  0.52838774188E+03  0.00000000000E+00 0.  1.
<mgrwt>
<rscale>  0 0.15020338E+04</rscale>
<asrwt>0</asrwt>
<pdfrwt beam="1">  1        1 0.26993575E+00 0.15020338E+04</pdfrwt>
<pdfrwt beam="2">  1       -2 0.49455235E-01 0.15020338E+04</pdfrwt>
<totfact> 0.14373479E+01</totfact>
</mgrwt>
</event>
<event>
12    4  0.4413110E-008  0.1722564E+04  0.7818608E-02  0.8748599E-01
          1   -1    0    0  501    0  0.00000000000E+00  0.00000000000E+00  0.38320444972E+04  0.38320444972E+04  0.00000000000E+00 0. -1.
         -2   -1    0    0    0  501 -0.00000000000E+00 -0.00000000000E+00 -0.19357980686E+03  0.19357980686E+03  0.00000000000E+00 0.  1.
        -24    2    1    2    0    0  0.65337589668E+00 -0.41508331339E+03  0.24344565186E+03  0.48732344666E+03  0.76966046408E+02 0.  0.
        254    2    1    2    0    0 -0.65337589668E+00  0.41508331339E+03  0.33950190385E+04  0.35383008574E+04  0.90615898268E+03 0.  0.
         23    2    4    4    0    0  0.84498451538E+02 -0.16036156650E+03  0.18181818687E+03  0.27160929979E+03  0.88645013000E+02 0.  0.
         23    2    4    4    0    0 -0.85151827435E+02  0.57544487990E+03  0.32132008516E+04  0.32666915576E+04  0.90699373256E+02 0.  0.
          3    1    3    3  502    0 -0.17810759588E+02 -0.11603322822E+03  0.10403915275E+03  0.15686006029E+03  0.00000000000E+00 0. -1.
         -4    1    3    3    0  502  0.18464135485E+02 -0.29905008517E+03  0.13940649911E+03  0.33046338638E+03  0.00000000000E+00 0.  1.
         11    1    5    5    0    0 -0.14871301137E+02 -0.35755455841E+02  0.16860400751E+02  0.42236019383E+02  0.00000000000E+00 0. -1.
        -11    1    5    5    0    0  0.99369752675E+02 -0.12460611066E+03  0.16495778612E+03  0.22937328040E+03  0.00000000000E+00 0.  1.
          2    1    6    6  503    0 -0.32467568092E+02  0.13864360408E+03  0.10102421746E+04  0.10202281330E+04  0.00000000000E+00 0. -1.
         -2    1    6    6    0  503 -0.52684259343E+02  0.43680127582E+03  0.22029586770E+04  0.22464634247E+04  0.00000000000E+00 0.  1.
<mgrwt>
<rscale>  0 0.17225637E+04</rscale>
<asrwt>0</asrwt>
<pdfrwt beam="1">  1        1 0.58954525E+00 0.17225637E+04</pdfrwt>
<pdfrwt beam="2">  1       -2 0.29781512E-01 0.17225637E+04</pdfrwt>
<totfact> 0.11746679E+00</totfact>
</mgrwt>
</event>
<event>
12    4  0.4413110E-008  0.1163225E+04  0.7818608E-02  0.9145669E-01
          1   -1    0    0  501    0  0.00000000000E+00  0.00000000000E+00  0.14281984491E+04  0.14281984491E+04  0.00000000000E+00 0. -1.
         -2   -1    0    0    0  501 -0.00000000000E+00 -0.00000000000E+00 -0.23685307668E+03  0.23685307668E+03  0.00000000000E+00 0.  1.
        -24    2    1    2    0    0  0.22057374594E+03 -0.79452420472E+02  0.23229063862E+03  0.33988999648E+03  0.81245334671E+02 0.  0.
        254    2    1    2    0    0 -0.22057374594E+03  0.79452420472E+02  0.95905473379E+03  0.13251615293E+04  0.88391268334E+03 0.  0.
         23    2    4    4    0    0 -0.54305226019E+03 -0.55984187667E+02  0.61150095252E+03  0.82396155938E+03  0.83302159875E+02 0.  0.
         23    2    4    4    0    0  0.32247851425E+03  0.13543660814E+03  0.34755378127E+03  0.50119996990E+03  0.89846045967E+02 0.  0.
          1    1    3    3  502    0  0.20986627980E+03 -0.48540204287E+02  0.20094789023E+03  0.29458455733E+03  0.00000000000E+00 0. -1.
         -2    1    3    3    0  502  0.10707466137E+02 -0.30912216185E+02  0.31342748390E+02  0.45305439157E+02  0.00000000000E+00 0.  1.
         11    1    5    5    0    0 -0.43819279113E+03 -0.65214532399E+02  0.53039364709E+03  0.69107400350E+03  0.00000000000E+00 0. -1.
        -11    1    5    5    0    0 -0.10485946905E+03  0.92303447325E+01  0.81107305429E+02  0.13288755588E+03  0.00000000000E+00 0.  1.
          1    1    6    6  503    0  0.29677246274E+03  0.10742887034E+03  0.33705962443E+03  0.46176189454E+03  0.00000000000E+00 0. -1.
         -1    1    6    6    0  503  0.25706051507E+02  0.28007737795E+02  0.10494156839E+02  0.39438075362E+02  0.00000000000E+00 0.  1.
<mgrwt>
<rscale>  0 0.11632252E+04</rscale>
<asrwt>0</asrwt>
<pdfrwt beam="1">  1        1 0.21972283E+00 0.11632252E+04</pdfrwt>
<pdfrwt beam="2">  1       -2 0.36438936E-01 0.11632252E+04</pdfrwt>
<totfact> 0.45299665E+01</totfact>
</mgrwt>
</event>
<event>
12    4  0.4413110E-008  0.2534732E+04  0.7818608E-02  0.8390716E-01
          1   -1    0    0  501    0  0.00000000000E+00  0.00000000000E+00  0.20546891638E+04  0.20546891638E+04  0.00000000000E+00 0. -1.
         -4   -1    0    0    0  501 -0.00000000000E+00 -0.00000000000E+00 -0.78173211300E+03  0.78173211300E+03  0.00000000000E+00 0.  1.
        -24    2    1    2    0    0  0.83658181721E+03 -0.52598448254E+03  0.11547301527E+04  0.15223852789E+04  0.87899938707E+02 0.  0.
        254    2    1    2    0    0 -0.83658181721E+03  0.52598448254E+03  0.11822689810E+03  0.13140359978E+04  0.85801176648E+03 0.  0.
         23    2    4    4    0    0 -0.87887183386E+03  0.42370476898E+03 -0.16973083043E+03  0.99452569266E+03  0.91276322048E+02 0.  0.
         23    2    4    4    0    0  0.42290016644E+02  0.10227971357E+03  0.28795772853E+03  0.31951030518E+03  0.83172088950E+02 0.  0.
          1    1    3    3  502    0  0.14553715128E+03 -0.11319834858E+03  0.26161659149E+03  0.32005963423E+03  0.00000000000E+00 0. -1.
         -2    1    3    3    0  502  0.69104466594E+03 -0.41278613396E+03  0.89311356118E+03  0.12023256447E+04  0.00000000000E+00 0.  1.
         11    1    5    5    0    0 -0.34548979012E+03  0.15957869244E+03 -0.11109649302E+03  0.39644795991E+03  0.00000000000E+00 0. -1.
        -11    1    5    5    0    0 -0.53338204374E+03  0.26412607654E+03 -0.58634337413E+02  0.59807773275E+03  0.00000000000E+00 0.  1.
          1    1    6    6  503    0 -0.13004762113E+02 -0.44196917498E+00  0.59153448624E+01  0.14293721671E+02  0.00000000000E+00 0. -1.
         -1    1    6    6    0  503  0.55294778757E+02  0.10272168274E+03  0.28204238367E+03  0.30521658351E+03  0.00000000000E+00 0.  1.
<mgrwt>
<rscale>  0 0.25347319E+04</rscale>
<asrwt>0</asrwt>
<pdfrwt beam="1">  1        1 0.31610602E+00 0.25347319E+04</pdfrwt>
<pdfrwt beam="2">  1       -4 0.12026648E+00 0.25347319E+04</pdfrwt>
<totfact> 0.62654884E-01</totfact>
</mgrwt>
</event>
<event>
12    4  0.4413110E-008  0.2686068E+04  0.7818608E-02  0.8339540E-01
          1   -1    0    0  501    0  0.00000000000E+00  0.00000000000E+00  0.26287231350E+04  0.26287231350E+04  0.00000000000E+00 0. -1.
         -2   -1    0    0    0  501 -0.00000000000E+00 -0.00000000000E+00 -0.68616580695E+03  0.68616580695E+03  0.00000000000E+00 0.  1.
        -24    2    1    2    0    0  0.49766579211E+03  0.11064896786E+04  0.78629373551E+03  0.14477218394E+04  0.75166723479E+02 0.  0.
        254    2    1    2    0    0 -0.49766579211E+03 -0.11064896786E+04  0.11562635925E+04  0.18671671026E+04  0.82302906636E+03 0.  0.
         23    2    4    4    0    0 -0.44657152721E+03 -0.32293662412E+03  0.85438631369E+03  0.10207915512E+04  0.91242675937E+02 0.  0.
         23    2    4    4    0    0 -0.51094264898E+02 -0.78355305444E+03  0.30187727886E+03  0.84637555135E+03  0.93035850067E+02 0.  0.
          1    1    3    3  502    0  0.18132528371E+03  0.41586951581E+03  0.25151184373E+03  0.51873357345E+03  0.00000000000E+00 0. -1.
         -4    1    3    3    0  502  0.31634050840E+03  0.69062016276E+03  0.53478189178E+03  0.92898826593E+03  0.00000000000E+00 0.  1.
         11    1    5    5    0    0 -0.31387035130E+03 -0.25742247546E+03  0.68128288322E+03  0.79304936496E+03  0.00000000000E+00 0.  1.
        -11    1    5    5    0    0 -0.13270117590E+03 -0.65514148662E+02  0.17310343047E+03  0.22774218626E+03  0.00000000000E+00 0. -1.
          3    1    6    6  503    0 -0.19347320623E+02 -0.10571716921E+03  0.10841296066E+02  0.10801838909E+03  0.00000000000E+00 0. -1.
         -3    1    6    6    0  503 -0.31746944275E+02 -0.67783588524E+03  0.29103598279E+03  0.73835716226E+03  0.00000000000E+00 0.  1.
<mgrwt>
<rscale>  0 0.26860677E+04</rscale>
<asrwt>0</asrwt>
<pdfrwt beam="1">  1        1 0.40441894E+00 0.26860677E+04</pdfrwt>
<pdfrwt beam="2">  1       -2 0.10556397E+00 0.26860677E+04</pdfrwt>
<totfact> 0.61436708E-01</totfact>
</mgrwt>
</event>
<event>
12    4  0.4413110E-008  0.2588313E+04  0.7818608E-02  0.8372182E-01
          1   -1    0    0  501    0  0.00000000000E+00  0.00000000000E+00  0.18422620697E+04  0.18422620697E+04  0.00000000000E+00 0. -1.
         -2   -1    0    0    0  501 -0.00000000000E+00 -0.00000000000E+00 -0.90912182128E+03  0.90912182128E+03  0.00000000000E+00 0.  1.
        -24    2    1    2    0    0 -0.10402215669E+04  0.33002534156E+03  0.74243377073E+03  0.13225265534E+04  0.83011724068E+02 0.  0.
        254    2    1    2    0    0  0.10402215669E+04 -0.33002534156E+03  0.19070647773E+03  0.14288573376E+04  0.90237835534E+03 0.  0.
         23    2    4    4    0    0  0.90996569573E+03 -0.55657310959E+03 -0.35993115664E+02  0.10711849706E+04  0.91271809268E+02 0.  0.
         23    2    4    4    0    0  0.13025587117E+03  0.22654776803E+03  0.22669959340E+03  0.35767236696E+03  0.90809323676E+02 0.  0.
          1    1    3    3  502    0 -0.71669900908E+03  0.25057840495E+03  0.47778567648E+03  0.89706530380E+03  0.00000000000E+00 0. -1.
         -2    1    3    3    0  502 -0.32352255782E+03  0.79446936616E+02  0.26464809425E+03  0.42546124964E+03  0.00000000000E+00 0.  1.
         11    1    5    5    0    0  0.61473926851E+03 -0.34265058401E+03  0.89430515969E+01  0.70384214789E+03  0.00000000000E+00 0.  1.
        -11    1    5    5    0    0  0.29522642722E+03 -0.21392252559E+03 -0.44936167261E+02  0.36734282273E+03  0.00000000000E+00 0. -1.
          2    1    6    6  503    0  0.33240258788E+02  0.37604670822E+01  0.32069470947E+02  0.46341200716E+02  0.00000000000E+00 0. -1.
         -2    1    6    6    0  503  0.97015612378E+02  0.22278730095E+03  0.19463012245E+03  0.31133116624E+03  0.00000000000E+00 0.  1.
<mgrwt>
<rscale>  0 0.25883127E+04</rscale>
<asrwt>0</asrwt>
<pdfrwt beam="1">  1        1 0.28342493E+00 0.25883127E+04</pdfrwt>
<pdfrwt beam="2">  1       -2 0.13986490E+00 0.25883127E+04</pdfrwt>
<totfact> 0.10636404E+00</totfact>
</mgrwt>
</event>
<event>
12    4  0.4413110E-008  0.1567472E+04  0.7818608E-02  0.8840784E-01
         -4   -1    0    0    0  501 -0.00000000000E+00  0.00000000000E+00  0.26649225743E+03  0.26649225743E+03  0.00000000000E+00 0.  1.
          1   -1    0    0  501    0  0.00000000000E+00 -0.00000000000E+00 -0.23049156115E+04  0.23049156115E+04  0.00000000000E+00 0. -1.
        -24    2    1    2    0    0 -0.69670683842E+02 -0.13611776748E+03 -0.14948123460E+04  0.15047913519E+04  0.80938324340E+02 0.  0.
        254    2    1    2    0    0  0.69670683842E+02  0.13611776748E+03 -0.54361100810E+03  0.10666165170E+04  0.90486231848E+03 0.  0.
         23    2    4    4    0    0  0.20851957534E+03 -0.31156850875E+03 -0.42622177393E+03  0.57500971628E+03  0.91737801904E+02 0.  0.
         23    2    4    4    0    0 -0.13884889149E+03  0.44768627623E+03 -0.11738923417E+03  0.49160680073E+03  0.90526226184E+02 0.  0.
          1    1    3    3  502    0 -0.63418627818E+02 -0.11226258782E+03 -0.14236543289E+04  0.14294811853E+04  0.00000000000E+00 0. -1.
         -2    1    3    3    0  502 -0.62520560247E+01 -0.23855179662E+02 -0.71158017106E+02  0.75310166642E+02  0.00000000000E+00 0.  1.
         11    1    5    5    0    0  0.11531498333E+03 -0.24414078675E+03 -0.31670151603E+03  0.41617558721E+03  0.00000000000E+00 0.  1.
        -11    1    5    5    0    0  0.93204592010E+02 -0.67427721999E+02 -0.10952025790E+03  0.15883412907E+03  0.00000000000E+00 0. -1.
          3    1    6    6  503    0 -0.15407484224E+02  0.10704739331E+02  0.82031122390E+01  0.20476158445E+02  0.00000000000E+00 0. -1.
         -3    1    6    6    0  503 -0.12344140727E+03  0.43698153690E+03 -0.12559234641E+03  0.47113064228E+03  0.00000000000E+00 0.  1.
<mgrwt>
<rscale>  0 0.15674721E+04</rscale>
<asrwt>0</asrwt>
<pdfrwt beam="1">  1        1 0.35460241E+00 0.15674721E+04</pdfrwt>
<pdfrwt beam="2">  1       -4 0.40998808E-01 0.15674721E+04</pdfrwt>
<totfact> 0.51223339E+00</totfact>
</mgrwt>
</event>
<event>
12    4  0.4413110E-008  0.2143861E+04  0.7818608E-02  0.8542165E-01
          1   -1    0    0  501    0  0.00000000000E+00  0.00000000000E+00  0.14988873810E+04  0.14988873810E+04  0.00000000000E+00 0. -1.
         -2   -1    0    0    0  501 -0.00000000000E+00 -0.00000000000E+00 -0.76659161926E+03  0.76659161926E+03  0.00000000000E+00 0.  1.
        -24    2    1    2    0    0 -0.61593950095E+03 -0.61662150666E+03  0.43307079707E+03  0.97644646205E+03  0.79333641446E+02 0.  0.
        254    2    1    2    0    0  0.61593950095E+03  0.61662150666E+03  0.29922496464E+03  0.12890325382E+04  0.90136882223E+03 0.  0.
         23    2    4    4    0    0  0.69905546692E+03  0.65709707702E+03 -0.50175704880E+00  0.96414619705E+03  0.95511900143E+02 0.  0.
         23    2    4    4    0    0 -0.83115965968E+02 -0.40475570351E+02  0.29972672169E+03  0.32488634112E+03  0.84666943733E+02 0.  0.
          1    1    3    3  502    0 -0.53596575610E+03 -0.49572857467E+03  0.35499180951E+03  0.81180373015E+03  0.00000000000E+00 0. -1.
         -2    1    3    3    0  502 -0.79973744850E+02 -0.12089293199E+03  0.78078987561E+02  0.16464273191E+03  0.00000000000E+00 0.  1.
         11    1    5    5    0    0  0.51136464745E+03  0.43283688116E+03  0.26371370171E+02  0.67047521768E+03  0.00000000000E+00 0. -1.
        -11    1    5    5    0    0  0.18769081947E+03  0.22426019585E+03 -0.26873127219E+02  0.29367097937E+03  0.00000000000E+00 0.  1.
          1    1    6    6  503    0 -0.95419781689E+02 -0.14372108253E+02  0.23202125793E+03  0.25128739794E+03  0.00000000000E+00 0. -1.
         -1    1    6    6    0  503  0.12303815720E+02 -0.26103462098E+02  0.67705463759E+02  0.73598943183E+02  0.00000000000E+00 0.  1.
<mgrwt>
<rscale>  0 0.21438605E+04</rscale>
<asrwt>0</asrwt>
<pdfrwt beam="1">  1        1 0.23059806E+00 0.21438605E+04</pdfrwt>
<pdfrwt beam="2">  1       -2 0.11793717E+00 0.21438605E+04</pdfrwt>
<totfact> 0.29216583E+00</totfact>
</mgrwt>
</event>
<event>
12    4  0.4413110E-008  0.1480538E+04  0.7818608E-02  0.8897499E-01
          1   -1    0    0  501    0  0.00000000000E+00  0.00000000000E+00  0.13338689865E+04  0.13338689865E+04  0.00000000000E+00 0. -1.
         -2   -1    0    0    0  501 -0.00000000000E+00 -0.00000000000E+00 -0.41083360249E+03  0.41083360249E+03  0.00000000000E+00 0.  1.
        -24    2    1    2    0    0 -0.19766730723E+03  0.33432341870E+03  0.51326734600E+03  0.64861250026E+03  0.80064314024E+02 0.  0.
        254    2    1    2    0    0  0.19766730723E+03 -0.33432341870E+03  0.40976803796E+03  0.10960900887E+04  0.93949940125E+03 0.  0.
         23    2    4    4    0    0  0.18625741193E+03 -0.64581496704E+03  0.19085786646E+03  0.70479023381E+03  0.92378316321E+02 0.  0.
         23    2    4    4    0    0  0.11409895300E+02  0.31149154834E+03  0.21891017150E+03  0.39129985488E+03  0.89647882549E+02 0.  0.
          3    1    3    3  502    0 -0.18580963371E+03  0.25215866503E+03  0.39499425556E+03  0.50411275946E+03  0.00000000000E+00 0. -1.
         -4    1    3    3    0  502 -0.11857673522E+02  0.82164753669E+02  0.11827309045E+03  0.14449974080E+03  0.00000000000E+00 0.  1.
         11    1    5    5    0    0  0.13824648025E+03 -0.45132003056E+03  0.17651698158E+03  0.50394454464E+03  0.00000000000E+00 0.  1.
        -11    1    5    5    0    0  0.48010931679E+02 -0.19449493648E+03  0.14340884879E+02  0.20084568917E+03  0.00000000000E+00 0. -1.
          2    1    6    6  503    0  0.31869270046E+02  0.10113129528E+03  0.11277504329E+03  0.15479470161E+03  0.00000000000E+00 0. -1.
         -2    1    6    6    0  503 -0.20459374746E+02  0.21036025306E+03  0.10613512821E+03  0.23650515327E+03  0.00000000000E+00 0.  1.
<mgrwt>
<rscale>  0 0.14805380E+04</rscale>
<asrwt>0</asrwt>
<pdfrwt beam="1">  1        1 0.20521061E+00 0.14805380E+04</pdfrwt>
<pdfrwt beam="2">  1       -2 0.63205170E-01 0.14805380E+04</pdfrwt>
<totfact> 0.16859342E+01</totfact>
</mgrwt>
</event>
<event>
12    4  0.4413110E-008  0.1960262E+04  0.7818608E-02  0.8625428E-01
          1   -1    0    0  501    0  0.00000000000E+00  0.00000000000E+00  0.12397988400E+04  0.12397988400E+04  0.00000000000E+00 0. -1.
         -2   -1    0    0    0  501 -0.00000000000E+00 -0.00000000000E+00 -0.77484883140E+03  0.77484883140E+03  0.00000000000E+00 0.  1.
        -24    2    1    2    0    0 -0.14900731528E+02  0.27697954793E+03 -0.55560585439E+03  0.62545274532E+03  0.74522274662E+02 0.  0.
        254    2    1    2    0    0  0.14900731528E+02 -0.27697954793E+03  0.10205558630E+04  0.13891949261E+04  0.90077109825E+03 0.  0.
         23    2    4    4    0    0 -0.32942512780E+02  0.92174716814E+02  0.99614872845E+03  0.10052244782E+04  0.92642187190E+02 0.  0.
         23    2    4    4    0    0  0.47843244307E+02 -0.36915426474E+03  0.24407134557E+02  0.38397044789E+03  0.90960152994E+02 0.  0.
          3    1    3    3  502    0  0.15964794399E+02  0.12873165869E+02 -0.53266732590E+02  0.57078348439E+02  0.00000000000E+00 0. -1.
         -4    1    3    3    0  502 -0.30865525926E+02  0.26410638206E+03 -0.50233912180E+03  0.56837439688E+03  0.00000000000E+00 0.  1.
         11    1    5    5    0    0 -0.30046910153E+02  0.51434278023E+01  0.92584905875E+02  0.97474286123E+02  0.00000000000E+00 0. -1.
        -11    1    5    5    0    0 -0.28956026266E+01  0.87031289012E+02  0.90356382257E+03  0.90775019209E+03  0.00000000000E+00 0.  1.
          3    1    6    6  503    0  0.49020541338E+01 -0.25419578390E+03  0.48718493857E+02  0.25886872799E+03  0.00000000000E+00 0. -1.
         -3    1    6    6    0  503  0.42941190173E+02 -0.11495848084E+03 -0.24311359300E+02  0.12510171990E+03  0.00000000000E+00 0.  1.
<mgrwt>
<rscale>  0 0.19602619E+04</rscale>
<asrwt>0</asrwt>
<pdfrwt beam="1">  1        1 0.19073828E+00 0.19602619E+04</pdfrwt>
<pdfrwt beam="2">  1       -2 0.11920751E+00 0.19602619E+04</pdfrwt>
<totfact> 0.44061117E+00</totfact>
</mgrwt>
</event>
<event>
12    4  0.4413110E-008  0.1271011E+04  0.7818608E-02  0.9052875E-01
         -2   -1    0    0    0  501 -0.00000000000E+00  0.00000000000E+00  0.48698332636E+03  0.48698332636E+03  0.00000000000E+00 0.  1.
          1   -1    0    0  501    0  0.00000000000E+00 -0.00000000000E+00 -0.82932479431E+03  0.82932479431E+03  0.00000000000E+00 0. -1.
        -24    2    1    2    0    0  0.80091459803E+02  0.61955604950E+02 -0.39191416361E+03  0.41229985771E+03  0.78366587994E+02 0.  0.
        254    2    1    2    0    0 -0.80091459803E+02 -0.61955604950E+02  0.49572695663E+02  0.90400826296E+03  0.89695058304E+03 0.  0.
         23    2    4    4    0    0 -0.40418779610E+03 -0.82198649926E+02  0.26978336909E+03  0.50099615439E+03  0.89942692351E+02 0.  0.
         23    2    4    4    0    0  0.32409633630E+03  0.20243044976E+02 -0.22021067343E+03  0.40301210857E+03  0.92074985126E+02 0.  0.
          1    1    3    3  502    0  0.25063057642E+02  0.52632835677E+02 -0.29284392827E+03  0.29858991706E+03  0.00000000000E+00 0. -1.
         -2    1    3    3    0  502  0.55028402161E+02  0.93227692731E+01 -0.99070235343E+02  0.11370994065E+03  0.00000000000E+00 0.  1.
         11    1    5    5    0    0 -0.34650440763E+03 -0.86682539400E+02  0.26121665424E+03  0.44250797461E+03  0.00000000000E+00 0. -1.
        -11    1    5    5    0    0 -0.57683388471E+02  0.44838894740E+01  0.85667148550E+01  0.58488179778E+02  0.00000000000E+00 0.  1.
          4    1    6    6  503    0  0.20447577890E+03  0.50019433347E+02 -0.10929557060E+03  0.23718728807E+03  0.00000000000E+00 0. -1.
         -4    1    6    6    0  503  0.11962055740E+03 -0.29776388371E+02 -0.11091510283E+03  0.16582482050E+03  0.00000000000E+00 0.  1.
<mgrwt>
<rscale>  0 0.12710112E+04</rscale>
<asrwt>0</asrwt>
<pdfrwt beam="1">  1        1 0.12758843E+00 0.12710112E+04</pdfrwt>
<pdfrwt beam="2">  1       -2 0.74920513E-01 0.12710112E+04</pdfrwt>
<totfact> 0.28804527E+01</totfact>
</mgrwt>
</event>
<event>
12    4  0.4413110E-008  0.1954085E+04  0.7818608E-02  0.8628394E-01
         -2   -1    0    0    0  501 -0.00000000000E+00  0.00000000000E+00  0.47447933916E+03  0.47447933916E+03  0.00000000000E+00 0.  1.
          1   -1    0    0  501    0  0.00000000000E+00 -0.00000000000E+00 -0.20119138607E+04  0.20119138607E+04  0.00000000000E+00 0. -1.
        -24    2    1    2    0    0 -0.72359850500E+02  0.34875261110E+03 -0.14712843196E+04  0.15158606274E+04  0.79319361043E+02 0.  0.
        254    2    1    2    0    0  0.72359850500E+02 -0.34875261110E+03 -0.66150201974E+02  0.97053257244E+03  0.90038508053E+03 0.  0.
         23    2    4    4    0    0  0.23057405448E+03 -0.50984074125E+03 -0.29308827616E+03  0.63800252097E+03  0.89691154025E+02 0.  0.
         23    2    4    4    0    0 -0.15821420398E+03  0.16108813015E+03  0.22693807418E+03  0.33253005147E+03  0.89967914284E+02 0.  0.
          3    1    3    3  502    0 -0.42639362882E+02  0.31972990476E+03 -0.13330038171E+04  0.13714753019E+04  0.00000000000E+00 0. -1.
         -4    1    3    3    0  502 -0.29720487618E+02  0.29022706337E+02 -0.13828050241E+03  0.14438532548E+03  0.00000000000E+00 0.  1.
         11    1    5    5    0    0  0.71934983187E+02 -0.10118753575E+03 -0.33699425468E+02  0.12864373469E+03  0.00000000000E+00 0.  1.
        -11    1    5    5    0    0  0.15863907129E+03 -0.40865320549E+03 -0.25938885069E+03  0.50935878628E+03  0.00000000000E+00 0. -1.
          1    1    6    6  503    0 -0.96609111352E+02  0.93405379654E+02  0.71673408060E+02  0.15229892569E+03  0.00000000000E+00 0. -1.
         -1    1    6    6    0  503 -0.61605092628E+02  0.67682750496E+02  0.15526466612E+03  0.18023112578E+03  0.00000000000E+00 0.  1.
<mgrwt>
<rscale>  0 0.19540845E+04</rscale>
<asrwt>0</asrwt>
<pdfrwt beam="1">  1        1 0.30952521E+00 0.19540845E+04</pdfrwt>
<pdfrwt beam="2">  1       -2 0.72996822E-01 0.19540845E+04</pdfrwt>
<totfact> 0.40558912E+00</totfact>
</mgrwt>
</event>
<event>
12    4  0.4413110E-008  0.1231642E+04  0.7818608E-02  0.9085602E-01
         -2   -1    0    0    0  501 -0.00000000000E+00  0.00000000000E+00  0.98868265429E+03  0.98868265429E+03  0.00000000000E+00 0.  1.
          1   -1    0    0  501    0  0.00000000000E+00 -0.00000000000E+00 -0.38357673202E+03  0.38357673202E+03  0.00000000000E+00 0. -1.
        -24    2    1    2    0    0  0.67636577512E+02 -0.26650797803E+03  0.14473445754E+03  0.32080652444E+03  0.79796954541E+02 0.  0.
        254    2    1    2    0    0 -0.67636577512E+02  0.26650797803E+03  0.46037146472E+03  0.10514528619E+04  0.90443906718E+03 0.  0.
         23    2    4    4    0    0  0.19063858596E+03  0.50448822718E+03  0.41359174980E+03  0.68576971227E+03  0.91490551095E+02 0.  0.
         23    2    4    4    0    0 -0.25827516347E+03 -0.23798024916E+03  0.46779714913E+02  0.36568314960E+03  0.90527151284E+02 0.  0.
          1    1    3    3  502    0  0.82164455198E+02 -0.22629083209E+03  0.10577057242E+03  0.26295617958E+03  0.00000000000E+00 0. -1.
         -2    1    3    3    0  502 -0.14527877686E+02 -0.40217145936E+02  0.38963885122E+02  0.57850344866E+02  0.00000000000E+00 0.  1.
         11    1    5    5    0    0  0.74345209187E+02  0.21539130132E+03  0.23163779038E+03  0.32492566649E+03  0.00000000000E+00 0. -1.
        -11    1    5    5    0    0  0.11629337677E+03  0.28909692586E+03  0.18195395943E+03  0.36084404578E+03  0.00000000000E+00 0.  1.
          2    1    6    6  503    0 -0.52311822156E+02 -0.82454663370E+02 -0.18689701701E+02  0.99421341765E+02  0.00000000000E+00 0. -1.
         -2    1    6    6    0  503 -0.20596334131E+03 -0.15552558579E+03  0.65469416614E+02  0.26626180783E+03  0.00000000000E+00 0.  1.
<mgrwt>
<rscale>  0 0.12316423E+04</rscale>
<asrwt>0</asrwt>
<pdfrwt beam="1">  1        1 0.59011805E-01 0.12316423E+04</pdfrwt>
<pdfrwt beam="2">  1       -2 0.15210502E+00 0.12316423E+04</pdfrwt>
<totfact> 0.15783952E+01</totfact>
</mgrwt>
</event>
<event>
12    4  0.4413110E-008  0.1682684E+04  0.7818608E-02  0.8771302E-01
         -2   -1    0    0    0  501 -0.00000000000E+00  0.00000000000E+00  0.37075300385E+03  0.37075300385E+03  0.00000000000E+00 0.  1.
          1   -1    0    0  501    0  0.00000000000E+00 -0.00000000000E+00 -0.19092395863E+04  0.19092395863E+04  0.00000000000E+00 0. -1.
        -24    2    1    2    0    0  0.21037822127E+03  0.54616392704E+03 -0.69568457311E+03  0.91242495907E+03  0.77383780583E+02 0.  0.
        254    2    1    2    0    0 -0.21037822127E+03 -0.54616392704E+03 -0.84280200932E+03  0.13675676311E+04  0.90408626105E+03 0.  0.
         23    2    4    4    0    0 -0.39322864294E+03 -0.69909669620E+03 -0.73202421176E+03  0.10896121377E+04  0.89611426432E+02 0.  0.
         23    2    4    4    0    0  0.18285042167E+03  0.15293276916E+03 -0.11077779755E+03  0.27795549336E+03  0.90359433753E+02 0.  0.
          3    1    3    3  502    0  0.10501707564E+03  0.32544277130E+03 -0.35368865558E+03  0.49197281292E+03  0.00000000000E+00 0. -1.
         -4    1    3    3    0  502  0.10536114562E+03  0.22072115574E+03 -0.34199591753E+03  0.42045214615E+03  0.00000000000E+00 0.  1.
         11    1    5    5    0    0 -0.28335632134E+03 -0.41523536404E+03 -0.45442299804E+03  0.67765143956E+03  0.00000000000E+00 0.  1.
        -11    1    5    5    0    0 -0.10987232160E+03 -0.28386133216E+03 -0.27760121372E+03  0.41196069813E+03  0.00000000000E+00 0. -1.
          1    1    6    6  503    0  0.16631209692E+02  0.64280969066E+02 -0.24764296719E+02  0.70865439474E+02  0.00000000000E+00 0. -1.
         -1    1    6    6    0  503  0.16621921198E+03  0.88651800091E+02 -0.86013500834E+02  0.20709005388E+03  0.00000000000E+00 0.  1.
<mgrwt>
<rscale>  0 0.16826839E+04</rscale>
<asrwt>0</asrwt>
<pdfrwt beam="1">  1        1 0.29372917E+00 0.16826839E+04</pdfrwt>
<pdfrwt beam="2">  1       -2 0.57038923E-01 0.16826839E+04</pdfrwt>
<totfact> 0.82799476E+00</totfact>
</mgrwt>
</event>
<event>
12    4  0.4413110E-008  0.1739705E+04  0.7818608E-02  0.8739037E-01
         -2   -1    0    0    0  501 -0.00000000000E+00  0.00000000000E+00  0.89225228742E+03  0.89225228742E+03  0.00000000000E+00 0.  1.
          1   -1    0    0  501    0  0.00000000000E+00 -0.00000000000E+00 -0.84801530341E+03  0.84801530341E+03  0.00000000000E+00 0. -1.
        -24    2    1    2    0    0 -0.47709735700E+03  0.41822966241E+03 -0.53507087459E+01  0.63995945957E+03  0.83555617560E+02 0.  0.
        254    2    1    2    0    0  0.47709735700E+03 -0.41822966241E+03  0.49587692748E+02  0.11003081313E+04  0.89759740745E+03 0.  0.
         23    2    4    4    0    0  0.69160904318E+03 -0.10589578220E+03 -0.82118432563E+01  0.70560030180E+03  0.90925058305E+02 0.  0.
         23    2    4    4    0    0 -0.21451168618E+03 -0.31233388021E+03  0.57799536005E+02  0.39470782946E+03  0.94264351888E+02 0.  0.
          1    1    3    3  502    0 -0.29961713065E+02  0.15092450592E+02 -0.17417953870E+02  0.37800415761E+02  0.00000000000E+00 0. -1.
         -2    1    3    3    0  502 -0.44713564394E+03  0.40313721182E+03  0.12067245124E+02  0.60215904381E+03  0.00000000000E+00 0.  1.
         11    1    5    5    0    0  0.65353686654E+03 -0.96368460235E+02  0.13513947471E+02  0.66074196388E+03  0.00000000000E+00 0.  1.
        -11    1    5    5    0    0  0.38072176646E+02 -0.95273219660E+01 -0.21725790727E+02  0.44858337922E+02  0.00000000000E+00 0. -1.
          4    1    6    6  503    0 -0.12908342514E+03 -0.22340579419E+03 -0.11709092026E+01  0.25801947708E+03  0.00000000000E+00 0. -1.
         -4    1    6    6    0  503 -0.85428261047E+02 -0.88928086020E+02  0.58970445207E+02  0.13668835238E+03  0.00000000000E+00 0.  1.
<mgrwt>
<rscale>  0 0.17397053E+04</rscale>
<asrwt>0</asrwt>
<pdfrwt beam="1">  1        1 0.13046389E+00 0.17397053E+04</pdfrwt>
<pdfrwt beam="2">  1       -2 0.13726958E+00 0.17397053E+04</pdfrwt>
<totfact> 0.63136261E+00</totfact>
</mgrwt>
</event>
<event>
12    4  0.4413110E-008  0.1626285E+04  0.7818608E-02  0.8804561E-01
          1   -1    0    0  501    0  0.00000000000E+00  0.00000000000E+00  0.89100647321E+03  0.89100647321E+03  0.00000000000E+00 0. -1.
         -2   -1    0    0    0  501 -0.00000000000E+00 -0.00000000000E+00 -0.74208305699E+03  0.74208305699E+03  0.00000000000E+00 0.  1.
        -24    2    1    2    0    0 -0.28304867096E+03 -0.52007114607E+03 -0.74163149528E+02  0.60216712034E+03  0.80712582479E+02 0.  0.
        254    2    1    2    0    0  0.28304867096E+03  0.52007114607E+03  0.22308656575E+03  0.10309224099E+04  0.81390592344E+03 0.  0.
         23    2    4    4    0    0  0.48928692164E+03  0.41003996604E+03 -0.65909854794E+02  0.64828211592E+03  0.91603097248E+02 0.  0.
         23    2    4    4    0    0 -0.20623825067E+03  0.11003118003E+03  0.28899642055E+03  0.38264029394E+03  0.90849253364E+02 0.  0.
          3    1    3    3  502    0 -0.44695495416E+02 -0.14174362101E+03  0.16619441270E+01  0.14863278059E+03  0.00000000000E+00 0. -1.
         -4    1    3    3    0  502 -0.23835317555E+03 -0.37832752506E+03 -0.75825093655E+02  0.45353433976E+03  0.00000000000E+00 0.  1.
         11    1    5    5    0    0  0.35200951579E+03  0.25995583751E+03 -0.11546587068E+02  0.43774542868E+03  0.00000000000E+00 0. -1.
        -11    1    5    5    0    0  0.13727740584E+03  0.15008412853E+03 -0.54363267727E+02  0.21053668723E+03  0.00000000000E+00 0.  1.
          3    1    6    6  503    0 -0.13949454556E+03  0.23897104195E+02  0.17242597626E+03  0.22307065499E+03  0.00000000000E+00 0. -1.
         -3    1    6    6    0  503 -0.66743705113E+02  0.86134075832E+02  0.11657044429E+03  0.15956963895E+03  0.00000000000E+00 0.  1.
<mgrwt>
<rscale>  0 0.16262851E+04</rscale>
<asrwt>0</asrwt>
<pdfrwt beam="1">  1        1 0.13707792E+00 0.16262851E+04</pdfrwt>
<pdfrwt beam="2">  1       -2 0.11416662E+00 0.16262851E+04</pdfrwt>
<totfact> 0.93208999E+00</totfact>
</mgrwt>
</event>
<event>
12    4  0.4413110E-008  0.1444119E+04  0.7818608E-02  0.8922488E-01
          1   -1    0    0  501    0  0.00000000000E+00  0.00000000000E+00  0.16887578554E+04  0.16887578554E+04  0.00000000000E+00 0. -1.
         -2   -1    0    0    0  501 -0.00000000000E+00 -0.00000000000E+00 -0.30873001084E+03  0.30873001084E+03  0.00000000000E+00 0.  1.
        -24    2    1    2    0    0  0.20500479949E+03 -0.32857763589E+03  0.68608284430E+03  0.79176255987E+03  0.78664168118E+02 0.  0.
        254    2    1    2    0    0 -0.20500479949E+03  0.32857763589E+03  0.69394500022E+03  0.12057253063E+04  0.90676547154E+03 0.  0.
         23    2    4    4    0    0 -0.40667921121E+03 -0.12859964700E+03  0.49864879725E+03  0.66212065913E+03  0.88471996681E+02 0.  0.
         23    2    4    4    0    0  0.20167441173E+03  0.45717728289E+03  0.19529620297E+03  0.54360464720E+03  0.87645702851E+02 0.  0.
          3    1    3    3  502    0  0.17694442166E+03 -0.28731986022E+03  0.64157563519E+03  0.72490090778E+03  0.00000000000E+00 0. -1.
         -4    1    3    3    0  502  0.28060377824E+02 -0.41257775667E+02  0.44507209109E+02  0.66861652083E+02  0.00000000000E+00 0.  1.
         11    1    5    5    0    0 -0.93357755491E+01 -0.14622809794E+02  0.45981391872E+01  0.17947873283E+02  0.00000000000E+00 0. -1.
        -11    1    5    5    0    0 -0.39734343567E+03 -0.11397683721E+03  0.49405065807E+03  0.64417278584E+03  0.00000000000E+00 0.  1.
          3    1    6    6  503    0  0.13588537972E+02  0.31189990847E+02 -0.88577814940E+01  0.35155713422E+02  0.00000000000E+00 0. -1.
         -3    1    6    6    0  503  0.18808587376E+03  0.42598729205E+03  0.20415398446E+03  0.50844893378E+03  0.00000000000E+00 0.  1.
<mgrwt>
<rscale>  0 0.14441194E+04</rscale>
<asrwt>0</asrwt>
<pdfrwt beam="1">  1        1 0.25980889E+00 0.14441194E+04</pdfrwt>
<pdfrwt beam="2">  1       -2 0.47496926E-01 0.14441194E+04</pdfrwt>
<totfact> 0.17380561E+01</totfact>
</mgrwt>
</event>
<event>
12    4  0.4413110E-008  0.1780843E+04  0.7818608E-02  0.8716554E-01
         -2   -1    0    0    0  501 -0.00000000000E+00  0.00000000000E+00  0.56523683702E+03  0.56523683702E+03  0.00000000000E+00 0.  1.
          1   -1    0    0  501    0  0.00000000000E+00 -0.00000000000E+00 -0.14026876615E+04  0.14026876615E+04  0.00000000000E+00 0. -1.
        -24    2    1    2    0    0  0.49171261052E+03  0.33198764462E+03  0.59101959466E+01  0.59848124042E+03  0.78407762280E+02 0.  0.
        254    2    1    2    0    0 -0.49171261052E+03 -0.33198764462E+03 -0.84336102047E+03  0.13694432581E+04  0.90117697423E+03 0.  0.
         23    2    4    4    0    0 -0.39248474059E+02  0.27224823147E+03 -0.38275372606E+03  0.48017921755E+03  0.91717631309E+02 0.  0.
         23    2    4    4    0    0 -0.45246413647E+03 -0.60423587610E+03 -0.46060729441E+03  0.88926404059E+03  0.93843835601E+02 0.  0.
          3    1    3    3  502    0  0.40589446460E+03  0.26409527764E+03 -0.24625359131E+02  0.48487425213E+03  0.00000000000E+00 0. -1.
         -4    1    3    3    0  502  0.85818145920E+02  0.67892366979E+02  0.30535555078E+02  0.11360698828E+03  0.00000000000E+00 0.  1.
         11    1    5    5    0    0  0.27460248353E+02  0.41589233681E+02 -0.66530402365E+02  0.83126554341E+02  0.00000000000E+00 0.  1.
        -11    1    5    5    0    0 -0.66708722412E+02  0.23065899779E+03 -0.31622332370E+03  0.39705266320E+03  0.00000000000E+00 0. -1.
          2    1    6    6  503    0 -0.52102206724E+02 -0.52220113955E+02 -0.77942825441E+02  0.10731572245E+03  0.00000000000E+00 0.  1.
         -2    1    6    6    0  503 -0.40036192974E+03 -0.55201576214E+03 -0.38266446897E+03  0.78194831814E+03  0.00000000000E+00 0. -1.
<mgrwt>
<rscale>  0 0.17808433E+04</rscale>
<asrwt>0</asrwt>
<pdfrwt beam="1">  1        1 0.21579810E+00 0.17808433E+04</pdfrwt>
<pdfrwt beam="2">  1       -2 0.86959514E-01 0.17808433E+04</pdfrwt>
<totfact> 0.72558225E+00</totfact>
</mgrwt>
</event>
<event>
12    4  0.4413110E-008  0.1348666E+04  0.7818608E-02  0.8991838E-01
          3   -1    0    0  501    0  0.00000000000E+00  0.00000000000E+00  0.78840933559E+03  0.78840933559E+03  0.00000000000E+00 0. -1.
         -4   -1    0    0    0  501 -0.00000000000E+00 -0.00000000000E+00 -0.57676279445E+03  0.57676279445E+03  0.00000000000E+00 0.  1.
        -24    2    1    2    0    0  0.25911894622E+02 -0.27913266071E+03 -0.17170824404E+03  0.33801989569E+03  0.78659139639E+02 0.  0.
        254    2    1    2    0    0 -0.25911894622E+02  0.27913266071E+03  0.38335478517E+03  0.10271522344E+04  0.91076580561E+03 0.  0.
         23    2    4    4    0    0  0.11457565539E+03 -0.30704847240E+03  0.96311401090E+02  0.35326560224E+03  0.90079712102E+02 0.  0.
         23    2    4    4    0    0 -0.14048755002E+03  0.58618113311E+03  0.28704338408E+03  0.67388663212E+03  0.91565365041E+02 0.  0.
          1    1    3    3  502    0  0.14160302364E+02 -0.12811618678E+03 -0.33997202806E+02  0.13330446833E+03  0.00000000000E+00 0. -1.
         -2    1    3    3    0  502  0.11751592258E+02 -0.15101647393E+03 -0.13771104124E+03  0.20471542736E+03  0.00000000000E+00 0.  1.
         11    1    5    5    0    0  0.54409482150E+02 -0.20307549624E+03  0.20540925845E+02  0.21123915015E+03  0.00000000000E+00 0.  1.
        -11    1    5    5    0    0  0.60166173243E+02 -0.10397297616E+03  0.75770475245E+02  0.14202645209E+03  0.00000000000E+00 0. -1.
          3    1    6    6  503    0 -0.74008729899E+01  0.21279433277E+02 -0.65799224988E+01  0.23470887961E+02  0.00000000000E+00 0. -1.
         -3    1    6    6    0  503 -0.13308667703E+03  0.56490169983E+03  0.29362330658E+03  0.65041574416E+03  0.00000000000E+00 0.  1.
<mgrwt>
<rscale>  0 0.13486663E+04</rscale>
<asrwt>0</asrwt>
<pdfrwt beam="1">  1        3 0.12129374E+00 0.13486663E+04</pdfrwt>
<pdfrwt beam="2">  1       -4 0.88732737E-01 0.13486663E+04</pdfrwt>
<totfact> 0.13499018E+00</totfact>
</mgrwt>
</event>
<event>
12    4  0.4413110E-008  0.2121369E+04  0.7818608E-02  0.8551888E-01
         -2   -1    0    0    0  501 -0.00000000000E+00  0.00000000000E+00  0.35047672799E+03  0.35047672799E+03  0.00000000000E+00 0.  1.
          1   -1    0    0  501    0  0.00000000000E+00 -0.00000000000E+00 -0.32100594733E+04  0.32100594733E+04  0.00000000000E+00 0. -1.
        -24    2    1    2    0    0 -0.69253461406E+03 -0.48853791117E+03 -0.14827776857E+04  0.17100970740E+04  0.86768976467E+02 0.  0.
        254    2    1    2    0    0  0.69253461406E+03  0.48853791117E+03 -0.13768050596E+04  0.18504391272E+04  0.90014404902E+03 0.  0.
         23    2    4    4    0    0  0.35362372801E+02  0.54382449199E+03 -0.46467014825E+03  0.72108882742E+03  0.83995088273E+02 0.  0.
         23    2    4    4    0    0  0.65717224125E+03 -0.55286580826E+02 -0.91213491137E+03  0.11293502998E+04  0.92249891004E+02 0.  0.
          3    1    3    3  502    0 -0.46442592479E+03 -0.27750206638E+03 -0.92542124792E+03  0.10719623699E+04  0.00000000000E+00 0. -1.
         -4    1    3    3    0  502 -0.22810868926E+03 -0.21103584479E+03 -0.55735643773E+03  0.63813470410E+03  0.00000000000E+00 0.  1.
         11    1    5    5    0    0  0.56320097035E+01  0.56818434543E+02 -0.87099993996E+02  0.10414635371E+03  0.00000000000E+00 0. -1.
        -11    1    5    5    0    0  0.29730363098E+02  0.48700605745E+03 -0.37757015425E+03  0.61694247371E+03  0.00000000000E+00 0.  1.
          1    1    6    6  503    0  0.12912266440E+03 -0.31487446379E+02 -0.23913328362E+03  0.27358517700E+03  0.00000000000E+00 0. -1.
         -1    1    6    6    0  503  0.52804957685E+03 -0.23799134447E+02 -0.67300162775E+03  0.85576512278E+03  0.00000000000E+00 0.  1.
<mgrwt>
<rscale>  0 0.21213686E+04</rscale>
<asrwt>0</asrwt>
<pdfrwt beam="1">  1        1 0.49385528E+00 0.21213686E+04</pdfrwt>
<pdfrwt beam="2">  1       -2 0.53919499E-01 0.21213686E+04</pdfrwt>
<totfact> 0.10939486E+00</totfact>
</mgrwt>
</event>
<event>
12    4  0.4413110E-008  0.1556906E+04  0.7818608E-02  0.8847469E-01
         -2   -1    0    0    0  501 -0.00000000000E+00  0.00000000000E+00  0.66483388252E+03  0.66483388252E+03  0.00000000000E+00 0.  1.
          1   -1    0    0  501    0  0.00000000000E+00 -0.00000000000E+00 -0.91148936466E+03  0.91148936466E+03  0.00000000000E+00 0. -1.
        -24    2    1    2    0    0 -0.26942253501E+02  0.46612459339E+03  0.14516076099E+03  0.49546412019E+03  0.80093859145E+02 0.  0.
        254    2    1    2    0    0  0.26942253501E+02 -0.46612459339E+03 -0.39181624313E+03  0.10808591270E+04  0.89260207395E+03 0.  0.
         23    2    4    4    0    0  0.10417490032E+03 -0.56987701478E+03 -0.58664062673E+03  0.82965989110E+03  0.92607171082E+02 0.  0.
         23    2    4    4    0    0 -0.77232646814E+02  0.10375242139E+03  0.19482438361E+03  0.25119923588E+03  0.91733685105E+02 0.  0.
          1    1    3    3  502    0 -0.94958908140E+01  0.77953770430E+02 -0.54834586733E+01  0.78721220682E+02  0.00000000000E+00 0. -1.
         -2    1    3    3    0  502 -0.17446362687E+02  0.38817082296E+03  0.15064421966E+03  0.41674289951E+03  0.00000000000E+00 0.  1.
         11    1    5    5    0    0  0.69689827256E+02 -0.51528886477E+03 -0.54243610190E+03  0.75140948279E+03  0.00000000000E+00 0. -1.
        -11    1    5    5    0    0  0.34485073059E+02 -0.54588150012E+02 -0.44204524837E+02  0.78250408316E+02  0.00000000000E+00 0.  1.
          1    1    6    6  503    0 -0.65307301463E+02  0.11464935985E+03  0.19451286050E+03  0.23504206483E+03  0.00000000000E+00 0. -1.
         -1    1    6    6    0  503 -0.11925345351E+02 -0.10896938467E+02  0.31152310246E+00  0.16157171050E+02  0.00000000000E+00 0.  1.
<mgrwt>
<rscale>  0 0.15569059E+04</rscale>
<asrwt>0</asrwt>
<pdfrwt beam="1">  1        1 0.14022913E+00 0.15569059E+04</pdfrwt>
<pdfrwt beam="2">  1       -2 0.10228214E+00 0.15569059E+04</pdfrwt>
<totfact> 0.11762553E+01</totfact>
</mgrwt>
</event>
<event>
12    4  0.4413110E-008  0.2648702E+04  0.7818608E-02  0.8351844E-01
         -2   -1    0    0    0  501 -0.00000000000E+00  0.00000000000E+00  0.19854525748E+04  0.19854525748E+04  0.00000000000E+00 0.  1.
          1   -1    0    0  501    0  0.00000000000E+00 -0.00000000000E+00 -0.88337850003E+03  0.88337850003E+03  0.00000000000E+00 0. -1.
        -24    2    1    2    0    0 -0.72782912336E+03  0.89253380993E+03  0.65502252259E+03  0.13273138536E+04  0.79722808021E+02 0.  0.
        254    2    1    2    0    0  0.72782912336E+03 -0.89253380993E+03  0.44705155216E+03  0.15415172212E+04  0.92199155007E+03 0.  0.
         23    2    4    4    0    0  0.32544571112E+03  0.47645614357E+02 -0.12824714918E+03  0.36452772778E+03  0.90819147730E+02 0.  0.
         23    2    4    4    0    0  0.40238341225E+03 -0.94017942428E+03  0.57529870134E+03  0.11769894935E+04  0.92119008090E+02 0.  0.
          3    1    3    3  502    0 -0.66532536115E+03  0.81661987931E+03  0.62354314298E+03  0.12240636890E+04  0.00000000000E+00 0. -1.
         -4    1    3    3    0  502 -0.62503762212E+02  0.75913930617E+02  0.31479379604E+02  0.10325016461E+03  0.00000000000E+00 0.  1.
         11    1    5    5    0    0  0.34208831702E+00 -0.15719646628E+01  0.83291109855E+01  0.84830529367E+01  0.00000000000E+00 0. -1.
        -11    1    5    5    0    0  0.32510362280E+03  0.49217579020E+02 -0.13657626016E+03  0.35604467484E+03  0.00000000000E+00 0.  1.
          2    1    6    6  503    0  0.19060780035E+03 -0.33889162199E+03  0.23582394529E+03  0.45474366206E+03  0.00000000000E+00 0. -1.
         -2    1    6    6    0  503  0.21177561190E+03 -0.60128780229E+03  0.33947475604E+03  0.72224583140E+03  0.00000000000E+00 0.  1.
<mgrwt>
<rscale>  0 0.26487024E+04</rscale>
<asrwt>0</asrwt>
<pdfrwt beam="1">  1        1 0.13590438E+00 0.26487024E+04</pdfrwt>
<pdfrwt beam="2">  1       -2 0.30545424E+00 0.26487024E+04</pdfrwt>
<totfact> 0.42514713E-01</totfact>
</mgrwt>
</event>
<event>
12    4  0.4413110E-008  0.2743690E+04  0.7818608E-02  0.8320967E-01
          1   -1    0    0  501    0  0.00000000000E+00  0.00000000000E+00  0.10476043158E+04  0.10476043158E+04  0.00000000000E+00 0. -1.
         -2   -1    0    0    0  501 -0.00000000000E+00 -0.00000000000E+00 -0.17964402230E+04  0.17964402230E+04  0.00000000000E+00 0.  1.
        -24    2    1    2    0    0 -0.29025626306E+03  0.57586390708E+03 -0.14088958047E+04  0.15516998493E+04  0.83169080371E+02 0.  0.
        254    2    1    2    0    0  0.29025626306E+03 -0.57586390708E+03  0.66005989755E+03  0.12923446895E+04  0.90476946805E+03 0.  0.
         23    2    4    4    0    0 -0.26820435264E+03 -0.37869053114E+03  0.46099659657E+03  0.66061682468E+03  0.92502074805E+02 0.  0.
         23    2    4    4    0    0  0.55846061570E+03 -0.19717337594E+03  0.19906330098E+03  0.63172786479E+03  0.93264665765E+02 0.  0.
          3    1    3    3  502    0 -0.16992342093E+02  0.97432236296E+02 -0.19678681722E+03  0.22024266569E+03  0.00000000000E+00 0. -1.
         -4    1    3    3    0  502 -0.27326392097E+03  0.47843167078E+03 -0.12121089875E+04  0.13314571836E+04  0.00000000000E+00 0.  1.
         11    1    5    5    0    0 -0.14528334696E+03 -0.17141734995E+03  0.28121343146E+03  0.35996132125E+03  0.00000000000E+00 0. -1.
        -11    1    5    5    0    0 -0.12292100568E+03 -0.20727318119E+03  0.17978316512E+03  0.30065550342E+03  0.00000000000E+00 0.  1.
          4    1    6    6  503    0  0.26818433370E+03 -0.14090124093E+03  0.11821539118E+03  0.32519359657E+03  0.00000000000E+00 0. -1.
         -4    1    6    6    0  503  0.29027628200E+03 -0.56272135005E+02  0.80847909797E+02  0.30653426821E+03  0.00000000000E+00 0.  1.
<mgrwt>
<rscale>  0 0.27436899E+04</rscale>
<asrwt>0</asrwt>
<pdfrwt beam="1">  1        1 0.16116989E+00 0.27436899E+04</pdfrwt>
<pdfrwt beam="2">  1       -2 0.27637542E+00 0.27436899E+04</pdfrwt>
<totfact> 0.47001943E-01</totfact>
</mgrwt>
</event>
<event>
12    4  0.4413110E-008  0.1551275E+04  0.7818608E-02  0.8851054E-01
         -2   -1    0    0    0  501 -0.00000000000E+00  0.00000000000E+00  0.52784543670E+03  0.52784543670E+03  0.00000000000E+00 0.  1.
          1   -1    0    0  501    0  0.00000000000E+00 -0.00000000000E+00 -0.11397534153E+04  0.11397534153E+04  0.00000000000E+00 0. -1.
        -24    2    1    2    0    0  0.50635694306E+02 -0.14219999293E+02  0.35173932901E+03  0.36466002238E+03  0.80561742983E+02 0.  0.
        254    2    1    2    0    0 -0.50635694306E+02  0.14219999293E+02 -0.96364730757E+03  0.13029388296E+04  0.87536693925E+03 0.  0.
         23    2    4    4    0    0  0.81101942150E+01 -0.38240419210E+03 -0.73021053876E+03  0.82953110659E+03  0.92820711548E+02 0.  0.
         23    2    4    4    0    0 -0.58745888521E+02  0.39662419139E+03 -0.23343676881E+03  0.47340772300E+03  0.94129265077E+02 0.  0.
          3    1    3    3  502    0  0.38164018342E+02 -0.31496587247E+02  0.95702520204E+02  0.10773810690E+03  0.00000000000E+00 0. -1.
         -4    1    3    3    0  502  0.12471675964E+02  0.17276587954E+02  0.25603680880E+03  0.25692191548E+03  0.00000000000E+00 0.  1.
         11    1    5    5    0    0  0.13265385964E+02 -0.35470190333E+03 -0.60721175492E+03  0.70334595044E+03  0.00000000000E+00 0.  1.
        -11    1    5    5    0    0 -0.51551917486E+01 -0.27702288773E+02 -0.12299878384E+03  0.12618515615E+03  0.00000000000E+00 0. -1.
          4    1    6    6  503    0  0.20274572968E+02  0.18212259008E+03 -0.10555232898E+03  0.21147337960E+03  0.00000000000E+00 0. -1.
         -4    1    6    6    0  503 -0.79020461489E+02  0.21450160131E+03 -0.12788443983E+03  0.26193434340E+03  0.00000000000E+00 0.  1.
<mgrwt>
<rscale>  0 0.15512751E+04</rscale>
<asrwt>0</asrwt>
<pdfrwt beam="1">  1        1 0.17534668E+00 0.15512751E+04</pdfrwt>
<pdfrwt beam="2">  1       -2 0.81206991E-01 0.15512751E+04</pdfrwt>
<totfact> 0.13365835E+01</totfact>
</mgrwt>
</event>
<event>
12    4  0.4413110E-008  0.2542443E+04  0.7818608E-02  0.8388019E-01
          1   -1    0    0  501    0  0.00000000000E+00  0.00000000000E+00  0.19898415446E+04  0.19898415446E+04  0.00000000000E+00 0. -1.
         -2   -1    0    0    0  501 -0.00000000000E+00 -0.00000000000E+00 -0.81212683497E+03  0.81212683497E+03  0.00000000000E+00 0.  1.
        -24    2    1    2    0    0  0.14106727107E+02 -0.96292278271E+03  0.11237879550E+04  0.14821398486E+04  0.80124139113E+02 0.  0.
        254    2    1    2    0    0 -0.14106727107E+02  0.96292278271E+03  0.53926754634E+02  0.13198285310E+04  0.90089953447E+03 0.  0.
         23    2    4    4    0    0 -0.21103351196E+03  0.89648453327E+03  0.31153098576E+03  0.97653475003E+03  0.91372322814E+02 0.  0.
         23    2    4    4    0    0  0.19692678485E+03  0.66438249438E+02 -0.25760423112E+03  0.34329378098E+03  0.91085018471E+02 0.  0.
          3    1    3    3  502    0  0.23911710304E+02 -0.49985969663E+03  0.63938064677E+03  0.81193540240E+03  0.00000000000E+00 0. -1.
         -4    1    3    3    0  502 -0.98049831967E+01 -0.46306308608E+03  0.48440730824E+03  0.67020444616E+03  0.00000000000E+00 0.  1.
         11    1    5    5    0    0 -0.71148595552E+02  0.28774568171E+03  0.55862407929E+02  0.30162942265E+03  0.00000000000E+00 0.  1.
        -11    1    5    5    0    0 -0.13988491640E+03  0.60873885156E+03  0.25566857783E+03  0.67490532738E+03  0.00000000000E+00 0. -1.
          2    1    6    6  503    0  0.18348224171E+03  0.86163910980E+02 -0.22440290490E+03  0.30240141585E+03  0.00000000000E+00 0. -1.
         -2    1    6    6    0  503  0.13444543138E+02 -0.19725661542E+02 -0.33201326224E+02  0.40892365137E+02  0.00000000000E+00 0.  1.
<mgrwt>
<rscale>  0 0.25424427E+04</rscale>
<asrwt>0</asrwt>
<pdfrwt beam="1">  1        1 0.30612947E+00 0.25424427E+04</pdfrwt>
<pdfrwt beam="2">  1       -2 0.12494259E+00 0.25424427E+04</pdfrwt>
<totfact> 0.11304940E+00</totfact>
</mgrwt>
</event>
<event>
12    4  0.4413110E-008  0.1675535E+04  0.7818608E-02  0.8775442E-01
         -2   -1    0    0    0  501 -0.00000000000E+00  0.00000000000E+00  0.19296714390E+04  0.19296714390E+04  0.00000000000E+00 0.  1.
          1   -1    0    0  501    0  0.00000000000E+00 -0.00000000000E+00 -0.36371715681E+03  0.36371715681E+03  0.00000000000E+00 0. -1.
        -24    2    1    2    0    0 -0.17535082473E+03 -0.10383495344E+03  0.12199913002E+04  0.12394882712E+04  0.80142326898E+02 0.  0.
        254    2    1    2    0    0  0.17535082473E+03  0.10383495344E+03  0.34596298204E+03  0.10539003247E+04  0.97441567111E+03 0.  0.
         23    2    4    4    0    0  0.26671949022E+03 -0.11196184912E+03 -0.25733882228E+03  0.40016894801E+03  0.10117892750E+03 0.  0.
         23    2    4    4    0    0 -0.91368665497E+02  0.21579680256E+03  0.60330180432E+03  0.65373137666E+03  0.92060592557E+02 0.  0.
          1    1    3    3  502    0 -0.11869623114E+03 -0.38097486145E+02  0.55310383659E+03  0.56697801349E+03  0.00000000000E+00 0. -1.
         -2    1    3    3    0  502 -0.56654593588E+02 -0.65737467295E+02  0.66688746360E+03  0.67251025768E+03  0.00000000000E+00 0.  1.
         11    1    5    5    0    0  0.12246740613E+03 -0.80623835430E+02 -0.72352994903E+02  0.16350359102E+03  0.00000000000E+00 0.  1.
        -11    1    5    5    0    0  0.14425208409E+03 -0.31338013691E+02 -0.18498582738E+03  0.23666535699E+03  0.00000000000E+00 0. -1.
          1    1    6    6  503    0 -0.44252282000E+02  0.85230283499E+02  0.13770914366E+03  0.16788768250E+03  0.00000000000E+00 0. -1.
         -1    1    6    6    0  503 -0.47116383497E+02  0.13056651906E+03  0.46559266066E+03  0.48584369416E+03  0.00000000000E+00 0.  1.
<mgrwt>
<rscale>  0 0.16755353E+04</rscale>
<asrwt>0</asrwt>
<pdfrwt beam="1">  1        1 0.55956487E-01 0.16755353E+04</pdfrwt>
<pdfrwt beam="2">  1       -2 0.29687252E+00 0.16755353E+04</pdfrwt>
<totfact> 0.18889792E+00</totfact>
</mgrwt>
</event>
<event>
12    4  0.4413110E-008  0.1461422E+04  0.7818608E-02  0.8910520E-01
          1   -1    0    0  501    0  0.00000000000E+00  0.00000000000E+00  0.16313299431E+04  0.16313299431E+04  0.00000000000E+00 0. -1.
         -2   -1    0    0    0  501 -0.00000000000E+00 -0.00000000000E+00 -0.32730240650E+03  0.32730240650E+03  0.00000000000E+00 0.  1.
        -24    2    1    2    0    0 -0.86738277249E+02  0.26016930663E+03  0.86095452234E+03  0.90646889067E+03  0.72329546878E+02 0.  0.
        254    2    1    2    0    0  0.86738277249E+02 -0.26016930663E+03  0.44307301422E+03  0.10521634589E+04  0.91406928154E+03 0.  0.
         23    2    4    4    0    0  0.19596070477E+03 -0.14720005099E+03 -0.23448466466E+03  0.35083460923E+03  0.89629304633E+02 0.  0.
         23    2    4    4    0    0 -0.10922242752E+03 -0.11296925565E+03  0.67755767887E+03  0.70132884967E+03  0.89923054793E+02 0.  0.
          1    1    3    3  502    0 -0.91075736619E+02  0.23901332593E+03  0.83146442133E+03  0.86991680276E+03  0.00000000000E+00 0. -1.
         -2    1    3    3    0  502  0.43374593699E+01  0.21155980700E+02  0.29490101011E+02  0.36552087913E+02  0.00000000000E+00 0.  1.
         11    1    5    5    0    0  0.20320794909E+03 -0.12772118562E+03 -0.21907677334E+03  0.32496277395E+03  0.00000000000E+00 0.  1.
        -11    1    5    5    0    0 -0.72472443239E+01 -0.19478865365E+02 -0.15407891312E+02  0.25871835283E+02  0.00000000000E+00 0. -1.
          4    1    6    6  503    0 -0.36712404452E+02  0.99014225323E+00  0.25704794669E+03  0.25965829068E+03  0.00000000000E+00 0. -1.
         -4    1    6    6    0  503 -0.72510023069E+02 -0.11395939790E+03  0.42050973218E+03  0.44167055899E+03  0.00000000000E+00 0.  1.
<mgrwt>
<rscale>  0 0.14614215E+04</rscale>
<asrwt>0</asrwt>
<pdfrwt beam="1">  1        1 0.25097383E+00 0.14614215E+04</pdfrwt>
<pdfrwt beam="2">  1       -2 0.50354217E-01 0.14614215E+04</pdfrwt>
<totfact> 0.16869304E+01</totfact>
</mgrwt>
</event>
<event>
12    4  0.4413110E-008  0.2101416E+04  0.7818608E-02  0.8560620E-01
          1   -1    0    0  501    0  0.00000000000E+00  0.00000000000E+00  0.19542711361E+04  0.19542711361E+04  0.00000000000E+00 0. -1.
         -2   -1    0    0    0  501 -0.00000000000E+00 -0.00000000000E+00 -0.56490975554E+03  0.56490975554E+03  0.00000000000E+00 0.  1.
        -24    2    1    2    0    0 -0.61039408025E+02 -0.76576155292E+03  0.11591724699E+03  0.78142237145E+03  0.84068717129E+02 0.  0.
        254    2    1    2    0    0  0.61039408025E+02  0.76576155292E+03  0.12734441336E+04  0.17377585202E+04  0.89890385911E+03 0.  0.
         23    2    4    4    0    0 -0.55256176395E+02  0.22174283494E+03  0.11296062785E+04  0.11561631991E+04  0.92086202068E+02 0.  0.
         23    2    4    4    0    0  0.11629558442E+03  0.54401871798E+03  0.14383785512E+03  0.58159532115E+03  0.89904174303E+02 0.  0.
          1    1    3    3  502    0 -0.12939840237E+02 -0.43840991519E+03  0.10177246404E+03  0.45025362591E+03  0.00000000000E+00 0. -1.
         -2    1    3    3    0  502 -0.48099567788E+02 -0.32735163773E+03  0.14144782947E+02  0.33116874555E+03  0.00000000000E+00 0.  1.
         11    1    5    5    0    0 -0.74329919727E+01  0.16478047716E+03  0.89422318503E+03  0.90930905619E+03  0.00000000000E+00 0.  1.
        -11    1    5    5    0    0 -0.47823184422E+02  0.56962357781E+02  0.23538309344E+03  0.24685414287E+03  0.00000000000E+00 0. -1.
          2    1    6    6  503    0  0.11110400004E+03  0.32276834532E+03  0.10291874948E+03  0.35653298944E+03  0.00000000000E+00 0. -1.
         -2    1    6    6    0  503  0.51915843796E+01  0.22125037265E+03  0.40919105637E+02  0.22506233171E+03  0.00000000000E+00 0.  1.
<mgrwt>
<rscale>  0 0.21014156E+04</rscale>
<asrwt>0</asrwt>
<pdfrwt beam="1">  1        1 0.30065710E+00 0.21014156E+04</pdfrwt>
<pdfrwt beam="2">  1       -2 0.86909194E-01 0.21014156E+04</pdfrwt>
<totfact> 0.29604942E+00</totfact>
</mgrwt>
</event>
<event>
12    4  0.4413110E-008  0.2805795E+04  0.7818608E-02  0.8301472E-01
          1   -1    0    0  501    0  0.00000000000E+00  0.00000000000E+00  0.15050172870E+04  0.15050172870E+04  0.00000000000E+00 0. -1.
         -2   -1    0    0    0  501 -0.00000000000E+00 -0.00000000000E+00 -0.13077066984E+04  0.13077066984E+04  0.00000000000E+00 0.  1.
        -24    2    1    2    0    0 -0.60746015868E+03  0.37448014944E+03 -0.95073169283E+03  0.11914260335E+04  0.79762239610E+02 0.  0.
        254    2    1    2    0    0  0.60746015868E+03 -0.37448014944E+03  0.11480422814E+04  0.16212979519E+04  0.89518866296E+03 0.  0.
         23    2    4    4    0    0  0.35594391391E+03 -0.48115757997E+02 -0.28303533359E+02  0.37155017368E+03  0.90759272506E+02 0.  0.
         23    2    4    4    0    0  0.25151624477E+03 -0.32636439144E+03  0.11763458148E+04  0.12497477782E+04  0.91136688031E+02 0.  0.
          3    1    3    3  502    0 -0.44303116892E+02  0.11863390251E+02 -0.87712548210E+02  0.98979782320E+02  0.00000000000E+00 0. -1.
         -4    1    3    3    0  502 -0.56315704179E+03  0.36261675919E+03 -0.86301914462E+03  0.10924462512E+04  0.00000000000E+00 0.  1.
         11    1    5    5    0    0  0.14176510225E+02 -0.62076749318E+01 -0.22333030533E+02  0.27171178168E+02  0.00000000000E+00 0.  1.
        -11    1    5    5    0    0  0.34176740369E+03 -0.41908083065E+02 -0.59705028258E+01  0.34437899551E+03  0.00000000000E+00 0. -1.
          2    1    6    6  503    0  0.22092582307E+03 -0.30357603436E+03  0.97443730450E+03  0.10442675368E+04  0.00000000000E+00 0. -1.
         -2    1    6    6    0  503  0.30590421697E+02 -0.22788357084E+02  0.20190851025E+03  0.20548024146E+03  0.00000000000E+00 0.  1.
<mgrwt>
<rscale>  0 0.28057949E+04</rscale>
<asrwt>0</asrwt>
<pdfrwt beam="1">  1        1 0.23154112E+00 0.28057949E+04</pdfrwt>
<pdfrwt beam="2">  1       -2 0.20118565E+00 0.28057949E+04</pdfrwt>
<totfact> 0.64426387E-01</totfact>
</mgrwt>
</event>
<event>
12    4  0.4413110E-008  0.1439315E+04  0.7818608E-02  0.8925842E-01
          1   -1    0    0  501    0  0.00000000000E+00  0.00000000000E+00  0.23195688064E+04  0.23195688064E+04  0.00000000000E+00 0. -1.
         -2   -1    0    0    0  501 -0.00000000000E+00 -0.00000000000E+00 -0.22327724041E+03  0.22327724041E+03  0.00000000000E+00 0.  1.
        -24    2    1    2    0    0  0.38809987901E+02  0.33961070025E+03  0.17603145102E+03  0.39273781054E+03  0.80089157801E+02 0.  0.
        254    2    1    2    0    0 -0.38809987901E+02 -0.33961070025E+03  0.19202601150E+04  0.21501082363E+04  0.90483417023E+03 0.  0.
         23    2    4    4    0    0  0.42282024294E+03 -0.19431041306E+03  0.91231211484E+03  0.10283160653E+04  0.92666286953E+02 0.  0.
         23    2    4    4    0    0 -0.46163023084E+03 -0.14530028718E+03  0.10079480001E+04  0.11217921710E+04  0.90795707248E+02 0.  0.
          1    1    3    3  502    0  0.26492353350E+02  0.91746055251E+02  0.86694267608E+02  0.12897705019E+03  0.00000000000E+00 0. -1.
         -2    1    3    3    0  502  0.12317634551E+02  0.24786464500E+03  0.89337183413E+02  0.26376076035E+03  0.00000000000E+00 0.  1.
         11    1    5    5    0    0  0.78902019513E+02  0.10028134880E+01  0.14615219348E+03  0.16609334116E+03  0.00000000000E+00 0.  1.
        -11    1    5    5    0    0  0.34391822343E+03 -0.19531322655E+03  0.76615992135E+03  0.86222272410E+03  0.00000000000E+00 0. -1.
          4    1    6    6  503    0 -0.44359187650E+03 -0.12586533102E+03  0.90779369188E+03  0.10181872232E+04  0.00000000000E+00 0. -1.
         -4    1    6    6    0  503 -0.18038354345E+02 -0.19434956162E+02  0.10015430827E+03  0.10360494782E+03  0.00000000000E+00 0.  1.
<mgrwt>
<rscale>  0 0.14393150E+04</rscale>
<asrwt>0</asrwt>
<pdfrwt beam="1">  1        1 0.35685672E+00 0.14393150E+04</pdfrwt>
<pdfrwt beam="2">  1       -2 0.34350346E-01 0.14393150E+04</pdfrwt>
<totfact> 0.12254812E+01</totfact>
</mgrwt>
</event>
<event>
12    4  0.4413110E-008  0.1686400E+04  0.7818608E-02  0.8769159E-01
         -2   -1    0    0    0  501 -0.00000000000E+00  0.00000000000E+00  0.74907806297E+03  0.74907806297E+03  0.00000000000E+00 0.  1.
          1   -1    0    0  501    0  0.00000000000E+00 -0.00000000000E+00 -0.94914889492E+03  0.94914889492E+03  0.00000000000E+00 0. -1.
        -24    2    1    2    0    0 -0.57677649765E+03  0.14939291453E+03 -0.14996192207E+03  0.61955456023E+03  0.79811677614E+02 0.  0.
        254    2    1    2    0    0  0.57677649765E+03 -0.14939291453E+03 -0.50108909884E+02  0.10786723977E+04  0.89779388919E+03 0.  0.
         23    2    4    4    0    0  0.37656303912E+03  0.17799172955E+03 -0.37492829081E+03  0.56777829898E+03  0.91215104656E+02 0.  0.
         23    2    4    4    0    0  0.20021345853E+03 -0.32738464408E+03  0.32481938093E+03  0.51089409868E+03  0.90769023811E+02 0.  0.
          3    1    3    3  502    0 -0.51275828394E+03  0.15286641350E+03 -0.14906315054E+03  0.55543588377E+03  0.00000000000E+00 0. -1.
         -4    1    3    3    0  502 -0.64018213705E+02 -0.34734989683E+01 -0.89877152059E+00  0.64118676463E+02  0.00000000000E+00 0.  1.
         11    1    5    5    0    0  0.20740119818E+03  0.10813589823E+03 -0.15028024945E+03  0.27801579608E+03  0.00000000000E+00 0. -1.
        -11    1    5    5    0    0  0.16916184094E+03  0.69855831321E+02 -0.22464804136E+03  0.28976250290E+03  0.00000000000E+00 0.  1.
          1    1    6    6  503    0  0.12518123600E+03 -0.26940514095E+03  0.22078004076E+03  0.37012605719E+03  0.00000000000E+00 0. -1.
         -1    1    6    6    0  503  0.75032222529E+02 -0.57979503135E+02  0.10403934017E+03  0.14076804149E+03  0.00000000000E+00 0.  1.
<mgrwt>
<rscale>  0 0.16864004E+04</rscale>
<asrwt>0</asrwt>
<pdfrwt beam="1">  1        1 0.14602291E+00 0.16864004E+04</pdfrwt>
<pdfrwt beam="2">  1       -2 0.11524278E+00 0.16864004E+04</pdfrwt>
<totfact> 0.81313833E+00</totfact>
</mgrwt>
</event>
<event>
12    4  0.4413110E-008  0.1460711E+04  0.7818608E-02  0.8911009E-01
          1   -1    0    0  501    0  0.00000000000E+00  0.00000000000E+00  0.22732908982E+04  0.22732908982E+04  0.00000000000E+00 0. -1.
         -2   -1    0    0    0  501 -0.00000000000E+00 -0.00000000000E+00 -0.23464616372E+03  0.23464616372E+03  0.00000000000E+00 0.  1.
        -24    2    1    2    0    0 -0.17681825656E+03  0.30741027670E+03  0.15919963223E+03  0.39641995563E+03  0.77707684575E+02 0.  0.
        254    2    1    2    0    0  0.17681825656E+03 -0.30741027670E+03  0.18794451023E+04  0.21115171063E+04  0.89466464316E+03 0.  0.
         23    2    4    4    0    0 -0.31641681869E+03 -0.14477662839E+03  0.11921314762E+04  0.12451152158E+04  0.89747249284E+02 0.  0.
         23    2    4    4    0    0  0.49323507525E+03 -0.16263364831E+03  0.68731362608E+03  0.86640189054E+03  0.92312904372E+02 0.  0.
          3    1    3    3  502    0 -0.50217953965E+02  0.14059861199E+03  0.36449483491E+02  0.15368271680E+03  0.00000000000E+00 0. -1.
         -4    1    3    3    0  502 -0.12660030259E+03  0.16681166471E+03  0.12275014874E+03  0.24273723883E+03  0.00000000000E+00 0.  1.
         11    1    5    5    0    0 -0.28903463312E+03 -0.15015285186E+03  0.11441676802E+04  0.11896245536E+04  0.00000000000E+00 0. -1.
        -11    1    5    5    0    0 -0.27382185570E+02  0.53762234669E+01  0.47963796005E+02  0.55490662210E+02  0.00000000000E+00 0.  1.
          3    1    6    6  503    0  0.38645709534E+03 -0.14727320564E+03  0.48720483239E+03  0.63906731441E+03  0.00000000000E+00 0. -1.
         -3    1    6    6    0  503  0.10677797990E+03 -0.15360442670E+02  0.20010879369E+03  0.22733457613E+03  0.00000000000E+00 0.  1.
<mgrwt>
<rscale>  0 0.14607108E+04</rscale>
<asrwt>0</asrwt>
<pdfrwt beam="1">  1        1 0.34973705E+00 0.14607108E+04</pdfrwt>
<pdfrwt beam="2">  1       -2 0.36099411E-01 0.14607108E+04</pdfrwt>
<totfact> 0.11960963E+01</totfact>
</mgrwt>
</event>
<event>
12    4  0.4413110E-008  0.1116412E+04  0.7818608E-02  0.9189342E-01
         -2   -1    0    0    0  501 -0.00000000000E+00  0.00000000000E+00  0.19414976114E+03  0.19414976114E+03  0.00000000000E+00 0.  1.
          1   -1    0    0  501    0  0.00000000000E+00 -0.00000000000E+00 -0.16049154613E+04  0.16049154613E+04  0.00000000000E+00 0. -1.
        -24    2    1    2    0    0  0.21888967142E+03 -0.19973840559E+02 -0.29720155590E+03  0.37824069751E+03  0.80159951723E+02 0.  0.
        254    2    1    2    0    0 -0.21888967142E+03  0.19973840559E+02 -0.11135641442E+04  0.14208245249E+04  0.85463769207E+03 0.  0.
         23    2    4    4    0    0 -0.21669490760E+03 -0.37324572424E+03 -0.77980305386E+03  0.89578883111E+03  0.89865307497E+02 0.  0.
         23    2    4    4    0    0 -0.21947638185E+01  0.39321956480E+03 -0.33376109038E+03  0.52503569380E+03  0.98181317887E+02 0.  0.
          3    1    3    3  502    0  0.21843025263E+03 -0.49396204102E+01 -0.27190416218E+03  0.34880947310E+03  0.00000000000E+00 0. -1.
         -4    1    3    3    0  502  0.45941879157E+00 -0.15034220149E+02 -0.25297393717E+02  0.29431224406E+02  0.00000000000E+00 0.  1.
         11    1    5    5    0    0 -0.82266568700E+02 -0.13751479000E+03 -0.38192902667E+03  0.41418339804E+03  0.00000000000E+00 0.  1.
        -11    1    5    5    0    0 -0.13442833890E+03 -0.23573093424E+03 -0.39787402719E+03  0.48160543308E+03  0.00000000000E+00 0. -1.
          2    1    6    6  503    0  0.12767685493E+02  0.24006862536E+03 -0.26091084488E+03  0.35478222567E+03  0.00000000000E+00 0. -1.
         -2    1    6    6    0  503 -0.14962449311E+02  0.15315093944E+03 -0.72850245501E+02  0.17025346813E+03  0.00000000000E+00 0.  1.
<mgrwt>
<rscale>  0 0.11164120E+04</rscale>
<asrwt>0</asrwt>
<pdfrwt beam="1">  1        1 0.24691007E+00 0.11164120E+04</pdfrwt>
<pdfrwt beam="2">  1       -2 0.29869195E-01 0.11164120E+04</pdfrwt>
<totfact> 0.50017284E+01</totfact>
</mgrwt>
</event>
<event>
12    4  0.4413110E-008  0.1163790E+04  0.7818608E-02  0.9145155E-01
          1   -1    0    0  501    0  0.00000000000E+00  0.00000000000E+00  0.75542174950E+03  0.75542174950E+03  0.00000000000E+00 0. -1.
         -2   -1    0    0    0  501 -0.00000000000E+00 -0.00000000000E+00 -0.44822865074E+03  0.44822865074E+03  0.00000000000E+00 0.  1.
        -24    2    1    2    0    0 -0.52607429728E+02  0.72599944865E+02 -0.15108310092E+03  0.19054789875E+03  0.73784176346E+02 0.  0.
        254    2    1    2    0    0  0.52607429728E+02 -0.72599944865E+02  0.45827619967E+03  0.10131025015E+04  0.89906691057E+03 0.  0.
         23    2    4    4    0    0 -0.33460781816E+03 -0.27528421763E+03  0.31911088346E+03  0.54551533012E+03  0.89506575227E+02 0.  0.
         23    2    4    4    0    0  0.38721524788E+03  0.20268427277E+03  0.13916531621E+03  0.46758717137E+03  0.90852710306E+02 0.  0.
          3    1    3    3  502    0 -0.56755101840E+01 -0.14986424266E+02 -0.14276994636E+02  0.21462453354E+02  0.00000000000E+00 0. -1.
         -4    1    3    3    0  502 -0.46931919544E+02  0.87586369131E+02 -0.13680610628E+03  0.16908544540E+03  0.00000000000E+00 0.  1.
         11    1    5    5    0    0 -0.10162769556E+03 -0.12112285122E+03  0.77128530369E+02  0.17591970836E+03  0.00000000000E+00 0.  1.
        -11    1    5    5    0    0 -0.23298012260E+03 -0.15416136641E+03  0.24198235309E+03  0.36959562177E+03  0.00000000000E+00 0. -1.
          2    1    6    6  503    0  0.11640289223E+03  0.21919882835E+02  0.58681133931E+02  0.13218770768E+03  0.00000000000E+00 0. -1.
         -2    1    6    6    0  503  0.27081235565E+03  0.18076438993E+03  0.80484182282E+02  0.33539946368E+03  0.00000000000E+00 0.  1.
<mgrwt>
<rscale>  0 0.11637898E+04</rscale>
<asrwt>0</asrwt>
<pdfrwt beam="1">  1        1 0.11621873E+00 0.11637898E+04</pdfrwt>
<pdfrwt beam="2">  1       -2 0.68958254E-01 0.11637898E+04</pdfrwt>
<totfact> 0.40442099E+01</totfact>
</mgrwt>
</event>
<event>
12    4  0.4413110E-008  0.1957007E+04  0.7818608E-02  0.8626989E-01
         -2   -1    0    0    0  501 -0.00000000000E+00  0.00000000000E+00  0.52089237992E+03  0.52089237992E+03  0.00000000000E+00 0.  1.
          1   -1    0    0  501    0  0.00000000000E+00 -0.00000000000E+00 -0.18381319332E+04  0.18381319332E+04  0.00000000000E+00 0. -1.
        -24    2    1    2    0    0  0.44873480716E+03 -0.34485097882E+03 -0.11486924835E+04  0.12832377135E+04  0.83183429812E+02 0.  0.
        254    2    1    2    0    0 -0.44873480716E+03  0.34485097882E+03 -0.16854706982E+03  0.10757865996E+04  0.89923499068E+03 0.  0.
         23    2    4    4    0    0  0.10277767730E+03  0.33857192006E+03 -0.33113355358E+03  0.49297747786E+03  0.90460860967E+02 0.  0.
         23    2    4    4    0    0 -0.55151248446E+03  0.62790587514E+01  0.16258648376E+03  0.58280912178E+03  0.95008739750E+02 0.  0.
          1    1    3    3  502    0  0.26259180927E+03 -0.19599777585E+03 -0.75468008562E+03  0.82274638745E+03  0.00000000000E+00 0. -1.
         -2    1    3    3    0  502  0.18614299789E+03 -0.14885320297E+03 -0.39401239786E+03  0.46049132605E+03  0.00000000000E+00 0.  1.
         11    1    5    5    0    0  0.46563908559E+02  0.20579813629E+03 -0.25141507303E+03  0.32822341389E+03  0.00000000000E+00 0. -1.
        -11    1    5    5    0    0  0.56213768739E+02  0.13277378378E+03 -0.79718480553E+02  0.16475406397E+03  0.00000000000E+00 0.  1.
          2    1    6    6  503    0 -0.54166466319E+03  0.20149413923E+02  0.16222457031E+03  0.56579450107E+03  0.00000000000E+00 0. -1.
         -2    1    6    6    0  503 -0.98478212687E+01 -0.13870355172E+02  0.36191345165E+00  0.17014620703E+02  0.00000000000E+00 0.  1.
<mgrwt>
<rscale>  0 0.19570068E+04</rscale>
<asrwt>0</asrwt>
<pdfrwt beam="1">  1        1 0.28278953E+00 0.19570068E+04</pdfrwt>
<pdfrwt beam="2">  1       -2 0.80137289E-01 0.19570068E+04</pdfrwt>
<totfact> 0.43203676E+00</totfact>
</mgrwt>
</event>
<event>
12    4  0.4413110E-008  0.1525487E+04  0.7818608E-02  0.8867679E-01
         -2   -1    0    0    0  501 -0.00000000000E+00  0.00000000000E+00  0.25279848062E+03  0.25279848062E+03  0.00000000000E+00 0.  1.
          1   -1    0    0  501    0  0.00000000000E+00 -0.00000000000E+00 -0.23013495018E+04  0.23013495018E+04  0.00000000000E+00 0. -1.
        -24    2    1    2    0    0  0.31588995578E+02 -0.37072918710E+03 -0.12791254373E+03  0.40146697796E+03  0.79850615154E+02 0.  0.
        254    2    1    2    0    0 -0.31588995578E+02  0.37072918710E+03 -0.19206384774E+04  0.21526810044E+04  0.89819004176E+03 0.  0.
         23    2    4    4    0    0 -0.39609078571E+03  0.42575162789E+03 -0.12792101922E+04  0.14080583729E+04  0.89985035295E+02 0.  0.
         23    2    4    4    0    0  0.36450179013E+03 -0.55022440791E+02 -0.64142828527E+03  0.74462263156E+03  0.84519786312E+02 0.  0.
          3    1    3    3  502    0 -0.25236928955E+01 -0.12084513245E+03 -0.79466844072E+02  0.14465439630E+03  0.00000000000E+00 0. -1.
         -4    1    3    3    0  502  0.34112688474E+02 -0.24988405465E+03 -0.48445699661E+02  0.25681258166E+03  0.00000000000E+00 0.  1.
         11    1    5    5    0    0 -0.10794235887E+03  0.65164014857E+02 -0.30492285829E+03  0.32996340885E+03  0.00000000000E+00 0.  1.
        -11    1    5    5    0    0 -0.28814842684E+03  0.36058761303E+03 -0.97428733386E+03  0.10780949640E+04  0.00000000000E+00 0. -1.
          3    1    6    6  503    0  0.36516960567E+03 -0.59830181038E+02 -0.64045877255E+03  0.73967285391E+03  0.00000000000E+00 0. -1.
         -3    1    6    6    0  503 -0.66781554220E+00  0.48077402471E+01 -0.96951272665E+00  0.49497776525E+01  0.00000000000E+00 0.  1.
<mgrwt>
<rscale>  0 0.15254870E+04</rscale>
<asrwt>0</asrwt>
<pdfrwt beam="1">  1        1 0.35405377E+00 0.15254870E+04</pdfrwt>
<pdfrwt beam="2">  1       -2 0.38892074E-01 0.15254870E+04</pdfrwt>
<totfact> 0.98509258E+00</totfact>
</mgrwt>
</event>
<event>
12    4  0.4413110E-008  0.1447424E+04  0.7818608E-02  0.8920188E-01
          1   -1    0    0  501    0  0.00000000000E+00  0.00000000000E+00  0.63693111314E+03  0.63693111314E+03  0.00000000000E+00 0. -1.
         -2   -1    0    0    0  501 -0.00000000000E+00 -0.00000000000E+00 -0.82231641333E+03  0.82231641333E+03  0.00000000000E+00 0.  1.
        -24    2    1    2    0    0 -0.22597228955E+03  0.66588925415E+02  0.32323742577E+03  0.40764828075E+03  0.78721831440E+02 0.  0.
        254    2    1    2    0    0  0.22597228955E+03 -0.66588925415E+02 -0.50862272596E+03  0.10515992457E+04  0.88975633496E+03 0.  0.
         23    2    4    4    0    0  0.22722527831E+03  0.43043993676E+02  0.20567769956E+03  0.32227027517E+03  0.89837084026E+02 0.  0.
         23    2    4    4    0    0 -0.12529887601E+01 -0.10963291909E+03 -0.71430042552E+03  0.72932897055E+03  0.98360065325E+02 0.  0.
          1    1    3    3  502    0 -0.12897519285E+03  0.40816058395E+02  0.24697707188E+03  0.28159940524E+03  0.00000000000E+00 0. -1.
         -2    1    3    3    0  502 -0.96997096699E+02  0.25772867020E+02  0.76260353886E+02  0.12604887551E+03  0.00000000000E+00 0.  1.
         11    1    5    5    0    0  0.11017525182E+03  0.11105466201E+02  0.15567589862E+03  0.19104162610E+03  0.00000000000E+00 0.  1.
        -11    1    5    5    0    0  0.11705002649E+03  0.31938527475E+02  0.50001800947E+02  0.13122864907E+03  0.00000000000E+00 0. -1.
          2    1    6    6  503    0 -0.25907129615E+01 -0.99246187326E+02 -0.71162919657E+03  0.71852114158E+03  0.00000000000E+00 0. -1.
         -2    1    6    6    0  503  0.13377242014E+01 -0.10386731765E+02 -0.26712289511E+01  0.10807828963E+02  0.00000000000E+00 0.  1.
<mgrwt>
<rscale>  0 0.14474238E+04</rscale>
<asrwt>0</asrwt>
<pdfrwt beam="1">  1        1 0.97989402E-01 0.14474238E+04</pdfrwt>
<pdfrwt beam="2">  1       -2 0.12651022E+00 0.14474238E+04</pdfrwt>
<totfact> 0.12410841E+01</totfact>
</mgrwt>
</event>
<event>
12    4  0.4413110E-008  0.2258917E+04  0.7818608E-02  0.8494298E-01
         -2   -1    0    0    0  501 -0.00000000000E+00  0.00000000000E+00  0.10318140653E+04  0.10318140653E+04  0.00000000000E+00 0.  1.
          1   -1    0    0  501    0  0.00000000000E+00 -0.00000000000E+00 -0.12363430860E+04  0.12363430860E+04  0.00000000000E+00 0. -1.
        -24    2    1    2    0    0  0.90732255629E+03 -0.25995259363E+02  0.17543442675E+03  0.92788862665E+03  0.79310092118E+02 0.  0.
        254    2    1    2    0    0 -0.90732255629E+03  0.25995259363E+02 -0.37996344740E+03  0.13402685246E+04  0.90996567079E+03 0.  0.
         23    2    4    4    0    0 -0.59918094456E+03  0.39392015261E+03 -0.36620314958E+01  0.72323994804E+03  0.94189813755E+02 0.  0.
         23    2    4    4    0    0 -0.30814161173E+03 -0.36792489324E+03 -0.37630141591E+03  0.61702857656E+03  0.93816462991E+02 0.  0.
          3    1    3    3  502    0  0.69029886974E+03 -0.40659707657E+01  0.10243935801E+03  0.69787024851E+03  0.00000000000E+00 0. -1.
         -4    1    3    3    0  502  0.21702368656E+03 -0.21929288597E+02  0.72995068739E+02  0.23001837815E+03  0.00000000000E+00 0.  1.
         11    1    5    5    0    0 -0.59898464784E+03  0.38213287576E+03 -0.83645207314E+01  0.71054775230E+03  0.00000000000E+00 0.  1.
        -11    1    5    5    0    0 -0.19629671828E+00  0.11787276843E+02  0.47024892356E+01  0.12692195743E+02  0.00000000000E+00 0. -1.
          2    1    6    6  503    0 -0.49514978960E+01  0.55679520694E+01 -0.26769105228E+01  0.79174030848E+01  0.00000000000E+00 0. -1.
         -2    1    6    6    0  503 -0.30319011384E+03 -0.37349284531E+03 -0.37362450539E+03  0.60911117348E+03  0.00000000000E+00 0.  1.
<mgrwt>
<rscale>  0 0.22589167E+04</rscale>
<asrwt>0</asrwt>
<pdfrwt beam="1">  1        1 0.19020663E+00 0.22589167E+04</pdfrwt>
<pdfrwt beam="2">  1       -2 0.15874063E+00 0.22589167E+04</pdfrwt>
<totfact> 0.20592829E+00</totfact>
</mgrwt>
</event>
<event>
12    4  0.4413110E-008  0.1178796E+04  0.7818608E-02  0.9131621E-01
          1   -1    0    0  501    0  0.00000000000E+00  0.00000000000E+00  0.10910541759E+04  0.10910541759E+04  0.00000000000E+00 0. -1.
         -2   -1    0    0    0  501 -0.00000000000E+00 -0.00000000000E+00 -0.31839873240E+03  0.31839873240E+03  0.00000000000E+00 0.  1.
        -24    2    1    2    0    0  0.23086767570E+03  0.28743216082E+02  0.10241851886E+03  0.26552460650E+03  0.76731398382E+02 0.  0.
        254    2    1    2    0    0 -0.23086767570E+03 -0.28743216082E+02  0.67023692463E+03  0.11439283018E+04  0.89734517792E+03 0.  0.
         23    2    4    4    0    0 -0.27570556049E+03  0.22319334590E+03 -0.53642609252E+02  0.37047239923E+03  0.92430748808E+02 0.  0.
         23    2    4    4    0    0  0.44837884790E+02 -0.25193656198E+03  0.72387953389E+03  0.77345590256E+03  0.93541362243E+02 0.  0.
          3    1    3    3  502    0  0.22836200882E+03  0.16897001713E+02  0.10677409737E+03  0.25265673078E+03  0.00000000000E+00 0. -1.
         -4    1    3    3    0  502  0.25056668833E+01  0.11846214369E+02 -0.43555785132E+01  0.12867875722E+02  0.00000000000E+00 0.  1.
         11    1    5    5    0    0 -0.27305315252E+03  0.21298956853E+03 -0.67747222310E+02  0.35286295715E+03  0.00000000000E+00 0. -1.
        -11    1    5    5    0    0 -0.26524079727E+01  0.10203777372E+02  0.14104613058E+02  0.17609442076E+02  0.00000000000E+00 0.  1.
          2    1    6    6  503    0  0.16357893330E+02 -0.15274132495E+03  0.55197209370E+03  0.57294911226E+03  0.00000000000E+00 0. -1.
         -2    1    6    6    0  503  0.28479991460E+02 -0.99195237030E+02  0.17190744019E+03  0.20050679030E+03  0.00000000000E+00 0.  1.
<mgrwt>
<rscale>  0 0.11787964E+04</rscale>
<asrwt>0</asrwt>
<pdfrwt beam="1">  1        1 0.16785449E+00 0.11787964E+04</pdfrwt>
<pdfrwt beam="2">  1       -2 0.48984421E-01 0.11787964E+04</pdfrwt>
<totfact> 0.44157777E+01</totfact>
</mgrwt>
</event>
<event>
12    4  0.4413110E-008  0.1597482E+04  0.7818608E-02  0.8822096E-01
         -4   -1    0    0    0  501 -0.00000000000E+00  0.00000000000E+00  0.25171161941E+03  0.25171161941E+03  0.00000000000E+00 0.  1.
          1   -1    0    0  501    0  0.00000000000E+00 -0.00000000000E+00 -0.25345958148E+04  0.25345958148E+04  0.00000000000E+00 0. -1.
        -24    2    1    2    0    0 -0.10521977052E+03  0.16367950464E+03  0.11296697283E+03  0.23889522057E+03  0.80294514840E+02 0.  0.
        254    2    1    2    0    0  0.10521977052E+03 -0.16367950464E+03 -0.23958511682E+04  0.25474122136E+04  0.84341210896E+03 0.  0.
         23    2    4    4    0    0  0.30244658295E+02 -0.18108390099E+03 -0.67395855919E+02  0.21540394357E+03  0.90280335373E+02 0.  0.
         23    2    4    4    0    0  0.74975112225E+02  0.17404396351E+02 -0.23284553123E+04  0.23320082701E+04  0.10312249903E+03 0.  0.
          3    1    3    3  502    0 -0.46140957175E+02  0.17088407058E+02  0.45612927662E+02  0.67093522449E+02  0.00000000000E+00 0. -1.
         -4    1    3    3    0  502 -0.59078813346E+02  0.14659109758E+03  0.67354045168E+02  0.17180169812E+03  0.00000000000E+00 0.  1.
         11    1    5    5    0    0  0.18069072992E+01 -0.85666090136E+01  0.18597939494E+02  0.20555657552E+02  0.00000000000E+00 0. -1.
        -11    1    5    5    0    0  0.28437750996E+02 -0.17251729198E+03 -0.85993795413E+02  0.19484828601E+03  0.00000000000E+00 0.  1.
          1    1    6    6  503    0  0.78903041728E+02 -0.26501219376E+02 -0.16760067359E+04  0.16780722819E+04  0.00000000000E+00 0. -1.
         -1    1    6    6    0  503 -0.39279295028E+01  0.43905615727E+02 -0.65244857643E+03  0.65393598816E+03  0.00000000000E+00 0.  1.
<mgrwt>
<rscale>  0 0.15974820E+04</rscale>
<asrwt>0</asrwt>
<pdfrwt beam="1">  1        1 0.38993782E+00 0.15974820E+04</pdfrwt>
<pdfrwt beam="2">  1       -4 0.38724864E-01 0.15974820E+04</pdfrwt>
<totfact> 0.39902528E+00</totfact>
</mgrwt>
</event>
<event>
12    4  0.4413110E-008  0.1919436E+04  0.7818608E-02  0.8645242E-01
         -2   -1    0    0    0  501 -0.00000000000E+00  0.00000000000E+00  0.48539177549E+03  0.48539177549E+03  0.00000000000E+00 0.  1.
          1   -1    0    0  501    0  0.00000000000E+00 -0.00000000000E+00 -0.18975581282E+04  0.18975581282E+04  0.00000000000E+00 0. -1.
        -24    2    1    2    0    0  0.35891681637E+03 -0.63015340494E+03 -0.33836030792E+03  0.80417714616E+03  0.79363654166E+02 0.  0.
        254    2    1    2    0    0 -0.35891681637E+03  0.63015340494E+03 -0.10738060448E+04  0.15787727576E+04  0.90196973524E+03 0.  0.
         23    2    4    4    0    0  0.14682862273E+03  0.47082062739E+03 -0.17477858240E+03  0.53110870274E+03  0.91094421540E+02 0.  0.
         23    2    4    4    0    0 -0.50574543910E+03  0.15933277756E+03 -0.89902746243E+03  0.10476640548E+04  0.90466625908E+02 0.  0.
          1    1    3    3  502    0  0.58938562955E+02 -0.74134876699E+02 -0.69979169823E+02  0.11775745563E+03  0.00000000000E+00 0. -1.
         -2    1    3    3    0  502  0.29997825341E+03 -0.55601852824E+03 -0.26838113810E+03  0.68641969054E+03  0.00000000000E+00 0.  1.
         11    1    5    5    0    0  0.15979646944E+03  0.43774964493E+03 -0.16245551544E+03  0.49350932897E+03  0.00000000000E+00 0.  1.
        -11    1    5    5    0    0 -0.12967846707E+02  0.33070982453E+02 -0.12323066964E+02  0.37599373772E+02  0.00000000000E+00 0. -1.
          3    1    6    6  503    0 -0.97984283963E+02  0.70098682176E+02 -0.19724751676E+03  0.23113054323E+03  0.00000000000E+00 0. -1.
         -3    1    6    6    0  503 -0.40776115514E+03  0.89234095382E+02 -0.70177994567E+03  0.81653351160E+03  0.00000000000E+00 0.  1.
<mgrwt>
<rscale>  0 0.19194365E+04</rscale>
<asrwt>0</asrwt>
<pdfrwt beam="1">  1        1 0.29193202E+00 0.19194365E+04</pdfrwt>
<pdfrwt beam="2">  1       -2 0.74675657E-01 0.19194365E+04</pdfrwt>
<totfact> 0.46246584E+00</totfact>
</mgrwt>
</event>
<event>
12    4  0.4413110E-008  0.1782441E+04  0.7818608E-02  0.8715693E-01
         -2   -1    0    0    0  501 -0.00000000000E+00  0.00000000000E+00  0.43391950665E+03  0.43391950665E+03  0.00000000000E+00 0.  1.
          1   -1    0    0  501    0  0.00000000000E+00 -0.00000000000E+00 -0.18304634043E+04  0.18304634043E+04  0.00000000000E+00 0. -1.
        -24    2    1    2    0    0  0.64459383648E+03 -0.11469447764E+03 -0.48631601594E+03  0.81955390623E+03  0.80680236885E+02 0.  0.
        254    2    1    2    0    0 -0.64459383648E+03  0.11469447764E+03 -0.91022788172E+03  0.14448290047E+04  0.91124092259E+03 0.  0.
         23    2    4    4    0    0 -0.84597029942E+02 -0.33423063498E+03 -0.49751652535E+03  0.61176963095E+03  0.88727749420E+02 0.  0.
         23    2    4    4    0    0 -0.55999680654E+03  0.44892511263E+03 -0.41271135637E+03  0.83305937378E+03  0.92342170637E+02 0.  0.
          1    1    3    3  502    0  0.58863459165E+02 -0.72475478163E+01 -0.18051466186E+02  0.61994267522E+02  0.00000000000E+00 0. -1.
         -2    1    3    3    0  502  0.58573037732E+03 -0.10744692983E+03 -0.46826454975E+03  0.75755963871E+03  0.00000000000E+00 0.  1.
         11    1    5    5    0    0 -0.30802471273E+02 -0.72977578578E+02 -0.60058480705E+02  0.99405937027E+02  0.00000000000E+00 0.  1.
        -11    1    5    5    0    0 -0.53794558670E+02 -0.26125305641E+03 -0.43745804464E+03  0.51236369392E+03  0.00000000000E+00 0. -1.
          2    1    6    6  503    0 -0.51093878898E+03  0.37051968428E+03 -0.35858198965E+03  0.72589553369E+03  0.00000000000E+00 0. -1.
         -2    1    6    6    0  503 -0.49058017554E+02  0.78405428347E+02 -0.54129366725E+02  0.10716384009E+03  0.00000000000E+00 0.  1.
<mgrwt>
<rscale>  0 0.17824408E+04</rscale>
<asrwt>0</asrwt>
<pdfrwt beam="1">  1        1 0.28160975E+00 0.17824408E+04</pdfrwt>
<pdfrwt beam="2">  1       -2 0.66756847E-01 0.17824408E+04</pdfrwt>
<totfact> 0.66420048E+00</totfact>
</mgrwt>
</event>
<event>
12    4  0.4413110E-008  0.3426946E+04  0.7818608E-02  0.8131324E-01
          1   -1    0    0  501    0  0.00000000000E+00  0.00000000000E+00  0.36808820768E+04  0.36808820768E+04  0.00000000000E+00 0. -1.
         -2   -1    0    0    0  501 -0.00000000000E+00 -0.00000000000E+00 -0.79763222716E+03  0.79763222716E+03  0.00000000000E+00 0.  1.
        -24    2    1    2    0    0  0.29701585283E+03  0.15214241902E+03 -0.69424526471E+03  0.77446553168E+03  0.80340772251E+02 0.  0.
        254    2    1    2    0    0 -0.29701585283E+03 -0.15214241902E+03  0.35774951144E+04  0.37040487723E+04  0.90007793095E+03 0.  0.
         23    2    4    4    0    0 -0.54167291840E+03  0.30989081723E+02  0.14164279935E+04  0.15195851431E+04  0.92200176644E+02 0.  0.
         23    2    4    4    0    0  0.24465706557E+03 -0.18313150075E+03  0.21610671209E+04  0.21844636292E+04  0.90972634526E+02 0.  0.
          3    1    3    3  502    0  0.83641447861E+02  0.23005408794E+02 -0.25498648330E+03  0.26933853660E+03  0.00000000000E+00 0. -1.
         -4    1    3    3    0  502  0.21337440497E+03  0.12913701023E+03 -0.43925878141E+03  0.50512699507E+03  0.00000000000E+00 0.  1.
         11    1    5    5    0    0 -0.21819811984E+02 -0.17791264838E+02  0.68222382820E+02  0.73803298146E+02  0.00000000000E+00 0.  1.
        -11    1    5    5    0    0 -0.51985310642E+03  0.48780346561E+02  0.13482056107E+04  0.14457818450E+04  0.00000000000E+00 0. -1.
          2    1    6    6  503    0  0.17372184278E+03 -0.12912580857E+03  0.17796674992E+04  0.17927825191E+04  0.00000000000E+00 0. -1.
         -2    1    6    6    0  503  0.70935222790E+02 -0.54005692181E+02  0.38139962162E+03  0.39168111008E+03  0.00000000000E+00 0.  1.
<mgrwt>
<rscale>  0 0.34269463E+04</rscale>
<asrwt>0</asrwt>
<pdfrwt beam="1">  1        1 0.56628954E+00 0.34269463E+04</pdfrwt>
<pdfrwt beam="2">  1       -2 0.12271265E+00 0.34269463E+04</pdfrwt>
<totfact> 0.64839204E-02</totfact>
</mgrwt>
</event>
<event>
12    4  0.4413110E-008  0.2716863E+04  0.7818608E-02  0.8329554E-01
         -2   -1    0    0    0  501 -0.00000000000E+00  0.00000000000E+00  0.10846479985E+04  0.10846479985E+04  0.00000000000E+00 0.  1.
          1   -1    0    0  501    0  0.00000000000E+00 -0.00000000000E+00 -0.17013225999E+04  0.17013225999E+04  0.00000000000E+00 0. -1.
        -24    2    1    2    0    0 -0.11815009687E+03  0.10640320180E+04  0.29798654651E+03  0.11141151714E+04  0.79580477111E+02 0.  0.
        254    2    1    2    0    0  0.11815009687E+03 -0.10640320180E+04 -0.91466114789E+03  0.16718554271E+04  0.90131679935E+03 0.  0.
         23    2    4    4    0    0  0.49862281110E+03 -0.59476227221E+03 -0.59464321369E+03  0.98194331818E+03  0.90803415832E+02 0.  0.
         23    2    4    4    0    0 -0.38047271424E+03 -0.46926974584E+03 -0.32001793420E+03  0.68991210891E+03  0.92701991180E+02 0.  0.
          3    1    3    3  502    0 -0.11066381289E+03  0.95719573778E+03  0.29202591267E+03  0.10068511775E+04  0.00000000000E+00 0. -1.
         -4    1    3    3    0  502 -0.74862839725E+01  0.10683628027E+03  0.59606338401E+01  0.10726399389E+03  0.00000000000E+00 0.  1.
         11    1    5    5    0    0  0.49953844150E+03 -0.59143826392E+03 -0.58117398655E+03  0.96803981179E+03  0.00000000000E+00 0. -1.
        -11    1    5    5    0    0 -0.91563039974E+00 -0.33240082968E+01 -0.13469227142E+02  0.13903506392E+02  0.00000000000E+00 0.  1.
          3    1    6    6  503    0 -0.21689093031E+03 -0.19399923901E+03 -0.15209818208E+03  0.32834621572E+03  0.00000000000E+00 0. -1.
         -3    1    6    6    0  503 -0.16358178393E+03 -0.27527050683E+03 -0.16791975213E+03  0.36156589318E+03  0.00000000000E+00 0.  1.
<mgrwt>
<rscale>  0 0.27168630E+04</rscale>
<asrwt>0</asrwt>
<pdfrwt beam="1">  1        1 0.26174194E+00 0.27168630E+04</pdfrwt>
<pdfrwt beam="2">  1       -2 0.16686892E+00 0.27168630E+04</pdfrwt>
<totfact> 0.81766486E-01</totfact>
</mgrwt>
</event>
<event>
12    4  0.4413110E-008  0.2262483E+04  0.7818608E-02  0.8492862E-01
          1   -1    0    0  501    0  0.00000000000E+00  0.00000000000E+00  0.13170523009E+04  0.13170523009E+04  0.00000000000E+00 0. -1.
         -4   -1    0    0    0  501 -0.00000000000E+00 -0.00000000000E+00 -0.97164537229E+03  0.97164537229E+03  0.00000000000E+00 0.  1.
        -24    2    1    2    0    0  0.71485508169E+03  0.36330458445E+03 -0.37242434102E+03  0.88814322834E+03  0.84205079151E+02 0.  0.
        254    2    1    2    0    0 -0.71485508169E+03 -0.36330458445E+03  0.71783126964E+03  0.14005544449E+04  0.89624941419E+03 0.  0.
         23    2    4    4    0    0 -0.72234646788E+03 -0.48618580332E+03  0.25354850367E+03  0.91145144350E+03  0.91081475299E+02 0.  0.
         23    2    4    4    0    0  0.74913861881E+01  0.12288121887E+03  0.46428276597E+03  0.48910300136E+03  0.92235266249E+02 0.  0.
          1    1    3    3  502    0  0.68907973029E+03  0.34340852697E+03 -0.37315741630E+03  0.85557392926E+03  0.00000000000E+00 0. -1.
         -2    1    3    3    0  502  0.25775351406E+02  0.19896057479E+02  0.73307527386E+00  0.32569299081E+02  0.00000000000E+00 0.  1.
         11    1    5    5    0    0 -0.20504360633E+03 -0.18816169666E+03  0.89025724471E+02  0.29218707056E+03  0.00000000000E+00 0.  1.
        -11    1    5    5    0    0 -0.51730286155E+03 -0.29802410666E+03  0.16452277920E+03  0.61926437294E+03  0.00000000000E+00 0. -1.
          4    1    6    6  503    0 -0.38649722622E-01  0.31756462348E+01  0.18655702077E+03  0.18658405135E+03  0.00000000000E+00 0. -1.
         -4    1    6    6    0  503  0.75300359107E+01  0.11970557263E+03  0.27772574521E+03  0.30251895000E+03  0.00000000000E+00 0.  1.
<mgrwt>
<rscale>  0 0.22624834E+04</rscale>
<asrwt>0</asrwt>
<pdfrwt beam="1">  1        1 0.20262343E+00 0.22624834E+04</pdfrwt>
<pdfrwt beam="2">  1       -4 0.14948390E+00 0.22624834E+04</pdfrwt>
<totfact> 0.11670276E+00</totfact>
</mgrwt>
</event>
<event>
12    4  0.4413110E-008  0.4132053E+04  0.7818608E-02  0.7978424E-01
         -2   -1    0    0    0  501 -0.00000000000E+00  0.00000000000E+00  0.16004873510E+04  0.16004873510E+04  0.00000000000E+00 0.  1.
          1   -1    0    0  501    0  0.00000000000E+00 -0.00000000000E+00 -0.26669786356E+04  0.26669786356E+04  0.00000000000E+00 0. -1.
        -24    2    1    2    0    0  0.70383830151E+03  0.53992140164E+02  0.13883631453E+04  0.15595771800E+04  0.80157664493E+02 0.  0.
        254    2    1    2    0    0 -0.70383830151E+03 -0.53992140164E+02 -0.24548544299E+04  0.27078888066E+04  0.89891490751E+03 0.  0.
         23    2    4    4    0    0 -0.42020514604E+03 -0.31015508700E+03 -0.55262039556E+03  0.76544032784E+03  0.87983243508E+02 0.  0.
         23    2    4    4    0    0 -0.28363315546E+03  0.25616294684E+03 -0.19022340343E+04  0.19424484787E+04  0.92436729453E+02 0.  0.
          1    1    3    3  502    0  0.24566508334E+03 -0.18041595279E+02  0.45968315535E+03  0.52152222929E+03  0.00000000000E+00 0. -1.
         -2    1    3    3    0  502  0.45817321817E+03  0.72033735443E+02  0.92867998994E+03  0.10380549507E+04  0.00000000000E+00 0.  1.
         11    1    5    5    0    0 -0.15461478740E+02  0.18523501332E+01 -0.48839247347E+01  0.16319964664E+02  0.00000000000E+00 0.  1.
        -11    1    5    5    0    0 -0.40474366730E+03 -0.31200743713E+03 -0.54773647082E+03  0.74912036317E+03  0.00000000000E+00 0. -1.
          3    1    6    6  503    0 -0.27900375263E+03  0.22513774033E+03 -0.16657850805E+04  0.17039278243E+04  0.00000000000E+00 0. -1.
         -3    1    6    6    0  503 -0.46294028296E+01  0.31025206511E+02 -0.23644895384E+03  0.23852065442E+03  0.00000000000E+00 0.  1.
<mgrwt>
<rscale>  0 0.41320530E+04</rscale>
<asrwt>0</asrwt>
<pdfrwt beam="1">  1        1 0.41030440E+00 0.41320530E+04</pdfrwt>
<pdfrwt beam="2">  1       -2 0.24622883E+00 0.41320530E+04</pdfrwt>
<totfact> 0.47825342E-02</totfact>
</mgrwt>
</event>
<event>
12    4  0.4413110E-008  0.1627904E+04  0.7818608E-02  0.8803586E-01
         -2   -1    0    0    0  501 -0.00000000000E+00  0.00000000000E+00  0.11113622134E+04  0.11113622134E+04  0.00000000000E+00 0.  1.
          1   -1    0    0  501    0  0.00000000000E+00 -0.00000000000E+00 -0.59613147749E+03  0.59613147749E+03  0.00000000000E+00 0. -1.
        -24    2    1    2    0    0 -0.24281677997E+03  0.30348867622E+03 -0.24509025616E+03  0.46619341333E+03  0.78750871366E+02 0.  0.
        254    2    1    2    0    0  0.24281677997E+03 -0.30348867622E+03  0.76032099204E+03  0.12413002775E+04  0.90092896660E+03 0.  0.
         23    2    4    4    0    0  0.44024883447E+03 -0.51007802989E+03  0.56062087247E+03  0.88105556872E+03  0.89244157786E+02 0.  0.
         23    2    4    4    0    0 -0.19743205450E+03  0.20658935367E+03  0.19970011956E+03  0.36024470881E+03  0.90760868659E+02 0.  0.
          3    1    3    3  502    0 -0.12927478192E+03  0.20420309376E+03 -0.18270389791E+03  0.30297126440E+03  0.00000000000E+00 0. -1.
         -4    1    3    3    0  502 -0.11354199805E+03  0.99285582460E+02 -0.62386358241E+02  0.16322214892E+03  0.00000000000E+00 0.  1.
         11    1    5    5    0    0  0.19033390940E+03 -0.23880120616E+03  0.30981285936E+03  0.43501381697E+03  0.00000000000E+00 0.  1.
        -11    1    5    5    0    0  0.24991492507E+03 -0.27127682373E+03  0.25080801311E+03  0.44604175175E+03  0.00000000000E+00 0. -1.
          3    1    6    6  503    0 -0.14636805100E+03  0.13283078408E+03  0.18224801832E+03  0.26885305230E+03  0.00000000000E+00 0. -1.
         -3    1    6    6    0  503 -0.51064003496E+02  0.73758569593E+02  0.17452101248E+02  0.91391656509E+02  0.00000000000E+00 0.  1.
<mgrwt>
<rscale>  0 0.16279042E+04</rscale>
<asrwt>0</asrwt>
<pdfrwt beam="1">  1        1 0.91712535E-01 0.16279042E+04</pdfrwt>
<pdfrwt beam="2">  1       -2 0.17097880E+00 0.16279042E+04</pdfrwt>
<totfact> 0.60701169E+00</totfact>
</mgrwt>
</event>
<event>
12    4  0.4413110E-008  0.2862870E+04  0.7818608E-02  0.8284011E-01
         -2   -1    0    0    0  501 -0.00000000000E+00  0.00000000000E+00  0.60398921643E+03  0.60398921643E+03  0.00000000000E+00 0.  1.
          1   -1    0    0  501    0  0.00000000000E+00 -0.00000000000E+00 -0.33924548851E+04  0.33924548851E+04  0.00000000000E+00 0. -1.
        -24    2    1    2    0    0 -0.10219351202E+04 -0.14980660020E+03 -0.23333429158E+04  0.25531487099E+04  0.85356691067E+02 0.  0.
        254    2    1    2    0    0  0.10219351202E+04  0.14980660020E+03 -0.45512275287E+03  0.14432953916E+04  0.89953958226E+03 0.  0.
         23    2    4    4    0    0 -0.14940426082E+03  0.21538275840E+02  0.49803005490E+01  0.17490637509E+03  0.88215113088E+02 0.  0.
         23    2    4    4    0    0  0.11713393810E+04  0.12826832436E+03 -0.46010305342E+03  0.12683890166E+04  0.92882555089E+02 0.  0.
          1    1    3    3  502    0 -0.31785150134E+03 -0.40849645370E+02 -0.82317360365E+03  0.88335329975E+03  0.00000000000E+00 0. -1.
         -2    1    3    3    0  502 -0.70408361884E+03 -0.10895695483E+03 -0.15101693122E+04  0.16697954101E+04  0.00000000000E+00 0.  1.
         11    1    5    5    0    0 -0.15957651259E+03  0.15895699859E+02 -0.36730423686E+01  0.16040831614E+03  0.00000000000E+00 0. -1.
        -11    1    5    5    0    0  0.10172251773E+02  0.56425759810E+01  0.86533429176E+01  0.14498058956E+02  0.00000000000E+00 0.  1.
          3    1    6    6  503    0  0.69396997447E+03  0.12180447314E+03 -0.27608275370E+03  0.75673796128E+03  0.00000000000E+00 0. -1.
         -3    1    6    6    0  503  0.47736940653E+03  0.64638512237E+01 -0.18402029972E+03  0.51165105528E+03  0.00000000000E+00 0.  1.
<mgrwt>
<rscale>  0 0.28628700E+04</rscale>
<asrwt>0</asrwt>
<pdfrwt beam="1">  1        1 0.52191615E+00 0.28628700E+04</pdfrwt>
<pdfrwt beam="2">  1       -2 0.92921416E-01 0.28628700E+04</pdfrwt>
<totfact> 0.22538173E-01</totfact>
</mgrwt>
</event>
<event>
12    4  0.4413110E-008  0.1247987E+04  0.7818608E-02  0.9071860E-01
          1   -1    0    0  501    0  0.00000000000E+00  0.00000000000E+00  0.34361031145E+04  0.34361031145E+04  0.00000000000E+00 0. -1.
         -2   -1    0    0    0  501 -0.00000000000E+00 -0.00000000000E+00 -0.11331675741E+03  0.11331675741E+03  0.00000000000E+00 0.  1.
        -24    2    1    2    0    0 -0.90966542278E+02  0.18064431793E+03  0.13839035546E+04  0.14008998300E+04  0.80149883258E+02 0.  0.
        254    2    1    2    0    0  0.90966542278E+02 -0.18064431793E+03  0.19388828025E+04  0.21485200419E+04  0.90330757076E+03 0.  0.
         23    2    4    4    0    0 -0.24047559964E+03 -0.39355491275E+03  0.68179203251E+03  0.82811894161E+03  0.90700730365E+02 0.  0.
         23    2    4    4    0    0  0.33144214192E+03  0.21291059482E+03  0.12570907699E+04  0.13204011003E+04  0.89426209535E+02 0.  0.
          3    1    3    3  502    0 -0.37330010842E+02  0.10789061738E+03  0.10001617760E+04  0.10066565915E+04  0.00000000000E+00 0. -1.
         -4    1    3    3    0  502 -0.53636531436E+02  0.72753700548E+02  0.38374177864E+03  0.39424323852E+03  0.00000000000E+00 0.  1.
         11    1    5    5    0    0 -0.21266945481E+03 -0.37179471189E+03  0.65942831206E+03  0.78632391770E+03  0.00000000000E+00 0. -1.
        -11    1    5    5    0    0 -0.27806144824E+02 -0.21760200856E+02  0.22363720454E+02  0.41795023912E+02  0.00000000000E+00 0.  1.
          1    1    6    6  503    0  0.13715190459E+03  0.12813971306E+03  0.49547015569E+03  0.52983120537E+03  0.00000000000E+00 0. -1.
         -1    1    6    6    0  503  0.19429023733E+03  0.84770881761E+02  0.76162061425E+03  0.79056989493E+03  0.00000000000E+00 0.  1.
<mgrwt>
<rscale>  0 0.12479873E+04</rscale>
<asrwt>0</asrwt>
<pdfrwt beam="1">  1        1 0.52863117E+00 0.12479873E+04</pdfrwt>
<pdfrwt beam="2">  1       -2 0.17433350E-01 0.12479873E+04</pdfrwt>
<totfact> 0.67208958E+00</totfact>
</mgrwt>
</event>
<event>
12    4  0.4413110E-008  0.1356497E+04  0.7818608E-02  0.8985925E-01
          1   -1    0    0  501    0  0.00000000000E+00  0.00000000000E+00  0.12681039315E+04  0.12681039315E+04  0.00000000000E+00 0. -1.
         -2   -1    0    0    0  501 -0.00000000000E+00 -0.00000000000E+00 -0.36276271827E+03  0.36276271827E+03  0.00000000000E+00 0.  1.
        -24    2    1    2    0    0  0.14519808254E+03  0.74374149323E+02  0.67634074457E+03  0.70007957607E+03  0.77849937710E+02 0.  0.
        254    2    1    2    0    0 -0.14519808254E+03 -0.74374149323E+02  0.22900046867E+03  0.93078707372E+03  0.88730455013E+03 0.  0.
         23    2    4    4    0    0  0.15578091498E+03  0.37795583580E+02 -0.27139404438E+03  0.32874935587E+03  0.93408843555E+02 0.  0.
         23    2    4    4    0    0 -0.30097899751E+03 -0.11216973290E+03  0.50039451305E+03  0.60203771785E+03  0.94256772147E+02 0.  0.
          3    1    3    3  502    0  0.73792087498E+02  0.66058238596E+02  0.27362164827E+03  0.29099444920E+03  0.00000000000E+00 0. -1.
         -4    1    3    3    0  502  0.71405995040E+02  0.83159107266E+01  0.40271909630E+03  0.40908512687E+03  0.00000000000E+00 0.  1.
         11    1    5    5    0    0  0.98421830890E+02  0.26373390192E+02 -0.24348597023E+03  0.26394664272E+03  0.00000000000E+00 0.  1.
        -11    1    5    5    0    0  0.57359084087E+02  0.11422193388E+02 -0.27908074149E+02  0.64802713152E+02  0.00000000000E+00 0. -1.
          4    1    6    6  503    0 -0.56086591395E+02 -0.44587968312E+02  0.59263884858E+02  0.92983873338E+02  0.00000000000E+00 0. -1.
         -4    1    6    6    0  503 -0.24489240612E+03 -0.67581764591E+02  0.44113062819E+03  0.50905384451E+03  0.00000000000E+00 0.  1.
<mgrwt>
<rscale>  0 0.13564967E+04</rscale>
<asrwt>0</asrwt>
<pdfrwt beam="1">  1        1 0.19509291E+00 0.13564967E+04</pdfrwt>
<pdfrwt beam="2">  1       -2 0.55809650E-01 0.13564967E+04</pdfrwt>
<totfact> 0.24675809E+01</totfact>
</mgrwt>
</event>
<event>
12    4  0.4413110E-008  0.1866257E+04  0.7818608E-02  0.8671837E-01
         -2   -1    0    0    0  501 -0.00000000000E+00  0.00000000000E+00  0.65265578311E+03  0.65265578311E+03  0.00000000000E+00 0.  1.
          1   -1    0    0  501    0  0.00000000000E+00 -0.00000000000E+00 -0.13341318084E+04  0.13341318084E+04  0.00000000000E+00 0. -1.
        -24    2    1    2    0    0  0.37380829590E+03 -0.56192564906E+03 -0.50803218368E+03  0.84850153461E+03  0.79781435320E+02 0.  0.
        254    2    1    2    0    0 -0.37380829590E+03  0.56192564906E+03 -0.17344384158E+03  0.11382860569E+04  0.90006627752E+03 0.  0.
         23    2    4    4    0    0 -0.14505116823E+03  0.71676377725E+03  0.94035318961E+02  0.74277521390E+03  0.89901186761E+02 0.  0.
         23    2    4    4    0    0 -0.22875712767E+03 -0.15483812819E+03 -0.26747916054E+03  0.39551084298E+03  0.92623194653E+02 0.  0.
          3    1    3    3  502    0  0.26511972743E+03 -0.39246944031E+03 -0.30966165801E+03  0.56587195892E+03  0.00000000000E+00 0. -1.
         -4    1    3    3    0  502  0.10868856847E+03 -0.16945620876E+03 -0.19837052566E+03  0.28262957569E+03  0.00000000000E+00 0.  1.
         11    1    5    5    0    0  0.33302377614E+00  0.17296231935E+03  0.62881007600E+01  0.17307690496E+03  0.00000000000E+00 0. -1.
        -11    1    5    5    0    0 -0.14538419201E+03  0.54380145791E+03  0.87747218201E+02  0.56969830894E+03  0.00000000000E+00 0.  1.
          2    1    6    6  503    0 -0.22130923720E+03 -0.11828512384E+03 -0.25034556348E+03  0.35446022364E+03  0.00000000000E+00 0. -1.
         -2    1    6    6    0  503 -0.74478904687E+01 -0.36553004348E+02 -0.17133597063E+02  0.41050619333E+02  0.00000000000E+00 0.  1.
<mgrwt>
<rscale>  0 0.18662570E+04</rscale>
<asrwt>0</asrwt>
<pdfrwt beam="1">  1        1 0.20525105E+00 0.18662570E+04</pdfrwt>
<pdfrwt beam="2">  1       -2 0.10040858E+00 0.18662570E+04</pdfrwt>
<totfact> 0.57599228E+00</totfact>
</mgrwt>
</event>
<event>
12    4  0.4413110E-008  0.3065399E+04  0.7818608E-02  0.8225298E-01
          1   -1    0    0  501    0  0.00000000000E+00  0.00000000000E+00  0.10366514347E+04  0.10366514347E+04  0.00000000000E+00 0. -1.
         -2   -1    0    0    0  501 -0.00000000000E+00 -0.00000000000E+00 -0.22661121015E+04  0.22661121015E+04  0.00000000000E+00 0.  1.
        -24    2    1    2    0    0  0.11553735727E+04 -0.48234936899E+03 -0.12143785391E+04  0.17459524888E+04  0.78011862195E+02 0.  0.
        254    2    1    2    0    0 -0.11553735727E+04  0.48234936899E+03 -0.15082127642E+02  0.15568110473E+04  0.92514007605E+03 0.  0.
         23    2    4    4    0    0 -0.10601968568E+04  0.13924230406E+03  0.25212644410E+03  0.11024337134E+04  0.91578132347E+02 0.  0.
         23    2    4    4    0    0 -0.95176715938E+02  0.34310706493E+03 -0.26720857175E+03  0.45437733394E+03  0.90979533530E+02 0.  0.
          3    1    3    3  502    0  0.69559342975E+02 -0.26140500532E+02 -0.48548804300E+02  0.88762685641E+02  0.00000000000E+00 0. -1.
         -4    1    3    3    0  502  0.10858142297E+04 -0.45620886845E+03 -0.11658297348E+04  0.16571898032E+04  0.00000000000E+00 0.  1.
         11    1    5    5    0    0 -0.52005088505E+01  0.53278091831E+00  0.98096441688E+01  0.11115676611E+02  0.00000000000E+00 0. -1.
        -11    1    5    5    0    0 -0.10549963479E+04  0.13870952314E+03  0.24231679993E+03  0.10913180368E+04  0.00000000000E+00 0.  1.
          1    1    6    6  503    0 -0.91511704829E+02  0.20031292891E+03 -0.12699694940E+03  0.25422015413E+03  0.00000000000E+00 0. -1.
         -1    1    6    6    0  503 -0.36650111089E+01  0.14279413602E+03 -0.14021162234E+03  0.20015717981E+03  0.00000000000E+00 0.  1.
<mgrwt>
<rscale>  0 0.30653994E+04</rscale>
<asrwt>0</asrwt>
<pdfrwt beam="1">  1        1 0.15948484E+00 0.30653994E+04</pdfrwt>
<pdfrwt beam="2">  1       -2 0.34863262E+00 0.30653994E+04</pdfrwt>
<totfact> 0.16696826E-01</totfact>
</mgrwt>
</event>
<event>
12    4  0.4413110E-008  0.2354474E+04  0.7818608E-02  0.8456747E-01
         -2   -1    0    0    0  501 -0.00000000000E+00  0.00000000000E+00  0.19186137649E+04  0.19186137649E+04  0.00000000000E+00 0.  1.
          1   -1    0    0  501    0  0.00000000000E+00 -0.00000000000E+00 -0.72233749728E+03  0.72233749728E+03  0.00000000000E+00 0. -1.
        -24    2    1    2    0    0 -0.41831617089E+03  0.73282026818E+03 -0.12896585830E+03  0.85729636523E+03  0.79441179172E+02 0.  0.
        254    2    1    2    0    0  0.41831617089E+03 -0.73282026818E+03  0.13252421259E+04  0.17836548969E+04  0.84447861713E+03 0.  0.
         23    2    4    4    0    0  0.10851626048E+03 -0.81135900603E+03  0.11310961458E+04  0.13991829438E+04  0.90858151999E+02 0.  0.
         23    2    4    4    0    0  0.30979991041E+03  0.78538737849E+02  0.19414598010E+03  0.38447195311E+03  0.89340378908E+02 0.  0.
          3    1    3    3  502    0 -0.23218765114E+03  0.41819462103E+03 -0.33620636923E+02  0.47950828317E+03  0.00000000000E+00 0. -1.
         -4    1    3    3    0  502 -0.18612851975E+03  0.31462564715E+03 -0.95345221378E+02  0.37778808206E+03  0.00000000000E+00 0.  1.
         11    1    5    5    0    0  0.57229738531E+02 -0.39077389556E+03  0.46924462734E+03  0.61332699330E+03  0.00000000000E+00 0. -1.
        -11    1    5    5    0    0  0.51286521954E+02 -0.42058511047E+03  0.66185151847E+03  0.78585595053E+03  0.00000000000E+00 0.  1.
          3    1    6    6  503    0  0.58511662237E+02 -0.42179026184E+01  0.72554880020E+02  0.93303890246E+02  0.00000000000E+00 0. -1.
         -3    1    6    6    0  503  0.25128824817E+03  0.82756640468E+02  0.12159110008E+03  0.29116806286E+03  0.00000000000E+00 0.  1.
<mgrwt>
<rscale>  0 0.23544738E+04</rscale>
<asrwt>0</asrwt>
<pdfrwt beam="1">  1        1 0.11112885E+00 0.23544738E+04</pdfrwt>
<pdfrwt beam="2">  1       -2 0.29517135E+00 0.23544738E+04</pdfrwt>
<totfact> 0.69669420E-01</totfact>
</mgrwt>
</event>
<event>
12    4  0.4413110E-008  0.1484473E+04  0.7818608E-02  0.8894844E-01
         -2   -1    0    0    0  501 -0.00000000000E+00  0.00000000000E+00  0.42361071394E+03  0.42361071394E+03  0.00000000000E+00 0.  1.
          1   -1    0    0  501    0  0.00000000000E+00 -0.00000000000E+00 -0.13005228023E+04  0.13005228023E+04  0.00000000000E+00 0. -1.
        -24    2    1    2    0    0  0.95561838070E+02 -0.36377977716E+03 -0.59407866117E+03  0.70769444790E+03  0.80213370249E+02 0.  0.
        254    2    1    2    0    0 -0.95561838070E+02  0.36377977716E+03 -0.28283342718E+03  0.10164390683E+04  0.90093609148E+03 0.  0.
         23    2    4    4    0    0 -0.27512409913E+02  0.58782490561E+03  0.52319180853E+02  0.59755420865E+03  0.89658704232E+02 0.  0.
         23    2    4    4    0    0 -0.68049428157E+02 -0.22404512845E+03 -0.33515260803E+03  0.41888485967E+03  0.91160905760E+02 0.  0.
          1    1    3    3  502    0  0.84228088782E+02 -0.35768668426E+03 -0.58819108299E+03  0.69354371538E+03  0.00000000000E+00 0. -1.
         -2    1    3    3    0  502  0.11333749288E+02 -0.60930928972E+01 -0.58875781810E+01  0.14150732519E+02  0.00000000000E+00 0.  1.
         11    1    5    5    0    0 -0.41346736686E+02  0.37176226717E+03  0.69163107886E+02  0.38039488879E+03  0.00000000000E+00 0. -1.
        -11    1    5    5    0    0  0.13834326773E+02  0.21606263844E+03 -0.16843927033E+02  0.21715931986E+03  0.00000000000E+00 0.  1.
          2    1    6    6  503    0 -0.68991006461E+02 -0.21825686720E+03 -0.34093519628E+03  0.41064903155E+03  0.00000000000E+00 0. -1.
         -2    1    6    6    0  503  0.94157830452E+00 -0.57882612474E+01  0.57825882484E+01  0.82358281200E+01  0.00000000000E+00 0.  1.
<mgrwt>
<rscale>  0 0.14844735E+04</rscale>
<asrwt>0</asrwt>
<pdfrwt beam="1">  1        1 0.20008043E+00 0.14844735E+04</pdfrwt>
<pdfrwt beam="2">  1       -2 0.65170879E-01 0.14844735E+04</pdfrwt>
<totfact> 0.16669232E+01</totfact>
</mgrwt>
</event>
<event>
12    4  0.4413110E-008  0.2122898E+04  0.7818608E-02  0.8551223E-01
         -2   -1    0    0    0  501 -0.00000000000E+00  0.00000000000E+00  0.48631070537E+03  0.48631070537E+03  0.00000000000E+00 0.  1.
          1   -1    0    0  501    0  0.00000000000E+00 -0.00000000000E+00 -0.23167771606E+04  0.23167771606E+04  0.00000000000E+00 0. -1.
        -24    2    1    2    0    0  0.82659262622E+03  0.24746033424E+03 -0.96054952682E+03  0.12936529404E+04  0.79940915384E+02 0.  0.
        254    2    1    2    0    0 -0.82659262622E+03 -0.24746033424E+03 -0.86991692838E+03  0.15094349255E+04  0.88155904251E+03 0.  0.
         23    2    4    4    0    0 -0.94025956746E+03  0.32328952475E+01 -0.67094110768E+03  0.11585143275E+04  0.88853650281E+02 0.  0.
         23    2    4    4    0    0  0.11366694124E+03 -0.25069322948E+03 -0.19897582070E+03  0.35092059808E+03  0.88241827332E+02 0.  0.
          1    1    3    3  502    0  0.82101260848E+03  0.23742230619E+03 -0.94286562187E+03  0.12725669474E+04  0.00000000000E+00 0. -1.
         -2    1    3    3    0  502  0.55800177355E+01  0.10038028045E+02 -0.17683904950E+02  0.21085992963E+02  0.00000000000E+00 0.  1.
         11    1    5    5    0    0 -0.50221085645E+03  0.25417604758E+02 -0.31226594120E+03  0.59192213762E+03  0.00000000000E+00 0. -1.
        -11    1    5    5    0    0 -0.43804871101E+03 -0.22184709511E+02 -0.35867516648E+03  0.56659218985E+03  0.00000000000E+00 0.  1.
          1    1    6    6  503    0  0.34359124133E+02 -0.17038207448E+03 -0.98348971333E+02  0.19970758843E+03  0.00000000000E+00 0. -1.
         -1    1    6    6    0  503  0.79307817108E+02 -0.80311155009E+02 -0.10062684937E+03  0.15121300965E+03  0.00000000000E+00 0.  1.
<mgrwt>
<rscale>  0 0.21228976E+04</rscale>
<asrwt>0</asrwt>
<pdfrwt beam="1">  1        1 0.35642726E+00 0.21228976E+04</pdfrwt>
<pdfrwt beam="2">  1       -2 0.74817031E-01 0.21228976E+04</pdfrwt>
<totfact> 0.23466129E+00</totfact>
</mgrwt>
</event>
<event>
12    4  0.4413110E-008  0.3494941E+04  0.7818608E-02  0.8114990E-01
         -2   -1    0    0    0  501 -0.00000000000E+00  0.00000000000E+00  0.19446796324E+04  0.19446796324E+04  0.00000000000E+00 0.  1.
          1   -1    0    0  501    0  0.00000000000E+00 -0.00000000000E+00 -0.15702599696E+04  0.15702599696E+04  0.00000000000E+00 0. -1.
        -24    2    1    2    0    0  0.63848006114E+03 -0.69583309653E+03  0.15116482586E+04  0.17841895366E+04  0.80070955674E+02 0.  0.
        254    2    1    2    0    0 -0.63848006114E+03  0.69583309653E+03 -0.11372285959E+04  0.17307500654E+04  0.90020354528E+03 0.  0.
         23    2    4    4    0    0  0.11999344434E+03  0.49191549000E+02  0.59551040505E+02  0.17059381113E+03  0.93475594638E+02 0.  0.
         23    2    4    4    0    0 -0.75847350548E+03  0.64664154753E+03 -0.11967796364E+04  0.15601562543E+04  0.91535185602E+02 0.  0.
          1    1    3    3  502    0  0.17897059358E+03 -0.14627168886E+03  0.35087493364E+03  0.42016556187E+03  0.00000000000E+00 0. -1.
         -2    1    3    3    0  502  0.45950946756E+03 -0.54956140767E+03  0.11607733250E+04  0.13640239747E+04  0.00000000000E+00 0.  1.
         11    1    5    5    0    0  0.24082732968E+02  0.24614239700E+02 -0.23228667673E+02  0.41538052736E+02  0.00000000000E+00 0. -1.
        -11    1    5    5    0    0  0.95910711375E+02  0.24577309300E+02  0.82779708179E+02  0.12905575840E+03  0.00000000000E+00 0.  1.
          1    1    6    6  503    0 -0.36597426936E+03  0.35026019546E+03 -0.66223017028E+03  0.83376745486E+03  0.00000000000E+00 0. -1.
         -1    1    6    6    0  503 -0.39249923612E+03  0.29638135207E+03 -0.53454946608E+03  0.72638879940E+03  0.00000000000E+00 0.  1.
<mgrwt>
<rscale>  0 0.34949407E+04</rscale>
<asrwt>0</asrwt>
<pdfrwt beam="1">  1        1 0.24157846E+00 0.34949407E+04</pdfrwt>
<pdfrwt beam="2">  1       -2 0.29918148E+00 0.34949407E+04</pdfrwt>
<totfact> 0.13482695E-01</totfact>
</mgrwt>
</event>
<event>
12    4  0.4413110E-008  0.1753445E+04  0.7818608E-02  0.8731456E-01
         -2   -1    0    0    0  501 -0.00000000000E+00  0.00000000000E+00  0.61192572063E+03  0.61192572063E+03  0.00000000000E+00 0.  1.
          1   -1    0    0  501    0  0.00000000000E+00 -0.00000000000E+00 -0.12561035510E+04  0.12561035510E+04  0.00000000000E+00 0. -1.
        -24    2    1    2    0    0  0.50519445528E+03  0.38813699177E+03 -0.28025149803E+03  0.70077869886E+03  0.81719768727E+02 0.  0.
        254    2    1    2    0    0 -0.50519445528E+03 -0.38813699177E+03 -0.36392633231E+03  0.11672505727E+04  0.90783245271E+03 0.  0.
         23    2    4    4    0    0 -0.45127941932E+03 -0.16573594982E+03  0.21783812040E+03  0.53540335285E+03  0.89898744044E+02 0.  0.
         23    2    4    4    0    0 -0.53915035957E+02 -0.22240104195E+03 -0.58176445270E+03  0.63184721989E+03  0.91716826636E+02 0.  0.
          1    1    3    3  502    0  0.10171289190E+03  0.64491516783E+02 -0.21196182573E+02  0.12228632904E+03  0.00000000000E+00 0. -1.
         -2    1    3    3    0  502  0.40348156338E+03  0.32364547499E+03 -0.25905531545E+03  0.57849236982E+03  0.00000000000E+00 0.  1.
         11    1    5    5    0    0 -0.27228533968E+03 -0.14362833421E+03  0.15280225534E+03  0.34368144237E+03  0.00000000000E+00 0. -1.
        -11    1    5    5    0    0 -0.17899407965E+03 -0.22107615609E+02  0.65035865061E+02  0.19172191049E+03  0.00000000000E+00 0.  1.
          3    1    6    6  503    0 -0.56473971711E+02 -0.69976763197E+02 -0.27432814197E+03  0.28869012167E+03  0.00000000000E+00 0. -1.
         -3    1    6    6    0  503  0.25589357534E+01 -0.15242427875E+03 -0.30743631073E+03  0.34315709822E+03  0.00000000000E+00 0.  1.
<mgrwt>
<rscale>  0 0.17534447E+04</rscale>
<asrwt>0</asrwt>
<pdfrwt beam="1">  1        1 0.19324670E+00 0.17534447E+04</pdfrwt>
<pdfrwt beam="2">  1       -2 0.94142419E-01 0.17534447E+04</pdfrwt>
<totfact> 0.76956280E+00</totfact>
</mgrwt>
</event>
<event>
12    4  0.4413110E-008  0.2251516E+04  0.7818608E-02  0.8497287E-01
          1   -1    0    0  501    0  0.00000000000E+00  0.00000000000E+00  0.74317297440E+03  0.74317297440E+03  0.00000000000E+00 0. -1.
         -2   -1    0    0    0  501 -0.00000000000E+00 -0.00000000000E+00 -0.17052980874E+04  0.17052980874E+04  0.00000000000E+00 0.  1.
        -24    2    1    2    0    0 -0.15576559429E+03  0.61171749481E+03 -0.11707449848E+04  0.13325225537E+04  0.80692768620E+02 0.  0.
        254    2    1    2    0    0  0.15576559429E+03 -0.61171749481E+03  0.20861987178E+03  0.11159485081E+04  0.89630218565E+03 0.  0.
         23    2    4    4    0    0 -0.33105673005E+03 -0.18842208465E+03 -0.85845532006E+02  0.40091461781E+03  0.90893536159E+02 0.  0.
         23    2    4    4    0    0  0.48682232434E+03 -0.42329541016E+03  0.29446540379E+03  0.71503389029E+03  0.91589357968E+02 0.  0.
          1    1    3    3  502    0  0.10416032068E+01  0.85400300596E+02 -0.19414498638E+03  0.21210038193E+03  0.00000000000E+00 0. -1.
         -2    1    3    3    0  502 -0.15680719750E+03  0.52631719421E+03 -0.97659999839E+03  0.11204221718E+04  0.00000000000E+00 0.  1.
         11    1    5    5    0    0 -0.32228027763E+02 -0.44247891979E+02 -0.35708442349E+02  0.65357590019E+02  0.00000000000E+00 0.  1.
        -11    1    5    5    0    0 -0.29882870228E+03 -0.14417419267E+03 -0.50137089656E+02  0.33555702779E+03  0.00000000000E+00 0. -1.
          3    1    6    6  503    0  0.15092476207E+03 -0.14249526891E+03  0.49628447612E+02  0.21341548275E+03  0.00000000000E+00 0. -1.
         -3    1    6    6    0  503  0.33589756227E+03 -0.28080014126E+03  0.24483695618E+03  0.50161840753E+03  0.00000000000E+00 0.  1.
<mgrwt>
<rscale>  0 0.22515163E+04</rscale>
<asrwt>0</asrwt>
<pdfrwt beam="1">  1        1 0.11433430E+00 0.22515163E+04</pdfrwt>
<pdfrwt beam="2">  1       -2 0.26235355E+00 0.22515163E+04</pdfrwt>
<totfact> 0.10666050E+00</totfact>
</mgrwt>
</event>
<event>
12    4  0.4413110E-008  0.1568440E+04  0.7818608E-02  0.8840175E-01
          1   -1    0    0  501    0  0.00000000000E+00  0.00000000000E+00  0.81418944381E+03  0.81418944381E+03  0.00000000000E+00 0. -1.
         -2   -1    0    0    0  501 -0.00000000000E+00 -0.00000000000E+00 -0.75535364592E+03  0.75535364592E+03  0.00000000000E+00 0.  1.
        -24    2    1    2    0    0  0.15516184015E+03 -0.42327528969E+03  0.30100761137E+03  0.54901233284E+03  0.87016044556E+02 0.  0.
        254    2    1    2    0    0 -0.15516184015E+03  0.42327528969E+03 -0.24217181348E+03  0.10205307569E+04  0.88294884960E+03 0.  0.
         23    2    4    4    0    0  0.13637953696E+03  0.58224966596E+03 -0.29338291297E+03  0.67229665706E+03  0.91078042703E+02 0.  0.
         23    2    4    4    0    0 -0.29154137712E+03 -0.15897437627E+03  0.51211099496E+02  0.34823409983E+03  0.91516035166E+02 0.  0.
          3    1    3    3  502    0  0.91184467391E+02 -0.35075726918E+03  0.23562124561E+03  0.43227611588E+03  0.00000000000E+00 0. -1.
         -4    1    3    3    0  502  0.63977372764E+02 -0.72518020514E+02  0.65386365751E+02  0.11673621696E+03  0.00000000000E+00 0.  1.
         11    1    5    5    0    0  0.21593878636E+02  0.27851309533E+02 -0.36007945835E+02  0.50384156245E+02  0.00000000000E+00 0. -1.
        -11    1    5    5    0    0  0.11478565833E+03  0.55439835643E+03 -0.25737496714E+03  0.62191250082E+03  0.00000000000E+00 0.  1.
          4    1    6    6  503    0 -0.19114198669E+02 -0.33029458664E+02  0.27756040733E+02  0.47187874794E+02  0.00000000000E+00 0. -1.
         -4    1    6    6    0  503 -0.27242717845E+03 -0.12594491760E+03  0.23455058763E+02  0.30104622504E+03  0.00000000000E+00 0.  1.
<mgrwt>
<rscale>  0 0.15684399E+04</rscale>
<asrwt>0</asrwt>
<pdfrwt beam="1">  1        1 0.12525991E+00 0.15684399E+04</pdfrwt>
<pdfrwt beam="2">  1       -2 0.11620825E+00 0.15684399E+04</pdfrwt>
<totfact> 0.10408730E+01</totfact>
</mgrwt>
</event>
<event>
12    4  0.4413110E-008  0.1322685E+04  0.7818608E-02  0.9011767E-01
         -4   -1    0    0    0  501 -0.00000000000E+00  0.00000000000E+00  0.72050285175E+03  0.72050285175E+03  0.00000000000E+00 0.  1.
          3   -1    0    0  501    0  0.00000000000E+00 -0.00000000000E+00 -0.60703937682E+03  0.60703937682E+03  0.00000000000E+00 0. -1.
        -24    2    1    2    0    0  0.23983073594E+03  0.76975569800E+02 -0.21082799884E+03  0.33830281047E+03  0.80971144447E+02 0.  0.
        254    2    1    2    0    0 -0.23983073594E+03 -0.76975569800E+02  0.32429147377E+03  0.98923941810E+03  0.89999202559E+03 0.  0.
         23    2    4    4    0    0 -0.61192516909E+02 -0.29454483745E+03  0.53829556145E+03  0.62345483120E+03  0.91829350847E+02 0.  0.
         23    2    4    4    0    0 -0.17863821903E+03  0.21756926765E+03 -0.21400408768E+03  0.36578458690E+03  0.93555411097E+02 0.  0.
          3    1    3    3  502    0  0.22986483438E+03  0.59322115476E+02 -0.16772112805E+03  0.29066704709E+03  0.00000000000E+00 0. -1.
         -4    1    3    3    0  502  0.99659015515E+01  0.17653454324E+02 -0.43106870796E+02  0.47635763384E+02  0.00000000000E+00 0.  1.
         11    1    5    5    0    0 -0.49026054298E+02 -0.29775844929E+03  0.52067247155E+03  0.60180019172E+03  0.00000000000E+00 0.  1.
        -11    1    5    5    0    0 -0.12166462612E+02  0.32136118368E+01  0.17623089899E+02  0.21654639482E+02  0.00000000000E+00 0. -1.
          3    1    6    6  503    0 -0.61374377204E+02  0.24030962782E+02 -0.76557665226E+02  0.10102166824E+03  0.00000000000E+00 0. -1.
         -3    1    6    6    0  503 -0.11726384182E+03  0.19353830487E+03 -0.13744642245E+03  0.26476291866E+03  0.00000000000E+00 0.  1.
<mgrwt>
<rscale>  0 0.13226845E+04</rscale>
<asrwt>0</asrwt>
<pdfrwt beam="1">  1        3 0.93390674E-01 0.13226845E+04</pdfrwt>
<pdfrwt beam="2">  1       -4 0.11084659E+00 0.13226845E+04</pdfrwt>
<totfact> 0.14775678E+00</totfact>
</mgrwt>
</event>
<event>
12    4  0.4413110E-008  0.9827897E+03  0.7818608E-02  0.9327625E-01
          1   -1    0    0  501    0  0.00000000000E+00  0.00000000000E+00  0.33613969975E+04  0.33613969975E+04  0.00000000000E+00 0. -1.
         -2   -1    0    0    0  501 -0.00000000000E+00 -0.00000000000E+00 -0.71835883068E+02  0.71835883068E+02  0.00000000000E+00 0.  1.
        -24    2    1    2    0    0 -0.16195079106E+02  0.13907808192E+03  0.80558725706E+03  0.82153711375E+03  0.79670616166E+02 0.  0.
        254    2    1    2    0    0  0.16195079106E+02 -0.13907808192E+03  0.24839738574E+04  0.26116957668E+04  0.79449585325E+03 0.  0.
         23    2    4    4    0    0 -0.29908961969E+03 -0.27242803075E+03  0.17207334572E+04  0.17699942848E+04  0.91019257653E+02 0.  0.
         23    2    4    4    0    0  0.31528469880E+03  0.13334994883E+03  0.76324040024E+03  0.84170148199E+03  0.93481688471E+02 0.  0.
          3    1    3    3  502    0 -0.42740171734E+02  0.12080088167E+03  0.61013373950E+03  0.62344426805E+03  0.00000000000E+00 0. -1.
         -4    1    3    3    0  502  0.26545092628E+02  0.18277200256E+02  0.19545351756E+03  0.19809284570E+03  0.00000000000E+00 0.  1.
         11    1    5    5    0    0 -0.60754063584E+02 -0.74537971978E+02  0.58134300932E+03  0.58924244585E+03  0.00000000000E+00 0.  1.
        -11    1    5    5    0    0 -0.23833555611E+03 -0.19789005878E+03  0.11393904478E+04  0.11807518390E+04  0.00000000000E+00 0. -1.
          1    1    6    6  503    0  0.17888253867E+02 -0.14086933272E+02  0.43204858218E+02  0.48837394372E+02  0.00000000000E+00 0. -1.
         -1    1    6    6    0  503  0.29739644493E+03  0.14743688210E+03  0.72003554202E+03  0.79286408762E+03  0.00000000000E+00 0.  1.
<mgrwt>
<rscale>  0 0.98278975E+03</rscale>
<asrwt>0</asrwt>
<pdfrwt beam="1">  1        1 0.51713788E+00 0.98278975E+03</pdfrwt>
<pdfrwt beam="2">  1       -2 0.11051677E-01 0.98278975E+03</pdfrwt>
<totfact> 0.17052734E+01</totfact>
</mgrwt>
</event>
<event>
12    4  0.4413110E-008  0.1677054E+04  0.7818608E-02  0.8774561E-01
          1   -1    0    0  501    0  0.00000000000E+00  0.00000000000E+00  0.35208225947E+03  0.35208225947E+03  0.00000000000E+00 0. -1.
         -2   -1    0    0    0  501 -0.00000000000E+00 -0.00000000000E+00 -0.19970540554E+04  0.19970540554E+04  0.00000000000E+00 0.  1.
        -24    2    1    2    0    0 -0.11759638605E+03  0.54932342846E+02 -0.13970469640E+04  0.14053493725E+04  0.80125943063E+02 0.  0.
        254    2    1    2    0    0  0.11759638605E+03 -0.54932342846E+02 -0.24792483195E+03  0.94378694243E+03  0.90134377354E+03 0.  0.
         23    2    4    4    0    0 -0.16039973109E+03  0.16238098780E+03  0.23480388856E+03  0.33911210122E+03  0.88139050230E+02 0.  0.
         23    2    4    4    0    0  0.27799611714E+03 -0.21731333065E+03 -0.48272872052E+03  0.60467484121E+03  0.89987338875E+02 0.  0.
          1    1    3    3  502    0 -0.34659237781E+02  0.58420654296E+02 -0.73104457151E+03  0.73419370819E+03  0.00000000000E+00 0. -1.
         -2    1    3    3    0  502 -0.82937148273E+02 -0.34883114500E+01 -0.66600239249E+03  0.67115566427E+03  0.00000000000E+00 0.  1.
         11    1    5    5    0    0 -0.36147388922E+02  0.44048427465E+02  0.11948418696E+03  0.13237586118E+03  0.00000000000E+00 0.  1.
        -11    1    5    5    0    0 -0.12425234216E+03  0.11833256033E+03  0.11531970160E+03  0.20673624004E+03  0.00000000000E+00 0. -1.
          4    1    6    6  503    0  0.16528816203E+03 -0.11815824110E+03 -0.20300099664E+03  0.28721237975E+03  0.00000000000E+00 0. -1.
         -4    1    6    6    0  503  0.11270795511E+03 -0.99155089549E+02 -0.27972772388E+03  0.31746246146E+03  0.00000000000E+00 0.  1.
<mgrwt>
<rscale>  0 0.16770537E+04</rscale>
<asrwt>0</asrwt>
<pdfrwt beam="1">  1        1 0.54166503E-01 0.16770537E+04</pdfrwt>
<pdfrwt beam="2">  1       -2 0.30723908E+00 0.16770537E+04</pdfrwt>
<totfact> 0.17040114E+00</totfact>
</mgrwt>
</event>
<event>
12    4  0.4413110E-008  0.1648702E+04  0.7818608E-02  0.8791175E-01
          1   -1    0    0  501    0  0.00000000000E+00  0.00000000000E+00  0.13665884698E+04  0.13665884698E+04  0.00000000000E+00 0. -1.
         -2   -1    0    0    0  501 -0.00000000000E+00 -0.00000000000E+00 -0.49726334755E+03  0.49726334755E+03  0.00000000000E+00 0.  1.
        -24    2    1    2    0    0 -0.28382799255E+03  0.33686811526E+03 -0.11286287329E+03  0.46354943903E+03  0.90008876339E+02 0.  0.
        254    2    1    2    0    0  0.28382799255E+03 -0.33686811526E+03  0.98218799558E+03  0.14003023784E+04  0.89560875148E+03 0.  0.
         23    2    4    4    0    0  0.34503411567E+03 -0.56683096480E+03  0.92243092122E+03  0.11400525975E+04  0.92169610108E+02 0.  0.
         23    2    4    4    0    0 -0.61206123119E+02  0.22996284954E+03  0.59757074359E+02  0.26024978084E+03  0.86775220071E+02 0.  0.
          3    1    3    3  502    0 -0.84249101870E+02  0.68399971957E+02  0.56126759270E+01  0.10866448114E+03  0.00000000000E+00 0. -1.
         -4    1    3    3    0  502 -0.19957889068E+03  0.26846814330E+03 -0.11847554922E+03  0.35488495789E+03  0.00000000000E+00 0.  1.
         11    1    5    5    0    0  0.16127203176E+03 -0.34960910414E+03  0.51042427562E+03  0.63934977521E+03  0.00000000000E+00 0.  1.
        -11    1    5    5    0    0  0.18376208392E+03 -0.21722186066E+03  0.41200664560E+03  0.50070282230E+03  0.00000000000E+00 0. -1.
          3    1    6    6  503    0 -0.20621268869E+02  0.11489010440E+02 -0.12337700050E+02  0.26635557685E+02  0.00000000000E+00 0. -1.
         -3    1    6    6    0  503 -0.40584854250E+02  0.21847383910E+03  0.72094774410E+02  0.23361422316E+03  0.00000000000E+00 0.  1.
<mgrwt>
<rscale>  0 0.16487017E+04</rscale>
<asrwt>0</asrwt>
<pdfrwt beam="1">  1        1 0.21024438E+00 0.16487017E+04</pdfrwt>
<pdfrwt beam="2">  1       -2 0.76502054E-01 0.16487017E+04</pdfrwt>
<totfact> 0.10390976E+01</totfact>
</mgrwt>
</event>
<event>
12    4  0.4413110E-008  0.1574773E+04  0.7818608E-02  0.8836197E-01
          1   -1    0    0  501    0  0.00000000000E+00  0.00000000000E+00  0.43638080314E+03  0.43638080314E+03  0.00000000000E+00 0. -1.
         -2   -1    0    0    0  501 -0.00000000000E+00 -0.00000000000E+00 -0.14207264422E+04  0.14207264422E+04  0.00000000000E+00 0.  1.
        -24    2    1    2    0    0 -0.28972828043E+03  0.15595205232E+03  0.14604297879E+03  0.37118008251E+03  0.90457630401E+02 0.  0.
        254    2    1    2    0    0  0.28972828043E+03 -0.15595205232E+03 -0.11303886179E+04  0.14859271629E+04  0.90660773591E+03 0.  0.
         23    2    4    4    0    0  0.14523790996E+03 -0.39384018726E+03 -0.13875747890E+03  0.45184540345E+03  0.93308558477E+02 0.  0.
         23    2    4    4    0    0  0.14449037047E+03  0.23788813493E+03 -0.99163113896E+03  0.10340817594E+04  0.92328421756E+02 0.  0.
          1    1    3    3  502    0 -0.27610096558E+03  0.16679986296E+03  0.13097778901E+03  0.34815099984E+03  0.00000000000E+00 0. -1.
         -2    1    3    3    0  502 -0.13627314847E+02 -0.10847810636E+02  0.15065189780E+02  0.23029082670E+02  0.00000000000E+00 0.  1.
         11    1    5    5    0    0  0.48219180508E+02 -0.23895300917E+03 -0.50752763788E+02  0.24899693370E+03  0.00000000000E+00 0. -1.
        -11    1    5    5    0    0  0.97018729448E+02 -0.15488717809E+03 -0.88004715113E+02  0.20284846975E+03  0.00000000000E+00 0.  1.
          4    1    6    6  503    0  0.10611790224E+03  0.15862173542E+03 -0.51155240472E+03  0.54599242385E+03  0.00000000000E+00 0. -1.
         -4    1    6    6    0  503  0.38372468236E+02  0.79266399515E+02 -0.48007873424E+03  0.48808933556E+03  0.00000000000E+00 0.  1.
<mgrwt>
<rscale>  0 0.15747733E+04</rscale>
<asrwt>0</asrwt>
<pdfrwt beam="1">  1        1 0.67135509E-01 0.15747733E+04</pdfrwt>
<pdfrwt beam="2">  1       -2 0.21857330E+00 0.15747733E+04</pdfrwt>
<totfact> 0.45259841E+00</totfact>
</mgrwt>
</event>
<event>
12    4  0.4413110E-008  0.1035356E+04  0.7818608E-02  0.9270595E-01
          1   -1    0    0  501    0  0.00000000000E+00  0.00000000000E+00  0.80318631950E+03  0.80318631950E+03  0.00000000000E+00 0. -1.
         -2   -1    0    0    0  501 -0.00000000000E+00 -0.00000000000E+00 -0.33365944792E+03  0.33365944792E+03  0.00000000000E+00 0.  1.
        -24    2    1    2    0    0 -0.46016163785E+02 -0.10666272203E+03  0.70094726191E+02  0.15824754570E+03  0.81453001662E+02 0.  0.
        254    2    1    2    0    0  0.46016163785E+02  0.10666272203E+03  0.39943214539E+03  0.97859822172E+03  0.88578440785E+03 0.  0.
         23    2    4    4    0    0  0.20386850972E+03  0.24701455959E+03  0.59215327863E+03  0.67885038916E+03  0.87256997185E+02 0.  0.
         23    2    4    4    0    0 -0.15785234594E+03 -0.14035183756E+03 -0.19272113324E+03  0.29974783257E+03  0.89951801012E+02 0.  0.
          3    1    3    3  502    0 -0.62751700844E+02 -0.58860965765E+02  0.64010320920E+02  0.10723670283E+03  0.00000000000E+00 0. -1.
         -4    1    3    3    0  502  0.16735537059E+02 -0.47801756268E+02  0.60844052711E+01  0.51010842871E+02  0.00000000000E+00 0.  1.
         11    1    5    5    0    0  0.17728000948E+03  0.24778370220E+03  0.53172116864E+03  0.61282327470E+03  0.00000000000E+00 0.  1.
        -11    1    5    5    0    0  0.26588500242E+02 -0.76914260210E+00  0.60432109988E+02  0.66027114454E+02  0.00000000000E+00 0. -1.
          1    1    6    6  503    0 -0.97074295852E+01  0.12977313090E+02 -0.16684546310E+02  0.23259813623E+02  0.00000000000E+00 0. -1.
         -1    1    6    6    0  503 -0.14814491635E+03 -0.15332915065E+03 -0.17603658693E+03  0.27648801894E+03  0.00000000000E+00 0.  1.
<mgrwt>
<rscale>  0 0.10353564E+04</rscale>
<asrwt>0</asrwt>
<pdfrwt beam="1">  1        1 0.12356713E+00 0.10353564E+04</pdfrwt>
<pdfrwt beam="2">  1       -2 0.51332223E-01 0.10353564E+04</pdfrwt>
<totfact> 0.69060769E+01</totfact>
</mgrwt>
</event>
<event>
12    4  0.4413110E-008  0.2431612E+04  0.7818608E-02  0.8427762E-01
         -2   -1    0    0    0  501 -0.00000000000E+00  0.00000000000E+00  0.98154146326E+03  0.98154146326E+03  0.00000000000E+00 0.  1.
          1   -1    0    0  501    0  0.00000000000E+00 -0.00000000000E+00 -0.15059823976E+04  0.15059823976E+04  0.00000000000E+00 0. -1.
        -24    2    1    2    0    0  0.10316614814E+04  0.10251345748E+02 -0.53994122376E+02  0.10362839407E+04  0.80861228710E+02 0.  0.
        254    2    1    2    0    0 -0.10316614814E+04 -0.10251345748E+02 -0.47044681198E+03  0.14512399201E+04  0.90572987181E+03 0.  0.
         23    2    4    4    0    0  0.38800152321E+02  0.24841788645E+03 -0.99897476835E+02  0.28557133020E+03  0.91403395049E+02 0.  0.
         23    2    4    4    0    0 -0.10704616337E+04 -0.25866923220E+03 -0.37054933514E+03  0.11656685899E+04  0.93158847735E+02 0.  0.
          3    1    3    3  502    0  0.49821850182E+03 -0.34889971787E+02 -0.32817458220E+02  0.50051570530E+03  0.00000000000E+00 0. -1.
         -4    1    3    3    0  502  0.53344297956E+03  0.45141317535E+02 -0.21176664156E+02  0.53576823543E+03  0.00000000000E+00 0.  1.
         11    1    5    5    0    0  0.41780543440E+02  0.66471964815E+02 -0.61163048224E+02  0.99524139707E+02  0.00000000000E+00 0.  1.
        -11    1    5    5    0    0 -0.29803911189E+01  0.18194592163E+03 -0.38734428611E+02  0.18604719049E+03  0.00000000000E+00 0. -1.
          2    1    6    6  503    0 -0.88706163838E+03 -0.24330775082E+03 -0.32986097915E+03  0.97718231536E+03  0.00000000000E+00 0. -1.
         -2    1    6    6    0  503 -0.18339999532E+03 -0.15361481375E+02 -0.40688355989E+02  0.18848627458E+03  0.00000000000E+00 0.  1.
<mgrwt>
<rscale>  0 0.24316119E+04</rscale>
<asrwt>0</asrwt>
<pdfrwt beam="1">  1        1 0.23168960E+00 0.24316119E+04</pdfrwt>
<pdfrwt beam="2">  1       -2 0.15100638E+00 0.24316119E+04</pdfrwt>
<totfact> 0.14966030E+00</totfact>
</mgrwt>
</event>
<event>
12    4  0.4413110E-008  0.2402113E+04  0.7818608E-02  0.8438713E-01
          1   -1    0    0  501    0  0.00000000000E+00  0.00000000000E+00  0.13691858686E+04  0.13691858686E+04  0.00000000000E+00 0. -1.
         -2   -1    0    0    0  501 -0.00000000000E+00 -0.00000000000E+00 -0.10535726438E+04  0.10535726438E+04  0.00000000000E+00 0.  1.
        -24    2    1    2    0    0 -0.15358877150E+03 -0.73367371032E+02 -0.89399041177E+03  0.91352128160E+03  0.79561257773E+02 0.  0.
        254    2    1    2    0    0  0.15358877150E+03  0.73367371032E+02  0.12096036366E+04  0.15092372308E+04  0.88638805231E+03 0.  0.
         23    2    4    4    0    0  0.25513624337E+03 -0.28085914021E+03  0.21723208126E+03  0.44673681654E+03  0.91693221150E+02 0.  0.
         23    2    4    4    0    0 -0.10154747187E+03  0.35422651124E+03  0.99237155532E+03  0.10625004142E+04  0.91200417382E+02 0.  0.
          1    1    3    3  502    0 -0.39950430463E+02 -0.55548409758E+02 -0.43436126098E+03  0.43971737260E+03  0.00000000000E+00 0. -1.
         -4    1    3    3    0  502 -0.11363834104E+03 -0.17818961274E+02 -0.45962915078E+03  0.47380390900E+03  0.00000000000E+00 0.  1.
         11    1    5    5    0    0  0.94166053781E+02 -0.52607570029E+02  0.35678166409E+02  0.11361220739E+03  0.00000000000E+00 0.  1.
        -11    1    5    5    0    0  0.16097018959E+03 -0.22825157018E+03  0.18155391485E+03  0.33312460916E+03  0.00000000000E+00 0. -1.
          3    1    6    6  503    0 -0.10454504921E+03  0.26382653491E+03  0.66862914846E+03  0.72636013520E+03  0.00000000000E+00 0. -1.
         -3    1    6    6    0  503  0.29975773373E+01  0.90399976339E+02  0.32374240686E+03  0.33614027904E+03  0.00000000000E+00 0.  1.
<mgrwt>
<rscale>  0 0.24021130E+04</rscale>
<asrwt>0</asrwt>
<pdfrwt beam="1">  1        1 0.21064398E+00 0.24021130E+04</pdfrwt>
<pdfrwt beam="2">  1       -2 0.16208810E+00 0.24021130E+04</pdfrwt>
<totfact> 0.15443704E+00</totfact>
</mgrwt>
</event>
<event>
12    4  0.4413110E-008  0.2081691E+04  0.7818608E-02  0.8569352E-01
         -2   -1    0    0    0  501 -0.00000000000E+00  0.00000000000E+00  0.11622970727E+04  0.11622970727E+04  0.00000000000E+00 0.  1.
          1   -1    0    0  501    0  0.00000000000E+00 -0.00000000000E+00 -0.93208474182E+03  0.93208474182E+03  0.00000000000E+00 0. -1.
        -24    2    1    2    0    0  0.96730735522E+02  0.51783552640E+03  0.74539768565E+03  0.91641397303E+03  0.81770365081E+02 0.  0.
        254    2    1    2    0    0 -0.96730735522E+02 -0.51783552640E+03 -0.51518535482E+03  0.11779678414E+04  0.91906573109E+03 0.  0.
         23    2    4    4    0    0  0.12056044396E+03  0.17306389730E+03  0.73039969591E+02  0.24140864537E+03  0.91963926111E+02 0.  0.
         23    2    4    4    0    0 -0.21729117949E+03 -0.69089942369E+03 -0.58822532441E+03  0.93655919607E+03  0.81096394053E+02 0.  0.
          3    1    3    3  502    0 -0.39186727173E+01  0.47054001742E+01  0.28039073896E+02  0.28699938181E+02  0.00000000000E+00 0. -1.
         -4    1    3    3    0  502  0.10064940824E+03  0.51313012622E+03  0.71735861175E+03  0.88771403485E+03  0.00000000000E+00 0.  1.
         11    1    5    5    0    0  0.65659559922E+02  0.51258732247E+02 -0.10312009391E+02  0.83934337303E+02  0.00000000000E+00 0.  1.
        -11    1    5    5    0    0  0.54900884042E+02  0.12180516505E+03  0.83351978983E+02  0.15747430807E+03  0.00000000000E+00 0. -1.
          1    1    6    6  503    0 -0.12585601332E+03 -0.47806765659E+03 -0.43792252184E+03  0.66042755508E+03  0.00000000000E+00 0. -1.
         -1    1    6    6    0  503 -0.91435166168E+02 -0.21283176710E+03 -0.15030280257E+03  0.27613164100E+03  0.00000000000E+00 0.  1.
<mgrwt>
<rscale>  0 0.20816910E+04</rscale>
<asrwt>0</asrwt>
<pdfrwt beam="1">  1        1 0.14339765E+00 0.20816910E+04</pdfrwt>
<pdfrwt beam="2">  1       -2 0.17881493E+00 0.20816910E+04</pdfrwt>
<totfact> 0.25557818E+00</totfact>
</mgrwt>
</event>
<event>
12    4  0.4413110E-008  0.2009910E+04  0.7818608E-02  0.8602002E-01
          1   -1    0    0  501    0  0.00000000000E+00  0.00000000000E+00  0.19746479348E+04  0.19746479348E+04  0.00000000000E+00 0. -1.
         -4   -1    0    0    0  501 -0.00000000000E+00 -0.00000000000E+00 -0.51145022512E+03  0.51145022512E+03  0.00000000000E+00 0.  1.
        -24    2    1    2    0    0 -0.73255237372E+03 -0.98115302724E+02  0.22616709592E+03  0.77715812546E+03  0.81016071365E+02 0.  0.
        254    2    1    2    0    0  0.73255237372E+03  0.98115302724E+02  0.12370306137E+04  0.17089400344E+04  0.91867932875E+03 0.  0.
         23    2    4    4    0    0 -0.78214996550E+02 -0.13683971875E+03 -0.28920704322E+02  0.18456143743E+03  0.91563217154E+02 0.  0.
         23    2    4    4    0    0  0.81076737027E+03  0.23495502147E+03  0.12659513181E+04  0.15243785970E+04  0.92465001311E+02 0.  0.
          1    1    3    3  502    0 -0.33293969463E+03 -0.20383561946E+02  0.13579569749E+03  0.36014552797E+03  0.00000000000E+00 0. -1.
         -2    1    3    3    0  502 -0.39961267909E+03 -0.77731740778E+02  0.90371398437E+02  0.41701259750E+03  0.00000000000E+00 0.  1.
         11    1    5    5    0    0 -0.70937670610E+02 -0.50075366449E+02  0.13217608566E+02  0.87831660651E+02  0.00000000000E+00 0.  1.
        -11    1    5    5    0    0 -0.72773259401E+01 -0.86764352300E+02 -0.42138312888E+02  0.96729776780E+02  0.00000000000E+00 0. -1.
          2    1    6    6  503    0  0.45769064748E+02 -0.20816608119E+01  0.98417351272E+02  0.10855927243E+03  0.00000000000E+00 0. -1.
         -2    1    6    6    0  503  0.76499830553E+03  0.23703668228E+03  0.11675339668E+04  0.14158193246E+04  0.00000000000E+00 0.  1.
<mgrwt>
<rscale>  0 0.20099096E+04</rscale>
<asrwt>0</asrwt>
<pdfrwt beam="1">  1        1 0.30379198E+00 0.20099096E+04</pdfrwt>
<pdfrwt beam="2">  1       -4 0.78684651E-01 0.20099096E+04</pdfrwt>
<totfact> 0.20391460E+00</totfact>
</mgrwt>
</event>
<event>
12    4  0.4413110E-008  0.1238758E+04  0.7818608E-02  0.9079593E-01
          1   -1    0    0  501    0  0.00000000000E+00  0.00000000000E+00  0.23302997998E+03  0.23302997998E+03  0.00000000000E+00 0. -1.
         -2   -1    0    0    0  501 -0.00000000000E+00 -0.00000000000E+00 -0.16462690972E+04  0.16462690972E+04  0.00000000000E+00 0.  1.
        -24    2    1    2    0    0 -0.23346889793E+03  0.10938396704E+03 -0.48894391353E+03  0.55855229356E+03  0.80261669018E+02 0.  0.
        254    2    1    2    0    0  0.23346889793E+03 -0.10938396704E+03 -0.92429520369E+03  0.13207467836E+04  0.90751190864E+03 0.  0.
         23    2    4    4    0    0  0.64633860137E+01  0.34674330669E+03 -0.62976921700E+03  0.72506523726E+03  0.94008699151E+02 0.  0.
         23    2    4    4    0    0  0.22700551192E+03 -0.45612727373E+03 -0.29452598670E+03  0.59568154636E+03  0.92235327019E+02 0.  0.
          3    1    3    3  502    0 -0.47858447653E+02  0.62541589822E+01 -0.43022442203E+02  0.64656600973E+02  0.00000000000E+00 0. -1.
         -4    1    3    3    0  502 -0.18561045028E+03  0.10312980806E+03 -0.44592147133E+03  0.49389569258E+03  0.00000000000E+00 0.  1.
         11    1    5    5    0    0 -0.78816315017E+00  0.25840028714E+02 -0.11926355414E+03  0.12203328903E+03  0.00000000000E+00 0. -1.
        -11    1    5    5    0    0  0.72515491639E+01  0.32090327798E+03 -0.51050566286E+03  0.60303194823E+03  0.00000000000E+00 0.  1.
          4    1    6    6  503    0  0.23439197308E+02 -0.10183091326E+03 -0.29252680004E+02  0.10851106005E+03  0.00000000000E+00 0. -1.
         -4    1    6    6    0  503  0.20356631461E+03 -0.35429636047E+03 -0.26527330669E+03  0.48717048631E+03  0.00000000000E+00 0.  1.
<mgrwt>
<rscale>  0 0.12387575E+04</rscale>
<asrwt>0</asrwt>
<pdfrwt beam="1">  1        1 0.35850766E-01 0.12387575E+04</pdfrwt>
<pdfrwt beam="2">  1       -2 0.25327217E+00 0.12387575E+04</pdfrwt>
<totfact> 0.64531250E+00</totfact>
</mgrwt>
</event>
<event>
12    4  0.4413110E-008  0.1050437E+04  0.7818608E-02  0.9254893E-01
         -2   -1    0    0    0  501 -0.00000000000E+00  0.00000000000E+00  0.27181221887E+03  0.27181221887E+03  0.00000000000E+00 0.  1.
          1   -1    0    0  501    0  0.00000000000E+00 -0.00000000000E+00 -0.10148707047E+04  0.10148707047E+04  0.00000000000E+00 0. -1.
        -24    2    1    2    0    0 -0.45272506405E+02 -0.73569825767E+01 -0.22218119812E+03  0.24039087519E+03  0.79495679422E+02 0.  0.
        254    2    1    2    0    0  0.45272506405E+02  0.73569825767E+01 -0.52087728768E+03  0.10462920484E+04  0.90626164909E+03 0.  0.
         23    2    4    4    0    0 -0.30527904870E+03  0.25716748679E+03 -0.43641828660E+03  0.59862497029E+03  0.92523079987E+02 0.  0.
         23    2    4    4    0    0  0.35055155511E+03 -0.24981050422E+03 -0.84459001074E+02  0.44766707807E+03  0.89335374393E+02 0.  0.
          1    1    3    3  502    0 -0.61556658038E+02 -0.79895273390E+01 -0.10418592757E+03  0.12127556308E+03  0.00000000000E+00 0. -1.
         -2    1    3    3    0  502  0.16284151633E+02  0.63254476229E+00 -0.11799527055E+03  0.11911531211E+03  0.00000000000E+00 0.  1.
         11    1    5    5    0    0 -0.29181727037E+02  0.70186321633E+02 -0.72600157213E+02  0.10511172991E+03  0.00000000000E+00 0.  1.
        -11    1    5    5    0    0 -0.27609732167E+03  0.18698116516E+03 -0.36381812939E+03  0.49351324038E+03  0.00000000000E+00 0. -1.
          4    1    6    6  503    0 -0.44191143276E+01  0.13646427013E+01 -0.21376119734E+01  0.50951159056E+01  0.00000000000E+00 0.  1.
         -4    1    6    6    0  503  0.35497066944E+03 -0.25117514692E+03 -0.82321389101E+02  0.44257196216E+03  0.00000000000E+00 0. -1.
<mgrwt>
<rscale>  0 0.10504366E+04</rscale>
<asrwt>0</asrwt>
<pdfrwt beam="1">  1        1 0.15613395E+00 0.10504366E+04</pdfrwt>
<pdfrwt beam="2">  1       -2 0.41817265E-01 0.10504366E+04</pdfrwt>
<totfact> 0.69934831E+01</totfact>
</mgrwt>
</event>
<event>
12    4  0.4413110E-008  0.1617412E+04  0.7818608E-02  0.8809922E-01
          1   -1    0    0  501    0  0.00000000000E+00  0.00000000000E+00  0.39860741427E+03  0.39860741427E+03  0.00000000000E+00 0. -1.
         -2   -1    0    0    0  501 -0.00000000000E+00 -0.00000000000E+00 -0.16407251768E+04  0.16407251768E+04  0.00000000000E+00 0.  1.
        -24    2    1    2    0    0 -0.32468914642E+03 -0.13555592779E+03 -0.10203274147E+04  0.10823003582E+04  0.80669578210E+02 0.  0.
        254    2    1    2    0    0  0.32468914642E+03  0.13555592779E+03 -0.22179034784E+03  0.95703223286E+03  0.86192881666E+03 0.  0.
         23    2    4    4    0    0 -0.19183324103E+03 -0.19300163049E+03  0.29480049436E+02  0.28901807128E+03  0.92804905442E+02 0.  0.
         23    2    4    4    0    0  0.51652238745E+03  0.32855755828E+03 -0.25127039727E+03  0.66801416159E+03  0.91436653980E+02 0.  0.
          3    1    3    3  502    0 -0.64662223281E+02  0.53547284653E+01 -0.16606706789E+03  0.17829230851E+03  0.00000000000E+00 0. -1.
         -2    1    3    3    0  502 -0.26002692314E+03 -0.14091065625E+03 -0.85426034682E+03  0.90400804972E+03  0.00000000000E+00 0.  1.
         11    1    5    5    0    0 -0.19810501920E+03 -0.17947017424E+03  0.14233149249E+02  0.26768960497E+03  0.00000000000E+00 0.  1.
        -11    1    5    5    0    0  0.62717781659E+01 -0.13531456252E+02  0.15246900188E+02  0.21328466307E+02  0.00000000000E+00 0. -1.
          2    1    6    6  503    0  0.30994650279E+03  0.14718764122E+03 -0.15773687260E+03  0.37763998371E+03  0.00000000000E+00 0. -1.
         -2    1    6    6    0  503  0.20657588466E+03  0.18136991706E+03 -0.93533524675E+02  0.29037417787E+03  0.00000000000E+00 0.  1.
<mgrwt>
<rscale>  0 0.16174118E+04</rscale>
<asrwt>0</asrwt>
<pdfrwt beam="1">  1        1 0.61324218E-01 0.16174118E+04</pdfrwt>
<pdfrwt beam="2">  1       -2 0.25241925E+00 0.16174118E+04</pdfrwt>
<totfact> 0.31365541E+00</totfact>
</mgrwt>
</event>
<event>
12    4  0.4413110E-008  0.1649238E+04  0.7818608E-02  0.8790857E-01
         -2   -1    0    0    0  501 -0.00000000000E+00  0.00000000000E+00  0.12911572547E+04  0.12911572547E+04  0.00000000000E+00 0.  1.
          1   -1    0    0  501    0  0.00000000000E+00 -0.00000000000E+00 -0.52665680358E+03  0.52665680358E+03  0.00000000000E+00 0. -1.
        -24    2    1    2    0    0  0.25249410530E+03  0.26566420320E+03 -0.22057630923E+03  0.43579030140E+03  0.83237831108E+02 0.  0.
        254    2    1    2    0    0 -0.25249410530E+03 -0.26566420320E+03  0.98507676033E+03  0.13820237569E+04  0.89737545027E+03 0.  0.
         23    2    4    4    0    0  0.31783235877E+03 -0.47991767942E+02  0.22766540444E+03  0.40431403865E+03  0.91201356309E+02 0.  0.
         23    2    4    4    0    0 -0.57032646407E+03 -0.21767243526E+03  0.75741135589E+03  0.97770971823E+03  0.97932458294E+02 0.  0.
          3    1    3    3  502    0  0.94175856934E+02  0.76879064954E+02 -0.32537379933E+02  0.12584976659E+03  0.00000000000E+00 0. -1.
         -4    1    3    3    0  502  0.15831824837E+03  0.18878513825E+03 -0.18803892929E+03  0.30994053481E+03  0.00000000000E+00 0.  1.
         11    1    5    5    0    0  0.19863282705E+03 -0.62290332091E+02  0.17980171466E+03  0.27507043107E+03  0.00000000000E+00 0.  1.
        -11    1    5    5    0    0  0.11919953172E+03  0.14298564149E+02  0.47863689782E+02  0.12924360758E+03  0.00000000000E+00 0. -1.
          4    1    6    6  503    0 -0.54523014473E+02 -0.36733168352E+02  0.44623427075E+02  0.79456497584E+02  0.00000000000E+00 0. -1.
         -4    1    6    6    0  503 -0.51580344960E+03 -0.18093926691E+03  0.71278792882E+03  0.89825322064E+03  0.00000000000E+00 0.  1.
<mgrwt>
<rscale>  0 0.16492383E+04</rscale>
<asrwt>0</asrwt>
<pdfrwt beam="1">  1        1 0.81024124E-01 0.16492383E+04</pdfrwt>
<pdfrwt beam="2">  1       -2 0.19863958E+00 0.16492383E+04</pdfrwt>
<totfact> 0.46764409E+00</totfact>
</mgrwt>
</event>
<event>
12    4  0.4413110E-008  0.1608553E+04  0.7818608E-02  0.8815311E-01
          1   -1    0    0  501    0  0.00000000000E+00  0.00000000000E+00  0.78684759566E+03  0.78684759566E+03  0.00000000000E+00 0. -1.
         -4   -1    0    0    0  501 -0.00000000000E+00 -0.00000000000E+00 -0.82209163000E+03  0.82209163000E+03  0.00000000000E+00 0.  1.
        -24    2    1    2    0    0  0.31775823984E+03 -0.22055700492E+03  0.37620045272E+03  0.54486244046E+03  0.75713981492E+02 0.  0.
        254    2    1    2    0    0 -0.31775823984E+03  0.22055700492E+03 -0.41144448706E+03  0.10640767852E+04  0.90186315340E+03 0.  0.
         23    2    4    4    0    0 -0.17577121730E+03 -0.34160041298E+03 -0.17021016561E+03  0.42955717797E+03  0.89227269864E+02 0.  0.
         23    2    4    4    0    0 -0.14198702254E+03  0.56215741789E+03 -0.24123432146E+03  0.63451960723E+03  0.90773658377E+02 0.  0.
          1    1    3    3  502    0  0.31699596370E+03 -0.21681842448E+03  0.37942241234E+03  0.53986853694E+03  0.00000000000E+00 0. -1.
         -2    1    3    3    0  502  0.76227613663E+00 -0.37385804382E+01 -0.32219596141E+01  0.49939035189E+01  0.00000000000E+00 0.  1.
         11    1    5    5    0    0 -0.11188992193E+02 -0.20660065451E+02  0.10967881199E+02  0.25929255075E+02  0.00000000000E+00 0. -1.
        -11    1    5    5    0    0 -0.16458222511E+03 -0.32094034753E+03 -0.18117804681E+03  0.40362792289E+03  0.00000000000E+00 0.  1.
          2    1    6    6  503    0 -0.43702656398E+02  0.24087117975E+03 -0.57049151098E+02  0.25136318953E+03  0.00000000000E+00 0. -1.
         -2    1    6    6    0  503 -0.98284366138E+02  0.32128623815E+03 -0.18418517036E+03  0.38315641771E+03  0.00000000000E+00 0.  1.
<mgrwt>
<rscale>  0 0.16085532E+04</rscale>
<asrwt>0</asrwt>
<pdfrwt beam="1">  1        1 0.12105348E+00 0.16085532E+04</pdfrwt>
<pdfrwt beam="2">  1       -4 0.12647563E+00 0.16085532E+04</pdfrwt>
<totfact> 0.48811945E+00</totfact>
</mgrwt>
</event>
<event>
12    4  0.4413110E-008  0.1622973E+04  0.7818608E-02  0.8806558E-01
          1   -1    0    0  501    0  0.00000000000E+00  0.00000000000E+00  0.62337354384E+03  0.62337354384E+03  0.00000000000E+00 0. -1.
         -2   -1    0    0    0  501 -0.00000000000E+00 -0.00000000000E+00 -0.10563657888E+04  0.10563657888E+04  0.00000000000E+00 0.  1.
        -24    2    1    2    0    0 -0.19215547835E+03  0.26105829925E+03  0.31775543079E+03  0.46095311621E+03  0.80212829904E+02 0.  0.
        254    2    1    2    0    0  0.19215547835E+03 -0.26105829925E+03 -0.75074767574E+03  0.12187862164E+04  0.90373812869E+03 0.  0.
         23    2    4    4    0    0  0.30044145396E+02  0.17085698261E+03 -0.72154959653E+03  0.74765433202E+03  0.90875853520E+02 0.  0.
         23    2    4    4    0    0  0.16211133295E+03 -0.43191528187E+03 -0.29198079211E+02  0.47113188441E+03  0.91004558649E+02 0.  0.
          3    1    3    3  502    0 -0.19838697375E+03  0.25447150170E+03  0.31616958888E+03  0.45174809956E+03  0.00000000000E+00 0. -1.
         -4    1    3    3    0  502  0.62314953990E+01  0.65867975538E+01  0.15858419141E+01  0.92050166485E+01  0.00000000000E+00 0.  1.
         11    1    5    5    0    0  0.33131202151E+02  0.19461543667E+02 -0.84042530015E+02  0.92409821389E+02  0.00000000000E+00 0. -1.
        -11    1    5    5    0    0 -0.30870567545E+01  0.15139543895E+03 -0.63750706651E+03  0.65524451063E+03  0.00000000000E+00 0.  1.
          4    1    6    6  503    0  0.37624215240E+02 -0.28193618565E+02  0.49499834206E+01  0.47275406249E+02  0.00000000000E+00 0. -1.
         -4    1    6    6    0  503  0.12448711771E+03 -0.40372166330E+03 -0.34148062632E+02  0.42385647816E+03  0.00000000000E+00 0.  1.
<mgrwt>
<rscale>  0 0.16229732E+04</rscale>
<asrwt>0</asrwt>
<pdfrwt beam="1">  1        1 0.95903622E-01 0.16229732E+04</pdfrwt>
<pdfrwt beam="2">  1       -2 0.16251781E+00 0.16229732E+04</pdfrwt>
<totfact> 0.65495563E+00</totfact>
</mgrwt>
</event>
<event>
12    4  0.4413110E-008  0.3806474E+04  0.7818608E-02  0.8044767E-01
         -2   -1    0    0    0  501 -0.00000000000E+00  0.00000000000E+00  0.92128382144E+03  0.92128382144E+03  0.00000000000E+00 0.  1.
          1   -1    0    0  501    0  0.00000000000E+00 -0.00000000000E+00 -0.39318082176E+04  0.39318082176E+04  0.00000000000E+00 0. -1.
        -24    2    1    2    0    0 -0.68437001115E+03  0.72162983501E+03  0.48254807727E+03  0.11082869319E+04  0.79594883805E+02 0.  0.
        254    2    1    2    0    0  0.68437001115E+03 -0.72162983501E+03 -0.34930724734E+04  0.37448051072E+04  0.91263248631E+03 0.  0.
         23    2    4    4    0    0  0.60563940250E+03 -0.49329115325E+03 -0.33665298732E+04  0.34572359113E+04  0.93922902138E+02 0.  0.
         23    2    4    4    0    0  0.78730608652E+02 -0.22833868176E+03 -0.12654260020E+03  0.28756919583E+03  0.91356173285E+02 0.  0.
          1    1    3    3  502    0 -0.31496584604E+02  0.28049177645E+02  0.39438217725E+02  0.57742222209E+02  0.00000000000E+00 0. -1.
         -2    1    3    3    0  502 -0.65287342655E+03  0.69358065737E+03  0.44310985954E+03  0.10505447097E+04  0.00000000000E+00 0.  1.
         11    1    5    5    0    0  0.12548125877E+03 -0.65401944343E+02 -0.51590092736E+03  0.53495488359E+03  0.00000000000E+00 0. -1.
        -11    1    5    5    0    0  0.48015814373E+03 -0.42788920891E+03 -0.28506289459E+04  0.29222810277E+04  0.00000000000E+00 0.  1.
          3    1    6    6  503    0  0.40419307571E+02 -0.21105332966E+03 -0.94658010964E+02  0.23481347369E+03  0.00000000000E+00 0. -1.
         -3    1    6    6    0  503  0.38311301081E+02 -0.17285352097E+02 -0.31884589236E+02  0.52755722139E+02  0.00000000000E+00 0.  1.
<mgrwt>
<rscale>  0 0.38064741E+04</rscale>
<asrwt>0</asrwt>
<pdfrwt beam="1">  1        1 0.60489357E+00 0.38064741E+04</pdfrwt>
<pdfrwt beam="2">  1       -2 0.14173597E+00 0.38064741E+04</pdfrwt>
<totfact> 0.26752812E-02</totfact>
</mgrwt>
</event>
<event>
12    4  0.4413110E-008  0.1404391E+04  0.7818608E-02  0.8950646E-01
         -2   -1    0    0    0  501 -0.00000000000E+00  0.00000000000E+00  0.75348476254E+03  0.75348476254E+03  0.00000000000E+00 0.  1.
          1   -1    0    0  501    0  0.00000000000E+00 -0.00000000000E+00 -0.65439786318E+03  0.65439786318E+03  0.00000000000E+00 0. -1.
        -24    2    1    2    0    0 -0.20139788695E+03  0.16826886636E+03 -0.28300976230E+03  0.39343906459E+03  0.76316785430E+02 0.  0.
        254    2    1    2    0    0  0.20139788695E+03 -0.16826886636E+03  0.38209666165E+03  0.10144435611E+04  0.90234270629E+03 0.  0.
         23    2    4    4    0    0  0.82341116639E+02  0.27174092483E+03 -0.12718348797E+03  0.32509675689E+03  0.94281875320E+02 0.  0.
         23    2    4    4    0    0  0.11905677031E+03 -0.44000979118E+03  0.50928014963E+03  0.68934680423E+03  0.89719645586E+02 0.  0.
          3    1    3    3  502    0 -0.15900893849E+03  0.16465290305E+03 -0.25413869144E+03  0.34202470012E+03  0.00000000000E+00 0. -1.
         -4    1    3    3    0  502 -0.42388948459E+02  0.36159633101E+01 -0.28871070856E+02  0.51414364477E+02  0.00000000000E+00 0.  1.
         11    1    5    5    0    0  0.26582891050E+02  0.31213413412E+02  0.10601309048E+02  0.42347550424E+02  0.00000000000E+00 0.  1.
        -11    1    5    5    0    0  0.55758225589E+02  0.24052751141E+03 -0.13778479702E+03  0.28274920647E+03  0.00000000000E+00 0. -1.
          4    1    6    6  503    0 -0.72869440183E+01 -0.72997593539E+02  0.54158934232E+02  0.91186283907E+02  0.00000000000E+00 0.  1.
         -4    1    6    6    0  503  0.12634371433E+03 -0.36701219764E+03  0.45512121540E+03  0.59816052032E+03  0.00000000000E+00 0. -1.
<mgrwt>
<rscale>  0 0.14043914E+04</rscale>
<asrwt>0</asrwt>
<pdfrwt beam="1">  1        1 0.10067659E+00 0.14043914E+04</pdfrwt>
<pdfrwt beam="2">  1       -2 0.11592073E+00 0.14043914E+04</pdfrwt>
<totfact> 0.14875036E+01</totfact>
</mgrwt>
</event>
<event>
12    4  0.4413110E-008  0.2581910E+04  0.7818608E-02  0.8374372E-01
         -2   -1    0    0    0  501 -0.00000000000E+00  0.00000000000E+00  0.67930341941E+03  0.67930341941E+03  0.00000000000E+00 0.  1.
          1   -1    0    0  501    0  0.00000000000E+00 -0.00000000000E+00 -0.24533446058E+04  0.24533446058E+04  0.00000000000E+00 0. -1.
        -24    2    1    2    0    0 -0.23342485834E+03  0.77241642872E+03  0.17978525332E+03  0.83073095518E+03  0.81712170094E+02 0.  0.
        254    2    1    2    0    0  0.23342485834E+03 -0.77241642872E+03 -0.19538264397E+04  0.23019170700E+04  0.91119160274E+03 0.  0.
         23    2    4    4    0    0  0.26862959004E+03 -0.66352003800E+03 -0.59402255233E+03  0.93423916838E+03  0.86714091125E+02 0.  0.
         23    2    4    4    0    0 -0.35204731692E+02 -0.10889639072E+03 -0.13598038873E+04  0.13676779016E+04  0.91533783149E+02 0.  0.
          3    1    3    3  502    0 -0.58215003890E+02  0.21488328575E+03  0.13123912564E+02  0.22301580719E+03  0.00000000000E+00 0. -1.
         -4    1    3    3    0  502 -0.17520985445E+03  0.55753314296E+03  0.16666134075E+03  0.60771514800E+03  0.00000000000E+00 0.  1.
         11    1    5    5    0    0  0.11838121323E+03 -0.30730518228E+03 -0.21805649273E+03  0.39496736666E+03  0.00000000000E+00 0.  1.
        -11    1    5    5    0    0  0.15024837681E+03 -0.35621485572E+03 -0.37596605960E+03  0.53927180173E+03  0.00000000000E+00 0. -1.
          1    1    6    6  503    0 -0.69804651753E+01  0.10257314538E+02 -0.33335592121E+02  0.35569665414E+02  0.00000000000E+00 0. -1.
         -1    1    6    6    0  503 -0.28224266517E+02 -0.11915370526E+03 -0.13264682952E+04  0.13321082362E+04  0.00000000000E+00 0.  1.
<mgrwt>
<rscale>  0 0.25819104E+04</rscale>
<asrwt>0</asrwt>
<pdfrwt beam="1">  1        1 0.37743762E+00 0.25819104E+04</pdfrwt>
<pdfrwt beam="2">  1       -2 0.10450822E+00 0.25819104E+04</pdfrwt>
<totfact> 0.84128901E-01</totfact>
</mgrwt>
</event>
<event>
12    4  0.4413110E-008  0.1131161E+04  0.7818608E-02  0.9175342E-01
          1   -1    0    0  501    0  0.00000000000E+00  0.00000000000E+00  0.23277443854E+03  0.23277443854E+03  0.00000000000E+00 0. -1.
         -2   -1    0    0    0  501 -0.00000000000E+00 -0.00000000000E+00 -0.13742110838E+04  0.13742110838E+04  0.00000000000E+00 0.  1.
        -24    2    1    2    0    0  0.14295692357E+03 -0.11302301334E+03 -0.33389793937E+03  0.39128174522E+03  0.91666169786E+02 0.  0.
        254    2    1    2    0    0 -0.14295692357E+03  0.11302301334E+03 -0.80753870586E+03  0.12157037771E+04  0.89028424037E+03 0.  0.
         23    2    4    4    0    0  0.15028856512E+03 -0.13685865379E+03 -0.78890911892E+03  0.81974553928E+03  0.91039592114E+02 0.  0.
         23    2    4    4    0    0 -0.29324548869E+03  0.24988166713E+03 -0.18629586946E+02  0.39595823782E+03  0.89454459836E+02 0.  0.
          1    1    3    3  502    0  0.73548599275E+02 -0.97752693973E+02 -0.14649241168E+03  0.19085337910E+03  0.00000000000E+00 0. -1.
         -2    1    3    3    0  502  0.69408324290E+02 -0.15270319367E+02 -0.18740552769E+03  0.20042836612E+03  0.00000000000E+00 0.  1.
         11    1    5    5    0    0  0.10849107714E+03 -0.14344631433E+03 -0.61468257938E+03  0.64045439518E+03  0.00000000000E+00 0.  1.
        -11    1    5    5    0    0  0.41797487981E+02  0.65876605343E+01 -0.17422653954E+03  0.17929114410E+03  0.00000000000E+00 0. -1.
          1    1    6    6  503    0 -0.11310101995E+03  0.62177035009E+02  0.26905759466E+02  0.13183984333E+03  0.00000000000E+00 0. -1.
         -1    1    6    6    0  503 -0.18014446874E+03  0.18770463212E+03 -0.45535346412E+02  0.26411839450E+03  0.00000000000E+00 0.  1.
<mgrwt>
<rscale>  0 0.11311608E+04</rscale>
<asrwt>0</asrwt>
<pdfrwt beam="1">  1        1 0.35811452E-01 0.11311608E+04</pdfrwt>
<pdfrwt beam="2">  1       -2 0.21141709E+00 0.11311608E+04</pdfrwt>
<totfact> 0.11870185E+01</totfact>
</mgrwt>
</event>
<event>
12    4  0.4413110E-008  0.2822515E+04  0.7818608E-02  0.8296312E-01
          1   -1    0    0  501    0  0.00000000000E+00  0.00000000000E+00  0.17126804174E+04  0.17126804174E+04  0.00000000000E+00 0. -1.
         -2   -1    0    0    0  501 -0.00000000000E+00 -0.00000000000E+00 -0.11628834068E+04  0.11628834068E+04  0.00000000000E+00 0.  1.
        -24    2    1    2    0    0  0.11775338441E+04  0.34450173522E+03  0.56304042116E+03  0.13519173757E+04  0.73475677694E+02 0.  0.
        254    2    1    2    0    0 -0.11775338441E+04 -0.34450173522E+03 -0.13243410529E+02  0.15236464486E+04  0.90335802022E+03 0.  0.
         23    2    4    4    0    0 -0.33603773385E+03 -0.55202424843E+03 -0.13716261376E+02  0.65232133619E+03  0.87651927522E+02 0.  0.
         23    2    4    4    0    0 -0.84149611026E+03  0.20752251320E+03  0.47285084676E+00  0.87132511237E+03  0.89587559360E+02 0.  0.
          3    1    3    3  502    0  0.66628204062E+03  0.19953573756E+03  0.35879417464E+03  0.78261071292E+03  0.00000000000E+00 0. -1.
         -4    1    3    3    0  502  0.51125180349E+03  0.14496599767E+03  0.20424624652E+03  0.56930666277E+03  0.00000000000E+00 0.  1.
         11    1    5    5    0    0 -0.17911658824E+03 -0.37341006801E+03 -0.17835932175E+02  0.41453100192E+03  0.00000000000E+00 0.  1.
        -11    1    5    5    0    0 -0.15692114561E+03 -0.17861418041E+03  0.41196707994E+01  0.23779033427E+03  0.00000000000E+00 0. -1.
          2    1    6    6  503    0 -0.66142271929E+03  0.19817928136E+03  0.12747779657E+02  0.69059217129E+03  0.00000000000E+00 0. -1.
         -2    1    6    6    0  503 -0.18007339097E+03  0.93432318445E+01 -0.12274928810E+02  0.18073294109E+03  0.00000000000E+00 0.  1.
<mgrwt>
<rscale>  0 0.28225149E+04</rscale>
<asrwt>0</asrwt>
<pdfrwt beam="1">  1        1 0.26348929E+00 0.28225149E+04</pdfrwt>
<pdfrwt beam="2">  1       -2 0.17890514E+00 0.28225149E+04</pdfrwt>
<totfact> 0.65449897E-01</totfact>
</mgrwt>
</event>
<event>
12    4  0.4413110E-008  0.1200167E+04  0.7818608E-02  0.9112711E-01
          1   -1    0    0  501    0  0.00000000000E+00  0.00000000000E+00  0.79117163298E+03  0.79117163298E+03  0.00000000000E+00 0. -1.
         -2   -1    0    0    0  501 -0.00000000000E+00 -0.00000000000E+00 -0.45514781743E+03  0.45514781743E+03  0.00000000000E+00 0.  1.
        -24    2    1    2    0    0  0.17158751919E+03  0.71734366360E+02 -0.94003568599E+02  0.22398678780E+03  0.82129861431E+02 0.  0.
        254    2    1    2    0    0 -0.17158751919E+03 -0.71734366360E+02  0.43002738415E+03  0.10223326626E+04  0.90865418387E+03 0.  0.
         23    2    4    4    0    0  0.21056443644E+03 -0.26304703525E+03 -0.72407485884E+02  0.35641485660E+03  0.90871234996E+02 0.  0.
         23    2    4    4    0    0 -0.38215195563E+03  0.19131266889E+03  0.50243487003E+03  0.66591780601E+03  0.91460763523E+02 0.  0.
          3    1    3    3  502    0  0.21699250618E+02  0.39265571121E+02 -0.15063036692E+01  0.44887765633E+02  0.00000000000E+00 0. -1.
         -4    1    3    3    0  502  0.14988826857E+03  0.32468795239E+02 -0.92497264929E+02  0.17909902216E+03  0.00000000000E+00 0.  1.
         11    1    5    5    0    0  0.16208256689E+03 -0.13131050913E+03 -0.41979775606E+02  0.21278042640E+03  0.00000000000E+00 0. -1.
        -11    1    5    5    0    0  0.48481869554E+02 -0.13173652612E+03 -0.30427710278E+02  0.14363443021E+03  0.00000000000E+00 0.  1.
          2    1    6    6  503    0 -0.26157640521E+02  0.27298215343E+02  0.86482588190E+02  0.94385659814E+02  0.00000000000E+00 0.  1.
         -2    1    6    6    0  503 -0.35599431511E+03  0.16401445354E+03  0.41595228184E+03  0.57153214619E+03  0.00000000000E+00 0. -1.
<mgrwt>
<rscale>  0 0.12001667E+04</rscale>
<asrwt>0</asrwt>
<pdfrwt beam="1">  1        1 0.12171871E+00 0.12001667E+04</pdfrwt>
<pdfrwt beam="2">  1       -2 0.70022741E-01 0.12001667E+04</pdfrwt>
<totfact> 0.36259838E+01</totfact>
</mgrwt>
</event>
<event>
12    4  0.4413110E-008  0.2606812E+04  0.7818608E-02  0.8365891E-01
         -2   -1    0    0    0  501 -0.00000000000E+00  0.00000000000E+00  0.10180196971E+04  0.10180196971E+04  0.00000000000E+00 0.  1.
          1   -1    0    0  501    0  0.00000000000E+00 -0.00000000000E+00 -0.16687959837E+04  0.16687959837E+04  0.00000000000E+00 0. -1.
        -24    2    1    2    0    0 -0.25967054696E+02  0.10518507195E+04  0.18699138212E+03  0.10716873606E+04  0.80522032845E+02 0.  0.
        254    2    1    2    0    0  0.25967054696E+02 -0.10518507195E+04 -0.83776766872E+03  0.16151283203E+04  0.89427098806E+03 0.  0.
         23    2    4    4    0    0 -0.24650463622E+03 -0.10016082096E+04 -0.44758661418E+03  0.11281833921E+04  0.92089347323E+02 0.  0.
         23    2    4    4    0    0  0.27247169091E+03 -0.50242509923E+02 -0.39018105454E+03  0.48694492812E+03  0.90049850379E+02 0.  0.
          3    1    3    3  502    0  0.10140905707E+02  0.25303677370E+03  0.75954863154E+02  0.26438530225E+03  0.00000000000E+00 0. -1.
         -4    1    3    3    0  502 -0.36107960403E+02  0.79881394583E+03  0.11103651897E+03  0.80730205834E+03  0.00000000000E+00 0.  1.
         11    1    5    5    0    0 -0.24387530598E+02 -0.10445936344E+03 -0.78738195310E+02  0.13306469727E+03  0.00000000000E+00 0.  1.
        -11    1    5    5    0    0 -0.22211710562E+03 -0.89714884616E+03 -0.36884841887E+03  0.99511869487E+03  0.00000000000E+00 0. -1.
          4    1    6    6  503    0  0.17654824926E+03 -0.30510048953E+02 -0.31902359751E+03  0.36589097170E+03  0.00000000000E+00 0. -1.
         -4    1    6    6    0  503  0.95923441657E+02 -0.19732460970E+02 -0.71157457022E+02  0.12105395642E+03  0.00000000000E+00 0.  1.
<mgrwt>
<rscale>  0 0.26068120E+04</rscale>
<asrwt>0</asrwt>
<pdfrwt beam="1">  1        1 0.25673784E+00 0.26068120E+04</pdfrwt>
<pdfrwt beam="2">  1       -2 0.15661842E+00 0.26068120E+04</pdfrwt>
<totfact> 0.10332399E+00</totfact>
</mgrwt>
</event>
<event>
12    4  0.4413110E-008  0.1143699E+04  0.7818608E-02  0.9163616E-01
          1   -1    0    0  501    0  0.00000000000E+00  0.00000000000E+00  0.12616612981E+04  0.12616612981E+04  0.00000000000E+00 0. -1.
         -2   -1    0    0    0  501 -0.00000000000E+00 -0.00000000000E+00 -0.25919137170E+03  0.25919137170E+03  0.00000000000E+00 0.  1.
        -24    2    1    2    0    0  0.20132948864E+03  0.22351390019E+02  0.25902432371E+03  0.33898919606E+03  0.82382808517E+02 0.  0.
        254    2    1    2    0    0 -0.20132948864E+03 -0.22351390019E+02  0.74344560265E+03  0.11818634737E+04  0.89613434191E+03 0.  0.
         23    2    4    4    0    0 -0.87005982034E+02 -0.39688571288E+03  0.10850511466E+03  0.43038042461E+03  0.91463872550E+02 0.  0.
         23    2    4    4    0    0 -0.11432350661E+03  0.37453432286E+03  0.63494048799E+03  0.75148304910E+03  0.90727761120E+02 0.  0.
          1    1    3    3  502    0  0.20554548972E+03  0.10791746021E+02  0.24940967069E+03  0.32337376820E+03  0.00000000000E+00 0. -1.
         -2    1    3    3    0  502 -0.42160010797E+01  0.11559643998E+02  0.96146530127E+01  0.15615427853E+02  0.00000000000E+00 0.  1.
         11    1    5    5    0    0  0.58601252890E+01 -0.98497419144E+02  0.56120667648E+02  0.11351480953E+03  0.00000000000E+00 0. -1.
        -11    1    5    5    0    0 -0.92866107323E+02 -0.29838829373E+03  0.52384447012E+02  0.31686561507E+03  0.00000000000E+00 0.  1.
          4    1    6    6  503    0 -0.70217349521E+02  0.15217294356E+03  0.19937448255E+03  0.26045587959E+03  0.00000000000E+00 0. -1.
         -4    1    6    6    0  503 -0.44106157086E+02  0.22236137930E+03  0.43556600544E+03  0.49102716951E+03  0.00000000000E+00 0.  1.
<mgrwt>
<rscale>  0 0.11436988E+04</rscale>
<asrwt>0</asrwt>
<pdfrwt beam="1">  1        1 0.19410173E+00 0.11436988E+04</pdfrwt>
<pdfrwt beam="2">  1       -2 0.39875596E-01 0.11436988E+04</pdfrwt>
<totfact> 0.49965435E+01</totfact>
</mgrwt>
</event>
<event>
12    4  0.4413110E-008  0.1331193E+04  0.7818608E-02  0.9005188E-01
          1   -1    0    0  501    0  0.00000000000E+00  0.00000000000E+00  0.22893524328E+04  0.22893524328E+04  0.00000000000E+00 0. -1.
         -2   -1    0    0    0  501 -0.00000000000E+00 -0.00000000000E+00 -0.19351276827E+03  0.19351276827E+03  0.00000000000E+00 0.  1.
        -24    2    1    2    0    0 -0.99626910193E+01 -0.85469778903E+02  0.12144667017E+04  0.12201520657E+04  0.80233132005E+02 0.  0.
        254    2    1    2    0    0  0.99626910193E+01  0.85469778903E+02  0.88137296282E+03  0.12627131354E+04  0.90012322734E+03 0.  0.
         23    2    4    4    0    0 -0.18594571111E+03  0.14141517769E+02  0.98919285691E+03  0.10116333687E+04  0.10061696944E+03 0.  0.
         23    2    4    4    0    0  0.19590840213E+03  0.71328261134E+02 -0.10781989409E+03  0.25107976668E+03  0.89152099319E+02 0.  0.
          1    1    3    3  502    0 -0.38361225250E+02 -0.68292009377E+02  0.64854980093E+03  0.65326275451E+03  0.00000000000E+00 0. -1.
         -2    1    3    3    0  502  0.28398534231E+02 -0.17177769526E+02  0.56591690082E+03  0.56688931119E+03  0.00000000000E+00 0.  1.
         11    1    5    5    0    0 -0.55557810467E+02  0.39551126519E+02  0.19923026555E+03  0.21057934520E+03  0.00000000000E+00 0. -1.
        -11    1    5    5    0    0 -0.13038790064E+03 -0.25409608750E+02  0.78996259136E+03  0.80105402352E+03  0.00000000000E+00 0.  1.
          1    1    6    6  503    0  0.13872004368E+03  0.33606359520E+02 -0.11346695418E+03  0.18233866186E+03  0.00000000000E+00 0. -1.
         -1    1    6    6    0  503  0.57188358450E+02  0.37721901614E+02  0.56470600938E+01  0.68741104816E+02  0.00000000000E+00 0.  1.
<mgrwt>
<rscale>  0 0.13311933E+04</rscale>
<asrwt>0</asrwt>
<pdfrwt beam="1">  1        1 0.35220805E+00 0.13311933E+04</pdfrwt>
<pdfrwt beam="2">  1       -2 0.29771197E-01 0.13311933E+04</pdfrwt>
<totfact> 0.16989777E+01</totfact>
</mgrwt>
</event>
<event>
12    4  0.4413110E-008  0.2405873E+04  0.7818608E-02  0.8437308E-01
          1   -1    0    0  501    0  0.00000000000E+00  0.00000000000E+00  0.26777202846E+04  0.26777202846E+04  0.00000000000E+00 0. -1.
         -2   -1    0    0    0  501 -0.00000000000E+00 -0.00000000000E+00 -0.54040618571E+03  0.54040618571E+03  0.00000000000E+00 0.  1.
        -24    2    1    2    0    0  0.24674788150E+03  0.46260383556E+03 -0.25844824673E+03  0.59006317710E+03  0.80574382012E+02 0.  0.
        254    2    1    2    0    0 -0.24674788150E+03 -0.46260383556E+03  0.23957623456E+04  0.26280632932E+04  0.94453831614E+03 0.  0.
         23    2    4    4    0    0  0.31261004005E+03 -0.91630455723E+02  0.41956650468E+03  0.53861396118E+03  0.89150265138E+02 0.  0.
         23    2    4    4    0    0 -0.55935792155E+03 -0.37097337983E+03  0.19761958409E+04  0.20894493320E+04  0.99729516072E+02 0.  0.
          3    1    3    3  502    0  0.45892135568E+02  0.55811779007E+02 -0.10393830202E+02  0.73000510198E+02  0.00000000000E+00 0. -1.
         -4    1    3    3    0  502  0.20085574593E+03  0.40679205655E+03 -0.24805441653E+03  0.51706266690E+03  0.00000000000E+00 0.  1.
         11    1    5    5    0    0  0.22379954483E+03 -0.26294710199E+02  0.25230566866E+03  0.33828360659E+03  0.00000000000E+00 0.  1.
        -11    1    5    5    0    0  0.88810495222E+02 -0.65335745524E+02  0.16726083602E+03  0.20033035459E+03  0.00000000000E+00 0. -1.
          4    1    6    6  503    0 -0.55688773334E+03 -0.36100265845E+03  0.19001704159E+04  0.20127330862E+04  0.00000000000E+00 0.  1.
         -4    1    6    6    0  503 -0.24701882043E+01 -0.99707213844E+01  0.76025425044E+02  0.76716245788E+02  0.00000000000E+00 0. -1.
<mgrwt>
<rscale>  0 0.24058733E+04</rscale>
<asrwt>0</asrwt>
<pdfrwt beam="1">  1        1 0.41195696E+00 0.24058733E+04</pdfrwt>
<pdfrwt beam="2">  1       -2 0.83139415E-01 0.24058733E+04</pdfrwt>
<totfact> 0.10150965E+00</totfact>
</mgrwt>
</event>
<event>
12    4  0.4413110E-008  0.3079173E+04  0.7818608E-02  0.8221477E-01
          1   -1    0    0  501    0  0.00000000000E+00  0.00000000000E+00  0.21966752727E+04  0.21966752727E+04  0.00000000000E+00 0. -1.
         -2   -1    0    0    0  501 -0.00000000000E+00 -0.00000000000E+00 -0.10790519202E+04  0.10790519202E+04  0.00000000000E+00 0.  1.
        -24    2    1    2    0    0  0.51541272071E+03 -0.59258191588E+03 -0.72986747128E+03  0.10750856367E+04  0.79366245738E+02 0.  0.
        254    2    1    2    0    0 -0.51541272071E+03  0.59258191588E+03  0.18474908238E+04  0.22006415562E+04  0.90155272457E+03 0.  0.
         23    2    4    4    0    0 -0.30767320288E+03 -0.19553269524E+03  0.60367500528E+03  0.71071449717E+03  0.88293543384E+02 0.  0.
         23    2    4    4    0    0 -0.20773951783E+03  0.78811461112E+03  0.12438158185E+04  0.14899270591E+04  0.92328236955E+02 0.  0.
          1    1    3    3  502    0  0.12834567097E+03 -0.15975792248E+03 -0.23832634243E+03  0.31431616335E+03  0.00000000000E+00 0. -1.
         -2    1    3    3    0  502  0.38706704974E+03 -0.43282399341E+03 -0.49154112886E+03  0.76076947337E+03  0.00000000000E+00 0.  1.
         11    1    5    5    0    0 -0.27640666294E+03 -0.19804142855E+03  0.57603241880E+03  0.66890537316E+03  0.00000000000E+00 0.  1.
        -11    1    5    5    0    0 -0.31266539933E+02  0.25087333146E+01  0.27642586490E+02  0.41809124005E+02  0.00000000000E+00 0. -1.
          4    1    6    6  503    0 -0.18500326712E+02  0.22928945303E+03  0.33374044208E+03  0.40533763462E+03  0.00000000000E+00 0. -1.
         -4    1    6    6    0  503 -0.18923919112E+03  0.55882515809E+03  0.91007537646E+03  0.10845894244E+04  0.00000000000E+00 0.  1.
<mgrwt>
<rscale>  0 0.30791731E+04</rscale>
<asrwt>0</asrwt>
<pdfrwt beam="1">  1        1 0.33795004E+00 0.30791731E+04</pdfrwt>
<pdfrwt beam="2">  1       -2 0.16600799E+00 0.30791731E+04</pdfrwt>
<totfact> 0.37061607E-01</totfact>
</mgrwt>
</event>
<event>
12    4  0.4413110E-008  0.1529316E+04  0.7818608E-02  0.8865189E-01
          1   -1    0    0  501    0  0.00000000000E+00  0.00000000000E+00  0.15473100794E+04  0.15473100794E+04  0.00000000000E+00 0. -1.
         -2   -1    0    0    0  501 -0.00000000000E+00 -0.00000000000E+00 -0.37788265788E+03  0.37788265788E+03  0.00000000000E+00 0.  1.
        -24    2    1    2    0    0  0.23842359060E+03 -0.13867889178E+03  0.90723936668E+03  0.95199772480E+03  0.84491159223E+02 0.  0.
        254    2    1    2    0    0 -0.23842359060E+03  0.13867889178E+03  0.26218805485E+03  0.97319501250E+03  0.89570548322E+03 0.  0.
         23    2    4    4    0    0 -0.37380585294E+03 -0.23620588958E+03  0.32849273630E+03  0.55857106333E+03  0.92574926520E+02 0.  0.
         23    2    4    4    0    0  0.13538226234E+03  0.37488478135E+03 -0.66304681442E+02  0.41462394918E+03  0.93004044028E+02 0.  0.
          3    1    3    3  502    0  0.23470464468E+03 -0.10939594863E+03  0.81237568447E+03  0.85264763914E+03  0.00000000000E+00 0. -1.
         -4    1    3    3    0  502  0.37189459240E+01 -0.29282943148E+02  0.94863682211E+02  0.99350085661E+02  0.00000000000E+00 0.  1.
         11    1    5    5    0    0 -0.13097399626E+03 -0.12003854161E+03  0.17158130308E+03  0.24698903364E+03  0.00000000000E+00 0. -1.
        -11    1    5    5    0    0 -0.24283185668E+03 -0.11616734797E+03  0.15691143321E+03  0.31158202969E+03  0.00000000000E+00 0.  1.
          3    1    6    6  503    0  0.48083673307E+02  0.25616261816E+03 -0.26505456848E+02  0.26198065926E+03  0.00000000000E+00 0. -1.
         -3    1    6    6    0  503  0.87298589033E+02  0.11872216319E+03 -0.39799224594E+02  0.15264328992E+03  0.00000000000E+00 0.  1.
<mgrwt>
<rscale>  0 0.15293157E+04</rscale>
<asrwt>0</asrwt>
<pdfrwt beam="1">  1        1 0.23804770E+00 0.15293157E+04</pdfrwt>
<pdfrwt beam="2">  1       -2 0.58135794E-01 0.15293157E+04</pdfrwt>
<totfact> 0.14222185E+01</totfact>
</mgrwt>
</event>
<event>
12    4  0.4413110E-008  0.1749267E+04  0.7818608E-02  0.8733754E-01
          1   -1    0    0  501    0  0.00000000000E+00  0.00000000000E+00  0.80048044692E+03  0.80048044692E+03  0.00000000000E+00 0. -1.
         -2   -1    0    0    0  501 -0.00000000000E+00 -0.00000000000E+00 -0.95565585892E+03  0.95565585892E+03  0.00000000000E+00 0.  1.
        -24    2    1    2    0    0  0.35831332275E+03  0.38795199782E+03 -0.43151113942E+03  0.68654567569E+03  0.79043731473E+02 0.  0.
        254    2    1    2    0    0 -0.35831332275E+03 -0.38795199782E+03  0.27633572741E+03  0.10695906302E+04  0.88812583117E+03 0.  0.
         23    2    4    4    0    0  0.12311269562E+03  0.13060262159E+02  0.39586255179E+03  0.42457832603E+03  0.90731961042E+02 0.  0.
         23    2    4    4    0    0 -0.48142601837E+03 -0.40101225998E+03 -0.11952682438E+03  0.64501230412E+03  0.95772474687E+02 0.  0.
          3    1    3    3  502    0  0.15131316128E+03  0.19670093607E+03 -0.16043177707E+03  0.29550852123E+03  0.00000000000E+00 0. -1.
         -4    1    3    3    0  502  0.20700016147E+03  0.19125106175E+03 -0.27107936235E+03  0.39103715445E+03  0.00000000000E+00 0.  1.
         11    1    5    5    0    0 -0.47691141462E+01 -0.18579166522E+02  0.81532320339E+02  0.83758278028E+02  0.00000000000E+00 0. -1.
        -11    1    5    5    0    0  0.12788180977E+03  0.31639428680E+02  0.31433023145E+03  0.34082004801E+03  0.00000000000E+00 0.  1.
          3    1    6    6  503    0 -0.30614829956E+03 -0.24946922060E+03 -0.12186410507E+03  0.41329472953E+03  0.00000000000E+00 0.  1.
         -3    1    6    6    0  503 -0.17527771880E+03 -0.15154303938E+03  0.23372806948E+01  0.23171757459E+03  0.00000000000E+00 0. -1.
<mgrwt>
<rscale>  0 0.17492671E+04</rscale>
<asrwt>0</asrwt>
<pdfrwt beam="1">  1        1 0.12315084E+00 0.17492671E+04</pdfrwt>
<pdfrwt beam="2">  1       -2 0.14702398E+00 0.17492671E+04</pdfrwt>
<totfact> 0.57912314E+00</totfact>
</mgrwt>
</event>
<event>
12    4  0.4413110E-008  0.1309346E+04  0.7818608E-02  0.9022186E-01
         -2   -1    0    0    0  501 -0.00000000000E+00  0.00000000000E+00  0.34385724671E+03  0.34385724671E+03  0.00000000000E+00 0.  1.
          1   -1    0    0  501    0  0.00000000000E+00 -0.00000000000E+00 -0.12464384515E+04  0.12464384515E+04  0.00000000000E+00 0. -1.
        -24    2    1    2    0    0 -0.23064002555E+02  0.11887431772E+03 -0.62375302034E+03  0.64025074444E+03  0.78677402988E+02 0.  0.
        254    2    1    2    0    0  0.23064002555E+02 -0.11887431772E+03 -0.27882818446E+03  0.95004495378E+03  0.90009844246E+03 0.  0.
         23    2    4    4    0    0 -0.19720605601E+03  0.16930807012E+03 -0.45907675695E+03  0.53496592708E+03  0.88778506537E+02 0.  0.
         23    2    4    4    0    0  0.22027005857E+03 -0.28818238784E+03  0.18024857250E+03  0.41507902669E+03  0.90736228426E+02 0.  0.
          3    1    3    3  502    0 -0.26742176366E+02  0.59969007832E+02 -0.16292613733E+03  0.17565976239E+03  0.00000000000E+00 0. -1.
         -4    1    3    3    0  502  0.36781738113E+01  0.58905309888E+02 -0.46082688301E+03  0.46459098205E+03  0.00000000000E+00 0.  1.
         11    1    5    5    0    0 -0.51713584130E+01  0.18337367239E+02 -0.55595699415E+01  0.19847186275E+02  0.00000000000E+00 0. -1.
        -11    1    5    5    0    0 -0.19203469760E+03  0.15097070288E+03 -0.45351718701E+03  0.51511874081E+03  0.00000000000E+00 0.  1.
          2    1    6    6  503    0  0.99723059433E+02 -0.10793982635E+03  0.12081769665E+03  0.19024355579E+03  0.00000000000E+00 0.  1.
         -2    1    6    6    0  503  0.12054699914E+03 -0.18024256149E+03  0.59430875850E+02  0.22483547091E+03  0.00000000000E+00 0. -1.
<mgrwt>
<rscale>  0 0.13093462E+04</rscale>
<asrwt>0</asrwt>
<pdfrwt beam="1">  1        1 0.19175976E+00 0.13093462E+04</pdfrwt>
<pdfrwt beam="2">  1       -2 0.52901115E-01 0.13093462E+04</pdfrwt>
<totfact> 0.28688745E+01</totfact>
</mgrwt>
</event>
<event>
12    4  0.4413110E-008  0.1949681E+04  0.7818608E-02  0.8630515E-01
         -2   -1    0    0    0  501 -0.00000000000E+00  0.00000000000E+00  0.62476490540E+03  0.62476490540E+03  0.00000000000E+00 0.  1.
          1   -1    0    0  501    0  0.00000000000E+00 -0.00000000000E+00 -0.15210738831E+04  0.15210738831E+04  0.00000000000E+00 0. -1.
        -24    2    1    2    0    0  0.16351023965E+03 -0.14517749366E+03 -0.10616700749E+04  0.10870738392E+04  0.82304803795E+02 0.  0.
        254    2    1    2    0    0 -0.16351023965E+03  0.14517749366E+03  0.16536109724E+03  0.10587649493E+04  0.10226567470E+04 0.  0.
         23    2    4    4    0    0 -0.32031665751E+03  0.48037743548E+03 -0.10320107740E+03  0.59204091533E+03  0.80602366306E+02 0.  0.
         23    2    4    4    0    0  0.15680641787E+03 -0.33519994182E+03  0.26856217463E+03  0.46672403397E+03  0.93586476383E+02 0.  0.
          1    1    3    3  502    0  0.16639731058E+03 -0.12985368456E+03 -0.88950885923E+03  0.91420788391E+03  0.00000000000E+00 0. -1.
         -2    1    3    3    0  502 -0.28870709360E+01 -0.15323809102E+02 -0.17216121572E+03  0.17286595530E+03  0.00000000000E+00 0.  1.
         11    1    5    5    0    0 -0.25343608766E+01  0.36612207311E+02 -0.82829074716E+00  0.36709164725E+02  0.00000000000E+00 0.  1.
        -11    1    5    5    0    0 -0.31778229663E+03  0.44376522817E+03 -0.10237278665E+03  0.55533175061E+03  0.00000000000E+00 0. -1.
          1    1    6    6  503    0  0.12921329663E+03 -0.31067102884E+03  0.26740179586E+03  0.42978632438E+03  0.00000000000E+00 0. -1.
         -1    1    6    6    0  503  0.27593121232E+02 -0.24528912974E+02  0.11603787692E+01  0.36937709592E+02  0.00000000000E+00 0.  1.
<mgrwt>
<rscale>  0 0.19496806E+04</rscale>
<asrwt>0</asrwt>
<pdfrwt beam="1">  1        1 0.23401136E+00 0.19496806E+04</pdfrwt>
<pdfrwt beam="2">  1       -2 0.96117679E-01 0.19496806E+04</pdfrwt>
<totfact> 0.46904310E+00</totfact>
</mgrwt>
</event>
<event>
12    4  0.4413110E-008  0.2044896E+04  0.7818608E-02  0.8585913E-01
          1   -1    0    0  501    0  0.00000000000E+00  0.00000000000E+00  0.18016035620E+04  0.18016035620E+04  0.00000000000E+00 0. -1.
         -2   -1    0    0    0  501 -0.00000000000E+00 -0.00000000000E+00 -0.58026070464E+03  0.58026070464E+03  0.00000000000E+00 0.  1.
        -24    2    1    2    0    0 -0.41187776525E+03  0.29656644358E+03 -0.25824165732E+03  0.57440932968E+03  0.75248757352E+02 0.  0.
        254    2    1    2    0    0  0.41187776525E+03 -0.29656644358E+03  0.14795845147E+04  0.18074549370E+04  0.90560922263E+03 0.  0.
         23    2    4    4    0    0  0.21068751336E+03 -0.24952420748E+03  0.15367590786E+04  0.15736427292E+04  0.89841053723E+02 0.  0.
         23    2    4    4    0    0  0.20119025189E+03 -0.47042236106E+02 -0.57174563922E+02  0.23381220782E+03  0.93320567564E+02 0.  0.
          1    1    3    3  502    0 -0.29021806827E+02  0.16748253444E+01 -0.22242543737E+02  0.36603293067E+02  0.00000000000E+00 0. -1.
         -4    1    3    3    0  502 -0.38285595843E+03  0.29489161824E+03 -0.23599911358E+03  0.53780603662E+03  0.00000000000E+00 0.  1.
         11    1    5    5    0    0  0.18416739690E+02 -0.80896510487E+02  0.37513348789E+03  0.38419858856E+03  0.00000000000E+00 0. -1.
        -11    1    5    5    0    0  0.19227077367E+03 -0.16862769699E+03  0.11616255907E+04  0.11894441406E+04  0.00000000000E+00 0.  1.
          1    1    6    6  503    0  0.53066292515E+02 -0.52713336169E+02  0.37866055346E+00  0.74798867606E+02  0.00000000000E+00 0. -1.
         -1    1    6    6    0  503  0.14812395938E+03  0.56711000633E+01 -0.57553224475E+02  0.15901334021E+03  0.00000000000E+00 0.  1.
<mgrwt>
<rscale>  0 0.20448958E+04</rscale>
<asrwt>0</asrwt>
<pdfrwt beam="1">  1        1 0.27716978E+00 0.20448958E+04</pdfrwt>
<pdfrwt beam="2">  1       -2 0.89270878E-01 0.20448958E+04</pdfrwt>
<totfact> 0.35507150E+00</totfact>
</mgrwt>
</event>
<event>
12    4  0.4413110E-008  0.1252715E+04  0.7818608E-02  0.9067927E-01
          1   -1    0    0  501    0  0.00000000000E+00  0.00000000000E+00  0.60405007039E+03  0.60405007039E+03  0.00000000000E+00 0. -1.
         -2   -1    0    0    0  501 -0.00000000000E+00 -0.00000000000E+00 -0.64948875632E+03  0.64948875632E+03  0.00000000000E+00 0.  1.
        -24    2    1    2    0    0 -0.27044075298E+03 -0.63418940370E+02 -0.11319770718E+03  0.31032280245E+03  0.79538405410E+02 0.  0.
        254    2    1    2    0    0  0.27044075298E+03  0.63418940370E+02  0.67759021255E+02  0.94321602427E+03  0.89883536902E+03 0.  0.
         23    2    4    4    0    0  0.58336175965E+02  0.20312100527E+03  0.43176355886E+03  0.49033497764E+03  0.96681783881E+02 0.  0.
         23    2    4    4    0    0  0.21210457702E+03 -0.13970206490E+03 -0.36400453760E+03  0.45288104662E+03  0.89982889867E+02 0.  0.
          3    1    3    3  502    0 -0.29333302945E+02 -0.74077388261E+01  0.12467886729E+02  0.32722552707E+02  0.00000000000E+00 0. -1.
         -4    1    3    3    0  502 -0.24110745004E+03 -0.56011201544E+02 -0.12566559391E+03  0.27760024974E+03  0.00000000000E+00 0.  1.
         11    1    5    5    0    0 -0.22538211654E+02  0.16135032650E+02  0.67534591415E+02  0.73001584234E+02  0.00000000000E+00 0. -1.
        -11    1    5    5    0    0  0.80874387619E+02  0.18698597262E+03  0.36422896744E+03  0.41733339341E+03  0.00000000000E+00 0.  1.
          2    1    6    6  503    0  0.10193357511E+02 -0.26139410388E+01 -0.69977538344E+02  0.70764349059E+02  0.00000000000E+00 0. -1.
         -2    1    6    6    0  503  0.20191121951E+03 -0.13708812386E+03 -0.29402699926E+03  0.38211669757E+03  0.00000000000E+00 0.  1.
<mgrwt>
<rscale>  0 0.12527150E+04</rscale>
<asrwt>0</asrwt>
<pdfrwt beam="1">  1        1 0.92930780E-01 0.12527150E+04</pdfrwt>
<pdfrwt beam="2">  1       -2 0.99921347E-01 0.12527150E+04</pdfrwt>
<totfact> 0.24221332E+01</totfact>
</mgrwt>
</event>
<event>
12    4  0.4413110E-008  0.1783028E+04  0.7818608E-02  0.8715378E-01
          1   -1    0    0  501    0  0.00000000000E+00  0.00000000000E+00  0.28062328047E+04  0.28062328047E+04  0.00000000000E+00 0. -1.
         -2   -1    0    0    0  501 -0.00000000000E+00 -0.00000000000E+00 -0.28322558088E+03  0.28322558088E+03  0.00000000000E+00 0.  1.
        -24    2    1    2    0    0  0.61597992774E+03  0.17227078882E+03  0.11987860701E+04  0.13610828542E+04  0.79686873701E+02 0.  0.
        254    2    1    2    0    0 -0.61597992774E+03 -0.17227078882E+03  0.13242211536E+04  0.17283755314E+04  0.90808139377E+03 0.  0.
         23    2    4    4    0    0 -0.58359618433E+03  0.96049763449E+01  0.13914172623E+04  0.15112806048E+04  0.85148731786E+02 0.  0.
         23    2    4    4    0    0 -0.32383743407E+02 -0.18187576517E+03 -0.67196108679E+02  0.21709492663E+03  0.92127028357E+02 0.  0.
          3    1    3    3  502    0  0.48249419479E+03  0.13086270079E+03  0.86250941205E+03  0.99691934495E+03  0.00000000000E+00 0. -1.
         -4    1    3    3    0  502  0.13348573295E+03  0.41408088033E+02  0.33627665809E+03  0.36416350920E+03  0.00000000000E+00 0.  1.
         11    1    5    5    0    0 -0.11119942577E+03  0.30829913163E+02  0.31925701717E+03  0.33947141094E+03  0.00000000000E+00 0. -1.
        -11    1    5    5    0    0 -0.47239675857E+03 -0.21224936818E+02  0.10721602452E+04  0.11718091938E+04  0.00000000000E+00 0.  1.
          2    1    6    6  503    0  0.17989236330E+02 -0.10250320171E+03 -0.46346438735E+01  0.10417292790E+03  0.00000000000E+00 0. -1.
         -2    1    6    6    0  503 -0.50372979736E+02 -0.79372563464E+02 -0.62561464805E+02  0.11292199873E+03  0.00000000000E+00 0.  1.
<mgrwt>
<rscale>  0 0.17830277E+04</rscale>
<asrwt>0</asrwt>
<pdfrwt beam="1">  1        1 0.43172811E+00 0.17830277E+04</pdfrwt>
<pdfrwt beam="2">  1       -2 0.43573168E-01 0.17830277E+04</pdfrwt>
<totfact> 0.34274023E+00</totfact>
</mgrwt>
</event>
<event>
12    4  0.5333971E-008  0.2234331E+04  0.7818608E-02  0.8504273E-01
         -2   -1    0    0    0  501 -0.00000000000E+00  0.00000000000E+00  0.79630350304E+03  0.79630350304E+03  0.00000000000E+00 0.  1.
          1   -1    0    0  501    0  0.00000000000E+00 -0.00000000000E+00 -0.15673154814E+04  0.15673154814E+04  0.00000000000E+00 0. -1.
        -24    2    1    2    0    0 -0.20380831369E+03  0.89433567888E+03 -0.49469555196E+03  0.10455565028E+04  0.84205559703E+02 0.  0.
        254    2    1    2    0    0  0.20380831369E+03 -0.89433567888E+03 -0.27631642636E+03  0.13180624816E+04  0.90529763204E+03 0.  0.
         23    2    4    4    0    0  0.40603495925E+03 -0.83493565422E+02 -0.21240665373E+03  0.47480129210E+03  0.92109265761E+02 0.  0.
         23    2    4    4    0    0 -0.20222664556E+03 -0.81084211345E+03 -0.63909772637E+02  0.84326118945E+03  0.92975402525E+02 0.  0.
          1    1    3    3  502    0 -0.18206207379E+03  0.79864878516E+03 -0.41040786920E+03  0.91619926864E+03  0.00000000000E+00 0. -1.
         -2    1    3    3    0  502 -0.21746239904E+02  0.95686893719E+02 -0.84287682753E+02  0.12935723421E+03  0.00000000000E+00 0.  1.
         11    1    5    5    0    0  0.26791446015E+03 -0.92919171022E+02 -0.11748978346E+03  0.30694621600E+03  0.00000000000E+00 0. -1.
        -11    1    5    5    0    0  0.13812049910E+03  0.94256056003E+01 -0.94916870269E+02  0.16785507611E+03  0.00000000000E+00 0.  1.
          1    1    6    6  503    0 -0.19821720197E+03 -0.80272464214E+03 -0.52230255253E+02  0.82848350003E+03  0.00000000000E+00 0. -1.
         -1    1    6    6    0  503 -0.40094435845E+01 -0.81174713161E+01 -0.11679517385E+02  0.14777689426E+02  0.00000000000E+00 0.  1.
<mgrwt>
<rscale>  0 0.22343310E+04</rscale>
<asrwt>0</asrwt>
<pdfrwt beam="1">  1        1 0.24112546E+00 0.22343310E+04</pdfrwt>
<pdfrwt beam="2">  1       -2 0.12250823E+00 0.22343310E+04</pdfrwt>
<totfact> 0.23654280E+00</totfact>
</mgrwt>
</event>
<event>
12    4  0.4413110E-008  0.1609228E+04  0.7818608E-02  0.8814899E-01
          1   -1    0    0  501    0  0.00000000000E+00  0.00000000000E+00  0.59860597242E+03  0.59860597242E+03  0.00000000000E+00 0. -1.
         -2   -1    0    0    0  501 -0.00000000000E+00 -0.00000000000E+00 -0.10815183891E+04  0.10815183891E+04  0.00000000000E+00 0.  1.
        -24    2    1    2    0    0  0.31409200445E+02 -0.47484700378E+03  0.12170703710E+03  0.49775937036E+03  0.80533055546E+02 0.  0.
        254    2    1    2    0    0 -0.31409200445E+02  0.47484700378E+03 -0.60461945378E+03  0.11823649912E+04  0.89775056312E+03 0.  0.
         23    2    4    4    0    0  0.12245868956E+02  0.43778498840E+03 -0.82479985482E+03  0.93811705472E+03  0.89236486199E+02 0.  0.
         23    2    4    4    0    0 -0.43655069400E+02  0.37062015376E+02  0.22018040104E+03  0.24424793645E+03  0.88872309475E+02 0.  0.
          1    1    3    3  502    0  0.56912939664E+02 -0.30990381437E+03  0.67118102532E+02  0.32215570234E+03  0.00000000000E+00 0. -1.
         -2    1    3    3    0  502 -0.25503739220E+02 -0.16494318941E+03  0.54588934567E+02  0.17560366802E+03  0.00000000000E+00 0.  1.
         11    1    5    5    0    0 -0.12840690411E+02  0.25896427797E+03 -0.40189471275E+03  0.47827475444E+03  0.00000000000E+00 0. -1.
        -11    1    5    5    0    0  0.25086559367E+02  0.17882071043E+03 -0.42290514207E+03  0.45984230028E+03  0.00000000000E+00 0.  1.
          3    1    6    6  503    0 -0.27926253776E+02 -0.16252435685E+02  0.23741423427E+02  0.40095791575E+02  0.00000000000E+00 0. -1.
         -3    1    6    6    0  503 -0.15728815624E+02  0.53314451061E+02  0.19643897761E+03  0.20415214487E+03  0.00000000000E+00 0.  1.
<mgrwt>
<rscale>  0 0.16092276E+04</rscale>
<asrwt>0</asrwt>
<pdfrwt beam="1">  1        1 0.92093227E-01 0.16092276E+04</pdfrwt>
<pdfrwt beam="2">  1       -2 0.16638744E+00 0.16092276E+04</pdfrwt>
<totfact> 0.65181285E+00</totfact>
</mgrwt>
</event>
<event>
12    4  0.4413110E-008  0.2912007E+04  0.7818608E-02  0.8269314E-01
          1   -1    0    0  501    0  0.00000000000E+00  0.00000000000E+00  0.10059615894E+04  0.10059615894E+04  0.00000000000E+00 0. -1.
         -2   -1    0    0    0  501 -0.00000000000E+00 -0.00000000000E+00 -0.21073829513E+04  0.21073829513E+04  0.00000000000E+00 0.  1.
        -24    2    1    2    0    0 -0.97437867608E+03  0.83201956148E+03 -0.19126079304E+03  0.12978965727E+04  0.79274632424E+02 0.  0.
        254    2    1    2    0    0  0.97437867608E+03 -0.83201956148E+03 -0.91016056885E+03  0.18154479679E+04  0.90872917202E+03 0.  0.
         23    2    4    4    0    0  0.77474764990E+03 -0.27172258943E+03 -0.88878196996E+03  0.12133883059E+04  0.91163063257E+02 0.  0.
         23    2    4    4    0    0  0.19963102619E+03 -0.56029697205E+03 -0.21378598893E+02  0.60205966204E+03  0.90738903842E+02 0.  0.
          1    1    3    3  502    0 -0.94366442431E+03  0.81685979668E+03 -0.17619919019E+03  0.12604795229E+04  0.00000000000E+00 0. -1.
         -2    1    3    3    0  502 -0.30714251776E+02  0.15159764799E+02 -0.15061602856E+02  0.37417049743E+02  0.00000000000E+00 0.  1.
         11    1    5    5    0    0  0.46140460746E+03 -0.17455242149E+03 -0.46960522298E+03  0.68109604688E+03  0.00000000000E+00 0. -1.
        -11    1    5    5    0    0  0.31334304244E+03 -0.97170167946E+02 -0.41917674698E+03  0.53229225900E+03  0.00000000000E+00 0.  1.
          2    1    6    6  503    0  0.14419819265E+03 -0.27823189156E+03  0.47467329844E+01  0.31341447911E+03  0.00000000000E+00 0.  1.
         -2    1    6    6    0  503  0.55432833538E+02 -0.28206508048E+03 -0.26125331877E+02  0.28864518293E+03  0.00000000000E+00 0. -1.
<mgrwt>
<rscale>  0 0.29120071E+04</rscale>
<asrwt>0</asrwt>
<pdfrwt beam="1">  1        1 0.15476332E+00 0.29120071E+04</pdfrwt>
<pdfrwt beam="2">  1       -2 0.32421276E+00 0.29120071E+04</pdfrwt>
<totfact> 0.25393564E-01</totfact>
</mgrwt>
</event>
<event>
12    4  0.4413110E-008  0.2269561E+04  0.7818608E-02  0.8490020E-01
          1   -1    0    0  501    0  0.00000000000E+00  0.00000000000E+00  0.12806561502E+04  0.12806561502E+04  0.00000000000E+00 0. -1.
         -2   -1    0    0    0  501 -0.00000000000E+00 -0.00000000000E+00 -0.10055208583E+04  0.10055208583E+04  0.00000000000E+00 0.  1.
        -24    2    1    2    0    0 -0.57005755599E+03 -0.10351236816E+03  0.84344357059E+03  0.10262866051E+04  0.78655651239E+02 0.  0.
        254    2    1    2    0    0  0.57005755599E+03  0.10351236816E+03 -0.56830827874E+03  0.12598904034E+04  0.96367479032E+03 0.  0.
         23    2    4    4    0    0  0.44837703424E+02  0.45983495857E+03 -0.33502118112E+03  0.57775489445E+03  0.90016206797E+02 0.  0.
         23    2    4    4    0    0  0.52521985256E+03 -0.35632259041E+03 -0.23328709762E+03  0.68213550899E+03  0.89801451824E+02 0.  0.
          3    1    3    3  502    0 -0.31275627321E+03 -0.66011431824E+02  0.39756074495E+03  0.51012600550E+03  0.00000000000E+00 0. -1.
         -2    1    3    3    0  502 -0.25730128278E+03 -0.37500936337E+02  0.44588282563E+03  0.51616059956E+03  0.00000000000E+00 0.  1.
         11    1    5    5    0    0  0.45805653865E+02  0.35187327863E+03 -0.20903475694E+03  0.41183551541E+03  0.00000000000E+00 0.  1.
        -11    1    5    5    0    0 -0.96795044106E+00  0.10796167994E+03 -0.12598642418E+03  0.16591937904E+03  0.00000000000E+00 0. -1.
          3    1    6    6  503    0  0.19605732838E+03 -0.14545836452E+03 -0.44980897057E+02  0.24823354512E+03  0.00000000000E+00 0. -1.
         -3    1    6    6    0  503  0.32916252418E+03 -0.21086422589E+03 -0.18830620056E+03  0.43390196388E+03  0.00000000000E+00 0.  1.
<mgrwt>
<rscale>  0 0.22695607E+04</rscale>
<asrwt>0</asrwt>
<pdfrwt beam="1">  1        1 0.19702402E+00 0.22695607E+04</pdfrwt>
<pdfrwt beam="2">  1       -2 0.15469552E+00 0.22695607E+04</pdfrwt>
<totfact> 0.20497133E+00</totfact>
</mgrwt>
</event>
<event>
12    4  0.4413110E-008  0.1111542E+04  0.7818608E-02  0.9194015E-01
          1   -1    0    0  501    0  0.00000000000E+00  0.00000000000E+00  0.89536620201E+03  0.89536620201E+03  0.00000000000E+00 0. -1.
         -2   -1    0    0    0  501 -0.00000000000E+00 -0.00000000000E+00 -0.34497745130E+03  0.34497745130E+03  0.00000000000E+00 0.  1.
        -24    2    1    2    0    0  0.14123311461E+03 -0.11635353018E+03  0.59997467560E+02  0.20861538410E+03  0.80223099676E+02 0.  0.
        254    2    1    2    0    0 -0.14123311461E+03  0.11635353018E+03  0.49039128315E+03  0.10317282692E+04  0.88909767418E+03 0.  0.
         23    2    4    4    0    0 -0.11822270571E+03 -0.84432420141E+02  0.70320741953E+03  0.72469229080E+03  0.97840685541E+02 0.  0.
         23    2    4    4    0    0 -0.23010408900E+02  0.20078595032E+03 -0.21281613638E+03  0.30703597840E+03  0.90199264761E+02 0.  0.
          1    1    3    3  502    0  0.14224069215E+03 -0.10934008177E+03  0.35205491762E+02  0.18283078142E+03  0.00000000000E+00 0. -1.
         -2    1    3    3    0  502 -0.10075775484E+01 -0.70134484164E+01  0.24791975798E+02  0.25784602676E+02  0.00000000000E+00 0.  1.
         11    1    5    5    0    0 -0.41405765064E+02 -0.89028394660E+02  0.39838542196E+03  0.41030651575E+03  0.00000000000E+00 0.  1.
        -11    1    5    5    0    0 -0.76816940642E+02  0.45959745187E+01  0.30482199757E+03  0.31438577505E+03  0.00000000000E+00 0. -1.
          1    1    6    6  503    0 -0.18783803598E+02  0.49842275656E+02 -0.10024392769E+02  0.54199374264E+02  0.00000000000E+00 0. -1.
         -1    1    6    6    0  503 -0.42266053021E+01  0.15094367467E+03 -0.20279174361E+03  0.25283660414E+03  0.00000000000E+00 0.  1.
<mgrwt>
<rscale>  0 0.11115415E+04</rscale>
<asrwt>0</asrwt>
<pdfrwt beam="1">  1        1 0.13774865E+00 0.11115415E+04</pdfrwt>
<pdfrwt beam="2">  1       -2 0.53073454E-01 0.11115415E+04</pdfrwt>
<totfact> 0.53629454E+01</totfact>
</mgrwt>
</event>
<event>
12    4  0.4413110E-008  0.1584412E+04  0.7818608E-02  0.8830182E-01
          3   -1    0    0  501    0  0.00000000000E+00  0.00000000000E+00  0.13961023097E+04  0.13961023097E+04  0.00000000000E+00 0. -1.
         -4   -1    0    0    0  501 -0.00000000000E+00 -0.00000000000E+00 -0.44953035517E+03  0.44953035517E+03  0.00000000000E+00 0.  1.
        -24    2    1    2    0    0  0.34181289292E+03  0.32262044056E+03  0.25427599552E+02  0.47723905930E+03  0.78680076702E+02 0.  0.
        254    2    1    2    0    0 -0.34181289292E+03 -0.32262044056E+03  0.92114435494E+03  0.13683936055E+04  0.89614403673E+03 0.  0.
         23    2    4    4    0    0 -0.36668259013E+03  0.22658040838E+03  0.29861707929E+03  0.53268847591E+03  0.93755260945E+02 0.  0.
         23    2    4    4    0    0  0.24869697213E+02 -0.54920084894E+03  0.62252727565E+03  0.83570512961E+03  0.92858927516E+02 0.  0.
          1    1    3    3  502    0  0.33575215667E+02  0.60818405870E+02  0.21792680554E+02  0.72808615736E+02  0.00000000000E+00 0. -1.
         -2    1    3    3    0  502  0.30823767725E+03  0.26180203469E+03  0.36349189978E+01  0.40443044357E+03  0.00000000000E+00 0.  1.
         11    1    5    5    0    0 -0.86212996357E+02  0.10384250189E+03  0.90764844569E+02  0.16264748061E+03  0.00000000000E+00 0. -1.
        -11    1    5    5    0    0 -0.28046959378E+03  0.12273790649E+03  0.20785223472E+03  0.37004099530E+03  0.00000000000E+00 0.  1.
          3    1    6    6  503    0 -0.94145052344E+01 -0.34089322287E+03  0.43959411781E+03  0.55636302062E+03  0.00000000000E+00 0. -1.
         -3    1    6    6    0  503  0.34284202447E+02 -0.20830762607E+03  0.18293315784E+03  0.27934210899E+03  0.00000000000E+00 0.  1.
<mgrwt>
<rscale>  0 0.15844120E+04</rscale>
<asrwt>0</asrwt>
<pdfrwt beam="1">  1        3 0.21478497E+00 0.15844120E+04</pdfrwt>
<pdfrwt beam="2">  1       -4 0.69158517E-01 0.15844120E+04</pdfrwt>
<totfact> 0.50508313E-01</totfact>
</mgrwt>
</event>
<event>
12    4  0.4413110E-008  0.2313660E+04  0.7818608E-02  0.8472555E-01
         -2   -1    0    0    0  501 -0.00000000000E+00  0.00000000000E+00  0.93113486706E+03  0.93113486706E+03  0.00000000000E+00 0.  1.
          1   -1    0    0  501    0  0.00000000000E+00 -0.00000000000E+00 -0.14372306443E+04  0.14372306443E+04  0.00000000000E+00 0. -1.
        -24    2    1    2    0    0 -0.41037683235E+03 -0.88280187774E+02  0.68564683554E+03  0.80784010830E+03  0.79319111205E+02 0.  0.
        254    2    1    2    0    0  0.41037683235E+03  0.88280187774E+02 -0.11917426128E+04  0.15605254030E+04  0.91585290433E+03 0.  0.
         23    2    4    4    0    0  0.41844123635E+03  0.42423904033E+03 -0.48865250848E+03  0.77609881288E+03  0.92066615541E+02 0.  0.
         23    2    4    4    0    0 -0.80644040039E+01 -0.33595885256E+03 -0.70309010428E+03  0.78442659015E+03  0.89755196951E+02 0.  0.
          1    1    3    3  502    0 -0.95808002116E+02 -0.26067018350E+02  0.10485002854E+03  0.14440287809E+03  0.00000000000E+00 0. -1.
         -2    1    3    3    0  502 -0.31456883023E+03 -0.62213169425E+02  0.58079680700E+03  0.66343723021E+03  0.00000000000E+00 0.  1.
         11    1    5    5    0    0  0.37128417168E+03  0.40532275958E+03 -0.42594409977E+03  0.69538971210E+03  0.00000000000E+00 0.  1.
        -11    1    5    5    0    0  0.47157064677E+02  0.18916280753E+02 -0.62708408703E+02  0.80709100779E+02  0.00000000000E+00 0. -1.
          4    1    6    6  503    0  0.62119903753E+01  0.39377223197E+01 -0.20031876138E+02  0.21339412904E+02  0.00000000000E+00 0. -1.
         -4    1    6    6    0  503 -0.14276394379E+02 -0.33989657487E+03 -0.68305822814E+03  0.76308717725E+03  0.00000000000E+00 0.  1.
<mgrwt>
<rscale>  0 0.23136599E+04</rscale>
<asrwt>0</asrwt>
<pdfrwt beam="1">  1        1 0.22111241E+00 0.23136599E+04</pdfrwt>
<pdfrwt beam="2">  1       -2 0.14325152E+00 0.23136599E+04</pdfrwt>
<totfact> 0.19396379E+00</totfact>
</mgrwt>
</event>
<event>
12    4  0.4413110E-008  0.9898007E+03  0.7818608E-02  0.9319803E-01
         -2   -1    0    0    0  501 -0.00000000000E+00  0.00000000000E+00  0.18152415703E+03  0.18152415703E+03  0.00000000000E+00 0.  1.
          1   -1    0    0  501    0  0.00000000000E+00 -0.00000000000E+00 -0.13492767977E+04  0.13492767977E+04  0.00000000000E+00 0. -1.
        -24    2    1    2    0    0  0.37597785860E+02 -0.82129953293E+02 -0.76781892198E+02  0.14358893597E+03  0.81014818605E+02 0.  0.
        254    2    1    2    0    0 -0.37597785860E+02  0.82129953293E+02 -0.10909707485E+04  0.13872120188E+04  0.85204523838E+03 0.  0.
         23    2    4    4    0    0  0.98216761711E+01  0.39556991466E+03 -0.94000089150E+03  0.10239405550E+04  0.90997589850E+02 0.  0.
         23    2    4    4    0    0 -0.47419462031E+02 -0.31343996137E+03 -0.15096985700E+03  0.36327146382E+03  0.93172120002E+02 0.  0.
          1    1    3    3  502    0 -0.22914181341E+02 -0.17047488476E+02 -0.42401940408E+01  0.28873098471E+02  0.00000000000E+00 0. -1.
         -2    1    3    3    0  502  0.60511967201E+02 -0.65082464817E+02 -0.72541698157E+02  0.11471583750E+03  0.00000000000E+00 0.  1.
         11    1    5    5    0    0  0.24369412680E+01  0.53231994187E+01 -0.71788219861E+02  0.72026548200E+02  0.00000000000E+00 0.  1.
        -11    1    5    5    0    0  0.73847349030E+01  0.39024671524E+03 -0.86821267164E+03  0.95191400676E+03  0.00000000000E+00 0. -1.
          3    1    6    6  503    0  0.77270079807E+01 -0.22954978543E+03 -0.97378591709E+02  0.24947024024E+03  0.00000000000E+00 0. -1.
         -3    1    6    6    0  503 -0.55146470012E+02 -0.83890175938E+02 -0.53591265287E+02  0.11380122358E+03  0.00000000000E+00 0.  1.
<mgrwt>
<rscale>  0 0.98980065E+03</rscale>
<asrwt>0</asrwt>
<pdfrwt beam="1">  1        1 0.20758105E+00 0.98980065E+03</pdfrwt>
<pdfrwt beam="2">  1       -2 0.27926793E-01 0.98980065E+03</pdfrwt>
<totfact> 0.85976565E+01</totfact>
</mgrwt>
</event>
<event>
12    4  0.4413110E-008  0.1113124E+04  0.7818608E-02  0.9192494E-01
          1   -1    0    0  501    0  0.00000000000E+00  0.00000000000E+00  0.42368603858E+03  0.42368603858E+03  0.00000000000E+00 0. -1.
         -2   -1    0    0    0  501 -0.00000000000E+00 -0.00000000000E+00 -0.73110981455E+03  0.73110981455E+03  0.00000000000E+00 0.  1.
        -24    2    1    2    0    0  0.10684491968E+03 -0.10346849871E+03 -0.16244800592E+03  0.23529771536E+03  0.82789450657E+02 0.  0.
        254    2    1    2    0    0 -0.10684491968E+03  0.10346849871E+03 -0.14497577006E+03  0.91949813777E+03  0.89573281975E+03 0.  0.
         23    2    4    4    0    0  0.16709139899E+03  0.43069426470E+03 -0.58567553889E+02  0.47436170239E+03  0.90397904085E+02 0.  0.
         23    2    4    4    0    0 -0.27393631867E+03 -0.32722576599E+03 -0.86408216169E+02  0.44513643538E+03  0.92532468173E+02 0.  0.
          3    1    3    3  502    0  0.56711713716E+02 -0.44699488287E+02 -0.22826673522E+02  0.75731893874E+02  0.00000000000E+00 0. -1.
         -4    1    3    3    0  502  0.50133205965E+02 -0.58769010423E+02 -0.13962133239E+03  0.15956582148E+03  0.00000000000E+00 0.  1.
         11    1    5    5    0    0  0.68518122147E+01  0.42537308453E+01  0.10882904347E+02  0.13545448082E+02  0.00000000000E+00 0. -1.
        -11    1    5    5    0    0  0.16023958677E+03  0.42644053386E+03 -0.69450458236E+02  0.46081625431E+03  0.00000000000E+00 0.  1.
          1    1    6    6  503    0 -0.77151613328E+01 -0.86925591614E+01 -0.22209314926E+02  0.25066670474E+02  0.00000000000E+00 0. -1.
         -1    1    6    6    0  503 -0.26622115733E+03 -0.31853320683E+03 -0.64198901243E+02  0.42006976491E+03  0.00000000000E+00 0.  1.
<mgrwt>
<rscale>  0 0.11131236E+04</rscale>
<asrwt>0</asrwt>
<pdfrwt beam="1">  1        1 0.65182468E-01 0.11131236E+04</pdfrwt>
<pdfrwt beam="2">  1       -2 0.11247843E+00 0.11131236E+04</pdfrwt>
<totfact> 0.30074613E+01</totfact>
</mgrwt>
</event>
<event>
12    4  0.4413110E-008  0.1295905E+04  0.7818608E-02  0.9032819E-01
          1   -1    0    0  501    0  0.00000000000E+00  0.00000000000E+00  0.12735613841E+04  0.12735613841E+04  0.00000000000E+00 0. -1.
         -2   -1    0    0    0  501 -0.00000000000E+00 -0.00000000000E+00 -0.32966037121E+03  0.32966037121E+03  0.00000000000E+00 0.  1.
        -24    2    1    2    0    0  0.92426028093E+02  0.40018535764E+02  0.64288509168E+03  0.65566179746E+03  0.80293820884E+02 0.  0.
        254    2    1    2    0    0 -0.92426028093E+02 -0.40018535764E+02  0.30101592120E+03  0.94755995783E+03  0.89281310194E+03 0.  0.
         23    2    4    4    0    0 -0.30678163153E+03  0.31155125240E+03  0.32491764521E+02  0.44784230244E+03  0.91257113534E+02 0.  0.
         23    2    4    4    0    0  0.21435560344E+03 -0.35156978817E+03  0.26852415668E+03  0.49971765540E+03  0.89793494863E+02 0.  0.
          3    1    3    3  502    0  0.47824704099E+02  0.55954933622E+02  0.27272009426E+03  0.28247903768E+03  0.00000000000E+00 0. -1.
         -4    1    3    3    0  502  0.44601323994E+02 -0.15936397857E+02  0.37016499742E+03  0.37318275977E+03  0.00000000000E+00 0.  1.
         11    1    5    5    0    0 -0.27062880696E+03  0.25226982751E+03  0.56731306689E+02  0.37429728584E+03  0.00000000000E+00 0. -1.
        -11    1    5    5    0    0 -0.36152824576E+02  0.59281424891E+02 -0.24239542168E+02  0.73545016598E+02  0.00000000000E+00 0.  1.
          1    1    6    6  503    0  0.20717199845E+03 -0.34992785800E+03  0.27415876065E+03  0.49044140199E+03  0.00000000000E+00 0. -1.
         -1    1    6    6    0  503  0.71836049896E+01 -0.16419301682E+01 -0.56346039741E+01  0.92762534069E+01  0.00000000000E+00 0.  1.
<mgrwt>
<rscale>  0 0.12959054E+04</rscale>
<asrwt>0</asrwt>
<pdfrwt beam="1">  1        1 0.19593252E+00 0.12959054E+04</pdfrwt>
<pdfrwt beam="2">  1       -2 0.50716981E-01 0.12959054E+04</pdfrwt>
<totfact> 0.29939841E+01</totfact>
</mgrwt>
</event>
<event>
12    4  0.4413110E-008  0.2323913E+04  0.7818608E-02  0.8468552E-01
         -2   -1    0    0    0  501 -0.00000000000E+00  0.00000000000E+00  0.81507557706E+03  0.81507557706E+03  0.00000000000E+00 0.  1.
          1   -1    0    0  501    0  0.00000000000E+00 -0.00000000000E+00 -0.16564629957E+04  0.16564629957E+04  0.00000000000E+00 0. -1.
        -24    2    1    2    0    0 -0.82062242887E+03 -0.53517178277E+03 -0.46024287118E+03  0.10853770930E+04  0.79937011531E+02 0.  0.
        254    2    1    2    0    0  0.82062242887E+03  0.53517178277E+03 -0.38114454749E+03  0.13861614797E+04  0.90351672593E+03 0.  0.
         23    2    4    4    0    0  0.57415445365E+03  0.36641577255E+03 -0.67087723236E+03  0.96058734219E+03  0.93476874461E+02 0.  0.
         23    2    4    4    0    0  0.24646797522E+03  0.16875601022E+03  0.28973268487E+03  0.42557413756E+03  0.89124991373E+02 0.  0.
          3    1    3    3  502    0 -0.23460057077E+03 -0.17219851727E+03 -0.10089970717E+03  0.30801056485E+03  0.00000000000E+00 0. -1.
         -4    1    3    3    0  502 -0.58602185810E+03 -0.36297326550E+03 -0.35934316402E+03  0.77736652820E+03  0.00000000000E+00 0.  1.
         11    1    5    5    0    0  0.44316339363E+03  0.30955071403E+03 -0.57120217820E+03  0.78643967753E+03  0.00000000000E+00 0.  1.
        -11    1    5    5    0    0  0.13099106002E+03  0.56865058519E+02 -0.99675054158E+02  0.17414766466E+03  0.00000000000E+00 0. -1.
          2    1    6    6  503    0  0.40686620161E+01 -0.98283846418E+01  0.98749364787E+01  0.14514321401E+02  0.00000000000E+00 0. -1.
         -2    1    6    6    0  503  0.24239931320E+03  0.17858439486E+03  0.27985774839E+03  0.41105981616E+03  0.00000000000E+00 0.  1.
<mgrwt>
<rscale>  0 0.23239127E+04</rscale>
<asrwt>0</asrwt>
<pdfrwt beam="1">  1        1 0.25484046E+00 0.23239127E+04</pdfrwt>
<pdfrwt beam="2">  1       -2 0.12539624E+00 0.23239127E+04</pdfrwt>
<totfact> 0.19233582E+00</totfact>
</mgrwt>
</event>
<event>
12    4  0.4413110E-008  0.1789167E+04  0.7818608E-02  0.8712081E-01
         -2   -1    0    0    0  501 -0.00000000000E+00  0.00000000000E+00  0.23451987821E+03  0.23451987821E+03  0.00000000000E+00 0.  1.
          1   -1    0    0  501    0  0.00000000000E+00 -0.00000000000E+00 -0.34124187601E+04  0.34124187601E+04  0.00000000000E+00 0. -1.
        -24    2    1    2    0    0 -0.43757424519E+03  0.27372333339E+03 -0.32765513934E+03  0.61688391791E+03  0.82414771462E+02 0.  0.
        254    2    1    2    0    0  0.43757424519E+03 -0.27372333339E+03 -0.28502437425E+04  0.30300547204E+04  0.88935174896E+03 0.  0.
         23    2    4    4    0    0  0.27123624356E+02 -0.48021858570E+03 -0.20024905600E+04  0.20613443140E+04  0.88466699583E+02 0.  0.
         23    2    4    4    0    0  0.41045062083E+03  0.20649525232E+03 -0.84775318252E+03  0.96871040637E+03  0.92759859645E+02 0.  0.
          3    1    3    3  502    0 -0.92300369090E+01  0.23631844733E+02 -0.26113229515E+02  0.36408219162E+02  0.00000000000E+00 0. -1.
         -4    1    3    3    0  502 -0.42834420828E+03  0.25009148865E+03 -0.30154190982E+03  0.58047569875E+03  0.00000000000E+00 0.  1.
         11    1    5    5    0    0 -0.16303983172E+02 -0.20516218167E+03 -0.71180463506E+03  0.74096098355E+03  0.00000000000E+00 0. -1.
        -11    1    5    5    0    0  0.43427607528E+02 -0.27505640403E+03 -0.12906859249E+04  0.13203833304E+04  0.00000000000E+00 0.  1.
          1    1    6    6  503    0  0.70358053185E+02  0.61714580056E+02 -0.23709833706E+03  0.25490109156E+03  0.00000000000E+00 0. -1.
         -1    1    6    6    0  503  0.34009256765E+03  0.14478067226E+03 -0.61065484546E+03  0.71380931481E+03  0.00000000000E+00 0.  1.
<mgrwt>
<rscale>  0 0.17891674E+04</rscale>
<asrwt>0</asrwt>
<pdfrwt beam="1">  1        1 0.52498751E+00 0.17891674E+04</pdfrwt>
<pdfrwt beam="2">  1       -2 0.36079981E-01 0.17891674E+04</pdfrwt>
<totfact> 0.17649262E+00</totfact>
</mgrwt>
</event>
<event>
12    4  0.4413110E-008  0.1464198E+04  0.7818608E-02  0.8908616E-01
         -2   -1    0    0    0  501 -0.00000000000E+00  0.00000000000E+00  0.49602807108E+03  0.49602807108E+03  0.00000000000E+00 0.  1.
          3   -1    0    0  501    0  0.00000000000E+00 -0.00000000000E+00 -0.10805207219E+04  0.10805207219E+04  0.00000000000E+00 0. -1.
        -24    2    1    2    0    0  0.31852704171E+03 -0.15125419568E+03 -0.26172518154E+03  0.44627989671E+03  0.79551037361E+02 0.  0.
        254    2    1    2    0    0 -0.31852704171E+03  0.15125419568E+03 -0.32276746924E+03  0.11302688962E+04  0.10242029245E+04 0.  0.
         23    2    4    4    0    0 -0.41833994517E+03 -0.28500071286E+03  0.80638359623E+02  0.52089368336E+03  0.92703658315E+02 0.  0.
         23    2    4    4    0    0  0.99812903466E+02  0.43625490853E+03 -0.40340582886E+03  0.60937521287E+03  0.91219111934E+02 0.  0.
          3    1    3    3  502    0  0.30189127297E+03 -0.13109272333E+03 -0.26113075148E+03  0.42013439775E+03  0.00000000000E+00 0. -1.
         -4    1    3    3    0  502  0.16635768735E+02 -0.20161472341E+02 -0.59443005813E+00  0.26145498952E+02  0.00000000000E+00 0.  1.
         11    1    5    5    0    0 -0.37018423122E+03 -0.21044545430E+03  0.64337143421E+02  0.43065406338E+03  0.00000000000E+00 0.  1.
        -11    1    5    5    0    0 -0.48155713948E+02 -0.74555258555E+02  0.16301216203E+02  0.90239619978E+02  0.00000000000E+00 0. -1.
          4    1    6    6  503    0  0.68672221158E+02  0.17097261780E+03 -0.21138572427E+03  0.28041297121E+03  0.00000000000E+00 0.  1.
         -4    1    6    6    0  503  0.31140682308E+02  0.26528229074E+03 -0.19202010459E+03  0.32896224166E+03  0.00000000000E+00 0. -1.
<mgrwt>
<rscale>  0 0.14641975E+04</rscale>
<asrwt>0</asrwt>
<pdfrwt beam="1">  1        3 0.16623396E+00 0.14641975E+04</pdfrwt>
<pdfrwt beam="2">  1       -2 0.76312012E-01 0.14641975E+04</pdfrwt>
<totfact> 0.15132847E+00</totfact>
</mgrwt>
</event>
<event>
12    4  0.4413110E-008  0.1505277E+04  0.7818608E-02  0.8880951E-01
         -2   -1    0    0    0  501 -0.00000000000E+00  0.00000000000E+00  0.69716032618E+03  0.69716032618E+03  0.00000000000E+00 0.  1.
          1   -1    0    0  501    0  0.00000000000E+00 -0.00000000000E+00 -0.81253149380E+03  0.81253149380E+03  0.00000000000E+00 0. -1.
        -24    2    1    2    0    0  0.14585344626E+03 -0.44788665937E+03 -0.69534773624E+02  0.48282719261E+03  0.80070754647E+02 0.  0.
        254    2    1    2    0    0 -0.14585344626E+03  0.44788665937E+03 -0.45836393999E+02  0.10268646274E+04  0.91130362695E+03 0.  0.
         23    2    4    4    0    0  0.33968780679E+03 -0.97331928963E+01 -0.36727008268E+02  0.35357656136E+03  0.90470826668E+02 0.  0.
         23    2    4    4    0    0 -0.48554125306E+03  0.45761985227E+03 -0.91093857307E+01  0.67328806601E+03  0.89819826920E+02 0.  0.
          3    1    3    3  502    0  0.47626085036E+01  0.20298671446E+01 -0.44679867319E+01  0.68385455924E+01  0.00000000000E+00 0. -1.
         -4    1    3    3    0  502  0.14109083776E+03 -0.44991652652E+03 -0.65066786892E+02  0.47598864702E+03  0.00000000000E+00 0.  1.
         11    1    5    5    0    0  0.33543039580E+03  0.39860747846E+00 -0.23319198962E+02  0.33624023310E+03  0.00000000000E+00 0.  1.
        -11    1    5    5    0    0  0.42574109962E+01 -0.10131800375E+02 -0.13407809307E+02  0.17336328262E+02  0.00000000000E+00 0. -1.
          1    1    6    6  503    0 -0.97494986785E+01  0.22813685886E+02 -0.14475640749E+02  0.28723877929E+02  0.00000000000E+00 0. -1.
         -1    1    6    6    0  503 -0.47579175438E+03  0.43480616638E+03  0.53662550187E+01  0.64456418808E+03  0.00000000000E+00 0.  1.
<mgrwt>
<rscale>  0 0.15052770E+04</rscale>
<asrwt>0</asrwt>
<pdfrwt beam="1">  1        1 0.12500484E+00 0.15052770E+04</pdfrwt>
<pdfrwt beam="2">  1       -2 0.10725544E+00 0.15052770E+04</pdfrwt>
<totfact> 0.12756205E+01</totfact>
</mgrwt>
</event>
<event>
12    4  0.4413110E-008  0.1377186E+04  0.7818608E-02  0.8970500E-01
          1   -1    0    0  501    0  0.00000000000E+00  0.00000000000E+00  0.29026628602E+04  0.29026628602E+04  0.00000000000E+00 0. -1.
         -2   -1    0    0    0  501 -0.00000000000E+00 -0.00000000000E+00 -0.16335361111E+03  0.16335361111E+03  0.00000000000E+00 0.  1.
        -24    2    1    2    0    0  0.82897822198E+02 -0.37757506197E+03  0.53390603113E+03  0.66326875126E+03  0.73721163655E+02 0.  0.
        254    2    1    2    0    0 -0.82897822198E+02  0.37757506197E+03  0.22054032179E+04  0.24027477200E+04  0.87175585807E+03 0.  0.
         23    2    4    4    0    0  0.98250925424E+02  0.46093422649E+03  0.53418595917E+03  0.71735263081E+03  0.84418910576E+02 0.  0.
         23    2    4    4    0    0 -0.18114874762E+03 -0.83359164518E+02  0.16712172588E+04  0.16853950892E+04  0.88463900444E+02 0.  0.
          3    1    3    3  502    0  0.64809265856E+01  0.16496365174E+01  0.90596650782E+01  0.11260605729E+02  0.00000000000E+00 0. -1.
         -4    1    3    3    0  502  0.76416895612E+02 -0.37922469849E+03  0.52484636605E+03  0.65200814553E+03  0.00000000000E+00 0.  1.
         11    1    5    5    0    0 -0.94828828522E+01  0.86006851337E+01  0.22993255122E+02  0.26317040736E+02  0.00000000000E+00 0. -1.
        -11    1    5    5    0    0  0.10773380828E+03  0.45233354136E+03  0.51119270405E+03  0.69103559008E+03  0.00000000000E+00 0.  1.
          2    1    6    6  503    0  0.39442795515E+00 -0.11973893099E+02  0.31420982661E+03  0.31443814150E+03  0.00000000000E+00 0. -1.
         -2    1    6    6    0  503 -0.18154317558E+03 -0.71385271419E+02  0.13570074322E+04  0.13709569477E+04  0.00000000000E+00 0.  1.
<mgrwt>
<rscale>  0 0.13771862E+04</rscale>
<asrwt>0</asrwt>
<pdfrwt beam="1">  1        1 0.44656348E+00 0.13771862E+04</pdfrwt>
<pdfrwt beam="2">  1       -2 0.25131327E-01 0.13771862E+04</pdfrwt>
<totfact> 0.86355518E+00</totfact>
</mgrwt>
</event>
<event>
12    4  0.4413110E-008  0.1800736E+04  0.7818608E-02  0.8705908E-01
          3   -1    0    0  501    0  0.00000000000E+00  0.00000000000E+00  0.75693556779E+03  0.75693556779E+03  0.00000000000E+00 0. -1.
         -4   -1    0    0    0  501 -0.00000000000E+00 -0.00000000000E+00 -0.10709797628E+04  0.10709797628E+04  0.00000000000E+00 0.  1.
        -24    2    1    2    0    0  0.45011346478E+03  0.10497007261E+02  0.38415913521E+03  0.59746897694E+03  0.81722817533E+02 0.  0.
        254    2    1    2    0    0 -0.45011346478E+03 -0.10497007261E+02 -0.69820333023E+03  0.12304463537E+04  0.90763319714E+03 0.  0.
         23    2    4    4    0    0 -0.65894104619E+03 -0.12868691347E+03 -0.26622245953E+03  0.72761575069E+03  0.88242045734E+02 0.  0.
         23    2    4    4    0    0  0.20882758141E+03  0.11818990621E+03 -0.43198087070E+03  0.50283060298E+03  0.93023276371E+02 0.  0.
          1    1    3    3  502    0  0.29265646366E+03  0.15583022086E+02  0.29775743392E+03  0.41779196469E+03  0.00000000000E+00 0. -1.
         -2    1    3    3    0  502  0.15745700112E+03 -0.50860148255E+01  0.86401701289E+02  0.17967701226E+03  0.00000000000E+00 0.  1.
         11    1    5    5    0    0 -0.18019380584E+02  0.10723638658E+02 -0.12028135899E+02  0.24173757588E+02  0.00000000000E+00 0. -1.
        -11    1    5    5    0    0 -0.64092166561E+03 -0.13941055213E+03 -0.25419432363E+03  0.70344199310E+03  0.00000000000E+00 0.  1.
          1    1    6    6  503    0  0.44070292557E+02  0.13620472933E+02 -0.27409749883E+02  0.53656335671E+02  0.00000000000E+00 0. -1.
         -1    1    6    6    0  503  0.16475728886E+03  0.10456943327E+03 -0.40457112082E+03  0.44917426730E+03  0.00000000000E+00 0.  1.
<mgrwt>
<rscale>  0 0.18007362E+04</rscale>
<asrwt>0</asrwt>
<pdfrwt beam="1">  1        3 0.11645163E+00 0.18007362E+04</pdfrwt>
<pdfrwt beam="2">  1       -4 0.16476612E+00 0.18007362E+04</pdfrwt>
<totfact> 0.30359661E-01</totfact>
</mgrwt>
</event>
<event>
12    4  0.4413110E-008  0.1663123E+04  0.7818608E-02  0.8782681E-01
          1   -1    0    0  501    0  0.00000000000E+00  0.00000000000E+00  0.29401341076E+04  0.29401341076E+04  0.00000000000E+00 0. -1.
         -2   -1    0    0    0  501 -0.00000000000E+00 -0.00000000000E+00 -0.23519152724E+03  0.23519152724E+03  0.00000000000E+00 0.  1.
        -24    2    1    2    0    0  0.45205049635E+03  0.36167260998E+03  0.10431647648E+04  0.11957841680E+04  0.80934058924E+02 0.  0.
        254    2    1    2    0    0 -0.45205049635E+03 -0.36167260998E+03  0.16617778156E+04  0.19795414668E+04  0.90659924033E+03 0.  0.
         23    2    4    4    0    0 -0.67587685555E+03 -0.52128710336E+02  0.10887353074E+04  0.12857609686E+04  0.91157953759E+02 0.  0.
         23    2    4    4    0    0  0.22382635920E+03 -0.30954389965E+03  0.57304250822E+03  0.69378049827E+03  0.83892780759E+02 0.  0.
          3    1    3    3  502    0  0.23450270623E+03  0.23028663501E+03  0.63364926185E+03  0.71381709179E+03  0.00000000000E+00 0. -1.
         -4    1    3    3    0  502  0.21754779012E+03  0.13138597498E+03  0.40951550296E+03  0.48196707623E+03  0.00000000000E+00 0.  1.
         11    1    5    5    0    0 -0.28864374019E+03 -0.27292360549E+02  0.55124997402E+03  0.62284557922E+03  0.00000000000E+00 0.  1.
        -11    1    5    5    0    0 -0.38723311536E+03 -0.24836349786E+02  0.53748533334E+03  0.66291538936E+03  0.00000000000E+00 0. -1.
          1    1    6    6  503    0  0.54389961848E+00  0.34448066799E+01 -0.25866749804E+00  0.34970600126E+01  0.00000000000E+00 0. -1.
         -1    1    6    6    0  503  0.22328245958E+03 -0.31298870633E+03  0.57330117572E+03  0.69028343825E+03  0.00000000000E+00 0.  1.
<mgrwt>
<rscale>  0 0.16631231E+04</rscale>
<asrwt>0</asrwt>
<pdfrwt beam="1">  1        1 0.45232830E+00 0.16631231E+04</pdfrwt>
<pdfrwt beam="2">  1       -2 0.36183314E-01 0.16631231E+04</pdfrwt>
<totfact> 0.39970680E+00</totfact>
</mgrwt>
</event>
<event>
12    4  0.4413110E-008  0.1187410E+04  0.7818608E-02  0.9123948E-01
         -2   -1    0    0    0  501 -0.00000000000E+00  0.00000000000E+00  0.16987150456E+03  0.16987150456E+03  0.00000000000E+00 0.  1.
          1   -1    0    0  501    0  0.00000000000E+00 -0.00000000000E+00 -0.20750133074E+04  0.20750133074E+04  0.00000000000E+00 0. -1.
        -24    2    1    2    0    0  0.18930663873E+02 -0.90826120256E+02 -0.83713717922E+03  0.84616058951E+03  0.81125410649E+02 0.  0.
        254    2    1    2    0    0 -0.18930663873E+02  0.90826120256E+02 -0.10680046236E+04  0.13987242225E+04  0.89843631952E+03 0.  0.
         23    2    4    4    0    0 -0.13018566436E+03  0.46669400488E+03 -0.67944486470E+03  0.83936861340E+03  0.90237152005E+02 0.  0.
         23    2    4    4    0    0  0.11125500048E+03 -0.37586788463E+03 -0.38855975895E+03  0.55935560906E+03  0.90805667725E+02 0.  0.
          1    1    3    3  502    0  0.10604514422E+02  0.12438113020E+02 -0.19884008262E+03  0.19951075369E+03  0.00000000000E+00 0. -1.
         -2    1    3    3    0  502  0.83261494504E+01 -0.10326423328E+03 -0.63829709661E+03  0.64664983583E+03  0.00000000000E+00 0.  1.
         11    1    5    5    0    0 -0.79790996065E+02  0.13167593045E+03 -0.20486180674E+03  0.25626844045E+03  0.00000000000E+00 0. -1.
        -11    1    5    5    0    0 -0.50394668291E+02  0.33501807443E+03 -0.47458305796E+03  0.58310017295E+03  0.00000000000E+00 0.  1.
          4    1    6    6  503    0  0.11785282969E+03 -0.25458425097E+03 -0.26007160146E+03  0.38254368142E+03  0.00000000000E+00 0. -1.
         -4    1    6    6    0  503 -0.65978292014E+01 -0.12128363366E+03 -0.12848815749E+03  0.17681192765E+03  0.00000000000E+00 0.  1.
<mgrwt>
<rscale>  0 0.11874100E+04</rscale>
<asrwt>0</asrwt>
<pdfrwt beam="1">  1        1 0.31923280E+00 0.11874100E+04</pdfrwt>
<pdfrwt beam="2">  1       -2 0.26134079E-01 0.11874100E+04</pdfrwt>
<totfact> 0.30572634E+01</totfact>
</mgrwt>
</event>
<event>
12    4  0.4413110E-008  0.1435785E+04  0.7818608E-02  0.8928316E-01
          1   -1    0    0  501    0  0.00000000000E+00  0.00000000000E+00  0.85275427067E+03  0.85275427067E+03  0.00000000000E+00 0. -1.
         -2   -1    0    0    0  501 -0.00000000000E+00 -0.00000000000E+00 -0.60435854136E+03  0.60435854136E+03  0.00000000000E+00 0.  1.
        -24    2    1    2    0    0  0.27910034366E+03 -0.26636613857E+03 -0.10766198335E+03  0.40819895029E+03  0.78659765772E+02 0.  0.
        254    2    1    2    0    0 -0.27910034366E+03  0.26636613857E+03  0.35605771266E+03  0.10489138617E+04  0.90807228401E+03 0.  0.
         23    2    4    4    0    0 -0.55042777747E+03  0.38386700428E+03  0.24907191920E+03  0.72135947454E+03  0.89431847756E+02 0.  0.
         23    2    4    4    0    0  0.27132743381E+03 -0.11750086571E+03  0.10698579345E+03  0.32755438719E+03  0.91765389927E+02 0.  0.
          1    1    3    3  502    0  0.28557652573E+02 -0.58233423075E+02 -0.37816882647E+02  0.75078543517E+02  0.00000000000E+00 0. -1.
         -2    1    3    3    0  502  0.25054269109E+03 -0.20813271550E+03 -0.69845100702E+02  0.33312040678E+03  0.00000000000E+00 0.  1.
         11    1    5    5    0    0 -0.24792860994E+02  0.36529998437E+02  0.33683951036E+02  0.55531390218E+02  0.00000000000E+00 0.  1.
        -11    1    5    5    0    0 -0.52563491647E+03  0.34733700585E+03  0.21538796816E+03  0.66582808433E+03  0.00000000000E+00 0. -1.
          1    1    6    6  503    0  0.26340830835E+03 -0.10826232103E+03  0.76731394084E+02  0.29494469634E+03  0.00000000000E+00 0. -1.
         -1    1    6    6    0  503  0.79191254525E+01 -0.92385446831E+01  0.30254399371E+02  0.32609690846E+02  0.00000000000E+00 0.  1.
<mgrwt>
<rscale>  0 0.14357846E+04</rscale>
<asrwt>0</asrwt>
<pdfrwt beam="1">  1        1 0.13119296E+00 0.14357846E+04</pdfrwt>
<pdfrwt beam="2">  1       -2 0.92978238E-01 0.14357846E+04</pdfrwt>
<totfact> 0.16633657E+01</totfact>
</mgrwt>
</event>
<event>
12    4  0.4413110E-008  0.1518234E+04  0.7818608E-02  0.8872417E-01
          1   -1    0    0  501    0  0.00000000000E+00  0.00000000000E+00  0.59516669052E+03  0.59516669052E+03  0.00000000000E+00 0. -1.
         -2   -1    0    0    0  501 -0.00000000000E+00 -0.00000000000E+00 -0.96823018203E+03  0.96823018203E+03  0.00000000000E+00 0.  1.
        -24    2    1    2    0    0 -0.13797826412E+03 -0.38295299460E+03 -0.40135524877E+03  0.57762520047E+03  0.82908618717E+02 0.  0.
        254    2    1    2    0    0  0.13797826412E+03  0.38295299460E+03  0.28291757260E+02  0.98577167209E+03  0.89735966508E+03 0.  0.
         23    2    4    4    0    0 -0.17093548526E+03  0.94107429826E+01 -0.32436694187E+03  0.37922292452E+03  0.96377441838E+02 0.  0.
         23    2    4    4    0    0  0.30891374938E+03  0.37354225162E+03  0.35265869913E+03  0.60654874757E+03  0.92583512572E+02 0.  0.
          3    1    3    3  502    0 -0.15060624399E+02 -0.14738442265E+03 -0.12020544803E+03  0.19078349033E+03  0.00000000000E+00 0. -1.
         -4    1    3    3    0  502 -0.12291763972E+03 -0.23556857196E+03 -0.28114980074E+03  0.38684171014E+03  0.00000000000E+00 0.  1.
         11    1    5    5    0    0 -0.16431644927E+02 -0.31381748389E+02 -0.43706987486E+02  0.56259344487E+02  0.00000000000E+00 0.  1.
        -11    1    5    5    0    0 -0.15450384034E+03  0.40792491372E+02 -0.28065995439E+03  0.32296358003E+03  0.00000000000E+00 0. -1.
          2    1    6    6  503    0  0.15495837278E+03  0.17679307957E+03  0.22742049870E+03  0.32709016112E+03  0.00000000000E+00 0. -1.
         -2    1    6    6    0  503  0.15395537661E+03  0.19674917205E+03  0.12523820044E+03  0.27945858644E+03  0.00000000000E+00 0.  1.
<mgrwt>
<rscale>  0 0.15182336E+04</rscale>
<asrwt>0</asrwt>
<pdfrwt beam="1">  1        1 0.91564108E-01 0.15182336E+04</pdfrwt>
<pdfrwt beam="2">  1       -2 0.14895849E+00 0.15182336E+04</pdfrwt>
<totfact> 0.89334699E+00</totfact>
</mgrwt>
</event>
<event>
12    4  0.4413110E-008  0.1768327E+04  0.7818608E-02  0.8723326E-01
         -2   -1    0    0    0  501 -0.00000000000E+00  0.00000000000E+00  0.31365413914E+03  0.31365413914E+03  0.00000000000E+00 0.  1.
          1   -1    0    0  501    0  0.00000000000E+00 -0.00000000000E+00 -0.24923798630E+04  0.24923798630E+04  0.00000000000E+00 0. -1.
        -24    2    1    2    0    0  0.15690071170E+03  0.53096084470E+03 -0.13558112825E+04  0.14668931484E+04  0.83749764226E+02 0.  0.
        254    2    1    2    0    0 -0.15690071170E+03 -0.53096084470E+03 -0.82291444132E+03  0.13391408537E+04  0.89976263342E+03 0.  0.
         23    2    4    4    0    0  0.27536932834E+03 -0.48500193011E+03 -0.65130846919E+03  0.86269984952E+03  0.94832321097E+02 0.  0.
         23    2    4    4    0    0 -0.43227004005E+03 -0.45958914585E+02 -0.17160597214E+03  0.47644100422E+03  0.92616475218E+02 0.  0.
          3    1    3    3  502    0  0.15401462079E+03  0.43692727747E+03 -0.11758881479E+04  0.12638587285E+04  0.00000000000E+00 0. -1.
         -4    1    3    3    0  502  0.28860909169E+01  0.94033567228E+02 -0.17992313464E+03  0.20303441990E+03  0.00000000000E+00 0.  1.
         11    1    5    5    0    0  0.76462763644E+02 -0.10611463776E+03 -0.21434068647E+03  0.25109520196E+03  0.00000000000E+00 0. -1.
        -11    1    5    5    0    0  0.19890656470E+03 -0.37888729235E+03 -0.43696778272E+03  0.61160464756E+03  0.00000000000E+00 0.  1.
          2    1    6    6  503    0 -0.73624770335E+02 -0.43769839642E+02 -0.28102842346E+02  0.90145301691E+02  0.00000000000E+00 0. -1.
         -2    1    6    6    0  503 -0.35864526971E+03 -0.21890749436E+01 -0.14350312979E+03  0.38629570253E+03  0.00000000000E+00 0.  1.
<mgrwt>
<rscale>  0 0.17683272E+04</rscale>
<asrwt>0</asrwt>
<pdfrwt beam="1">  1        1 0.38344307E+00 0.17683272E+04</pdfrwt>
<pdfrwt beam="2">  1       -2 0.48254481E-01 0.17683272E+04</pdfrwt>
<totfact> 0.46413844E+00</totfact>
</mgrwt>
</event>
<event>
12    4  0.4413110E-008  0.1292673E+04  0.7818608E-02  0.9035396E-01
         -2   -1    0    0    0  501 -0.00000000000E+00  0.00000000000E+00  0.15110070970E+03  0.15110070970E+03  0.00000000000E+00 0.  1.
          1   -1    0    0  501    0  0.00000000000E+00 -0.00000000000E+00 -0.27647191082E+04  0.27647191082E+04  0.00000000000E+00 0. -1.
        -24    2    1    2    0    0  0.42365008260E+02 -0.13318551841E+03 -0.13330835024E+04  0.13428023482E+04  0.80457104245E+02 0.  0.
        254    2    1    2    0    0 -0.42365008260E+02  0.13318551841E+03 -0.12805348961E+04  0.15730174698E+04  0.90281845558E+03 0.  0.
         23    2    4    4    0    0 -0.23590240524E+03  0.45749748992E+03 -0.67523933679E+03  0.85367867202E+03  0.88686047504E+02 0.  0.
         23    2    4    4    0    0  0.19353739698E+03 -0.32431197151E+03 -0.60529555932E+03  0.71933879773E+03  0.91818369036E+02 0.  0.
          3    1    3    3  502    0  0.26801760745E+02 -0.14039486701E+03 -0.12334011228E+04  0.12416550981E+04  0.00000000000E+00 0. -1.
         -4    1    3    3    0  502  0.15563247515E+02  0.72093486062E+01 -0.99682379628E+02  0.10114725003E+03  0.00000000000E+00 0.  1.
         11    1    5    5    0    0 -0.14345592555E+03  0.28306628775E+03 -0.34357243647E+03  0.46770519020E+03  0.00000000000E+00 0. -1.
        -11    1    5    5    0    0 -0.92446479693E+02  0.17443120217E+03 -0.33166690032E+03  0.38597348182E+03  0.00000000000E+00 0.  1.
          1    1    6    6  503    0  0.15479458704E+03 -0.31010789646E+03 -0.52552741446E+03  0.62952945521E+03  0.00000000000E+00 0. -1.
         -1    1    6    6    0  503  0.38742809945E+02 -0.14204075054E+02 -0.79768144862E+02  0.89809342528E+02  0.00000000000E+00 0.  1.
<mgrwt>
<rscale>  0 0.12926732E+04</rscale>
<asrwt>0</asrwt>
<pdfrwt beam="1">  1        1 0.42534140E+00 0.12926732E+04</pdfrwt>
<pdfrwt beam="2">  1       -2 0.23246263E-01 0.12926732E+04</pdfrwt>
<totfact> 0.12562143E+01</totfact>
</mgrwt>
</event>
<event>
12    4  0.4413110E-008  0.3336203E+04  0.7818608E-02  0.8153744E-01
          1   -1    0    0  501    0  0.00000000000E+00  0.00000000000E+00  0.21082329953E+04  0.21082329953E+04  0.00000000000E+00 0. -1.
         -2   -1    0    0    0  501 -0.00000000000E+00 -0.00000000000E+00 -0.13198550971E+04  0.13198550971E+04  0.00000000000E+00 0.  1.
        -24    2    1    2    0    0  0.28750266630E+03  0.98016513607E+03  0.15550815136E+04  0.18622541736E+04  0.79565169797E+02 0.  0.
        254    2    1    2    0    0 -0.28750266630E+03 -0.98016513607E+03 -0.76670361529E+03  0.15658339188E+04  0.90588075947E+03 0.  0.
         23    2    4    4    0    0 -0.97649146154E+01 -0.10143347808E+04 -0.75773191409E+03  0.12694624453E+04  0.91688849417E+02 0.  0.
         23    2    4    4    0    0 -0.27773775168E+03  0.34169644779E+02 -0.89717012088E+01  0.29637147351E+03  0.97209750301E+02 0.  0.
          1    1    3    3  502    0  0.25455909148E+03  0.92856292019E+03  0.14753773339E+04  0.17617513176E+04  0.00000000000E+00 0. -1.
         -2    1    3    3    0  502  0.32943574818E+02  0.51602215879E+02  0.79704179700E+02  0.10050285601E+03  0.00000000000E+00 0.  1.
         11    1    5    5    0    0 -0.48903146739E+02 -0.40832933627E+03 -0.30475654645E+03  0.51186025166E+03  0.00000000000E+00 0. -1.
        -11    1    5    5    0    0  0.39138232124E+02 -0.60600544458E+03 -0.45297536763E+03  0.75760219361E+03  0.00000000000E+00 0.  1.
          4    1    6    6  503    0 -0.26964731406E+03  0.53745544562E+02 -0.10337431757E+02  0.27514563423E+03  0.00000000000E+00 0. -1.
         -4    1    6    6    0  503 -0.80904376221E+01 -0.19575899782E+02  0.13657305478E+01  0.21225839280E+02  0.00000000000E+00 0.  1.
<mgrwt>
<rscale>  0 0.33362027E+04</rscale>
<asrwt>0</asrwt>
<pdfrwt beam="1">  1        1 0.32434354E+00 0.33362027E+04</pdfrwt>
<pdfrwt beam="2">  1       -2 0.20305463E+00 0.33362027E+04</pdfrwt>
<totfact> 0.23242040E-01</totfact>
</mgrwt>
</event>
<event>
12    4  0.5289540E-008  0.1323952E+04  0.7818608E-02  0.9010784E-01
         -4   -1    0    0    0  501 -0.00000000000E+00  0.00000000000E+00  0.38814118819E+03  0.38814118819E+03  0.00000000000E+00 0.  1.
          3   -1    0    0  501    0  0.00000000000E+00 -0.00000000000E+00 -0.11290022105E+04  0.11290022105E+04  0.00000000000E+00 0. -1.
        -24    2    1    2    0    0 -0.79010194915E+02  0.27075270040E+03 -0.47210092710E+03  0.55549493364E+03  0.78394516789E+02 0.  0.
        254    2    1    2    0    0  0.79010194915E+02 -0.27075270040E+03 -0.26876009524E+03  0.96164846508E+03  0.87919630682E+03 0.  0.
         23    2    4    4    0    0  0.23744471437E+03  0.19792656781E+03  0.10047061907E+03  0.33739566989E+03  0.90479689080E+02 0.  0.
         23    2    4    4    0    0 -0.15843451945E+03 -0.46867926821E+03 -0.36923071430E+03  0.62425279519E+03  0.92727981308E+02 0.  0.
          3    1    3    3  502    0 -0.74012081307E+02  0.25413799797E+03 -0.38843254909E+03  0.47004654598E+03  0.00000000000E+00 0. -1.
         -4    1    3    3    0  502 -0.49981136081E+01  0.16614702430E+02 -0.83668378008E+02  0.85448387667E+02  0.00000000000E+00 0.  1.
         11    1    5    5    0    0  0.42399872206E+01  0.25140255002E+02  0.28747846275E+02  0.38424582999E+02  0.00000000000E+00 0. -1.
        -11    1    5    5    0    0  0.23320472715E+03  0.17278631281E+03  0.71722772791E+02  0.29897108689E+03  0.00000000000E+00 0.  1.
          3    1    6    6  503    0 -0.10669424136E+03 -0.22236030526E+03 -0.13880003164E+03  0.28300744739E+03  0.00000000000E+00 0. -1.
         -3    1    6    6    0  503 -0.51740278096E+02 -0.24631896295E+03 -0.23043068266E+03  0.34124534780E+03  0.00000000000E+00 0.  1.
<mgrwt>
<rscale>  0 0.13239521E+04</rscale>
<asrwt>0</asrwt>
<pdfrwt beam="1">  1        3 0.17369265E+00 0.13239521E+04</pdfrwt>
<pdfrwt beam="2">  1       -4 0.59714029E-01 0.13239521E+04</pdfrwt>
<totfact> 0.13011427E+00</totfact>
</mgrwt>
</event>
<event>
12    4  0.4413110E-008  0.1661462E+04  0.7818608E-02  0.8783654E-01
         -2   -1    0    0    0  501 -0.00000000000E+00  0.00000000000E+00  0.61116513571E+03  0.61116513571E+03  0.00000000000E+00 0.  1.
          1   -1    0    0  501    0  0.00000000000E+00 -0.00000000000E+00 -0.11291777009E+04  0.11291777009E+04  0.00000000000E+00 0. -1.
        -24    2    1    2    0    0  0.45872625404E+03  0.58567234977E+02  0.19000266037E+03  0.50614764398E+03  0.78895686866E+02 0.  0.
        254    2    1    2    0    0 -0.45872625404E+03 -0.58567234977E+02 -0.70801522551E+03  0.12341951926E+04  0.89893955119E+03 0.  0.
         23    2    4    4    0    0  0.95243693859E+01 -0.14817731879E+02  0.19240033582E+03  0.21413439772E+03  0.92332942503E+02 0.  0.
         23    2    4    4    0    0 -0.46825062342E+03 -0.43749503098E+02 -0.90041556133E+03  0.10200607949E+04  0.92753311468E+02 0.  0.
          3    1    3    3  502    0  0.14786538275E+03 -0.57836398329E+00  0.95010174204E+02  0.17575960606E+03  0.00000000000E+00 0. -1.
         -4    1    3    3    0  502  0.31086087128E+03  0.59145598960E+02  0.94992486169E+02  0.33038803792E+03  0.00000000000E+00 0.  1.
         11    1    5    5    0    0  0.17328632986E+02 -0.29965273818E+02  0.19395888966E+03  0.19702347585E+03  0.00000000000E+00 0. -1.
        -11    1    5    5    0    0 -0.78042635998E+01  0.15147541938E+02 -0.15585538419E+01  0.17110921869E+02  0.00000000000E+00 0.  1.
          3    1    6    6  503    0 -0.38784200712E+03 -0.10904068334E+01 -0.74665733692E+03  0.84137969446E+03  0.00000000000E+00 0. -1.
         -3    1    6    6    0  503 -0.80408616297E+02 -0.42659096264E+02 -0.15375822441E+03  0.17868110041E+03  0.00000000000E+00 0.  1.
<mgrwt>
<rscale>  0 0.16614621E+04</rscale>
<asrwt>0</asrwt>
<pdfrwt beam="1">  1        1 0.17371965E+00 0.16614621E+04</pdfrwt>
<pdfrwt beam="2">  1       -2 0.94025405E-01 0.16614621E+04</pdfrwt>
<totfact> 0.96360547E+00</totfact>
</mgrwt>
</event>
<event>
12    4  0.4413110E-008  0.1675126E+04  0.7818608E-02  0.8775679E-01
         -2   -1    0    0    0  501 -0.00000000000E+00  0.00000000000E+00  0.71275579958E+03  0.71275579958E+03  0.00000000000E+00 0.  1.
          1   -1    0    0  501    0  0.00000000000E+00 -0.00000000000E+00 -0.98422480793E+03  0.98422480793E+03  0.00000000000E+00 0. -1.
        -24    2    1    2    0    0  0.44554617605E+03  0.36515347697E+03 -0.27986623330E+03  0.64508842103E+03  0.77236685987E+02 0.  0.
        254    2    1    2    0    0 -0.44554617605E+03 -0.36515347697E+03  0.83972249536E+01  0.10518921865E+04  0.88008988283E+03 0.  0.
         23    2    4    4    0    0 -0.39946836840E+03 -0.46887149735E+03  0.32637079541E+03  0.70294094552E+03  0.90513084223E+02 0.  0.
         23    2    4    4    0    0 -0.46077807651E+02  0.10371802038E+03 -0.31797357045E+03  0.34895124096E+03  0.88199687927E+02 0.  0.
          1    1    3    3  502    0  0.32057192047E+03  0.30492191445E+03 -0.21689149556E+03  0.49273283933E+03  0.00000000000E+00 0. -1.
         -2    1    3    3    0  502  0.12497425558E+03  0.60231562527E+02 -0.62974737746E+02  0.15235558170E+03  0.00000000000E+00 0.  1.
         11    1    5    5    0    0 -0.17160498669E+03 -0.13491117428E+03  0.11329322622E+03  0.24593627531E+03  0.00000000000E+00 0.  1.
        -11    1    5    5    0    0 -0.22786338170E+03 -0.33396032307E+03  0.21307756918E+03  0.45700467021E+03  0.00000000000E+00 0. -1.
          1    1    6    6  503    0 -0.19395828807E+01 -0.93865717698E+01 -0.11411863330E+01  0.96525653371E+01  0.00000000000E+00 0. -1.
         -1    1    6    6    0  503 -0.44138224770E+02  0.11310459215E+03 -0.31683238412E+03  0.33929867562E+03  0.00000000000E+00 0.  1.
<mgrwt>
<rscale>  0 0.16751262E+04</rscale>
<asrwt>0</asrwt>
<pdfrwt beam="1">  1        1 0.15141920E+00 0.16751262E+04</pdfrwt>
<pdfrwt beam="2">  1       -2 0.10965474E+00 0.16751262E+04</pdfrwt>
<totfact> 0.86159256E+00</totfact>
</mgrwt>
</event>
<event>
12    4  0.4413110E-008  0.1311038E+04  0.7818608E-02  0.9020857E-01
          1   -1    0    0  501    0  0.00000000000E+00  0.00000000000E+00  0.30398562998E+03  0.30398562998E+03  0.00000000000E+00 0. -1.
         -2   -1    0    0    0  501 -0.00000000000E+00 -0.00000000000E+00 -0.14135710538E+04  0.14135710538E+04  0.00000000000E+00 0.  1.
        -24    2    1    2    0    0  0.32277372866E+03 -0.13861520265E+02 -0.18239381957E+03  0.38304619233E+03  0.95298784802E+02 0.  0.
        254    2    1    2    0    0 -0.32277372866E+03  0.13861520265E+02 -0.92719160421E+03  0.13345104914E+04  0.90380250006E+03 0.  0.
         23    2    4    4    0    0 -0.49705985512E+02 -0.33408205980E+03 -0.57838293682E+02  0.35486056889E+03  0.92191363266E+02 0.  0.
         23    2    4    4    0    0 -0.27306774314E+03  0.34794358006E+03 -0.86935331052E+03  0.97964992252E+03  0.91148587073E+02 0.  0.
          3    1    3    3  502    0  0.10585792185E+03  0.17042123246E+02 -0.10661609594E+03  0.15120623498E+03  0.00000000000E+00 0. -1.
         -4    1    3    3    0  502  0.21691580681E+03 -0.30903643511E+02 -0.75777723633E+02  0.23183995735E+03  0.00000000000E+00 0.  1.
         11    1    5    5    0    0 -0.52042884204E+02 -0.32626557311E+03 -0.72344130743E+02  0.33821791680E+03  0.00000000000E+00 0. -1.
        -11    1    5    5    0    0  0.23368986919E+01 -0.78164866888E+01  0.14505837060E+02  0.16642652087E+02  0.00000000000E+00 0.  1.
          4    1    6    6  503    0 -0.20820504719E+03  0.31171512558E+03 -0.68440079863E+03  0.78033333541E+03  0.00000000000E+00 0. -1.
         -4    1    6    6    0  503 -0.64862695959E+02  0.36228454480E+02 -0.18495251189E+03  0.19931658711E+03  0.00000000000E+00 0.  1.
<mgrwt>
<rscale>  0 0.13110382E+04</rscale>
<asrwt>0</asrwt>
<pdfrwt beam="1">  1        1 0.46767021E-01 0.13110382E+04</pdfrwt>
<pdfrwt beam="2">  1       -2 0.21747247E+00 0.13110382E+04</pdfrwt>
<totfact> 0.75725194E+00</totfact>
</mgrwt>
</event>
<event>
12    4  0.4413110E-008  0.1512870E+04  0.7818608E-02  0.8875939E-01
          1   -1    0    0  501    0  0.00000000000E+00  0.00000000000E+00  0.73479447105E+03  0.73479447105E+03  0.00000000000E+00 0. -1.
         -2   -1    0    0    0  501 -0.00000000000E+00 -0.00000000000E+00 -0.77871276456E+03  0.77871276456E+03  0.00000000000E+00 0.  1.
        -24    2    1    2    0    0  0.36864221902E+03 -0.16792434145E+03 -0.28852995209E+03  0.50413381136E+03  0.82496644853E+02 0.  0.
        254    2    1    2    0    0 -0.36864221902E+03  0.16792434145E+03  0.24461165858E+03  0.10093734243E+04  0.89157398794E+03 0.  0.
         23    2    4    4    0    0  0.83211101389E+02 -0.10399775367E+03  0.41729192299E+03  0.44757188417E+03  0.91915299835E+02 0.  0.
         23    2    4    4    0    0 -0.45185332041E+03  0.27192209512E+03 -0.17268026441E+03  0.56180154008E+03  0.87689496211E+02 0.  0.
          1    1    3    3  502    0  0.14225777659E+03 -0.56220458465E+02 -0.15810414093E+03  0.21998848681E+03  0.00000000000E+00 0. -1.
         -4    1    3    3    0  502  0.22638444244E+03 -0.11170388298E+03 -0.13042581116E+03  0.28414532456E+03  0.00000000000E+00 0.  1.
         11    1    5    5    0    0 -0.11029836853E+02  0.68052072175E+01  0.67632475380E+02  0.68863051576E+02  0.00000000000E+00 0.  1.
        -11    1    5    5    0    0  0.94240938241E+02 -0.11080296088E+03  0.34965944761E+03  0.37870883259E+03  0.00000000000E+00 0. -1.
          1    1    6    6  503    0 -0.30845675462E+03  0.16612570316E+03 -0.15374588210E+03  0.38259785020E+03  0.00000000000E+00 0. -1.
         -1    1    6    6    0  503 -0.14339656580E+03  0.10579639196E+03 -0.18934382310E+02  0.17920368988E+03  0.00000000000E+00 0.  1.
<mgrwt>
<rscale>  0 0.15128699E+04</rscale>
<asrwt>0</asrwt>
<pdfrwt beam="1">  1        1 0.11304530E+00 0.15128699E+04</pdfrwt>
<pdfrwt beam="2">  1       -2 0.11980196E+00 0.15128699E+04</pdfrwt>
<totfact> 0.11407737E+01</totfact>
</mgrwt>
</event>
<event>
12    4  0.4413110E-008  0.1887228E+04  0.7818608E-02  0.8661240E-01
          1   -1    0    0  501    0  0.00000000000E+00  0.00000000000E+00  0.77020737539E+03  0.77020737539E+03  0.00000000000E+00 0. -1.
         -2   -1    0    0    0  501 -0.00000000000E+00 -0.00000000000E+00 -0.11560615951E+04  0.11560615951E+04  0.00000000000E+00 0.  1.
        -24    2    1    2    0    0  0.52489799060E+03  0.21722282114E+03  0.32092389219E+03  0.65726857946E+03  0.79411500497E+02 0.  0.
        254    2    1    2    0    0 -0.52489799060E+03 -0.21722282114E+03 -0.70677811189E+03  0.12690003910E+04  0.88776294043E+03 0.  0.
         23    2    4    4    0    0  0.31804772012E+02 -0.43596647929E+03 -0.33122095002E+03  0.55646672943E+03  0.94178493511E+02 0.  0.
         23    2    4    4    0    0 -0.55670276261E+03  0.21874365815E+03 -0.37555716187E+03  0.71253366159E+03  0.94309507406E+02 0.  0.
          1    1    3    3  502    0  0.24410644997E+03  0.10101656887E+03  0.19485018935E+03  0.32826651123E+03  0.00000000000E+00 0. -1.
         -2    1    3    3    0  502  0.28079154063E+03  0.11620625227E+03  0.12607370284E+03  0.32900206824E+03  0.00000000000E+00 0.  1.
         11    1    5    5    0    0 -0.24958521807E+02 -0.28114657108E+03 -0.21038614028E+03  0.35203501284E+03  0.00000000000E+00 0.  1.
        -11    1    5    5    0    0  0.56763293819E+02 -0.15481990821E+03 -0.12083480974E+03  0.20443171659E+03  0.00000000000E+00 0. -1.
          3    1    6    6  503    0 -0.49012929136E+03  0.16284490839E+03 -0.34152283342E+03  0.61917932151E+03  0.00000000000E+00 0. -1.
         -3    1    6    6    0  503 -0.66573471250E+02  0.55898749753E+02 -0.34034328448E+02  0.93354340077E+02  0.00000000000E+00 0.  1.
<mgrwt>
<rscale>  0 0.18872278E+04</rscale>
<asrwt>0</asrwt>
<pdfrwt beam="1">  1        1 0.11849344E+00 0.18872278E+04</pdfrwt>
<pdfrwt beam="2">  1       -2 0.17785563E+00 0.18872278E+04</pdfrwt>
<totfact> 0.36146826E+00</totfact>
</mgrwt>
</event>
<event>
12    4  0.4413110E-008  0.1746656E+04  0.7818608E-02  0.8735193E-01
          1   -1    0    0  501    0  0.00000000000E+00  0.00000000000E+00  0.58737136266E+03  0.58737136266E+03  0.00000000000E+00 0. -1.
         -2   -1    0    0    0  501 -0.00000000000E+00 -0.00000000000E+00 -0.12984998977E+04  0.12984998977E+04  0.00000000000E+00 0.  1.
        -24    2    1    2    0    0 -0.13547327788E+03  0.13098992593E+03 -0.92134281055E+03  0.94325751720E+03  0.73149159257E+02 0.  0.
        254    2    1    2    0    0  0.13547327788E+03 -0.13098992593E+03  0.21021427547E+03  0.94261374319E+03  0.89934379273E+03 0.  0.
         23    2    4    4    0    0 -0.33598154615E+03  0.28765241029E+02 -0.80352812009E+02  0.35843974837E+03  0.91167101341E+02 0.  0.
         23    2    4    4    0    0  0.47145482403E+03 -0.15975516696E+03  0.29056708748E+03  0.58417399482E+03  0.95071864570E+02 0.  0.
          1    1    3    3  502    0 -0.78665701162E+02  0.27675271614E+02 -0.42491128581E+03  0.43301710591E+03  0.00000000000E+00 0. -1.
         -4    1    3    3    0  502 -0.56807576718E+02  0.10331465431E+03 -0.49643152474E+03  0.51024041130E+03  0.00000000000E+00 0.  1.
         11    1    5    5    0    0 -0.23593500299E+02  0.55120265799E+01 -0.34040200518E+02  0.41782423873E+02  0.00000000000E+00 0. -1.
        -11    1    5    5    0    0 -0.31238804585E+03  0.23253214449E+02 -0.46312611491E+02  0.31665732449E+03  0.00000000000E+00 0.  1.
          1    1    6    6  503    0  0.29818022395E+02 -0.11131799017E+02  0.51271609146E+02  0.60347405191E+02  0.00000000000E+00 0. -1.
         -1    1    6    6    0  503  0.44163680163E+03 -0.14862336794E+03  0.23929547833E+03  0.52382658963E+03  0.00000000000E+00 0.  1.
<mgrwt>
<rscale>  0 0.17466558E+04</rscale>
<asrwt>0</asrwt>
<pdfrwt beam="1">  1        1 0.90364826E-01 0.17466558E+04</pdfrwt>
<pdfrwt beam="2">  1       -2 0.19976921E+00 0.17466558E+04</pdfrwt>
<totfact> 0.39075513E+00</totfact>
</mgrwt>
</event>
<event>
12    4  0.4413110E-008  0.3258539E+04  0.7818608E-02  0.8173526E-01
         -2   -1    0    0    0  501 -0.00000000000E+00  0.00000000000E+00  0.22167309167E+04  0.22167309167E+04  0.00000000000E+00 0.  1.
          1   -1    0    0  501    0  0.00000000000E+00 -0.00000000000E+00 -0.11974926329E+04  0.11974926329E+04  0.00000000000E+00 0. -1.
        -24    2    1    2    0    0 -0.15613270728E+03  0.67652742911E+03  0.18669745701E+04  0.19934550717E+04  0.78754636754E+02 0.  0.
        254    2    1    2    0    0  0.15613270728E+03 -0.67652742911E+03 -0.84773628637E+03  0.14207684779E+04  0.90435583252E+03 0.  0.
         23    2    4    4    0    0  0.50215093259E+03 -0.20815375566E+03 -0.39912491737E+03  0.68004473999E+03  0.87616229231E+02 0.  0.
         23    2    4    4    0    0 -0.34601822532E+03 -0.46837367345E+03 -0.44861136900E+03  0.74072373787E+03  0.91197506579E+02 0.  0.
          1    1    3    3  502    0 -0.10371202596E+03  0.38276244401E+03  0.11665878247E+04  0.12321487027E+04  0.00000000000E+00 0. -1.
         -2    1    3    3    0  502 -0.52420681320E+02  0.29376498510E+03  0.70038674549E+03  0.76130636905E+03  0.00000000000E+00 0.  1.
         11    1    5    5    0    0  0.49331129688E+03 -0.19860376421E+03 -0.40209951711E+03  0.66669596702E+03  0.00000000000E+00 0.  1.
        -11    1    5    5    0    0  0.88396357141E+01 -0.95499914466E+01  0.29745997348E+01  0.13348772969E+02  0.00000000000E+00 0. -1.
          2    1    6    6  503    0 -0.23298627489E+03 -0.24282385700E+03 -0.27306955585E+03  0.43337398647E+03  0.00000000000E+00 0. -1.
         -2    1    6    6    0  503 -0.11303195042E+03 -0.22554981645E+03 -0.17554181315E+03  0.30734975140E+03  0.00000000000E+00 0.  1.
<mgrwt>
<rscale>  0 0.32585389E+04</rscale>
<asrwt>0</asrwt>
<pdfrwt beam="1">  1        1 0.18422964E+00 0.32585389E+04</pdfrwt>
<pdfrwt beam="2">  1       -2 0.34103553E+00 0.32585389E+04</pdfrwt>
<totfact> 0.13887033E-01</totfact>
</mgrwt>
</event>
<event>
12    4  0.4413110E-008  0.1818895E+04  0.7818608E-02  0.8696315E-01
          1   -1    0    0  501    0  0.00000000000E+00  0.00000000000E+00  0.12968111923E+04  0.12968111923E+04  0.00000000000E+00 0. -1.
         -2   -1    0    0    0  501 -0.00000000000E+00 -0.00000000000E+00 -0.63779106672E+03  0.63779106672E+03  0.00000000000E+00 0.  1.
        -24    2    1    2    0    0 -0.15098978921E+03 -0.63443204456E+03  0.48097955881E+03  0.81417494342E+03  0.78978268418E+02 0.  0.
        254    2    1    2    0    0  0.15098978921E+03  0.63443204456E+03  0.17804056680E+03  0.11204273156E+04  0.89350824876E+03 0.  0.
         23    2    4    4    0    0 -0.94916264037E+02 -0.19482734503E+03  0.26266763297E+02  0.23751931541E+03  0.93587877353E+02 0.  0.
         23    2    4    4    0    0  0.24590605324E+03  0.82925938959E+03  0.15177380351E+03  0.88290800024E+03  0.91380124846E+02 0.  0.
          3    1    3    3  502    0 -0.10142425969E+03 -0.50597901101E+03  0.34558368471E+03  0.62107143162E+03  0.00000000000E+00 0. -1.
         -4    1    3    3    0  502 -0.49565529513E+02 -0.12845303355E+03  0.13539587410E+03  0.19310351180E+03  0.00000000000E+00 0.  1.
         11    1    5    5    0    0 -0.92632665089E+02 -0.14899734854E+03  0.54411252729E+02  0.18368888082E+03  0.00000000000E+00 0.  1.
        -11    1    5    5    0    0 -0.22835989479E+01 -0.45829996486E+02 -0.28144489433E+02  0.53830434584E+02  0.00000000000E+00 0. -1.
          3    1    6    6  503    0  0.10097782064E+03  0.20285144781E+03  0.30946774775E+02  0.22869834500E+03  0.00000000000E+00 0. -1.
         -3    1    6    6    0  503  0.14492823260E+03  0.62640794178E+03  0.12082702873E+03  0.65420965524E+03  0.00000000000E+00 0.  1.
<mgrwt>
<rscale>  0 0.18188948E+04</rscale>
<asrwt>0</asrwt>
<pdfrwt beam="1">  1        1 0.19950941E+00 0.18188948E+04</pdfrwt>
<pdfrwt beam="2">  1       -2 0.98121703E-01 0.18188948E+04</pdfrwt>
<totfact> 0.64926936E+00</totfact>
</mgrwt>
</event>
<event>
12    4  0.5077186E-008  0.2356353E+04  0.7818608E-02  0.8456027E-01
          1   -1    0    0  501    0  0.00000000000E+00  0.00000000000E+00  0.15383182600E+04  0.15383182600E+04  0.00000000000E+00 0. -1.
         -2   -1    0    0    0  501 -0.00000000000E+00 -0.00000000000E+00 -0.90234913211E+03  0.90234913211E+03  0.00000000000E+00 0.  1.
        -24    2    1    2    0    0  0.40311500911E+03  0.64667678163E+03  0.95770092638E+03  0.12264779143E+04  0.79777436918E+02 0.  0.
        254    2    1    2    0    0 -0.40311500911E+03 -0.64667678163E+03 -0.32173179844E+03  0.12141894778E+04  0.88884878775E+03 0.  0.
         23    2    4    4    0    0  0.19560360862E+03 -0.30992931662E+03 -0.35808959871E+03  0.52019396654E+03  0.89758838687E+02 0.  0.
         23    2    4    4    0    0 -0.59871861773E+03 -0.33674746502E+03  0.36357800261E+02  0.69399551129E+03  0.91896907657E+02 0.  0.
          3    1    3    3  502    0  0.35916574913E+03  0.59436441508E+03  0.83507750360E+03  0.10861047511E+04  0.00000000000E+00 0. -1.
         -4    1    3    3    0  502  0.43949259978E+02  0.52312366550E+02  0.12262342278E+03  0.14037316325E+03  0.00000000000E+00 0.  1.
         11    1    5    5    0    0  0.46298454956E+02 -0.14756195825E+03 -0.12101657194E+03  0.19637486891E+03  0.00000000000E+00 0. -1.
        -11    1    5    5    0    0  0.14930515367E+03 -0.16236735836E+03 -0.23707302677E+03  0.32381909764E+03  0.00000000000E+00 0.  1.
          2    1    6    6  503    0 -0.10813196486E+03 -0.25738651134E+02  0.19758015129E+02  0.11289543458E+03  0.00000000000E+00 0. -1.
         -2    1    6    6    0  503 -0.49058665287E+03 -0.31100881388E+03  0.16599785132E+02  0.58110007671E+03  0.00000000000E+00 0.  1.
<mgrwt>
<rscale>  0 0.23563532E+04</rscale>
<asrwt>0</asrwt>
<pdfrwt beam="1">  1        1 0.23666435E+00 0.23563532E+04</pdfrwt>
<pdfrwt beam="2">  1       -2 0.13882294E+00 0.23563532E+04</pdfrwt>
<totfact> 0.17844694E+00</totfact>
</mgrwt>
</event>
<event>
12    4  0.4413110E-008  0.1182061E+04  0.7818608E-02  0.9128705E-01
          1   -1    0    0  501    0  0.00000000000E+00  0.00000000000E+00  0.18653233042E+04  0.18653233042E+04  0.00000000000E+00 0. -1.
         -2   -1    0    0    0  501 -0.00000000000E+00 -0.00000000000E+00 -0.18726883929E+03  0.18726883929E+03  0.00000000000E+00 0.  1.
        -24    2    1    2    0    0  0.36798641988E+02 -0.25351546523E+03  0.10240684975E+03  0.28690764850E+03  0.78769313396E+02 0.  0.
        254    2    1    2    0    0 -0.36798641988E+02  0.25351546523E+03  0.15756476151E+04  0.17656844950E+04  0.75455423764E+03 0.  0.
         23    2    4    4    0    0  0.32692664086E+03  0.19810553003E+03  0.58255221370E+03  0.70239013811E+03  0.88645332042E+02 0.  0.
         23    2    4    4    0    0 -0.36372528285E+03  0.55409935197E+02  0.99309540142E+03  0.10632943568E+04  0.94815983256E+02 0.  0.
          3    1    3    3  502    0  0.97259722236E+01  0.27197666241E+01  0.63161403184E+01  0.11911561388E+02  0.00000000000E+00 0. -1.
         -4    1    3    3    0  502  0.27072669765E+02 -0.25623523185E+03  0.96090709434E+02  0.27499608712E+03  0.00000000000E+00 0.  1.
         11    1    5    5    0    0  0.32266696662E+03  0.19662660150E+03  0.53700577918E+03  0.65662104645E+03  0.00000000000E+00 0. -1.
        -11    1    5    5    0    0  0.42596742455E+01  0.14789285276E+01  0.45546434514E+02  0.45769091658E+02  0.00000000000E+00 0.  1.
          3    1    6    6  503    0 -0.35187389313E+03  0.72313053901E+02  0.94363041167E+03  0.10096943935E+04  0.00000000000E+00 0. -1.
         -3    1    6    6    0  503 -0.11851389717E+02 -0.16903118704E+02  0.49464989750E+02  0.53599963350E+02  0.00000000000E+00 0.  1.
<mgrwt>
<rscale>  0 0.11820608E+04</rscale>
<asrwt>0</asrwt>
<pdfrwt beam="1">  1        1 0.28697280E+00 0.11820608E+04</pdfrwt>
<pdfrwt beam="2">  1       -2 0.28810592E-01 0.11820608E+04</pdfrwt>
<totfact> 0.35419377E+01</totfact>
</mgrwt>
</event>
<event>
12    4  0.4413110E-008  0.1650869E+04  0.7818608E-02  0.8789893E-01
         -2   -1    0    0    0  501 -0.00000000000E+00  0.00000000000E+00  0.10604880027E+04  0.10604880027E+04  0.00000000000E+00 0.  1.
          1   -1    0    0  501    0  0.00000000000E+00 -0.00000000000E+00 -0.64247974948E+03  0.64247974948E+03  0.00000000000E+00 0. -1.
        -24    2    1    2    0    0 -0.46965356413E+03 -0.17488696422E+03  0.43777908316E+03  0.67050400524E+03  0.82250682937E+02 0.  0.
        254    2    1    2    0    0  0.46965356413E+03  0.17488696422E+03 -0.19770829979E+02  0.10324637469E+04  0.90245807791E+03 0.  0.
         23    2    4    4    0    0  0.18635653933E+03  0.32135805943E+03  0.36183099770E+03  0.52665760376E+03  0.91906466577E+02 0.  0.
         23    2    4    4    0    0  0.28329702480E+03 -0.14647109521E+03 -0.38160182767E+03  0.50580614313E+03  0.92243772451E+02 0.  0.
          1    1    3    3  502    0 -0.43276571426E+02  0.58399950528E+01  0.26089662319E+02  0.50868827945E+02  0.00000000000E+00 0. -1.
         -2    1    3    3    0  502 -0.42637699270E+03 -0.18072695927E+03  0.41168942084E+03  0.61963517730E+03  0.00000000000E+00 0.  1.
         11    1    5    5    0    0 -0.51946113626E+01  0.51447106805E+02  0.48544399760E+02  0.70924942960E+02  0.00000000000E+00 0.  1.
        -11    1    5    5    0    0  0.19155115069E+03  0.26991095262E+03  0.31328659794E+03  0.45573266080E+03  0.00000000000E+00 0. -1.
          4    1    6    6  503    0  0.25349428449E+03 -0.15932304586E+03 -0.34841930990E+03  0.45939003115E+03  0.00000000000E+00 0. -1.
         -4    1    6    6    0  503  0.29802740304E+02  0.12851950655E+02 -0.33182517775E+02  0.46416111978E+02  0.00000000000E+00 0.  1.
<mgrwt>
<rscale>  0 0.16508689E+04</rscale>
<asrwt>0</asrwt>
<pdfrwt beam="1">  1        1 0.98843038E-01 0.16508689E+04</pdfrwt>
<pdfrwt beam="2">  1       -2 0.16315200E+00 0.16508689E+04</pdfrwt>
<totfact> 0.61849415E+00</totfact>
</mgrwt>
</event>
<event>
12    4  0.4413110E-008  0.1759304E+04  0.7818608E-02  0.8728246E-01
          1   -1    0    0  501    0  0.00000000000E+00  0.00000000000E+00  0.25924808613E+04  0.25924808613E+04  0.00000000000E+00 0. -1.
         -2   -1    0    0    0  501 -0.00000000000E+00 -0.00000000000E+00 -0.29847377026E+03  0.29847377026E+03  0.00000000000E+00 0.  1.
        -24    2    1    2    0    0 -0.50087838764E+02 -0.11471128956E+03 -0.19282848241E+03  0.24309412734E+03  0.79021892994E+02 0.  0.
        254    2    1    2    0    0  0.50087838764E+02  0.11471128956E+03  0.24868355735E+04  0.26478605043E+04  0.90063677967E+03 0.  0.
         23    2    4    4    0    0  0.10144317999E+03 -0.11775798012E+03  0.23518192525E+04  0.23588027452E+04  0.93482263899E+02 0.  0.
         23    2    4    4    0    0 -0.51355341229E+02  0.23246926968E+03  0.13501632102E+03  0.28905775910E+03  0.92981980693E+02 0.  0.
          1    1    3    3  502    0 -0.62994342170E+02 -0.48834688269E+02 -0.89206154632E+02  0.11962797310E+03  0.00000000000E+00 0. -1.
         -2    1    3    3    0  502  0.12906503406E+02 -0.65876601286E+02 -0.10362232778E+03  0.12346615424E+03  0.00000000000E+00 0.  1.
         11    1    5    5    0    0  0.10558531385E+03 -0.60800175788E+02  0.17695740646E+04  0.17737635947E+04  0.00000000000E+00 0. -1.
        -11    1    5    5    0    0 -0.41421338567E+01 -0.56957804337E+02  0.58224518790E+03  0.58503915047E+03  0.00000000000E+00 0.  1.
          2    1    6    6  503    0 -0.37085137745E+02  0.21625938734E+03  0.86315636684E+02  0.23578341585E+03  0.00000000000E+00 0. -1.
         -2    1    6    6    0  503 -0.14270203484E+02  0.16209882337E+02  0.48700684341E+02  0.53274343244E+02  0.00000000000E+00 0.  1.
<mgrwt>
<rscale>  0 0.17593039E+04</rscale>
<asrwt>0</asrwt>
<pdfrwt beam="1">  1        1 0.39884319E+00 0.17593039E+04</pdfrwt>
<pdfrwt beam="2">  1       -2 0.45919043E-01 0.17593039E+04</pdfrwt>
<totfact> 0.43745542E+00</totfact>
</mgrwt>
</event>
<event>
12    4  0.4413110E-008  0.1441463E+04  0.7818608E-02  0.8924341E-01
          1   -1    0    0  501    0  0.00000000000E+00  0.00000000000E+00  0.57740926251E+03  0.57740926251E+03  0.00000000000E+00 0. -1.
         -2   -1    0    0    0  501 -0.00000000000E+00 -0.00000000000E+00 -0.89962837784E+03  0.89962837784E+03  0.00000000000E+00 0.  1.
        -24    2    1    2    0    0  0.51360521032E+01  0.12557397273E+02  0.35356890406E+03  0.35933115395E+03  0.62640570110E+02 0.  0.
        254    2    1    2    0    0 -0.51360521032E+01 -0.12557397273E+02 -0.67578801939E+03  0.11177064864E+04  0.89016530787E+03 0.  0.
         23    2    4    4    0    0 -0.33201998951E+03  0.27605623170E+03 -0.37923235724E+03  0.58204827154E+03  0.92296766616E+02 0.  0.
         23    2    4    4    0    0  0.32688393741E+03 -0.28861362897E+03 -0.29655566215E+03  0.53565821486E+03  0.93986844985E+02 0.  0.
          3    1    3    3  502    0  0.71851525932E+01 -0.49216554537E+01  0.32896926995E+03  0.32908453273E+03  0.00000000000E+00 0. -1.
         -4    1    3    3    0  502 -0.20491004901E+01  0.17479052726E+02  0.24599634118E+02  0.30246621229E+02  0.00000000000E+00 0.  1.
         11    1    5    5    0    0 -0.46017993122E+01  0.26176147537E+02 -0.85223525574E+01  0.27910531165E+02  0.00000000000E+00 0.  1.
        -11    1    5    5    0    0 -0.32741819020E+03  0.24988008416E+03 -0.37071000468E+03  0.55413774037E+03  0.00000000000E+00 0. -1.
          4    1    6    6  503    0  0.19083195888E+03 -0.22252516028E+03 -0.17326840440E+03  0.34052345507E+03  0.00000000000E+00 0.  1.
         -4    1    6    6    0  503  0.13605197853E+03 -0.66088468685E+02 -0.12328725775E+03  0.19513475979E+03  0.00000000000E+00 0. -1.
<mgrwt>
<rscale>  0 0.14414628E+04</rscale>
<asrwt>0</asrwt>
<pdfrwt beam="1">  1        1 0.88832194E-01 0.14414628E+04</pdfrwt>
<pdfrwt beam="2">  1       -2 0.13840437E+00 0.14414628E+04</pdfrwt>
<totfact> 0.11382296E+01</totfact>
</mgrwt>
</event>
<event>
12    4  0.4413110E-008  0.2133680E+04  0.7818608E-02  0.8546550E-01
          1   -1    0    0  501    0  0.00000000000E+00  0.00000000000E+00  0.23515853588E+04  0.23515853588E+04  0.00000000000E+00 0. -1.
         -4   -1    0    0    0  501 -0.00000000000E+00 -0.00000000000E+00 -0.48399166575E+03  0.48399166575E+03  0.00000000000E+00 0.  1.
        -24    2    1    2    0    0 -0.52269983027E+03  0.48405668152E+03  0.14488730404E+04  0.16164905478E+04  0.79262983646E+02 0.  0.
        254    2    1    2    0    0  0.52269983027E+03 -0.48405668152E+03  0.41872065273E+03  0.12190864768E+04  0.89628057513E+03 0.  0.
         23    2    4    4    0    0  0.51570115283E+03 -0.71194615043E+03  0.40644927181E+03  0.97276819740E+03  0.90895297819E+02 0.  0.
         23    2    4    4    0    0  0.69986774410E+01  0.22788946892E+03  0.12271380925E+02  0.24631827938E+03  0.92409504051E+02 0.  0.
          1    1    3    3  502    0 -0.39042325542E+03  0.40375125957E+03  0.11128182214E+04  0.12465190700E+04  0.00000000000E+00 0. -1.
         -2    1    3    3    0  502 -0.13227657486E+03  0.80305421951E+02  0.33605481897E+03  0.36997147782E+03  0.00000000000E+00 0.  1.
         11    1    5    5    0    0  0.16905043433E+02 -0.79780287224E+01  0.20090567805E+02  0.27441945093E+02  0.00000000000E+00 0. -1.
        -11    1    5    5    0    0  0.49879610940E+03 -0.70396812171E+03  0.38635870400E+03  0.94532625231E+03  0.00000000000E+00 0.  1.
          2    1    6    6  503    0 -0.94241638020E+01 -0.90948751962E+00  0.14027763472E+02  0.16923952817E+02  0.00000000000E+00 0. -1.
         -2    1    6    6    0  503  0.16422841243E+02  0.22879895644E+03 -0.17563825465E+01  0.22939432657E+03  0.00000000000E+00 0.  1.
<mgrwt>
<rscale>  0 0.21336801E+04</rscale>
<asrwt>0</asrwt>
<pdfrwt beam="1">  1        1 0.36178236E+00 0.21336801E+04</pdfrwt>
<pdfrwt beam="2">  1       -4 0.74460257E-01 0.21336801E+04</pdfrwt>
<totfact> 0.12683433E+00</totfact>
</mgrwt>
</event>
<event>
12    4  0.4413110E-008  0.1961103E+04  0.7818608E-02  0.8625025E-01
          1   -1    0    0  501    0  0.00000000000E+00  0.00000000000E+00  0.78130130450E+03  0.78130130450E+03  0.00000000000E+00 0. -1.
         -2   -1    0    0    0  501 -0.00000000000E+00 -0.00000000000E+00 -0.12306153821E+04  0.12306153821E+04  0.00000000000E+00 0.  1.
        -24    2    1    2    0    0 -0.65567391783E+03 -0.87506583699E+01 -0.59588221105E+03  0.88937106764E+03  0.76944304300E+02 0.  0.
        254    2    1    2    0    0  0.65567391783E+03  0.87506583699E+01  0.14656813344E+03  0.11225456190E+04  0.89924501020E+03 0.  0.
         23    2    4    4    0    0  0.69398060781E+03 -0.27967169282E+03  0.25952248266E+03  0.79717749732E+03  0.91184995688E+02 0.  0.
         23    2    4    4    0    0 -0.38306689979E+02  0.28842235119E+03 -0.11295434923E+03  0.32536812165E+03  0.91928637631E+02 0.  0.
          1    1    3    3  502    0 -0.74553528674E+02  0.93021687783E+01 -0.40586371936E+02  0.85393281753E+02  0.00000000000E+00 0. -1.
         -2    1    3    3    0  502 -0.58112038916E+03 -0.18052827148E+02 -0.55529583912E+03  0.80397778589E+03  0.00000000000E+00 0.  1.
         11    1    5    5    0    0  0.49309720995E+03 -0.15356573836E+03  0.18412511978E+03  0.54829677566E+03  0.00000000000E+00 0. -1.
        -11    1    5    5    0    0  0.20088339786E+03 -0.12610595445E+03  0.75397362882E+02  0.24888072166E+03  0.00000000000E+00 0.  1.
          3    1    6    6  503    0 -0.49493393619E+02  0.28683168017E+03 -0.11650967358E+03  0.31352274686E+03  0.00000000000E+00 0. -1.
         -3    1    6    6    0  503  0.11186703640E+02  0.15906710167E+01  0.35553243586E+01  0.11845374790E+02  0.00000000000E+00 0.  1.
<mgrwt>
<rscale>  0 0.19611032E+04</rscale>
<asrwt>0</asrwt>
<pdfrwt beam="1">  1        1 0.12020020E+00 0.19611032E+04</pdfrwt>
<pdfrwt beam="2">  1       -2 0.18932544E+00 0.19611032E+04</pdfrwt>
<totfact> 0.29312355E+00</totfact>
</mgrwt>
</event>
<event>
12    4  0.4413110E-008  0.1579789E+04  0.7818608E-02  0.8833062E-01
          1   -1    0    0  501    0  0.00000000000E+00  0.00000000000E+00  0.49994686115E+03  0.49994686115E+03  0.00000000000E+00 0. -1.
         -2   -1    0    0    0  501 -0.00000000000E+00 -0.00000000000E+00 -0.12479986342E+04  0.12479986342E+04  0.00000000000E+00 0.  1.
        -24    2    1    2    0    0 -0.26697385832E+03 -0.15223785240E+03 -0.72342173807E+03  0.79005850332E+03  0.80012641734E+02 0.  0.
        254    2    1    2    0    0  0.26697385832E+03  0.15223785240E+03 -0.24630035012E+02  0.95788699206E+03  0.90691203885E+03 0.  0.
         23    2    4    4    0    0  0.16177925052E+03  0.16209433654E+03 -0.44848059782E+03  0.51166744210E+03  0.90673176032E+02 0.  0.
         23    2    4    4    0    0  0.10519460780E+03 -0.98564841439E+01  0.42385056280E+03  0.44621954996E+03  0.91101763917E+02 0.  0.
          1    1    3    3  502    0 -0.65548473235E+02 -0.80204547777E+02 -0.24403562542E+03  0.26510895553E+03  0.00000000000E+00 0. -1.
         -2    1    3    3    0  502 -0.20142538508E+03 -0.72033304622E+02 -0.47938611265E+03  0.52494954780E+03  0.00000000000E+00 0.  1.
         11    1    5    5    0    0  0.15958705233E+03  0.13773437925E+03 -0.33674127051E+03  0.39728260692E+03  0.00000000000E+00 0. -1.
        -11    1    5    5    0    0  0.21921981873E+01  0.24359957298E+02 -0.11173932730E+03  0.11438483518E+03  0.00000000000E+00 0.  1.
          4    1    6    6  503    0  0.66340217645E+02 -0.19341095663E+02  0.38249823058E+03  0.38869010645E+03  0.00000000000E+00 0. -1.
         -4    1    6    6    0  503  0.38854390156E+02  0.94846115193E+01  0.41352332228E+02  0.57529443511E+02  0.00000000000E+00 0.  1.
<mgrwt>
<rscale>  0 0.15797886E+04</rscale>
<asrwt>0</asrwt>
<pdfrwt beam="1">  1        1 0.76914903E-01 0.15797886E+04</pdfrwt>
<pdfrwt beam="2">  1       -2 0.19199979E+00 0.15797886E+04</pdfrwt>
<totfact> 0.55954545E+00</totfact>
</mgrwt>
</event>
<event>
12    4  0.4413110E-008  0.2062705E+04  0.7818608E-02  0.8577852E-01
         -2   -1    0    0    0  501 -0.00000000000E+00  0.00000000000E+00  0.17631287822E+04  0.17631287822E+04  0.00000000000E+00 0.  1.
          1   -1    0    0  501    0  0.00000000000E+00 -0.00000000000E+00 -0.60329558899E+03  0.60329558899E+03  0.00000000000E+00 0. -1.
        -24    2    1    2    0    0 -0.59268323367E+01  0.30552339709E+03  0.13488010328E+04  0.13852952322E+04  0.79993628736E+02 0.  0.
        254    2    1    2    0    0  0.59268323367E+01 -0.30552339709E+03 -0.18896783966E+03  0.98112913897E+03  0.91297637943E+03 0.  0.
         23    2    4    4    0    0  0.87005303489E+02  0.19445524288E+03 -0.36912357818E+03  0.43567470432E+03  0.90429351966E+02 0.  0.
         23    2    4    4    0    0 -0.81078471152E+02 -0.49997863997E+03  0.18015573853E+03  0.54545443464E+03  0.92260995234E+02 0.  0.
          3    1    3    3  502    0  0.17606623241E+01  0.16070112939E+03  0.53293161314E+03  0.55663637791E+03  0.00000000000E+00 0. -1.
         -4    1    3    3    0  502 -0.76874946608E+01  0.14482226770E+03  0.81586941970E+03  0.82865885429E+03  0.00000000000E+00 0.  1.
         11    1    5    5    0    0  0.11952293359E+02  0.69602816741E+02 -0.55327602214E+02  0.89713727943E+02  0.00000000000E+00 0.  1.
        -11    1    5    5    0    0  0.75053010130E+02  0.12485242614E+03 -0.31379597597E+03  0.34596097638E+03  0.00000000000E+00 0. -1.
          2    1    6    6  503    0 -0.70436319770E+02 -0.49118998552E+03  0.18670549660E+03  0.53017715858E+03  0.00000000000E+00 0. -1.
         -2    1    6    6    0  503 -0.10642151382E+02 -0.87886544452E+01 -0.65497580785E+01  0.15277276062E+02  0.00000000000E+00 0.  1.
<mgrwt>
<rscale>  0 0.20627048E+04</rscale>
<asrwt>0</asrwt>
<pdfrwt beam="1">  1        1 0.92814707E-01 0.20627048E+04</pdfrwt>
<pdfrwt beam="2">  1       -2 0.27125058E+00 0.20627048E+04</pdfrwt>
<totfact> 0.13077290E+00</totfact>
</mgrwt>
</event>
<event>
12    4  0.4413110E-008  0.1864778E+04  0.7818608E-02  0.8672590E-01
         -2   -1    0    0    0  501 -0.00000000000E+00  0.00000000000E+00  0.10838276562E+04  0.10838276562E+04  0.00000000000E+00 0.  1.
          1   -1    0    0  501    0  0.00000000000E+00 -0.00000000000E+00 -0.80211063679E+03  0.80211063679E+03  0.00000000000E+00 0. -1.
        -24    2    1    2    0    0 -0.19425462124E+03 -0.99788148913E+02 -0.58082820308E+03  0.62576265768E+03  0.80777284646E+02 0.  0.
        254    2    1    2    0    0  0.19425462124E+03  0.99788148913E+02  0.86254522251E+03  0.12601756353E+04  0.89239332050E+03 0.  0.
         23    2    4    4    0    0 -0.32120353753E+03  0.19255931848E+03  0.35128971183E+03  0.52131834606E+03  0.90097461937E+02 0.  0.
         23    2    4    4    0    0  0.51545815877E+03 -0.92771169571E+02  0.51125551068E+03  0.73885728927E+03  0.10111524795E+03 0.  0.
          3    1    3    3  502    0 -0.12421036630E+03 -0.59108052119E+02 -0.46131070609E+03  0.48138294992E+03  0.00000000000E+00 0. -1.
         -4    1    3    3    0  502 -0.70044254942E+02 -0.40680096795E+02 -0.11951749700E+03  0.14437970776E+03  0.00000000000E+00 0.  1.
         11    1    5    5    0    0 -0.20186833453E+03  0.16305178812E+03  0.26661549541E+03  0.37204909956E+03  0.00000000000E+00 0.  1.
        -11    1    5    5    0    0 -0.11933520300E+03  0.29507530360E+02  0.84674216424E+02  0.14926924650E+03  0.00000000000E+00 0. -1.
          3    1    6    6  503    0  0.35134494034E+03 -0.93110222059E+02  0.29962365802E+03  0.47104895393E+03  0.00000000000E+00 0. -1.
         -3    1    6    6    0  503  0.16411321843E+03  0.33905248761E+00  0.21163185265E+03  0.26780833534E+03  0.00000000000E+00 0.  1.
<mgrwt>
<rscale>  0 0.18647785E+04</rscale>
<asrwt>0</asrwt>
<pdfrwt beam="1">  1        1 0.12340164E+00 0.18647785E+04</pdfrwt>
<pdfrwt beam="2">  1       -2 0.16674272E+00 0.18647785E+04</pdfrwt>
<totfact> 0.40688211E+00</totfact>
</mgrwt>
</event>
<event>
12    4  0.4413110E-008  0.1757181E+04  0.7818608E-02  0.8729408E-01
         -2   -1    0    0    0  501 -0.00000000000E+00  0.00000000000E+00  0.92158322168E+03  0.92158322168E+03  0.00000000000E+00 0.  1.
          1   -1    0    0  501    0  0.00000000000E+00 -0.00000000000E+00 -0.83760334699E+03  0.83760334699E+03  0.00000000000E+00 0. -1.
        -24    2    1    2    0    0 -0.30752180722E+03  0.35970536421E+03  0.46427788287E+03  0.66801507779E+03  0.82052304490E+02 0.  0.
        254    2    1    2    0    0  0.30752180722E+03 -0.35970536421E+03 -0.38029800818E+03  0.10911714909E+04  0.90668133129E+03 0.  0.
         23    2    4    4    0    0  0.22643976665E+03 -0.53477329071E+03  0.72234614993E+02  0.59103304555E+03  0.82733191380E+02 0.  0.
         23    2    4    4    0    0  0.81082040573E+02  0.17506792649E+03 -0.45253262318E+03  0.50013844533E+03  0.90164368048E+02 0.  0.
          1    1    3    3  502    0 -0.17903849224E+03  0.20857802369E+03  0.32490467044E+03  0.42558503092E+03  0.00000000000E+00 0. -1.
         -2    1    3    3    0  502 -0.12848331498E+03  0.15112734052E+03  0.13937321243E+03  0.24243004687E+03  0.00000000000E+00 0.  1.
         11    1    5    5    0    0  0.19367343930E+03 -0.50075354716E+03  0.81048017638E+02  0.54298461971E+03  0.00000000000E+00 0. -1.
        -11    1    5    5    0    0  0.32766327355E+02 -0.34019743547E+02 -0.88134026450E+01  0.48048425838E+02  0.00000000000E+00 0.  1.
          1    1    6    6  503    0  0.99186257756E+02  0.15041048238E+03 -0.40907704534E+03  0.44699581202E+03  0.00000000000E+00 0. -1.
         -1    1    6    6    0  503 -0.18104217183E+02  0.24657444111E+02 -0.43455577834E+02  0.53142633307E+02  0.00000000000E+00 0.  1.
<mgrwt>
<rscale>  0 0.17571809E+04</rscale>
<asrwt>0</asrwt>
<pdfrwt beam="1">  1        1 0.12886205E+00 0.17571809E+04</pdfrwt>
<pdfrwt beam="2">  1       -2 0.14178203E+00 0.17571809E+04</pdfrwt>
<totfact> 0.59148942E+00</totfact>
</mgrwt>
</event>
<event>
12    4  0.4413110E-008  0.2097052E+04  0.7818608E-02  0.8562543E-01
          1   -1    0    0  501    0  0.00000000000E+00  0.00000000000E+00  0.82616943461E+03  0.82616943461E+03  0.00000000000E+00 0. -1.
         -2   -1    0    0    0  501 -0.00000000000E+00 -0.00000000000E+00 -0.13307282722E+04  0.13307282722E+04  0.00000000000E+00 0.  1.
        -24    2    1    2    0    0  0.17843273734E+03 -0.57741390298E+03  0.41335444718E+03  0.73650752849E+03  0.79601403254E+02 0.  0.
        254    2    1    2    0    0 -0.17843273734E+03  0.57741390298E+03 -0.91791328480E+03  0.14203901784E+04  0.89983243064E+03 0.  0.
         23    2    4    4    0    0  0.21644623679E+03  0.17104510185E+03  0.51591555937E+02  0.29338705793E+03  0.85491969371E+02 0.  0.
         23    2    4    4    0    0 -0.39487897414E+03  0.40636880113E+03 -0.96950484074E+03  0.11270031204E+04  0.95558309299E+02 0.  0.
          1    1    3    3  502    0  0.64846708028E+02 -0.26966744224E+03  0.23251817844E+03  0.36192586016E+03  0.00000000000E+00 0. -1.
         -2    1    3    3    0  502  0.11358602932E+03 -0.30774646075E+03  0.18083626874E+03  0.37458166833E+03  0.00000000000E+00 0.  1.
         11    1    5    5    0    0  0.41065376885E+02  0.26784183624E+02 -0.23278394244E+02  0.54273762627E+02  0.00000000000E+00 0.  1.
        -11    1    5    5    0    0  0.17538085991E+03  0.14426091823E+03  0.74869950181E+02  0.23911329530E+03  0.00000000000E+00 0. -1.
          1    1    6    6  503    0 -0.26370004337E+03  0.22281927297E+03 -0.64817717764E+03  0.73438395604E+03  0.00000000000E+00 0. -1.
         -1    1    6    6    0  503 -0.13117893077E+03  0.18354952816E+03 -0.32132766310E+03  0.39261916438E+03  0.00000000000E+00 0.  1.
<mgrwt>
<rscale>  0 0.20970522E+04</rscale>
<asrwt>0</asrwt>
<pdfrwt beam="1">  1        1 0.12710299E+00 0.20970522E+04</pdfrwt>
<pdfrwt beam="2">  1       -2 0.20472743E+00 0.20970522E+04</pdfrwt>
<totfact> 0.20946745E+00</totfact>
</mgrwt>
</event>
<event>
12    4  0.4413110E-008  0.2222863E+04  0.7818608E-02  0.8508972E-01
          1   -1    0    0  501    0  0.00000000000E+00  0.00000000000E+00  0.22875203261E+04  0.22875203261E+04  0.00000000000E+00 0. -1.
         -2   -1    0    0    0  501 -0.00000000000E+00 -0.00000000000E+00 -0.54000850011E+03  0.54000850011E+03  0.00000000000E+00 0.  1.
        -24    2    1    2    0    0  0.57163168209E+03  0.64053986074E+03  0.12875986356E+04  0.15489600382E+04  0.65672369888E+02 0.  0.
        254    2    1    2    0    0 -0.57163168209E+03 -0.64053986074E+03  0.45991319038E+03  0.12785687881E+04  0.82835011317E+03 0.  0.
         23    2    4    4    0    0 -0.65324746602E+03 -0.35676608014E+03  0.31644361763E+02  0.75052144949E+03  0.90921904464E+02 0.  0.
         23    2    4    4    0    0  0.81615783927E+02 -0.28377378060E+03  0.42826882862E+03  0.52804733859E+03  0.90725451136E+02 0.  0.
          3    1    3    3  502    0  0.43652003512E+03  0.45595154986E+03  0.91053988682E+03  0.11079370209E+04  0.00000000000E+00 0. -1.
         -4    1    3    3    0  502  0.13511164697E+03  0.18458831088E+03  0.37705874881E+03  0.44102301722E+03  0.00000000000E+00 0.  1.
         11    1    5    5    0    0 -0.61228731940E+03 -0.32085248119E+03  0.84464903538E+01  0.69131282310E+03  0.00000000000E+00 0. -1.
        -11    1    5    5    0    0 -0.40960146615E+02 -0.35913598957E+02  0.23197871409E+02  0.59208626387E+02  0.00000000000E+00 0.  1.
          2    1    6    6  503    0  0.29630561355E+01 -0.16321062378E+03  0.19971776126E+03  0.25794121729E+03  0.00000000000E+00 0. -1.
         -2    1    6    6    0  503  0.78652727791E+02 -0.12056315682E+03  0.22855106736E+03  0.27010612130E+03  0.00000000000E+00 0.  1.
<mgrwt>
<rscale>  0 0.22228634E+04</rscale>
<asrwt>0</asrwt>
<pdfrwt beam="1">  1        1 0.35192620E+00 0.22228634E+04</pdfrwt>
<pdfrwt beam="2">  1       -2 0.83078232E-01 0.22228634E+04</pdfrwt>
<totfact> 0.19259958E+00</totfact>
</mgrwt>
</event>
<event>
12    4  0.4413110E-008  0.2248716E+04  0.7818608E-02  0.8498421E-01
         -2   -1    0    0    0  501 -0.00000000000E+00  0.00000000000E+00  0.66610334223E+03  0.66610334223E+03  0.00000000000E+00 0.  1.
          1   -1    0    0  501    0  0.00000000000E+00 -0.00000000000E+00 -0.18978745930E+04  0.18978745930E+04  0.00000000000E+00 0. -1.
        -24    2    1    2    0    0 -0.85790506021E+03  0.85898463206E+02 -0.97072658294E+03  0.13007539198E+04  0.79189789334E+02 0.  0.
        254    2    1    2    0    0  0.85790506021E+03 -0.85898463206E+02 -0.26104466780E+03  0.12632240154E+04  0.88555686220E+03 0.  0.
         23    2    4    4    0    0  0.75780497125E+03  0.30517288538E+03 -0.17690786841E+03  0.84075943054E+03  0.90449774512E+02 0.  0.
         23    2    4    4    0    0  0.10010008896E+03 -0.39107134858E+03 -0.84136799391E+02  0.42246458486E+03  0.91872177284E+02 0.  0.
          1    1    3    3  502    0 -0.10212159547E+03 -0.76715115385E+01 -0.89021992912E+02  0.13569299014E+03  0.00000000000E+00 0. -1.
         -2    1    3    3    0  502 -0.75578346473E+03  0.93569974744E+02 -0.88170459002E+03  0.11650609297E+04  0.00000000000E+00 0.  1.
         11    1    5    5    0    0  0.35676973315E+03  0.16521040440E+03 -0.43606714166E+02  0.39557637155E+03  0.00000000000E+00 0.  1.
        -11    1    5    5    0    0  0.40103523810E+03  0.13996248098E+03 -0.13330115425E+03  0.44518305898E+03  0.00000000000E+00 0. -1.
          2    1    6    6  503    0  0.90312874764E+02 -0.28429698653E+03 -0.98824895406E+02  0.31424123194E+03  0.00000000000E+00 0.  1.
         -2    1    6    6    0  503  0.97872141925E+01 -0.10677436205E+03  0.14688096015E+02  0.10822335292E+03  0.00000000000E+00 0. -1.
<mgrwt>
<rscale>  0 0.22487157E+04</rscale>
<asrwt>0</asrwt>
<pdfrwt beam="1">  1        1 0.29198070E+00 0.22487157E+04</pdfrwt>
<pdfrwt beam="2">  1       -2 0.10247744E+00 0.22487157E+04</pdfrwt>
<totfact> 0.21721468E+00</totfact>
</mgrwt>
</event>
<event>
12    4  0.4413110E-008  0.1310448E+04  0.7818608E-02  0.9021321E-01
         -2   -1    0    0    0  501 -0.00000000000E+00  0.00000000000E+00  0.13450824458E+04  0.13450824458E+04  0.00000000000E+00 0.  1.
          1   -1    0    0  501    0  0.00000000000E+00 -0.00000000000E+00 -0.31917629983E+03  0.31917629983E+03  0.00000000000E+00 0. -1.
        -24    2    1    2    0    0 -0.22986751696E+03 -0.11371894879E+03  0.56294855343E+03  0.62374229041E+03  0.79826664533E+02 0.  0.
        254    2    1    2    0    0  0.22986751696E+03  0.11371894879E+03  0.46295759258E+03  0.10405164553E+04  0.89586477020E+03 0.  0.
         23    2    4    4    0    0  0.11956557003E+03  0.48186467689E+03  0.38958303075E+03  0.63771852492E+03  0.91763210509E+02 0.  0.
         23    2    4    4    0    0  0.11030194693E+03 -0.36814572811E+03  0.73374561828E+02  0.40279793034E+03  0.95731654867E+02 0.  0.
          1    1    3    3  502    0  0.27230892856E+01 -0.15265944917E+02  0.42631826865E+02  0.45364489981E+02  0.00000000000E+00 0. -1.
         -2    1    3    3    0  502 -0.23259060625E+03 -0.98453003871E+02  0.52031672656E+03  0.57837780043E+03  0.00000000000E+00 0.  1.
         11    1    5    5    0    0  0.12431763622E+03  0.33097009081E+03  0.26172936325E+03  0.43988445673E+03  0.00000000000E+00 0.  1.
        -11    1    5    5    0    0 -0.47520661944E+01  0.15089458608E+03  0.12785366750E+03  0.19783406819E+03  0.00000000000E+00 0. -1.
          4    1    6    6  503    0  0.69041537792E+02 -0.15640245924E+03 -0.10629520703E+02  0.17129346137E+03  0.00000000000E+00 0. -1.
         -4    1    6    6    0  503  0.41260409140E+02 -0.21174326887E+03  0.84004082531E+02  0.23150446897E+03  0.00000000000E+00 0.  1.
<mgrwt>
<rscale>  0 0.13104479E+04</rscale>
<asrwt>0</asrwt>
<pdfrwt beam="1">  1        1 0.49104047E-01 0.13104479E+04</pdfrwt>
<pdfrwt beam="2">  1       -2 0.20693576E+00 0.13104479E+04</pdfrwt>
<totfact> 0.82999730E+00</totfact>
</mgrwt>
</event>
<event>
12    4  0.4413110E-008  0.1616631E+04  0.7818608E-02  0.8810396E-01
          1   -1    0    0  501    0  0.00000000000E+00  0.00000000000E+00  0.83177767961E+03  0.83177767961E+03  0.00000000000E+00 0. -1.
         -2   -1    0    0    0  501 -0.00000000000E+00 -0.00000000000E+00 -0.78551475963E+03  0.78551475963E+03  0.00000000000E+00 0.  1.
        -24    2    1    2    0    0  0.38929183003E+03 -0.37188201392E+03  0.10605970292E+03  0.55443290295E+03  0.79390314747E+02 0.  0.
        254    2    1    2    0    0 -0.38929183003E+03  0.37188201392E+03 -0.59796782943E+02  0.10628595363E+04  0.91446726428E+03 0.  0.
         23    2    4    4    0    0 -0.13513094320E+03 -0.14088597206E+03  0.30811212262E+03  0.37631850600E+03  0.92592164470E+02 0.  0.
         23    2    4    4    0    0 -0.25416088684E+03  0.51276798599E+03 -0.36790890556E+03  0.68654103030E+03  0.91939434664E+02 0.  0.
          1    1    3    3  502    0  0.29135498719E+03 -0.30394759261E+03  0.54433670188E+02  0.42454080141E+03  0.00000000000E+00 0. -1.
         -2    1    3    3    0  502  0.97936842838E+02 -0.67934421314E+02  0.51626032733E+02  0.12989210153E+03  0.00000000000E+00 0.  1.
         11    1    5    5    0    0 -0.55796937055E+01 -0.16924966185E+02  0.10018589560E+03  0.10175854333E+03  0.00000000000E+00 0. -1.
        -11    1    5    5    0    0 -0.12955124949E+03 -0.12396100588E+03  0.20792622701E+03  0.27455996267E+03  0.00000000000E+00 0.  1.
          3    1    6    6  503    0 -0.12658914357E+03  0.17890505132E+03 -0.17458759689E+03  0.28020110215E+03  0.00000000000E+00 0. -1.
         -3    1    6    6    0  503 -0.12757174327E+03  0.33386293467E+03 -0.19332130867E+03  0.40633992815E+03  0.00000000000E+00 0.  1.
<mgrwt>
<rscale>  0 0.16166306E+04</rscale>
<asrwt>0</asrwt>
<pdfrwt beam="1">  1        1 0.12796580E+00 0.16166306E+04</pdfrwt>
<pdfrwt beam="2">  1       -2 0.12084842E+00 0.16166306E+04</pdfrwt>
<totfact> 0.90899767E+00</totfact>
</mgrwt>
</event>
<event>
12    4  0.4413110E-008  0.1358788E+04  0.7818608E-02  0.8984202E-01
          1   -1    0    0  501    0  0.00000000000E+00  0.00000000000E+00  0.56901730462E+03  0.56901730462E+03  0.00000000000E+00 0. -1.
         -2   -1    0    0    0  501 -0.00000000000E+00 -0.00000000000E+00 -0.81118144031E+03  0.81118144031E+03  0.00000000000E+00 0.  1.
        -24    2    1    2    0    0  0.49085363748E+02 -0.25041760517E+03  0.22710033997E+03  0.35064175088E+03  0.79099450904E+02 0.  0.
        254    2    1    2    0    0 -0.49085363748E+02  0.25041760517E+03 -0.46926447566E+03  0.10295569941E+04  0.88014777508E+03 0.  0.
         23    2    4    4    0    0 -0.56625730868E+02  0.44474905325E+03 -0.61773682629E+03  0.76921966356E+03  0.95351510188E+02 0.  0.
         23    2    4    4    0    0  0.75403671195E+01 -0.19433144808E+03  0.14847235063E+03  0.26033733049E+03  0.88937719199E+02 0.  0.
          1    1    3    3  502    0  0.19518219004E+02 -0.22683379707E+03  0.17997403203E+03  0.29021575521E+03  0.00000000000E+00 0. -1.
         -2    1    3    3    0  502  0.29567144744E+02 -0.23583808097E+02  0.47126307943E+02  0.60425995673E+02  0.00000000000E+00 0.  1.
         11    1    5    5    0    0 -0.66903556844E+02  0.28454330703E+03 -0.33954580938E+03  0.44803162407E+03  0.00000000000E+00 0.  1.
        -11    1    5    5    0    0  0.10277825976E+02  0.16020574622E+03 -0.27819101690E+03  0.32118803949E+03  0.00000000000E+00 0. -1.
          3    1    6    6  503    0  0.26366575417E+02 -0.29426815286E+02  0.61117979144E+02  0.72777339411E+02  0.00000000000E+00 0. -1.
         -3    1    6    6    0  503 -0.18826208298E+02 -0.16490463280E+03  0.87354371483E+02  0.18755999108E+03  0.00000000000E+00 0.  1.
<mgrwt>
<rscale>  0 0.13587881E+04</rscale>
<asrwt>0</asrwt>
<pdfrwt beam="1">  1        1 0.87541124E-01 0.13587881E+04</pdfrwt>
<pdfrwt beam="2">  1       -2 0.12479714E+00 0.13587881E+04</pdfrwt>
<totfact> 0.15223467E+01</totfact>
</mgrwt>
</event>
<event>
12    4  0.4413110E-008  0.1656216E+04  0.7818608E-02  0.8786738E-01
          1   -1    0    0  501    0  0.00000000000E+00  0.00000000000E+00  0.27049945109E+04  0.27049945109E+04  0.00000000000E+00 0. -1.
         -2   -1    0    0    0  501 -0.00000000000E+00 -0.00000000000E+00 -0.25351731460E+03  0.25351731460E+03  0.00000000000E+00 0.  1.
        -24    2    1    2    0    0 -0.57168219576E+03  0.82377930106E+01  0.10906159192E+04  0.12346715644E+04  0.89902137975E+02 0.  0.
        254    2    1    2    0    0  0.57168219576E+03 -0.82377930106E+01  0.13608612771E+04  0.17238402611E+04  0.89038948571E+03 0.  0.
         23    2    4    4    0    0  0.12950440773E+03 -0.41068576797E+03  0.44428503740E+03  0.62567371681E+03  0.92974264234E+02 0.  0.
         23    2    4    4    0    0  0.44217778803E+03  0.40244797496E+03  0.91657623969E+03  0.10981665443E+04  0.91499656550E+02 0.  0.
          1    1    3    3  502    0 -0.36356970342E+03 -0.84566738352E+01  0.77729434673E+03  0.85816137529E+03  0.00000000000E+00 0. -1.
         -4    1    3    3    0  502 -0.20811249234E+03  0.16694466846E+02  0.31332157249E+03  0.37651018908E+03  0.00000000000E+00 0.  1.
         11    1    5    5    0    0  0.10043862994E+03 -0.18328140771E+03  0.24381292726E+03  0.32113040388E+03  0.00000000000E+00 0.  1.
        -11    1    5    5    0    0  0.29065777787E+02 -0.22740436026E+03  0.20047211014E+03  0.30454331293E+03  0.00000000000E+00 0. -1.
          1    1    6    6  503    0  0.12962722097E+03  0.67199834893E+02  0.20258294457E+03  0.24971760782E+03  0.00000000000E+00 0. -1.
         -1    1    6    6    0  503  0.31255056707E+03  0.33524814007E+03  0.71399329513E+03  0.84844893652E+03  0.00000000000E+00 0.  1.
<mgrwt>
<rscale>  0 0.16562161E+04</rscale>
<asrwt>0</asrwt>
<pdfrwt beam="1">  1        1 0.41615298E+00 0.16562161E+04</pdfrwt>
<pdfrwt beam="2">  1       -2 0.39002666E-01 0.16562161E+04</pdfrwt>
<totfact> 0.50869727E+00</totfact>
</mgrwt>
</event>
<event>
12    4  0.4413110E-008  0.1702050E+04  0.7818608E-02  0.8760196E-01
         -2   -1    0    0    0  501 -0.00000000000E+00  0.00000000000E+00  0.20000870220E+03  0.20000870220E+03  0.00000000000E+00 0.  1.
          1   -1    0    0  501    0  0.00000000000E+00 -0.00000000000E+00 -0.36210599878E+04  0.36210599878E+04  0.00000000000E+00 0. -1.
        -24    2    1    2    0    0 -0.13929216494E+03 -0.45570157536E+03 -0.37303949712E+03  0.61023396676E+03  0.78490730555E+02 0.  0.
        254    2    1    2    0    0  0.13929216494E+03  0.45570157536E+03 -0.30480117884E+04  0.32108347232E+04  0.88995366408E+03 0.  0.
         23    2    4    4    0    0  0.13971490897E+03 -0.18296003771E+03 -0.30802460183E+03  0.39582473657E+03  0.93826625006E+02 0.  0.
         23    2    4    4    0    0 -0.42274403411E+00  0.63866161307E+03 -0.27399871866E+04  0.28150099866E+04  0.94141421861E+02 0.  0.
          3    1    3    3  502    0 -0.12426786203E+03 -0.31521565748E+03 -0.29242455546E+03  0.44756623296E+03  0.00000000000E+00 0. -1.
         -4    1    3    3    0  502 -0.15024302911E+02 -0.14048591789E+03 -0.80614941654E+02  0.16266773380E+03  0.00000000000E+00 0.  1.
         11    1    5    5    0    0  0.25782467758E+02 -0.53788339915E+02 -0.15253876256E+03  0.16378643179E+03  0.00000000000E+00 0.  1.
        -11    1    5    5    0    0  0.11393244121E+03 -0.12917169779E+03 -0.15548583926E+03  0.23203830477E+03  0.00000000000E+00 0. -1.
          1    1    6    6  503    0 -0.43422127289E+02  0.39325483113E+03 -0.17475637972E+04  0.17917907435E+04  0.00000000000E+00 0. -1.
         -1    1    6    6    0  503  0.42999383255E+02  0.24540678194E+03 -0.99242338942E+03  0.10232192431E+04  0.00000000000E+00 0.  1.
<mgrwt>
<rscale>  0 0.17020500E+04</rscale>
<asrwt>0</asrwt>
<pdfrwt beam="1">  1        1 0.55708606E+00 0.17020500E+04</pdfrwt>
<pdfrwt beam="2">  1       -2 0.30770574E-01 0.17020500E+04</pdfrwt>
<totfact> 0.16499375E+00</totfact>
</mgrwt>
</event>
<event>
12    4  0.4413110E-008  0.2884615E+04  0.7818608E-02  0.8277470E-01
         -2   -1    0    0    0  501 -0.00000000000E+00  0.00000000000E+00  0.50428188222E+03  0.50428188222E+03  0.00000000000E+00 0.  1.
          1   -1    0    0  501    0  0.00000000000E+00 -0.00000000000E+00 -0.41251761406E+04  0.41251761406E+04  0.00000000000E+00 0. -1.
        -24    2    1    2    0    0  0.22445253557E+02  0.12069310424E+04 -0.85429413327E+03  0.14811699939E+04  0.82823633399E+02 0.  0.
        254    2    1    2    0    0 -0.22445253557E+02 -0.12069310424E+04 -0.27666001251E+04  0.31482880289E+04  0.89468146858E+03 0.  0.
         23    2    4    4    0    0 -0.26200059258E+02 -0.13000369140E+04 -0.27144006166E+04  0.30111553271E+04  0.91122311142E+02 0.  0.
         23    2    4    4    0    0  0.37548057002E+01  0.93105871601E+02 -0.52199508540E+02  0.13713270185E+03  0.86010390843E+02 0.  0.
          3    1    3    3  502    0 -0.45930930346E+01  0.98047162748E+03 -0.72061601731E+03  0.12168127026E+04  0.00000000000E+00 0. -1.
         -4    1    3    3    0  502  0.27038346592E+02  0.22645941490E+03 -0.13367811596E+03  0.26435729131E+03  0.00000000000E+00 0.  1.
         11    1    5    5    0    0 -0.33849737012E+02 -0.16822563651E+03 -0.36681301051E+03  0.40496599135E+03  0.00000000000E+00 0.  1.
        -11    1    5    5    0    0  0.76496777541E+01 -0.11318112775E+04 -0.23475876061E+04  0.26061893357E+04  0.00000000000E+00 0. -1.
          3    1    6    6  503    0  0.81340555590E+01  0.96180362785E+02 -0.12796726917E+02  0.97368276482E+02  0.00000000000E+00 0. -1.
         -3    1    6    6    0  503 -0.43792498587E+01 -0.30744911841E+01 -0.39402781623E+02  0.39764425370E+02  0.00000000000E+00 0.  1.
<mgrwt>
<rscale>  0 0.28846155E+04</rscale>
<asrwt>0</asrwt>
<pdfrwt beam="1">  1        1 0.63464249E+00 0.28846155E+04</pdfrwt>
<pdfrwt beam="2">  1       -2 0.77581828E-01 0.28846155E+04</pdfrwt>
<totfact> 0.83022073E-02</totfact>
</mgrwt>
</event>
<event>
12    4  0.4413110E-008  0.1469626E+04  0.7818608E-02  0.8904906E-01
         -2   -1    0    0    0  501 -0.00000000000E+00  0.00000000000E+00  0.75709548167E+03  0.75709548167E+03  0.00000000000E+00 0.  1.
          1   -1    0    0  501    0  0.00000000000E+00 -0.00000000000E+00 -0.71318639027E+03  0.71318639027E+03  0.00000000000E+00 0. -1.
        -24    2    1    2    0    0  0.83095673637E+02  0.33524404681E+03  0.31171120621E+03  0.47179526188E+03  0.78316225351E+02 0.  0.
        254    2    1    2    0    0 -0.83095673637E+02 -0.33524404681E+03 -0.26780211480E+03  0.99848661006E+03  0.89775501997E+03 0.  0.
         23    2    4    4    0    0  0.64686392884E+02 -0.49182466943E+03  0.14541554214E+03  0.52401114167E+03  0.85826346880E+02 0.  0.
         23    2    4    4    0    0 -0.14778206652E+03  0.15658062262E+03 -0.41321765694E+03  0.47447546839E+03  0.89560636069E+02 0.  0.
          1    1    3    3  502    0  0.22122989293E+01  0.10406176093E+03  0.58006638316E+02  0.11915751945E+03  0.00000000000E+00 0. -1.
         -2    1    3    3    0  502  0.80883374708E+02  0.23118228588E+03  0.25370456789E+03  0.35263774242E+03  0.00000000000E+00 0.  1.
         11    1    5    5    0    0  0.43224559489E+02 -0.27587015361E+03  0.12530760763E+03  0.30606322995E+03  0.00000000000E+00 0. -1.
        -11    1    5    5    0    0  0.21461833395E+02 -0.21595451582E+03  0.20107934506E+02  0.21794791173E+03  0.00000000000E+00 0.  1.
          4    1    6    6  503    0 -0.14012265781E+03  0.93833464597E+02 -0.32212790907E+03  0.36360069872E+03  0.00000000000E+00 0. -1.
         -4    1    6    6    0  503 -0.76594087077E+01  0.62747158024E+02 -0.91089747869E+02  0.11087476967E+03  0.00000000000E+00 0.  1.
<mgrwt>
<rscale>  0 0.14696261E+04</rscale>
<asrwt>0</asrwt>
<pdfrwt beam="1">  1        1 0.10972098E+00 0.14696261E+04</pdfrwt>
<pdfrwt beam="2">  1       -2 0.11647623E+00 0.14696261E+04</pdfrwt>
<totfact> 0.12847934E+01</totfact>
</mgrwt>
</event>
<event>
12    4  0.4413110E-008  0.1847803E+04  0.7818608E-02  0.8681283E-01
          1   -1    0    0  501    0  0.00000000000E+00  0.00000000000E+00  0.26886296898E+04  0.26886296898E+04  0.00000000000E+00 0. -1.
         -2   -1    0    0    0  501 -0.00000000000E+00 -0.00000000000E+00 -0.31748298935E+03  0.31748298935E+03  0.00000000000E+00 0.  1.
        -24    2    1    2    0    0 -0.45660741865E+03 -0.50404020881E+03  0.11362139185E+04  0.13265970739E+04  0.79566707725E+02 0.  0.
        254    2    1    2    0    0  0.45660741865E+03  0.50404020881E+03  0.12349327820E+04  0.16795156053E+04  0.91277972457E+03 0.  0.
         23    2    4    4    0    0  0.47494446956E+03  0.57399413506E+03  0.13274293831E+04  0.15250762195E+04  0.93526423947E+02 0.  0.
         23    2    4    4    0    0 -0.18337050909E+02 -0.69953926248E+02 -0.92496601143E+02  0.15443938576E+03  0.10032997268E+03 0.  0.
          3    1    3    3  502    0 -0.27541350010E+03 -0.30933529461E+03  0.76516856920E+03  0.87007118089E+03  0.00000000000E+00 0. -1.
         -4    1    3    3    0  502 -0.18119391855E+03 -0.19470491420E+03  0.37104534930E+03  0.45652589299E+03  0.00000000000E+00 0.  1.
         11    1    5    5    0    0  0.46228850447E+03  0.55524622707E+03  0.12435681081E+04  0.14382178811E+04  0.00000000000E+00 0. -1.
        -11    1    5    5    0    0  0.12655965090E+02  0.18747907984E+02  0.83861275074E+02  0.86858338478E+02  0.00000000000E+00 0.  1.
          1    1    6    6  503    0  0.34379662494E+01 -0.63561177585E+02 -0.47785144288E+01  0.63833197539E+02  0.00000000000E+00 0. -1.
         -1    1    6    6    0  503 -0.21775017159E+02 -0.63927486640E+01 -0.87718086714E+02  0.90606188224E+02  0.00000000000E+00 0.  1.
<mgrwt>
<rscale>  0 0.18478032E+04</rscale>
<asrwt>0</asrwt>
<pdfrwt beam="1">  1        1 0.41363532E+00 0.18478032E+04</pdfrwt>
<pdfrwt beam="2">  1       -2 0.48843539E-01 0.18478032E+04</pdfrwt>
<totfact> 0.32802133E+00</totfact>
</mgrwt>
</event>
<event>
12    4  0.4413110E-008  0.2871167E+04  0.7818608E-02  0.8281508E-01
          1   -1    0    0  501    0  0.00000000000E+00  0.00000000000E+00  0.14297376888E+04  0.14297376888E+04  0.00000000000E+00 0. -1.
         -2   -1    0    0    0  501 -0.00000000000E+00 -0.00000000000E+00 -0.14414532195E+04  0.14414532195E+04  0.00000000000E+00 0.  1.
        -24    2    1    2    0    0  0.90529800072E+03  0.64167694251E+03 -0.66731268104E+03  0.12972556973E+04  0.79071874163E+02 0.  0.
        254    2    1    2    0    0 -0.90529800072E+03 -0.64167694251E+03  0.65559715040E+03  0.15739352110E+04  0.90341056896E+03 0.  0.
         23    2    4    4    0    0 -0.28466616532E+03 -0.55923023512E+03 -0.38897794888E+02  0.63420882385E+03  0.83273718872E+02 0.  0.
         23    2    4    4    0    0 -0.62063183540E+03 -0.82446707393E+02  0.69449494529E+03  0.93972638714E+03  0.93707624950E+02 0.  0.
          1    1    3    3  502    0  0.25863256716E+03  0.14072593214E+03 -0.17984163514E+03  0.34501826981E+03  0.00000000000E+00 0. -1.
         -2    1    3    3    0  502  0.64666543357E+03  0.50095101038E+03 -0.48747104590E+03  0.95223742751E+03  0.00000000000E+00 0.  1.
         11    1    5    5    0    0  0.55889796620E+01 -0.10868997394E+02 -0.36992097644E+01  0.12769336353E+02  0.00000000000E+00 0. -1.
        -11    1    5    5    0    0 -0.29025514498E+03 -0.54836123773E+03 -0.35198585123E+02  0.62143948750E+03  0.00000000000E+00 0.  1.
          3    1    6    6  503    0 -0.37981291791E+03 -0.17294118039E+02  0.46598165796E+03  0.60141154353E+03  0.00000000000E+00 0. -1.
         -3    1    6    6    0  503 -0.24081891749E+03 -0.65152589354E+02  0.22851328733E+03  0.33831484361E+03  0.00000000000E+00 0.  1.
<mgrwt>
<rscale>  0 0.28711670E+04</rscale>
<asrwt>0</asrwt>
<pdfrwt beam="1">  1        1 0.21995964E+00 0.28711670E+04</pdfrwt>
<pdfrwt beam="2">  1       -2 0.22176203E+00 0.28711670E+04</pdfrwt>
<totfact> 0.53297465E-01</totfact>
</mgrwt>
</event>
<event>
12    4  0.4413110E-008  0.3201974E+04  0.7818608E-02  0.8188296E-01
          1   -1    0    0  501    0  0.00000000000E+00  0.00000000000E+00  0.20249265130E+04  0.20249265130E+04  0.00000000000E+00 0. -1.
         -2   -1    0    0    0  501 -0.00000000000E+00 -0.00000000000E+00 -0.12658040180E+04  0.12658040180E+04  0.00000000000E+00 0.  1.
        -24    2    1    2    0    0  0.75797886205E+03  0.12633063031E+04  0.32783576085E+03  0.15114355583E+04  0.80538127279E+02 0.  0.
        254    2    1    2    0    0 -0.75797886205E+03 -0.12633063031E+04  0.43128673420E+03  0.17792949728E+04  0.89967081881E+03 0.  0.
         23    2    4    4    0    0 -0.42206828701E+03 -0.13044711454E+04  0.37413875511E+03  0.14240624238E+04  0.90484089751E+02 0.  0.
         23    2    4    4    0    0 -0.33591057505E+03  0.41164842346E+02  0.57147979093E+02  0.35523254900E+03  0.91617758531E+02 0.  0.
          3    1    3    3  502    0  0.60798006637E+03  0.10537376227E+04  0.29333346170E+03  0.12514180990E+04  0.00000000000E+00 0. -1.
         -4    1    3    3    0  502  0.14999879568E+03  0.20956868035E+03  0.34502299151E+02  0.26001745929E+03  0.00000000000E+00 0.  1.
         11    1    5    5    0    0 -0.35154109000E+03 -0.11193057724E+04  0.35088850545E+03  0.12245608573E+04  0.00000000000E+00 0. -1.
        -11    1    5    5    0    0 -0.70527197009E+02 -0.18516537306E+03  0.23250249655E+02  0.19950156643E+03  0.00000000000E+00 0.  1.
          1    1    6    6  503    0 -0.29786731508E+03  0.51801536682E+02  0.75579595003E+02  0.31164180043E+03  0.00000000000E+00 0. -1.
         -1    1    6    6    0  503 -0.38043259966E+02 -0.10636694336E+02 -0.18431615910E+02  0.43590748563E+02  0.00000000000E+00 0.  1.
<mgrwt>
<rscale>  0 0.32019745E+04</rscale>
<asrwt>0</asrwt>
<pdfrwt beam="1">  1        1 0.31152715E+00 0.32019745E+04</pdfrwt>
<pdfrwt beam="2">  1       -2 0.19473908E+00 0.32019745E+04</pdfrwt>
<totfact> 0.30375930E-01</totfact>
</mgrwt>
</event>
<event>
12    4  0.4413110E-008  0.2016025E+04  0.7818608E-02  0.8599165E-01
         -2   -1    0    0    0  501 -0.00000000000E+00  0.00000000000E+00  0.17261237695E+04  0.17261237695E+04  0.00000000000E+00 0.  1.
          1   -1    0    0  501    0  0.00000000000E+00 -0.00000000000E+00 -0.58865393774E+03  0.58865393774E+03  0.00000000000E+00 0. -1.
        -24    2    1    2    0    0 -0.46754877865E+03  0.38136226744E+03 -0.12942360331E+03  0.62232288856E+03  0.80599436050E+02 0.  0.
        254    2    1    2    0    0  0.46754877865E+03 -0.38136226744E+03  0.12668934351E+04  0.16924548187E+04  0.94622687449E+03 0.  0.
         23    2    4    4    0    0  0.57476397064E+03 -0.29742232259E+02  0.30291625283E+03  0.65672685674E+03  0.91069675518E+02 0.  0.
         23    2    4    4    0    0 -0.10721519199E+03 -0.35162003518E+03  0.96397718226E+03  0.10357279620E+04  0.91370984122E+02 0.  0.
          3    1    3    3  502    0 -0.37763687224E+03  0.30353170585E+03 -0.70490442524E+02  0.48960188543E+03  0.00000000000E+00 0. -1.
         -4    1    3    3    0  502 -0.89911906413E+02  0.77830561589E+02 -0.58933160789E+02  0.13272100313E+03  0.00000000000E+00 0.  1.
         11    1    5    5    0    0  0.30278628392E+03 -0.43876763609E+02  0.11991668725E+03  0.32861027981E+03  0.00000000000E+00 0. -1.
        -11    1    5    5    0    0  0.27197768673E+03  0.14134531350E+02  0.18299956558E+03  0.32811657693E+03  0.00000000000E+00 0.  1.
          4    1    6    6  503    0 -0.18342938043E+01 -0.28469399854E+02  0.16512263757E+03  0.16756896132E+03  0.00000000000E+00 0. -1.
         -4    1    6    6    0  503 -0.10538089819E+03 -0.32315063533E+03  0.79885454469E+03  0.86815900063E+03  0.00000000000E+00 0.  1.
<mgrwt>
<rscale>  0 0.20160254E+04</rscale>
<asrwt>0</asrwt>
<pdfrwt beam="1">  1        1 0.90562145E-01 0.20160254E+04</pdfrwt>
<pdfrwt beam="2">  1       -2 0.26555750E+00 0.20160254E+04</pdfrwt>
<totfact> 0.14736511E+00</totfact>
</mgrwt>
</event>
<event>
12    4  0.4413110E-008  0.3064764E+04  0.7818608E-02  0.8225475E-01
         -2   -1    0    0    0  501 -0.00000000000E+00  0.00000000000E+00  0.12303940753E+04  0.12303940753E+04  0.00000000000E+00 0.  1.
          1   -1    0    0  501    0  0.00000000000E+00 -0.00000000000E+00 -0.19084904110E+04  0.19084904110E+04  0.00000000000E+00 0. -1.
        -24    2    1    2    0    0  0.67874340123E+03  0.11662596956E+04 -0.67927045956E+03  0.15127984315E+04  0.79350203473E+02 0.  0.
        254    2    1    2    0    0 -0.67874340123E+03 -0.11662596956E+04  0.11741238340E+01  0.16260860548E+04  0.90735891282E+03 0.  0.
         23    2    4    4    0    0 -0.24907300275E+03 -0.88617711707E+03 -0.35951715056E+03  0.99248409795E+03  0.91787034027E+02 0.  0.
         23    2    4    4    0    0 -0.42967039847E+03 -0.28008257854E+03  0.36069127439E+03  0.63360195683E+03  0.91051316031E+02 0.  0.
          3    1    3    3  502    0  0.54634922308E+03  0.88282261685E+03 -0.50154155792E+03  0.11530035476E+04  0.00000000000E+00 0. -1.
         -2    1    3    3    0  502  0.13239417815E+03  0.28343707876E+03 -0.17772890164E+03  0.35979488393E+03  0.00000000000E+00 0.  1.
         11    1    5    5    0    0 -0.56065387877E+02 -0.21666455506E+03 -0.13031742586E+03  0.25897777631E+03  0.00000000000E+00 0.  1.
        -11    1    5    5    0    0 -0.19300761488E+03 -0.66951256201E+03 -0.22919972470E+03  0.73350632164E+03  0.00000000000E+00 0. -1.
          1    1    6    6  503    0 -0.40481362241E+03 -0.25270276612E+03  0.30367159457E+03  0.56564051679E+03  0.00000000000E+00 0. -1.
         -1    1    6    6    0  503 -0.24856776065E+02 -0.27379812418E+02  0.57019679825E+02  0.67961440036E+02  0.00000000000E+00 0.  1.
<mgrwt>
<rscale>  0 0.30647645E+04</rscale>
<asrwt>0</asrwt>
<pdfrwt beam="1">  1        1 0.29361391E+00 0.30647645E+04</pdfrwt>
<pdfrwt beam="2">  1       -2 0.18929140E+00 0.30647645E+04</pdfrwt>
<totfact> 0.40086774E-01</totfact>
</mgrwt>
</event>
<event>
12    4  0.4413110E-008  0.1178562E+04  0.7818608E-02  0.9131831E-01
          1   -1    0    0  501    0  0.00000000000E+00  0.00000000000E+00  0.47883160587E+03  0.47883160587E+03  0.00000000000E+00 0. -1.
         -2   -1    0    0    0  501 -0.00000000000E+00 -0.00000000000E+00 -0.72520689748E+03  0.72520689748E+03  0.00000000000E+00 0.  1.
        -24    2    1    2    0    0 -0.13356989287E+03  0.73912543378E+02 -0.26892108154E+03  0.31909935908E+03  0.78751968317E+02 0.  0.
        254    2    1    2    0    0  0.13356989287E+03 -0.73912543378E+02  0.22545789930E+02  0.88493914427E+03  0.87138108545E+03 0.  0.
         23    2    4    4    0    0 -0.13682962930E+03 -0.27533626129E+03  0.29936044301E+03  0.43908707403E+03  0.92996663917E+02 0.  0.
         23    2    4    4    0    0  0.27039952217E+03  0.20142371791E+03 -0.27681465308E+03  0.44585207025E+03  0.92034236309E+02 0.  0.
          1    1    3    3  502    0 -0.53784046683E+01 -0.14602415895E+02 -0.31486015708E+02  0.35121602638E+02  0.00000000000E+00 0. -1.
         -2    1    3    3    0  502 -0.12819148821E+03  0.88514959273E+02 -0.23743506584E+03  0.28397775644E+03  0.00000000000E+00 0.  1.
         11    1    5    5    0    0 -0.48817151249E+02 -0.11226595906E+03  0.18334920637E+03  0.22046244872E+03  0.00000000000E+00 0. -1.
        -11    1    5    5    0    0 -0.88012478051E+02 -0.16307030223E+03  0.11601123665E+03  0.21862462531E+03  0.00000000000E+00 0.  1.
          1    1    6    6  503    0  0.27149528012E+03  0.20501279621E+03 -0.28024421277E+03  0.44076836607E+03  0.00000000000E+00 0. -1.
         -1    1    6    6    0  503 -0.10957579437E+01 -0.35890782994E+01  0.34295596878E+01  0.50837041773E+01  0.00000000000E+00 0.  1.
<mgrwt>
<rscale>  0 0.11785618E+04</rscale>
<asrwt>0</asrwt>
<pdfrwt beam="1">  1        1 0.73666402E-01 0.11785618E+04</pdfrwt>
<pdfrwt beam="2">  1       -2 0.11157029E+00 0.11785618E+04</pdfrwt>
<totfact> 0.25877854E+01</totfact>
</mgrwt>
</event>
<event>
12    4  0.4413110E-008  0.1657478E+04  0.7818608E-02  0.8785995E-01
         -2   -1    0    0    0  501 -0.00000000000E+00  0.00000000000E+00  0.92343809759E+03  0.92343809759E+03  0.00000000000E+00 0.  1.
          1   -1    0    0  501    0  0.00000000000E+00 -0.00000000000E+00 -0.74375162868E+03  0.74375162868E+03  0.00000000000E+00 0. -1.
        -24    2    1    2    0    0 -0.21274133624E+03 -0.45584274134E+03 -0.21146173084E+03  0.55035487565E+03  0.71574748039E+02 0.  0.
        254    2    1    2    0    0  0.21274133624E+03  0.45584274134E+03  0.39114819975E+03  0.11168348506E+04  0.91720863951E+03 0.  0.
         23    2    4    4    0    0  0.33770069738E+03  0.55189566776E+03 -0.34123677810E+02  0.65423954836E+03  0.90743441362E+02 0.  0.
         23    2    4    4    0    0 -0.12495936114E+03 -0.96052926417E+02  0.42527187756E+03  0.46259530225E+03  0.91089171764E+02 0.  0.
          1    1    3    3  502    0 -0.13254112851E+03 -0.35125748482E+03 -0.17055529734E+03  0.41235673977E+03  0.00000000000E+00 0. -1.
         -2    1    3    3    0  502 -0.80200207728E+02 -0.10458525653E+03 -0.40906433503E+02  0.13799813587E+03  0.00000000000E+00 0.  1.
         11    1    5    5    0    0  0.20019743227E+03  0.33574886585E+03 -0.64777030517E+02  0.39623525397E+03  0.00000000000E+00 0. -1.
        -11    1    5    5    0    0  0.13750326511E+03  0.21614680191E+03  0.30653352707E+02  0.25800429439E+03  0.00000000000E+00 0.  1.
          4    1    6    6  503    0 -0.83145668256E+02 -0.17781904305E+02  0.27741857573E+03  0.29015593123E+03  0.00000000000E+00 0. -1.
         -4    1    6    6    0  503 -0.41813692883E+02 -0.78271022112E+02  0.14785330183E+03  0.17243937102E+03  0.00000000000E+00 0.  1.
<mgrwt>
<rscale>  0 0.16574783E+04</rscale>
<asrwt>0</asrwt>
<pdfrwt beam="1">  1        1 0.11442333E+00 0.16574783E+04</pdfrwt>
<pdfrwt beam="2">  1       -2 0.14206740E+00 0.16574783E+04</pdfrwt>
<totfact> 0.71716972E+00</totfact>
</mgrwt>
</event>
<event>
12    4  0.4413110E-008  0.1230801E+04  0.7818608E-02  0.9086316E-01
         -2   -1    0    0    0  501 -0.00000000000E+00  0.00000000000E+00  0.45683135046E+03  0.45683135046E+03  0.00000000000E+00 0.  1.
          1   -1    0    0  501    0  0.00000000000E+00 -0.00000000000E+00 -0.82900984739E+03  0.82900984739E+03  0.00000000000E+00 0. -1.
        -24    2    1    2    0    0 -0.76464832406E+02  0.25587486346E+03 -0.17659383330E+03  0.33002827677E+03  0.80090356245E+02 0.  0.
        254    2    1    2    0    0  0.76464832406E+02 -0.25587486346E+03 -0.19558466363E+03  0.95581292107E+03  0.89666390755E+03 0.  0.
         23    2    4    4    0    0  0.45962257747E+03 -0.26712036374E+03 -0.80734019781E+02  0.54544851202E+03  0.91596369267E+02 0.  0.
         23    2    4    4    0    0 -0.38315774507E+03  0.11245500277E+02 -0.11485064385E+03  0.41036440906E+03  0.90950310314E+02 0.  0.
          3    1    3    3  502    0 -0.62438412614E+02  0.24981044511E+03 -0.18025094860E+03  0.31431547580E+03  0.00000000000E+00 0. -1.
         -4    1    3    3    0  502 -0.14026419791E+02  0.60644183502E+01  0.36571152985E+01  0.15712800972E+02  0.00000000000E+00 0.  1.
         11    1    5    5    0    0  0.35054775115E+03 -0.24475352889E+03 -0.53947720863E+02  0.43092733996E+03  0.00000000000E+00 0.  1.
        -11    1    5    5    0    0  0.10907482632E+03 -0.22366834846E+02 -0.26786298918E+02  0.11452117205E+03  0.00000000000E+00 0. -1.
          3    1    6    6  503    0 -0.28955423954E+02  0.26716767007E+02 -0.12928023149E+02  0.41464876681E+02  0.00000000000E+00 0. -1.
         -3    1    6    6    0  503 -0.35420232111E+03 -0.15471266730E+02 -0.10192262070E+03  0.36889953238E+03  0.00000000000E+00 0.  1.
<mgrwt>
<rscale>  0 0.12308009E+04</rscale>
<asrwt>0</asrwt>
<pdfrwt beam="1">  1        1 0.12753998E+00 0.12308009E+04</pdfrwt>
<pdfrwt beam="2">  1       -2 0.70281746E-01 0.12308009E+04</pdfrwt>
<totfact> 0.33280332E+01</totfact>
</mgrwt>
</event>
<event>
12    4  0.4413110E-008  0.1736993E+04  0.7818608E-02  0.8740543E-01
         -2   -1    0    0    0  501 -0.00000000000E+00  0.00000000000E+00  0.43785266305E+03  0.43785266305E+03  0.00000000000E+00 0.  1.
          1   -1    0    0  501    0  0.00000000000E+00 -0.00000000000E+00 -0.17226935820E+04  0.17226935820E+04  0.00000000000E+00 0. -1.
        -24    2    1    2    0    0  0.58605174754E+03  0.85726277562E+02 -0.21563284060E+03  0.63522389705E+03  0.78779641947E+02 0.  0.
        254    2    1    2    0    0 -0.58605174754E+03 -0.85726277562E+02 -0.10692080784E+04  0.15253223480E+04  0.91246737207E+03 0.  0.
         23    2    4    4    0    0  0.20944827802E+03  0.93679016549E+02 -0.38373122042E+03  0.45630775730E+03  0.91229274556E+02 0.  0.
         23    2    4    4    0    0 -0.79550002556E+03 -0.17940529411E+03 -0.68547685797E+03  0.10690145907E+04  0.88922000678E+02 0.  0.
          3    1    3    3  502    0  0.49214327752E+02 -0.14374758132E+02 -0.14646193668E+02  0.53321615845E+02  0.00000000000E+00 0. -1.
         -4    1    3    3    0  502  0.53683741979E+03  0.10010103569E+03 -0.20098664693E+03  0.58190228121E+03  0.00000000000E+00 0.  1.
         11    1    5    5    0    0  0.90496205280E+02  0.74584611130E+02 -0.25106220836E+03  0.27710045083E+03  0.00000000000E+00 0.  1.
        -11    1    5    5    0    0  0.11895207274E+03  0.19094405419E+02 -0.13266901207E+03  0.17920730647E+03  0.00000000000E+00 0. -1.
          1    1    6    6  503    0 -0.74553524030E+03 -0.14607125956E+03 -0.62475118393E+03  0.98360238371E+03  0.00000000000E+00 0. -1.
         -1    1    6    6    0  503 -0.49964785254E+02 -0.33334034552E+02 -0.60725674034E+02  0.85412207043E+02  0.00000000000E+00 0.  1.
<mgrwt>
<rscale>  0 0.17369928E+04</rscale>
<asrwt>0</asrwt>
<pdfrwt beam="1">  1        1 0.26502978E+00 0.17369928E+04</pdfrwt>
<pdfrwt beam="2">  1       -2 0.67361949E-01 0.17369928E+04</pdfrwt>
<totfact> 0.77403083E+00</totfact>
</mgrwt>
</event>
<event>
12    4  0.4413110E-008  0.1456590E+04  0.7818608E-02  0.8913845E-01
          1   -1    0    0  501    0  0.00000000000E+00  0.00000000000E+00  0.12527261159E+04  0.12527261159E+04  0.00000000000E+00 0. -1.
         -2   -1    0    0    0  501 -0.00000000000E+00 -0.00000000000E+00 -0.42340720473E+03  0.42340720473E+03  0.00000000000E+00 0.  1.
        -24    2    1    2    0    0  0.36903688486E+03  0.95134502548E+02 -0.49460850992E+01  0.38954986712E+03  0.80534708361E+02 0.  0.
        254    2    1    2    0    0 -0.36903688486E+03 -0.95134502548E+02  0.83426499631E+03  0.12865834535E+04  0.90225279323E+03 0.  0.
         23    2    4    4    0    0 -0.40858159542E+03 -0.43671568655E+03  0.40247861898E+03  0.72685462318E+03  0.93107967004E+02 0.  0.
         23    2    4    4    0    0  0.39544710555E+02  0.34158118400E+03  0.43178637733E+03  0.55972883036E+03  0.92819170923E+02 0.  0.
          3    1    3    3  502    0  0.30750387188E+02  0.26775436158E+02 -0.17093462331E+02  0.44211952548E+02  0.00000000000E+00 0. -1.
         -4    1    3    3    0  502  0.33828649768E+03  0.68359066390E+02  0.12147377232E+02  0.34533791457E+03  0.00000000000E+00 0.  1.
         11    1    5    5    0    0 -0.11317710113E+03 -0.70409071120E+02  0.10972501327E+03  0.17264435135E+03  0.00000000000E+00 0.  1.
        -11    1    5    5    0    0 -0.29540449429E+03 -0.36630661543E+03  0.29275360570E+03  0.55421027183E+03  0.00000000000E+00 0. -1.
          3    1    6    6  503    0  0.39170086991E+02  0.26019075060E+03  0.26137372386E+03  0.37087699569E+03  0.00000000000E+00 0. -1.
         -3    1    6    6    0  503  0.37462356388E+00  0.81390433398E+02  0.17041265347E+03  0.18885183466E+03  0.00000000000E+00 0.  1.
<mgrwt>
<rscale>  0 0.14565895E+04</rscale>
<asrwt>0</asrwt>
<pdfrwt beam="1">  1        1 0.19272709E+00 0.14565895E+04</pdfrwt>
<pdfrwt beam="2">  1       -2 0.65139570E-01 0.14565895E+04</pdfrwt>
<totfact> 0.18099928E+01</totfact>
</mgrwt>
</event>
<event>
12    4  0.4413110E-008  0.1388943E+04  0.7818608E-02  0.8961861E-01
          1   -1    0    0  501    0  0.00000000000E+00  0.00000000000E+00  0.31697165322E+04  0.31697165322E+04  0.00000000000E+00 0. -1.
         -2   -1    0    0    0  501 -0.00000000000E+00 -0.00000000000E+00 -0.15215586698E+03  0.15215586698E+03  0.00000000000E+00 0.  1.
        -24    2    1    2    0    0  0.25220312200E+03 -0.15016217696E+03  0.34862466972E+03  0.46334925235E+03  0.83655694261E+02 0.  0.
        254    2    1    2    0    0 -0.25220312200E+03  0.15016217696E+03  0.26689359955E+04  0.28585231469E+04  0.98070389966E+03 0.  0.
         23    2    4    4    0    0 -0.43201553358E+03  0.35879196996E+03  0.23888533649E+04  0.24557055140E+04  0.92195841097E+02 0.  0.
         23    2    4    4    0    0  0.17981241158E+03 -0.20862979300E+03  0.28008263059E+03  0.40281763291E+03  0.89201297865E+02 0.  0.
          3    1    3    3  502    0  0.62071941085E+02 -0.38841722324E+02  0.14909389681E+03  0.16610417012E+03  0.00000000000E+00 0. -1.
         -4    1    3    3    0  502  0.19013118092E+03 -0.11132045463E+03  0.19953077291E+03  0.29724508224E+03  0.00000000000E+00 0.  1.
         11    1    5    5    0    0 -0.85003388192E+02  0.37266907022E+02  0.30393897375E+03  0.31779442747E+03  0.00000000000E+00 0. -1.
        -11    1    5    5    0    0 -0.34701214539E+03  0.32152506294E+03  0.20849143912E+04  0.21379110865E+04  0.00000000000E+00 0.  1.
          3    1    6    6  503    0  0.29590596900E+01  0.84514803237E+01  0.13550736387E+02  0.16242106099E+02  0.00000000000E+00 0. -1.
         -3    1    6    6    0  503  0.17685335189E+03 -0.21708127333E+03  0.26653189420E+03  0.38657552681E+03  0.00000000000E+00 0.  1.
<mgrwt>
<rscale>  0 0.13889434E+04</rscale>
<asrwt>0</asrwt>
<pdfrwt beam="1">  1        1 0.48764865E+00 0.13889434E+04</pdfrwt>
<pdfrwt beam="2">  1       -2 0.23408597E-01 0.13889434E+04</pdfrwt>
<totfact> 0.62640987E+00</totfact>
</mgrwt>
</event>
<event>
12    4  0.4413110E-008  0.1237583E+04  0.7818608E-02  0.9080581E-01
          1   -1    0    0  501    0  0.00000000000E+00  0.00000000000E+00  0.60270590713E+03  0.60270590713E+03  0.00000000000E+00 0. -1.
         -2   -1    0    0    0  501 -0.00000000000E+00 -0.00000000000E+00 -0.63530682994E+03  0.63530682994E+03  0.00000000000E+00 0.  1.
        -24    2    1    2    0    0 -0.38917117489E+01  0.25126601751E+03  0.11838924823E+03  0.28856609510E+03  0.78132068786E+02 0.  0.
        254    2    1    2    0    0  0.38917117489E+01 -0.25126601751E+03 -0.15099017104E+03  0.94944664196E+03  0.90305101584E+03 0.  0.
         23    2    4    4    0    0  0.36988605775E+03 -0.32908063707E+03  0.64480181486E+02  0.50795521430E+03  0.93547017678E+02 0.  0.
         23    2    4    4    0    0 -0.36599434600E+03  0.77814619557E+02 -0.21547035252E+03  0.44149142767E+03  0.92088172785E+02 0.  0.
          3    1    3    3  502    0  0.13359645226E+02  0.23136873737E+03  0.12213337730E+03  0.26196666697E+03  0.00000000000E+00 0. -1.
         -4    1    3    3    0  502 -0.17251356974E+02  0.19897280136E+02 -0.37441290772E+01  0.26599428130E+02  0.00000000000E+00 0.  1.
         11    1    5    5    0    0  0.10930436854E+02 -0.17983539264E+02 -0.15665800203E+02  0.26235461312E+02  0.00000000000E+00 0. -1.
        -11    1    5    5    0    0  0.35895562090E+03 -0.31109709780E+03  0.80145981689E+02  0.48171975298E+03  0.00000000000E+00 0.  1.
          1    1    6    6  503    0 -0.26330224770E+02  0.33644655300E+02 -0.26990559775E+02  0.50534482125E+02  0.00000000000E+00 0. -1.
         -1    1    6    6    0  503 -0.33966412123E+03  0.44169964256E+02 -0.18847979275E+03  0.39095694554E+03  0.00000000000E+00 0.  1.
<mgrwt>
<rscale>  0 0.12375834E+04</rscale>
<asrwt>0</asrwt>
<pdfrwt beam="1">  1        1 0.92723986E-01 0.12375834E+04</pdfrwt>
<pdfrwt beam="2">  1       -2 0.97739512E-01 0.12375834E+04</pdfrwt>
<totfact> 0.25629405E+01</totfact>
</mgrwt>
</event>
<event>
12    4  0.4413110E-008  0.1625890E+04  0.7818608E-02  0.8804799E-01
         -2   -1    0    0    0  501 -0.00000000000E+00  0.00000000000E+00  0.12139935633E+04  0.12139935633E+04  0.00000000000E+00 0.  1.
          1   -1    0    0  501    0  0.00000000000E+00 -0.00000000000E+00 -0.54438506500E+03  0.54438506500E+03  0.00000000000E+00 0. -1.
        -24    2    1    2    0    0  0.17956858128E+03  0.47789998486E+03  0.48360195197E+03  0.70777552307E+03  0.80262520495E+02 0.  0.
        254    2    1    2    0    0 -0.17956858128E+03 -0.47789998486E+03  0.18600654638E+03  0.10506031053E+04  0.89918584208E+03 0.  0.
         23    2    4    4    0    0  0.85667107056E+02 -0.43531491293E+03 -0.26028608828E+03  0.52246020525E+03  0.91530823569E+02 0.  0.
         23    2    4    4    0    0 -0.26523568833E+03 -0.42585071926E+02  0.44629263466E+03  0.52814290002E+03  0.87145558539E+02 0.  0.
          1    1    3    3  502    0  0.27820093828E+02  0.30688244648E+02  0.62862905667E+02  0.75282606817E+02  0.00000000000E+00 0. -1.
         -2    1    3    3    0  502  0.15174848745E+03  0.44721174021E+03  0.42073904630E+03  0.63249291625E+03  0.00000000000E+00 0.  1.
         11    1    5    5    0    0  0.36660400061E+02 -0.36435564927E+03 -0.20012597456E+03  0.41731214910E+03  0.00000000000E+00 0.  1.
        -11    1    5    5    0    0  0.49006706995E+02 -0.70959263658E+02 -0.60160113727E+02  0.10514805615E+03  0.00000000000E+00 0. -1.
          3    1    6    6  503    0 -0.60582398627E+02 -0.41644763819E+02  0.80694367236E+02  0.10916086424E+03  0.00000000000E+00 0. -1.
         -3    1    6    6    0  503 -0.20465328970E+03 -0.94030810719E+00  0.36559826742E+03  0.41898203578E+03  0.00000000000E+00 0.  1.
<mgrwt>
<rscale>  0 0.16258905E+04</rscale>
<asrwt>0</asrwt>
<pdfrwt beam="1">  1        1 0.83751549E-01 0.16258905E+04</pdfrwt>
<pdfrwt beam="2">  1       -2 0.18676824E+00 0.16258905E+04</pdfrwt>
<totfact> 0.53688816E+00</totfact>
</mgrwt>
</event>
<event>
12    4  0.4413110E-008  0.1502983E+04  0.7818608E-02  0.8882471E-01
          1   -1    0    0  501    0  0.00000000000E+00  0.00000000000E+00  0.70874577742E+03  0.70874577742E+03  0.00000000000E+00 0. -1.
         -2   -1    0    0    0  501 -0.00000000000E+00 -0.00000000000E+00 -0.79681567885E+03  0.79681567885E+03  0.00000000000E+00 0.  1.
        -24    2    1    2    0    0  0.84414018455E+01  0.53591246407E+02  0.44645163228E+03  0.45683052092E+03  0.80198415989E+02 0.  0.
        254    2    1    2    0    0 -0.84414018455E+01 -0.53591246407E+02 -0.53452153370E+03  0.10487309354E+04  0.90065533131E+03 0.  0.
         23    2    4    4    0    0 -0.42521244703E+03 -0.11097242013E+03 -0.15575938389E+03  0.47562312022E+03  0.93999274887E+02 0.  0.
         23    2    4    4    0    0  0.41677104519E+03  0.57381173719E+02 -0.37876214981E+03  0.57310781513E+03  0.89448859304E+02 0.  0.
          1    1    3    3  502    0  0.11409770361E+02  0.62601750141E+02  0.19336547653E+03  0.20356662175E+03  0.00000000000E+00 0. -1.
         -2    1    3    3    0  502 -0.29683685153E+01 -0.90105037336E+01  0.25308615575E+03  0.25326389917E+03  0.00000000000E+00 0.  1.
         11    1    5    5    0    0 -0.38190275713E+03 -0.68048863400E+02 -0.14217608097E+03  0.41315179016E+03  0.00000000000E+00 0.  1.
        -11    1    5    5    0    0 -0.43309689907E+02 -0.42923556726E+02 -0.13583302924E+02  0.62471330066E+02  0.00000000000E+00 0. -1.
          1    1    6    6  503    0  0.22829911000E+03  0.76239523113E+02 -0.21133781669E+03  0.32030707341E+03  0.00000000000E+00 0. -1.
         -1    1    6    6    0  503  0.18847193519E+03 -0.18858349394E+02 -0.16742433312E+03  0.25280074172E+03  0.00000000000E+00 0.  1.
<mgrwt>
<rscale>  0 0.15029834E+04</rscale>
<asrwt>0</asrwt>
<pdfrwt beam="1">  1        1 0.10903781E+00 0.15029834E+04</pdfrwt>
<pdfrwt beam="2">  1       -2 0.12258703E+00 0.15029834E+04</pdfrwt>
<totfact> 0.11395415E+01</totfact>
</mgrwt>
</event>
<event>
12    4  0.4413110E-008  0.2075664E+04  0.7818608E-02  0.8572040E-01
         -2   -1    0    0    0  501 -0.00000000000E+00  0.00000000000E+00  0.60410741959E+03  0.60410741959E+03  0.00000000000E+00 0.  1.
          1   -1    0    0  501    0  0.00000000000E+00 -0.00000000000E+00 -0.17829530712E+04  0.17829530712E+04  0.00000000000E+00 0. -1.
        -24    2    1    2    0    0  0.42759979642E+03  0.30330941912E+03  0.27375160203E+03  0.59735970468E+03  0.84026707229E+02 0.  0.
        254    2    1    2    0    0 -0.42759979642E+03 -0.30330941912E+03 -0.14525972537E+04  0.17897007861E+04  0.90451751389E+03 0.  0.
         23    2    4    4    0    0 -0.63070880433E+03 -0.34486924174E+03 -0.13661440759E+04  0.15463354335E+04  0.89862377900E+02 0.  0.
         23    2    4    4    0    0  0.20310900791E+03  0.41559822618E+02 -0.86453177750E+02  0.24336535265E+03  0.93659249296E+02 0.  0.
          3    1    3    3  502    0  0.11236627531E+02 -0.14007460629E+01 -0.32114248135E+01  0.11770179996E+02  0.00000000000E+00 0. -1.
         -4    1    3    3    0  502  0.41636316889E+03  0.30471016518E+03  0.27696302685E+03  0.58558952468E+03  0.00000000000E+00 0.  1.
         11    1    5    5    0    0 -0.50107637508E+03 -0.23246272385E+03 -0.10179573393E+04  0.11581682073E+04  0.00000000000E+00 0.  1.
        -11    1    5    5    0    0 -0.12963242925E+03 -0.11240651789E+03 -0.34818673660E+03  0.38816722623E+03  0.00000000000E+00 0. -1.
          2    1    6    6  503    0  0.15599832742E+02  0.84599525336E+01  0.18758610142E+02  0.25822684464E+02  0.00000000000E+00 0. -1.
         -2    1    6    6    0  503  0.18750917516E+03  0.33099870084E+02 -0.10521178789E+03  0.21754266819E+03  0.00000000000E+00 0.  1.
<mgrwt>
<rscale>  0 0.20756639E+04</rscale>
<asrwt>0</asrwt>
<pdfrwt beam="1">  1        1 0.27430047E+00 0.20756639E+04</pdfrwt>
<pdfrwt beam="2">  1       -2 0.92939603E-01 0.20756639E+04</pdfrwt>
<totfact> 0.33215828E+00</totfact>
</mgrwt>
</event>
<event>
12    4  0.4413110E-008  0.1983596E+04  0.7818608E-02  0.8614329E-01
          1   -1    0    0  501    0  0.00000000000E+00  0.00000000000E+00  0.46985353877E+03  0.46985353877E+03  0.00000000000E+00 0. -1.
         -2   -1    0    0    0  501 -0.00000000000E+00 -0.00000000000E+00 -0.20935525408E+04  0.20935525408E+04  0.00000000000E+00 0.  1.
        -24    2    1    2    0    0  0.21914674186E+03  0.74735044809E+03 -0.72637468504E+03  0.10691805055E+04  0.94703662137E+02 0.  0.
        254    2    1    2    0    0 -0.21914674186E+03 -0.74735044809E+03 -0.89732431696E+03  0.14942255740E+04  0.90606906442E+03 0.  0.
         23    2    4    4    0    0 -0.53835954226E+03 -0.38593095850E+03 -0.69337325101E+03  0.96317513829E+03  0.90366920554E+02 0.  0.
         23    2    4    4    0    0  0.31921280039E+03 -0.36141948959E+03 -0.20395106595E+03  0.53105043573E+03  0.88868828024E+02 0.  0.
          1    1    3    3  502    0  0.10669059487E+03  0.42051231104E+03 -0.34342295984E+03  0.55331077715E+03  0.00000000000E+00 0. -1.
         -4    1    3    3    0  502  0.11245614700E+03  0.32683813705E+03 -0.38295172520E+03  0.51586972838E+03  0.00000000000E+00 0.  1.
         11    1    5    5    0    0 -0.10271222487E+03 -0.33245385371E+02 -0.11690058157E+03  0.15912511668E+03  0.00000000000E+00 0. -1.
        -11    1    5    5    0    0 -0.43564731739E+03 -0.35268557313E+03 -0.57647266944E+03  0.80405002161E+03  0.00000000000E+00 0.  1.
          1    1    6    6  503    0  0.83114897900E+02 -0.82808264129E+02 -0.10529649819E+02  0.11779714931E+03  0.00000000000E+00 0. -1.
         -1    1    6    6    0  503  0.23609790249E+03 -0.27861122546E+03 -0.19342141613E+03  0.41325328641E+03  0.00000000000E+00 0.  1.
<mgrwt>
<rscale>  0 0.19835958E+04</rscale>
<asrwt>0</asrwt>
<pdfrwt beam="1">  1        1 0.72285160E-01 0.19835958E+04</pdfrwt>
<pdfrwt beam="2">  1       -2 0.32208501E+00 0.19835958E+04</pdfrwt>
<totfact> 0.91397444E-01</totfact>
</mgrwt>
</event>
<event>
12    4  0.4413110E-008  0.1868789E+04  0.7818608E-02  0.8670550E-01
          1   -1    0    0  501    0  0.00000000000E+00  0.00000000000E+00  0.16641948777E+04  0.16641948777E+04  0.00000000000E+00 0. -1.
         -2   -1    0    0    0  501 -0.00000000000E+00 -0.00000000000E+00 -0.52463372632E+03  0.52463372632E+03  0.00000000000E+00 0.  1.
        -24    2    1    2    0    0  0.11145473094E+03 -0.51470758760E+03 -0.12483216717E+03  0.54712757705E+03  0.80121519097E+02 0.  0.
        254    2    1    2    0    0 -0.11145473094E+03  0.51470758760E+03  0.12643933185E+04  0.16417010269E+04  0.90506670482E+03 0.  0.
         23    2    4    4    0    0 -0.18698630088E+03  0.74129954305E+03  0.79317618056E+03  0.11054851240E+04  0.92087005769E+02 0.  0.
         23    2    4    4    0    0  0.75531569946E+02 -0.22659195544E+03  0.47121713795E+03  0.53621590298E+03  0.91831210296E+02 0.  0.
          3    1    3    3  502    0  0.55060344085E+02 -0.24514866117E+03 -0.18563930748E+02  0.25194072138E+03  0.00000000000E+00 0. -1.
         -4    1    3    3    0  502  0.56394386852E+02 -0.26955892643E+03 -0.10626823642E+03  0.29518685566E+03  0.00000000000E+00 0.  1.
         11    1    5    5    0    0 -0.10899543224E+03  0.33305036721E+03  0.41911175507E+03  0.54631237821E+03  0.00000000000E+00 0. -1.
        -11    1    5    5    0    0 -0.77990868640E+02  0.40824917584E+03  0.37406442550E+03  0.55917274575E+03  0.00000000000E+00 0.  1.
          2    1    6    6  503    0  0.62867832201E+02 -0.71869444555E+02  0.12957220980E+03  0.16095508361E+03  0.00000000000E+00 0. -1.
         -2    1    6    6    0  503  0.12663737745E+02 -0.15472251089E+03  0.34164492815E+03  0.37526081938E+03  0.00000000000E+00 0.  1.
<mgrwt>
<rscale>  0 0.18687887E+04</rscale>
<asrwt>0</asrwt>
<pdfrwt beam="1">  1        1 0.25602998E+00 0.18687887E+04</pdfrwt>
<pdfrwt beam="2">  1       -2 0.80712882E-01 0.18687887E+04</pdfrwt>
<totfact> 0.56258047E+00</totfact>
</mgrwt>
</event>
<event>
12    4  0.4413110E-008  0.1562327E+04  0.7818608E-02  0.8844032E-01
         -2   -1    0    0    0  501 -0.00000000000E+00  0.00000000000E+00  0.92795847808E+03  0.92795847808E+03  0.00000000000E+00 0.  1.
          1   -1    0    0  501    0  0.00000000000E+00 -0.00000000000E+00 -0.65759029050E+03  0.65759029050E+03  0.00000000000E+00 0. -1.
        -24    2    1    2    0    0 -0.40488296389E+03 -0.10504114635E+03  0.38537309993E+03  0.57426795834E+03  0.79419172462E+02 0.  0.
        254    2    1    2    0    0  0.40488296389E+03  0.10504114635E+03 -0.11500491235E+03  0.10112808102E+04  0.91350910801E+03 0.  0.
         23    2    4    4    0    0  0.20593016035E+03  0.49843767319E+03 -0.12620314836E+03  0.56133581786E+03  0.91232235333E+02 0.  0.
         23    2    4    4    0    0  0.19895280354E+03 -0.39339652684E+03  0.11198236013E+02  0.44994499237E+03  0.89342320911E+02 0.  0.
          1    1    3    3  502    0 -0.29784569782E+03 -0.69072503847E+02  0.32502825442E+03  0.44623585319E+03  0.00000000000E+00 0. -1.
         -2    1    3    3    0  502 -0.10703726607E+03 -0.35968642498E+02  0.60344845509E+02  0.12803210515E+03  0.00000000000E+00 0.  1.
         11    1    5    5    0    0  0.19442541735E+03  0.49684308866E+03 -0.12995722161E+03  0.54912947209E+03  0.00000000000E+00 0. -1.
        -11    1    5    5    0    0  0.11504742999E+02  0.15945845236E+01  0.37540732459E+01  0.12206345776E+02  0.00000000000E+00 0.  1.
          3    1    6    6  503    0  0.15503962014E+03 -0.30231978150E+03  0.46338701703E+02  0.34290204050E+03  0.00000000000E+00 0. -1.
         -3    1    6    6    0  503  0.43913183394E+02 -0.91076745341E+02 -0.35140465691E+02  0.10704295188E+03  0.00000000000E+00 0.  1.
<mgrwt>
<rscale>  0 0.15623271E+04</rscale>
<asrwt>0</asrwt>
<pdfrwt beam="1">  1        1 0.10116774E+00 0.15623271E+04</pdfrwt>
<pdfrwt beam="2">  1       -2 0.14276284E+00 0.15623271E+04</pdfrwt>
<totfact> 0.86040743E+00</totfact>
</mgrwt>
</event>
<event>
12    4  0.4413110E-008  0.1604213E+04  0.7818608E-02  0.8817964E-01
         -2   -1    0    0    0  501 -0.00000000000E+00  0.00000000000E+00  0.62358746746E+03  0.62358746746E+03  0.00000000000E+00 0.  1.
          1   -1    0    0  501    0  0.00000000000E+00 -0.00000000000E+00 -0.10317319001E+04  0.10317319001E+04  0.00000000000E+00 0. -1.
        -24    2    1    2    0    0 -0.34021755230E+03  0.32729766855E+03 -0.42821950561E+03  0.64241517517E+03  0.80334087267E+02 0.  0.
        254    2    1    2    0    0  0.34021755230E+03 -0.32729766855E+03  0.20075072990E+02  0.10129041924E+04  0.89593534791E+03 0.  0.
         23    2    4    4    0    0 -0.17908367798E+03 -0.23320407717E+03 -0.26510229686E+03  0.40687940867E+03  0.93896326157E+02 0.  0.
         23    2    4    4    0    0  0.51930123029E+03 -0.94093591382E+02  0.28517736985E+03  0.60602478371E+03  0.86096076993E+02 0.  0.
          3    1    3    3  502    0 -0.33757783346E+03  0.32550817208E+03 -0.43190652977E+03  0.63754028437E+03  0.00000000000E+00 0. -1.
         -4    1    3    3    0  502 -0.26397188427E+01  0.17894964673E+01  0.36870241623E+01  0.48748908037E+01  0.00000000000E+00 0.  1.
         11    1    5    5    0    0 -0.41509434586E+02 -0.95274419122E+02 -0.14368421347E+03  0.17732851237E+03  0.00000000000E+00 0. -1.
        -11    1    5    5    0    0 -0.13757424340E+03 -0.13792965805E+03 -0.12141808339E+03  0.22955089629E+03  0.00000000000E+00 0.  1.
          4    1    6    6  503    0  0.13468324731E+03 -0.41281286909E+02  0.38414273407E+02  0.14601156857E+03  0.00000000000E+00 0. -1.
         -4    1    6    6    0  503  0.38461798298E+03 -0.52812304473E+02  0.24676309645E+03  0.46001321514E+03  0.00000000000E+00 0.  1.
<mgrwt>
<rscale>  0 0.16042133E+04</rscale>
<asrwt>0</asrwt>
<pdfrwt beam="1">  1        1 0.15872798E+00 0.16042133E+04</pdfrwt>
<pdfrwt beam="2">  1       -2 0.95936534E-01 0.16042133E+04</pdfrwt>
<totfact> 0.10949903E+01</totfact>
</mgrwt>
</event>
<event>
12    4  0.4413110E-008  0.1511922E+04  0.7818608E-02  0.8876563E-01
         -2   -1    0    0    0  501 -0.00000000000E+00  0.00000000000E+00  0.72713968801E+03  0.72713968801E+03  0.00000000000E+00 0.  1.
          1   -1    0    0  501    0  0.00000000000E+00 -0.00000000000E+00 -0.78592494099E+03  0.78592494099E+03  0.00000000000E+00 0. -1.
        -24    2    1    2    0    0  0.21871715061E+03  0.40393507809E+03 -0.18412773740E+03  0.50084607705E+03  0.77091049645E+02 0.  0.
        254    2    1    2    0    0 -0.21871715061E+03 -0.40393507809E+03  0.12534248441E+03  0.10122185519E+04  0.89323844477E+03 0.  0.
         23    2    4    4    0    0 -0.13540203026E+03 -0.62196204620E+03 -0.12800688724E+03  0.65592808957E+03  0.93195486996E+02 0.  0.
         23    2    4    4    0    0 -0.83315120347E+02  0.21802696811E+03  0.25334937166E+03  0.35629046237E+03  0.90993523713E+02 0.  0.
          1    1    3    3  502    0  0.18690992360E+03  0.27981344908E+03 -0.14882205854E+03  0.36793870540E+03  0.00000000000E+00 0. -1.
         -2    1    3    3    0  502  0.31807227003E+02  0.12412162901E+03 -0.35305678859E+02  0.13290737164E+03  0.00000000000E+00 0.  1.
         11    1    5    5    0    0 -0.14887382508E+03 -0.57378937968E+03 -0.11097010597E+03  0.60308542716E+03  0.00000000000E+00 0.  1.
        -11    1    5    5    0    0  0.13471794818E+02 -0.48172666518E+02 -0.17036781274E+02  0.52842662416E+02  0.00000000000E+00 0. -1.
          1    1    6    6  503    0 -0.16957586959E+02 -0.50004710628E+01  0.14914446088E+02  0.23130178737E+02  0.00000000000E+00 0. -1.
         -1    1    6    6    0  503 -0.66357533388E+02  0.22302743917E+03  0.23843492557E+03  0.33316028364E+03  0.00000000000E+00 0.  1.
<mgrwt>
<rscale>  0 0.15119222E+04</rscale>
<asrwt>0</asrwt>
<pdfrwt beam="1">  1        1 0.12091153E+00 0.15119222E+04</pdfrwt>
<pdfrwt beam="2">  1       -2 0.11186764E+00 0.15119222E+04</pdfrwt>
<totfact> 0.12144528E+01</totfact>
</mgrwt>
</event>
<event>
12    4  0.4413110E-008  0.1491997E+04  0.7818608E-02  0.8889792E-01
          1   -1    0    0  501    0  0.00000000000E+00  0.00000000000E+00  0.23141165336E+04  0.23141165336E+04  0.00000000000E+00 0. -1.
         -2   -1    0    0    0  501 -0.00000000000E+00 -0.00000000000E+00 -0.24048654283E+03  0.24048654283E+03  0.00000000000E+00 0.  1.
        -24    2    1    2    0    0 -0.33841468630E+03 -0.69555867592E+02  0.13180841994E+03  0.37847061528E+03  0.80647556971E+02 0.  0.
        254    2    1    2    0    0  0.33841468630E+03  0.69555867592E+02  0.19418215708E+04  0.21761324612E+04  0.91952104757E+03 0.  0.
         23    2    4    4    0    0  0.62475395798E+03 -0.27224782874E+02  0.10077731656E+04  0.11900008732E+04  0.97142308854E+02 0.  0.
         23    2    4    4    0    0 -0.28633927168E+03  0.96780650466E+02  0.93404840524E+03  0.98613158793E+03  0.93018345410E+02 0.  0.
          1    1    3    3  502    0 -0.29549667237E+03 -0.58360170426E+02  0.14194111265E+03  0.33297368114E+03  0.00000000000E+00 0. -1.
         -2    1    3    3    0  502 -0.42918013931E+02 -0.11195697167E+02 -0.10132692706E+02  0.45496934141E+02  0.00000000000E+00 0.  1.
         11    1    5    5    0    0  0.42228289243E+03  0.11400171182E+02  0.73993535681E+03  0.85203118335E+03  0.00000000000E+00 0.  1.
        -11    1    5    5    0    0  0.20247106555E+03 -0.38624954056E+02  0.26783780880E+03  0.33796968988E+03  0.00000000000E+00 0. -1.
          4    1    6    6  503    0 -0.13324852200E+03  0.92821918338E+02  0.51362528827E+03  0.53868544986E+03  0.00000000000E+00 0. -1.
         -4    1    6    6    0  503 -0.15309074968E+03  0.39587321283E+01  0.42042311697E+03  0.44744613807E+03  0.00000000000E+00 0.  1.
<mgrwt>
<rscale>  0 0.14919972E+04</rscale>
<asrwt>0</asrwt>
<pdfrwt beam="1">  1        1 0.35601791E+00 0.14919972E+04</pdfrwt>
<pdfrwt beam="2">  1       -2 0.36997931E-01 0.14919972E+04</pdfrwt>
<totfact> 0.10668703E+01</totfact>
</mgrwt>
</event>
<event>
12    4  0.4413110E-008  0.1562027E+04  0.7818608E-02  0.8844222E-01
          1   -1    0    0  501    0  0.00000000000E+00  0.00000000000E+00  0.78002427726E+03  0.78002427726E+03  0.00000000000E+00 0. -1.
         -2   -1    0    0    0  501 -0.00000000000E+00 -0.00000000000E+00 -0.78200394915E+03  0.78200394915E+03  0.00000000000E+00 0.  1.
        -24    2    1    2    0    0  0.18658751158E+03 -0.60476056068E+02 -0.47848084417E+03  0.52323863442E+03  0.79765264825E+02 0.  0.
        254    2    1    2    0    0 -0.18658751158E+03  0.60476056068E+02  0.47650117228E+03  0.10387895920E+04  0.90197460963E+03 0.  0.
         23    2    4    4    0    0  0.14113772314E+03  0.39574770217E+03  0.31779440044E+03  0.53560464069E+03  0.96658933966E+02 0.  0.
         23    2    4    4    0    0 -0.32772523472E+03 -0.33527164610E+03  0.15870677184E+03  0.50318495130E+03  0.90533693384E+02 0.  0.
          1    1    3    3  502    0  0.17187581747E+02  0.10321353765E+02 -0.10701866311E+03  0.10888038190E+03  0.00000000000E+00 0. -1.
         -2    1    3    3    0  502  0.16939992983E+03 -0.70797409833E+02 -0.37146218106E+03  0.41435825251E+03  0.00000000000E+00 0.  1.
         11    1    5    5    0    0  0.59580169348E+02  0.75455004034E+02  0.10574254385E+03  0.14291514893E+03  0.00000000000E+00 0. -1.
        -11    1    5    5    0    0  0.81557553793E+02  0.32029269814E+03  0.21205185659E+03  0.39268949177E+03  0.00000000000E+00 0.  1.
          3    1    6    6  503    0 -0.33278965281E+02 -0.77646841655E+02  0.45208863535E+02  0.95814210279E+02  0.00000000000E+00 0. -1.
         -3    1    6    6    0  503 -0.29444626944E+03 -0.25762480445E+03  0.11349790830E+03  0.40737074102E+03  0.00000000000E+00 0.  1.
<mgrwt>
<rscale>  0 0.15620270E+04</rscale>
<asrwt>0</asrwt>
<pdfrwt beam="1">  1        1 0.12000374E+00 0.15620270E+04</pdfrwt>
<pdfrwt beam="2">  1       -2 0.12030830E+00 0.15620270E+04</pdfrwt>
<totfact> 0.10239345E+01</totfact>
</mgrwt>
</event>
<event>
12    4  0.4413110E-008  0.1661942E+04  0.7818608E-02  0.8783373E-01
         -2   -1    0    0    0  501 -0.00000000000E+00  0.00000000000E+00  0.23867929576E+04  0.23867929576E+04  0.00000000000E+00 0.  1.
          1   -1    0    0  501    0  0.00000000000E+00 -0.00000000000E+00 -0.28930585615E+03  0.28930585615E+03  0.00000000000E+00 0. -1.
        -24    2    1    2    0    0  0.21915008448E+03 -0.53453742523E+03  0.70615162170E+03  0.91575705779E+03  0.78764570546E+02 0.  0.
        254    2    1    2    0    0 -0.21915008448E+03  0.53453742523E+03  0.13913354797E+04  0.17603417559E+04  0.91062158004E+03 0.  0.
         23    2    4    4    0    0  0.85167571110E+02  0.70309377924E+03  0.99424891323E+03  0.12242464170E+04  0.93026933865E+02 0.  0.
         23    2    4    4    0    0 -0.30431765559E+03 -0.16855635402E+03  0.39708656648E+03  0.53609533895E+03  0.93273743242E+02 0.  0.
          3    1    3    3  502    0  0.54107354101E+02 -0.80417296875E+02  0.85874562560E+02  0.12949512693E+03  0.00000000000E+00 0. -1.
         -4    1    3    3    0  502  0.16504273038E+03 -0.45412012835E+03  0.62027705914E+03  0.78626193086E+03  0.00000000000E+00 0.  1.
         11    1    5    5    0    0 -0.15845443137E+02  0.22963518123E+03  0.31599969697E+03  0.39094654751E+03  0.00000000000E+00 0.  1.
        -11    1    5    5    0    0  0.10101301425E+03  0.47345859802E+03  0.67824921627E+03  0.83329986946E+03  0.00000000000E+00 0. -1.
          3    1    6    6  503    0 -0.10283228459E+03 -0.10944179395E+03  0.16805285311E+03  0.22537468016E+03  0.00000000000E+00 0. -1.
         -3    1    6    6    0  503 -0.20148537100E+03 -0.59114560065E+02  0.22903371337E+03  0.31072065879E+03  0.00000000000E+00 0.  1.
<mgrwt>
<rscale>  0 0.16619425E+04</rscale>
<asrwt>0</asrwt>
<pdfrwt beam="1">  1        1 0.44508595E-01 0.16619425E+04</pdfrwt>
<pdfrwt beam="2">  1       -2 0.36719890E+00 0.16619425E+04</pdfrwt>
<totfact> 0.93295369E-01</totfact>
</mgrwt>
</event>
<event>
12    4  0.4413110E-008  0.1811594E+04  0.7818608E-02  0.8700158E-01
          1   -1    0    0  501    0  0.00000000000E+00  0.00000000000E+00  0.22197329122E+04  0.22197329122E+04  0.00000000000E+00 0. -1.
         -2   -1    0    0    0  501 -0.00000000000E+00 -0.00000000000E+00 -0.36962489631E+03  0.36962489631E+03  0.00000000000E+00 0.  1.
        -24    2    1    2    0    0 -0.14299215744E+03 -0.54475232379E+03  0.15410197823E+03  0.58931829136E+03  0.79666664747E+02 0.  0.
        254    2    1    2    0    0  0.14299215744E+03  0.54475232379E+03  0.16960060377E+04  0.20000395172E+04  0.89806444034E+03 0.  0.
         23    2    4    4    0    0  0.34700984028E+03  0.65733465598E+03  0.92737217301E+03  0.11920054764E+04  0.91396002803E+02 0.  0.
         23    2    4    4    0    0 -0.20401768284E+03 -0.11258233219E+03  0.76863386466E+03  0.80803404074E+03  0.88447705766E+02 0.  0.
          1    1    3    3  502    0  0.17589581206E+00 -0.13079669761E+03  0.34710083741E+02  0.13532404427E+03  0.00000000000E+00 0. -1.
         -2    1    3    3    0  502 -0.14316805325E+03 -0.41395562618E+03  0.11939189448E+03  0.45399424709E+03  0.00000000000E+00 0.  1.
         11    1    5    5    0    0  0.66461374849E+02  0.17349833619E+03  0.18148759062E+03  0.25972395453E+03  0.00000000000E+00 0. -1.
        -11    1    5    5    0    0  0.28054846543E+03  0.48383631979E+03  0.74588458239E+03  0.93228152189E+03  0.00000000000E+00 0.  1.
          4    1    6    6  503    0 -0.25733183460E+02  0.10899556422E+01  0.29070270978E+02  0.38838967404E+02  0.00000000000E+00 0. -1.
         -4    1    6    6    0  503 -0.17828449938E+03 -0.11367228783E+03  0.73956359369E+03  0.76919507334E+03  0.00000000000E+00 0.  1.
<mgrwt>
<rscale>  0 0.18115944E+04</rscale>
<asrwt>0</asrwt>
<pdfrwt beam="1">  1        1 0.34149736E+00 0.18115944E+04</pdfrwt>
<pdfrwt beam="2">  1       -2 0.56865370E-01 0.18115944E+04</pdfrwt>
<totfact> 0.50720899E+00</totfact>
</mgrwt>
</event>
<event>
12    4  0.4413110E-008  0.1914328E+04  0.7818608E-02  0.8647757E-01
         -2   -1    0    0    0  501 -0.00000000000E+00  0.00000000000E+00  0.46724157615E+03  0.46724157615E+03  0.00000000000E+00 0.  1.
          1   -1    0    0  501    0  0.00000000000E+00 -0.00000000000E+00 -0.19607905513E+04  0.19607905513E+04  0.00000000000E+00 0. -1.
        -24    2    1    2    0    0 -0.37808581896E+03  0.90256953334E+01  0.20735589004E+03  0.43942622634E+03  0.84074928388E+02 0.  0.
        254    2    1    2    0    0  0.37808581896E+03 -0.90256953334E+01 -0.17009048652E+04  0.19886059012E+04  0.95835573765E+03 0.  0.
         23    2    4    4    0    0  0.60716086125E+03  0.14952503110E+03 -0.15153441580E+04  0.16416261140E+04  0.87557607485E+02 0.  0.
         23    2    4    4    0    0 -0.22907504229E+03 -0.15855072643E+03 -0.18556070721E+03  0.34697978714E+03  0.91370064966E+02 0.  0.
          3    1    3    3  502    0 -0.20911900427E+02  0.11511707260E+02  0.36178390421E+02  0.43344006701E+02  0.00000000000E+00 0. -1.
         -4    1    3    3    0  502 -0.35717391853E+03 -0.24860119262E+01  0.17117749962E+03  0.39608221963E+03  0.00000000000E+00 0.  1.
         11    1    5    5    0    0  0.12594762596E+03 -0.47416219479E+01 -0.30884703449E+03  0.33357424687E+03  0.00000000000E+00 0. -1.
        -11    1    5    5    0    0  0.48121323528E+03  0.15426665305E+03 -0.12064971235E+04  0.13080518671E+04  0.00000000000E+00 0.  1.
          4    1    6    6  503    0 -0.91014074758E+02 -0.45234584469E+02 -0.20298154966E+02  0.10364238771E+03  0.00000000000E+00 0. -1.
         -4    1    6    6    0  503 -0.13806096753E+03 -0.11331614197E+03 -0.16526255225E+03  0.24333739943E+03  0.00000000000E+00 0.  1.
<mgrwt>
<rscale>  0 0.19143279E+04</rscale>
<asrwt>0</asrwt>
<pdfrwt beam="1">  1        1 0.30166008E+00 0.19143279E+04</pdfrwt>
<pdfrwt beam="2">  1       -2 0.71883320E-01 0.19143279E+04</pdfrwt>
<totfact> 0.45596585E+00</totfact>
</mgrwt>
</event>
<event>
12    4  0.4413110E-008  0.2535729E+04  0.7818608E-02  0.8390367E-01
          1   -1    0    0  501    0  0.00000000000E+00  0.00000000000E+00  0.19605662559E+04  0.19605662559E+04  0.00000000000E+00 0. -1.
         -2   -1    0    0    0  501 -0.00000000000E+00 -0.00000000000E+00 -0.81990586938E+03  0.81990586938E+03  0.00000000000E+00 0.  1.
        -24    2    1    2    0    0  0.54171457552E+03  0.58843178941E+03  0.13390685419E+04  0.15619142839E+04  0.82249730864E+02 0.  0.
        254    2    1    2    0    0 -0.54171457552E+03 -0.58843178941E+03 -0.19840815544E+03  0.12185578413E+04  0.89766962989E+03 0.  0.
         23    2    4    4    0    0 -0.53970242703E+03 -0.79604244087E+03 -0.98328473641E+02  0.97064026510E+03  0.86670399204E+02 0.  0.
         23    2    4    4    0    0 -0.20121484904E+01  0.20761065146E+03 -0.10007968179E+03  0.24791757624E+03  0.91328804650E+02 0.  0.
          3    1    3    3  502    0  0.31192385201E+03  0.39369033629E+03  0.80914127733E+03  0.95236451898E+03  0.00000000000E+00 0. -1.
         -4    1    3    3    0  502  0.22979072351E+03  0.19474145312E+03  0.52992726458E+03  0.60954976493E+03  0.00000000000E+00 0.  1.
         11    1    5    5    0    0 -0.82739226907E+02 -0.75466625207E+02 -0.24331453084E+01  0.11201299650E+03  0.00000000000E+00 0.  1.
        -11    1    5    5    0    0 -0.45696320012E+03 -0.72057581566E+03 -0.95895328333E+02  0.85862726859E+03  0.00000000000E+00 0. -1.
          2    1    6    6  503    0 -0.23300327915E+01  0.21494685726E+03 -0.10484340787E+03  0.23916463090E+03  0.00000000000E+00 0. -1.
         -2    1    6    6    0  503  0.31788430108E+00 -0.73362057990E+01  0.47637260799E+01  0.87529453396E+01  0.00000000000E+00 0.  1.
<mgrwt>
<rscale>  0 0.25357285E+04</rscale>
<asrwt>0</asrwt>
<pdfrwt beam="1">  1        1 0.30162558E+00 0.25357285E+04</pdfrwt>
<pdfrwt beam="2">  1       -2 0.12613936E+00 0.25357285E+04</pdfrwt>
<totfact> 0.11560240E+00</totfact>
</mgrwt>
</event>
<event>
12    4  0.4413110E-008  0.2056198E+04  0.7818608E-02  0.8580788E-01
          1   -1    0    0  501    0  0.00000000000E+00  0.00000000000E+00  0.54755851053E+03  0.54755851053E+03  0.00000000000E+00 0. -1.
         -2   -1    0    0    0  501 -0.00000000000E+00 -0.00000000000E+00 -0.19303641754E+04  0.19303641754E+04  0.00000000000E+00 0.  1.
        -24    2    1    2    0    0  0.13545108675E+03 -0.75081412596E+03 -0.18115844551E+03  0.78808363427E+03  0.78667550966E+02 0.  0.
        254    2    1    2    0    0 -0.13545108675E+03  0.75081412596E+03 -0.12016472194E+04  0.16898390517E+04  0.91078599687E+03 0.  0.
         23    2    4    4    0    0 -0.36563655540E+03 -0.17865414915E+02 -0.32876111337E+03  0.50052668569E+03  0.91835884780E+02 0.  0.
         23    2    4    4    0    0  0.23018546864E+03  0.76867954088E+03 -0.87288610601E+03  0.11893123660E+04  0.93167393917E+02 0.  0.
          3    1    3    3  502    0  0.12913254410E+03 -0.54607790934E+03 -0.11472503783E+03  0.57274613165E+03  0.00000000000E+00 0. -1.
         -4    1    3    3    0  502  0.63185426553E+01 -0.20473621663E+03 -0.66433407683E+02  0.21533750263E+03  0.00000000000E+00 0.  1.
         11    1    5    5    0    0 -0.26300000955E+03 -0.15229221083E+02 -0.28730847667E+03  0.38980391861E+03  0.00000000000E+00 0. -1.
        -11    1    5    5    0    0 -0.10263654584E+03 -0.26361938313E+01 -0.41452636704E+02  0.11072276708E+03  0.00000000000E+00 0.  1.
          1    1    6    6  503    0  0.77676719404E+02  0.34289555580E+03 -0.32411139734E+03  0.47818326279E+03  0.00000000000E+00 0. -1.
         -1    1    6    6    0  503  0.15250874924E+03  0.42578398508E+03 -0.54877470867E+03  0.71112910320E+03  0.00000000000E+00 0.  1.
<mgrwt>
<rscale>  0 0.20561978E+04</rscale>
<asrwt>0</asrwt>
<pdfrwt beam="1">  1        1 0.84239771E-01 0.20561978E+04</pdfrwt>
<pdfrwt beam="2">  1       -2 0.29697910E+00 0.20561978E+04</pdfrwt>
<totfact> 0.10473689E+00</totfact>
</mgrwt>
</event>
<event>
12    4  0.4413110E-008  0.1049353E+04  0.7818608E-02  0.9256013E-01
         -2   -1    0    0    0  501 -0.00000000000E+00  0.00000000000E+00  0.30831326353E+03  0.30831326353E+03  0.00000000000E+00 0.  1.
          1   -1    0    0  501    0  0.00000000000E+00 -0.00000000000E+00 -0.89287523870E+03  0.89287523870E+03  0.00000000000E+00 0. -1.
        -24    2    1    2    0    0 -0.74440304960E+02 -0.33403853147E+02 -0.16787953050E+03  0.20197104150E+03  0.77146538734E+02 0.  0.
        254    2    1    2    0    0  0.74440304960E+02  0.33403853147E+02 -0.41668244467E+03  0.99921746073E+03  0.90451871055E+03 0.  0.
         23    2    4    4    0    0 -0.56276469514E+02 -0.33688479426E+03 -0.47551697001E+03  0.59226057889E+03  0.89430413796E+02 0.  0.
         23    2    4    4    0    0  0.13071677447E+03  0.37028864741E+03  0.58834525340E+02  0.40695688184E+03  0.89173116919E+02 0.  0.
          3    1    3    3  502    0 -0.58940380241E+02 -0.44283367583E+02 -0.67942069755E+02  0.10025522385E+03  0.00000000000E+00 0. -1.
         -4    1    3    3    0  502 -0.15499924719E+02  0.10879514436E+02 -0.99937460740E+02  0.10171581765E+03  0.00000000000E+00 0.  1.
         11    1    5    5    0    0 -0.69099055057E+02 -0.15504728097E+03 -0.20674952822E+03  0.26750646005E+03  0.00000000000E+00 0.  1.
        -11    1    5    5    0    0  0.12822585543E+02 -0.18183751329E+03 -0.26876744179E+03  0.32475411884E+03  0.00000000000E+00 0. -1.
          4    1    6    6  503    0  0.51685459290E+02  0.50309150094E+02 -0.13751934918E+00  0.72127776874E+02  0.00000000000E+00 0.  1.
         -4    1    6    6    0  503  0.79031315184E+02  0.31997949731E+03  0.58972044689E+02  0.33482910497E+03  0.00000000000E+00 0. -1.
<mgrwt>
<rscale>  0 0.10493527E+04</rscale>
<asrwt>0</asrwt>
<pdfrwt beam="1">  1        1 0.13736542E+00 0.10493527E+04</pdfrwt>
<pdfrwt beam="2">  1       -2 0.47432810E-01 0.10493527E+04</pdfrwt>
<totfact> 0.68058944E+01</totfact>
</mgrwt>
</event>
<event>
12    4  0.4413110E-008  0.1879009E+04  0.7818608E-02  0.8665376E-01
         -2   -1    0    0    0  501 -0.00000000000E+00  0.00000000000E+00  0.77183284109E+03  0.77183284109E+03  0.00000000000E+00 0.  1.
          1   -1    0    0  501    0  0.00000000000E+00 -0.00000000000E+00 -0.11436008757E+04  0.11436008757E+04  0.00000000000E+00 0. -1.
        -24    2    1    2    0    0 -0.41450838683E+03  0.27175361989E+03  0.39964594230E+03  0.64190212912E+03  0.81573472971E+02 0.  0.
        254    2    1    2    0    0  0.41450838683E+03 -0.27175361989E+03 -0.77141397691E+03  0.12735315877E+04  0.88381895677E+03 0.  0.
         23    2    4    4    0    0  0.57729985790E+03 -0.32881804103E+03 -0.83367857622E+03  0.10702270040E+04  0.94707135457E+02 0.  0.
         23    2    4    4    0    0 -0.16279147107E+03  0.57064421136E+02  0.62264599308E+02  0.20330458371E+03  0.87740881112E+02 0.  0.
          3    1    3    3  502    0 -0.79303549842E+02  0.93278216646E+02  0.10364397486E+03  0.16041182077E+03  0.00000000000E+00 0. -1.
         -4    1    3    3    0  502 -0.33520483699E+03  0.17847540325E+03  0.29600196744E+03  0.48149030835E+03  0.00000000000E+00 0.  1.
         11    1    5    5    0    0  0.12794539756E+03 -0.11894308669E+03 -0.20022678629E+03  0.26572212662E+03  0.00000000000E+00 0.  1.
        -11    1    5    5    0    0  0.44935446035E+03 -0.20987495434E+03 -0.63345178992E+03  0.80450487733E+03  0.00000000000E+00 0. -1.
          3    1    6    6  503    0 -0.13508815350E+03  0.74965028289E+02  0.69706473063E+02  0.16949205607E+03  0.00000000000E+00 0. -1.
         -3    1    6    6    0  503 -0.27703317570E+02 -0.17900607153E+02 -0.74418737554E+01  0.33812527646E+02  0.00000000000E+00 0.  1.
<mgrwt>
<rscale>  0 0.18790090E+04</rscale>
<asrwt>0</asrwt>
<pdfrwt beam="1">  1        1 0.17593859E+00 0.18790090E+04</pdfrwt>
<pdfrwt beam="2">  1       -2 0.11874352E+00 0.18790090E+04</pdfrwt>
<totfact> 0.52694572E+00</totfact>
</mgrwt>
</event>
<event>
12    4  0.4413110E-008  0.2149105E+04  0.7818608E-02  0.8539916E-01
          1   -1    0    0  501    0  0.00000000000E+00  0.00000000000E+00  0.11181328769E+04  0.11181328769E+04  0.00000000000E+00 0. -1.
         -2   -1    0    0    0  501 -0.00000000000E+00 -0.00000000000E+00 -0.10326703853E+04  0.10326703853E+04  0.00000000000E+00 0.  1.
        -24    2    1    2    0    0 -0.60846260071E+03 -0.18885429585E+03  0.65089615066E+03  0.91438921664E+03  0.80926874591E+02 0.  0.
        254    2    1    2    0    0  0.60846260071E+03  0.18885429585E+03 -0.56543365910E+03  0.12364140456E+04  0.89616504495E+03 0.  0.
         23    2    4    4    0    0  0.65866106501E+03  0.46014348264E+03 -0.40490701900E+03  0.90430566433E+03  0.90843917378E+02 0.  0.
         23    2    4    4    0    0 -0.50198464294E+02 -0.27128918679E+03 -0.16052664010E+03  0.33210838128E+03  0.91703140895E+02 0.  0.
          1    1    3    3  502    0 -0.55170108089E+03 -0.18650455544E+03  0.56501482224E+03  0.81141837618E+03  0.00000000000E+00 0. -1.
         -2    1    3    3    0  502 -0.56761519822E+02 -0.23497404063E+01  0.85881328423E+02  0.10297084046E+03  0.00000000000E+00 0.  1.
         11    1    5    5    0    0  0.94233286588E+02  0.45534526841E+02 -0.82751358485E+02  0.13342073590E+03  0.00000000000E+00 0. -1.
        -11    1    5    5    0    0  0.56442777842E+03  0.41460895580E+03 -0.32215566052E+03  0.77088492843E+03  0.00000000000E+00 0.  1.
          1    1    6    6  503    0 -0.46913344163E+02 -0.11205461793E+03 -0.27403364751E+02  0.12453129591E+03  0.00000000000E+00 0. -1.
         -1    1    6    6    0  503 -0.32851201307E+01 -0.15923456885E+03 -0.13312327535E+03  0.20757708537E+03  0.00000000000E+00 0.  1.
<mgrwt>
<rscale>  0 0.21491047E+04</rscale>
<asrwt>0</asrwt>
<pdfrwt beam="1">  1        1 0.17202044E+00 0.21491047E+04</pdfrwt>
<pdfrwt beam="2">  1       -2 0.15887237E+00 0.21491047E+04</pdfrwt>
<totfact> 0.25340297E+00</totfact>
</mgrwt>
</event>
<event>
12    4  0.4413110E-008  0.1788079E+04  0.7818608E-02  0.8712665E-01
         -2   -1    0    0    0  501 -0.00000000000E+00  0.00000000000E+00  0.87260868237E+03  0.87260868237E+03  0.00000000000E+00 0.  1.
          1   -1    0    0  501    0  0.00000000000E+00 -0.00000000000E+00 -0.91599683342E+03  0.91599683342E+03  0.00000000000E+00 0. -1.
        -24    2    1    2    0    0  0.64961750583E+02 -0.10660937281E+03  0.63738730270E+03  0.65437289276E+03  0.79722780396E+02 0.  0.
        254    2    1    2    0    0 -0.64961750583E+02  0.10660937281E+03 -0.68077545376E+03  0.11342326230E+04  0.89857823104E+03 0.  0.
         23    2    4    4    0    0 -0.30645639879E+02 -0.21605598784E+03 -0.75305586330E+03  0.78942522638E+03  0.92085339042E+02 0.  0.
         23    2    4    4    0    0 -0.34316110704E+02  0.32266536065E+03  0.72280409539E+02  0.34480739666E+03  0.91526787150E+02 0.  0.
          3    1    3    3  502    0  0.41066696021E+02 -0.98003475550E+01  0.11389579066E+03  0.12146922023E+03  0.00000000000E+00 0. -1.
         -4    1    3    3    0  502  0.23895054563E+02 -0.96809025255E+02  0.52349151205E+03  0.53290367252E+03  0.00000000000E+00 0.  1.
         11    1    5    5    0    0 -0.33327357586E+02 -0.14534106939E+03 -0.35368252001E+03  0.38383077544E+03  0.00000000000E+00 0.  1.
        -11    1    5    5    0    0  0.26817177073E+01 -0.70714918456E+02 -0.39937334328E+03  0.40559445093E+03  0.00000000000E+00 0. -1.
          1    1    6    6  503    0 -0.50466875607E+02  0.13136488881E+03  0.58281387220E+02  0.15231664269E+03  0.00000000000E+00 0. -1.
         -1    1    6    6    0  503  0.16150764902E+02  0.19130047185E+03  0.13999022319E+02  0.19249075396E+03  0.00000000000E+00 0.  1.
<mgrwt>
<rscale>  0 0.17880792E+04</rscale>
<asrwt>0</asrwt>
<pdfrwt beam="1">  1        1 0.14092259E+00 0.17880792E+04</pdfrwt>
<pdfrwt beam="2">  1       -2 0.13424749E+00 0.17880792E+04</pdfrwt>
<totfact> 0.58484004E+00</totfact>
</mgrwt>
</event>
<event>
12    4  0.4413110E-008  0.2021850E+04  0.7818608E-02  0.8596473E-01
          1   -1    0    0  501    0  0.00000000000E+00  0.00000000000E+00  0.13266465730E+04  0.13266465730E+04  0.00000000000E+00 0. -1.
         -2   -1    0    0    0  501 -0.00000000000E+00 -0.00000000000E+00 -0.77034031037E+03  0.77034031037E+03  0.00000000000E+00 0.  1.
        -24    2    1    2    0    0  0.84132030829E+02 -0.47513896657E+03 -0.45175688683E+03  0.66643044628E+03  0.84911829402E+02 0.  0.
        254    2    1    2    0    0 -0.84132030829E+02  0.47513896657E+03  0.10080631494E+04  0.14305564370E+04  0.89300905382E+03 0.  0.
         23    2    4    4    0    0 -0.15395522201E+03 -0.21451841412E+03  0.47335475786E+03  0.54969439072E+03  0.91535982140E+02 0.  0.
         23    2    4    4    0    0  0.69823191178E+02  0.68965738069E+03  0.53470839155E+03  0.88086204632E+03  0.97479740901E+02 0.  0.
          1    1    3    3  502    0  0.14857527705E+02 -0.16660611872E+03 -0.20950481665E+03  0.26808695068E+03  0.00000000000E+00 0. -1.
         -2    1    3    3    0  502  0.69274503124E+02 -0.30853284785E+03 -0.24225207018E+03  0.39834349560E+03  0.00000000000E+00 0.  1.
         11    1    5    5    0    0 -0.15795789180E+03 -0.18203292824E+03  0.37257638505E+03  0.44373398027E+03  0.00000000000E+00 0.  1.
        -11    1    5    5    0    0  0.40026697933E+01 -0.32485485872E+02  0.10077837281E+03  0.10596041046E+03  0.00000000000E+00 0. -1.
          2    1    6    6  503    0  0.67238762670E+02  0.67167377842E+03  0.53696610359E+03  0.86255394743E+03  0.00000000000E+00 0.  1.
         -2    1    6    6    0  503  0.25844285079E+01  0.17983602268E+02 -0.22577120400E+01  0.18308098888E+02  0.00000000000E+00 0. -1.
<mgrwt>
<rscale>  0 0.20218500E+04</rscale>
<asrwt>0</asrwt>
<pdfrwt beam="1">  1        1 0.20409947E+00 0.20218500E+04</pdfrwt>
<pdfrwt beam="2">  1       -2 0.11851389E+00 0.20218500E+04</pdfrwt>
<totfact> 0.38527168E+00</totfact>
</mgrwt>
</event>
<event>
12    4  0.4413110E-008  0.1666329E+04  0.7818608E-02  0.8780805E-01
         -2   -1    0    0    0  501 -0.00000000000E+00  0.00000000000E+00  0.13373382586E+04  0.13373382586E+04  0.00000000000E+00 0.  1.
          1   -1    0    0  501    0  0.00000000000E+00 -0.00000000000E+00 -0.51906316148E+03  0.51906316148E+03  0.00000000000E+00 0. -1.
        -24    2    1    2    0    0 -0.42605422329E+03 -0.37387877193E+02 -0.15845424288E+03  0.46326570620E+03  0.81162262824E+02 0.  0.
        254    2    1    2    0    0  0.42605422329E+03  0.37387877193E+02  0.97672933999E+03  0.13931357139E+04  0.89660853170E+03 0.  0.
         23    2    4    4    0    0  0.32377035436E+02 -0.88219160930E+02  0.96081472360E+03  0.96984950451E+03  0.92802131080E+02 0.  0.
         23    2    4    4    0    0  0.39367718786E+03  0.12560703812E+03  0.15914616389E+02  0.42328620936E+03  0.90327646697E+02 0.  0.
          3    1    3    3  502    0 -0.32549223066E+03 -0.52807237145E+02 -0.14650566055E+03  0.36082919101E+03  0.00000000000E+00 0. -1.
         -4    1    3    3    0  502 -0.10056199263E+03  0.15419359952E+02 -0.11948582333E+02  0.10243651519E+03  0.00000000000E+00 0.  1.
         11    1    5    5    0    0  0.35503548009E+02 -0.16621636892E+02  0.12583601529E+03  0.13180092366E+03  0.00000000000E+00 0. -1.
        -11    1    5    5    0    0 -0.31265125734E+01 -0.71597524038E+02  0.83497870831E+03  0.83804858085E+03  0.00000000000E+00 0.  1.
          1    1    6    6  503    0  0.87121187531E+02  0.40569901392E+02 -0.32586199529E+02  0.10147846380E+03  0.00000000000E+00 0. -1.
         -1    1    6    6    0  503  0.30655600032E+03  0.85037136731E+02  0.48500815919E+02  0.32180774556E+03  0.00000000000E+00 0.  1.
<mgrwt>
<rscale>  0 0.16663289E+04</rscale>
<asrwt>0</asrwt>
<pdfrwt beam="1">  1        1 0.79855871E-01 0.16663289E+04</pdfrwt>
<pdfrwt beam="2">  1       -2 0.20574435E+00 0.16663289E+04</pdfrwt>
<totfact> 0.42821972E+00</totfact>
</mgrwt>
</event>
<event>
12    4  0.4413110E-008  0.2927859E+04  0.7818608E-02  0.8264636E-01
         -2   -1    0    0    0  501 -0.00000000000E+00  0.00000000000E+00  0.80123114889E+03  0.80123114889E+03  0.00000000000E+00 0.  1.
          1   -1    0    0  501    0  0.00000000000E+00 -0.00000000000E+00 -0.26747462865E+04  0.26747462865E+04  0.00000000000E+00 0. -1.
        -24    2    1    2    0    0 -0.19782815093E+03  0.99040644846E+03 -0.18628385332E+04  0.21213836874E+04  0.10030173523E+03 0.  0.
        254    2    1    2    0    0  0.19782815093E+03 -0.99040644846E+03 -0.10676604412E+02  0.13545937480E+04  0.90264573432E+03 0.  0.
         23    2    4    4    0    0  0.45230096541E+03 -0.18531055522E+03 -0.73386498473E+02  0.50305273974E+03  0.93596557739E+02 0.  0.
         23    2    4    4    0    0 -0.25447281448E+03 -0.80509589324E+03  0.62709894060E+02  0.85154100822E+03  0.90850136154E+02 0.  0.
          3    1    3    3  502    0 -0.11673432967E+03  0.76838283124E+03 -0.14736894653E+04  0.16660731434E+04  0.00000000000E+00 0. -1.
         -4    1    3    3    0  502 -0.81093821260E+02  0.22202361722E+03 -0.38914906790E+03  0.45531054402E+03  0.00000000000E+00 0.  1.
         11    1    5    5    0    0  0.46635223186E+01 -0.49515424638E+01  0.11186647372E+02  0.13092260791E+02  0.00000000000E+00 0.  1.
        -11    1    5    5    0    0  0.44763744309E+03 -0.18035901275E+03 -0.84573145844E+02  0.48996047895E+03  0.00000000000E+00 0. -1.
          1    1    6    6  503    0 -0.21053684793E+03 -0.71664775997E+03  0.80263401442E+02  0.75123364529E+03  0.00000000000E+00 0. -1.
         -1    1    6    6    0  503 -0.43935966547E+02 -0.88448133271E+02 -0.17553507382E+02  0.10030736293E+03  0.00000000000E+00 0.  1.
<mgrwt>
<rscale>  0 0.29278593E+04</rscale>
<asrwt>0</asrwt>
<pdfrwt beam="1">  1        1 0.41149944E+00 0.29278593E+04</pdfrwt>
<pdfrwt beam="2">  1       -2 0.12326633E+00 0.29278593E+04</pdfrwt>
<totfact> 0.38235628E-01</totfact>
</mgrwt>
</event>
<event>
12    4  0.4413110E-008  0.1249511E+04  0.7818608E-02  0.9070590E-01
         -2   -1    0    0    0  501 -0.00000000000E+00  0.00000000000E+00  0.11329155039E+04  0.11329155039E+04  0.00000000000E+00 0.  1.
          1   -1    0    0  501    0  0.00000000000E+00 -0.00000000000E+00 -0.34452653218E+03  0.34452653218E+03  0.00000000000E+00 0. -1.
        -24    2    1    2    0    0 -0.10096590375E+03 -0.15053417765E+03 -0.79099134343E+02  0.21313860473E+03  0.79477917743E+02 0.  0.
        254    2    1    2    0    0  0.10096590375E+03  0.15053417765E+03  0.86748810610E+03  0.12643034314E+04  0.90170555063E+03 0.  0.
         23    2    4    4    0    0 -0.36749642731E+03  0.69527927936E+01  0.56690410399E+03  0.68231847449E+03  0.95269470961E+02 0.  0.
         23    2    4    4    0    0  0.46846233106E+03  0.14358138486E+03  0.30058400211E+03  0.58198495690E+03  0.91011966410E+02 0.  0.
          3    1    3    3  502    0 -0.93893379261E+02 -0.11056073194E+03 -0.27749288722E+02  0.14768095727E+03  0.00000000000E+00 0. -1.
         -4    1    3    3    0  502 -0.70725244870E+01 -0.39973445717E+02 -0.51349845621E+02  0.65457647456E+02  0.00000000000E+00 0.  1.
         11    1    5    5    0    0 -0.23127857253E+02  0.42945133825E+00  0.56592309274E+01  0.23814052663E+02  0.00000000000E+00 0. -1.
        -11    1    5    5    0    0 -0.34436857006E+03  0.65233414554E+01  0.56124487307E+03  0.65850442183E+03  0.00000000000E+00 0.  1.
          1    1    6    6  503    0  0.12054289667E+03  0.16757998729E+02  0.36178145593E+02  0.12696565944E+03  0.00000000000E+00 0. -1.
         -1    1    6    6    0  503  0.34791943439E+03  0.12682338613E+03  0.26440585651E+03  0.45501929745E+03  0.00000000000E+00 0.  1.
<mgrwt>
<rscale>  0 0.12495110E+04</rscale>
<asrwt>0</asrwt>
<pdfrwt beam="1">  1        1 0.53004082E-01 0.12495110E+04</pdfrwt>
<pdfrwt beam="2">  1       -2 0.17429469E+00 0.12495110E+04</pdfrwt>
<totfact> 0.12500311E+01</totfact>
</mgrwt>
</event>
<event>
12    4  0.4413110E-008  0.1456486E+04  0.7818608E-02  0.8913916E-01
          1   -1    0    0  501    0  0.00000000000E+00  0.00000000000E+00  0.74023640867E+03  0.74023640867E+03  0.00000000000E+00 0. -1.
         -2   -1    0    0    0  501 -0.00000000000E+00 -0.00000000000E+00 -0.71644399288E+03  0.71644399288E+03  0.00000000000E+00 0.  1.
        -24    2    1    2    0    0  0.17547480802E+03 -0.12503874707E+03 -0.35128934859E+03  0.41901779480E+03  0.75799798211E+02 0.  0.
        254    2    1    2    0    0 -0.17547480802E+03  0.12503874707E+03  0.37508176439E+03  0.10376626068E+04  0.94320266060E+03 0.  0.
         23    2    4    4    0    0 -0.29528984033E+03 -0.21065263113E+02  0.63328725213E+03  0.70495664360E+03  0.90946635642E+02 0.  0.
         23    2    4    4    0    0  0.11981503231E+03  0.14610401018E+03 -0.25820548774E+03  0.33270596315E+03  0.91220393892E+02 0.  0.
          3    1    3    3  502    0  0.16515114839E+02 -0.33684295319E+02 -0.10834800852E+03  0.11465893650E+03  0.00000000000E+00 0. -1.
         -4    1    3    3    0  502  0.15895969318E+03 -0.91354451750E+02 -0.24294134007E+03  0.30435885830E+03  0.00000000000E+00 0.  1.
         11    1    5    5    0    0 -0.11602949806E+03 -0.30438478608E+02  0.16958142836E+03  0.20771905604E+03  0.00000000000E+00 0. -1.
        -11    1    5    5    0    0 -0.17926034227E+03  0.93732154954E+01  0.46370582377E+03  0.49723758756E+03  0.00000000000E+00 0.  1.
          2    1    6    6  503    0  0.69074155944E+02  0.10850339588E+03 -0.10181169536E+03  0.16404221178E+03  0.00000000000E+00 0. -1.
         -2    1    6    6    0  503  0.50740876364E+02  0.37600614306E+02 -0.15639379238E+03  0.16866375137E+03  0.00000000000E+00 0.  1.
<mgrwt>
<rscale>  0 0.14564861E+04</rscale>
<asrwt>0</asrwt>
<pdfrwt beam="1">  1        1 0.11388252E+00 0.14564861E+04</pdfrwt>
<pdfrwt beam="2">  1       -2 0.11022215E+00 0.14564861E+04</pdfrwt>
<totfact> 0.13894162E+01</totfact>
</mgrwt>
</event>
<event>
12    4  0.4413110E-008  0.2933176E+04  0.7818608E-02  0.8263075E-01
         -2   -1    0    0    0  501 -0.00000000000E+00  0.00000000000E+00  0.79369683708E+03  0.79369683708E+03  0.00000000000E+00 0.  1.
          1   -1    0    0  501    0  0.00000000000E+00 -0.00000000000E+00 -0.27099513242E+04  0.27099513242E+04  0.00000000000E+00 0. -1.
        -24    2    1    2    0    0 -0.11980151093E+04  0.53940649732E+03 -0.62544750715E+03  0.14573639110E+04  0.80780030860E+02 0.  0.
        254    2    1    2    0    0  0.11980151093E+04 -0.53940649732E+03 -0.12908069800E+04  0.20462842503E+04  0.89156996484E+03 0.  0.
         23    2    4    4    0    0  0.12730011318E+04 -0.64275853389E+03 -0.12106761617E+04  0.18729166235E+04  0.91703301715E+02 0.  0.
         23    2    4    4    0    0 -0.74986022512E+02  0.10335203657E+03 -0.80130818244E+02  0.17336762684E+03  0.85620318671E+02 0.  0.
          1    1    3    3  502    0 -0.11881795214E+04  0.53844618152E+03 -0.61264258945E+03  0.14411890257E+04  0.00000000000E+00 0. -1.
         -2    1    3    3    0  502 -0.98355878834E+01  0.96031579981E+00 -0.12804917699E+02  0.16174885246E+02  0.00000000000E+00 0.  1.
         11    1    5    5    0    0  0.83503078866E+02 -0.46224116400E+02 -0.53294552641E+02  0.10931487757E+03  0.00000000000E+00 0.  1.
        -11    1    5    5    0    0  0.11894980529E+04 -0.59653441749E+03 -0.11573816091E+04  0.17636017459E+04  0.00000000000E+00 0. -1.
          4    1    6    6  503    0 -0.38625555567E+02  0.46336597168E+02 -0.86487015743E+02  0.10544675278E+03  0.00000000000E+00 0. -1.
         -4    1    6    6    0  503 -0.36360466945E+02  0.57015439401E+02  0.63561974994E+01  0.67920874061E+02  0.00000000000E+00 0.  1.
<mgrwt>
<rscale>  0 0.29331756E+04</rscale>
<asrwt>0</asrwt>
<pdfrwt beam="1">  1        1 0.41691559E+00 0.29331756E+04</pdfrwt>
<pdfrwt beam="2">  1       -2 0.12210721E+00 0.29331756E+04</pdfrwt>
<totfact> 0.36956299E-01</totfact>
</mgrwt>
</event>
<event>
12    4  0.4413110E-008  0.1482687E+04  0.7818608E-02  0.8896048E-01
          1   -1    0    0  501    0  0.00000000000E+00  0.00000000000E+00  0.10042918048E+04  0.10042918048E+04  0.00000000000E+00 0. -1.
         -2   -1    0    0    0  501 -0.00000000000E+00 -0.00000000000E+00 -0.54724166833E+03  0.54724166833E+03  0.00000000000E+00 0.  1.
        -24    2    1    2    0    0 -0.38832204703E+03  0.23359244112E+03  0.25109484105E+03  0.52481865255E+03  0.83824567415E+02 0.  0.
        254    2    1    2    0    0  0.38832204703E+03 -0.23359244112E+03  0.20595529546E+03  0.10267148206E+04  0.89797900778E+03 0.  0.
         23    2    4    4    0    0  0.60550115148E+03 -0.16225204071E+02  0.31445798680E+03  0.68885522239E+03  0.93502889020E+02 0.  0.
         23    2    4    4    0    0 -0.21717910445E+03 -0.21736723705E+03 -0.10850269135E+03  0.33785959824E+03  0.89224407756E+02 0.  0.
          1    1    3    3  502    0 -0.13900649064E+03  0.66739867449E+02  0.44238599075E+02  0.16041841539E+03  0.00000000000E+00 0. -1.
         -2    1    3    3    0  502 -0.24931555639E+03  0.16685257367E+03  0.20685624198E+03  0.36440023716E+03  0.00000000000E+00 0.  1.
         11    1    5    5    0    0  0.19055854570E+03 -0.48628193264E+02  0.98206600690E+02  0.21982219392E+03  0.00000000000E+00 0. -1.
        -11    1    5    5    0    0  0.41494260578E+03  0.32402989193E+02  0.21625138611E+03  0.46903302847E+03  0.00000000000E+00 0.  1.
          3    1    6    6  503    0 -0.96410366972E+02 -0.11162516449E+03 -0.97819119789E+02  0.17698507396E+03  0.00000000000E+00 0. -1.
         -3    1    6    6    0  503 -0.12076873748E+03 -0.10574207256E+03 -0.10683571556E+02  0.16087452428E+03  0.00000000000E+00 0.  1.
<mgrwt>
<rscale>  0 0.14826872E+04</rscale>
<asrwt>0</asrwt>
<pdfrwt beam="1">  1        1 0.15450643E+00 0.14826872E+04</pdfrwt>
<pdfrwt beam="2">  1       -2 0.84191026E-01 0.14826872E+04</pdfrwt>
<totfact> 0.15702553E+01</totfact>
</mgrwt>
</event>
<event>
12    4  0.4413110E-008  0.1397047E+04  0.7818608E-02  0.8955959E-01
          1   -1    0    0  501    0  0.00000000000E+00  0.00000000000E+00  0.12506002826E+04  0.12506002826E+04  0.00000000000E+00 0. -1.
         -2   -1    0    0    0  501 -0.00000000000E+00 -0.00000000000E+00 -0.39016094717E+03  0.39016094717E+03  0.00000000000E+00 0.  1.
        -24    2    1    2    0    0 -0.16853129726E+03 -0.34800630391E+03  0.87164371917E+02  0.40394411370E+03  0.77859062063E+02 0.  0.
        254    2    1    2    0    0  0.16853129726E+03  0.34800630391E+03  0.77327496352E+03  0.12368171161E+04  0.88444967277E+03 0.  0.
         23    2    4    4    0    0 -0.22128586684E+03  0.27776389814E+03  0.74399166053E+03  0.82921838065E+03  0.89214986989E+02 0.  0.
         23    2    4    4    0    0  0.38981716410E+03  0.70242405769E+02  0.29283302989E+02  0.40759873541E+03  0.91584934768E+02 0.  0.
          1    1    3    3  502    0 -0.14692976684E+03 -0.25574101830E+03  0.92288810264E+02  0.30904538392E+03  0.00000000000E+00 0. -1.
         -2    1    3    3    0  502 -0.21601530424E+02 -0.92265285608E+02 -0.51244383479E+01  0.94898729778E+02  0.00000000000E+00 0.  1.
         11    1    5    5    0    0 -0.15128775293E+03  0.16223434880E+03  0.36788469376E+03  0.42958947382E+03  0.00000000000E+00 0.  1.
        -11    1    5    5    0    0 -0.69998113911E+02  0.11552954934E+03  0.37610696677E+03  0.39962890683E+03  0.00000000000E+00 0. -1.
          2    1    6    6  503    0  0.33039551005E+03  0.58189404737E+02 -0.95159332001E+01  0.33561548366E+03  0.00000000000E+00 0.  1.
         -2    1    6    6    0  503  0.59421654052E+02  0.12053001032E+02  0.38799236189E+02  0.71983251754E+02  0.00000000000E+00 0. -1.
<mgrwt>
<rscale>  0 0.13970474E+04</rscale>
<asrwt>0</asrwt>
<pdfrwt beam="1">  1        1 0.19240004E+00 0.13970474E+04</pdfrwt>
<pdfrwt beam="2">  1       -2 0.60024762E-01 0.13970474E+04</pdfrwt>
<totfact> 0.21730599E+01</totfact>
</mgrwt>
</event>
<event>
12    4  0.4413110E-008  0.1346351E+04  0.7818608E-02  0.8993595E-01
          1   -1    0    0  501    0  0.00000000000E+00  0.00000000000E+00  0.13736019518E+04  0.13736019518E+04  0.00000000000E+00 0. -1.
         -2   -1    0    0    0  501 -0.00000000000E+00 -0.00000000000E+00 -0.32990995206E+03  0.32990995206E+03  0.00000000000E+00 0.  1.
        -24    2    1    2    0    0  0.34967416288E+03 -0.93960858671E+02  0.34388223261E+03  0.50563996892E+03  0.79474053073E+02 0.  0.
        254    2    1    2    0    0 -0.34967416288E+03  0.93960858671E+02  0.69980976713E+03  0.11978719349E+04  0.90225428743E+03 0.  0.
         23    2    4    4    0    0 -0.49800420131E+03  0.30498324682E+03  0.19218087767E+03  0.62145385619E+03  0.90820924206E+02 0.  0.
         23    2    4    4    0    0  0.14833003843E+03 -0.21102238815E+03  0.50762888947E+03  0.57641807875E+03  0.89657478713E+02 0.  0.
          3    1    3    3  502    0  0.27433482634E+03 -0.56349770189E+02  0.30101512931E+03  0.41115082588E+03  0.00000000000E+00 0. -1.
         -4    1    3    3    0  502  0.75339336540E+02 -0.37611088483E+02  0.42867103294E+02  0.94489143038E+02  0.00000000000E+00 0.  1.
         11    1    5    5    0    0 -0.42387191794E+03  0.25543958577E+03  0.19580046956E+03  0.53221669334E+03  0.00000000000E+00 0. -1.
        -11    1    5    5    0    0 -0.74132283373E+02  0.49543661047E+02 -0.36195918883E+01  0.89237162850E+02  0.00000000000E+00 0.  1.
          2    1    6    6  503    0  0.15572784765E+03 -0.19133091516E+03  0.49140793522E+03  0.54985492671E+03  0.00000000000E+00 0. -1.
         -2    1    6    6    0  503 -0.73978092238E+01 -0.19691472984E+02  0.16220954249E+02  0.26563152041E+02  0.00000000000E+00 0.  1.
<mgrwt>
<rscale>  0 0.13463506E+04</rscale>
<asrwt>0</asrwt>
<pdfrwt beam="1">  1        1 0.21132337E+00 0.13463506E+04</pdfrwt>
<pdfrwt beam="2">  1       -2 0.50755378E-01 0.13463506E+04</pdfrwt>
<totfact> 0.25276664E+01</totfact>
</mgrwt>
</event>
<event>
12    4  0.4413110E-008  0.1292279E+04  0.7818608E-02  0.9035710E-01
         -2   -1    0    0    0  501 -0.00000000000E+00  0.00000000000E+00  0.23674936077E+03  0.23674936077E+03  0.00000000000E+00 0.  1.
          1   -1    0    0  501    0  0.00000000000E+00 -0.00000000000E+00 -0.17634535279E+04  0.17634535279E+04  0.00000000000E+00 0. -1.
        -24    2    1    2    0    0  0.15030542012E+03  0.10217342576E+03 -0.82150088328E+03  0.84510450504E+03  0.79415332007E+02 0.  0.
        254    2    1    2    0    0 -0.15030542012E+03 -0.10217342576E+03 -0.70520328386E+03  0.11550983836E+04  0.89660999107E+03 0.  0.
         23    2    4    4    0    0  0.86452968386E+02  0.85253931562E+02 -0.80765724480E+03  0.82160935952E+03  0.89383253372E+02 0.  0.
         23    2    4    4    0    0 -0.23675838851E+03 -0.18742735733E+03  0.10245396094E+03  0.33348902412E+03  0.97645103786E+02 0.  0.
          1    1    3    3  502    0  0.79191949639E+02  0.86036947450E+02 -0.37880121338E+03  0.39643925193E+03  0.00000000000E+00 0. -1.
         -2    1    3    3    0  502  0.71113470483E+02  0.16136478314E+02 -0.44269966990E+03  0.44866525311E+03  0.00000000000E+00 0.  1.
         11    1    5    5    0    0  0.84612678488E+02  0.33849851827E+02 -0.63329221393E+03  0.63981571258E+03  0.00000000000E+00 0. -1.
        -11    1    5    5    0    0  0.18402898979E+01  0.51404079735E+02 -0.17436503087E+03  0.18179364694E+03  0.00000000000E+00 0.  1.
          3    1    6    6  503    0 -0.12142522480E+03 -0.15625333131E+03  0.64508352219E+02  0.20813581208E+03  0.00000000000E+00 0. -1.
         -3    1    6    6    0  503 -0.11533316370E+03 -0.31174026019E+02  0.37945608725E+02  0.12535321204E+03  0.00000000000E+00 0.  1.
<mgrwt>
<rscale>  0 0.12922794E+04</rscale>
<asrwt>0</asrwt>
<pdfrwt beam="1">  1        1 0.27130054E+00 0.12922794E+04</pdfrwt>
<pdfrwt beam="2">  1       -2 0.36422979E-01 0.12922794E+04</pdfrwt>
<totfact> 0.26425560E+01</totfact>
</mgrwt>
</event>
<event>
12    4  0.4413110E-008  0.1357246E+04  0.7818608E-02  0.8985361E-01
         -2   -1    0    0    0  501 -0.00000000000E+00  0.00000000000E+00  0.35985007856E+03  0.35985007856E+03  0.00000000000E+00 0.  1.
          1   -1    0    0  501    0  0.00000000000E+00 -0.00000000000E+00 -0.12797803989E+04  0.12797803989E+04  0.00000000000E+00 0. -1.
        -24    2    1    2    0    0 -0.24763006223E+03 -0.61969837519E+02  0.67739512271E+02  0.27604317402E+03  0.80313659618E+02 0.  0.
        254    2    1    2    0    0  0.24763006223E+03  0.61969837519E+02 -0.98766983263E+03  0.13635873035E+04  0.90483022020E+03 0.  0.
         23    2    4    4    0    0 -0.86027429532E+02 -0.11237381017E+03  0.10963188374E+03  0.20037128489E+03  0.90005055589E+02 0.  0.
         23    2    4    4    0    0  0.33365749176E+03  0.17434364769E+03 -0.10973017164E+04  0.11632160186E+04  0.85307794458E+02 0.  0.
          1    1    3    3  502    0  0.56885599022E+01  0.24744879659E+01  0.19631961781E+01  0.65066845388E+01  0.00000000000E+00 0. -1.
         -2    1    3    3    0  502 -0.25331862213E+03 -0.64444325484E+02  0.65776316093E+02  0.26953648948E+03  0.00000000000E+00 0.  1.
         11    1    5    5    0    0  0.93213512124E+01 -0.35020008675E+02  0.55277734216E+02  0.66097779812E+02  0.00000000000E+00 0. -1.
        -11    1    5    5    0    0 -0.95348780745E+02 -0.77353801497E+02  0.54354149527E+02  0.13427350508E+03  0.00000000000E+00 0.  1.
          3    1    6    6  503    0  0.98523614860E+02  0.10669020551E+02 -0.30615207173E+03  0.32179158116E+03  0.00000000000E+00 0. -1.
         -3    1    6    6    0  503  0.23513387690E+03  0.16367462714E+03 -0.79114964464E+03  0.84142443740E+03  0.00000000000E+00 0.  1.
<mgrwt>
<rscale>  0 0.13572459E+04</rscale>
<asrwt>0</asrwt>
<pdfrwt beam="1">  1        1 0.19688929E+00 0.13572459E+04</pdfrwt>
<pdfrwt beam="2">  1       -2 0.55361551E-01 0.13572459E+04</pdfrwt>
<totfact> 0.24612428E+01</totfact>
</mgrwt>
</event>
<event>
12    4  0.4413110E-008  0.1654072E+04  0.7818608E-02  0.8788001E-01
          1   -1    0    0  501    0  0.00000000000E+00  0.00000000000E+00  0.14393355460E+04  0.14393355460E+04  0.00000000000E+00 0. -1.
         -2   -1    0    0    0  501 -0.00000000000E+00 -0.00000000000E+00 -0.47521106332E+03  0.47521106332E+03  0.00000000000E+00 0.  1.
        -24    2    1    2    0    0  0.49443974577E+03 -0.17635705329E+03  0.70782001395E+02  0.53201999486E+03  0.49625706707E+02 0.  0.
        254    2    1    2    0    0 -0.49443974577E+03  0.17635705329E+03  0.89334248128E+03  0.13825266145E+04  0.91528497114E+03 0.  0.
         23    2    4    4    0    0 -0.35940201132E+03 -0.24610861855E+03  0.80598969742E+03  0.92076873296E+03  0.91958737426E+02 0.  0.
         23    2    4    4    0    0 -0.13503773445E+03  0.42246567184E+03  0.87352783860E+02  0.46175788150E+03  0.94219948366E+02 0.  0.
          1    1    3    3  502    0  0.27118628438E+03 -0.10861248344E+03  0.17158179474E+02  0.29263129620E+03  0.00000000000E+00 0. -1.
         -2    1    3    3    0  502  0.22325346139E+03 -0.67744569851E+02  0.53623821920E+02  0.23938869866E+03  0.00000000000E+00 0.  1.
         11    1    5    5    0    0 -0.65781050581E+02 -0.10855103133E+02  0.15764204662E+03  0.17116072780E+03  0.00000000000E+00 0. -1.
        -11    1    5    5    0    0 -0.29362096074E+03 -0.23525351542E+03  0.64834765080E+03  0.74960800516E+03  0.00000000000E+00 0.  1.
          2    1    6    6  503    0  0.14086644130E+02  0.53446761534E+02  0.69582433813E+01  0.55708231100E+02  0.00000000000E+00 0. -1.
         -2    1    6    6    0  503 -0.14912437858E+03  0.36901891031E+03  0.80394540479E+02  0.40604965040E+03  0.00000000000E+00 0.  1.
<mgrwt>
<rscale>  0 0.16540716E+04</rscale>
<asrwt>0</asrwt>
<pdfrwt beam="1">  1        1 0.22143624E+00 0.16540716E+04</pdfrwt>
<pdfrwt beam="2">  1       -2 0.73109395E-01 0.16540716E+04</pdfrwt>
<totfact> 0.10210942E+01</totfact>
</mgrwt>
</event>
<event>
12    4  0.4413110E-008  0.1678232E+04  0.7818608E-02  0.8773878E-01
         -2   -1    0    0    0  501 -0.00000000000E+00  0.00000000000E+00  0.37103298587E+03  0.37103298587E+03  0.00000000000E+00 0.  1.
          1   -1    0    0  501    0  0.00000000000E+00 -0.00000000000E+00 -0.18977167420E+04  0.18977167420E+04  0.00000000000E+00 0. -1.
        -24    2    1    2    0    0 -0.42404578946E+02 -0.25878384088E+03  0.16511866652E+03  0.32079204347E+03  0.82922472834E+02 0.  0.
        254    2    1    2    0    0  0.42404578946E+02  0.25878384088E+03 -0.16918024227E+04  0.19479576844E+04  0.92928815677E+03 0.  0.
         23    2    4    4    0    0 -0.10196627777E+03 -0.24761737830E+03 -0.15914076270E+03  0.32464526506E+03  0.91418148844E+02 0.  0.
         23    2    4    4    0    0  0.14437085671E+03  0.50640121918E+03 -0.15326616600E+04  0.16233124193E+04  0.93841930089E+02 0.  0.
          3    1    3    3  502    0 -0.13376204841E+02  0.11979604278E+01  0.85331463474E+01  0.15911396913E+02  0.00000000000E+00 0. -1.
         -4    1    3    3    0  502 -0.29028374105E+02 -0.25998180131E+03  0.15658552018E+03  0.30488064655E+03  0.00000000000E+00 0.  1.
         11    1    5    5    0    0 -0.91737111948E+01 -0.30178476257E+02 -0.61001415921E+02  0.68673649609E+02  0.00000000000E+00 0. -1.
        -11    1    5    5    0    0 -0.92792566572E+02 -0.21743890204E+03 -0.98139346778E+02  0.25597161545E+03  0.00000000000E+00 0.  1.
          3    1    6    6  503    0  0.22757719707E+01  0.15999422615E+03 -0.42901298944E+03  0.45788150940E+03  0.00000000000E+00 0. -1.
         -3    1    6    6    0  503  0.14209508474E+03  0.34640699302E+03 -0.11036486705E+04  0.11654309099E+04  0.00000000000E+00 0.  1.
<mgrwt>
<rscale>  0 0.16782318E+04</rscale>
<asrwt>0</asrwt>
<pdfrwt beam="1">  1        1 0.29195642E+00 0.16782318E+04</pdfrwt>
<pdfrwt beam="2">  1       -2 0.57081998E-01 0.16782318E+04</pdfrwt>
<totfact> 0.84200386E+00</totfact>
</mgrwt>
</event>
<event>
12    4  0.4413110E-008  0.1729667E+04  0.7818608E-02  0.8744623E-01
         -2   -1    0    0    0  501 -0.00000000000E+00  0.00000000000E+00  0.99262688051E+03  0.99262688051E+03  0.00000000000E+00 0.  1.
          1   -1    0    0  501    0  0.00000000000E+00 -0.00000000000E+00 -0.75349277255E+03  0.75349277255E+03  0.00000000000E+00 0. -1.
        -24    2    1    2    0    0 -0.18777015252E+03  0.44922630695E+03  0.48774379290E+03  0.69367745198E+03  0.78946151521E+02 0.  0.
        254    2    1    2    0    0  0.18777015252E+03 -0.44922630695E+03 -0.24860968495E+03  0.10524422011E+04  0.89931413095E+03 0.  0.
         23    2    4    4    0    0  0.20727387773E+03 -0.52678174683E+03  0.18537453970E+03  0.60257471911E+03  0.90945604409E+02 0.  0.
         23    2    4    4    0    0 -0.19503725211E+02  0.77555439879E+02 -0.43398422464E+03  0.44986748196E+03  0.87425411282E+02 0.  0.
          3    1    3    3  502    0  0.26805235209E+01  0.22172088209E+01  0.16287447017E+02  0.16654793653E+02  0.00000000000E+00 0. -1.
         -4    1    3    3    0  502 -0.19045067604E+03  0.44700909813E+03  0.47145634588E+03  0.67702265833E+03  0.00000000000E+00 0.  1.
         11    1    5    5    0    0  0.72177537851E+02 -0.89529374287E+02  0.49336944848E+02  0.12513688488E+03  0.00000000000E+00 0.  1.
        -11    1    5    5    0    0  0.13509633988E+03 -0.43725237254E+03  0.13603759485E+03  0.47743783423E+03  0.00000000000E+00 0. -1.
          4    1    6    6  503    0  0.44175592209E+01  0.90726755624E+02 -0.34741465857E+03  0.35909302973E+03  0.00000000000E+00 0. -1.
         -4    1    6    6    0  503 -0.23921284432E+02 -0.13171315744E+02 -0.86569566073E+02  0.90774452229E+02  0.00000000000E+00 0.  1.
<mgrwt>
<rscale>  0 0.17296672E+04</rscale>
<asrwt>0</asrwt>
<pdfrwt beam="1">  1        1 0.11592196E+00 0.17296672E+04</pdfrwt>
<pdfrwt beam="2">  1       -2 0.15271183E+00 0.17296672E+04</pdfrwt>
<totfact> 0.57721770E+00</totfact>
</mgrwt>
</event>
<event>
12    4  0.5666499E-008  0.1575117E+04  0.7818608E-02  0.8835982E-01
          1   -1    0    0  501    0  0.00000000000E+00  0.00000000000E+00  0.78125274171E+03  0.78125274171E+03  0.00000000000E+00 0. -1.
         -2   -1    0    0    0  501 -0.00000000000E+00 -0.00000000000E+00 -0.79391552586E+03  0.79391552586E+03  0.00000000000E+00 0.  1.
        -24    2    1    2    0    0  0.18966651520E+03  0.23219965754E+03 -0.43220490252E+03  0.53198696480E+03  0.79492043661E+02 0.  0.
        254    2    1    2    0    0 -0.18966651520E+03 -0.23219965754E+03  0.41954211837E+03  0.10431813028E+04  0.90681948226E+03 0.  0.
         23    2    4    4    0    0  0.10246202437E+03  0.19719773007E+03 -0.13650555851E+03  0.27596389041E+03  0.90204712324E+02 0.  0.
         23    2    4    4    0    0 -0.29212853957E+03 -0.42939738761E+03  0.55604767688E+03  0.76721741236E+03  0.98551198589E+02 0.  0.
          3    1    3    3  502    0  0.22628821226E+02  0.21857088971E+02 -0.12844068439E+02  0.33981847837E+02  0.00000000000E+00 0. -1.
         -4    1    3    3    0  502  0.16703769397E+03  0.21034256857E+03 -0.41936083408E+03  0.49800511696E+03  0.00000000000E+00 0.  1.
         11    1    5    5    0    0  0.11614785505E+03  0.18643674162E+03 -0.11389984214E+03  0.24743111546E+03  0.00000000000E+00 0. -1.
        -11    1    5    5    0    0 -0.13685830681E+02  0.10760988449E+02 -0.22605716369E+02  0.28532774951E+02  0.00000000000E+00 0.  1.
          2    1    6    6  503    0 -0.27501805308E+03 -0.35371856142E+03  0.44279476520E+03  0.62993567474E+03  0.00000000000E+00 0. -1.
         -2    1    6    6    0  503 -0.17110486490E+02 -0.75678826189E+02  0.11325291167E+03  0.13728173762E+03  0.00000000000E+00 0.  1.
<mgrwt>
<rscale>  0 0.15751174E+04</rscale>
<asrwt>0</asrwt>
<pdfrwt beam="1">  1        1 0.12019273E+00 0.15751174E+04</pdfrwt>
<pdfrwt beam="2">  1       -2 0.12214085E+00 0.15751174E+04</pdfrwt>
<totfact> 0.98252042E+00</totfact>
</mgrwt>
</event>
<event>
12    4  0.4413110E-008  0.2691418E+04  0.7818608E-02  0.8337795E-01
          1   -1    0    0  501    0  0.00000000000E+00  0.00000000000E+00  0.43709724946E+04  0.43709724946E+04  0.00000000000E+00 0. -1.
         -2   -1    0    0    0  501 -0.00000000000E+00 -0.00000000000E+00 -0.41430896481E+03  0.41430896481E+03  0.00000000000E+00 0.  1.
        -24    2    1    2    0    0 -0.69921053037E+03 -0.86873177413E+03  0.25096045568E+04  0.27474540702E+04  0.82453475252E+02 0.  0.
        254    2    1    2    0    0  0.69921053037E+03  0.86873177413E+03  0.14470589730E+04  0.20378273892E+04  0.90286795017E+03 0.  0.
         23    2    4    4    0    0  0.78722878663E+03  0.32319549508E+03  0.70872611813E+03  0.11111659997E+04  0.90623826395E+02 0.  0.
         23    2    4    4    0    0 -0.88018256264E+02  0.54553627905E+03  0.73833285489E+03  0.92666138942E+03  0.90602874314E+02 0.  0.
          1    1    3    3  502    0 -0.23241295351E+03 -0.34532948116E+03  0.89041671143E+03  0.98290902504E+03  0.00000000000E+00 0. -1.
         -2    1    3    3    0  502 -0.46679757686E+03 -0.52340229297E+03  0.16191878453E+04  0.17645450452E+04  0.00000000000E+00 0.  1.
         11    1    5    5    0    0  0.12408226217E+03  0.49582921212E+02  0.15699466006E+03  0.20616061008E+03  0.00000000000E+00 0. -1.
        -11    1    5    5    0    0  0.66314652446E+03  0.27361257387E+03  0.55173145807E+03  0.90500538965E+03  0.00000000000E+00 0.  1.
          3    1    6    6  503    0 -0.13708841355E+02  0.27795700911E+02  0.16105448017E+02  0.34927335659E+02  0.00000000000E+00 0. -1.
         -3    1    6    6    0  503 -0.74309414909E+02  0.51774057814E+03  0.72222740687E+03  0.89173405376E+03  0.00000000000E+00 0.  1.
<mgrwt>
<rscale>  0 0.26914183E+04</rscale>
<asrwt>0</asrwt>
<pdfrwt beam="1">  1        1 0.67245727E+00 0.26914183E+04</pdfrwt>
<pdfrwt beam="2">  1       -2 0.63739844E-01 0.26914183E+04</pdfrwt>
<totfact> 0.76136945E-02</totfact>
</mgrwt>
</event>
<event>
12    4  0.4413110E-008  0.1493700E+04  0.7818608E-02  0.8888653E-01
         -2   -1    0    0    0  501 -0.00000000000E+00  0.00000000000E+00  0.35046362724E+03  0.35046362724E+03  0.00000000000E+00 0.  1.
          1   -1    0    0  501    0  0.00000000000E+00 -0.00000000000E+00 -0.15915621247E+04  0.15915621247E+04  0.00000000000E+00 0. -1.
        -24    2    1    2    0    0  0.18203926504E+02  0.78801665498E+01 -0.10005716804E+04  0.10041652341E+04  0.82526661480E+02 0.  0.
        254    2    1    2    0    0 -0.18203926504E+02 -0.78801665498E+01 -0.24052681701E+03  0.93786051776E+03  0.90627574232E+03 0.  0.
         23    2    4    4    0    0 -0.88158259041E+02 -0.27874889696E+02  0.32992592099E+03  0.35456970988E+03  0.91212267310E+02 0.  0.
         23    2    4    4    0    0  0.69954332537E+02  0.19994723146E+02 -0.57045273800E+03  0.58329080789E+03  0.97562506527E+02 0.  0.
          1    1    3    3  502    0  0.42402938929E+02  0.24664617607E+02 -0.79287294777E+03  0.79438898777E+03  0.00000000000E+00 0. -1.
         -2    1    3    3    0  502 -0.24199012426E+02 -0.16784451057E+02 -0.20769873264E+03  0.20977624637E+03  0.00000000000E+00 0.  1.
         11    1    5    5    0    0  0.14505988671E+02 -0.15699835506E+02  0.26689398063E+02  0.34194042043E+02  0.00000000000E+00 0.  1.
        -11    1    5    5    0    0 -0.10266424771E+03 -0.12175054190E+02  0.30323652293E+03  0.32037566784E+03  0.00000000000E+00 0. -1.
          2    1    6    6  503    0  0.89152257631E+02  0.11218900404E+01 -0.34904515877E+03  0.36025255938E+03  0.00000000000E+00 0. -1.
         -2    1    6    6    0  503 -0.19197925094E+02  0.18872833106E+02 -0.22140757923E+03  0.22303824851E+03  0.00000000000E+00 0.  1.
<mgrwt>
<rscale>  0 0.14936996E+04</rscale>
<asrwt>0</asrwt>
<pdfrwt beam="1">  1        1 0.24485571E+00 0.14936996E+04</pdfrwt>
<pdfrwt beam="2">  1       -2 0.53917482E-01 0.14936996E+04</pdfrwt>
<totfact> 0.15562861E+01</totfact>
</mgrwt>
</event>
<event>
12    4  0.4413110E-008  0.1976537E+04  0.7818608E-02  0.8617669E-01
          1   -1    0    0  501    0  0.00000000000E+00  0.00000000000E+00  0.11447246102E+04  0.11447246102E+04  0.00000000000E+00 0. -1.
         -2   -1    0    0    0  501 -0.00000000000E+00 -0.00000000000E+00 -0.85319657422E+03  0.85319657422E+03  0.00000000000E+00 0.  1.
        -24    2    1    2    0    0  0.40038123901E+03 -0.51888833819E+02  0.80507336527E+03  0.90409043942E+03  0.78986147868E+02 0.  0.
        254    2    1    2    0    0 -0.40038123901E+03  0.51888833819E+02 -0.51354532930E+03  0.10938307450E+04  0.87734788187E+03 0.  0.
         23    2    4    4    0    0 -0.51920307755E+03  0.24679094149E+03 -0.71158577226E+02  0.58634354200E+03  0.90871346401E+02 0.  0.
         23    2    4    4    0    0  0.11882183854E+03 -0.19490210767E+03 -0.44238675207E+03  0.50748720300E+03  0.98649692897E+02 0.  0.
          1    1    3    3  502    0  0.38159865613E+03 -0.37179667549E+02  0.71981457210E+03  0.81555679155E+03  0.00000000000E+00 0. -1.
         -2    1    3    3    0  502  0.18782582883E+02 -0.14709166270E+02  0.85258793163E+02  0.88533647862E+02  0.00000000000E+00 0.  1.
         11    1    5    5    0    0 -0.31471286142E+03  0.14045585342E+03 -0.86582568029E+02  0.35534289494E+03  0.00000000000E+00 0.  1.
        -11    1    5    5    0    0 -0.20449021613E+03  0.10633508807E+03  0.15423990802E+02  0.23100064706E+03  0.00000000000E+00 0. -1.
          2    1    6    6  503    0  0.12412189913E+03 -0.19940704749E+03 -0.44198473664E+03  0.50051965382E+03  0.00000000000E+00 0. -1.
         -2    1    6    6    0  503 -0.53000605958E+01  0.45049398229E+01 -0.40201542904E+00  0.69675491769E+01  0.00000000000E+00 0.  1.
<mgrwt>
<rscale>  0 0.19765375E+04</rscale>
<asrwt>0</asrwt>
<pdfrwt beam="1">  1        1 0.17611148E+00 0.19765375E+04</pdfrwt>
<pdfrwt beam="2">  1       -2 0.13126101E+00 0.19765375E+04</pdfrwt>
<totfact> 0.40552882E+00</totfact>
</mgrwt>
</event>
<event>
12    4  0.4413110E-008  0.2747520E+04  0.7818608E-02  0.8319749E-01
         -2   -1    0    0    0  501 -0.00000000000E+00  0.00000000000E+00  0.22184814584E+04  0.22184814584E+04  0.00000000000E+00 0.  1.
          1   -1    0    0  501    0  0.00000000000E+00 -0.00000000000E+00 -0.85067914180E+03  0.85067914180E+03  0.00000000000E+00 0. -1.
        -24    2    1    2    0    0 -0.25526011634E+03  0.10959762657E+04  0.11484081774E+04  0.16098176114E+04  0.79684992341E+02 0.  0.
        254    2    1    2    0    0  0.25526011634E+03 -0.10959762657E+04  0.21939413920E+03  0.14593429888E+04  0.90289892497E+03 0.  0.
         23    2    4    4    0    0  0.42258111482E+03 -0.64898822915E+03  0.47205785648E+03  0.91159051433E+03  0.91641288579E+02 0.  0.
         23    2    4    4    0    0 -0.16732099848E+03 -0.44698803655E+03 -0.25266371728E+03  0.54775247449E+03  0.91647138126E+02 0.  0.
          1    1    3    3  502    0 -0.61417896953E+02  0.27465101714E+03  0.23947566338E+03  0.36953204548E+03  0.00000000000E+00 0. -1.
         -2    1    3    3    0  502 -0.19384221938E+03  0.82132524856E+03  0.90893251398E+03  0.12402855659E+04  0.00000000000E+00 0.  1.
         11    1    5    5    0    0  0.34465518993E+03 -0.53035370561E+03  0.34184457733E+03  0.71897146539E+03  0.00000000000E+00 0.  1.
        -11    1    5    5    0    0  0.77925924886E+02 -0.11863452354E+03  0.13021327915E+03  0.19261904893E+03  0.00000000000E+00 0. -1.
          3    1    6    6  503    0 -0.15121420046E+02 -0.16536851571E+01 -0.10456259324E+02  0.18458748003E+02  0.00000000000E+00 0. -1.
         -3    1    6    6    0  503 -0.15219957843E+03 -0.44533435139E+03 -0.24220745796E+03  0.52929372649E+03  0.00000000000E+00 0.  1.
<mgrwt>
<rscale>  0 0.27475195E+04</rscale>
<asrwt>0</asrwt>
<pdfrwt beam="1">  1        1 0.13087371E+00 0.27475195E+04</pdfrwt>
<pdfrwt beam="2">  1       -2 0.34130484E+00 0.27475195E+04</pdfrwt>
<totfact> 0.26920047E-01</totfact>
</mgrwt>
</event>
<event>
12    4  0.4413110E-008  0.2933400E+04  0.7818608E-02  0.8263009E-01
         -2   -1    0    0    0  501 -0.00000000000E+00  0.00000000000E+00  0.21197573585E+04  0.21197573585E+04  0.00000000000E+00 0.  1.
          1   -1    0    0  501    0  0.00000000000E+00 -0.00000000000E+00 -0.10148373861E+04  0.10148373861E+04  0.00000000000E+00 0. -1.
        -24    2    1    2    0    0 -0.74440691450E+03 -0.10751663438E+04  0.68392247713E+03  0.14779377389E+04  0.80160364763E+02 0.  0.
        254    2    1    2    0    0  0.74440691450E+03  0.10751663438E+04  0.42099749533E+03  0.16566570058E+04  0.92582353745E+03 0.  0.
         23    2    4    4    0    0  0.49796095619E+03  0.11548835437E+04  0.52090866983E+03  0.13644505449E+04  0.93050168229E+02 0.  0.
         23    2    4    4    0    0  0.24644595831E+03 -0.79717199920E+02 -0.99911174500E+02  0.29220646084E+03  0.91169790175E+02 0.  0.
          1    1    3    3  502    0 -0.68006949855E+03 -0.95656584175E+03  0.59071709435E+03  0.13139480271E+04  0.00000000000E+00 0. -1.
         -2    1    3    3    0  502 -0.64337415950E+02 -0.11860050203E+03  0.93205382774E+02  0.16398971172E+03  0.00000000000E+00 0.  1.
         11    1    5    5    0    0  0.26766820087E+03  0.50586165281E+03  0.24583506870E+03  0.62287812495E+03  0.00000000000E+00 0.  1.
        -11    1    5    5    0    0  0.23029275532E+03  0.64902189089E+03  0.27507360113E+03  0.74157241996E+03  0.00000000000E+00 0. -1.
          3    1    6    6  503    0  0.19319238960E+03 -0.32135800646E+02 -0.42088153365E+02  0.20031830105E+03  0.00000000000E+00 0. -1.
         -3    1    6    6    0  503  0.53253568704E+02 -0.47581399274E+02 -0.57823021134E+02  0.91888159791E+02  0.00000000000E+00 0.  1.
<mgrwt>
<rscale>  0 0.29334001E+04</rscale>
<asrwt>0</asrwt>
<pdfrwt beam="1">  1        1 0.15612883E+00 0.29334001E+04</pdfrwt>
<pdfrwt beam="2">  1       -2 0.32611652E+00 0.29334001E+04</pdfrwt>
<totfact> 0.24277821E-01</totfact>
</mgrwt>
</event>
<event>
12    4  0.4413110E-008  0.1386014E+04  0.7818608E-02  0.8964005E-01
         -2   -1    0    0    0  501 -0.00000000000E+00  0.00000000000E+00  0.24126149198E+03  0.24126149198E+03  0.00000000000E+00 0.  1.
          1   -1    0    0  501    0  0.00000000000E+00 -0.00000000000E+00 -0.19906145613E+04  0.19906145613E+04  0.00000000000E+00 0. -1.
        -24    2    1    2    0    0 -0.29273761879E+03  0.11648573345E+02 -0.91441087839E+03  0.96361612367E+03  0.81103492944E+02 0.  0.
        254    2    1    2    0    0  0.29273761879E+03 -0.11648573345E+02 -0.83494219095E+03  0.12682599296E+04  0.90858339417E+03 0.  0.
         23    2    4    4    0    0 -0.30505793146E+03  0.78829857200E+01 -0.44880620318E+03  0.55043359524E+03  0.91802242595E+02 0.  0.
         23    2    4    4    0    0  0.59779555025E+03 -0.19531559064E+02 -0.38613598777E+03  0.71782633439E+03  0.91829426633E+02 0.  0.
          3    1    3    3  502    0 -0.24886300669E+03 -0.14992609029E+02 -0.80578550817E+03  0.84347368637E+03  0.00000000000E+00 0. -1.
         -4    1    3    3    0  502 -0.43874612104E+02  0.26641182374E+02 -0.10862537023E+03  0.12014243731E+03  0.00000000000E+00 0.  1.
         11    1    5    5    0    0 -0.24732965763E+03  0.38992941115E+02 -0.38260110226E+03  0.45724830502E+03  0.00000000000E+00 0.  1.
        -11    1    5    5    0    0 -0.57728273836E+02 -0.31109955395E+02 -0.66205100921E+02  0.93185290217E+02  0.00000000000E+00 0. -1.
          4    1    6    6  503    0  0.18803892237E+03 -0.46618915263E+02 -0.14051075328E+03  0.23932244227E+03  0.00000000000E+00 0. -1.
         -4    1    6    6    0  503  0.40975662788E+03  0.27087356199E+02 -0.24562523449E+03  0.47850389213E+03  0.00000000000E+00 0.  1.
<mgrwt>
<rscale>  0 0.13860139E+04</rscale>
<asrwt>0</asrwt>
<pdfrwt beam="1">  1        1 0.30624838E+00 0.13860139E+04</pdfrwt>
<pdfrwt beam="2">  1       -2 0.37117154E-01 0.13860139E+04</pdfrwt>
<totfact> 0.17745605E+01</totfact>
</mgrwt>
</event>
<event>
12    4  0.4413110E-008  0.1451775E+04  0.7818608E-02  0.8917171E-01
         -2   -1    0    0    0  501 -0.00000000000E+00  0.00000000000E+00  0.37327189550E+03  0.37327189550E+03  0.00000000000E+00 0.  1.
          1   -1    0    0  501    0  0.00000000000E+00 -0.00000000000E+00 -0.14116057011E+04  0.14116057011E+04  0.00000000000E+00 0. -1.
        -24    2    1    2    0    0  0.15046181057E+03 -0.13302632341E+03  0.16114994863E+03  0.26932423406E+03  0.78939710827E+02 0.  0.
        254    2    1    2    0    0 -0.15046181057E+03  0.13302632341E+03 -0.11994837542E+04  0.15155533625E+04  0.90432624583E+03 0.  0.
         23    2    4    4    0    0  0.34503847356E+03  0.97643389326E+02 -0.76407258393E+03  0.84918199773E+03  0.93366867983E+02 0.  0.
         23    2    4    4    0    0 -0.49550028413E+03  0.35382934080E+02 -0.43541117028E+03  0.66637136480E+03  0.87723571610E+02 0.  0.
          1    1    3    3  502    0  0.12401490276E+03 -0.11647180106E+03  0.91894264649E+02  0.19336476521E+03  0.00000000000E+00 0. -1.
         -2    1    3    3    0  502  0.26446907810E+02 -0.16554522341E+02  0.69255683985E+02  0.75959468843E+02  0.00000000000E+00 0.  1.
         11    1    5    5    0    0  0.39125495767E+02  0.40085675483E+02 -0.16182761183E+03  0.17124789560E+03  0.00000000000E+00 0. -1.
        -11    1    5    5    0    0  0.30591297779E+03  0.57557713842E+02 -0.60224497211E+03  0.67793410213E+03  0.00000000000E+00 0.  1.
          2    1    6    6  503    0 -0.15919256485E+03  0.50953223385E+02 -0.12893368240E+03  0.21109807705E+03  0.00000000000E+00 0. -1.
         -2    1    6    6    0  503 -0.33630771928E+03 -0.15570289305E+02 -0.30647748788E+03  0.45527328775E+03  0.00000000000E+00 0.  1.
<mgrwt>
<rscale>  0 0.14517751E+04</rscale>
<asrwt>0</asrwt>
<pdfrwt beam="1">  1        1 0.21717010E+00 0.14517751E+04</pdfrwt>
<pdfrwt beam="2">  1       -2 0.57426446E-01 0.14517751E+04</pdfrwt>
<totfact> 0.18247815E+01</totfact>
</mgrwt>
</event>
<event>
12    4  0.4413110E-008  0.1651399E+04  0.7818608E-02  0.8789579E-01
         -2   -1    0    0    0  501 -0.00000000000E+00  0.00000000000E+00  0.77250567668E+03  0.77250567668E+03  0.00000000000E+00 0.  1.
          1   -1    0    0  501    0  0.00000000000E+00 -0.00000000000E+00 -0.88255652424E+03  0.88255652424E+03  0.00000000000E+00 0. -1.
        -24    2    1    2    0    0 -0.13910276919E+03 -0.55567055397E+03  0.52801070814E+02  0.58025087492E+03  0.76051165823E+02 0.  0.
        254    2    1    2    0    0  0.13910276919E+03  0.55567055397E+03 -0.16285191838E+03  0.10748113260E+04  0.89475096772E+03 0.  0.
         23    2    4    4    0    0  0.38949456808E+03  0.90641307167E+02 -0.31567887290E+03  0.51742792809E+03  0.90314145292E+02 0.  0.
         23    2    4    4    0    0 -0.25039179889E+03  0.46502924680E+03  0.15282695453E+03  0.55738339791E+03  0.91498201638E+02 0.  0.
          1    1    3    3  502    0 -0.92954985252E+01 -0.17657603031E+03  0.72723769201E+01  0.17697002073E+03  0.00000000000E+00 0. -1.
         -2    1    3    3    0  502 -0.12980727066E+03 -0.37909452366E+03  0.45528693894E+02  0.40328085419E+03  0.00000000000E+00 0.  1.
         11    1    5    5    0    0  0.16150016326E+03  0.90354062123E+01 -0.17080581747E+03  0.23524151118E+03  0.00000000000E+00 0. -1.
        -11    1    5    5    0    0  0.22799440482E+03  0.81605900955E+02 -0.14487305543E+03  0.28218641691E+03  0.00000000000E+00 0.  1.
          2    1    6    6  503    0 -0.14618905128E+03  0.21366510164E+03  0.36484763577E+02  0.26144818291E+03  0.00000000000E+00 0. -1.
         -2    1    6    6    0  503 -0.10420274761E+03  0.25136414516E+03  0.11634219095E+03  0.29593521500E+03  0.00000000000E+00 0.  1.
<mgrwt>
<rscale>  0 0.16513993E+04</rscale>
<asrwt>0</asrwt>
<pdfrwt beam="1">  1        1 0.13577793E+00 0.16513993E+04</pdfrwt>
<pdfrwt beam="2">  1       -2 0.11884703E+00 0.16513993E+04</pdfrwt>
<totfact> 0.85648653E+00</totfact>
</mgrwt>
</event>
<event>
12    4  0.4413110E-008  0.2174314E+04  0.7818608E-02  0.8529196E-01
         -2   -1    0    0    0  501 -0.00000000000E+00  0.00000000000E+00  0.69539030444E+03  0.69539030444E+03  0.00000000000E+00 0.  1.
          1   -1    0    0  501    0  0.00000000000E+00 -0.00000000000E+00 -0.16996357162E+04  0.16996357162E+04  0.00000000000E+00 0. -1.
        -24    2    1    2    0    0  0.66301334906E+01  0.37643142198E+03  0.48156942868E+03  0.61656970880E+03  0.80650586168E+02 0.  0.
        254    2    1    2    0    0 -0.66301334906E+01 -0.37643142198E+03 -0.14858148404E+04  0.17784563118E+04  0.90195151693E+03 0.  0.
         23    2    4    4    0    0  0.14056304755E+03  0.22375998617E+03 -0.81661384413E+03  0.86318887809E+03  0.91708053565E+02 0.  0.
         23    2    4    4    0    0 -0.14719318104E+03 -0.60019140815E+03 -0.66920099627E+03  0.91526743370E+03  0.89380886258E+02 0.  0.
          1    1    3    3  502    0 -0.11693024736E+02  0.18067385132E+02  0.93031400573E+01  0.23445802352E+02  0.00000000000E+00 0. -1.
         -2    1    3    3    0  502  0.18323158227E+02  0.35836403685E+03  0.47226628862E+03  0.59312390645E+03  0.00000000000E+00 0.  1.
         11    1    5    5    0    0  0.99698923652E+01  0.38645892071E+02 -0.50993619690E+02  0.64755331648E+02  0.00000000000E+00 0.  1.
        -11    1    5    5    0    0  0.13059315518E+03  0.18511409410E+03 -0.76562022444E+03  0.79843354645E+03  0.00000000000E+00 0. -1.
          4    1    6    6  503    0 -0.69093287045E+02 -0.40786238185E+03 -0.40112632408E+03  0.57621865010E+03  0.00000000000E+00 0. -1.
         -4    1    6    6    0  503 -0.78099893993E+02 -0.19232902630E+03 -0.26807467218E+03  0.33904878361E+03  0.00000000000E+00 0.  1.
<mgrwt>
<rscale>  0 0.21743139E+04</rscale>
<asrwt>0</asrwt>
<pdfrwt beam="1">  1        1 0.26148241E+00 0.21743139E+04</pdfrwt>
<pdfrwt beam="2">  1       -2 0.10698313E+00 0.21743139E+04</pdfrwt>
<totfact> 0.26888543E+00</totfact>
</mgrwt>
</event>
<event>
12    4  0.4413110E-008  0.1957625E+04  0.7818608E-02  0.8626693E-01
         -2   -1    0    0    0  501 -0.00000000000E+00  0.00000000000E+00  0.31130578263E+03  0.31130578263E+03  0.00000000000E+00 0.  1.
          1   -1    0    0  501    0  0.00000000000E+00 -0.00000000000E+00 -0.30775975921E+04  0.30775975921E+04  0.00000000000E+00 0. -1.
        -24    2    1    2    0    0  0.12224936430E+03 -0.32684240265E+03  0.77835899267E+02  0.36664343911E+03  0.81228818670E+02 0.  0.
        254    2    1    2    0    0 -0.12224936430E+03  0.32684240265E+03 -0.28441277087E+04  0.30222599356E+04  0.96084433263E+03 0.  0.
         23    2    4    4    0    0  0.85060505134E+02 -0.21711890280E+03 -0.18491697202E+04  0.18660916395E+04  0.92159891946E+02 0.  0.
         23    2    4    4    0    0 -0.20730986943E+03  0.54396130546E+03 -0.99495798858E+03  0.11561682961E+04  0.88951931007E+02 0.  0.
          3    1    3    3  502    0 -0.12063968261E+02 -0.28501833236E+02  0.97941383697E+01  0.32462578062E+02  0.00000000000E+00 0. -1.
         -4    1    3    3    0  502  0.13431333256E+03 -0.29834056942E+03  0.68041760898E+02  0.33418086105E+03  0.00000000000E+00 0.  1.
         11    1    5    5    0    0  0.94742410260E+02 -0.13120390871E+03 -0.10758841339E+04  0.10879877111E+04  0.00000000000E+00 0. -1.
        -11    1    5    5    0    0 -0.96819051260E+01 -0.85914994098E+02 -0.77328558628E+03  0.77810392844E+03  0.00000000000E+00 0.  1.
          1    1    6    6  503    0 -0.17280825699E+03  0.50530774879E+03 -0.86913509081E+03  0.10200952998E+04  0.00000000000E+00 0. -1.
         -1    1    6    6    0  503 -0.34501612446E+02  0.38653556667E+02 -0.12582289777E+03  0.13607299625E+03  0.00000000000E+00 0.  1.
<mgrwt>
<rscale>  0 0.19576250E+04</rscale>
<asrwt>0</asrwt>
<pdfrwt beam="1">  1        1 0.47347653E+00 0.19576250E+04</pdfrwt>
<pdfrwt beam="2">  1       -2 0.47893200E-01 0.19576250E+04</pdfrwt>
<totfact> 0.17756780E+00</totfact>
</mgrwt>
</event>
<event>
12    4  0.4413110E-008  0.1870767E+04  0.7818608E-02  0.8669546E-01
          3   -1    0    0  501    0  0.00000000000E+00  0.00000000000E+00  0.24564768275E+03  0.24564768275E+03  0.00000000000E+00 0. -1.
         -2   -1    0    0    0  501 -0.00000000000E+00 -0.00000000000E+00 -0.35617762143E+04  0.35617762143E+04  0.00000000000E+00 0.  1.
        -24    2    1    2    0    0  0.48654260483E+03  0.53367993359E+03 -0.12813522529E+04  0.14732872997E+04  0.84698841317E+02 0.  0.
        254    2    1    2    0    0 -0.48654260483E+03 -0.53367993359E+03 -0.20347762786E+04  0.23341365973E+04  0.88675880200E+03 0.  0.
         23    2    4    4    0    0 -0.17383746138E+03 -0.67431900111E+03 -0.87727230570E+03  0.11235772123E+04  0.88845233176E+02 0.  0.
         23    2    4    4    0    0 -0.31270514345E+03  0.14063906751E+03 -0.11575039729E+04  0.12105593850E+04  0.89859463375E+02 0.  0.
          1    1    3    3  502    0  0.44466139490E+03  0.47474391797E+03 -0.10982071702E+04  0.12763872972E+04  0.00000000000E+00 0. -1.
         -2    1    3    3    0  502  0.41881209933E+02  0.58936015628E+02 -0.18314508275E+03  0.19690000258E+03  0.00000000000E+00 0.  1.
         11    1    5    5    0    0 -0.73639895418E+02 -0.34274085067E+03 -0.50856598778E+03  0.61768397166E+03  0.00000000000E+00 0. -1.
        -11    1    5    5    0    0 -0.10019756596E+03 -0.33157815044E+03 -0.36870631792E+03  0.50589324066E+03  0.00000000000E+00 0.  1.
          3    1    6    6  503    0 -0.10960271136E+03  0.95202885398E+02 -0.42824757767E+03  0.45218616908E+03  0.00000000000E+00 0. -1.
         -3    1    6    6    0  503 -0.20310243209E+03  0.45436182117E+02 -0.72925639527E+03  0.75837321591E+03  0.00000000000E+00 0.  1.
<mgrwt>
<rscale>  0 0.18707668E+04</rscale>
<asrwt>0</asrwt>
<pdfrwt beam="1">  1        3 0.37791953E-01 0.18707668E+04</pdfrwt>
<pdfrwt beam="2">  1       -2 0.54796555E+00 0.18707668E+04</pdfrwt>
<totfact> 0.23970253E-02</totfact>
</mgrwt>
</event>
<event>
12    4  0.4413110E-008  0.1734018E+04  0.7818608E-02  0.8742197E-01
          1   -1    0    0  501    0  0.00000000000E+00  0.00000000000E+00  0.29748399518E+04  0.29748399518E+04  0.00000000000E+00 0. -1.
         -2   -1    0    0    0  501 -0.00000000000E+00 -0.00000000000E+00 -0.25268736271E+03  0.25268736271E+03  0.00000000000E+00 0.  1.
        -24    2    1    2    0    0  0.27120671626E+03 -0.50892050662E+03  0.55647004359E+03  0.80501028734E+03  0.76351085921E+02 0.  0.
        254    2    1    2    0    0 -0.27120671626E+03  0.50892050662E+03  0.21656825455E+04  0.24225170272E+04  0.91970359030E+03 0.  0.
         23    2    4    4    0    0 -0.29765349496E+03  0.71466192137E+03  0.19875610940E+04  0.21349709280E+04  0.91446683946E+02 0.  0.
         23    2    4    4    0    0  0.26446778694E+02 -0.20574141475E+03  0.17812145152E+03  0.28754609920E+03  0.89031150899E+02 0.  0.
          3    1    3    3  502    0  0.44011019698E+02 -0.61142000374E+02  0.42580769907E+02  0.86535750014E+02  0.00000000000E+00 0. -1.
         -4    1    3    3    0  502  0.22719569657E+03 -0.44777850624E+03  0.51388927368E+03  0.71847453733E+03  0.00000000000E+00 0.  1.
         11    1    5    5    0    0 -0.25822993054E+03  0.67477850093E+03  0.18146472474E+04  0.19531905578E+04  0.00000000000E+00 0.  1.
        -11    1    5    5    0    0 -0.39423564422E+02  0.39883420435E+02  0.17291384659E+03  0.18178037023E+03  0.00000000000E+00 0. -1.
          1    1    6    6  503    0  0.39296931997E+02 -0.15989892246E+03  0.90659166112E+02  0.18796541881E+03  0.00000000000E+00 0. -1.
         -1    1    6    6    0  503 -0.12850153303E+02 -0.45842492286E+02  0.87462285403E+02  0.99580680390E+02  0.00000000000E+00 0.  1.
<mgrwt>
<rscale>  0 0.17340178E+04</rscale>
<asrwt>0</asrwt>
<pdfrwt beam="1">  1        1 0.45766766E+00 0.17340178E+04</pdfrwt>
<pdfrwt beam="2">  1       -2 0.38874981E-01 0.17340178E+04</pdfrwt>
<totfact> 0.32613469E+00</totfact>
</mgrwt>
</event>
<event>
12    4  0.4413110E-008  0.2313312E+04  0.7818608E-02  0.8472691E-01
          1   -1    0    0  501    0  0.00000000000E+00  0.00000000000E+00  0.29969290060E+04  0.29969290060E+04  0.00000000000E+00 0. -1.
         -2   -1    0    0    0  501 -0.00000000000E+00 -0.00000000000E+00 -0.44640805471E+03  0.44640805471E+03  0.00000000000E+00 0.  1.
        -24    2    1    2    0    0 -0.13622633445E+03  0.23512537315E+03  0.24904654153E+04  0.25065123012E+04  0.79651591081E+02 0.  0.
        254    2    1    2    0    0  0.13622633445E+03 -0.23512537315E+03  0.60055535994E+02  0.93682475951E+03  0.89453474350E+03 0.  0.
         23    2    4    4    0    0  0.77638140540E+02 -0.86319962275E+02 -0.40806278645E+03  0.43392140740E+03  0.91069936615E+02 0.  0.
         23    2    4    4    0    0  0.58588193909E+02 -0.14880541087E+03  0.46811832245E+03  0.50290335211E+03  0.90561531478E+02 0.  0.
          3    1    3    3  502    0 -0.51133493362E+02  0.16085164524E+03  0.16132285720E+04  0.16220340044E+04  0.00000000000E+00 0. -1.
         -4    1    3    3    0  502 -0.85092841087E+02  0.74273727906E+02  0.87723684325E+03  0.88447829674E+03  0.00000000000E+00 0.  1.
         11    1    5    5    0    0  0.93657365198E+02 -0.67697609187E+02 -0.37703148242E+03  0.39434427482E+03  0.00000000000E+00 0. -1.
        -11    1    5    5    0    0 -0.16019224657E+02 -0.18622353088E+02 -0.31031304033E+02  0.39577132578E+02  0.00000000000E+00 0.  1.
          1    1    6    6  503    0  0.78829726331E-01 -0.11571025568E+03  0.27216893406E+03  0.29574448118E+03  0.00000000000E+00 0. -1.
         -1    1    6    6    0  503  0.58509364182E+02 -0.33095155192E+02  0.19594938839E+03  0.20715887093E+03  0.00000000000E+00 0.  1.
<mgrwt>
<rscale>  0 0.23133121E+04</rscale>
<asrwt>0</asrwt>
<pdfrwt beam="1">  1        1 0.46106599E+00 0.23133121E+04</pdfrwt>
<pdfrwt beam="2">  1       -2 0.68678164E-01 0.23133121E+04</pdfrwt>
<totfact> 0.92451586E-01</totfact>
</mgrwt>
</event>
<event>
12    4  0.4413110E-008  0.1314287E+04  0.7818608E-02  0.9018312E-01
          1   -1    0    0  501    0  0.00000000000E+00  0.00000000000E+00  0.32558277930E+04  0.32558277930E+04  0.00000000000E+00 0. -1.
         -2   -1    0    0    0  501 -0.00000000000E+00 -0.00000000000E+00 -0.13263520959E+03  0.13263520959E+03  0.00000000000E+00 0.  1.
        -24    2    1    2    0    0 -0.13266509869E+02  0.59359955269E+02 -0.30555350648E+02  0.10368061444E+03  0.78207645305E+02 0.  0.
        254    2    1    2    0    0  0.13266509869E+02 -0.59359955269E+02  0.31537479341E+04  0.32847823882E+04  0.91649860954E+03 0.  0.
         23    2    4    4    0    0 -0.25643222179E+03 -0.25481993562E+03  0.26362655940E+04  0.26625597278E+04  0.92937281252E+02 0.  0.
         23    2    4    4    0    0  0.26969873166E+03  0.19545998035E+03  0.51748234008E+03  0.62222266032E+03  0.91820787098E+02 0.  0.
          3    1    3    3  502    0  0.27330182203E+02  0.10825721308E+02 -0.27623093949E+02  0.40338200510E+02  0.00000000000E+00 0. -1.
         -4    1    3    3    0  502 -0.40596692072E+02  0.48534233961E+02 -0.29322566990E+01  0.63342413932E+02  0.00000000000E+00 0.  1.
         11    1    5    5    0    0 -0.25585493047E+03 -0.26133478868E+03  0.25567025375E+04  0.25827283021E+04  0.00000000000E+00 0.  1.
        -11    1    5    5    0    0 -0.57729131563E+00  0.65148530616E+01  0.79563056476E+02  0.79831425714E+02  0.00000000000E+00 0. -1.
          1    1    6    6  503    0  0.21240967633E+02  0.49136936839E+02  0.11773623147E+03  0.12933459502E+03  0.00000000000E+00 0. -1.
         -1    1    6    6    0  503  0.24845776402E+03  0.14632304351E+03  0.39974610861E+03  0.49288806530E+03  0.00000000000E+00 0.  1.
<mgrwt>
<rscale>  0 0.13142867E+04</rscale>
<asrwt>0</asrwt>
<pdfrwt beam="1">  1        1 0.50089653E+00 0.13142867E+04</pdfrwt>
<pdfrwt beam="2">  1       -2 0.20405419E-01 0.13142867E+04</pdfrwt>
<totfact> 0.69522985E+00</totfact>
</mgrwt>
</event>
<event>
12    4  0.4413110E-008  0.1469706E+04  0.7818608E-02  0.8904852E-01
         -2   -1    0    0    0  501 -0.00000000000E+00  0.00000000000E+00  0.31281505219E+03  0.31281505219E+03  0.00000000000E+00 0.  1.
          1   -1    0    0  501    0  0.00000000000E+00 -0.00000000000E+00 -0.17262883298E+04  0.17262883298E+04  0.00000000000E+00 0. -1.
        -24    2    1    2    0    0 -0.38731773456E+03 -0.18200411264E+03 -0.22546542049E+03  0.49036272899E+03  0.80501090787E+02 0.  0.
        254    2    1    2    0    0  0.38731773456E+03  0.18200411264E+03 -0.11880078571E+04  0.15487406530E+04  0.89671311867E+03 0.  0.
         23    2    4    4    0    0  0.24431326401E+03 -0.98374304445E+02 -0.11889887061E+04  0.12213392446E+04  0.92784332776E+02 0.  0.
         23    2    4    4    0    0  0.14300447055E+03  0.28037841709E+03  0.98084892547E+00  0.32740140847E+03  0.90157555627E+02 0.  0.
          1    1    3    3  502    0  0.31896630516E+00  0.46598020117E-01 -0.11725366662E+02  0.11729796854E+02  0.00000000000E+00 0. -1.
         -2    1    3    3    0  502 -0.38763670087E+03 -0.18205071066E+03 -0.21374005383E+03  0.47863293213E+03  0.00000000000E+00 0.  1.
         11    1    5    5    0    0  0.85885344670E+02 -0.77485791269E+02 -0.60054879163E+03  0.61158743561E+03  0.00000000000E+00 0. -1.
        -11    1    5    5    0    0  0.15842791934E+03 -0.20888513177E+02 -0.58843991445E+03  0.60975180896E+03  0.00000000000E+00 0.  1.
          4    1    6    6  503    0  0.94837867280E+02  0.18463409911E+03 -0.42268389757E+02  0.21182678867E+03  0.00000000000E+00 0. -1.
         -4    1    6    6    0  503  0.48166603272E+02  0.95744317971E+02  0.43249238682E+02  0.11557461980E+03  0.00000000000E+00 0.  1.
<mgrwt>
<rscale>  0 0.14697061E+04</rscale>
<asrwt>0</asrwt>
<pdfrwt beam="1">  1        1 0.26558282E+00 0.14697061E+04</pdfrwt>
<pdfrwt beam="2">  1       -2 0.48125393E-01 0.14697061E+04</pdfrwt>
<totfact> 0.15923121E+01</totfact>
</mgrwt>
</event>
<event>
12    4  0.4413110E-008  0.1430644E+04  0.7818608E-02  0.8931931E-01
         -2   -1    0    0    0  501 -0.00000000000E+00  0.00000000000E+00  0.47946828865E+03  0.47946828865E+03  0.00000000000E+00 0.  1.
          1   -1    0    0  501    0  0.00000000000E+00 -0.00000000000E+00 -0.10671930969E+04  0.10671930969E+04  0.00000000000E+00 0. -1.
        -24    2    1    2    0    0 -0.77173067508E+02 -0.20940758692E+03  0.20994617222E+03  0.31623250922E+03  0.78220105113E+02 0.  0.
        254    2    1    2    0    0  0.77173067508E+02  0.20940758692E+03 -0.79767098050E+03  0.12304288764E+04  0.90987307182E+03 0.  0.
         23    2    4    4    0    0 -0.14967909010E+03 -0.24799417340E+03 -0.60478350918E+03  0.67694429458E+03  0.92658215705E+02 0.  0.
         23    2    4    4    0    0  0.22685215760E+03  0.45740176032E+03 -0.19288747132E+03  0.55348458177E+03  0.91985509244E+02 0.  0.
          3    1    3    3  502    0 -0.21332677479E+01 -0.11021329469E+03  0.78925371869E+02  0.13557557111E+03  0.00000000000E+00 0. -1.
         -4    1    3    3    0  502 -0.75039799760E+02 -0.99194292236E+02  0.13102080036E+03  0.18065693811E+03  0.00000000000E+00 0.  1.
         11    1    5    5    0    0 -0.10453148469E+03 -0.12421850973E+03 -0.41754682700E+03  0.44799823905E+03  0.00000000000E+00 0.  1.
        -11    1    5    5    0    0 -0.45147605404E+02 -0.12377566367E+03 -0.18723668218E+03  0.22894605553E+03  0.00000000000E+00 0. -1.
          2    1    6    6  503    0  0.16352434463E+03  0.40389959651E+03 -0.16668569590E+03  0.46653961950E+03  0.00000000000E+00 0. -1.
         -2    1    6    6    0  503  0.63327812978E+02  0.53502163816E+02 -0.26201775416E+02  0.86944962272E+02  0.00000000000E+00 0.  1.
<mgrwt>
<rscale>  0 0.14306436E+04</rscale>
<asrwt>0</asrwt>
<pdfrwt beam="1">  1        1 0.16418355E+00 0.14306436E+04</pdfrwt>
<pdfrwt beam="2">  1       -2 0.73764352E-01 0.14306436E+04</pdfrwt>
<totfact> 0.18971726E+01</totfact>
</mgrwt>
</event>
<event>
12    4  0.4413110E-008  0.2329199E+04  0.7818608E-02  0.8466497E-01
         -2   -1    0    0    0  501 -0.00000000000E+00  0.00000000000E+00  0.61669277188E+03  0.61669277188E+03  0.00000000000E+00 0.  1.
          1   -1    0    0  501    0  0.00000000000E+00 -0.00000000000E+00 -0.21992991013E+04  0.21992991013E+04  0.00000000000E+00 0. -1.
        -24    2    1    2    0    0 -0.12272931467E+03 -0.98086538489E+03 -0.71879414787E+03  0.12247977651E+04  0.79404977324E+02 0.  0.
        254    2    1    2    0    0  0.12272931467E+03  0.98086538489E+03 -0.86381218153E+03  0.15911941081E+04  0.89920399055E+03 0.  0.
         23    2    4    4    0    0  0.11085844685E+02 -0.10089497503E+03 -0.36802764636E+03  0.39257663643E+03  0.91484288529E+02 0.  0.
         23    2    4    4    0    0  0.11164346999E+03  0.10817603599E+04 -0.49578453517E+03  0.11986174716E+04  0.90618967776E+02 0.  0.
          1    1    3    3  502    0 -0.56171702013E+01 -0.81878793460E+02 -0.88147093118E+02  0.12043919397E+03  0.00000000000E+00 0. -1.
         -2    1    3    3    0  502 -0.11711214447E+03 -0.89898659142E+03 -0.63064705475E+03  0.11043585711E+04  0.00000000000E+00 0.  1.
         11    1    5    5    0    0 -0.37892906059E+02 -0.46184925739E+02 -0.12228597569E+03  0.13609841860E+03  0.00000000000E+00 0. -1.
        -11    1    5    5    0    0  0.48978750744E+02 -0.54710049288E+02 -0.24574167066E+03  0.25647821782E+03  0.00000000000E+00 0.  1.
          3    1    6    6  503    0  0.37934204427E+02  0.29246101440E+03 -0.91716268687E+02  0.30884352470E+03  0.00000000000E+00 0. -1.
         -3    1    6    6    0  503  0.73709265559E+02  0.78929934552E+03 -0.40406826648E+03  0.88977394693E+03  0.00000000000E+00 0.  1.
<mgrwt>
<rscale>  0 0.23291989E+04</rscale>
<asrwt>0</asrwt>
<pdfrwt beam="1">  1        1 0.33835371E+00 0.23291989E+04</pdfrwt>
<pdfrwt beam="2">  1       -2 0.94875811E-01 0.23291989E+04</pdfrwt>
<totfact> 0.16151823E+00</totfact>
</mgrwt>
</event>
<event>
12    4  0.4413110E-008  0.1598767E+04  0.7818608E-02  0.8821306E-01
         -2   -1    0    0    0  501 -0.00000000000E+00  0.00000000000E+00  0.20049310451E+04  0.20049310451E+04  0.00000000000E+00 0.  1.
          1   -1    0    0  501    0  0.00000000000E+00 -0.00000000000E+00 -0.31872127050E+03  0.31872127050E+03  0.00000000000E+00 0. -1.
        -24    2    1    2    0    0 -0.19483923706E+03  0.50293060519E+03  0.70408749663E+03  0.89048272222E+03  0.79490588946E+02 0.  0.
        254    2    1    2    0    0  0.19483923706E+03 -0.50293060519E+03  0.98212227797E+03  0.14331695934E+04  0.89359352761E+03 0.  0.
         23    2    4    4    0    0  0.42071814607E+03 -0.47078250611E+03  0.29370358321E+03  0.70217013149E+03  0.90228444902E+02 0.  0.
         23    2    4    4    0    0 -0.22587890901E+03 -0.32148099073E+02  0.68841869476E+03  0.73099946190E+03  0.91570367414E+02 0.  0.
          3    1    3    3  502    0 -0.13952079048E+03  0.37229352405E+03  0.45854824330E+03  0.60690609690E+03  0.00000000000E+00 0. -1.
         -4    1    3    3    0  502 -0.55318446582E+02  0.13063708114E+03  0.24553925333E+03  0.28357662532E+03  0.00000000000E+00 0.  1.
         11    1    5    5    0    0  0.39417920832E+03 -0.42965728206E+03  0.24297740916E+03  0.63168081312E+03  0.00000000000E+00 0. -1.
        -11    1    5    5    0    0  0.26538937747E+02 -0.41125224053E+02  0.50726174054E+02  0.70489318370E+02  0.00000000000E+00 0.  1.
          3    1    6    6  503    0 -0.21877984967E+03 -0.30882865881E+02  0.68919591813E+03  0.72374677035E+03  0.00000000000E+00 0. -1.
         -3    1    6    6    0  503 -0.70990593451E+01 -0.12652331919E+01 -0.77722336301E+00  0.72526915536E+01  0.00000000000E+00 0.  1.
<mgrwt>
<rscale>  0 0.15987672E+04</rscale>
<asrwt>0</asrwt>
<pdfrwt beam="1">  1        1 0.49034043E-01 0.15987672E+04</pdfrwt>
<pdfrwt beam="2">  1       -2 0.30845092E+00 0.15987672E+04</pdfrwt>
<totfact> 0.19219947E+00</totfact>
</mgrwt>
</event>
<event>
12    4  0.4413110E-008  0.2391025E+04  0.7818608E-02  0.8442871E-01
         -2   -1    0    0    0  501 -0.00000000000E+00  0.00000000000E+00  0.10851814060E+04  0.10851814060E+04  0.00000000000E+00 0.  1.
          1   -1    0    0  501    0  0.00000000000E+00 -0.00000000000E+00 -0.13170615247E+04  0.13170615247E+04  0.00000000000E+00 0. -1.
        -24    2    1    2    0    0 -0.78291821568E+03  0.47894902068E+03 -0.55469294333E+03  0.10754393477E+04  0.80823463556E+02 0.  0.
        254    2    1    2    0    0  0.78291821568E+03 -0.47894902068E+03  0.32281282461E+03  0.13268035831E+04  0.90213443092E+03 0.  0.
         23    2    4    4    0    0  0.35423668119E+03 -0.70083136685E+03  0.14009101871E+03  0.80284400185E+03  0.91020693930E+02 0.  0.
         23    2    4    4    0    0  0.42868153449E+03  0.22188234617E+03  0.18272180590E+03  0.52395958122E+03  0.90259353245E+02 0.  0.
          1    1    3    3  502    0 -0.64954966706E+03  0.36070271982E+03 -0.45442968169E+03  0.87093487567E+03  0.00000000000E+00 0. -1.
         -2    1    3    3    0  502 -0.13336854862E+03  0.11824630086E+03 -0.10026326164E+03  0.20450447199E+03  0.00000000000E+00 0.  1.
         11    1    5    5    0    0  0.11862711977E+03 -0.28057710857E+03  0.14594316783E+02  0.30497360784E+03  0.00000000000E+00 0.  1.
        -11    1    5    5    0    0  0.23560956142E+03 -0.42025425828E+03  0.12549670192E+03  0.49787039401E+03  0.00000000000E+00 0. -1.
          4    1    6    6  503    0  0.16906106005E+03  0.13756638804E+03  0.74942380789E+02  0.23048321757E+03  0.00000000000E+00 0. -1.
         -4    1    6    6    0  503  0.25962047444E+03  0.84315958128E+02  0.10777942511E+03  0.29347636365E+03  0.00000000000E+00 0.  1.
<mgrwt>
<rscale>  0 0.23910255E+04</rscale>
<asrwt>0</asrwt>
<pdfrwt beam="1">  1        1 0.20262485E+00 0.23910255E+04</pdfrwt>
<pdfrwt beam="2">  1       -2 0.16695099E+00 0.23910255E+04</pdfrwt>
<totfact> 0.15515422E+00</totfact>
</mgrwt>
</event>
<event>
12    4  0.4413110E-008  0.1197725E+04  0.7818608E-02  0.9114850E-01
          1   -1    0    0  501    0  0.00000000000E+00  0.00000000000E+00  0.15900260597E+04  0.15900260597E+04  0.00000000000E+00 0. -1.
         -2   -1    0    0    0  501 -0.00000000000E+00 -0.00000000000E+00 -0.22555368237E+03  0.22555368237E+03  0.00000000000E+00 0.  1.
        -24    2    1    2    0    0 -0.10075894810E+03  0.63204532393E+02  0.63290855877E+03  0.64944882113E+03  0.84043732427E+02 0.  0.
        254    2    1    2    0    0  0.10075894810E+03 -0.63204532393E+02  0.73156381852E+03  0.11661309209E+04  0.90029357745E+03 0.  0.
         23    2    4    4    0    0  0.47904895401E+03 -0.11948009960E+03  0.50716741720E+03  0.71349102842E+03  0.89929216732E+02 0.  0.
         23    2    4    4    0    0 -0.37829000591E+03  0.56275567203E+02  0.22439640132E+03  0.45263989250E+03  0.90878266473E+02 0.  0.
          1    1    3    3  502    0 -0.58928402248E+02  0.70841588870E+02  0.53239933303E+03  0.54031484998E+03  0.00000000000E+00 0. -1.
         -2    1    3    3    0  502 -0.41830545851E+02 -0.76370564764E+01  0.10050922574E+03  0.10913397114E+03  0.00000000000E+00 0.  1.
         11    1    5    5    0    0  0.40643091954E+03 -0.10898573033E+03  0.47132627725E+03  0.63183260552E+03  0.00000000000E+00 0. -1.
        -11    1    5    5    0    0  0.72618034475E+02 -0.10494369269E+02  0.35841139954E+02  0.81658422901E+02  0.00000000000E+00 0.  1.
          4    1    6    6  503    0 -0.27359832838E+03  0.57032092932E+02  0.11799267974E+03  0.30336607818E+03  0.00000000000E+00 0. -1.
         -4    1    6    6    0  503 -0.10469167753E+03 -0.75652572851E+00  0.10640372157E+03  0.14927381431E+03  0.00000000000E+00 0.  1.
<mgrwt>
<rscale>  0 0.11977249E+04</rscale>
<asrwt>0</asrwt>
<pdfrwt beam="1">  1        1 0.24461939E+00 0.11977249E+04</pdfrwt>
<pdfrwt beam="2">  1       -2 0.34700568E-01 0.11977249E+04</pdfrwt>
<totfact> 0.38354247E+01</totfact>
</mgrwt>
</event>
<event>
12    4  0.4413110E-008  0.1188601E+04  0.7818608E-02  0.9122893E-01
         -2   -1    0    0    0  501 -0.00000000000E+00  0.00000000000E+00  0.91291864101E+03  0.91291864101E+03  0.00000000000E+00 0.  1.
          1   -1    0    0  501    0  0.00000000000E+00 -0.00000000000E+00 -0.38688352670E+03  0.38688352670E+03  0.00000000000E+00 0. -1.
        -24    2    1    2    0    0  0.99796887897E+02 -0.12611974307E+02 -0.13282871922E+03  0.18539545046E+03  0.81298977066E+02 0.  0.
        254    2    1    2    0    0 -0.99796887897E+02  0.12611974307E+02  0.65886383353E+03  0.11144067172E+04  0.89313061730E+03 0.  0.
         23    2    4    4    0    0 -0.18437848317E+03  0.18667560469E+03 -0.12318357905E+03  0.30368860026E+03  0.90605548029E+02 0.  0.
         23    2    4    4    0    0  0.84581595277E+02 -0.17406363038E+03  0.78204741259E+03  0.81071811699E+03  0.90628450237E+02 0.  0.
          1    1    3    3  502    0  0.44662287006E+02 -0.46610897028E+02 -0.65298064889E+02  0.91821200605E+02  0.00000000000E+00 0. -1.
         -2    1    3    3    0  502  0.55134600891E+02  0.33998922721E+02 -0.67530654333E+02  0.93574249857E+02  0.00000000000E+00 0.  1.
         11    1    5    5    0    0 -0.70045495855E+02  0.81876113938E+02 -0.35418001368E+01  0.10780822729E+03  0.00000000000E+00 0. -1.
        -11    1    5    5    0    0 -0.11433298732E+03  0.10479949075E+03 -0.11964177892E+03  0.19588037297E+03  0.00000000000E+00 0.  1.
          1    1    6    6  503    0  0.81863438125E+02 -0.15859566128E+03  0.55202422417E+03  0.58015941805E+03  0.00000000000E+00 0. -1.
         -1    1    6    6    0  503  0.27181571525E+01 -0.15467969102E+02  0.23002318842E+03  0.23055869894E+03  0.00000000000E+00 0.  1.
<mgrwt>
<rscale>  0 0.11886012E+04</rscale>
<asrwt>0</asrwt>
<pdfrwt beam="1">  1        1 0.59520543E-01 0.11886012E+04</pdfrwt>
<pdfrwt beam="2">  1       -2 0.14044902E+00 0.11886012E+04</pdfrwt>
<totfact> 0.19313576E+01</totfact>
</mgrwt>
</event>
<event>
12    4  0.4413110E-008  0.2401960E+04  0.7818608E-02  0.8438770E-01
          1   -1    0    0  501    0  0.00000000000E+00  0.00000000000E+00  0.25670508307E+04  0.25670508307E+04  0.00000000000E+00 0. -1.
         -2   -1    0    0    0  501 -0.00000000000E+00 -0.00000000000E+00 -0.56187143644E+03  0.56187143644E+03  0.00000000000E+00 0.  1.
        -24    2    1    2    0    0 -0.63921743956E+03 -0.51280411193E+03  0.15004232678E+04  0.17114759615E+04  0.79454338473E+02 0.  0.
        254    2    1    2    0    0  0.63921743956E+03  0.51280411193E+03  0.50475612645E+03  0.14174463057E+04  0.10405807465E+04 0.  0.
         23    2    4    4    0    0  0.66055041666E+03  0.77749841889E+03  0.49219913230E+03  0.11369448618E+04  0.97739391410E+02 0.  0.
         23    2    4    4    0    0 -0.21332977093E+02 -0.26469430696E+03  0.12556994150E+02  0.28050144385E+03  0.89471838337E+02 0.  0.
          3    1    3    3  502    0 -0.53521715741E+03 -0.38999311785E+03  0.12207567677E+04  0.13888121267E+04  0.00000000000E+00 0. -1.
         -4    1    3    3    0  502 -0.10400028216E+03 -0.12281099408E+03  0.27966650016E+03  0.32266383477E+03  0.00000000000E+00 0.  1.
         11    1    5    5    0    0  0.51396809517E+03  0.63716639684E+03  0.43007708730E+03  0.92472186150E+03  0.00000000000E+00 0.  1.
        -11    1    5    5    0    0  0.14658232149E+03  0.14033202205E+03  0.62122045000E+02  0.21222300031E+03  0.00000000000E+00 0. -1.
          1    1    6    6  503    0 -0.14310165750E+02 -0.20662210045E+03  0.47323023548E+02  0.21245456407E+03  0.00000000000E+00 0. -1.
         -1    1    6    6    0  503 -0.70228113432E+01 -0.58072206506E+02 -0.34766029398E+02  0.68046879780E+02  0.00000000000E+00 0.  1.
<mgrwt>
<rscale>  0 0.24019596E+04</rscale>
<asrwt>0</asrwt>
<pdfrwt beam="1">  1        1 0.39493089E+00 0.24019596E+04</pdfrwt>
<pdfrwt beam="2">  1       -2 0.86441761E-01 0.24019596E+04</pdfrwt>
<totfact> 0.11109390E+00</totfact>
</mgrwt>
</event>
<event>
12    4  0.4413110E-008  0.3397556E+04  0.7818608E-02  0.8138506E-01
          1   -1    0    0  501    0  0.00000000000E+00  0.00000000000E+00  0.14815854035E+04  0.14815854035E+04  0.00000000000E+00 0. -1.
         -2   -1    0    0    0  501 -0.00000000000E+00 -0.00000000000E+00 -0.19478100289E+04  0.19478100289E+04  0.00000000000E+00 0.  1.
        -24    2    1    2    0    0 -0.38800693560E+03 -0.92577029236E+02 -0.17564909920E+04  0.18027111602E+04  0.73396414095E+02 0.  0.
        254    2    1    2    0    0  0.38800693560E+03  0.92577029236E+02  0.12902663666E+04  0.16266842722E+04  0.90674943407E+03 0.  0.
         23    2    4    4    0    0  0.55981541542E+03 -0.18178899803E+03  0.53879919987E+03  0.80324284599E+03  0.91945378878E+02 0.  0.
         23    2    4    4    0    0 -0.17180847982E+03  0.27436602726E+03  0.75146716671E+03  0.82344142619E+03  0.92509507991E+02 0.  0.
          3    1    3    3  502    0 -0.86176274719E+02 -0.15848522908E+02 -0.26697133047E+03  0.28098259251E+03  0.00000000000E+00 0. -1.
         -4    1    3    3    0  502 -0.30183066088E+03 -0.76728506328E+02 -0.14895196615E+04  0.15217285677E+04  0.00000000000E+00 0.  1.
         11    1    5    5    0    0  0.17142895049E+03 -0.97907430560E+02  0.20073164658E+03  0.28154385798E+03  0.00000000000E+00 0.  1.
        -11    1    5    5    0    0  0.38838646492E+03 -0.83881567467E+02  0.33806755329E+03  0.52169898801E+03  0.00000000000E+00 0. -1.
          3    1    6    6  503    0 -0.12454168804E+03  0.12995612998E+03  0.47514899654E+03  0.50810018372E+03  0.00000000000E+00 0. -1.
         -3    1    6    6    0  503 -0.47266791775E+02  0.14440989728E+03  0.27631817016E+03  0.31534124247E+03  0.00000000000E+00 0.  1.
<mgrwt>
<rscale>  0 0.33975561E+04</rscale>
<asrwt>0</asrwt>
<pdfrwt beam="1">  1        1 0.22793622E+00 0.33975561E+04</pdfrwt>
<pdfrwt beam="2">  1       -2 0.29966308E+00 0.33975561E+04</pdfrwt>
<totfact> 0.15547684E-01</totfact>
</mgrwt>
</event>
<event>
12    4  0.4413110E-008  0.1930485E+04  0.7818608E-02  0.8639829E-01
         -2   -1    0    0    0  501 -0.00000000000E+00  0.00000000000E+00  0.27480329860E+03  0.27480329860E+03  0.00000000000E+00 0.  1.
          1   -1    0    0  501    0  0.00000000000E+00 -0.00000000000E+00 -0.33904016594E+04  0.33904016594E+04  0.00000000000E+00 0. -1.
        -24    2    1    2    0    0 -0.45557606260E+03 -0.20279095334E+03 -0.14041877196E+03  0.52377147235E+03  0.77106446912E+02 0.  0.
        254    2    1    2    0    0  0.45557606260E+03  0.20279095334E+03 -0.29751795889E+04  0.31414334857E+04  0.87649132309E+03 0.  0.
         23    2    4    4    0    0 -0.24099321207E+03 -0.13816377863E+02 -0.56444685265E+03  0.62112128996E+03  0.94460504021E+02 0.  0.
         23    2    4    4    0    0  0.69656927467E+03  0.21660733120E+03 -0.24107327362E+04  0.25203121957E+04  0.90629730957E+02 0.  0.
          3    1    3    3  502    0 -0.24708927758E+03 -0.79300453045E+02 -0.45151052866E+02  0.26340138672E+03  0.00000000000E+00 0. -1.
         -4    1    3    3    0  502 -0.20848678502E+03 -0.12349050029E+03 -0.95267719097E+02  0.26037008563E+03  0.00000000000E+00 0.  1.
         11    1    5    5    0    0 -0.17283392343E+03  0.33476701388E+02 -0.39507629464E+03  0.43252460417E+03  0.00000000000E+00 0.  1.
        -11    1    5    5    0    0 -0.68159288640E+02 -0.47293079251E+02 -0.16937055801E+03  0.18859668579E+03  0.00000000000E+00 0. -1.
          1    1    6    6  503    0  0.29641891800E+03  0.11240210983E+03 -0.90908509531E+03  0.96277417900E+03  0.00000000000E+00 0. -1.
         -1    1    6    6    0  503  0.40015035667E+03  0.10420522137E+03 -0.15016476409E+04  0.15575380167E+04  0.00000000000E+00 0.  1.
<mgrwt>
<rscale>  0 0.19304855E+04</rscale>
<asrwt>0</asrwt>
<pdfrwt beam="1">  1        1 0.52160026E+00 0.19304855E+04</pdfrwt>
<pdfrwt beam="2">  1       -2 0.42277430E-01 0.19304855E+04</pdfrwt>
<totfact> 0.13289917E+00</totfact>
</mgrwt>
</event>
<event>
12    4  0.4413110E-008  0.1483052E+04  0.7818608E-02  0.8895802E-01
          1   -1    0    0  501    0  0.00000000000E+00  0.00000000000E+00  0.17350934963E+04  0.17350934963E+04  0.00000000000E+00 0. -1.
         -2   -1    0    0    0  501 -0.00000000000E+00 -0.00000000000E+00 -0.31690540093E+03  0.31690540093E+03  0.00000000000E+00 0.  1.
        -24    2    1    2    0    0  0.28481875221E+03  0.56487051593E+02  0.96019210897E+03  0.10068047556E+04  0.85874450576E+02 0.  0.
        254    2    1    2    0    0 -0.28481875221E+03 -0.56487051593E+02  0.45799598645E+03  0.10451941416E+04  0.89350879206E+03 0.  0.
         23    2    4    4    0    0 -0.23565947056E+03  0.30941221062E+03  0.52381782960E+03  0.65920471379E+03  0.94310306577E+02 0.  0.
         23    2    4    4    0    0 -0.49159281649E+02 -0.36589926221E+03 -0.65821843155E+02  0.38598942784E+03  0.91413447079E+02 0.  0.
          1    1    3    3  502    0  0.28271356717E+03  0.57888861875E+02  0.87069604610E+03  0.91727296160E+03  0.00000000000E+00 0. -1.
         -2    1    3    3    0  502  0.21051850388E+01 -0.14018102819E+01  0.89496062868E+02  0.89531794046E+02  0.00000000000E+00 0.  1.
         11    1    5    5    0    0 -0.14798492934E+03  0.22772380585E+03  0.42261212959E+03  0.50235314585E+03  0.00000000000E+00 0. -1.
        -11    1    5    5    0    0 -0.87674541219E+02  0.81688404767E+02  0.10120570001E+03  0.15685156794E+03  0.00000000000E+00 0.  1.
          1    1    6    6  503    0 -0.32043430220E+02 -0.10482014313E+03 -0.58510289749E+02  0.12424772768E+03  0.00000000000E+00 0. -1.
         -1    1    6    6    0  503 -0.17115851429E+02 -0.26107911908E+03 -0.73115534053E+01  0.26174170016E+03  0.00000000000E+00 0.  1.
<mgrwt>
<rscale>  0 0.14830516E+04</rscale>
<asrwt>0</asrwt>
<pdfrwt beam="1">  1        1 0.26693745E+00 0.14830516E+04</pdfrwt>
<pdfrwt beam="2">  1       -2 0.48754678E-01 0.14830516E+04</pdfrwt>
<totfact> 0.15279445E+01</totfact>
</mgrwt>
</event>
<event>
12    4  0.4413110E-008  0.1487202E+04  0.7818608E-02  0.8893008E-01
          1   -1    0    0  501    0  0.00000000000E+00  0.00000000000E+00  0.66154664325E+03  0.66154664325E+03  0.00000000000E+00 0. -1.
         -2   -1    0    0    0  501 -0.00000000000E+00 -0.00000000000E+00 -0.83583328775E+03  0.83583328775E+03  0.00000000000E+00 0.  1.
        -24    2    1    2    0    0 -0.14856313624E+03  0.39957921939E+03  0.13826635114E+03  0.45525084978E+03  0.80007464330E+02 0.  0.
        254    2    1    2    0    0  0.14856313624E+03 -0.39957921939E+03 -0.31255299565E+03  0.10421290812E+04  0.89811418474E+03 0.  0.
         23    2    4    4    0    0 -0.36619828380E+03 -0.15769060239E+03 -0.60801979152E+02  0.41345529621E+03  0.90999407437E+02 0.  0.
         23    2    4    4    0    0  0.51476142004E+03 -0.24188861700E+03 -0.25175101649E+03  0.62867378501E+03  0.91447969157E+02 0.  0.
          3    1    3    3  502    0 -0.67843389205E+02  0.22789556154E+03  0.11496073197E+03  0.26411187464E+03  0.00000000000E+00 0. -1.
         -4    1    3    3    0  502 -0.80719747035E+02  0.17168365784E+03  0.23305619173E+02  0.19113897514E+03  0.00000000000E+00 0.  1.
         11    1    5    5    0    0 -0.36585161028E+02 -0.29128996539E+02 -0.35576502077E+02  0.58759339231E+02  0.00000000000E+00 0. -1.
        -11    1    5    5    0    0 -0.32961312277E+03 -0.12856160585E+03 -0.25225477075E+02  0.35469595698E+03  0.00000000000E+00 0.  1.
          4    1    6    6  503    0  0.24846395209E+03 -0.11336126099E+03 -0.71253445496E+02  0.28224486616E+03  0.00000000000E+00 0. -1.
         -4    1    6    6    0  503  0.26629746795E+03 -0.12852735601E+03 -0.18049757100E+03  0.34642891885E+03  0.00000000000E+00 0.  1.
<mgrwt>
<rscale>  0 0.14872023E+04</rscale>
<asrwt>0</asrwt>
<pdfrwt beam="1">  1        1 0.10177641E+00 0.14872023E+04</pdfrwt>
<pdfrwt beam="2">  1       -2 0.12858974E+00 0.14872023E+04</pdfrwt>
<totfact> 0.11224515E+01</totfact>
</mgrwt>
</event>
<event>
12    4  0.4413110E-008  0.2273006E+04  0.7818608E-02  0.8488641E-01
          1   -1    0    0  501    0  0.00000000000E+00  0.00000000000E+00  0.15077757892E+04  0.15077757892E+04  0.00000000000E+00 0. -1.
         -2   -1    0    0    0  501 -0.00000000000E+00 -0.00000000000E+00 -0.85665209517E+03  0.85665209517E+03  0.00000000000E+00 0.  1.
        -24    2    1    2    0    0  0.32893782524E+03 -0.21071719126E+03 -0.63540066760E+03  0.75016050748E+03  0.80030937946E+02 0.  0.
        254    2    1    2    0    0 -0.32893782524E+03  0.21071719126E+03  0.12865243616E+04  0.16142673768E+04  0.89337136929E+03 0.  0.
         23    2    4    4    0    0 -0.23241976690E+03 -0.85069404766E+02 -0.23272767388E+02  0.26496974562E+03  0.91714735550E+02 0.  0.
         23    2    4    4    0    0 -0.96518058338E+02  0.29578659603E+03  0.13097971290E+04  0.13492976312E+04  0.90720078427E+02 0.  0.
          3    1    3    3  502    0  0.82606263260E+02 -0.96669834142E+02 -0.19325292063E+03  0.23133426658E+03  0.00000000000E+00 0. -1.
         -4    1    3    3    0  502  0.24633156198E+03 -0.11404735712E+03 -0.44214774697E+03  0.51882624090E+03  0.00000000000E+00 0.  1.
         11    1    5    5    0    0  0.67866507685E+01 -0.10164078724E+02  0.39297703278E+01  0.12837843268E+02  0.00000000000E+00 0. -1.
        -11    1    5    5    0    0 -0.23920641767E+03 -0.74905326042E+02 -0.27202537716E+02  0.25213190235E+03  0.00000000000E+00 0.  1.
          2    1    6    6  503    0 -0.25014862537E+02  0.97224954294E+01  0.71315986777E+02  0.76198689195E+02  0.00000000000E+00 0. -1.
         -2    1    6    6    0  503 -0.71503195801E+02  0.28606410060E+03  0.12384811422E+04  0.12730989420E+04  0.00000000000E+00 0.  1.
<mgrwt>
<rscale>  0 0.22730062E+04</rscale>
<asrwt>0</asrwt>
<pdfrwt beam="1">  1        1 0.23196550E+00 0.22730062E+04</pdfrwt>
<pdfrwt beam="2">  1       -2 0.13179263E+00 0.22730062E+04</pdfrwt>
<totfact> 0.21557402E+00</totfact>
</mgrwt>
</event>
<event>
12    4  0.4413110E-008  0.1259266E+04  0.7818608E-02  0.9062506E-01
         -2   -1    0    0    0  501 -0.00000000000E+00  0.00000000000E+00  0.34296266621E+03  0.34296266621E+03  0.00000000000E+00 0.  1.
          1   -1    0    0  501    0  0.00000000000E+00 -0.00000000000E+00 -0.11559208727E+04  0.11559208727E+04  0.00000000000E+00 0. -1.
        -24    2    1    2    0    0  0.12216767247E+03 -0.23678430800E+03 -0.40517382361E+02  0.28073393401E+03  0.78601111445E+02 0.  0.
        254    2    1    2    0    0 -0.12216767247E+03  0.23678430800E+03 -0.77244082410E+03  0.12181496049E+04  0.90345552431E+03 0.  0.
         23    2    4    4    0    0  0.18565370035E+03 -0.92109556397E+02 -0.72071013090E+03  0.75550858659E+03  0.91753282204E+02 0.  0.
         23    2    4    4    0    0 -0.30782137282E+03  0.32889386440E+03 -0.51730693203E+02  0.46264101828E+03  0.91844845126E+02 0.  0.
          3    1    3    3  502    0  0.34704276812E+02 -0.56215793224E+02  0.23518777366E+02  0.70126565050E+02  0.00000000000E+00 0. -1.
         -4    1    3    3    0  502  0.87463395661E+02 -0.18056851477E+03 -0.64036159728E+02  0.21060736896E+03  0.00000000000E+00 0.  1.
         11    1    5    5    0    0 -0.78545301177E+01 -0.73869291822E+01 -0.12714651280E+02  0.16671014465E+02  0.00000000000E+00 0.  1.
        -11    1    5    5    0    0  0.19350823047E+03 -0.84722627215E+02 -0.70799547962E+03  0.73883757213E+03  0.00000000000E+00 0. -1.
          4    1    6    6  503    0 -0.16883079041E+03  0.24452412865E+03 -0.33321027023E+02  0.29900865560E+03  0.00000000000E+00 0. -1.
         -4    1    6    6    0  503 -0.13899058241E+03  0.84369735750E+02 -0.18409666180E+02  0.16363236268E+03  0.00000000000E+00 0.  1.
<mgrwt>
<rscale>  0 0.12592660E+04</rscale>
<asrwt>0</asrwt>
<pdfrwt beam="1">  1        1 0.17783398E+00 0.12592660E+04</pdfrwt>
<pdfrwt beam="2">  1       -2 0.52763487E-01 0.12592660E+04</pdfrwt>
<totfact> 0.33718440E+01</totfact>
</mgrwt>
</event>
<event>
12    4  0.4413110E-008  0.1592526E+04  0.7818608E-02  0.8825153E-01
          1   -1    0    0  501    0  0.00000000000E+00  0.00000000000E+00  0.67776852404E+03  0.67776852404E+03  0.00000000000E+00 0. -1.
         -2   -1    0    0    0  501 -0.00000000000E+00 -0.00000000000E+00 -0.93547361741E+03  0.93547361741E+03  0.00000000000E+00 0.  1.
        -24    2    1    2    0    0  0.41630576847E+03 -0.30261282213E+03  0.71826590830E+02  0.52529722898E+03  0.76766572447E+02 0.  0.
        254    2    1    2    0    0 -0.41630576847E+03  0.30261282213E+03 -0.32953168420E+03  0.10879449125E+04  0.90008221218E+03 0.  0.
         23    2    4    4    0    0 -0.34235427571E+03 -0.22266794619E+03 -0.35603800540E+03  0.54896216197E+03  0.88368148265E+02 0.  0.
         23    2    4    4    0    0 -0.73951492762E+02  0.52528076832E+03  0.26506321205E+02  0.53898275050E+03  0.91712111651E+02 0.  0.
          3    1    3    3  502    0  0.33720058958E+03 -0.22770843983E+03  0.84669486006E+02  0.41560112252E+03  0.00000000000E+00 0. -1.
         -4    1    3    3    0  502  0.79105178894E+02 -0.74904382306E+02 -0.12842895177E+02  0.10969610646E+03  0.00000000000E+00 0.  1.
         11    1    5    5    0    0  0.20222757998E+01  0.47455360019E+01 -0.44056578756E+01  0.67837697980E+01  0.00000000000E+00 0. -1.
        -11    1    5    5    0    0 -0.34437655151E+03 -0.22741348219E+03 -0.35163234753E+03  0.54217839217E+03  0.00000000000E+00 0.  1.
          3    1    6    6  503    0  0.92850834382E+01  0.59040650115E+01  0.61041104454E+01  0.12582961593E+02  0.00000000000E+00 0. -1.
         -3    1    6    6    0  503 -0.83236576200E+02  0.51937670331E+03  0.20402210759E+02  0.52639978891E+03  0.00000000000E+00 0.  1.
<mgrwt>
<rscale>  0 0.15925258E+04</rscale>
<asrwt>0</asrwt>
<pdfrwt beam="1">  1        1 0.10427208E+00 0.15925258E+04</pdfrwt>
<pdfrwt beam="2">  1       -2 0.14391902E+00 0.15925258E+04</pdfrwt>
<totfact> 0.80323694E+00</totfact>
</mgrwt>
</event>
<event>
12    4  0.4413110E-008  0.1650116E+04  0.7818608E-02  0.8790338E-01
         -2   -1    0    0    0  501 -0.00000000000E+00  0.00000000000E+00  0.48623968616E+03  0.48623968616E+03  0.00000000000E+00 0.  1.
          1   -1    0    0  501    0  0.00000000000E+00 -0.00000000000E+00 -0.13999701293E+04  0.13999701293E+04  0.00000000000E+00 0. -1.
        -24    2    1    2    0    0 -0.13815334652E+03 -0.20034164997E+03 -0.91951107215E+03  0.95449544477E+03  0.79610416447E+02 0.  0.
        254    2    1    2    0    0  0.13815334652E+03  0.20034164997E+03  0.57806290253E+01  0.93171437067E+03  0.89935261659E+03 0.  0.
         23    2    4    4    0    0 -0.28137070339E+03 -0.17856728586E+03  0.76799535598E+02  0.35426611265E+03  0.92469246770E+02 0.  0.
         23    2    4    4    0    0  0.41952404990E+03  0.37890893583E+03 -0.71018906573E+02  0.57744825802E+03  0.93970184108E+02 0.  0.
          1    1    3    3  502    0 -0.17780105693E+02 -0.86033331831E+02 -0.38004506426E+03  0.39006681121E+03  0.00000000000E+00 0. -1.
         -2    1    3    3    0  502 -0.12037324082E+03 -0.11430831814E+03 -0.53946600790E+03  0.56442863356E+03  0.00000000000E+00 0.  1.
         11    1    5    5    0    0 -0.91791708375E+02 -0.64642371811E+02  0.71348408881E+02  0.13302236432E+03  0.00000000000E+00 0.  1.
        -11    1    5    5    0    0 -0.18957899501E+03 -0.11392491405E+03  0.54511267171E+01  0.22124374833E+03  0.00000000000E+00 0. -1.
          1    1    6    6  503    0  0.20936931513E+03  0.24555567403E+03 -0.19547933362E+02  0.32328813907E+03  0.00000000000E+00 0. -1.
         -1    1    6    6    0  503  0.21015473478E+03  0.13335326180E+03 -0.51470973212E+02  0.25416011895E+03  0.00000000000E+00 0.  1.
<mgrwt>
<rscale>  0 0.16501164E+04</rscale>
<asrwt>0</asrwt>
<pdfrwt beam="1">  1        1 0.21538002E+00 0.16501164E+04</pdfrwt>
<pdfrwt beam="2">  1       -2 0.74806107E-01 0.16501164E+04</pdfrwt>
<totfact> 0.10345210E+01</totfact>
</mgrwt>
</event>
<event>
12    4  0.4413110E-008  0.1322451E+04  0.7818608E-02  0.9011948E-01
         -2   -1    0    0    0  501 -0.00000000000E+00  0.00000000000E+00  0.10108015584E+03  0.10108015584E+03  0.00000000000E+00 0.  1.
          1   -1    0    0  501    0  0.00000000000E+00 -0.00000000000E+00 -0.43254694694E+04  0.43254694694E+04  0.00000000000E+00 0. -1.
        -24    2    1    2    0    0 -0.11789301426E+03 -0.18358037464E+03 -0.22758080215E+03  0.32541488164E+03  0.80630682247E+02 0.  0.
        254    2    1    2    0    0  0.11789301426E+03  0.18358037464E+03 -0.39968085114E+04  0.41011347436E+04  0.89287591054E+03 0.  0.
         23    2    4    4    0    0  0.43666049853E+03  0.13130010629E+03 -0.12494584329E+04  0.13333435570E+04  0.93523026616E+02 0.  0.
         23    2    4    4    0    0 -0.31876748427E+03  0.52280268348E+02 -0.27473500785E+04  0.27677911866E+04  0.91595105924E+02 0.  0.
          1    1    3    3  502    0 -0.53189394204E+02 -0.27465709837E+02 -0.35585734516E+02  0.69640658911E+02  0.00000000000E+00 0. -1.
         -2    1    3    3    0  502 -0.64703620053E+02 -0.15611466480E+03 -0.19199506764E+03  0.25577422273E+03  0.00000000000E+00 0.  1.
         11    1    5    5    0    0  0.31691958565E+03  0.83196803850E+02 -0.10027468193E+04  0.10549222320E+04  0.00000000000E+00 0. -1.
        -11    1    5    5    0    0  0.11974091288E+03  0.48103302440E+02 -0.24671161364E+03  0.27842132502E+03  0.00000000000E+00 0.  1.
          2    1    6    6  503    0 -0.31950626657E+03  0.42240375614E+02 -0.25657254568E+04  0.25858877824E+04  0.00000000000E+00 0. -1.
         -2    1    6    6    0  503  0.73878229559E+00  0.10039892734E+02 -0.18162462169E+03  0.18190340418E+03  0.00000000000E+00 0.  1.
<mgrwt>
<rscale>  0 0.13224509E+04</rscale>
<asrwt>0</asrwt>
<pdfrwt beam="1">  1        1 0.66545681E+00 0.13224509E+04</pdfrwt>
<pdfrwt beam="2">  1       -2 0.15550794E-01 0.13224509E+04</pdfrwt>
<totfact> 0.14171802E+00</totfact>
</mgrwt>
</event>
<event>
12    4  0.4413110E-008  0.1834789E+04  0.7818608E-02  0.8688015E-01
          1   -1    0    0  501    0  0.00000000000E+00  0.00000000000E+00  0.21372114558E+04  0.21372114558E+04  0.00000000000E+00 0. -1.
         -2   -1    0    0    0  501 -0.00000000000E+00 -0.00000000000E+00 -0.39379004745E+03  0.39379004745E+03  0.00000000000E+00 0.  1.
        -24    2    1    2    0    0 -0.64410324448E+03 -0.14640007944E+03  0.40448984020E+03  0.77825584048E+03  0.75948335100E+02 0.  0.
        254    2    1    2    0    0  0.64410324448E+03  0.14640007944E+03  0.13389315681E+04  0.17527456627E+04  0.91819259490E+03 0.  0.
         23    2    4    4    0    0  0.53482313259E+03 -0.32809781271E+03  0.72679263778E+03  0.96528245654E+03  0.99291110977E+02 0.  0.
         23    2    4    4    0    0  0.10928011189E+03  0.47449789215E+03  0.61213893033E+03  0.78746320619E+03  0.91070514254E+02 0.  0.
          3    1    3    3  502    0 -0.20197685313E+03 -0.55548350137E+02  0.89203158598E+02  0.22767843971E+03  0.00000000000E+00 0. -1.
         -4    1    3    3    0  502 -0.44212639135E+03 -0.90851729301E+02  0.31528668160E+03  0.55057740077E+03  0.00000000000E+00 0.  1.
         11    1    5    5    0    0  0.23202568026E+03 -0.19649821744E+03  0.32090775999E+03  0.44207381305E+03  0.00000000000E+00 0. -1.
        -11    1    5    5    0    0  0.30279745233E+03 -0.13159959527E+03  0.40588487778E+03  0.52320864349E+03  0.00000000000E+00 0.  1.
          3    1    6    6  503    0  0.11631360784E+03  0.31739036854E+03  0.42373040635E+03  0.54204516295E+03  0.00000000000E+00 0. -1.
         -3    1    6    6    0  503 -0.70334959445E+01  0.15710752360E+03  0.18840852397E+03  0.24541804323E+03  0.00000000000E+00 0.  1.
<mgrwt>
<rscale>  0 0.18347889E+04</rscale>
<asrwt>0</asrwt>
<pdfrwt beam="1">  1        1 0.32880176E+00 0.18347889E+04</pdfrwt>
<pdfrwt beam="2">  1       -2 0.60583086E-01 0.18347889E+04</pdfrwt>
<totfact> 0.50411207E+00</totfact>
</mgrwt>
</event>
<event>
12    4  0.4413110E-008  0.1198983E+04  0.7818608E-02  0.9113747E-01
         -2   -1    0    0    0  501 -0.00000000000E+00  0.00000000000E+00  0.41101297097E+03  0.41101297097E+03  0.00000000000E+00 0.  1.
          1   -1    0    0  501    0  0.00000000000E+00 -0.00000000000E+00 -0.87440131688E+03  0.87440131688E+03  0.00000000000E+00 0. -1.
        -24    2    1    2    0    0 -0.10684218616E+03  0.52552024551E+02  0.12863423684E+03  0.19308596768E+03  0.80984294764E+02 0.  0.
        254    2    1    2    0    0  0.10684218616E+03 -0.52552024551E+02 -0.59202258275E+03  0.10923283202E+04  0.91022714337E+03 0.  0.
         23    2    4    4    0    0 -0.11926294714E+03  0.37864704859E+03 -0.16882834630E+03  0.44085663298E+03  0.90853301340E+02 0.  0.
         23    2    4    4    0    0  0.22610513330E+03 -0.43119907314E+03 -0.42319423645E+03  0.65147168719E+03  0.90916585185E+02 0.  0.
          1    1    3    3  502    0  0.14016350342E+01  0.82915492681E+01 -0.91081695854E+01  0.12396496410E+02  0.00000000000E+00 0. -1.
         -2    1    3    3    0  502 -0.10824382120E+03  0.44260475283E+02  0.13774240642E+03  0.18068947127E+03  0.00000000000E+00 0.  1.
         11    1    5    5    0    0 -0.51044984808E+02  0.17563727653E+03 -0.12692760890E+03  0.22263122261E+03  0.00000000000E+00 0.  1.
        -11    1    5    5    0    0 -0.68217962334E+02  0.20300977206E+03 -0.41900737400E+02  0.21822541037E+03  0.00000000000E+00 0. -1.
          4    1    6    6  503    0  0.23005422130E+03 -0.42459413002E+03 -0.42529866008E+03  0.64349364429E+03  0.00000000000E+00 0. -1.
         -4    1    6    6    0  503 -0.39490879943E+01 -0.66049431247E+01  0.21044236275E+01  0.79780428973E+01  0.00000000000E+00 0.  1.
<mgrwt>
<rscale>  0 0.11989834E+04</rscale>
<asrwt>0</asrwt>
<pdfrwt beam="1">  1        1 0.13452328E+00 0.11989834E+04</pdfrwt>
<pdfrwt beam="2">  1       -2 0.63232766E-01 0.11989834E+04</pdfrwt>
<totfact> 0.38391176E+01</totfact>
</mgrwt>
</event>
<event>
12    4  0.4413110E-008  0.1289648E+04  0.7818608E-02  0.9037815E-01
         -2   -1    0    0    0  501 -0.00000000000E+00  0.00000000000E+00  0.49427982789E+03  0.49427982789E+03  0.00000000000E+00 0.  1.
          1   -1    0    0  501    0  0.00000000000E+00 -0.00000000000E+00 -0.84122022781E+03  0.84122022781E+03  0.00000000000E+00 0. -1.
        -24    2    1    2    0    0 -0.10866829557E+03  0.29140020747E+03 -0.18321716837E+03  0.37045112222E+03  0.83322408717E+02 0.  0.
        254    2    1    2    0    0  0.10866829557E+03 -0.29140020747E+03 -0.16372323155E+03  0.96504893348E+03  0.89877208907E+03 0.  0.
         23    2    4    4    0    0  0.45743891558E+03 -0.10424306668E+03 -0.26583958839E+03  0.54732593054E+03  0.93691029725E+02 0.  0.
         23    2    4    4    0    0 -0.34877062001E+03 -0.18715714078E+03  0.10211635684E+03  0.41772300294E+03  0.86000093745E+02 0.  0.
          3    1    3    3  502    0 -0.10129578529E+03  0.18884967992E+03 -0.92788850472E+02  0.23352689030E+03  0.00000000000E+00 0. -1.
         -4    1    3    3    0  502 -0.73725102786E+01  0.10255052755E+03 -0.90428317893E+02  0.13692423192E+03  0.00000000000E+00 0.  1.
         11    1    5    5    0    0  0.17751918263E+03 -0.33943389015E+02 -0.51814931338E+02  0.18801595934E+03  0.00000000000E+00 0. -1.
        -11    1    5    5    0    0  0.27991973295E+03 -0.70299677669E+02 -0.21402465705E+03  0.35930997120E+03  0.00000000000E+00 0.  1.
          1    1    6    6  503    0 -0.20070753330E+03 -0.84312867512E+02  0.16991998175E+02  0.21835956941E+03  0.00000000000E+00 0. -1.
         -1    1    6    6    0  503 -0.14806308671E+03 -0.10284427327E+03  0.85124358670E+02  0.19936343353E+03  0.00000000000E+00 0.  1.
<mgrwt>
<rscale>  0 0.12896483E+04</rscale>
<asrwt>0</asrwt>
<pdfrwt beam="1">  1        1 0.12941850E+00 0.12896483E+04</pdfrwt>
<pdfrwt beam="2">  1       -2 0.76043051E-01 0.12896483E+04</pdfrwt>
<totfact> 0.27187626E+01</totfact>
</mgrwt>
</event>
<event>
12    4  0.4413110E-008  0.2524123E+04  0.7818608E-02  0.8394442E-01
          1   -1    0    0  501    0  0.00000000000E+00  0.00000000000E+00  0.21616313082E+04  0.21616313082E+04  0.00000000000E+00 0. -1.
         -2   -1    0    0    0  501 -0.00000000000E+00 -0.00000000000E+00 -0.73685056924E+03  0.73685056924E+03  0.00000000000E+00 0.  1.
        -24    2    1    2    0    0 -0.18909552612E+03 -0.90142826356E+03  0.13016080507E+04  0.15963285527E+04  0.75837313477E+02 0.  0.
        254    2    1    2    0    0  0.18909552612E+03  0.90142826356E+03  0.12317268829E+03  0.13021533248E+04  0.91219610709E+03 0.  0.
         23    2    4    4    0    0  0.33049652940E+03  0.44025922937E+03 -0.31760742057E+03  0.64208594490E+03  0.91344085983E+02 0.  0.
         23    2    4    4    0    0 -0.14140100329E+03  0.46116903418E+03  0.44078010885E+03  0.66006737989E+03  0.93438320937E+02 0.  0.
          3    1    3    3  502    0 -0.53916952884E+02 -0.17208277860E+03  0.21394573988E+03  0.27980761268E+03  0.00000000000E+00 0. -1.
         -4    1    3    3    0  502 -0.13517857323E+03 -0.72934548496E+03  0.10876623108E+04  0.13165209400E+04  0.00000000000E+00 0.  1.
         11    1    5    5    0    0  0.17706156123E+03  0.25304820647E+03 -0.12676226390E+03  0.33384556731E+03  0.00000000000E+00 0. -1.
        -11    1    5    5    0    0  0.15343496818E+03  0.18721102290E+03 -0.19084515666E+03  0.30824037759E+03  0.00000000000E+00 0.  1.
          1    1    6    6  503    0 -0.13656685177E+03  0.41214755403E+03  0.42687557209E+03  0.60888329369E+03  0.00000000000E+00 0. -1.
         -1    1    6    6    0  503 -0.48341515234E+01  0.49021480155E+02  0.13904536762E+02  0.51184086199E+02  0.00000000000E+00 0.  1.
<mgrwt>
<rscale>  0 0.25241230E+04</rscale>
<asrwt>0</asrwt>
<pdfrwt beam="1">  1        1 0.33255866E+00 0.25241230E+04</pdfrwt>
<pdfrwt beam="2">  1       -2 0.11336163E+00 0.25241230E+04</pdfrwt>
<totfact> 0.11008721E+00</totfact>
</mgrwt>
</event>
<event>
12    4  0.4413110E-008  0.2268622E+04  0.7818608E-02  0.8490397E-01
          1   -1    0    0  501    0  0.00000000000E+00  0.00000000000E+00  0.44251690617E+03  0.44251690617E+03  0.00000000000E+00 0. -1.
         -2   -1    0    0    0  501 -0.00000000000E+00 -0.00000000000E+00 -0.29075979981E+04  0.29075979981E+04  0.00000000000E+00 0.  1.
        -24    2    1    2    0    0  0.19660763650E+03 -0.42279040369E+03  0.18761385356E+03  0.50898783244E+03  0.80395070398E+02 0.  0.
        254    2    1    2    0    0 -0.19660763650E+03  0.42279040369E+03 -0.26526949455E+04  0.28411270718E+04  0.90432642130E+03 0.  0.
         23    2    4    4    0    0 -0.31023504573E+03  0.52029172336E+03 -0.95598358630E+03  0.11353863594E+04  0.90820190074E+02 0.  0.
         23    2    4    4    0    0  0.11362740923E+03 -0.97501319672E+02 -0.16967113592E+04  0.17057407124E+04  0.91127635945E+02 0.  0.
          3    1    3    3  502    0  0.14905935092E+03 -0.37020771175E+03  0.17961269378E+03  0.43764501563E+03  0.00000000000E+00 0. -1.
         -4    1    3    3    0  502  0.47548285578E+02 -0.52582691941E+02  0.80011597742E+01  0.71342816814E+02  0.00000000000E+00 0.  1.
         11    1    5    5    0    0 -0.20438566234E+02  0.83498312414E+02 -0.10238935345E+03  0.13369099770E+03  0.00000000000E+00 0. -1.
        -11    1    5    5    0    0 -0.28979647950E+03  0.43679341095E+03 -0.85359423285E+03  0.10016953617E+04  0.00000000000E+00 0.  1.
          1    1    6    6  503    0 -0.65657524141E+01 -0.31315833653E+02 -0.53468014805E+03  0.53563667841E+03  0.00000000000E+00 0. -1.
         -1    1    6    6    0  503  0.12019316165E+03 -0.66185486019E+02 -0.11620312111E+04  0.11701040340E+04  0.00000000000E+00 0.  1.
<mgrwt>
<rscale>  0 0.22686218E+04</rscale>
<asrwt>0</asrwt>
<pdfrwt beam="1">  1        1 0.68079524E-01 0.22686218E+04</pdfrwt>
<pdfrwt beam="2">  1       -2 0.44732277E+00 0.22686218E+04</pdfrwt>
<totfact> 0.15029655E-01</totfact>
</mgrwt>
</event>
<event>
12    4  0.4413110E-008  0.1359671E+04  0.7818608E-02  0.8983539E-01
         -2   -1    0    0    0  501 -0.00000000000E+00  0.00000000000E+00  0.28668775938E+03  0.28668775938E+03  0.00000000000E+00 0.  1.
          1   -1    0    0  501    0  0.00000000000E+00 -0.00000000000E+00 -0.16121250143E+04  0.16121250143E+04  0.00000000000E+00 0. -1.
        -24    2    1    2    0    0 -0.15245639923E+03  0.67649592021E+02  0.98258717459E+02  0.20842492072E+03  0.77244747737E+02 0.  0.
        254    2    1    2    0    0  0.15245639923E+03 -0.67649592021E+02 -0.14236959723E+04  0.16903878529E+04  0.89592491351E+03 0.  0.
         23    2    4    4    0    0 -0.30068161683E+03  0.20199557437E+03 -0.52380735414E+03  0.64355837405E+03  0.92636870576E+02 0.  0.
         23    2    4    4    0    0  0.45313801607E+03 -0.26964516639E+03 -0.89988861820E+03  0.10468294789E+04  0.89497794902E+02 0.  0.
          1    1    3    3  502    0 -0.30901400504E+01  0.15427397240E+00 -0.11008159009E+02  0.11434698543E+02  0.00000000000E+00 0. -1.
         -2    1    3    3    0  502 -0.14936625918E+03  0.67495318049E+02  0.10926687647E+03  0.19699022218E+03  0.00000000000E+00 0.  1.
         11    1    5    5    0    0 -0.28128755655E+03  0.19949627425E+03 -0.51949271172E+03  0.62353358405E+03  0.00000000000E+00 0. -1.
        -11    1    5    5    0    0 -0.19394060279E+02  0.24993001174E+01 -0.43146424232E+01  0.20024789997E+02  0.00000000000E+00 0.  1.
          4    1    6    6  503    0  0.44330939916E+03 -0.27602490101E+03 -0.88775112177E+03  0.10299587485E+04  0.00000000000E+00 0. -1.
         -4    1    6    6    0  503  0.98286169100E+01  0.63797346233E+01 -0.12137496428E+02  0.16870730386E+02  0.00000000000E+00 0.  1.
<mgrwt>
<rscale>  0 0.13596713E+04</rscale>
<asrwt>0</asrwt>
<pdfrwt beam="1">  1        1 0.24801923E+00 0.13596713E+04</pdfrwt>
<pdfrwt beam="2">  1       -2 0.44105809E-01 0.13596713E+04</pdfrwt>
<totfact> 0.22907529E+01</totfact>
</mgrwt>
</event>
<event>
12    4  0.4413110E-008  0.1495145E+04  0.7818608E-02  0.8887688E-01
         -2   -1    0    0    0  501 -0.00000000000E+00  0.00000000000E+00  0.13106164686E+04  0.13106164686E+04  0.00000000000E+00 0.  1.
          1   -1    0    0  501    0  0.00000000000E+00 -0.00000000000E+00 -0.42641357487E+03  0.42641357487E+03  0.00000000000E+00 0. -1.
        -24    2    1    2    0    0 -0.22661919510E+03 -0.18007593446E+03  0.70577320914E+03  0.76678378103E+03  0.77832784592E+02 0.  0.
        254    2    1    2    0    0  0.22661919510E+03  0.18007593446E+03  0.17842968454E+03  0.97024626240E+03  0.90871175607E+03 0.  0.
         23    2    4    4    0    0  0.48213233433E+03 -0.16625750356E+02  0.34138633323E+03  0.59803735767E+03  0.91520758711E+02 0.  0.
         23    2    4    4    0    0 -0.25551313923E+03  0.19670168482E+03 -0.16295664868E+03  0.37220890473E+03  0.89476713605E+02 0.  0.
          3    1    3    3  502    0 -0.22083346467E+02 -0.56561059336E+02  0.13601626490E+03  0.14895385843E+03  0.00000000000E+00 0. -1.
         -4    1    3    3    0  502 -0.20453584863E+03 -0.12351487513E+03  0.56975694424E+03  0.61782992260E+03  0.00000000000E+00 0.  1.
         11    1    5    5    0    0  0.12404081965E+03  0.32628231762E+02  0.70703925407E+02  0.14645740513E+03  0.00000000000E+00 0.  1.
        -11    1    5    5    0    0  0.35809151468E+03 -0.49253982118E+02  0.27068240782E+03  0.45157995254E+03  0.00000000000E+00 0. -1.
          4    1    6    6  503    0 -0.21574975019E+03  0.14395572378E+03 -0.16266099986E+03  0.30615323939E+03  0.00000000000E+00 0. -1.
         -4    1    6    6    0  503 -0.39763389048E+02  0.52745961043E+02 -0.29564881896E+00  0.66055665337E+02  0.00000000000E+00 0.  1.
<mgrwt>
<rscale>  0 0.14951450E+04</rscale>
<asrwt>0</asrwt>
<pdfrwt beam="1">  1        1 0.65602089E-01 0.14951450E+04</pdfrwt>
<pdfrwt beam="2">  1       -2 0.20163330E+00 0.14951450E+04</pdfrwt>
<totfact> 0.60394901E+00</totfact>
</mgrwt>
</event>
<event>
12    4  0.4413110E-008  0.1498963E+04  0.7818608E-02  0.8885143E-01
          1   -1    0    0  501    0  0.00000000000E+00  0.00000000000E+00  0.46735601749E+03  0.46735601749E+03  0.00000000000E+00 0. -1.
         -2   -1    0    0    0  501 -0.00000000000E+00 -0.00000000000E+00 -0.12019162033E+04  0.12019162033E+04  0.00000000000E+00 0.  1.
        -24    2    1    2    0    0 -0.34536934278E+03 -0.29630011343E+03 -0.84260724072E+02  0.47018538002E+03  0.83070342561E+02 0.  0.
        254    2    1    2    0    0  0.34536934278E+03  0.29630011343E+03 -0.65029946175E+03  0.11990868408E+04  0.89880260438E+03 0.  0.
         23    2    4    4    0    0  0.24665318182E+03  0.27093528063E+03  0.13652098704E+03  0.40121934434E+03  0.89973684883E+02 0.  0.
         23    2    4    4    0    0  0.98716160950E+02  0.25364832801E+02 -0.78682044879E+03  0.79786749645E+03  0.84367458612E+02 0.  0.
          3    1    3    3  502    0 -0.28511139377E+03 -0.24736444398E+03 -0.10107311111E+03  0.39076009109E+03  0.00000000000E+00 0. -1.
         -4    1    3    3    0  502 -0.60257949007E+02 -0.48935669458E+02  0.16812387033E+02  0.79425288929E+02  0.00000000000E+00 0.  1.
         11    1    5    5    0    0  0.16278693847E+02  0.62135987333E+02  0.77809152698E+01  0.64702545836E+02  0.00000000000E+00 0. -1.
        -11    1    5    5    0    0  0.23037448798E+03  0.20879929330E+03  0.12874007177E+03  0.33651679850E+03  0.00000000000E+00 0.  1.
          2    1    6    6  503    0  0.44228363233E+02 -0.24618019668E+02 -0.19568786915E+03  0.20212851639E+03  0.00000000000E+00 0. -1.
         -2    1    6    6    0  503  0.54487797717E+02  0.49982852470E+02 -0.59113257965E+03  0.59573898006E+03  0.00000000000E+00 0.  1.
<mgrwt>
<rscale>  0 0.14989633E+04</rscale>
<asrwt>0</asrwt>
<pdfrwt beam="1">  1        1 0.71900926E-01 0.14989633E+04</pdfrwt>
<pdfrwt beam="2">  1       -2 0.18491018E+00 0.14989633E+04</pdfrwt>
<totfact> 0.68957631E+00</totfact>
</mgrwt>
</event>
<event>
12    4  0.4413110E-008  0.1708972E+04  0.7818608E-02  0.8756264E-01
          1   -1    0    0  501    0  0.00000000000E+00  0.00000000000E+00  0.62879720467E+03  0.62879720467E+03  0.00000000000E+00 0. -1.
         -2   -1    0    0    0  501 -0.00000000000E+00 -0.00000000000E+00 -0.11611795008E+04  0.11611795008E+04  0.00000000000E+00 0.  1.
        -24    2    1    2    0    0  0.37981626508E+03  0.30094355072E+03 -0.58514241573E+03  0.76402569690E+03  0.80723001124E+02 0.  0.
        254    2    1    2    0    0 -0.37981626508E+03 -0.30094355072E+03  0.52760119635E+02  0.10259510085E+04  0.90275380129E+03 0.  0.
         23    2    4    4    0    0  0.11070056327E+03 -0.19838705523E+03 -0.31408055533E+03  0.39846364408E+03  0.92274817943E+02 0.  0.
         23    2    4    4    0    0 -0.49051682835E+03 -0.10255649548E+03  0.36684067496E+03  0.62748736445E+03  0.89686777590E+02 0.  0.
          3    1    3    3  502    0  0.35356751923E+02  0.48145361431E+02 -0.10891372061E+03  0.12421865508E+03  0.00000000000E+00 0. -1.
         -4    1    3    3    0  502  0.34445951316E+03  0.25279818929E+03 -0.47622869512E+03  0.63980704182E+03  0.00000000000E+00 0.  1.
         11    1    5    5    0    0  0.37469753458E+02 -0.34722847723E+02 -0.13803813157E+03  0.14718758217E+03  0.00000000000E+00 0.  1.
        -11    1    5    5    0    0  0.73230809814E+02 -0.16366420751E+03 -0.17604242375E+03  0.25127606191E+03  0.00000000000E+00 0. -1.
          1    1    6    6  503    0 -0.24632606248E+03 -0.91068429545E+01  0.19892522728E+03  0.31675023235E+03  0.00000000000E+00 0. -1.
         -1    1    6    6    0  503 -0.24419076587E+03 -0.93449652530E+02  0.16791544768E+03  0.31073713210E+03  0.00000000000E+00 0.  1.
<mgrwt>
<rscale>  0 0.17089721E+04</rscale>
<asrwt>0</asrwt>
<pdfrwt beam="1">  1        1 0.96738033E-01 0.17089721E+04</pdfrwt>
<pdfrwt beam="2">  1       -2 0.17864300E+00 0.17089721E+04</pdfrwt>
<totfact> 0.49295253E+00</totfact>
</mgrwt>
</event>
<event>
12    4  0.4413110E-008  0.3558446E+04  0.7818608E-02  0.8100077E-01
          1   -1    0    0  501    0  0.00000000000E+00  0.00000000000E+00  0.23030931749E+04  0.23030931749E+04  0.00000000000E+00 0. -1.
         -2   -1    0    0    0  501 -0.00000000000E+00 -0.00000000000E+00 -0.13745145540E+04  0.13745145540E+04  0.00000000000E+00 0.  1.
        -24    2    1    2    0    0  0.45643912334E+03  0.81732778624E+02 -0.12177980530E+04  0.13051723617E+04  0.73660541994E+02 0.  0.
        254    2    1    2    0    0 -0.45643912334E+03 -0.81732778624E+02  0.21463766738E+04  0.23724353672E+04  0.89805335311E+03 0.  0.
         23    2    4    4    0    0 -0.17541567868E+03  0.82927405869E+02  0.19822198148E+04  0.19938393829E+04  0.92479597239E+02 0.  0.
         23    2    4    4    0    0 -0.28102344466E+03 -0.16466018449E+03  0.16415685906E+03  0.37859598423E+03  0.10149035469E+03 0.  0.
          1    1    3    3  502    0  0.13236111715E+03  0.58039777042E+02 -0.36675931293E+03  0.39420866895E+03  0.00000000000E+00 0. -1.
         -2    1    3    3    0  502  0.32407800618E+03  0.23693001582E+02 -0.85103874007E+03  0.91096369275E+03  0.00000000000E+00 0.  1.
         11    1    5    5    0    0 -0.15514701302E+03  0.36420883792E+02  0.12990958036E+04  0.13088342077E+04  0.00000000000E+00 0.  1.
        -11    1    5    5    0    0 -0.20268665655E+02  0.46506522077E+02  0.68312401119E+03  0.68500517521E+03  0.00000000000E+00 0. -1.
          1    1    6    6  503    0 -0.24651655823E+03 -0.16794676112E+03  0.17016928150E+03  0.34341536427E+03  0.00000000000E+00 0. -1.
         -1    1    6    6    0  503 -0.34506886430E+02  0.32865766235E+01 -0.60124224477E+01  0.35180619959E+02  0.00000000000E+00 0.  1.
<mgrwt>
<rscale>  0 0.35584463E+04</rscale>
<asrwt>0</asrwt>
<pdfrwt beam="1">  1        1 0.35432203E+00 0.35584463E+04</pdfrwt>
<pdfrwt beam="2">  1       -2 0.21146378E+00 0.35584463E+04</pdfrwt>
<totfact> 0.14821175E-01</totfact>
</mgrwt>
</event>
<event>
12    4  0.4413110E-008  0.2103278E+04  0.7818608E-02  0.8559801E-01
         -4   -1    0    0    0  501 -0.00000000000E+00  0.00000000000E+00  0.17351659894E+04  0.17351659894E+04  0.00000000000E+00 0.  1.
          3   -1    0    0  501    0  0.00000000000E+00 -0.00000000000E+00 -0.63737083078E+03  0.63737083078E+03  0.00000000000E+00 0. -1.
        -24    2    1    2    0    0  0.57909290733E+03  0.10013520858E+01 -0.24970007120E+03  0.63552104661E+03  0.78659246759E+02 0.  0.
        254    2    1    2    0    0 -0.57909290733E+03 -0.10013520858E+01  0.13474952298E+04  0.17370157736E+04  0.93066148799E+03 0.  0.
         23    2    4    4    0    0 -0.30811641904E+02  0.37129959021E+03  0.27250550778E+03  0.47109171230E+03  0.94103170269E+02 0.  0.
         23    2    4    4    0    0 -0.54828126542E+03 -0.37230094230E+03  0.10749897221E+04  0.12659240613E+04  0.87980047554E+02 0.  0.
          3    1    3    3  502    0  0.42249660130E+03 -0.51284933105E+00 -0.21919957876E+03  0.47597489057E+03  0.00000000000E+00 0. -1.
         -4    1    3    3    0  502  0.15659630602E+03  0.15142014169E+01 -0.30500492440E+02  0.15954615603E+03  0.00000000000E+00 0.  1.
         11    1    5    5    0    0 -0.16828246382E+02  0.33792440281E+03  0.20810196787E+03  0.39721848008E+03  0.00000000000E+00 0.  1.
        -11    1    5    5    0    0 -0.13983395523E+02  0.33375187409E+02  0.64403539909E+02  0.73873232214E+02  0.00000000000E+00 0. -1.
          4    1    6    6  503    0 -0.20812784530E+03 -0.19000012529E+03  0.48477164630E+03  0.56073237525E+03  0.00000000000E+00 0.  1.
         -4    1    6    6    0  503 -0.34015342012E+03 -0.18230081701E+03  0.59021807576E+03  0.70519168604E+03  0.00000000000E+00 0. -1.
<mgrwt>
<rscale>  0 0.21032776E+04</rscale>
<asrwt>0</asrwt>
<pdfrwt beam="1">  1        3 0.98057052E-01 0.21032776E+04</pdfrwt>
<pdfrwt beam="2">  1       -4 0.26694861E+00 0.21032776E+04</pdfrwt>
<totfact> 0.95476326E-02</totfact>
</mgrwt>
</event>
<event>
12    4  0.4413110E-008  0.2222174E+04  0.7818608E-02  0.8509255E-01
         -4   -1    0    0    0  501 -0.00000000000E+00  0.00000000000E+00  0.11270649021E+04  0.11270649021E+04  0.00000000000E+00 0.  1.
          1   -1    0    0  501    0  0.00000000000E+00 -0.00000000000E+00 -0.10953354894E+04  0.10953354894E+04  0.00000000000E+00 0. -1.
        -24    2    1    2    0    0 -0.82598486692E+03  0.19504845799E+03  0.39209716804E+03  0.93824950424E+03  0.79227783445E+02 0.  0.
        254    2    1    2    0    0  0.82598486692E+03 -0.19504845799E+03 -0.36036775532E+03  0.12841508873E+04  0.89380293178E+03 0.  0.
         23    2    4    4    0    0  0.44947714718E+03 -0.10741128654E+03 -0.64226023519E+03  0.79713220286E+03  0.96719433547E+02 0.  0.
         23    2    4    4    0    0  0.37650771974E+03 -0.87637171452E+02  0.28189247986E+03  0.48701868441E+03  0.91024677510E+02 0.  0.
          3    1    3    3  502    0 -0.17488945181E+03  0.49584757445E+02  0.50145742929E+02  0.18857243717E+03  0.00000000000E+00 0. -1.
         -2    1    3    3    0  502 -0.65109541511E+03  0.14546370055E+03  0.34195142511E+03  0.74967706707E+03  0.00000000000E+00 0.  1.
         11    1    5    5    0    0  0.80126816043E+01 -0.14617008784E+01  0.25440339566E+01  0.85329798266E+01  0.00000000000E+00 0.  1.
        -11    1    5    5    0    0  0.44146446557E+03 -0.10594958566E+03 -0.64480426915E+03  0.78859922304E+03  0.00000000000E+00 0. -1.
          1    1    6    6  503    0  0.30091325066E+03 -0.80850844011E+02  0.26552245333E+03  0.40937490962E+03  0.00000000000E+00 0. -1.
         -1    1    6    6    0  503  0.75594469079E+02 -0.67863274413E+01  0.16370026535E+02  0.77643774794E+02  0.00000000000E+00 0.  1.
<mgrwt>
<rscale>  0 0.22221739E+04</rscale>
<asrwt>0</asrwt>
<pdfrwt beam="1">  1        1 0.16851315E+00 0.22221739E+04</pdfrwt>
<pdfrwt beam="2">  1       -4 0.17339460E+00 0.22221739E+04</pdfrwt>
<totfact> 0.11274090E+00</totfact>
</mgrwt>
</event>
<event>
12    4  0.4413110E-008  0.1419494E+04  0.7818608E-02  0.8939827E-01
         -2   -1    0    0    0  501 -0.00000000000E+00  0.00000000000E+00  0.35861797917E+03  0.35861797917E+03  0.00000000000E+00 0.  1.
          1   -1    0    0  501    0  0.00000000000E+00 -0.00000000000E+00 -0.14046725179E+04  0.14046725179E+04  0.00000000000E+00 0. -1.
        -24    2    1    2    0    0  0.40871729182E+03  0.53878775063E+02 -0.17515326587E+03  0.45484918001E+03  0.79097174244E+02 0.  0.
        254    2    1    2    0    0 -0.40871729182E+03 -0.53878775063E+02 -0.87090127284E+03  0.13084413170E+04  0.88521009148E+03 0.  0.
         23    2    4    4    0    0  0.14922269203E+03 -0.16443196645E+03 -0.65015601896E+03  0.69158800510E+03  0.79283266877E+02 0.  0.
         23    2    4    4    0    0 -0.55793998385E+03  0.11055319139E+03 -0.22074525388E+03  0.61685331194E+03  0.90887334807E+02 0.  0.
          3    1    3    3  502    0  0.39751761991E+03  0.47172124341E+02 -0.18241641872E+03  0.43991046507E+03  0.00000000000E+00 0. -1.
         -4    1    3    3    0  502  0.11199671910E+02  0.67066507221E+01  0.72631528517E+01  0.14938714943E+02  0.00000000000E+00 0.  1.
         11    1    5    5    0    0  0.11980535472E+03 -0.75789257269E+02 -0.41604231576E+03  0.43953218658E+03  0.00000000000E+00 0. -1.
        -11    1    5    5    0    0  0.29417337306E+02 -0.88642709183E+02 -0.23411370320E+03  0.25205581852E+03  0.00000000000E+00 0.  1.
          4    1    6    6  503    0 -0.30288334766E+03  0.45305627067E+02 -0.72511467163E+02  0.31472024880E+03  0.00000000000E+00 0. -1.
         -4    1    6    6    0  503 -0.25505663619E+03  0.65247564320E+02 -0.14823378672E+03  0.30213306314E+03  0.00000000000E+00 0.  1.
<mgrwt>
<rscale>  0 0.14194940E+04</rscale>
<asrwt>0</asrwt>
<pdfrwt beam="1">  1        1 0.21610346E+00 0.14194940E+04</pdfrwt>
<pdfrwt beam="2">  1       -2 0.55171997E-01 0.14194940E+04</pdfrwt>
<totfact> 0.20116441E+01</totfact>
</mgrwt>
</event>
<event>
12    4  0.4413110E-008  0.1596661E+04  0.7818608E-02  0.8822602E-01
          1   -1    0    0  501    0  0.00000000000E+00  0.00000000000E+00  0.27971068434E+04  0.27971068434E+04  0.00000000000E+00 0. -1.
         -2   -1    0    0    0  501 -0.00000000000E+00 -0.00000000000E+00 -0.22785383856E+03  0.22785383856E+03  0.00000000000E+00 0.  1.
        -24    2    1    2    0    0  0.18833381510E+03  0.15448003616E+03  0.18403705703E+04  0.18581548540E+04  0.80261561111E+02 0.  0.
        254    2    1    2    0    0 -0.18833381510E+03 -0.15448003616E+03  0.72888243455E+03  0.11668058279E+04  0.87797068810E+03 0.  0.
         23    2    4    4    0    0 -0.43004094883E+03  0.18607060452E+03  0.45539752738E+03  0.65933642685E+03  0.88205035478E+02 0.  0.
         23    2    4    4    0    0  0.24170713374E+03 -0.34055064068E+03  0.27348490717E+03  0.50746940106E+03  0.91291408135E+02 0.  0.
          3    1    3    3  502    0  0.98016788001E+02  0.12264716126E+03  0.12894915637E+04  0.12990142839E+04  0.00000000000E+00 0. -1.
         -4    1    3    3    0  502  0.90317027095E+02  0.31832874900E+02  0.55087900658E+03  0.55914057016E+03  0.00000000000E+00 0.  1.
         11    1    5    5    0    0 -0.41315003620E+03  0.18530749019E+03  0.40982246121E+03  0.61072601716E+03  0.00000000000E+00 0.  1.
        -11    1    5    5    0    0 -0.16890912635E+02  0.76311433487E+00  0.45575066168E+02  0.48610409681E+02  0.00000000000E+00 0. -1.
          3    1    6    6  503    0 -0.50193865098E+01 -0.30353000259E+02  0.14560662259E+02  0.34036917473E+02  0.00000000000E+00 0. -1.
         -3    1    6    6    0  503  0.24672652025E+03 -0.31019764042E+03  0.25892424491E+03  0.47343248359E+03  0.00000000000E+00 0.  1.
<mgrwt>
<rscale>  0 0.15966609E+04</rscale>
<asrwt>0</asrwt>
<pdfrwt beam="1">  1        1 0.43032410E+00 0.15966609E+04</pdfrwt>
<pdfrwt beam="2">  1       -2 0.35054439E-01 0.15966609E+04</pdfrwt>
<totfact> 0.54104935E+00</totfact>
</mgrwt>
</event>
<event>
12    4  0.4413110E-008  0.1864210E+04  0.7818608E-02  0.8672879E-01
          1   -1    0    0  501    0  0.00000000000E+00  0.00000000000E+00  0.69341040473E+03  0.69341040473E+03  0.00000000000E+00 0. -1.
         -2   -1    0    0    0  501 -0.00000000000E+00 -0.00000000000E+00 -0.12529659838E+04  0.12529659838E+04  0.00000000000E+00 0.  1.
        -24    2    1    2    0    0  0.51855489358E+03  0.39156513788E+03  0.84708457743E+02  0.66019368595E+03  0.80360097667E+02 0.  0.
        254    2    1    2    0    0 -0.51855489358E+03 -0.39156513788E+03 -0.64426403677E+03  0.12861827025E+04  0.90386246762E+03 0.  0.
         23    2    4    4    0    0 -0.18766354877E+03 -0.63924220687E+03 -0.28179393732E+03  0.72890401819E+03  0.89694136089E+02 0.  0.
         23    2    4    4    0    0 -0.33089134481E+03  0.24767706899E+03 -0.36247009944E+03  0.55727868434E+03  0.91334256756E+02 0.  0.
          3    1    3    3  502    0  0.42966120644E+03  0.32042856558E+03  0.10025659226E+03  0.54528396478E+03  0.00000000000E+00 0. -1.
         -4    1    3    3    0  502  0.88893687140E+02  0.71136572303E+02 -0.15548134512E+02  0.11490972117E+03  0.00000000000E+00 0.  1.
         11    1    5    5    0    0 -0.14602663681E+03 -0.44186903688E+03 -0.15435749146E+03  0.49030425205E+03  0.00000000000E+00 0. -1.
        -11    1    5    5    0    0 -0.41636911963E+02 -0.19737316999E+03 -0.12743644586E+03  0.23859976614E+03  0.00000000000E+00 0.  1.
          2    1    6    6  503    0 -0.31008652036E+03  0.23730603752E+03 -0.30560330856E+03  0.49584391471E+03  0.00000000000E+00 0. -1.
         -2    1    6    6    0  503 -0.20804824450E+02  0.10371031464E+02 -0.56866790880E+02  0.61434769626E+02  0.00000000000E+00 0.  1.
<mgrwt>
<rscale>  0 0.18642099E+04</rscale>
<asrwt>0</asrwt>
<pdfrwt beam="1">  1        1 0.10667853E+00 0.18642099E+04</pdfrwt>
<pdfrwt beam="2">  1       -2 0.19276399E+00 0.18642099E+04</pdfrwt>
<totfact> 0.33717641E+00</totfact>
</mgrwt>
</event>
<event>
12    4  0.4413110E-008  0.1350633E+04  0.7818608E-02  0.8990349E-01
          1   -1    0    0  501    0  0.00000000000E+00  0.00000000000E+00  0.10805291787E+04  0.10805291787E+04  0.00000000000E+00 0. -1.
         -2   -1    0    0    0  501 -0.00000000000E+00 -0.00000000000E+00 -0.42206415077E+03  0.42206415077E+03  0.00000000000E+00 0.  1.
        -24    2    1    2    0    0 -0.86282159949E+02  0.14251364314E+03 -0.18968676916E+03  0.26453899680E+03  0.79025697268E+02 0.  0.
        254    2    1    2    0    0  0.86282159949E+02 -0.14251364314E+03  0.84815179713E+03  0.12380543327E+04  0.88637594179E+03 0.  0.
         23    2    4    4    0    0  0.44420818981E+03 -0.73066491307E+02  0.69168492432E+03  0.83078191971E+03  0.95451220727E+02 0.  0.
         23    2    4    4    0    0 -0.35792602986E+03 -0.69447151834E+02  0.15646687281E+03  0.40727241301E+03  0.91950999795E+02 0.  0.
          1    1    3    3  502    0 -0.37014532487E+02  0.41552563295E+02 -0.16383750918E+02  0.58009640801E+02  0.00000000000E+00 0. -1.
         -2    1    3    3    0  502 -0.49267627462E+02  0.10096107985E+03 -0.17330301824E+03  0.20652935600E+03  0.00000000000E+00 0.  1.
         11    1    5    5    0    0  0.19258652076E+03 -0.78021983119E+02  0.28972951180E+03  0.35653918134E+03  0.00000000000E+00 0. -1.
        -11    1    5    5    0    0  0.25162166905E+03  0.49554918115E+01  0.40195541252E+03  0.47424273837E+03  0.00000000000E+00 0.  1.
          2    1    6    6  503    0 -0.30001245394E+03 -0.28437693032E+02  0.10318593010E+03  0.31853337514E+03  0.00000000000E+00 0. -1.
         -2    1    6    6    0  503 -0.57913575918E+02 -0.41009458802E+02  0.53280942708E+02  0.88739037873E+02  0.00000000000E+00 0.  1.
<mgrwt>
<rscale>  0 0.13506334E+04</rscale>
<asrwt>0</asrwt>
<pdfrwt beam="1">  1        1 0.16623526E+00 0.13506334E+04</pdfrwt>
<pdfrwt beam="2">  1       -2 0.64932947E-01 0.13506334E+04</pdfrwt>
<totfact> 0.24630590E+01</totfact>
</mgrwt>
</event>
<event>
12    4  0.4413110E-008  0.1923202E+04  0.7818608E-02  0.8643393E-01
          1   -1    0    0  501    0  0.00000000000E+00  0.00000000000E+00  0.14688641617E+04  0.14688641617E+04  0.00000000000E+00 0. -1.
         -2   -1    0    0    0  501 -0.00000000000E+00 -0.00000000000E+00 -0.62951817582E+03  0.62951817582E+03  0.00000000000E+00 0.  1.
        -24    2    1    2    0    0  0.64865470266E+03 -0.15302133351E+03  0.41007472002E+02  0.67249768594E+03  0.80019204189E+02 0.  0.
        254    2    1    2    0    0 -0.64865470266E+03  0.15302133351E+03  0.79833851383E+03  0.14258846515E+04  0.97551740376E+03 0.  0.
         23    2    4    4    0    0  0.21440662066E+03 -0.99622671093E+02  0.30418293079E+03  0.39581957475E+03  0.90835041652E+02 0.  0.
         23    2    4    4    0    0 -0.86306132332E+03  0.25264400460E+03  0.49415558304E+03  0.10300650768E+04  0.90224615867E+02 0.  0.
          1    1    3    3  502    0  0.34774689066E+02  0.16385912405E+01 -0.12940394569E+02  0.37140514165E+02  0.00000000000E+00 0. -1.
         -2    1    3    3    0  502  0.61388001359E+03 -0.15465992475E+03  0.53947866571E+02  0.63535717177E+03  0.00000000000E+00 0.  1.
         11    1    5    5    0    0  0.18826382515E+03 -0.69224501191E+02  0.19600963243E+03  0.28045512196E+03  0.00000000000E+00 0.  1.
        -11    1    5    5    0    0  0.26142795508E+02 -0.30398169902E+02  0.10817329836E+03  0.11536445279E+03  0.00000000000E+00 0. -1.
          3    1    6    6  503    0 -0.84054143536E+02  0.47078866602E+02  0.73568527087E+02  0.12121817893E+03  0.00000000000E+00 0. -1.
         -3    1    6    6    0  503 -0.77900717978E+03  0.20556513800E+03  0.42058705595E+03  0.90884689786E+03  0.00000000000E+00 0.  1.
<mgrwt>
<rscale>  0 0.19232022E+04</rscale>
<asrwt>0</asrwt>
<pdfrwt beam="1">  1        1 0.22597910E+00 0.19232022E+04</pdfrwt>
<pdfrwt beam="2">  1       -2 0.96848951E-01 0.19232022E+04</pdfrwt>
<totfact> 0.50197280E+00</totfact>
</mgrwt>
</event>
<event>
12    4  0.4413110E-008  0.1310374E+04  0.7818608E-02  0.9021379E-01
         -2   -1    0    0    0  501 -0.00000000000E+00  0.00000000000E+00  0.56963869670E+03  0.56963869670E+03  0.00000000000E+00 0.  1.
          1   -1    0    0  501    0  0.00000000000E+00 -0.00000000000E+00 -0.75358324005E+03  0.75358324005E+03  0.00000000000E+00 0. -1.
        -24    2    1    2    0    0 -0.29210643646E+03  0.14829901279E+03  0.51591068732E+02  0.34136564454E+03  0.80932672536E+02 0.  0.
        254    2    1    2    0    0  0.29210643646E+03 -0.14829901279E+03 -0.23553561208E+03  0.98185629220E+03  0.89512344766E+03 0.  0.
         23    2    4    4    0    0 -0.19045242049E+03  0.20540982003E+03 -0.23399091826E+03  0.37600975011E+03  0.90367381924E+02 0.  0.
         23    2    4    4    0    0  0.48255885695E+03 -0.35370883282E+03 -0.15446938273E+01  0.60584654209E+03  0.95260997519E+02 0.  0.
          3    1    3    3  502    0 -0.23508535834E+03  0.81311248579E+02  0.28233599569E+02  0.25034732073E+03  0.00000000000E+00 0. -1.
         -4    1    3    3    0  502 -0.57021078123E+02  0.66987764212E+02  0.23357469162E+02  0.91018323814E+02  0.00000000000E+00 0.  1.
         11    1    5    5    0    0 -0.63431263358E+02  0.12859710464E+03 -0.13946210223E+03  0.20002604443E+03  0.00000000000E+00 0. -1.
        -11    1    5    5    0    0 -0.12702115713E+03  0.76812715389E+02 -0.94528816031E+02  0.17598370568E+03  0.00000000000E+00 0.  1.
          2    1    6    6  503    0  0.47609855630E+03 -0.35832066136E+03 -0.75066181235E+01  0.59591935779E+03  0.00000000000E+00 0. -1.
         -2    1    6    6    0  503  0.64603006488E+01  0.46118285367E+01  0.59619242962E+01  0.99271843057E+01  0.00000000000E+00 0.  1.
<mgrwt>
<rscale>  0 0.13103743E+04</rscale>
<asrwt>0</asrwt>
<pdfrwt beam="1">  1        1 0.11593588E+00 0.13103743E+04</pdfrwt>
<pdfrwt beam="2">  1       -2 0.87636723E-01 0.13103743E+04</pdfrwt>
<totfact> 0.23492830E+01</totfact>
</mgrwt>
</event>
<event>
12    4  0.4413110E-008  0.2146603E+04  0.7818608E-02  0.8540988E-01
         -2   -1    0    0    0  501 -0.00000000000E+00  0.00000000000E+00  0.45241457785E+03  0.45241457785E+03  0.00000000000E+00 0.  1.
          1   -1    0    0  501    0  0.00000000000E+00 -0.00000000000E+00 -0.25462844531E+04  0.25462844531E+04  0.00000000000E+00 0. -1.
        -24    2    1    2    0    0 -0.25243536203E+03 -0.13774988078E+00 -0.20475044152E+04  0.20645602947E+04  0.80070275722E+02 0.  0.
        254    2    1    2    0    0  0.25243536203E+03  0.13774988078E+00 -0.46365460033E+02  0.93413873628E+03  0.89818806035E+03 0.  0.
         23    2    4    4    0    0  0.13702898442E+02 -0.66493505083E+02  0.40037336731E+03  0.41625067659E+03  0.91414642517E+02 0.  0.
         23    2    4    4    0    0  0.23873246359E+03  0.66631254963E+02 -0.44673882734E+03  0.51788805969E+03  0.84850157346E+02 0.  0.
          3    1    3    3  502    0 -0.17004030043E+03 -0.35451877794E+02 -0.14505172225E+04  0.14608801293E+04  0.00000000000E+00 0. -1.
         -4    1    3    3    0  502 -0.82395061601E+02  0.35314127913E+02 -0.59698719276E+03  0.60368016543E+03  0.00000000000E+00 0.  1.
         11    1    5    5    0    0  0.15877929274E+02 -0.22972953655E+02  0.22470740691E+02  0.35844098885E+02  0.00000000000E+00 0.  1.
        -11    1    5    5    0    0 -0.21750308327E+01 -0.43520551428E+02  0.37790262662E+03  0.38040657770E+03  0.00000000000E+00 0. -1.
          2    1    6    6  503    0  0.17954955946E+03  0.23502459731E+02 -0.36930501887E+03  0.41131083973E+03  0.00000000000E+00 0. -1.
         -2    1    6    6    0  503  0.59182904130E+02  0.43128795233E+02 -0.77433808469E+02  0.10657721996E+03  0.00000000000E+00 0.  1.
<mgrwt>
<rscale>  0 0.21466031E+04</rscale>
<asrwt>0</asrwt>
<pdfrwt beam="1">  1        1 0.39173607E+00 0.21466031E+04</pdfrwt>
<pdfrwt beam="2">  1       -2 0.69602243E-01 0.21466031E+04</pdfrwt>
<totfact> 0.19060462E+00</totfact>
</mgrwt>
</event>
<event>
12    4  0.4413110E-008  0.1039809E+04  0.7818608E-02  0.9265929E-01
         -2   -1    0    0    0  501 -0.00000000000E+00  0.00000000000E+00  0.50049479358E+03  0.50049479358E+03  0.00000000000E+00 0.  1.
          1   -1    0    0  501    0  0.00000000000E+00 -0.00000000000E+00 -0.54006695186E+03  0.54006695186E+03  0.00000000000E+00 0. -1.
        -24    2    1    2    0    0  0.50079786186E+02  0.11299874253E+03  0.10867607108E+03  0.18408384377E+03  0.82460125600E+02 0.  0.
        254    2    1    2    0    0 -0.50079786186E+02 -0.11299874253E+03 -0.14824822936E+03  0.85647790166E+03  0.83444601847E+03 0.  0.
         23    2    4    4    0    0 -0.70985737431E+01  0.62868513111E+02 -0.46637007743E+03  0.47904696545E+03  0.89342634254E+02 0.  0.
         23    2    4    4    0    0 -0.42981212442E+02 -0.17586725564E+03  0.31812184807E+03  0.37743093621E+03  0.92064787859E+02 0.  0.
          1    1    3    3  502    0  0.24002923581E+02  0.11630204596E+03  0.71709327635E+02  0.13872466942E+03  0.00000000000E+00 0. -1.
         -2    1    3    3    0  502  0.26076862604E+02 -0.33033034332E+01  0.36966743446E+02  0.45359174352E+02  0.00000000000E+00 0.  1.
         11    1    5    5    0    0 -0.44116788529E+02  0.54227453971E+02 -0.33864679495E+03  0.34578687009E+03  0.00000000000E+00 0. -1.
        -11    1    5    5    0    0  0.37018214786E+02  0.86410591392E+01 -0.12772328248E+03  0.13326009536E+03  0.00000000000E+00 0.  1.
          4    1    6    6  503    0  0.14089331739E+02 -0.93874981863E+01  0.40437824822E+01  0.17406509352E+02  0.00000000000E+00 0. -1.
         -4    1    6    6    0  503 -0.57070544182E+02 -0.16647975745E+03  0.31407806559E+03  0.36002442686E+03  0.00000000000E+00 0.  1.
<mgrwt>
<rscale>  0 0.10398090E+04</rscale>
<asrwt>0</asrwt>
<pdfrwt beam="1">  1        1 0.83087223E-01 0.10398090E+04</pdfrwt>
<pdfrwt beam="2">  1       -2 0.76999200E-01 0.10398090E+04</pdfrwt>
<totfact> 0.52484088E+01</totfact>
</mgrwt>
</event>
<event>
12    4  0.4413110E-008  0.1296736E+04  0.7818608E-02  0.9032157E-01
         -2   -1    0    0    0  501 -0.00000000000E+00  0.00000000000E+00  0.20021274724E+03  0.20021274724E+03  0.00000000000E+00 0.  1.
          1   -1    0    0  501    0  0.00000000000E+00 -0.00000000000E+00 -0.20996730007E+04  0.20996730007E+04  0.00000000000E+00 0. -1.
        -24    2    1    2    0    0  0.22398456729E+03 -0.19966447001E+03 -0.28586761496E+03  0.42199628133E+03  0.79533522526E+02 0.  0.
        254    2    1    2    0    0 -0.22398456729E+03  0.19966447001E+03 -0.16135926385E+04  0.18778894666E+04  0.91255282521E+03 0.  0.
         23    2    4    4    0    0 -0.49621028987E+03  0.23395694293E+03 -0.57577931924E+03  0.80058194159E+03  0.91919082978E+02 0.  0.
         23    2    4    4    0    0  0.27222572259E+03 -0.34292472918E+02 -0.10378133193E+04  0.10773075251E+04  0.90841620830E+02 0.  0.
          1    1    3    3  502    0  0.91962727350E+02 -0.97803863425E+02 -0.77116551549E+02  0.15482151480E+03  0.00000000000E+00 0. -1.
         -2    1    3    3    0  502  0.13202183994E+03 -0.10186060659E+03 -0.20875106341E+03  0.26717476653E+03  0.00000000000E+00 0.  1.
         11    1    5    5    0    0 -0.26152824322E+03  0.15271979187E+03 -0.36938953791E+03  0.47767037541E+03  0.00000000000E+00 0. -1.
        -11    1    5    5    0    0 -0.23468204665E+03  0.81237151059E+02 -0.20638978134E+03  0.32291156618E+03  0.00000000000E+00 0.  1.
          1    1    6    6  503    0  0.24252701670E+03 -0.53811937224E+02 -0.82655135433E+03  0.86307718065E+03  0.00000000000E+00 0. -1.
         -1    1    6    6    0  503  0.29698705893E+02  0.19519464306E+02 -0.21126196497E+03  0.21423034440E+03  0.00000000000E+00 0.  1.
<mgrwt>
<rscale>  0 0.12967364E+04</rscale>
<asrwt>0</asrwt>
<pdfrwt beam="1">  1        1 0.32302659E+00 0.12967364E+04</pdfrwt>
<pdfrwt beam="2">  1       -2 0.30801964E-01 0.12967364E+04</pdfrwt>
<totfact> 0.21510416E+01</totfact>
</mgrwt>
</event>
<event>
12    4  0.4413110E-008  0.1980231E+04  0.7818608E-02  0.8615920E-01
          1   -1    0    0  501    0  0.00000000000E+00  0.00000000000E+00  0.89170202085E+03  0.89170202085E+03  0.00000000000E+00 0. -1.
         -2   -1    0    0    0  501 -0.00000000000E+00 -0.00000000000E+00 -0.10993902584E+04  0.10993902584E+04  0.00000000000E+00 0.  1.
        -24    2    1    2    0    0 -0.49380176460E+03  0.59775016220E+03 -0.17441748832E+03  0.79904637829E+03  0.83115674210E+02 0.  0.
        254    2    1    2    0    0  0.49380176460E+03 -0.59775016220E+03 -0.33270749190E+02  0.11920459009E+04  0.90483205513E+03 0.  0.
         23    2    4    4    0    0  0.55930356327E+03 -0.38254525093E+03  0.32679312544E+03  0.75780888001E+03  0.91209686388E+02 0.  0.
         23    2    4    4    0    0 -0.65501798673E+02 -0.21520491127E+03 -0.36006387463E+03  0.43423702090E+03  0.91171031790E+02 0.  0.
          1    1    3    3  502    0 -0.93092120283E+02  0.14292696309E+03 -0.67942454686E+02  0.18360402170E+03  0.00000000000E+00 0. -1.
         -2    1    3    3    0  502 -0.40070964432E+03  0.45482319911E+03 -0.10647503363E+03  0.61544235659E+03  0.00000000000E+00 0.  1.
         11    1    5    5    0    0  0.45886322850E+03 -0.34883427255E+03  0.25816844774E+03  0.63157878336E+03  0.00000000000E+00 0.  1.
        -11    1    5    5    0    0  0.10044033477E+03 -0.33710978378E+02  0.68624677700E+02  0.12623009666E+03  0.00000000000E+00 0. -1.
          4    1    6    6  503    0 -0.57779734394E+02 -0.21651861513E+03 -0.30422473994E+03  0.37785116223E+03  0.00000000000E+00 0. -1.
         -4    1    6    6    0  503 -0.77220642787E+01  0.13137038606E+01 -0.55839134698E+02  0.56385858674E+02  0.00000000000E+00 0.  1.
<mgrwt>
<rscale>  0 0.19802308E+04</rscale>
<asrwt>0</asrwt>
<pdfrwt beam="1">  1        1 0.13718493E+00 0.19802308E+04</pdfrwt>
<pdfrwt beam="2">  1       -2 0.16913696E+00 0.19802308E+04</pdfrwt>
<totfact> 0.32532271E+00</totfact>
</mgrwt>
</event>
<event>
12    4  0.4413110E-008  0.3299520E+04  0.7818608E-02  0.8163017E-01
          1   -1    0    0  501    0  0.00000000000E+00  0.00000000000E+00  0.54503323437E+03  0.54503323437E+03  0.00000000000E+00 0. -1.
         -2   -1    0    0    0  501 -0.00000000000E+00 -0.00000000000E+00 -0.49936560722E+04  0.49936560722E+04  0.00000000000E+00 0.  1.
        -24    2    1    2    0    0 -0.12226012004E+04  0.37319264602E+03 -0.34537702367E+04  0.36835371237E+04  0.76749249373E+02 0.  0.
        254    2    1    2    0    0  0.12226012004E+04 -0.37319264602E+03 -0.99485260112E+03  0.18551521829E+04  0.90434035478E+03 0.  0.
         23    2    4    4    0    0  0.66701100427E+03  0.25475173187E+03 -0.40745246732E+03  0.82736898911E+03  0.93379903111E+02 0.  0.
         23    2    4    4    0    0  0.55559019618E+03 -0.62794437790E+03 -0.58740013380E+03  0.10277831938E+04  0.91130501864E+02 0.  0.
          1    1    3    3  502    0 -0.33149581629E+02 -0.20723286939E+01 -0.98394175879E+02  0.10384894393E+03  0.00000000000E+00 0. -1.
         -2    1    3    3    0  502 -0.11894516188E+04  0.37526497472E+03 -0.33553760608E+04  0.35796881798E+04  0.00000000000E+00 0.  1.
         11    1    5    5    0    0  0.28692115110E+03  0.60509830461E+02 -0.16433044632E+03  0.33613937900E+03  0.00000000000E+00 0. -1.
        -11    1    5    5    0    0  0.38008985317E+03  0.19424190141E+03 -0.24312202100E+03  0.49122961010E+03  0.00000000000E+00 0.  1.
          3    1    6    6  503    0  0.17587390935E+02 -0.41501589406E+02 -0.15111131984E+02  0.47539925883E+02  0.00000000000E+00 0. -1.
         -3    1    6    6    0  503  0.53800280524E+03 -0.58644278849E+03 -0.57228900182E+03  0.98024326788E+03  0.00000000000E+00 0.  1.
<mgrwt>
<rscale>  0 0.32995203E+04</rscale>
<asrwt>0</asrwt>
<pdfrwt beam="1">  1        1 0.83851267E-01 0.32995203E+04</pdfrwt>
<pdfrwt beam="2">  1       -2 0.76825478E+00 0.32995203E+04</pdfrwt>
<totfact> 0.33533706E-03</totfact>
</mgrwt>
</event>
<event>
12    4  0.4413110E-008  0.1828810E+04  0.7818608E-02  0.8691127E-01
         -2   -1    0    0    0  501 -0.00000000000E+00  0.00000000000E+00  0.17820193569E+04  0.17820193569E+04  0.00000000000E+00 0.  1.
          1   -1    0    0  501    0  0.00000000000E+00 -0.00000000000E+00 -0.46920753020E+03  0.46920753020E+03  0.00000000000E+00 0. -1.
        -24    2    1    2    0    0  0.60463671971E+02  0.22531033388E+03  0.13014257685E+04  0.13250741925E+04  0.87703948162E+02 0.  0.
        254    2    1    2    0    0 -0.60463671971E+02 -0.22531033388E+03  0.11386058222E+02  0.92615269463E+03  0.89621904090E+03 0.  0.
         23    2    4    4    0    0 -0.28122693995E+02  0.33785641349E+03  0.40277895583E+02  0.35342408752E+03  0.91369769111E+02 0.  0.
         23    2    4    4    0    0 -0.32340977976E+02 -0.56316674738E+03 -0.28891837361E+02  0.57272860712E+03  0.94766000933E+02 0.  0.
          1    1    3    3  502    0  0.62262667996E+02  0.80770309470E+02  0.63642168301E+03  0.64454095396E+03  0.00000000000E+00 0. -1.
         -2    1    3    3    0  502 -0.17989960248E+01  0.14454002441E+03  0.66500408544E+03  0.68053323850E+03  0.00000000000E+00 0.  1.
         11    1    5    5    0    0 -0.44268640458E+02  0.97996108627E+02  0.34576199745E+02  0.11295336836E+03  0.00000000000E+00 0. -1.
        -11    1    5    5    0    0  0.16145946463E+02  0.23986030487E+03  0.57016958379E+01  0.24047071916E+03  0.00000000000E+00 0.  1.
          2    1    6    6  503    0 -0.29215823530E+02 -0.54067581541E+03 -0.74767671085E+01  0.54151620822E+03  0.00000000000E+00 0.  1.
         -2    1    6    6    0  503 -0.31251544459E+01 -0.22490931967E+02 -0.21415070253E+02  0.31212398898E+02  0.00000000000E+00 0. -1.
<mgrwt>
<rscale>  0 0.18288104E+04</rscale>
<asrwt>0</asrwt>
<pdfrwt beam="1">  1        1 0.72185775E-01 0.18288104E+04</pdfrwt>
<pdfrwt beam="2">  1       -2 0.27415682E+00 0.18288104E+04</pdfrwt>
<totfact> 0.18223922E+00</totfact>
</mgrwt>
</event>
<event>
12    4  0.4413110E-008  0.2457171E+04  0.7818608E-02  0.8418405E-01
         -2   -1    0    0    0  501 -0.00000000000E+00  0.00000000000E+00  0.12437609636E+04  0.12437609636E+04  0.00000000000E+00 0.  1.
          1   -1    0    0  501    0  0.00000000000E+00 -0.00000000000E+00 -0.12135949045E+04  0.12135949045E+04  0.00000000000E+00 0. -1.
        -24    2    1    2    0    0  0.13665138286E+03  0.99288865691E+03 -0.33376071378E+03  0.10596001389E+04  0.82793447108E+02 0.  0.
        254    2    1    2    0    0 -0.13665138286E+03 -0.99288865691E+03  0.36392677282E+03  0.13977557292E+04  0.90375710064E+03 0.  0.
         23    2    4    4    0    0 -0.31147670267E+03 -0.10563387717E+04  0.42076221269E+03  0.11824734663E+04  0.91287031718E+02 0.  0.
         23    2    4    4    0    0  0.17482531982E+03  0.63450114739E+02 -0.56835439869E+02  0.21528226282E+03  0.92338377449E+02 0.  0.
          3    1    3    3  502    0  0.14122756187E+03  0.98086928744E+03 -0.33629585413E+03  0.10464916076E+04  0.00000000000E+00 0. -1.
         -4    1    3    3    0  502 -0.45761790150E+01  0.12019369475E+02  0.25351403472E+01  0.13108531326E+02  0.00000000000E+00 0.  1.
         11    1    5    5    0    0 -0.12516726895E+03 -0.47991076737E+03  0.14392381036E+03  0.51642545739E+03  0.00000000000E+00 0. -1.
        -11    1    5    5    0    0 -0.18630943373E+03 -0.57642800429E+03  0.27683840233E+03  0.66604800895E+03  0.00000000000E+00 0.  1.
          3    1    6    6  503    0  0.87460780836E+02  0.62361754373E+02  0.61219234799E+01  0.10759114527E+03  0.00000000000E+00 0. -1.
         -3    1    6    6    0  503  0.87364538982E+02  0.10883603668E+01 -0.62957363349E+02  0.10769111755E+03  0.00000000000E+00 0.  1.
<mgrwt>
<rscale>  0 0.24571707E+04</rscale>
<asrwt>0</asrwt>
<pdfrwt beam="1">  1        1 0.18670691E+00 0.24571707E+04</pdfrwt>
<pdfrwt beam="2">  1       -2 0.19134784E+00 0.24571707E+04</pdfrwt>
<totfact> 0.12404925E+00</totfact>
</mgrwt>
</event>
<event>
12    4  0.4413110E-008  0.1411667E+04  0.7818608E-02  0.8945416E-01
         -2   -1    0    0    0  501 -0.00000000000E+00  0.00000000000E+00  0.55244470108E+03  0.55244470108E+03  0.00000000000E+00 0.  1.
          1   -1    0    0  501    0  0.00000000000E+00 -0.00000000000E+00 -0.90181131012E+03  0.90181131012E+03  0.00000000000E+00 0. -1.
        -24    2    1    2    0    0  0.11043501614E+03 -0.32485059225E+03  0.13425923267E+03  0.37696768044E+03  0.79720075669E+02 0.  0.
        254    2    1    2    0    0 -0.11043501614E+03  0.32485059225E+03 -0.48362584171E+03  0.10772883308E+04  0.89940668930E+03 0.  0.
         23    2    4    4    0    0 -0.74670175747E+01  0.42102995403E+03 -0.68867989460E+03  0.81237104892E+03  0.91349577772E+02 0.  0.
         23    2    4    4    0    0 -0.10296799857E+03 -0.96179361779E+02  0.20505405289E+03  0.26491728184E+03  0.91000677197E+02 0.  0.
          3    1    3    3  502    0  0.94582879960E+02 -0.26843538779E+03  0.76558496323E+02  0.29472814925E+03  0.00000000000E+00 0. -1.
         -4    1    3    3    0  502  0.15852136182E+02 -0.56415204455E+02  0.57700736348E+02  0.82239531190E+02  0.00000000000E+00 0.  1.
         11    1    5    5    0    0 -0.44727329259E+02  0.30103050021E+03 -0.46289880590E+03  0.55398122761E+03  0.00000000000E+00 0.  1.
        -11    1    5    5    0    0  0.37260311685E+02  0.11999945382E+03 -0.22578108870E+03  0.25838982131E+03  0.00000000000E+00 0. -1.
          3    1    6    6  503    0 -0.11706940035E+02 -0.14954932921E+01 -0.82034737073E+01  0.14373097302E+02  0.00000000000E+00 0. -1.
         -3    1    6    6    0  503 -0.91261058533E+02 -0.94683868487E+02  0.21325752660E+03  0.25054418454E+03  0.00000000000E+00 0.  1.
<mgrwt>
<rscale>  0 0.14116669E+04</rscale>
<asrwt>0</asrwt>
<pdfrwt beam="1">  1        1 0.13874020E+00 0.14116669E+04</pdfrwt>
<pdfrwt beam="2">  1       -2 0.84991492E-01 0.14116669E+04</pdfrwt>
<totfact> 0.18660946E+01</totfact>
</mgrwt>
</event>
<event>
12    4  0.4413110E-008  0.1132972E+04  0.7818608E-02  0.9173638E-01
          1   -1    0    0  501    0  0.00000000000E+00  0.00000000000E+00  0.69247425991E+03  0.69247425991E+03  0.00000000000E+00 0. -1.
         -2   -1    0    0    0  501 -0.00000000000E+00 -0.00000000000E+00 -0.46342000577E+03  0.46342000577E+03  0.00000000000E+00 0.  1.
        -24    2    1    2    0    0  0.22008411534E+03  0.85852043009E+01  0.25127502524E+02  0.23616112919E+03  0.81424590887E+02 0.  0.
        254    2    1    2    0    0 -0.22008411534E+03 -0.85852043009E+01  0.20392675162E+03  0.91973313649E+03  0.86937460210E+03 0.  0.
         23    2    4    4    0    0 -0.39064938978E+03  0.18670694110E+03 -0.15280958075E+03  0.46760673187E+03  0.88537337515E+02 0.  0.
         23    2    4    4    0    0  0.17056527444E+03 -0.19529214540E+03  0.35673633236E+03  0.45212640462E+03  0.99629011954E+02 0.  0.
          3    1    3    3  502    0  0.22537760515E+03  0.11886087421E+02  0.30733771604E+02  0.22777381038E+03  0.00000000000E+00 0. -1.
         -4    1    3    3    0  502 -0.52934898164E+01 -0.33008831202E+01 -0.56062690797E+01  0.83873188090E+01  0.00000000000E+00 0.  1.
         11    1    5    5    0    0 -0.44602166427E+02 -0.27091035738E+01 -0.32227213544E+02  0.55093427784E+02  0.00000000000E+00 0. -1.
        -11    1    5    5    0    0 -0.34604722335E+03  0.18941604467E+03 -0.12058236720E+03  0.41251330409E+03  0.00000000000E+00 0.  1.
          1    1    6    6  503    0  0.18174123334E+00 -0.29112822799E+02  0.90249521303E+02  0.94829138859E+02  0.00000000000E+00 0. -1.
         -1    1    6    6    0  503  0.17038353321E+03 -0.16617932260E+03  0.26648681106E+03  0.35729726576E+03  0.00000000000E+00 0.  1.
<mgrwt>
<rscale>  0 0.11329721E+04</rscale>
<asrwt>0</asrwt>
<pdfrwt beam="1">  1        1 0.10653450E+00 0.11329721E+04</pdfrwt>
<pdfrwt beam="2">  1       -2 0.71295386E-01 0.11329721E+04</pdfrwt>
<totfact> 0.43078604E+01</totfact>
</mgrwt>
</event>
<event>
12    4  0.4413110E-008  0.1413945E+04  0.7818608E-02  0.8943786E-01
          1   -1    0    0  501    0  0.00000000000E+00  0.00000000000E+00  0.11349022043E+04  0.11349022043E+04  0.00000000000E+00 0. -1.
         -2   -1    0    0    0  501 -0.00000000000E+00 -0.00000000000E+00 -0.44039935750E+03  0.44039935750E+03  0.00000000000E+00 0.  1.
        -24    2    1    2    0    0  0.14411770626E+03 -0.33042318241E+02 -0.19685882990E+03  0.25900496806E+03  0.80426777376E+02 0.  0.
        254    2    1    2    0    0 -0.14411770626E+03  0.33042318241E+02  0.89136167670E+03  0.13162965938E+04  0.95720915999E+03 0.  0.
         23    2    4    4    0    0  0.52443980089E+02 -0.19502927402E+03  0.96766074917E+03  0.99267457067E+03  0.90822293445E+02 0.  0.
         23    2    4    4    0    0 -0.19656168635E+03  0.22807159226E+03 -0.76299072472E+02  0.32362202308E+03  0.90865381894E+02 0.  0.
          1    1    3    3  502    0  0.83422856395E+02  0.20712256124E+02 -0.11721623391E+03  0.14535479357E+03  0.00000000000E+00 0. -1.
         -2    1    3    3    0  502  0.60694849863E+02 -0.53754574365E+02 -0.79642595990E+02  0.11365017449E+03  0.00000000000E+00 0.  1.
         11    1    5    5    0    0 -0.12991734045E+02 -0.81746835768E+02  0.25475176262E+03  0.26786151435E+03  0.00000000000E+00 0.  1.
        -11    1    5    5    0    0  0.65435714134E+02 -0.11328243826E+03  0.71290898656E+03  0.72481305632E+03  0.00000000000E+00 0. -1.
          3    1    6    6  503    0 -0.17266163319E+03  0.16886513296E+03 -0.91029253544E+02  0.25809648914E+03  0.00000000000E+00 0. -1.
         -3    1    6    6    0  503 -0.23900053161E+02  0.59206459305E+02  0.14730181072E+02  0.65525533947E+02  0.00000000000E+00 0.  1.
<mgrwt>
<rscale>  0 0.14139451E+04</rscale>
<asrwt>0</asrwt>
<pdfrwt beam="1">  1        1 0.17460034E+00 0.14139451E+04</pdfrwt>
<pdfrwt beam="2">  1       -2 0.67753748E-01 0.14139451E+04</pdfrwt>
<totfact> 0.20349984E+01</totfact>
</mgrwt>
</event>
<event>
12    4  0.4413110E-008  0.2872906E+04  0.7818608E-02  0.8280985E-01
          1   -1    0    0  501    0  0.00000000000E+00  0.00000000000E+00  0.13331895486E+04  0.13331895486E+04  0.00000000000E+00 0. -1.
         -2   -1    0    0    0  501 -0.00000000000E+00 -0.00000000000E+00 -0.15477149252E+04  0.15477149252E+04  0.00000000000E+00 0.  1.
        -24    2    1    2    0    0  0.10850118583E+04  0.13471866177E+03  0.59357706921E+03  0.12467129802E+04  0.80991774237E+02 0.  0.
        254    2    1    2    0    0 -0.10850118583E+04 -0.13471866177E+03 -0.80810244577E+03  0.16341914936E+04  0.90672621259E+03 0.  0.
         23    2    4    4    0    0  0.12552306609E+03  0.48828939263E+02  0.70077873766E+01  0.16030041315E+03  0.86641837122E+02 0.  0.
         23    2    4    4    0    0 -0.12105349243E+04 -0.18354760103E+03 -0.81511023315E+03  0.14738910805E+04  0.94157846394E+02 0.  0.
          3    1    3    3  502    0  0.10328058198E+04  0.12376288061E+03  0.58265398188E+03  0.11922628798E+04  0.00000000000E+00 0. -1.
         -4    1    3    3    0  502  0.52206038443E+02  0.10955781162E+02  0.10923087336E+02  0.54450100346E+02  0.00000000000E+00 0.  1.
         11    1    5    5    0    0  0.75794548438E+02  0.70188059538E+02 -0.94478308213E+01  0.10373253483E+03  0.00000000000E+00 0.  1.
        -11    1    5    5    0    0  0.49728517655E+02 -0.21359120275E+02  0.16455618198E+02  0.56567878317E+02  0.00000000000E+00 0. -1.
          1    1    6    6  503    0 -0.21817735947E+03 -0.67404257967E+02 -0.13542675760E+03  0.26549030274E+03  0.00000000000E+00 0. -1.
         -1    1    6    6    0  503 -0.99235756488E+03 -0.11614334307E+03 -0.67968347555E+03  0.12084007777E+04  0.00000000000E+00 0.  1.
<mgrwt>
<rscale>  0 0.28729061E+04</rscale>
<asrwt>0</asrwt>
<pdfrwt beam="1">  1        1 0.20510609E+00 0.28729061E+04</pdfrwt>
<pdfrwt beam="2">  1       -2 0.23810999E+00 0.28729061E+04</pdfrwt>
<totfact> 0.49236556E-01</totfact>
</mgrwt>
</event>
<event>
12    4  0.4413110E-008  0.1359797E+04  0.7818608E-02  0.8983445E-01
         -2   -1    0    0    0  501 -0.00000000000E+00  0.00000000000E+00  0.33925438594E+03  0.33925438594E+03  0.00000000000E+00 0.  1.
          1   -1    0    0  501    0  0.00000000000E+00 -0.00000000000E+00 -0.13625820170E+04  0.13625820170E+04  0.00000000000E+00 0. -1.
        -24    2    1    2    0    0 -0.80003826151E+01  0.34589908936E+03 -0.37339774867E+03  0.51511674828E+03  0.78798474003E+02 0.  0.
        254    2    1    2    0    0  0.80003826151E+01 -0.34589908936E+03 -0.64992988238E+03  0.11867196546E+04  0.93069033549E+03 0.  0.
         23    2    4    4    0    0 -0.43468059786E+03 -0.39853771266E+02 -0.26186010347E+03  0.51693760627E+03  0.90101219429E+02 0.  0.
         23    2    4    4    0    0  0.44268098047E+03 -0.30604531810E+03 -0.38806977890E+03  0.66978204838E+03  0.91540438260E+02 0.  0.
          3    1    3    3  502    0  0.30934758054E+02  0.21971891644E+03 -0.25172054543E+03  0.33555416029E+03  0.00000000000E+00 0. -1.
         -4    1    3    3    0  502 -0.38935140669E+02  0.12618017292E+03 -0.12167720324E+03  0.17956258799E+03  0.00000000000E+00 0.  1.
         11    1    5    5    0    0 -0.82487828006E+02 -0.39306017482E+02 -0.75187867928E+02  0.11833182270E+03  0.00000000000E+00 0. -1.
        -11    1    5    5    0    0 -0.35219276985E+03 -0.54775378338E+00 -0.18667223555E+03  0.39860578357E+03  0.00000000000E+00 0.  1.
          2    1    6    6  503    0  0.10766026153E+03 -0.12395559084E+03 -0.10496700329E+03  0.19486865370E+03  0.00000000000E+00 0. -1.
         -2    1    6    6    0  503  0.33502071894E+03 -0.18208972725E+03 -0.28310277562E+03  0.47491339469E+03  0.00000000000E+00 0.  1.
<mgrwt>
<rscale>  0 0.13597969E+04</rscale>
<asrwt>0</asrwt>
<pdfrwt beam="1">  1        1 0.20962801E+00 0.13597969E+04</pdfrwt>
<pdfrwt beam="2">  1       -2 0.52192981E-01 0.13597969E+04</pdfrwt>
<totfact> 0.24273702E+01</totfact>
</mgrwt>
</event>
<event>
12    4  0.4413110E-008  0.1035684E+04  0.7818608E-02  0.9270250E-01
          1   -1    0    0  501    0  0.00000000000E+00  0.00000000000E+00  0.21141172738E+04  0.21141172738E+04  0.00000000000E+00 0. -1.
         -2   -1    0    0    0  501 -0.00000000000E+00 -0.00000000000E+00 -0.12684276242E+03  0.12684276242E+03  0.00000000000E+00 0.  1.
        -24    2    1    2    0    0 -0.50505955838E+02  0.14468667528E+03  0.26122866872E+03  0.31030011111E+03  0.67532629294E+02 0.  0.
        254    2    1    2    0    0  0.50505955838E+02 -0.14468667528E+03  0.17260458426E+04  0.19306599251E+04  0.85130982013E+03 0.  0.
         23    2    4    4    0    0 -0.58668869810E+02  0.97049060693E+02  0.16264319990E+04  0.16329073373E+04  0.90800706567E+02 0.  0.
         23    2    4    4    0    0  0.10917482565E+03 -0.24173573597E+03  0.99613843574E+02  0.29775258774E+03  0.91533475139E+02 0.  0.
          3    1    3    3  502    0 -0.47113726608E+02  0.14091320253E+03  0.26511312471E+03  0.30390985962E+03  0.00000000000E+00 0. -1.
         -4    1    3    3    0  502 -0.33922292301E+01  0.37734727470E+01 -0.38844559947E+01  0.63902514893E+01  0.00000000000E+00 0.  1.
         11    1    5    5    0    0 -0.54860483264E+02  0.35001392239E+02  0.43354737604E+03  0.43840403437E+03  0.00000000000E+00 0. -1.
        -11    1    5    5    0    0 -0.38083865466E+01  0.62047668454E+02  0.11928846230E+04  0.11945033030E+04  0.00000000000E+00 0.  1.
          3    1    6    6  503    0  0.10493327272E+03 -0.14946323316E+03  0.93540947889E+02  0.20518323207E+03  0.00000000000E+00 0. -1.
         -3    1    6    6    0  503  0.42415529265E+01 -0.92272502814E+02  0.60728956851E+01  0.92569355668E+02  0.00000000000E+00 0.  1.
<mgrwt>
<rscale>  0 0.10356843E+04</rscale>
<asrwt>0</asrwt>
<pdfrwt beam="1">  1        1 0.32524879E+00 0.10356843E+04</pdfrwt>
<pdfrwt beam="2">  1       -2 0.19514273E-01 0.10356843E+04</pdfrwt>
<totfact> 0.49124608E+01</totfact>
</mgrwt>
</event>
<event>
12    4  0.4413110E-008  0.1574963E+04  0.7818608E-02  0.8836078E-01
         -2   -1    0    0    0  501 -0.00000000000E+00  0.00000000000E+00  0.48153369236E+03  0.48153369236E+03  0.00000000000E+00 0.  1.
          1   -1    0    0  501    0  0.00000000000E+00 -0.00000000000E+00 -0.12878174568E+04  0.12878174568E+04  0.00000000000E+00 0. -1.
        -24    2    1    2    0    0  0.26126982430E+03  0.43141195127E+03 -0.42733460364E+03  0.66674398480E+03  0.86916540479E+02 0.  0.
        254    2    1    2    0    0 -0.26126982430E+03 -0.43141195127E+03 -0.37894916077E+03  0.11026071643E+04  0.90430188521E+03 0.  0.
         23    2    4    4    0    0 -0.26039603376E+03 -0.55749907282E+03 -0.57844691442E+03  0.84964203100E+03  0.93163498493E+02 0.  0.
         23    2    4    4    0    0 -0.87379054391E+00  0.12608712154E+03  0.19949775365E+03  0.25296513333E+03  0.91067443348E+02 0.  0.
          1    1    3    3  502    0  0.25090697157E+03  0.38836764790E+03 -0.41367181162E+03  0.62040962762E+03  0.00000000000E+00 0. -1.
         -2    1    3    3    0  502  0.10362852729E+02  0.43044303374E+02 -0.13662792028E+02  0.46334357184E+02  0.00000000000E+00 0.  1.
         11    1    5    5    0    0 -0.19563732258E+03 -0.44746303650E+03 -0.50424262486E+03  0.70196706173E+03  0.00000000000E+00 0.  1.
        -11    1    5    5    0    0 -0.64758711183E+02 -0.11003603631E+03 -0.74204289565E+02  0.14767496928E+03  0.00000000000E+00 0. -1.
          2    1    6    6  503    0  0.18424963229E+02  0.11713199093E+03  0.11266071465E+03  0.16355983368E+03  0.00000000000E+00 0. -1.
         -2    1    6    6    0  503 -0.19298753773E+02  0.89551306132E+01  0.86837039003E+02  0.89405299644E+02  0.00000000000E+00 0.  1.
<mgrwt>
<rscale>  0 0.15749635E+04</rscale>
<asrwt>0</asrwt>
<pdfrwt beam="1">  1        1 0.19812576E+00 0.15749635E+04</pdfrwt>
<pdfrwt beam="2">  1       -2 0.74082106E-01 0.15749635E+04</pdfrwt>
<totfact> 0.12773888E+01</totfact>
</mgrwt>
</event>
<event>
12    4  0.4413110E-008  0.1918171E+04  0.7818608E-02  0.8645864E-01
         -4   -1    0    0    0  501 -0.00000000000E+00  0.00000000000E+00  0.65242316513E+03  0.65242316513E+03  0.00000000000E+00 0.  1.
          3   -1    0    0  501    0  0.00000000000E+00 -0.00000000000E+00 -0.14098894791E+04  0.14098894791E+04  0.00000000000E+00 0. -1.
        -24    2    1    2    0    0 -0.18602606973E+03  0.73943678286E+03 -0.37760472429E+03  0.85461947120E+03  0.80104046571E+02 0.  0.
        254    2    1    2    0    0  0.18602606973E+03 -0.73943678286E+03 -0.37986158972E+03  0.12076931731E+04  0.85606980935E+03 0.  0.
         23    2    4    4    0    0  0.12825815049E+01 -0.24271059640E+03  0.26337804668E+03  0.36942796521E+03  0.90548039084E+02 0.  0.
         23    2    4    4    0    0  0.18474348823E+03 -0.49672618646E+03 -0.64323963639E+03  0.83826520787E+03  0.89801270232E+02 0.  0.
          1    1    3    3  502    0 -0.92746187407E+02  0.42595888018E+03 -0.25684061637E+03  0.50597423364E+03  0.00000000000E+00 0. -1.
         -2    1    3    3    0  502 -0.93279882327E+02  0.31347790268E+03 -0.12076410792E+03  0.34864523757E+03  0.00000000000E+00 0.  1.
         11    1    5    5    0    0  0.10555453557E+01 -0.21073849044E+03  0.17010623249E+03  0.27082827744E+03  0.00000000000E+00 0. -1.
        -11    1    5    5    0    0  0.22703614913E+00 -0.31972105963E+02  0.93271814194E+02  0.98599687769E+02  0.00000000000E+00 0.  1.
          3    1    6    6  503    0  0.11271921925E+03 -0.40594071826E+03 -0.49201843815E+03  0.64774658055E+03  0.00000000000E+00 0. -1.
         -3    1    6    6    0  503  0.72024268976E+02 -0.90785468199E+02 -0.15122119825E+03  0.19051862732E+03  0.00000000000E+00 0.  1.
<mgrwt>
<rscale>  0 0.19181705E+04</rscale>
<asrwt>0</asrwt>
<pdfrwt beam="1">  1        3 0.21690607E+00 0.19181705E+04</pdfrwt>
<pdfrwt beam="2">  1       -4 0.10037279E+00 0.19181705E+04</pdfrwt>
<totfact> 0.20302740E-01</totfact>
</mgrwt>
</event>
<event>
12    4  0.4413110E-008  0.1381025E+04  0.7818608E-02  0.8967669E-01
         -2   -1    0    0    0  501 -0.00000000000E+00  0.00000000000E+00  0.21388220758E+03  0.21388220758E+03  0.00000000000E+00 0.  1.
          1   -1    0    0  501    0  0.00000000000E+00 -0.00000000000E+00 -0.22293002921E+04  0.22293002921E+04  0.00000000000E+00 0. -1.
        -24    2    1    2    0    0 -0.16190392712E+03  0.65194313303E+02  0.40214031818E+02  0.19709317526E+03  0.82251877029E+02 0.  0.
        254    2    1    2    0    0  0.16190392712E+03 -0.65194313303E+02 -0.20556321163E+04  0.22460893244E+04  0.88816140168E+03 0.  0.
         23    2    4    4    0    0  0.28418086803E+03  0.32292597765E+03 -0.69317036464E+03  0.82127520621E+03  0.94698770455E+02 0.  0.
         23    2    4    4    0    0 -0.12227694090E+03 -0.38812029096E+03 -0.13624617517E+04  0.14248141182E+04  0.90577238144E+02 0.  0.
          1    1    3    3  502    0 -0.20846274817E+01  0.67817337305E+01 -0.16313935462E+02  0.17789943068E+02  0.00000000000E+00 0. -1.
         -2    1    3    3    0  502 -0.15981929964E+03  0.58412579572E+02  0.56527967279E+02  0.17930323219E+03  0.00000000000E+00 0.  1.
         11    1    5    5    0    0  0.35486701302E+02  0.35932023760E+01 -0.59417592261E+02  0.69301279517E+02  0.00000000000E+00 0.  1.
        -11    1    5    5    0    0  0.24869416672E+03  0.31933277528E+03 -0.63375277238E+03  0.75197392669E+03  0.00000000000E+00 0. -1.
          4    1    6    6  503    0 -0.13542184789E+03 -0.35948229172E+03 -0.12265933368E+04  0.12853395694E+04  0.00000000000E+00 0. -1.
         -4    1    6    6    0  503  0.13144906984E+02 -0.28637999231E+02 -0.13586841492E+03  0.13947454876E+03  0.00000000000E+00 0.  1.
<mgrwt>
<rscale>  0 0.13810252E+04</rscale>
<asrwt>0</asrwt>
<pdfrwt beam="1">  1        1 0.34296929E+00 0.13810252E+04</pdfrwt>
<pdfrwt beam="2">  1       -2 0.32904954E-01 0.13810252E+04</pdfrwt>
<totfact> 0.15400974E+01</totfact>
</mgrwt>
</event>
<event>
12    4  0.4413110E-008  0.1573078E+04  0.7818608E-02  0.8837260E-01
         -2   -1    0    0    0  501 -0.00000000000E+00  0.00000000000E+00  0.93219888439E+03  0.93219888439E+03  0.00000000000E+00 0.  1.
          1   -1    0    0  501    0  0.00000000000E+00 -0.00000000000E+00 -0.66363884273E+03  0.66363884273E+03  0.00000000000E+00 0. -1.
        -24    2    1    2    0    0 -0.90998476595E+02  0.35158167088E+03  0.47344555015E+03  0.60210921300E+03  0.80587972885E+02 0.  0.
        254    2    1    2    0    0  0.90998476595E+02 -0.35158167088E+03 -0.20488550848E+03  0.99372851413E+03  0.90201324500E+03 0.  0.
         23    2    4    4    0    0 -0.15308889993E+02  0.17055661995E+03 -0.37889672179E+03  0.42569243013E+03  0.91254570119E+02 0.  0.
         23    2    4    4    0    0  0.10630736659E+03 -0.52213829083E+03  0.17401121331E+03  0.56803608399E+03  0.91953463325E+02 0.  0.
          1    1    3    3  502    0  0.55564937618E+01  0.25930683234E+02  0.69199792091E+02  0.74107261327E+02  0.00000000000E+00 0. -1.
         -2    1    3    3    0  502 -0.96554970357E+02  0.32565098764E+03  0.40424575806E+03  0.52800195167E+03  0.00000000000E+00 0.  1.
         11    1    5    5    0    0  0.16169762744E+02  0.13077090213E+02 -0.11427526154E+03  0.11615208528E+03  0.00000000000E+00 0.  1.
        -11    1    5    5    0    0 -0.31478652737E+02  0.15747952974E+03 -0.26462146025E+03  0.30954034485E+03  0.00000000000E+00 0. -1.
          3    1    6    6  503    0  0.95807256516E+02 -0.50269428575E+03  0.14561900539E+03  0.53205776947E+03  0.00000000000E+00 0. -1.
         -3    1    6    6    0  503  0.10500110072E+02 -0.19444005084E+02  0.28392207920E+02  0.35978314522E+02  0.00000000000E+00 0.  1.
<mgrwt>
<rscale>  0 0.15730777E+04</rscale>
<asrwt>0</asrwt>
<pdfrwt beam="1">  1        1 0.10209828E+00 0.15730777E+04</pdfrwt>
<pdfrwt beam="2">  1       -2 0.14341521E+00 0.15730777E+04</pdfrwt>
<totfact> 0.83795078E+00</totfact>
</mgrwt>
</event>
<event>
12    4  0.4413110E-008  0.1948188E+04  0.7818608E-02  0.8631235E-01
          1   -1    0    0  501    0  0.00000000000E+00  0.00000000000E+00  0.16125090499E+04  0.16125090499E+04  0.00000000000E+00 0. -1.
         -2   -1    0    0    0  501 -0.00000000000E+00 -0.00000000000E+00 -0.58843650680E+03  0.58843650680E+03  0.00000000000E+00 0.  1.
        -24    2    1    2    0    0 -0.67322696176E+03 -0.10032179230E+03  0.11562861047E+02  0.68549242263E+03  0.80418640120E+02 0.  0.
        254    2    1    2    0    0  0.67322696176E+03  0.10032179230E+03  0.10125096820E+04  0.15154531340E+04  0.89895680718E+03 0.  0.
         23    2    4    4    0    0  0.38950885885E+03  0.95004087235E+02 -0.45382685384E+02  0.41645408892E+03  0.10310912828E+03 0.  0.
         23    2    4    4    0    0  0.28371810292E+03  0.53177050623E+01  0.10578923674E+04  0.10989990451E+04  0.90213082322E+02 0.  0.
          3    1    3    3  502    0 -0.19592209399E+02  0.10331621209E+02 -0.32829487797E+01  0.22391400550E+02  0.00000000000E+00 0. -1.
         -4    1    3    3    0  502 -0.65363475236E+03 -0.11065341351E+03  0.14845809827E+02  0.66310102208E+03  0.00000000000E+00 0.  1.
         11    1    5    5    0    0 -0.60347591987E+01 -0.16218356904E+01  0.19288822647E+01  0.65398208220E+01  0.00000000000E+00 0.  1.
        -11    1    5    5    0    0  0.39554361804E+03  0.96625922925E+02 -0.47311567648E+02  0.40991426810E+03  0.00000000000E+00 0. -1.
          4    1    6    6  503    0  0.90204315273E+01  0.15258092053E+02  0.28705279596E+02  0.33736784593E+02  0.00000000000E+00 0.  1.
         -4    1    6    6    0  503  0.27469767139E+03 -0.99403869910E+01  0.10291870878E+04  0.10652622605E+04  0.00000000000E+00 0. -1.
<mgrwt>
<rscale>  0 0.19481881E+04</rscale>
<asrwt>0</asrwt>
<pdfrwt beam="1">  1        1 0.24807831E+00 0.19481881E+04</pdfrwt>
<pdfrwt beam="2">  1       -2 0.90528694E-01 0.19481881E+04</pdfrwt>
<totfact> 0.46652985E+00</totfact>
</mgrwt>
</event>
<event>
12    4  0.4413110E-008  0.2348322E+04  0.7818608E-02  0.8459108E-01
          1   -1    0    0  501    0  0.00000000000E+00  0.00000000000E+00  0.75404637947E+03  0.75404637947E+03  0.00000000000E+00 0. -1.
         -2   -1    0    0    0  501 -0.00000000000E+00 -0.00000000000E+00 -0.18283413747E+04  0.18283413747E+04  0.00000000000E+00 0.  1.
        -24    2    1    2    0    0  0.91015433147E+03 -0.24918982274E+02 -0.86711081434E+01  0.91411742203E+03  0.80830751380E+02 0.  0.
        254    2    1    2    0    0 -0.91015433147E+03  0.24918982274E+02 -0.10656238870E+04  0.16682703321E+04  0.90474845650E+03 0.  0.
         23    2    4    4    0    0 -0.10044708784E+04  0.13966045139E+02 -0.57581082384E+03  0.11610064968E+04  0.84977555129E+02 0.  0.
         23    2    4    4    0    0  0.94316546927E+02  0.10952937135E+02 -0.48981306320E+03  0.50726383526E+03  0.91565188909E+02 0.  0.
          3    1    3    3  502    0  0.87175657233E+03 -0.72052427188E+01 -0.87822093585E+01  0.87183058224E+03  0.00000000000E+00 0. -1.
         -4    1    3    3    0  502  0.38397759136E+02 -0.17713739556E+02  0.11110121508E+00  0.42286839787E+02  0.00000000000E+00 0.  1.
         11    1    5    5    0    0 -0.55120739377E+02  0.19233344538E+02 -0.25809392489E+02  0.63830574118E+02  0.00000000000E+00 0. -1.
        -11    1    5    5    0    0 -0.94935013902E+03 -0.52672993984E+01 -0.55000143135E+03  0.10971759227E+04  0.00000000000E+00 0.  1.
          1    1    6    6  503    0 -0.32845396140E+01 -0.75537091206E+01 -0.21310524389E+03  0.21326437043E+03  0.00000000000E+00 0. -1.
         -1    1    6    6    0  503  0.97601086541E+02  0.18506646256E+02 -0.27670781932E+03  0.29399946483E+03  0.00000000000E+00 0.  1.
<mgrwt>
<rscale>  0 0.23483221E+04</rscale>
<asrwt>0</asrwt>
<pdfrwt beam="1">  1        1 0.11600714E+00 0.23483221E+04</pdfrwt>
<pdfrwt beam="2">  1       -2 0.28128329E+00 0.23483221E+04</pdfrwt>
<totfact> 0.79262998E-01</totfact>
</mgrwt>
</event>
<event>
12    4  0.4413110E-008  0.1331417E+04  0.7818608E-02  0.9005016E-01
          1   -1    0    0  501    0  0.00000000000E+00  0.00000000000E+00  0.10570980577E+04  0.10570980577E+04  0.00000000000E+00 0. -1.
         -2   -1    0    0    0  501 -0.00000000000E+00 -0.00000000000E+00 -0.41923051717E+03  0.41923051717E+03  0.00000000000E+00 0.  1.
        -24    2    1    2    0    0 -0.10633771838E+02 -0.18844502295E+03  0.52613415006E+03  0.56439454450E+03  0.78099002670E+02 0.  0.
        254    2    1    2    0    0  0.10633771838E+02  0.18844502295E+03  0.11173339049E+03  0.91193403040E+03  0.88516366931E+03 0.  0.
         23    2    4    4    0    0 -0.54671563750E+02  0.51573823586E+03 -0.52931722122E+02  0.52883223446E+03  0.88807979262E+02 0.  0.
         23    2    4    4    0    0  0.65305335588E+02 -0.32729321291E+03  0.16466511262E+03  0.38310179594E+03  0.90921684240E+02 0.  0.
          1    1    3    3  502    0  0.65473175987E+00 -0.17529963012E+03  0.51444682268E+03  0.54349417877E+03  0.00000000000E+00 0. -1.
         -2    1    3    3    0  502 -0.11288503598E+02 -0.13145392828E+02  0.11687327384E+02  0.20900365725E+02  0.00000000000E+00 0.  1.
         11    1    5    5    0    0 -0.26105121548E+02  0.43157796072E+03 -0.70945727765E+02  0.43814873027E+03  0.00000000000E+00 0.  1.
        -11    1    5    5    0    0 -0.28566442202E+02  0.84160275145E+02  0.18014005643E+02  0.90683504188E+02  0.00000000000E+00 0. -1.
          2    1    6    6  503    0  0.33519502006E+02 -0.30532004705E+03  0.14929758241E+03  0.34151669982E+03  0.00000000000E+00 0.  1.
         -2    1    6    6    0  503  0.31785833582E+02 -0.21973165868E+02  0.15367530205E+02  0.41585096120E+02  0.00000000000E+00 0. -1.
<mgrwt>
<rscale>  0 0.13314169E+04</rscale>
<asrwt>0</asrwt>
<pdfrwt beam="1">  1        1 0.16263047E+00 0.13314169E+04</pdfrwt>
<pdfrwt beam="2">  1       -2 0.64497003E-01 0.13314169E+04</pdfrwt>
<totfact> 0.26076169E+01</totfact>
</mgrwt>
</event>
<event>
12    4  0.5317850E-008  0.1790423E+04  0.7818608E-02  0.8711409E-01
         -2   -1    0    0    0  501 -0.00000000000E+00  0.00000000000E+00  0.56699576209E+03  0.56699576209E+03  0.00000000000E+00 0.  1.
          1   -1    0    0  501    0  0.00000000000E+00 -0.00000000000E+00 -0.14134203063E+04  0.14134203063E+04  0.00000000000E+00 0. -1.
        -24    2    1    2    0    0  0.29009749273E+02 -0.56232024193E+03  0.73057379470E+02  0.57321834187E+03  0.78716368839E+02 0.  0.
        254    2    1    2    0    0 -0.29009749273E+02  0.56232024193E+03 -0.91948192370E+03  0.14071977265E+04  0.90427474448E+03 0.  0.
         23    2    4    4    0    0 -0.42260430102E+03  0.46312343294E+03 -0.43126905547E+03  0.76632874171E+03  0.90493274746E+02 0.  0.
         23    2    4    4    0    0  0.39359455175E+03  0.99196808990E+02 -0.48821286824E+03  0.64086898483E+03  0.87204202462E+02 0.  0.
          1    1    3    3  502    0 -0.67369092705E+01 -0.47977339760E+01  0.66607246540E+01  0.10619296151E+02  0.00000000000E+00 0. -1.
         -2    1    3    3    0  502  0.35746658543E+02 -0.55752250796E+03  0.66396654816E+02  0.56259904572E+03  0.00000000000E+00 0.  1.
         11    1    5    5    0    0 -0.64168759946E+02  0.82003286472E+02 -0.11427156844E+03  0.15459676614E+03  0.00000000000E+00 0. -1.
        -11    1    5    5    0    0 -0.35843554108E+03  0.38112014647E+03 -0.31699748702E+03  0.61173197557E+03  0.00000000000E+00 0.  1.
          2    1    6    6  503    0  0.56695311345E+02  0.35257193016E+02 -0.45110930612E+02  0.80575579728E+02  0.00000000000E+00 0. -1.
         -2    1    6    6    0  503  0.33689924041E+03  0.63939615974E+02 -0.44310193762E+03  0.56029340510E+03  0.00000000000E+00 0.  1.
<mgrwt>
<rscale>  0 0.17904227E+04</rscale>
<asrwt>0</asrwt>
<pdfrwt beam="1">  1        1 0.21744928E+00 0.17904227E+04</pdfrwt>
<pdfrwt beam="2">  1       -2 0.87230118E-01 0.17904227E+04</pdfrwt>
<totfact> 0.70747591E+00</totfact>
</mgrwt>
</event>
<event>
12    4  0.4413110E-008  0.1816338E+04  0.7818608E-02  0.8697659E-01
          1   -1    0    0  501    0  0.00000000000E+00  0.00000000000E+00  0.42438914787E+03  0.42438914787E+03  0.00000000000E+00 0. -1.
         -2   -1    0    0    0  501 -0.00000000000E+00 -0.00000000000E+00 -0.19434313218E+04  0.19434313218E+04  0.00000000000E+00 0.  1.
        -24    2    1    2    0    0  0.43018685684E+03 -0.90576224523E+02 -0.12513811218E+04  0.13287539160E+04  0.79796447274E+02 0.  0.
        254    2    1    2    0    0 -0.43018685684E+03  0.90576224523E+02 -0.26766105219E+03  0.10390665537E+04  0.90263618363E+03 0.  0.
         23    2    4    4    0    0 -0.55168804563E+03 -0.16798046648E+03  0.69384566909E+02  0.58795094485E+03  0.91076663363E+02 0.  0.
         23    2    4    4    0    0  0.12150118880E+03  0.25855669101E+03 -0.33704561910E+03  0.45111560890E+03  0.91057354951E+02 0.  0.
          3    1    3    3  502    0  0.21053537631E+03 -0.76696316066E+02 -0.55908567653E+03  0.60231575048E+03  0.00000000000E+00 0. -1.
         -4    1    3    3    0  502  0.21965148053E+03 -0.13879908457E+02 -0.69229544525E+03  0.72643816548E+03  0.00000000000E+00 0.  1.
         11    1    5    5    0    0 -0.52965142312E+03 -0.16009397326E+03  0.46583618293E+02  0.55527537653E+03  0.00000000000E+00 0.  1.
        -11    1    5    5    0    0 -0.22036622510E+02 -0.78864932288E+01  0.22800948616E+02  0.32675568317E+02  0.00000000000E+00 0. -1.
          3    1    6    6  503    0  0.38307976056E+02  0.25356336124E+02 -0.23510236114E+02  0.51605968775E+02  0.00000000000E+00 0. -1.
         -3    1    6    6    0  503  0.83193212739E+02  0.23320035488E+03 -0.31353538299E+03  0.39950964012E+03  0.00000000000E+00 0.  1.
<mgrwt>
<rscale>  0 0.18163383E+04</rscale>
<asrwt>0</asrwt>
<pdfrwt beam="1">  1        1 0.65290636E-01 0.18163383E+04</pdfrwt>
<pdfrwt beam="2">  1       -2 0.29898944E+00 0.18163383E+04</pdfrwt>
<totfact> 0.14751757E+00</totfact>
</mgrwt>
</event>
<event>
12    4  0.4413110E-008  0.1921615E+04  0.7818608E-02  0.8644171E-01
         -2   -1    0    0    0  501 -0.00000000000E+00  0.00000000000E+00  0.60712467118E+03  0.60712467118E+03  0.00000000000E+00 0.  1.
          1   -1    0    0  501    0  0.00000000000E+00 -0.00000000000E+00 -0.15205297660E+04  0.15205297660E+04  0.00000000000E+00 0. -1.
        -24    2    1    2    0    0  0.98025366938E+02 -0.41467418798E+03  0.32005604164E+03  0.53973041834E+03  0.85495028785E+02 0.  0.
        254    2    1    2    0    0 -0.98025366938E+02  0.41467418798E+03 -0.12334611365E+04  0.15879240188E+04  0.90471689479E+03 0.  0.
         23    2    4    4    0    0  0.32007416224E+03  0.24085079101E+03 -0.20157864331E+03  0.45754753508E+03  0.90880275943E+02 0.  0.
         23    2    4    4    0    0 -0.41809952918E+03  0.17382339697E+03 -0.10318824931E+04  0.11303764838E+04  0.89150018163E+02 0.  0.
          1    1    3    3  502    0 -0.15660477819E+02 -0.64556243834E+02  0.45896626593E+02  0.80741931585E+02  0.00000000000E+00 0. -1.
         -2    1    3    3    0  502  0.11368584476E+03 -0.35011794415E+03  0.27415941505E+03  0.45898848675E+03  0.00000000000E+00 0.  1.
         11    1    5    5    0    0  0.18588054258E+03  0.14147493227E+03 -0.16665639930E+03  0.28695136870E+03  0.00000000000E+00 0.  1.
        -11    1    5    5    0    0  0.13419361966E+03  0.99375858733E+02 -0.34922244011E+02  0.17059616638E+03  0.00000000000E+00 0. -1.
          4    1    6    6  503    0 -0.47985667125E+02  0.24812184922E+02 -0.65716395473E+02  0.85070049982E+02  0.00000000000E+00 0. -1.
         -4    1    6    6    0  503 -0.37011386205E+03  0.14901121205E+03 -0.96616609767E+03  0.10453064338E+04  0.00000000000E+00 0.  1.
<mgrwt>
<rscale>  0 0.19216151E+04</rscale>
<asrwt>0</asrwt>
<pdfrwt beam="1">  1        1 0.23392766E+00 0.19216151E+04</pdfrwt>
<pdfrwt beam="2">  1       -2 0.93403796E-01 0.19216151E+04</pdfrwt>
<totfact> 0.50314871E+00</totfact>
</mgrwt>
</event>
<event>
12    4  0.4413110E-008  0.2426559E+04  0.7818608E-02  0.8429627E-01
         -2   -1    0    0    0  501 -0.00000000000E+00  0.00000000000E+00  0.54483442754E+03  0.54483442754E+03  0.00000000000E+00 0.  1.
          1   -1    0    0  501    0  0.00000000000E+00 -0.00000000000E+00 -0.27018253150E+04  0.27018253150E+04  0.00000000000E+00 0. -1.
        -24    2    1    2    0    0  0.54947539058E+03  0.26937783789E+03  0.20255176720E+03  0.64946809913E+03  0.79334538459E+02 0.  0.
        254    2    1    2    0    0 -0.54947539058E+03 -0.26937783789E+03 -0.23595426547E+04  0.25971916434E+04  0.89636782018E+03 0.  0.
         23    2    4    4    0    0 -0.35729341209E+03  0.16211555619E+03 -0.36115471945E+03  0.54171931826E+03  0.95326032748E+02 0.  0.
         23    2    4    4    0    0 -0.19218197849E+03 -0.43149339408E+03 -0.19983879353E+04  0.20554723252E+04  0.91058650585E+02 0.  0.
          1    1    3    3  502    0  0.51776399319E+03  0.23596637164E+03  0.17291210236E+03  0.59469174900E+03  0.00000000000E+00 0. -1.
         -2    1    3    3    0  502  0.31711397390E+02  0.33411466252E+02  0.29639664842E+02  0.54776350129E+02  0.00000000000E+00 0.  1.
         11    1    5    5    0    0 -0.21254420270E+02  0.40874928309E+01  0.27217702012E+01  0.21814353341E+02  0.00000000000E+00 0. -1.
        -11    1    5    5    0    0 -0.33603899182E+03  0.15802806336E+03 -0.36387648965E+03  0.51990496492E+03  0.00000000000E+00 0.  1.
          2    1    6    6  503    0 -0.10099939560E+03 -0.23539372541E+03 -0.88725951551E+03  0.92349365549E+03  0.00000000000E+00 0. -1.
         -2    1    6    6    0  503 -0.91182582888E+02 -0.19609966867E+03 -0.11111284197E+04  0.11319786697E+04  0.00000000000E+00 0.  1.
<mgrwt>
<rscale>  0 0.24265593E+04</rscale>
<asrwt>0</asrwt>
<pdfrwt beam="1">  1        1 0.41566543E+00 0.24265593E+04</pdfrwt>
<pdfrwt beam="2">  1       -2 0.83820681E-01 0.24265593E+04</pdfrwt>
<totfact> 0.95650319E-01</totfact>
</mgrwt>
</event>
<event>
12    4  0.4413110E-008  0.2516148E+04  0.7818608E-02  0.8397255E-01
          1   -1    0    0  501    0  0.00000000000E+00  0.00000000000E+00  0.54731858658E+03  0.54731858658E+03  0.00000000000E+00 0. -1.
         -2   -1    0    0    0  501 -0.00000000000E+00 -0.00000000000E+00 -0.28918270183E+04  0.28918270183E+04  0.00000000000E+00 0.  1.
        -24    2    1    2    0    0  0.55126265148E+03  0.94883672046E+03 -0.10201259636E+04  0.15005167344E+04  0.81925916520E+02 0.  0.
        254    2    1    2    0    0 -0.55126265148E+03 -0.94883672046E+03 -0.13243824682E+04  0.19386288704E+04  0.89448943110E+03 0.  0.
         23    2    4    4    0    0 -0.66131984889E+03 -0.38534797779E+03 -0.46185200828E+03  0.89870794624E+03  0.92367140109E+02 0.  0.
         23    2    4    4    0    0  0.11005719741E+03 -0.56348874268E+03 -0.86253045989E+03  0.10399209242E+04  0.88569659311E+02 0.  0.
          1    1    3    3  502    0  0.27101953362E+03  0.51493120225E+03 -0.49550066503E+03  0.76428178030E+03  0.00000000000E+00 0. -1.
         -2    1    3    3    0  502  0.28024311786E+03  0.43390551821E+03 -0.52462529853E+03  0.73623495414E+03  0.00000000000E+00 0.  1.
         11    1    5    5    0    0 -0.12611180197E+03 -0.57554515096E+02 -0.46982360060E+02  0.14636956979E+03  0.00000000000E+00 0.  1.
        -11    1    5    5    0    0 -0.53520804691E+03 -0.32779346269E+03 -0.41486964822E+03  0.75233837645E+03  0.00000000000E+00 0. -1.
          3    1    6    6  503    0  0.11177655373E+03 -0.38666738185E+03 -0.56281655980E+03  0.69193073507E+03  0.00000000000E+00 0. -1.
         -3    1    6    6    0  503 -0.17193563249E+01 -0.17682136082E+03 -0.29971390009E+03  0.34799018914E+03  0.00000000000E+00 0.  1.
<mgrwt>
<rscale>  0 0.25161484E+04</rscale>
<asrwt>0</asrwt>
<pdfrwt beam="1">  1        1 0.84202860E-01 0.25161484E+04</pdfrwt>
<pdfrwt beam="2">  1       -2 0.44489646E+00 0.25161484E+04</pdfrwt>
<totfact> 0.11383674E-01</totfact>
</mgrwt>
</event>
<event>
12    4  0.4413110E-008  0.1619285E+04  0.7818608E-02  0.8808787E-01
         -2   -1    0    0    0  501 -0.00000000000E+00  0.00000000000E+00  0.19397973592E+03  0.19397973592E+03  0.00000000000E+00 0.  1.
          1   -1    0    0  501    0  0.00000000000E+00 -0.00000000000E+00 -0.33793286890E+04  0.33793286890E+04  0.00000000000E+00 0. -1.
        -24    2    1    2    0    0 -0.20457564089E+03  0.50816337463E+03 -0.87861190664E+03  0.10384744718E+04  0.79932083526E+02 0.  0.
        254    2    1    2    0    0  0.20457564089E+03 -0.50816337463E+03 -0.23067370464E+04  0.25348339531E+04  0.89680887609E+03 0.  0.
         23    2    4    4    0    0 -0.13843341637E+02 -0.18103742032E+03 -0.20410070739E+04  0.20514578620E+04  0.99011604764E+02 0.  0.
         23    2    4    4    0    0  0.21841898253E+03 -0.32712595431E+03 -0.26572997250E+03  0.48337609113E+03  0.91223819737E+02 0.  0.
          1    1    3    3  502    0 -0.10483559058E+03  0.34173861926E+03 -0.52516528216E+03  0.63527502590E+03  0.00000000000E+00 0. -1.
         -2    1    3    3    0  502 -0.99740050316E+02  0.16642475537E+03 -0.35344662448E+03  0.40319944592E+03  0.00000000000E+00 0.  1.
         11    1    5    5    0    0  0.40787576110E+02 -0.49830865556E+02 -0.68753066857E+03  0.69053976117E+03  0.00000000000E+00 0. -1.
        -11    1    5    5    0    0 -0.54630917747E+02 -0.13120655476E+03 -0.13534764054E+04  0.13609181008E+04  0.00000000000E+00 0.  1.
          1    1    6    6  503    0  0.25908745585E+02 -0.43937756445E+02 -0.77062114889E+02  0.92414063271E+02  0.00000000000E+00 0. -1.
         -1    1    6    6    0  503  0.19251023694E+03 -0.28318819786E+03 -0.18866785761E+03  0.39096202786E+03  0.00000000000E+00 0.  1.
<mgrwt>
<rscale>  0 0.16192854E+04</rscale>
<asrwt>0</asrwt>
<pdfrwt beam="1">  1        1 0.51989670E+00 0.16192854E+04</pdfrwt>
<pdfrwt beam="2">  1       -2 0.29843038E-01 0.16192854E+04</pdfrwt>
<totfact> 0.27265491E+00</totfact>
</mgrwt>
</event>
<event>
12    4  0.4413110E-008  0.1198471E+04  0.7818608E-02  0.9114196E-01
         -2   -1    0    0    0  501 -0.00000000000E+00  0.00000000000E+00  0.20656653301E+03  0.20656653301E+03  0.00000000000E+00 0.  1.
          1   -1    0    0  501    0  0.00000000000E+00 -0.00000000000E+00 -0.17383421834E+04  0.17383421834E+04  0.00000000000E+00 0. -1.
        -24    2    1    2    0    0  0.11467270700E+03  0.17566215494E+03 -0.35464177622E+03  0.41908372126E+03  0.76507212579E+02 0.  0.
        254    2    1    2    0    0 -0.11467270700E+03 -0.17566215494E+03 -0.11771338742E+04  0.15258249951E+04  0.94788751213E+03 0.  0.
         23    2    4    4    0    0  0.18857583961E+03 -0.29567877288E+03 -0.70296567925E+02  0.36896859092E+03  0.90605902709E+02 0.  0.
         23    2    4    4    0    0 -0.30324854662E+03  0.12001661794E+03 -0.11068373062E+04  0.11568564042E+04  0.82850756642E+02 0.  0.
          1    1    3    3  502    0  0.26166761847E+02  0.16020701736E+02 -0.16541572708E+02  0.34856648395E+02  0.00000000000E+00 0. -1.
         -2    1    3    3    0  502  0.88505945155E+02  0.15964145320E+03 -0.33810020351E+03  0.38422707287E+03  0.00000000000E+00 0.  1.
         11    1    5    5    0    0  0.11165285312E+02  0.41941534362E+01  0.42478848289E+01  0.12660925901E+02  0.00000000000E+00 0. -1.
        -11    1    5    5    0    0  0.17741055430E+03 -0.29987292632E+03 -0.74544452753E+02  0.35630766502E+03  0.00000000000E+00 0.  1.
          4    1    6    6  503    0 -0.82599215180E+02  0.36802142640E+02 -0.19382476142E+03  0.21388096267E+03  0.00000000000E+00 0. -1.
         -4    1    6    6    0  503 -0.22064933144E+03  0.83214475304E+02 -0.91301254480E+03  0.94297544153E+03  0.00000000000E+00 0.  1.
<mgrwt>
<rscale>  0 0.11984712E+04</rscale>
<asrwt>0</asrwt>
<pdfrwt beam="1">  1        1 0.26743724E+00 0.11984712E+04</pdfrwt>
<pdfrwt beam="2">  1       -2 0.31779468E-01 0.11984712E+04</pdfrwt>
<totfact> 0.35899113E+01</totfact>
</mgrwt>
</event>
<event>
12    4  0.4413110E-008  0.1606107E+04  0.7818608E-02  0.8816805E-01
          1   -1    0    0  501    0  0.00000000000E+00  0.00000000000E+00  0.33978417962E+04  0.33978417962E+04  0.00000000000E+00 0. -1.
         -2   -1    0    0    0  501 -0.00000000000E+00 -0.00000000000E+00 -0.18979550157E+03  0.18979550157E+03  0.00000000000E+00 0.  1.
        -24    2    1    2    0    0  0.16626327154E+03 -0.51635188092E+03  0.96577145764E+03  0.11106853397E+04  0.81514876560E+02 0.  0.
        254    2    1    2    0    0 -0.16626327154E+03  0.51635188092E+03  0.22422748370E+04  0.24769519581E+04  0.90179366681E+03 0.  0.
         23    2    4    4    0    0  0.10156452051E+03  0.44460123727E+03  0.40514691621E+03  0.61674647710E+03  0.90810689318E+02 0.  0.
         23    2    4    4    0    0 -0.26782779204E+03  0.71750643647E+02  0.18371279208E+04  0.18602054810E+04  0.91899689734E+02 0.  0.
          3    1    3    3  502    0  0.12529024237E+02 -0.34024724957E+02  0.11617984197E+03  0.12170626129E+03  0.00000000000E+00 0. -1.
         -2    1    3    3    0  502  0.15373424730E+03 -0.48232715596E+03  0.84959161568E+03  0.98897907844E+03  0.00000000000E+00 0.  1.
         11    1    5    5    0    0  0.45735369987E+02  0.20844902708E+03  0.13002104786E+03  0.24989636621E+03  0.00000000000E+00 0.  1.
        -11    1    5    5    0    0  0.55829150518E+02  0.23615221019E+03  0.27512586834E+03  0.36685011089E+03  0.00000000000E+00 0. -1.
          3    1    6    6  503    0 -0.13852160662E+03 -0.56983621849E+01  0.75392160083E+03  0.76656277436E+03  0.00000000000E+00 0. -1.
         -3    1    6    6    0  503 -0.12930618543E+03  0.77449005832E+02  0.10832063200E+04  0.10936427066E+04  0.00000000000E+00 0.  1.
<mgrwt>
<rscale>  0 0.16061072E+04</rscale>
<asrwt>0</asrwt>
<pdfrwt beam="1">  1        1 0.52274485E+00 0.16061072E+04</pdfrwt>
<pdfrwt beam="2">  1       -2 0.29199310E-01 0.16061072E+04</pdfrwt>
<totfact> 0.27515635E+00</totfact>
</mgrwt>
</event>
<event>
12    4  0.4413110E-008  0.1354669E+04  0.7818608E-02  0.8987301E-01
         -2   -1    0    0    0  501 -0.00000000000E+00  0.00000000000E+00  0.62870062434E+03  0.62870062434E+03  0.00000000000E+00 0.  1.
          1   -1    0    0  501    0  0.00000000000E+00 -0.00000000000E+00 -0.72973058606E+03  0.72973058606E+03  0.00000000000E+00 0. -1.
        -24    2    1    2    0    0  0.55490855982E+02  0.29252480515E+03 -0.26831122753E+03  0.40843037905E+03  0.78577751238E+02 0.  0.
        254    2    1    2    0    0 -0.55490855982E+02 -0.29252480515E+03  0.16728126581E+03  0.95000083134E+03  0.88649227912E+03 0.  0.
         23    2    4    4    0    0 -0.25173242947E+03  0.12749206063E+03  0.33667549936E+03  0.44806610506E+03  0.88257583644E+02 0.  0.
         23    2    4    4    0    0  0.19624157348E+03 -0.42001686578E+03 -0.16939423355E+03  0.50193472628E+03  0.91209321774E+02 0.  0.
          3    1    3    3  502    0  0.20169913582E+01  0.20218458968E+03 -0.16278810892E+03  0.25958167301E+03  0.00000000000E+00 0. -1.
         -4    1    3    3    0  502  0.53473864624E+02  0.90340215469E+02 -0.10552311861E+03  0.14884870604E+03  0.00000000000E+00 0.  1.
         11    1    5    5    0    0 -0.94017803145E+02  0.71909093928E+02  0.84294578962E+02  0.14531290769E+03  0.00000000000E+00 0. -1.
        -11    1    5    5    0    0 -0.15771462632E+03  0.55582966705E+02  0.25238092039E+03  0.30275319738E+03  0.00000000000E+00 0.  1.
          2    1    6    6  503    0  0.27593809264E+02 -0.13541206336E+03 -0.22690709560E+02  0.14004539804E+03  0.00000000000E+00 0. -1.
         -2    1    6    6    0  503  0.16864776422E+03 -0.28460480242E+03 -0.14670352399E+03  0.36188932823E+03  0.00000000000E+00 0.  1.
<mgrwt>
<rscale>  0 0.13546691E+04</rscale>
<asrwt>0</asrwt>
<pdfrwt beam="1">  1        1 0.11226624E+00 0.13546691E+04</pdfrwt>
<pdfrwt beam="2">  1       -2 0.96723172E-01 0.13546691E+04</pdfrwt>
<totfact> 0.19572328E+01</totfact>
</mgrwt>
</event>
<event>
12    4  0.4413110E-008  0.1612501E+04  0.7818608E-02  0.8812905E-01
         -2   -1    0    0    0  501 -0.00000000000E+00  0.00000000000E+00  0.68320591680E+03  0.68320591680E+03  0.00000000000E+00 0.  1.
          1   -1    0    0  501    0  0.00000000000E+00 -0.00000000000E+00 -0.95145473753E+03  0.95145473753E+03  0.00000000000E+00 0. -1.
        -24    2    1    2    0    0  0.24492859297E+03 -0.47127801607E+02 -0.59025231157E+03  0.64503052851E+03  0.73861668462E+02 0.  0.
        254    2    1    2    0    0 -0.24492859297E+03  0.47127801607E+02  0.32200349084E+03  0.98963012581E+03  0.90192599057E+03 0.  0.
         23    2    4    4    0    0 -0.41931387537E+03  0.35507729387E+02  0.54322458424E+03  0.69331516572E+03  0.92239065312E+02 0.  0.
         23    2    4    4    0    0  0.17438528241E+03  0.11620072220E+02 -0.22122109340E+03  0.29631496009E+03  0.91205979024E+02 0.  0.
          1    1    3    3  502    0  0.20859194846E+03 -0.20564181904E+02 -0.52905390111E+03  0.56906196220E+03  0.00000000000E+00 0. -1.
         -2    1    3    3    0  502  0.36336644506E+02 -0.26563619703E+02 -0.61198410452E+02  0.75968566313E+02  0.00000000000E+00 0.  1.
         11    1    5    5    0    0 -0.37954699749E+03  0.39400240215E+02  0.52592661019E+03  0.64977465443E+03  0.00000000000E+00 0. -1.
        -11    1    5    5    0    0 -0.39766877887E+02 -0.38925108278E+01  0.17297974047E+02  0.43540511292E+02  0.00000000000E+00 0.  1.
          4    1    6    6  503    0  0.88194785736E+02 -0.34281241377E+02 -0.14166048363E+03  0.17035614565E+03  0.00000000000E+00 0. -1.
         -4    1    6    6    0  503  0.86190496671E+02  0.45901313597E+02 -0.79560609774E+02  0.12595881444E+03  0.00000000000E+00 0.  1.
<mgrwt>
<rscale>  0 0.16125006E+04</rscale>
<asrwt>0</asrwt>
<pdfrwt beam="1">  1        1 0.14637765E+00 0.16125006E+04</pdfrwt>
<pdfrwt beam="2">  1       -2 0.10510860E+00 0.16125006E+04</pdfrwt>
<totfact> 0.10183805E+01</totfact>
</mgrwt>
</event>
<event>
12    4  0.4413110E-008  0.3521503E+04  0.7818608E-02  0.8108713E-01
         -2   -1    0    0    0  501 -0.00000000000E+00  0.00000000000E+00  0.10964717498E+04  0.10964717498E+04  0.00000000000E+00 0.  1.
          1   -1    0    0  501    0  0.00000000000E+00 -0.00000000000E+00 -0.28274751377E+04  0.28274751377E+04  0.00000000000E+00 0. -1.
        -24    2    1    2    0    0  0.22656967094E+03  0.82890686874E+02  0.10028933168E+04  0.10346501554E+04  0.80630374991E+02 0.  0.
        254    2    1    2    0    0 -0.22656967094E+03 -0.82890686874E+02 -0.27338967047E+04  0.28892967322E+04  0.90312774985E+03 0.  0.
         23    2    4    4    0    0 -0.42598941356E+02  0.76624594770E+01 -0.26452962973E+04  0.26472699544E+04  0.92586866847E+02 0.  0.
         23    2    4    4    0    0 -0.18397072958E+03 -0.90553146351E+02 -0.88600407462E+02  0.24202677778E+03  0.93176323720E+02 0.  0.
          3    1    3    3  502    0  0.15558276844E+02  0.25447262190E+02  0.21164533397E+03  0.21373668502E+03  0.00000000000E+00 0. -1.
         -4    1    3    3    0  502  0.21101139409E+03  0.57443424683E+02  0.79124798287E+03  0.82091347039E+03  0.00000000000E+00 0.  1.
         11    1    5    5    0    0 -0.18537472309E+02  0.41291338694E+02 -0.20677328104E+04  0.20682281275E+04  0.00000000000E+00 0. -1.
        -11    1    5    5    0    0 -0.24061469047E+02 -0.33628879217E+02 -0.57756348693E+03  0.57904182685E+03  0.00000000000E+00 0.  1.
          3    1    6    6  503    0 -0.19084446115E+03 -0.80912317826E+02 -0.67803789549E+02  0.21809577118E+03  0.00000000000E+00 0. -1.
         -3    1    6    6    0  503  0.68737315689E+01 -0.96408285245E+01 -0.20796617913E+02  0.23931006601E+02  0.00000000000E+00 0.  1.
<mgrwt>
<rscale>  0 0.35215034E+04</rscale>
<asrwt>0</asrwt>
<pdfrwt beam="1">  1        1 0.43499617E+00 0.35215034E+04</pdfrwt>
<pdfrwt beam="2">  1       -2 0.16868797E+00 0.35215034E+04</pdfrwt>
<totfact> 0.12431097E-01</totfact>
</mgrwt>
</event>
<event>
12    4  0.4413110E-008  0.1998600E+04  0.7818608E-02  0.8607275E-01
          1   -1    0    0  501    0  0.00000000000E+00  0.00000000000E+00  0.33236250996E+04  0.33236250996E+04  0.00000000000E+00 0. -1.
         -2   -1    0    0    0  501 -0.00000000000E+00 -0.00000000000E+00 -0.30045527768E+03  0.30045527768E+03  0.00000000000E+00 0.  1.
        -24    2    1    2    0    0  0.70184131000E+03  0.34469912455E+03  0.14647911958E+04  0.16623768801E+04  0.80529083294E+02 0.  0.
        254    2    1    2    0    0 -0.70184131000E+03 -0.34469912455E+03  0.15583786261E+04  0.19617034972E+04  0.89907616899E+03 0.  0.
         23    2    4    4    0    0 -0.29863562309E+03  0.29295721097E+03  0.49344763036E+03  0.65355478889E+03  0.92930809409E+02 0.  0.
         23    2    4    4    0    0 -0.40320568691E+03 -0.63765633552E+03  0.10649309957E+04  0.13081487083E+04  0.89412466145E+02 0.  0.
          3    1    3    3  502    0  0.70213116101E+03  0.34736543710E+03  0.14603650068E+04  0.16572015168E+04  0.00000000000E+00 0. -1.
         -4    1    3    3    0  502 -0.28985101371E+00 -0.26663125468E+01  0.44261890705E+01  0.51753633588E+01  0.00000000000E+00 0.  1.
         11    1    5    5    0    0 -0.93263333481E+01  0.41614969361E+02  0.29827033384E+02  0.52042656439E+02  0.00000000000E+00 0.  1.
        -11    1    5    5    0    0 -0.28930928974E+03  0.25134224161E+03  0.46362059698E+03  0.60151213245E+03  0.00000000000E+00 0. -1.
          3    1    6    6  503    0 -0.24361916615E+03 -0.41413335120E+03  0.74502405539E+03  0.88651992296E+03  0.00000000000E+00 0. -1.
         -3    1    6    6    0  503 -0.15958652075E+03 -0.22352298433E+03  0.31990694033E+03  0.42162878531E+03  0.00000000000E+00 0.  1.
<mgrwt>
<rscale>  0 0.19986002E+04</rscale>
<asrwt>0</asrwt>
<pdfrwt beam="1">  1        1 0.51132691E+00 0.19986002E+04</pdfrwt>
<pdfrwt beam="2">  1       -2 0.46223891E-01 0.19986002E+04</pdfrwt>
<totfact> 0.12434111E+00</totfact>
</mgrwt>
</event>
<event>
12    4  0.4413110E-008  0.1677203E+04  0.7818608E-02  0.8774474E-01
         -2   -1    0    0    0  501 -0.00000000000E+00  0.00000000000E+00  0.65730171690E+03  0.65730171690E+03  0.00000000000E+00 0.  1.
          1   -1    0    0  501    0  0.00000000000E+00 -0.00000000000E+00 -0.10699077619E+04  0.10699077619E+04  0.00000000000E+00 0. -1.
        -24    2    1    2    0    0 -0.14701913045E+03 -0.53306238209E+03 -0.30175147965E+03  0.63457747125E+03  0.76579916630E+02 0.  0.
        254    2    1    2    0    0  0.14701913045E+03  0.53306238209E+03 -0.11085456530E+03  0.10926320075E+04  0.93583430224E+03 0.  0.
         23    2    4    4    0    0  0.41709147783E+03 -0.31791523715E+02 -0.16397029801E+03  0.45763319080E+03  0.86982048947E+02 0.  0.
         23    2    4    4    0    0 -0.27007234738E+03  0.56485390581E+03  0.53115732705E+02  0.63499881669E+03  0.91669015576E+02 0.  0.
          1    1    3    3  502    0 -0.10955255320E+03 -0.42082426165E+03 -0.20051699319E+03  0.47885476469E+03  0.00000000000E+00 0. -1.
         -2    1    3    3    0  502 -0.37466577245E+02 -0.11223812044E+03 -0.10123448646E+03  0.15572270657E+03  0.00000000000E+00 0.  1.
         11    1    5    5    0    0  0.29165520933E+03 -0.62062606875E+02 -0.11678658230E+03  0.32023996332E+03  0.00000000000E+00 0. -1.
        -11    1    5    5    0    0  0.12543626850E+03  0.30271083160E+02 -0.47183715705E+02  0.13739322749E+03  0.00000000000E+00 0.  1.
          4    1    6    6  503    0 -0.13461980174E+03  0.38071002495E+03  0.44293894624E+02  0.40623215434E+03  0.00000000000E+00 0. -1.
         -4    1    6    6    0  503 -0.13545254564E+03  0.18414388085E+03  0.88218380816E+01  0.22876666235E+03  0.00000000000E+00 0.  1.
<mgrwt>
<rscale>  0 0.16772027E+04</rscale>
<asrwt>0</asrwt>
<pdfrwt beam="1">  1        1 0.16460119E+00 0.16772027E+04</pdfrwt>
<pdfrwt beam="2">  1       -2 0.10112334E+00 0.16772027E+04</pdfrwt>
<totfact> 0.89852760E+00</totfact>
</mgrwt>
</event>
<event>
12    4  0.4413110E-008  0.1838903E+04  0.7818608E-02  0.8685880E-01
         -2   -1    0    0    0  501 -0.00000000000E+00  0.00000000000E+00  0.76630409541E+03  0.76630409541E+03  0.00000000000E+00 0.  1.
          1   -1    0    0  501    0  0.00000000000E+00 -0.00000000000E+00 -0.11032061996E+04  0.11032061996E+04  0.00000000000E+00 0. -1.
        -24    2    1    2    0    0 -0.27797199217E+03  0.30156070489E+03  0.41652834771E+03  0.59035217830E+03  0.82538129427E+02 0.  0.
        254    2    1    2    0    0  0.27797199217E+03 -0.30156070489E+03 -0.75343045195E+03  0.12791581168E+04  0.94888395211E+03 0.  0.
         23    2    4    4    0    0  0.45654944404E+03  0.12295644613E+03 -0.13126673131E+03  0.49978460141E+03  0.94857843930E+02 0.  0.
         23    2    4    4    0    0 -0.17857745187E+03 -0.42451715102E+03 -0.62216372065E+03  0.77937351535E+03  0.90723003242E+02 0.  0.
          1    1    3    3  502    0 -0.12656843077E+03  0.79474070359E+02  0.15556888053E+03  0.21572522365E+03  0.00000000000E+00 0. -1.
         -2    1    3    3    0  502 -0.15140356141E+03  0.22208663453E+03  0.26095946717E+03  0.37462695465E+03  0.00000000000E+00 0.  1.
         11    1    5    5    0    0  0.18186107171E+03  0.28796210965E+02 -0.94879873116E+02  0.20713488719E+03  0.00000000000E+00 0.  1.
        -11    1    5    5    0    0  0.27468837233E+03  0.94160235169E+02 -0.36386858192E+02  0.29264971422E+03  0.00000000000E+00 0. -1.
          2    1    6    6  503    0 -0.22603933178E+02 -0.62847816458E+02 -0.15204507678E+03  0.16606773077E+03  0.00000000000E+00 0. -1.
         -2    1    6    6    0  503 -0.15597351869E+03 -0.36166933456E+03 -0.47011864386E+03  0.61330578458E+03  0.00000000000E+00 0.  1.
<mgrwt>
<rscale>  0 0.18389034E+04</rscale>
<asrwt>0</asrwt>
<pdfrwt beam="1">  1        1 0.16972403E+00 0.18389034E+04</pdfrwt>
<pdfrwt beam="2">  1       -2 0.11789294E+00 0.18389034E+04</pdfrwt>
<totfact> 0.57693744E+00</totfact>
</mgrwt>
</event>
<event>
12    4  0.4413110E-008  0.2148494E+04  0.7818608E-02  0.8540177E-01
         -2   -1    0    0    0  501 -0.00000000000E+00  0.00000000000E+00  0.73266801767E+03  0.73266801767E+03  0.00000000000E+00 0.  1.
          1   -1    0    0  501    0  0.00000000000E+00 -0.00000000000E+00 -0.15750750841E+04  0.15750750841E+04  0.00000000000E+00 0. -1.
        -24    2    1    2    0    0 -0.56415082662E+03  0.48729258744E+03  0.15190324829E+03  0.76512377688E+03  0.81360777775E+02 0.  0.
        254    2    1    2    0    0  0.56415082662E+03 -0.48729258744E+03 -0.99431031469E+03  0.15426193249E+04  0.91394811592E+03 0.  0.
         23    2    4    4    0    0  0.53119802037E+03 -0.28599455530E+03 -0.11268897639E+04  0.12814364784E+04  0.90745169135E+02 0.  0.
         23    2    4    4    0    0  0.32952806248E+02 -0.20129803214E+03  0.13257944917E+03  0.26118284648E+03  0.95038854008E+02 0.  0.
          1    1    3    3  502    0 -0.15142199226E+03  0.92651205047E+02  0.16747000215E+02  0.17830683541E+03  0.00000000000E+00 0. -1.
         -2    1    3    3    0  502 -0.41272883436E+03  0.39464138240E+03  0.13515624807E+03  0.58681694148E+03  0.00000000000E+00 0.  1.
         11    1    5    5    0    0  0.82413065398E+02 -0.61152178161E+02 -0.13306644792E+03  0.16804220245E+03  0.00000000000E+00 0.  1.
        -11    1    5    5    0    0  0.44878495497E+03 -0.22484237714E+03 -0.99382331594E+03  0.11133942759E+04  0.00000000000E+00 0. -1.
          1    1    6    6  503    0  0.52742361542E+02 -0.14243428094E+03  0.54386415511E+02  0.16132936273E+03  0.00000000000E+00 0. -1.
         -1    1    6    6    0  503 -0.19789555294E+02 -0.58863751205E+02  0.78193033660E+02  0.99853483753E+02  0.00000000000E+00 0.  1.
<mgrwt>
<rscale>  0 0.21484945E+04</rscale>
<asrwt>0</asrwt>
<pdfrwt beam="1">  1        1 0.24231924E+00 0.21484945E+04</pdfrwt>
<pdfrwt beam="2">  1       -2 0.11271816E+00 0.21484945E+04</pdfrwt>
<totfact> 0.28900343E+00</totfact>
</mgrwt>
</event>
<event>
12    4  0.4413110E-008  0.3694612E+04  0.7818608E-02  0.8069157E-01
         -2   -1    0    0    0  501 -0.00000000000E+00  0.00000000000E+00  0.13709954518E+04  0.13709954518E+04  0.00000000000E+00 0.  1.
          1   -1    0    0  501    0  0.00000000000E+00 -0.00000000000E+00 -0.24890958600E+04  0.24890958600E+04  0.00000000000E+00 0. -1.
        -24    2    1    2    0    0 -0.13619270281E+04 -0.45800887694E+03 -0.15424605474E+04  0.21096310568E+04  0.82105385316E+02 0.  0.
        254    2    1    2    0    0  0.13619270281E+04  0.45800887694E+03  0.42436013923E+03  0.17504602550E+04  0.90521390576E+03 0.  0.
         23    2    4    4    0    0  0.73383590425E+03  0.35915564282E+03 -0.20933714299E+03  0.84820847206E+03  0.90153549553E+02 0.  0.
         23    2    4    4    0    0  0.62809112389E+03  0.98853234125E+02  0.63369728222E+03  0.90225178293E+03  0.90640015981E+02 0.  0.
          1    1    3    3  502    0 -0.11221299671E+04 -0.39955201603E+03 -0.13101297164E+04  0.17706657930E+04  0.00000000000E+00 0. -1.
         -2    1    3    3    0  502 -0.23979706101E+03 -0.58456860916E+02 -0.23233083096E+03  0.33896526381E+03  0.00000000000E+00 0.  1.
         11    1    5    5    0    0  0.71175110822E+03  0.34576881127E+03 -0.21833112734E+03  0.82086185931E+03  0.00000000000E+00 0. -1.
        -11    1    5    5    0    0  0.22084796030E+02  0.13386831542E+02  0.89939843426E+01  0.27346612748E+02  0.00000000000E+00 0.  1.
          4    1    6    6  503    0  0.10673752282E+03  0.51547732889E+02  0.12634754226E+03  0.17324482381E+03  0.00000000000E+00 0.  1.
         -4    1    6    6    0  503  0.52135360108E+03  0.47305501236E+02  0.50734973996E+03  0.72900695912E+03  0.00000000000E+00 0. -1.
<mgrwt>
<rscale>  0 0.36946118E+04</rscale>
<asrwt>0</asrwt>
<pdfrwt beam="1">  1        1 0.38293782E+00 0.36946118E+04</pdfrwt>
<pdfrwt beam="2">  1       -2 0.21092238E+00 0.36946118E+04</pdfrwt>
<totfact> 0.10997317E-01</totfact>
</mgrwt>
</event>
<event>
12    4  0.4413110E-008  0.1415323E+04  0.7818608E-02  0.8942801E-01
         -2   -1    0    0    0  501 -0.00000000000E+00  0.00000000000E+00  0.30601519318E+03  0.30601519318E+03  0.00000000000E+00 0.  1.
          1   -1    0    0  501    0  0.00000000000E+00 -0.00000000000E+00 -0.16364700126E+04  0.16364700126E+04  0.00000000000E+00 0. -1.
        -24    2    1    2    0    0  0.23500142920E+03 -0.21803029947E+03 -0.40685440835E+02  0.33357116642E+03  0.82773998069E+02 0.  0.
        254    2    1    2    0    0 -0.23500142920E+03  0.21803029947E+03 -0.12897693786E+04  0.16089140393E+04  0.90682768645E+03 0.  0.
         23    2    4    4    0    0 -0.31575730589E+03 -0.28748477681E+03 -0.65489839057E+03  0.78804291409E+03  0.98841081313E+02 0.  0.
         23    2    4    4    0    0  0.80755876689E+02  0.50551507627E+03 -0.63487098799E+03  0.82087112526E+03  0.93280378031E+02 0.  0.
          1    1    3    3  502    0  0.78705148706E+02 -0.65533840965E+02 -0.52100333987E+02  0.11490704742E+03  0.00000000000E+00 0. -1.
         -2    1    3    3    0  502  0.15629628049E+03 -0.15249645850E+03  0.11414893152E+02  0.21866411900E+03  0.00000000000E+00 0.  1.
         11    1    5    5    0    0 -0.14021043460E+03 -0.83285628748E+02 -0.18641485992E+03  0.24768116990E+03  0.00000000000E+00 0. -1.
        -11    1    5    5    0    0 -0.17554687129E+03 -0.20419914806E+03 -0.46848353065E+03  0.54036174418E+03  0.00000000000E+00 0.  1.
          3    1    6    6  503    0  0.69557595821E+01  0.72158367826E+02 -0.14868576045E+03  0.16541664970E+03  0.00000000000E+00 0. -1.
         -3    1    6    6    0  503  0.73800117107E+02  0.43335670844E+03 -0.48618522754E+03  0.65545447555E+03  0.00000000000E+00 0.  1.
<mgrwt>
<rscale>  0 0.14153228E+04</rscale>
<asrwt>0</asrwt>
<pdfrwt beam="1">  1        1 0.25176462E+00 0.14153228E+04</pdfrwt>
<pdfrwt beam="2">  1       -2 0.47079261E-01 0.14153228E+04</pdfrwt>
<totfact> 0.19254764E+01</totfact>
</mgrwt>
</event>
<event>
12    4  0.4413110E-008  0.2078056E+04  0.7818608E-02  0.8570972E-01
          1   -1    0    0  501    0  0.00000000000E+00  0.00000000000E+00  0.12158841881E+04  0.12158841881E+04  0.00000000000E+00 0. -1.
         -2   -1    0    0    0  501 -0.00000000000E+00 -0.00000000000E+00 -0.88789672529E+03  0.88789672529E+03  0.00000000000E+00 0.  1.
        -24    2    1    2    0    0  0.20628725282E+03 -0.15943047277E+03  0.94403161195E+03  0.98261397354E+03  0.79762336413E+02 0.  0.
        254    2    1    2    0    0 -0.20628725282E+03  0.15943047277E+03 -0.61604414918E+03  0.11211669398E+04  0.89974018854E+03 0.  0.
         23    2    4    4    0    0  0.24950911725E+03 -0.19486535686E+03 -0.10615606906E+03  0.34528810757E+03  0.87905968717E+02 0.  0.
         23    2    4    4    0    0 -0.45579637007E+03  0.35429582963E+03 -0.50988808011E+03  0.77587883224E+03  0.93414357608E+02 0.  0.
          3    1    3    3  502    0  0.10087664730E+03 -0.11843351541E+03  0.62698197949E+03  0.64599458059E+03  0.00000000000E+00 0. -1.
         -4    1    3    3    0  502  0.10541060552E+03 -0.40996957361E+02  0.31704963246E+03  0.33661939296E+03  0.00000000000E+00 0.  1.
         11    1    5    5    0    0  0.21213381571E+03 -0.14759551389E+03 -0.11763772063E+03  0.28394334788E+03  0.00000000000E+00 0. -1.
        -11    1    5    5    0    0  0.37375301542E+02 -0.47269842972E+02  0.11481651562E+02  0.61344759699E+02  0.00000000000E+00 0.  1.
          3    1    6    6  503    0 -0.34487225620E+03  0.22937554138E+03 -0.40077278234E+03  0.57634090185E+03  0.00000000000E+00 0. -1.
         -3    1    6    6    0  503 -0.11092411388E+03  0.12492028826E+03 -0.10911529777E+03  0.19953793039E+03  0.00000000000E+00 0.  1.
<mgrwt>
<rscale>  0 0.20780564E+04</rscale>
<asrwt>0</asrwt>
<pdfrwt beam="1">  1        1 0.18705911E+00 0.20780564E+04</pdfrwt>
<pdfrwt beam="2">  1       -2 0.13659950E+00 0.20780564E+04</pdfrwt>
<totfact> 0.32191858E+00</totfact>
</mgrwt>
</event>
<event>
12    4  0.4413110E-008  0.4002407E+04  0.7818608E-02  0.8004061E-01
         -2   -1    0    0    0  501 -0.00000000000E+00  0.00000000000E+00  0.17042091809E+04  0.17042091809E+04  0.00000000000E+00 0.  1.
          1   -1    0    0  501    0  0.00000000000E+00 -0.00000000000E+00 -0.23499555330E+04  0.23499555330E+04  0.00000000000E+00 0. -1.
        -24    2    1    2    0    0  0.72389614189E+03  0.57685015520E+03 -0.19848779669E+04  0.21928859635E+04  0.11057386554E+03 0.  0.
        254    2    1    2    0    0 -0.72389614189E+03 -0.57685015520E+03  0.13391316148E+04  0.18612787503E+04  0.90238759905E+03 0.  0.
         23    2    4    4    0    0 -0.51450940860E+03 -0.34380469694E+03  0.13965457398E+04  0.15298266347E+04  0.84308526438E+02 0.  0.
         23    2    4    4    0    0 -0.20938673329E+03 -0.23304545826E+03 -0.57414124980E+02  0.33145211568E+03  0.91712232267E+02 0.  0.
          3    1    3    3  502    0  0.45650082647E+03  0.39920016639E+03 -0.13999640787E+04  0.15256648384E+04  0.00000000000E+00 0. -1.
         -2    1    3    3    0  502  0.26739531542E+03  0.17764998880E+03 -0.58491388822E+03  0.66722112516E+03  0.00000000000E+00 0.  1.
         11    1    5    5    0    0 -0.26976226248E+03 -0.20042549635E+03  0.85077089069E+03  0.91474213104E+03  0.00000000000E+00 0. -1.
        -11    1    5    5    0    0 -0.24474714612E+03 -0.14337920059E+03  0.54577484910E+03  0.61508450363E+03  0.00000000000E+00 0.  1.
          3    1    6    6  503    0 -0.13190188206E+03 -0.17711047168E+03 -0.77058139792E+02  0.23388925280E+03  0.00000000000E+00 0. -1.
         -3    1    6    6    0  503 -0.77484851238E+02 -0.55934986579E+02  0.19644014812E+02  0.97562862877E+02  0.00000000000E+00 0.  1.
<mgrwt>
<rscale>  0 0.40024072E+04</rscale>
<asrwt>0</asrwt>
<pdfrwt beam="1">  1        1 0.36153162E+00 0.40024072E+04</pdfrwt>
<pdfrwt beam="2">  1       -2 0.26218603E+00 0.40024072E+04</pdfrwt>
<totfact> 0.64043193E-02</totfact>
</mgrwt>
</event>
<event>
12    4  0.4413110E-008  0.1196514E+04  0.7818608E-02  0.9115914E-01
         -2   -1    0    0    0  501 -0.00000000000E+00  0.00000000000E+00  0.64565942633E+03  0.64565942633E+03  0.00000000000E+00 0.  1.
          1   -1    0    0  501    0  0.00000000000E+00 -0.00000000000E+00 -0.55433448002E+03  0.55433448002E+03  0.00000000000E+00 0. -1.
        -24    2    1    2    0    0  0.17882556454E+03 -0.10598410594E+03 -0.12568826911E+03  0.25524720300E+03  0.78373339861E+02 0.  0.
        254    2    1    2    0    0 -0.17882556454E+03  0.10598410594E+03  0.21701321541E+03  0.94474670335E+03  0.89567872844E+03 0.  0.
         23    2    4    4    0    0  0.28939623097E+03 -0.18704426112E+03  0.35551284104E+02  0.35608041279E+03  0.82423494524E+02 0.  0.
         23    2    4    4    0    0 -0.46822179551E+03  0.29302836706E+03  0.18146193131E+03  0.58866629057E+03  0.92207892506E+02 0.  0.
          1    1    3    3  502    0  0.33420643071E+02 -0.17934931164E+02 -0.64036548628E+02  0.74426344122E+02  0.00000000000E+00 0. -1.
         -2    1    3    3    0  502  0.14540492147E+03 -0.88049174775E+02 -0.61651720485E+02  0.18082085888E+03  0.00000000000E+00 0.  1.
         11    1    5    5    0    0  0.45766416576E+01 -0.11380361921E+02 -0.13079269269E+02  0.17931134123E+02  0.00000000000E+00 0.  1.
        -11    1    5    5    0    0  0.28481958931E+03 -0.17566389920E+03  0.48630553373E+02  0.33814927866E+03  0.00000000000E+00 0. -1.
          4    1    6    6  503    0 -0.38267933793E+03  0.25359520291E+03  0.11463802165E+03  0.47317637158E+03  0.00000000000E+00 0. -1.
         -4    1    6    6    0  503 -0.85542457579E+02  0.39433164150E+02  0.66823909664E+02  0.11548991898E+03  0.00000000000E+00 0.  1.
<mgrwt>
<rscale>  0 0.11965137E+04</rscale>
<asrwt>0</asrwt>
<pdfrwt beam="1">  1        1 0.85282228E-01 0.11965137E+04</pdfrwt>
<pdfrwt beam="2">  1       -2 0.99332219E-01 0.11965137E+04</pdfrwt>
<totfact> 0.27886506E+01</totfact>
</mgrwt>
</event>
<event>
12    4  0.4413110E-008  0.1888077E+04  0.7818608E-02  0.8660814E-01
         -2   -1    0    0    0  501 -0.00000000000E+00  0.00000000000E+00  0.40661020630E+03  0.40661020630E+03  0.00000000000E+00 0.  1.
          1   -1    0    0  501    0  0.00000000000E+00 -0.00000000000E+00 -0.21918006741E+04  0.21918006741E+04  0.00000000000E+00 0. -1.
        -24    2    1    2    0    0 -0.34286420422E+03 -0.29554023108E+03  0.95254960156E+02  0.46928958651E+03  0.79115850818E+02 0.  0.
        254    2    1    2    0    0  0.34286420422E+03  0.29554023108E+03 -0.18804454279E+04  0.21291212939E+04  0.89004639533E+03 0.  0.
         23    2    4    4    0    0 -0.19135669860E+03 -0.83158769290E+02 -0.10138974942E+04  0.10391866515E+04  0.91586029742E+02 0.  0.
         23    2    4    4    0    0  0.53422090281E+03  0.37869900037E+03 -0.86654793372E+03  0.10899346424E+04  0.90814631812E+02 0.  0.
          3    1    3    3  502    0 -0.19396544552E+03 -0.11569310548E+03  0.40161489473E+02  0.22939144262E+03  0.00000000000E+00 0. -1.
         -4    1    3    3    0  502 -0.14889875870E+03 -0.17984712560E+03  0.55093470683E+02  0.23989814388E+03  0.00000000000E+00 0.  1.
         11    1    5    5    0    0 -0.13976980810E+03 -0.46732914562E+02 -0.86478271324E+03  0.87725065157E+03  0.00000000000E+00 0.  1.
        -11    1    5    5    0    0 -0.51586890499E+02 -0.36425854728E+02 -0.14911478098E+03  0.16193599992E+03  0.00000000000E+00 0. -1.
          3    1    6    6  503    0  0.26052015553E+03  0.15421598981E+03 -0.46229744835E+03  0.55260497075E+03  0.00000000000E+00 0. -1.
         -3    1    6    6    0  503  0.27370074728E+03  0.22448301056E+03 -0.40425048537E+03  0.53732967163E+03  0.00000000000E+00 0.  1.
<mgrwt>
<rscale>  0 0.18880768E+04</rscale>
<asrwt>0</asrwt>
<pdfrwt beam="1">  1        1 0.33720011E+00 0.18880768E+04</pdfrwt>
<pdfrwt beam="2">  1       -2 0.62555416E-01 0.18880768E+04</pdfrwt>
<totfact> 0.43031415E+00</totfact>
</mgrwt>
</event>
<event>
12    4  0.4413110E-008  0.1752087E+04  0.7818608E-02  0.8732202E-01
          1   -1    0    0  501    0  0.00000000000E+00  0.00000000000E+00  0.49687887603E+03  0.49687887603E+03  0.00000000000E+00 0. -1.
         -2   -1    0    0    0  501 -0.00000000000E+00 -0.00000000000E+00 -0.15445454944E+04  0.15445454944E+04  0.00000000000E+00 0.  1.
        -24    2    1    2    0    0  0.24922034970E+03  0.13677846228E+03  0.28619786680E+03  0.41124731104E+03  0.79975005055E+02 0.  0.
        254    2    1    2    0    0 -0.24922034970E+03 -0.13677846228E+03 -0.13338644852E+04  0.16301770594E+04  0.89300820249E+03 0.  0.
         23    2    4    4    0    0  0.16798725708E+03 -0.71615253618E+02 -0.11369623572E+04  0.11557168776E+04  0.98232562596E+02 0.  0.
         23    2    4    4    0    0 -0.41720760678E+03 -0.65163208667E+02 -0.19690212800E+03  0.47446018183E+03  0.89630269505E+02 0.  0.
          1    1    3    3  502    0  0.10197859115E+03  0.92946626418E+02  0.16807469158E+03  0.21745760591E+03  0.00000000000E+00 0. -1.
         -2    1    3    3    0  502  0.14724175854E+03  0.43831835866E+02  0.11812317522E+03  0.19378970514E+03  0.00000000000E+00 0.  1.
         11    1    5    5    0    0  0.31609389419E+02 -0.49935366654E+02 -0.19727141235E+03  0.20593373806E+03  0.00000000000E+00 0. -1.
        -11    1    5    5    0    0  0.13637786766E+03 -0.21679886963E+02 -0.93969094487E+03  0.94978313954E+03  0.00000000000E+00 0.  1.
          3    1    6    6  503    0 -0.11375065733E+02 -0.20263009392E+02 -0.13256948490E+02  0.26753099883E+02  0.00000000000E+00 0. -1.
         -3    1    6    6    0  503 -0.40583254105E+03 -0.44900199274E+02 -0.18364517951E+03  0.44770708194E+03  0.00000000000E+00 0.  1.
<mgrwt>
<rscale>  0 0.17520868E+04</rscale>
<asrwt>0</asrwt>
<pdfrwt beam="1">  1        1 0.76442905E-01 0.17520868E+04</pdfrwt>
<pdfrwt beam="2">  1       -2 0.23762238E+00 0.17520868E+04</pdfrwt>
<totfact> 0.28393061E+00</totfact>
</mgrwt>
</event>
<event>
12    4  0.4413110E-008  0.1196423E+04  0.7818608E-02  0.9115993E-01
          1   -1    0    0  501    0  0.00000000000E+00  0.00000000000E+00  0.55590506336E+03  0.55590506336E+03  0.00000000000E+00 0. -1.
         -2   -1    0    0    0  501 -0.00000000000E+00 -0.00000000000E+00 -0.64373763166E+03  0.64373763166E+03  0.00000000000E+00 0.  1.
        -24    2    1    2    0    0 -0.30200386528E+02 -0.15257705328E+03 -0.24209645073E+03  0.29848138915E+03  0.79300868065E+02 0.  0.
        254    2    1    2    0    0  0.30200386528E+02  0.15257705328E+03  0.15426388243E+03  0.90116130587E+03  0.87412958607E+03 0.  0.
         23    2    4    4    0    0  0.11768067593E+03  0.48966315011E+03  0.17380827830E+03  0.54059425726E+03  0.91728356125E+02 0.  0.
         23    2    4    4    0    0 -0.87480289401E+02 -0.33708609682E+03 -0.19544395870E+02  0.36056704861E+03  0.91360688647E+02 0.  0.
          3    1    3    3  502    0 -0.49830498745E+02 -0.72184334329E+02 -0.15661659356E+03  0.17950602805E+03  0.00000000000E+00 0. -1.
         -4    1    3    3    0  502  0.19630112217E+02 -0.80392718955E+02 -0.85479857172E+02  0.11897536110E+03  0.00000000000E+00 0.  1.
         11    1    5    5    0    0  0.12398007269E+03  0.47036534391E+03  0.14941886093E+03  0.50886207481E+03  0.00000000000E+00 0. -1.
        -11    1    5    5    0    0 -0.62993967626E+01  0.19297806200E+02  0.24389417370E+02  0.31732182455E+02  0.00000000000E+00 0.  1.
          1    1    6    6  503    0  0.53349025238E+01 -0.15878559475E+03 -0.13796881005E+02  0.15947313319E+03  0.00000000000E+00 0. -1.
         -1    1    6    6    0  503 -0.92815191925E+02 -0.17830050208E+03 -0.57475148650E+01  0.20109391542E+03  0.00000000000E+00 0.  1.
<mgrwt>
<rscale>  0 0.11964230E+04</rscale>
<asrwt>0</asrwt>
<pdfrwt beam="1">  1        1 0.85523856E-01 0.11964230E+04</pdfrwt>
<pdfrwt beam="2">  1       -2 0.99036559E-01 0.11964230E+04</pdfrwt>
<totfact> 0.27971858E+01</totfact>
</mgrwt>
</event>
<event>
12    4  0.4413110E-008  0.1181441E+04  0.7818608E-02  0.9129258E-01
         -2   -1    0    0    0  501 -0.00000000000E+00  0.00000000000E+00  0.46851170160E+03  0.46851170160E+03  0.00000000000E+00 0.  1.
          1   -1    0    0  501    0  0.00000000000E+00 -0.00000000000E+00 -0.74480725486E+03  0.74480725486E+03  0.00000000000E+00 0. -1.
        -24    2    1    2    0    0 -0.84307377413E+02  0.92891179279E+02  0.16197513977E+03  0.22033427553E+03  0.81084782764E+02 0.  0.
        254    2    1    2    0    0  0.84307377413E+02 -0.92891179279E+02 -0.43827069303E+03  0.99298468093E+03  0.88215694246E+03 0.  0.
         23    2    4    4    0    0  0.44597933930E+03  0.39681986303E+02 -0.37792019619E+03  0.59281019755E+03  0.90155557277E+02 0.  0.
         23    2    4    4    0    0 -0.36167196189E+03 -0.13257316558E+03 -0.60350496844E+02  0.40017448339E+03  0.90084307374E+02 0.  0.
          3    1    3    3  502    0 -0.51994798750E+02  0.16616572459E+02  0.10928852939E+03  0.12216199177E+03  0.00000000000E+00 0. -1.
         -4    1    3    3    0  502 -0.32312578662E+02  0.76274606820E+02  0.52686610386E+02  0.98172283763E+02  0.00000000000E+00 0.  1.
         11    1    5    5    0    0  0.39071810453E+03  0.18283682315E+02 -0.35813406621E+03  0.53033474300E+03  0.00000000000E+00 0.  1.
        -11    1    5    5    0    0  0.55261234770E+02  0.21398303989E+02 -0.19786129977E+02  0.62475454551E+02  0.00000000000E+00 0. -1.
          4    1    6    6  503    0 -0.18508924293E+02 -0.51620151586E+00 -0.24536531711E+02  0.30739032692E+02  0.00000000000E+00 0. -1.
         -4    1    6    6    0  503 -0.34316303760E+03 -0.13205696407E+03 -0.35813965134E+02  0.36943545069E+03  0.00000000000E+00 0.  1.
<mgrwt>
<rscale>  0 0.11814413E+04</rscale>
<asrwt>0</asrwt>
<pdfrwt beam="1">  1        1 0.11458573E+00 0.11814413E+04</pdfrwt>
<pdfrwt beam="2">  1       -2 0.72078724E-01 0.11814413E+04</pdfrwt>
<totfact> 0.37479723E+01</totfact>
</mgrwt>
</event>
<event>
12    4  0.4413110E-008  0.2655016E+04  0.7818608E-02  0.8349750E-01
          1   -1    0    0  501    0  0.00000000000E+00  0.00000000000E+00  0.34258633009E+04  0.34258633009E+04  0.00000000000E+00 0. -1.
         -2   -1    0    0    0  501 -0.00000000000E+00 -0.00000000000E+00 -0.51440379175E+03  0.51440379175E+03  0.00000000000E+00 0.  1.
        -24    2    1    2    0    0  0.28141905190E+03 -0.11322926466E+04  0.14161496348E+04  0.18364989910E+04  0.77236232387E+02 0.  0.
        254    2    1    2    0    0 -0.28141905190E+03  0.11322926466E+04  0.14953098744E+04  0.21037681017E+04  0.91027758680E+03 0.  0.
         23    2    4    4    0    0 -0.50039320286E+03  0.43649897081E+03  0.10465634466E+04  0.12426603795E+04  0.89359174247E+02 0.  0.
         23    2    4    4    0    0  0.21897415096E+03  0.69579367575E+03  0.44874642772E+03  0.86110772214E+03  0.89747616910E+02 0.  0.
          1    1    3    3  502    0  0.20041205046E+03 -0.73903284332E+03  0.87655389559E+03  0.11639077564E+04  0.00000000000E+00 0. -1.
         -2    1    3    3    0  502  0.81007001440E+02 -0.39325980323E+03  0.53959573924E+03  0.67259123465E+03  0.00000000000E+00 0.  1.
         11    1    5    5    0    0 -0.24597338571E+03  0.15611003831E+03  0.46368026486E+03  0.54760628061E+03  0.00000000000E+00 0. -1.
        -11    1    5    5    0    0 -0.25441981714E+03  0.28038893250E+03  0.58288318178E+03  0.69505409892E+03  0.00000000000E+00 0.  1.
          1    1    6    6  503    0  0.16448244672E+03  0.61570594921E+03  0.40256099175E+03  0.75379283842E+03  0.00000000000E+00 0. -1.
         -1    1    6    6    0  503  0.54491704235E+02  0.80087726534E+02  0.46185435963E+02  0.10731488372E+03  0.00000000000E+00 0.  1.
<mgrwt>
<rscale>  0 0.26550157E+04</rscale>
<asrwt>0</asrwt>
<pdfrwt beam="1">  1        1 0.52705588E+00 0.26550157E+04</pdfrwt>
<pdfrwt beam="2">  1       -2 0.79139047E-01 0.26550157E+04</pdfrwt>
<totfact> 0.31198023E-01</totfact>
</mgrwt>
</event>
<event>
12    4  0.4413110E-008  0.1634356E+04  0.7818608E-02  0.8799715E-01
         -2   -1    0    0    0  501 -0.00000000000E+00  0.00000000000E+00  0.24833248785E+03  0.24833248785E+03  0.00000000000E+00 0.  1.
          1   -1    0    0  501    0  0.00000000000E+00 -0.00000000000E+00 -0.26890568846E+04  0.26890568846E+04  0.00000000000E+00 0. -1.
        -24    2    1    2    0    0  0.19035432586E+03 -0.20433380613E+03  0.24790489618E+02  0.29232505370E+03  0.82778589884E+02 0.  0.
        254    2    1    2    0    0 -0.19035432586E+03  0.20433380613E+03 -0.24655148864E+04  0.26450643187E+04  0.91630481920E+03 0.  0.
         23    2    4    4    0    0 -0.26969890790E+03  0.45065506761E+03 -0.82802274511E+03  0.98453105663E+03  0.88612889332E+02 0.  0.
         23    2    4    4    0    0  0.79344582037E+02 -0.24632126148E+03 -0.16374921412E+04  0.16605332621E+04  0.94976183204E+02 0.  0.
          3    1    3    3  502    0  0.87986082187E+02 -0.63572442071E+02 -0.24805541644E+02  0.11134774782E+03  0.00000000000E+00 0. -1.
         -4    1    3    3    0  502  0.10236824368E+03 -0.14076136406E+03  0.49596031262E+02  0.18097730588E+03  0.00000000000E+00 0.  1.
         11    1    5    5    0    0 -0.24641354495E+03  0.43530269629E+03 -0.74847010271E+03  0.90023084105E+03  0.00000000000E+00 0.  1.
        -11    1    5    5    0    0 -0.23285362946E+02  0.15352371322E+02 -0.79552642402E+02  0.84300215575E+02  0.00000000000E+00 0. -1.
          2    1    6    6  503    0 -0.13718789095E+02 -0.17753151246E+02 -0.27163150002E+03  0.27255651039E+03  0.00000000000E+00 0. -1.
         -2    1    6    6    0  503  0.93063371132E+02 -0.22856811023E+03 -0.13658606412E+04  0.13879767517E+04  0.00000000000E+00 0.  1.
<mgrwt>
<rscale>  0 0.16343564E+04</rscale>
<asrwt>0</asrwt>
<pdfrwt beam="1">  1        1 0.41370103E+00 0.16343564E+04</pdfrwt>
<pdfrwt beam="2">  1       -2 0.38205001E-01 0.16343564E+04</pdfrwt>
<totfact> 0.54450536E+00</totfact>
</mgrwt>
</event>
<event>
12    4  0.4413110E-008  0.1432677E+04  0.7818608E-02  0.8930499E-01
          1   -1    0    0  501    0  0.00000000000E+00  0.00000000000E+00  0.25271963948E+04  0.25271963948E+04  0.00000000000E+00 0. -1.
         -2   -1    0    0    0  501 -0.00000000000E+00 -0.00000000000E+00 -0.20304735536E+03  0.20304735536E+03  0.00000000000E+00 0.  1.
        -24    2    1    2    0    0 -0.23967394701E+03 -0.16484123681E+03  0.13082118228E+04  0.13426099896E+04  0.81038118149E+02 0.  0.
        254    2    1    2    0    0  0.23967394701E+03  0.16484123681E+03  0.10159372166E+04  0.13876337605E+04  0.89932351857E+03 0.  0.
         23    2    4    4    0    0 -0.24396123878E+02  0.12286506105E+03  0.10870424987E+04  0.10980552845E+04  0.91504206747E+02 0.  0.
         23    2    4    4    0    0  0.26407007089E+03  0.41976175757E+02 -0.71105282106E+02  0.28957847598E+03  0.85467718676E+02 0.  0.
          1    1    3    3  502    0 -0.18391222378E+03 -0.16241378977E+03  0.11014068805E+04  0.11284055395E+04  0.00000000000E+00 0. -1.
         -2    1    3    3    0  502 -0.55761723228E+02 -0.24274470405E+01  0.20680494233E+03  0.21420445011E+03  0.00000000000E+00 0.  1.
         11    1    5    5    0    0 -0.31228724404E+02  0.11840083934E+02  0.46094312640E+03  0.46215147581E+03  0.00000000000E+00 0. -1.
        -11    1    5    5    0    0  0.68326005255E+01  0.11102497712E+03  0.62609937230E+03  0.63590380874E+03  0.00000000000E+00 0.  1.
          3    1    6    6  503    0  0.18291858581E+03  0.66128656877E+02 -0.63318365289E+02  0.20455176283E+03  0.00000000000E+00 0. -1.
         -3    1    6    6    0  503  0.81151485080E+02 -0.24152481120E+02 -0.77869168174E+01  0.85026713146E+02  0.00000000000E+00 0.  1.
<mgrwt>
<rscale>  0 0.14326766E+04</rscale>
<asrwt>0</asrwt>
<pdfrwt beam="1">  1        1 0.38879942E+00 0.14326766E+04</pdfrwt>
<pdfrwt beam="2">  1       -2 0.31238057E-01 0.14326766E+04</pdfrwt>
<totfact> 0.10564745E+01</totfact>
</mgrwt>
</event>
<event>
12    4  0.4413110E-008  0.4219531E+04  0.7818608E-02  0.7961667E-01
          1   -1    0    0  501    0  0.00000000000E+00  0.00000000000E+00  0.50047531611E+04  0.50047531611E+04  0.00000000000E+00 0. -1.
         -2   -1    0    0    0  501 -0.00000000000E+00 -0.00000000000E+00 -0.88937650488E+03  0.88937650488E+03  0.00000000000E+00 0.  1.
        -24    2    1    2    0    0  0.24225000399E+03 -0.96717334646E+03 -0.48233658607E+03  0.11104980660E+04  0.80299599884E+02 0.  0.
        254    2    1    2    0    0 -0.24225000399E+03  0.96717334646E+03  0.45977132423E+04  0.47836316000E+04  0.86605708802E+03 0.  0.
         23    2    4    4    0    0  0.21317983689E+03  0.75521421972E+03  0.23696964920E+04  0.24979379751E+04  0.91861324135E+02 0.  0.
         23    2    4    4    0    0 -0.45542984088E+03  0.21195912674E+03  0.22280167503E+04  0.22856936249E+04  0.89407470871E+02 0.  0.
          1    1    3    3  502    0  0.62184840421E+02 -0.35428856059E+03 -0.20584289253E+03  0.41443773350E+03  0.00000000000E+00 0. -1.
         -2    1    3    3    0  502  0.18006516357E+03 -0.61288478587E+03 -0.27649369354E+03  0.69606033248E+03  0.00000000000E+00 0.  1.
         11    1    5    5    0    0  0.17423529449E+03  0.69860933875E+03  0.21183084857E+04  0.22373296106E+04  0.00000000000E+00 0. -1.
        -11    1    5    5    0    0  0.38944542408E+02  0.56604880976E+02  0.25138800637E+03  0.26060836456E+03  0.00000000000E+00 0.  1.
          4    1    6    6  503    0 -0.29073062984E+03  0.12861302560E+03  0.15920560446E+04  0.16234863900E+04  0.00000000000E+00 0. -1.
         -4    1    6    6    0  503 -0.16469921104E+03  0.83346101144E+02  0.63596070569E+03  0.66220723484E+03  0.00000000000E+00 0.  1.
<mgrwt>
<rscale>  0 0.42195307E+04</rscale>
<asrwt>0</asrwt>
<pdfrwt beam="1">  1        1 0.76996201E+00 0.42195307E+04</pdfrwt>
<pdfrwt beam="2">  1       -2 0.13682716E+00 0.42195307E+04</pdfrwt>
<totfact> 0.21788166E-03</totfact>
</mgrwt>
</event>
<event>
12    4  0.4413110E-008  0.1794060E+04  0.7818608E-02  0.8709465E-01
          1   -1    0    0  501    0  0.00000000000E+00  0.00000000000E+00  0.96327430422E+03  0.96327430422E+03  0.00000000000E+00 0. -1.
         -2   -1    0    0    0  501 -0.00000000000E+00 -0.00000000000E+00 -0.83534145697E+03  0.83534145697E+03  0.00000000000E+00 0.  1.
        -24    2    1    2    0    0 -0.23219290679E+03 -0.39902514692E+03  0.53198543568E+03  0.70912905464E+03  0.81981086397E+02 0.  0.
        254    2    1    2    0    0  0.23219290679E+03  0.39902514692E+03 -0.40405258843E+03  0.10894867065E+04  0.90032670497E+03 0.  0.
         23    2    4    4    0    0  0.15261946975E+03  0.34647698698E+03  0.22328987406E+03  0.44836937723E+03  0.88530929743E+02 0.  0.
         23    2    4    4    0    0  0.79573437044E+02  0.52548159933E+02 -0.62734246248E+03  0.64111732932E+03  0.91540284670E+02 0.  0.
          1    1    3    3  502    0 -0.71354189116E+02 -0.20074925259E+03  0.25876721312E+03  0.33518972732E+03  0.00000000000E+00 0. -1.
         -2    1    3    3    0  502 -0.16083871768E+03 -0.19827589433E+03  0.27321822256E+03  0.37393932732E+03  0.00000000000E+00 0.  1.
         11    1    5    5    0    0  0.51856313281E+02  0.59524884932E+02  0.16651598109E+02  0.80681874500E+02  0.00000000000E+00 0.  1.
        -11    1    5    5    0    0  0.10076315647E+03  0.28695210205E+03  0.20663827595E+03  0.36768750273E+03  0.00000000000E+00 0. -1.
          3    1    6    6  503    0  0.43949354066E+02  0.28869070637E+02 -0.55183925518E+03  0.55433882465E+03  0.00000000000E+00 0. -1.
         -3    1    6    6    0  503  0.35624082977E+02  0.23679089296E+02 -0.75503207305E+02  0.86778504661E+02  0.00000000000E+00 0.  1.
<mgrwt>
<rscale>  0 0.17940602E+04</rscale>
<asrwt>0</asrwt>
<pdfrwt beam="1">  1        1 0.14819605E+00 0.17940602E+04</pdfrwt>
<pdfrwt beam="2">  1       -2 0.12851407E+00 0.17940602E+04</pdfrwt>
<totfact> 0.59844216E+00</totfact>
</mgrwt>
</event>
<event>
12    4  0.4413110E-008  0.1208312E+04  0.7818608E-02  0.9105612E-01
         -2   -1    0    0    0  501 -0.00000000000E+00  0.00000000000E+00  0.97214100789E+03  0.97214100789E+03  0.00000000000E+00 0.  1.
          1   -1    0    0  501    0  0.00000000000E+00 -0.00000000000E+00 -0.37546448784E+03  0.37546448784E+03  0.00000000000E+00 0. -1.
        -24    2    1    2    0    0 -0.13855426767E+03 -0.95930248713E+02  0.45669574278E+03  0.49324414653E+03  0.79491439179E+02 0.  0.
        254    2    1    2    0    0  0.13855426767E+03  0.95930248713E+02  0.13998077727E+03  0.85436134919E+03  0.82579585812E+03 0.  0.
         23    2    4    4    0    0  0.18478719217E+03  0.34732167143E+03 -0.17414142996E+03  0.43876844635E+03  0.86103786520E+02 0.  0.
         23    2    4    4    0    0 -0.46232924493E+02 -0.25139142272E+03  0.31412220723E+03  0.41559290284E+03  0.93325072159E+02 0.  0.
          1    1    3    3  502    0 -0.59786649124E+02 -0.16670907142E+02  0.85901727344E+02  0.10597862671E+03  0.00000000000E+00 0. -1.
         -2    1    3    3    0  502 -0.78767618551E+02 -0.79259341571E+02  0.37079401544E+03  0.38726551982E+03  0.00000000000E+00 0.  1.
         11    1    5    5    0    0  0.26269996622E+02  0.83666910222E+01 -0.20064473161E+02  0.34098347825E+02  0.00000000000E+00 0.  1.
        -11    1    5    5    0    0  0.15851719555E+03  0.33895498041E+03 -0.15407695680E+03  0.40467009853E+03  0.00000000000E+00 0. -1.
          3    1    6    6  503    0 -0.59153041995E+02 -0.23464709871E+03  0.31124528865E+03  0.39424861828E+03  0.00000000000E+00 0. -1.
         -3    1    6    6    0  503  0.12920117502E+02 -0.16744324006E+02  0.28769185770E+01  0.21344284556E+02  0.00000000000E+00 0.  1.
<mgrwt>
<rscale>  0 0.12083119E+04</rscale>
<asrwt>0</asrwt>
<pdfrwt beam="1">  1        1 0.57763768E-01 0.12083119E+04</pdfrwt>
<pdfrwt beam="2">  1       -2 0.14956015E+00 0.12083119E+04</pdfrwt>
<totfact> 0.17010193E+01</totfact>
</mgrwt>
</event>
<event>
12    4  0.4413110E-008  0.1284099E+04  0.7818608E-02  0.9042271E-01
          1   -1    0    0  501    0  0.00000000000E+00  0.00000000000E+00  0.10376187077E+04  0.10376187077E+04  0.00000000000E+00 0. -1.
         -2   -1    0    0    0  501 -0.00000000000E+00 -0.00000000000E+00 -0.39728218155E+03  0.39728218155E+03  0.00000000000E+00 0.  1.
        -24    2    1    2    0    0  0.58362132735E+02  0.27122573894E+02  0.50994547581E+03  0.51996074307E+03  0.78568527298E+02 0.  0.
        254    2    1    2    0    0 -0.58362132735E+02 -0.27122573894E+02  0.13039105037E+03  0.91494014622E+03  0.90331161434E+03 0.  0.
         23    2    4    4    0    0 -0.18207490617E+03 -0.12574453580E+02 -0.35233694965E+03  0.40727612442E+03  0.91777595822E+02 0.  0.
         23    2    4    4    0    0  0.12371277343E+03 -0.14548120313E+02  0.48272800002E+03  0.50766402180E+03  0.95811997781E+02 0.  0.
          3    1    3    3  502    0  0.44566871394E+02  0.43419152031E+02  0.47464087018E+03  0.47870176982E+03  0.00000000000E+00 0. -1.
         -4    1    3    3    0  502  0.13795261342E+02 -0.16296578137E+02  0.35304605635E+02  0.41258973249E+02  0.00000000000E+00 0.  1.
         11    1    5    5    0    0 -0.31866000255E+02 -0.40363492508E+02 -0.94397005100E+02  0.10749627004E+03  0.00000000000E+00 0. -1.
        -11    1    5    5    0    0 -0.15020890591E+03  0.27789038928E+02 -0.25793994455E+03  0.29977985438E+03  0.00000000000E+00 0.  1.
          4    1    6    6  503    0  0.93123820246E+02  0.21118919585E+02  0.41077565107E+03  0.42172821837E+03  0.00000000000E+00 0.  1.
         -4    1    6    6    0  503  0.30588953185E+02 -0.35667039898E+02  0.71952348950E+02  0.85935803432E+02  0.00000000000E+00 0. -1.
<mgrwt>
<rscale>  0 0.12840988E+04</rscale>
<asrwt>0</asrwt>
<pdfrwt beam="1">  1        1 0.15963365E+00 0.12840988E+04</pdfrwt>
<pdfrwt beam="2">  1       -2 0.61120336E-01 0.12840988E+04</pdfrwt>
<totfact> 0.30383274E+01</totfact>
</mgrwt>
</event>
<event>
12    4  0.4413110E-008  0.3235292E+04  0.7818608E-02  0.8179558E-01
          1   -1    0    0  501    0  0.00000000000E+00  0.00000000000E+00  0.23103526210E+04  0.23103526210E+04  0.00000000000E+00 0. -1.
         -2   -1    0    0    0  501 -0.00000000000E+00 -0.00000000000E+00 -0.11326316860E+04  0.11326316860E+04  0.00000000000E+00 0.  1.
        -24    2    1    2    0    0  0.11675249401E+04  0.89839159570E+03  0.79215351238E+03  0.16748482610E+04  0.85950946734E+02 0.  0.
        254    2    1    2    0    0 -0.11675249401E+04 -0.89839159570E+03  0.38556742260E+03  0.17681360459E+04  0.89856602134E+03 0.  0.
         23    2    4    4    0    0 -0.25706179860E+03  0.13350919344E+03  0.23361569608E+03  0.38072315211E+03  0.80426065799E+02 0.  0.
         23    2    4    4    0    0 -0.91046314146E+03 -0.10319007891E+04  0.15195172652E+03  0.13874128938E+04  0.89793319346E+02 0.  0.
          1    1    3    3  502    0  0.11279952131E+04  0.87049775397E+03  0.74747206859E+03  0.16089916202E+04  0.00000000000E+00 0. -1.
         -4    1    3    3    0  502  0.39529726963E+02  0.27893841728E+02  0.44681443793E+02  0.65856640816E+02  0.00000000000E+00 0.  1.
         11    1    5    5    0    0 -0.79664735006E+02  0.50575071662E+02  0.12555189720E+03  0.15705918237E+03  0.00000000000E+00 0.  1.
        -11    1    5    5    0    0 -0.17739706360E+03  0.82934121781E+02  0.10806379888E+03  0.22366396973E+03  0.00000000000E+00 0. -1.
          1    1    6    6  503    0 -0.70329363970E+03 -0.81282147350E+03  0.15439828210E+03  0.10858819093E+04  0.00000000000E+00 0. -1.
         -1    1    6    6    0  503 -0.20716950176E+03 -0.21907931565E+03 -0.24465555825E+01  0.30153098454E+03  0.00000000000E+00 0.  1.
<mgrwt>
<rscale>  0 0.32352920E+04</rscale>
<asrwt>0</asrwt>
<pdfrwt beam="1">  1        1 0.35543886E+00 0.32352920E+04</pdfrwt>
<pdfrwt beam="2">  1       -2 0.17425103E+00 0.32352920E+04</pdfrwt>
<totfact> 0.26716576E-01</totfact>
</mgrwt>
</event>
<event>
12    4  0.4413110E-008  0.1465227E+04  0.7818608E-02  0.8907912E-01
          1   -1    0    0  501    0  0.00000000000E+00  0.00000000000E+00  0.50711346539E+03  0.50711346539E+03  0.00000000000E+00 0. -1.
         -2   -1    0    0    0  501 -0.00000000000E+00 -0.00000000000E+00 -0.10583875135E+04  0.10583875135E+04  0.00000000000E+00 0.  1.
        -24    2    1    2    0    0 -0.39779804704E+03  0.34519276998E+02  0.54195168573E+02  0.41123403990E+03  0.82106349075E+02 0.  0.
        254    2    1    2    0    0  0.39779804704E+03 -0.34519276998E+02 -0.60546921670E+03  0.11542669390E+04  0.89794450130E+03 0.  0.
         23    2    4    4    0    0  0.45415719281E+03 -0.32210189407E+03 -0.63097091250E+03  0.84672786293E+03  0.93890337581E+02 0.  0.
         23    2    4    4    0    0 -0.56359145766E+02  0.28758261708E+03  0.25501695804E+02  0.30753907608E+03  0.89720855279E+02 0.  0.
          1    1    3    3  502    0 -0.39655450669E+03  0.42082760947E+02  0.57465732662E+02  0.40290041695E+03  0.00000000000E+00 0. -1.
         -2    1    3    3    0  502 -0.12435403541E+01 -0.75634839490E+01 -0.32705640889E+01  0.83336229527E+01  0.00000000000E+00 0.  1.
         11    1    5    5    0    0  0.17008387230E+02 -0.84219315795E+00 -0.45355449308E+02  0.48446994823E+02  0.00000000000E+00 0.  1.
        -11    1    5    5    0    0  0.43714880558E+03 -0.32125970092E+03 -0.58561546319E+03  0.79828086811E+03  0.00000000000E+00 0. -1.
          1    1    6    6  503    0 -0.18695505982E+02  0.24596316894E+03  0.39180840647E+02  0.24976497091E+03  0.00000000000E+00 0. -1.
         -1    1    6    6    0  503 -0.37663639785E+02  0.41619448139E+02 -0.13679144843E+02  0.57774105176E+02  0.00000000000E+00 0.  1.
<mgrwt>
<rscale>  0 0.14652270E+04</rscale>
<asrwt>0</asrwt>
<pdfrwt beam="1">  1        1 0.78017457E-01 0.14652270E+04</pdfrwt>
<pdfrwt beam="2">  1       -2 0.16282885E+00 0.14652270E+04</pdfrwt>
<totfact> 0.88454785E+00</totfact>
</mgrwt>
</event>
<event>
12    4  0.4413110E-008  0.1358951E+04  0.7818608E-02  0.8984080E-01
          1   -1    0    0  501    0  0.00000000000E+00  0.00000000000E+00  0.57873770393E+03  0.57873770393E+03  0.00000000000E+00 0. -1.
         -2   -1    0    0    0  501 -0.00000000000E+00 -0.00000000000E+00 -0.79774790835E+03  0.79774790835E+03  0.00000000000E+00 0.  1.
        -24    2    1    2    0    0 -0.50891344200E+02 -0.30957600991E+03  0.14161976663E+03  0.35261185004E+03  0.76496559810E+02 0.  0.
        254    2    1    2    0    0  0.50891344200E+02  0.30957600991E+03 -0.36062997105E+03  0.10238737622E+04  0.90544810461E+03 0.  0.
         23    2    4    4    0    0 -0.50086075529E+02  0.23434478553E+03  0.27073627376E+03  0.37237695928E+03  0.89108789734E+02 0.  0.
         23    2    4    4    0    0  0.10097741973E+03  0.75231224382E+02 -0.63136624481E+03  0.65149680295E+03  0.99842740101E+02 0.  0.
          1    1    3    3  502    0 -0.84950410611E+01 -0.20871382030E+03  0.12059842030E+03  0.24120033890E+03  0.00000000000E+00 0. -1.
         -2    1    3    3    0  502 -0.42396303139E+02 -0.10086218961E+03  0.21021346325E+02  0.11141151114E+03  0.00000000000E+00 0.  1.
         11    1    5    5    0    0 -0.76018135898E+02  0.16675965689E+03  0.19557597560E+03  0.26802518983E+03  0.00000000000E+00 0. -1.
        -11    1    5    5    0    0  0.25932060370E+02  0.67585128643E+02  0.75160298165E+02  0.10435176946E+03  0.00000000000E+00 0.  1.
          4    1    6    6  503    0  0.61372259210E+01 -0.16751954799E+02 -0.23874452522E+02  0.29804077151E+02  0.00000000000E+00 0. -1.
         -4    1    6    6    0  503  0.94840193807E+02  0.91983179181E+02 -0.60749179229E+03  0.62169272580E+03  0.00000000000E+00 0.  1.
<mgrwt>
<rscale>  0 0.13589508E+04</rscale>
<asrwt>0</asrwt>
<pdfrwt beam="1">  1        1 0.89036570E-01 0.13589508E+04</pdfrwt>
<pdfrwt beam="2">  1       -2 0.12273045E+00 0.13589508E+04</pdfrwt>
<totfact> 0.15495541E+01</totfact>
</mgrwt>
</event>
<event>
12    4  0.4413110E-008  0.2165166E+04  0.7818608E-02  0.8533068E-01
         -2   -1    0    0    0  501 -0.00000000000E+00  0.00000000000E+00  0.82640577001E+03  0.82640577001E+03  0.00000000000E+00 0.  1.
          1   -1    0    0  501    0  0.00000000000E+00 -0.00000000000E+00 -0.14181725441E+04  0.14181725441E+04  0.00000000000E+00 0. -1.
        -24    2    1    2    0    0 -0.30135549794E+03  0.20322051732E+03  0.60205202753E+03  0.70782928240E+03  0.80261661859E+02 0.  0.
        254    2    1    2    0    0  0.30135549794E+03 -0.20322051732E+03 -0.11938188016E+04  0.15367490317E+04  0.89681689355E+03 0.  0.
         23    2    4    4    0    0  0.23837755345E+03 -0.34693544873E+03 -0.11937477808E+03  0.44708049260E+03  0.91883435130E+02 0.  0.
         23    2    4    4    0    0  0.62977944499E+02  0.14371493141E+03 -0.10744440235E+04  0.10896685391E+04  0.91254382945E+02 0.  0.
          3    1    3    3  502    0 -0.16412098195E+03  0.11240957878E+03  0.25222825887E+03  0.32123310024E+03  0.00000000000E+00 0. -1.
         -4    1    3    3    0  502 -0.13723451599E+03  0.90810938542E+02  0.34982376866E+03  0.38659618216E+03  0.00000000000E+00 0.  1.
         11    1    5    5    0    0  0.20175789332E+03 -0.31681496006E+03 -0.76840864067E+02  0.38338294801E+03  0.00000000000E+00 0.  1.
        -11    1    5    5    0    0  0.36619660129E+02 -0.30120488666E+02 -0.42533914015E+02  0.63697544591E+02  0.00000000000E+00 0. -1.
          3    1    6    6  503    0  0.51581334918E+01  0.15469946332E+02 -0.19651364614E+02  0.25536282263E+02  0.00000000000E+00 0. -1.
         -3    1    6    6    0  503  0.57819811007E+02  0.12824498508E+03 -0.10547926589E+04  0.10641322569E+04  0.00000000000E+00 0.  1.
<mgrwt>
<rscale>  0 0.21651660E+04</rscale>
<asrwt>0</asrwt>
<pdfrwt beam="1">  1        1 0.21818039E+00 0.21651660E+04</pdfrwt>
<pdfrwt beam="2">  1       -2 0.12713935E+00 0.21651660E+04</pdfrwt>
<totfact> 0.27512870E+00</totfact>
</mgrwt>
</event>
<event>
12    4  0.4413110E-008  0.1399132E+04  0.7818608E-02  0.8954447E-01
         -2   -1    0    0    0  501 -0.00000000000E+00  0.00000000000E+00  0.79208704193E+03  0.79208704193E+03  0.00000000000E+00 0.  1.
          1   -1    0    0  501    0  0.00000000000E+00 -0.00000000000E+00 -0.61785208586E+03  0.61785208586E+03  0.00000000000E+00 0. -1.
        -24    2    1    2    0    0  0.33821876500E+03 -0.55218138982E+02  0.24978706505E+03  0.43197203355E+03  0.82251346677E+02 0.  0.
        254    2    1    2    0    0 -0.33821876500E+03  0.55218138982E+02 -0.75552108985E+02  0.97796709423E+03  0.91283653540E+03 0.  0.
         23    2    4    4    0    0  0.55136587134E+01 -0.19024004547E+03 -0.38961503084E+03  0.44343887377E+03  0.92825035354E+02 0.  0.
         23    2    4    4    0    0 -0.34373242372E+03  0.24545818445E+03  0.31406292185E+03  0.53452822046E+03  0.93183690426E+02 0.  0.
          1    1    3    3  502    0  0.18246436391E+03 -0.31153707854E+02  0.18459782158E+03  0.26141949687E+03  0.00000000000E+00 0. -1.
         -2    1    3    3    0  502  0.15575440109E+03 -0.24064431128E+02  0.65189243477E+02  0.17055253669E+03  0.00000000000E+00 0.  1.
         11    1    5    5    0    0 -0.15953191477E+02 -0.17895065224E+03 -0.29189931279E+03  0.34275800364E+03  0.00000000000E+00 0.  1.
        -11    1    5    5    0    0  0.21466850191E+02 -0.11289393227E+02 -0.97715718049E+02  0.10068087013E+03  0.00000000000E+00 0. -1.
          3    1    6    6  503    0 -0.15226317879E+03  0.57568453273E+02  0.14037441487E+03  0.21494924698E+03  0.00000000000E+00 0. -1.
         -3    1    6    6    0  503 -0.19146924493E+03  0.18788973117E+03  0.17368850698E+03  0.31957897348E+03  0.00000000000E+00 0.  1.
<mgrwt>
<rscale>  0 0.13991321E+04</rscale>
<asrwt>0</asrwt>
<pdfrwt beam="1">  1        1 0.95054166E-01 0.13991321E+04</pdfrwt>
<pdfrwt beam="2">  1       -2 0.12185955E+00 0.13991321E+04</pdfrwt>
<totfact> 0.14309004E+01</totfact>
</mgrwt>
</event>
<event>
12    4  0.4413110E-008  0.1496396E+04  0.7818608E-02  0.8886853E-01
          1   -1    0    0  501    0  0.00000000000E+00  0.00000000000E+00  0.80989471212E+03  0.80989471212E+03  0.00000000000E+00 0. -1.
         -2   -1    0    0    0  501 -0.00000000000E+00 -0.00000000000E+00 -0.69120138783E+03  0.69120138783E+03  0.00000000000E+00 0.  1.
        -24    2    1    2    0    0 -0.11759264101E+03 -0.24083805353E+03  0.43451878078E+03  0.51647218961E+03  0.78140607495E+02 0.  0.
        254    2    1    2    0    0  0.11759264101E+03  0.24083805353E+03 -0.31582545649E+03  0.98462391034E+03  0.89325669804E+03 0.  0.
         23    2    4    4    0    0 -0.24316729264E+03  0.11806553717E+03  0.19141754528E+03  0.34354911160E+03  0.91189430106E+02 0.  0.
         23    2    4    4    0    0  0.36075993366E+03  0.12277251635E+03 -0.50724300176E+03  0.64107479874E+03  0.91981597262E+02 0.  0.
          3    1    3    3  502    0 -0.11817336910E+03 -0.19615118130E+03  0.39612779278E+03  0.45755596302E+03  0.00000000000E+00 0. -1.
         -2    1    3    3    0  502  0.58072809020E+00 -0.44686872230E+02  0.38390988004E+02  0.58916226583E+02  0.00000000000E+00 0.  1.
         11    1    5    5    0    0 -0.20390960781E+03  0.12739867041E+03  0.18342312098E+03  0.30241294729E+03  0.00000000000E+00 0. -1.
        -11    1    5    5    0    0 -0.39257684829E+02 -0.93331332353E+01  0.79944242970E+01  0.41136164308E+02  0.00000000000E+00 0.  1.
          3    1    6    6  503    0  0.29069797949E+03  0.87374300631E+02 -0.45435730490E+03  0.54642487517E+03  0.00000000000E+00 0. -1.
         -3    1    6    6    0  503  0.70061954170E+02  0.35398215722E+02 -0.52885696858E+02  0.94649923563E+02  0.00000000000E+00 0.  1.
<mgrwt>
<rscale>  0 0.14963961E+04</rscale>
<asrwt>0</asrwt>
<pdfrwt beam="1">  1        1 0.12459919E+00 0.14963961E+04</pdfrwt>
<pdfrwt beam="2">  1       -2 0.10633867E+00 0.14963961E+04</pdfrwt>
<totfact> 0.13100993E+01</totfact>
</mgrwt>
</event>
<event>
12    4  0.4413110E-008  0.1099935E+04  0.7818608E-02  0.9205256E-01
         -2   -1    0    0    0  501 -0.00000000000E+00  0.00000000000E+00  0.30968938419E+03  0.30968938419E+03  0.00000000000E+00 0.  1.
          1   -1    0    0  501    0  0.00000000000E+00 -0.00000000000E+00 -0.97666909651E+03  0.97666909651E+03  0.00000000000E+00 0. -1.
        -24    2    1    2    0    0  0.41384912184E+01 -0.13976628353E+03 -0.23266225099E+03  0.28291983586E+03  0.79750670021E+02 0.  0.
        254    2    1    2    0    0 -0.41384912184E+01  0.13976628353E+03 -0.43431746133E+03  0.10034386448E+04  0.89370337115E+03 0.  0.
         23    2    4    4    0    0 -0.30921772861E+03  0.41298229843E+02  0.12750825412E+03  0.34935546791E+03  0.92031193715E+02 0.  0.
         23    2    4    4    0    0  0.30507923739E+03  0.98468053686E+02 -0.56182571545E+03  0.65408317692E+03  0.96991592993E+02 0.  0.
          3    1    3    3  502    0  0.33284944068E+02 -0.64690289144E+02 -0.15411164148E+03  0.17042041853E+03  0.00000000000E+00 0. -1.
         -4    1    3    3    0  502 -0.29146452850E+02 -0.75075994385E+02 -0.78550609501E+02  0.11249941733E+03  0.00000000000E+00 0.  1.
         11    1    5    5    0    0 -0.16206973150E+02  0.23851287635E+02  0.25831119565E+02  0.38714295015E+02  0.00000000000E+00 0. -1.
        -11    1    5    5    0    0 -0.29301075546E+03  0.17446942208E+02  0.10167713455E+03  0.31064117290E+03  0.00000000000E+00 0.  1.
          4    1    6    6  503    0  0.58839863105E+02  0.60410779206E+02 -0.11693325347E+03  0.14416996047E+03  0.00000000000E+00 0. -1.
         -4    1    6    6    0  503  0.24623937429E+03  0.38057274480E+02 -0.44489246198E+03  0.50991321646E+03  0.00000000000E+00 0.  1.
<mgrwt>
<rscale>  0 0.10999346E+04</rscale>
<asrwt>0</asrwt>
<pdfrwt beam="1">  1        1 0.15025678E+00 0.10999346E+04</pdfrwt>
<pdfrwt beam="2">  1       -2 0.47644521E-01 0.10999346E+04</pdfrwt>
<totfact> 0.57548946E+01</totfact>
</mgrwt>
</event>
<event>
12    4  0.4413110E-008  0.1749490E+04  0.7818608E-02  0.8733631E-01
          1   -1    0    0  501    0  0.00000000000E+00  0.00000000000E+00  0.22979956968E+04  0.22979956968E+04  0.00000000000E+00 0. -1.
         -2   -1    0    0    0  501 -0.00000000000E+00 -0.00000000000E+00 -0.33297651229E+03  0.33297651229E+03  0.00000000000E+00 0.  1.
        -24    2    1    2    0    0  0.44872099140E+03  0.75273504256E+02  0.47745197621E+02  0.46447566189E+03  0.80258382852E+02 0.  0.
        254    2    1    2    0    0 -0.44872099140E+03 -0.75273504256E+02  0.19172739869E+04  0.21664965472E+04  0.90041719201E+03 0.  0.
         23    2    4    4    0    0 -0.67621899464E+03 -0.38933828464E+01  0.97304861429E+03  0.11884239466E+04  0.90777662428E+02 0.  0.
         23    2    4    4    0    0  0.22749800324E+03 -0.71380121410E+02  0.94422537260E+03  0.97807260058E+03  0.90631090312E+02 0.  0.
          3    1    3    3  502    0  0.20782657415E+03  0.31292532956E+01  0.46588687547E+02  0.21300747159E+03  0.00000000000E+00 0. -1.
         -4    1    3    3    0  502  0.24089441726E+03  0.72144250960E+02  0.11565100734E+01  0.25146819029E+03  0.00000000000E+00 0.  1.
         11    1    5    5    0    0 -0.57643141834E+03  0.82403004352E+01  0.87617336479E+03  0.10488187869E+04  0.00000000000E+00 0. -1.
        -11    1    5    5    0    0 -0.99787576299E+02 -0.12133683282E+02  0.96875249492E+02  0.13960515971E+03  0.00000000000E+00 0.  1.
          3    1    6    6  503    0  0.21836160137E+03 -0.80375089438E+02  0.79649358132E+03  0.82978549580E+03  0.00000000000E+00 0. -1.
         -3    1    6    6    0  503  0.91364018666E+01  0.89949680281E+01  0.14773179128E+03  0.14828710478E+03  0.00000000000E+00 0.  1.
<mgrwt>
<rscale>  0 0.17494897E+04</rscale>
<asrwt>0</asrwt>
<pdfrwt beam="1">  1        1 0.35353779E+00 0.17494897E+04</pdfrwt>
<pdfrwt beam="2">  1       -2 0.51227157E-01 0.17494897E+04</pdfrwt>
<totfact> 0.55991308E+00</totfact>
</mgrwt>
</event>
<event>
12    4  0.4413110E-008  0.1690458E+04  0.7818608E-02  0.8766825E-01
         -2   -1    0    0    0  501 -0.00000000000E+00  0.00000000000E+00  0.59794121081E+03  0.59794121081E+03  0.00000000000E+00 0.  1.
          1   -1    0    0  501    0  0.00000000000E+00 -0.00000000000E+00 -0.11947860495E+04  0.11947860495E+04  0.00000000000E+00 0. -1.
        -24    2    1    2    0    0 -0.36207592385E+03 -0.13811763977E+03 -0.70975467639E+03  0.81263669807E+03  0.80319644883E+02 0.  0.
        254    2    1    2    0    0  0.36207592385E+03  0.13811763977E+03  0.11290983771E+03  0.98009056223E+03  0.89311445049E+03 0.  0.
         23    2    4    4    0    0  0.60742203151E+03 -0.18365169446E+02  0.22777121348E+03  0.65423892203E+03  0.82764953963E+02 0.  0.
         23    2    4    4    0    0 -0.24534610766E+03  0.15648280922E+03 -0.11486137576E+03  0.32585164020E+03  0.91129433504E+02 0.  0.
          3    1    3    3  502    0 -0.28932982905E+03 -0.11035466180E+03 -0.62524134725E+03  0.69772246895E+03  0.00000000000E+00 0. -1.
         -4    1    3    3    0  502 -0.72746094796E+02 -0.27762977972E+02 -0.84513329135E+02  0.11491422913E+03  0.00000000000E+00 0.  1.
         11    1    5    5    0    0  0.14142445546E+03 -0.14255420452E+02  0.18316759064E+02  0.14331642361E+03  0.00000000000E+00 0.  1.
        -11    1    5    5    0    0  0.46599757605E+03 -0.41097489938E+01  0.20945445441E+03  0.51092249842E+03  0.00000000000E+00 0. -1.
          1    1    6    6  503    0 -0.12579139049E+02  0.31636032798E+02  0.73256749786E+01  0.34824399841E+02  0.00000000000E+00 0.  1.
         -1    1    6    6    0  503 -0.23276696861E+03  0.12484677642E+03 -0.12218705074E+03  0.29102724036E+03  0.00000000000E+00 0. -1.
<mgrwt>
<rscale>  0 0.16904577E+04</rscale>
<asrwt>0</asrwt>
<pdfrwt beam="1">  1        1 0.18381324E+00 0.16904577E+04</pdfrwt>
<pdfrwt beam="2">  1       -2 0.91990957E-01 0.16904577E+04</pdfrwt>
<totfact> 0.90463370E+00</totfact>
</mgrwt>
</event>
<event>
12    4  0.4413110E-008  0.1420576E+04  0.7818608E-02  0.8939058E-01
         -2   -1    0    0    0  501 -0.00000000000E+00  0.00000000000E+00  0.29176114940E+03  0.29176114940E+03  0.00000000000E+00 0.  1.
          1   -1    0    0  501    0  0.00000000000E+00 -0.00000000000E+00 -0.17291854266E+04  0.17291854266E+04  0.00000000000E+00 0. -1.
        -24    2    1    2    0    0 -0.30967955772E+03 -0.25144223324E+03 -0.64391647603E+03  0.76147874239E+03  0.78082148313E+02 0.  0.
        254    2    1    2    0    0  0.30967955772E+03  0.25144223324E+03 -0.79350780122E+03  0.12594678337E+04  0.89301733930E+03 0.  0.
         23    2    4    4    0    0  0.54155153191E+03  0.11393529138E+03 -0.19149197875E+03  0.59313180533E+03  0.94217027290E+02 0.  0.
         23    2    4    4    0    0 -0.23187197419E+03  0.13750694186E+03 -0.60201582246E+03  0.66633602832E+03  0.94381569532E+02 0.  0.
          3    1    3    3  502    0 -0.20994105820E+03 -0.17960531758E+03 -0.50766946634E+03  0.57798062690E+03  0.00000000000E+00 0. -1.
         -4    1    3    3    0  502 -0.99738499522E+02 -0.71836915666E+02 -0.13624700969E+03  0.18349811549E+03  0.00000000000E+00 0.  1.
         11    1    5    5    0    0  0.12280500349E+03  0.60919883409E+02 -0.69902389397E+02  0.15387867013E+03  0.00000000000E+00 0. -1.
        -11    1    5    5    0    0  0.41874652842E+03  0.53015407976E+02 -0.12158958936E+03  0.43925313521E+03  0.00000000000E+00 0.  1.
          1    1    6    6  503    0 -0.29681392473E+02  0.40889386465E+01 -0.15532459653E+03  0.15818797289E+03  0.00000000000E+00 0. -1.
         -1    1    6    6    0  503 -0.20219058172E+03  0.13341800321E+03 -0.44669122593E+03  0.50814805543E+03  0.00000000000E+00 0.  1.
<mgrwt>
<rscale>  0 0.14205761E+04</rscale>
<asrwt>0</asrwt>
<pdfrwt beam="1">  1        1 0.26602852E+00 0.14205761E+04</pdfrwt>
<pdfrwt beam="2">  1       -2 0.44886332E-01 0.14205761E+04</pdfrwt>
<totfact> 0.18312102E+01</totfact>
</mgrwt>
</event>
<event>
12    4  0.4413110E-008  0.3565382E+04  0.7818608E-02  0.8098468E-01
         -2   -1    0    0    0  501 -0.00000000000E+00  0.00000000000E+00  0.12684411495E+04  0.12684411495E+04  0.00000000000E+00 0.  1.
          1   -1    0    0  501    0  0.00000000000E+00 -0.00000000000E+00 -0.25054280521E+04  0.25054280521E+04  0.00000000000E+00 0. -1.
        -24    2    1    2    0    0  0.19446263653E+03 -0.23075952452E+02 -0.23318945980E+04  0.23414233634E+04  0.78630360863E+02 0.  0.
        254    2    1    2    0    0 -0.19446263653E+03  0.23075952452E+02  0.10949076954E+04  0.14324458383E+04  0.90262395360E+03 0.  0.
         23    2    4    4    0    0 -0.12391924882E+03 -0.40071727041E+03  0.78593684541E+03  0.89561260686E+03  0.92167811922E+02 0.  0.
         23    2    4    4    0    0 -0.70543387710E+02  0.42379322286E+03  0.30897085000E+03  0.53683323145E+03  0.90276613479E+02 0.  0.
          1    1    3    3  502    0  0.17675577207E+03 -0.40006341383E+02 -0.18355931699E+04  0.18445176594E+04  0.00000000000E+00 0. -1.
         -2    1    3    3    0  502  0.17706864465E+02  0.16930388930E+02 -0.49630142808E+03  0.49690570396E+03  0.00000000000E+00 0.  1.
         11    1    5    5    0    0 -0.25482472071E+02 -0.12390635449E+03  0.15844176985E+03  0.20274598762E+03  0.00000000000E+00 0. -1.
        -11    1    5    5    0    0 -0.98436776753E+02 -0.27681091592E+03  0.62749507556E+03  0.69286661923E+03  0.00000000000E+00 0.  1.
          4    1    6    6  503    0 -0.82029730628E+02  0.38296414800E+03  0.25166256864E+03  0.46553674808E+03  0.00000000000E+00 0.  1.
         -4    1    6    6    0  503  0.11486342917E+02  0.40829074868E+02  0.57308281362E+02  0.71296483370E+02  0.00000000000E+00 0. -1.
<mgrwt>
<rscale>  0 0.35653825E+04</rscale>
<asrwt>0</asrwt>
<pdfrwt beam="1">  1        1 0.38545047E+00 0.35653825E+04</pdfrwt>
<pdfrwt beam="2">  1       -2 0.19514479E+00 0.35653825E+04</pdfrwt>
<totfact> 0.13730051E-01</totfact>
</mgrwt>
</event>
<event>
12    4  0.4413110E-008  0.1997118E+04  0.7818608E-02  0.8607969E-01
         -2   -1    0    0    0  501 -0.00000000000E+00  0.00000000000E+00  0.10314978859E+04  0.10314978859E+04  0.00000000000E+00 0.  1.
          1   -1    0    0  501    0  0.00000000000E+00 -0.00000000000E+00 -0.96667217145E+03  0.96667217145E+03  0.00000000000E+00 0. -1.
        -24    2    1    2    0    0  0.56427871656E+02 -0.10388686673E+02 -0.76464689479E+03  0.77096331490E+03  0.80047046758E+02 0.  0.
        254    2    1    2    0    0 -0.56427871656E+02  0.10388686673E+02  0.82947260927E+03  0.12272067425E+04  0.90261816388E+03 0.  0.
         23    2    4    4    0    0 -0.20181590009E+03 -0.22985691591E+03  0.87256036975E+03  0.92903496004E+03  0.90446109957E+02 0.  0.
         23    2    4    4    0    0  0.14538802844E+03  0.24024560259E+03 -0.43087760479E+02  0.29817178244E+03  0.90521977247E+02 0.  0.
          3    1    3    3  502    0  0.54663247149E+02  0.23827230885E+02 -0.36377528681E+03  0.36863025760E+03  0.00000000000E+00 0. -1.
         -4    1    3    3    0  502  0.17646245068E+01 -0.34215917558E+02 -0.40087160798E+03  0.40233305730E+03  0.00000000000E+00 0.  1.
         11    1    5    5    0    0 -0.83863818557E+02 -0.87597263663E+02  0.22473066277E+03  0.25536305812E+03  0.00000000000E+00 0. -1.
        -11    1    5    5    0    0 -0.11795208154E+03 -0.14225965225E+03  0.64782970698E+03  0.67367190192E+03  0.00000000000E+00 0.  1.
          4    1    6    6  503    0  0.12579376985E+03  0.17160474150E+03  0.37299994482E+01  0.21280548098E+03  0.00000000000E+00 0. -1.
         -4    1    6    6    0  503  0.19594258583E+02  0.68640861083E+02 -0.46817759927E+02  0.85366301456E+02  0.00000000000E+00 0.  1.
<mgrwt>
<rscale>  0 0.19971182E+04</rscale>
<asrwt>0</asrwt>
<pdfrwt beam="1">  1        1 0.14871880E+00 0.19971182E+04</pdfrwt>
<pdfrwt beam="2">  1       -2 0.15869198E+00 0.19971182E+04</pdfrwt>
<totfact> 0.33672611E+00</totfact>
</mgrwt>
</event>
<event>
12    4  0.4413110E-008  0.1562962E+04  0.7818608E-02  0.8843631E-01
          1   -1    0    0  501    0  0.00000000000E+00  0.00000000000E+00  0.97944163688E+03  0.97944163688E+03  0.00000000000E+00 0. -1.
         -2   -1    0    0    0  501 -0.00000000000E+00 -0.00000000000E+00 -0.62353133748E+03  0.62353133748E+03  0.00000000000E+00 0.  1.
        -24    2    1    2    0    0 -0.22383599893E+03 -0.14570197074E+03  0.59116762679E+03  0.65326912826E+03  0.77134766974E+02 0.  0.
        254    2    1    2    0    0  0.22383599893E+03  0.14570197074E+03 -0.23525732739E+03  0.94970384610E+03  0.88048836819E+03 0.  0.
         23    2    4    4    0    0  0.37566456286E+03  0.28022758008E+03 -0.43904251811E+03  0.64831002112E+03  0.88860510618E+02 0.  0.
         23    2    4    4    0    0 -0.15182856393E+03 -0.13452560933E+03  0.20378519072E+03  0.30139382499E+03  0.90337043305E+02 0.  0.
          3    1    3    3  502    0 -0.16407197597E+03 -0.14217107858E+03  0.43900668684E+03  0.48975412196E+03  0.00000000000E+00 0. -1.
         -4    1    3    3    0  502 -0.59764022963E+02 -0.35308921658E+01  0.15216093994E+03  0.16351500630E+03  0.00000000000E+00 0.  1.
         11    1    5    5    0    0  0.10209186429E+03  0.46318633347E+02 -0.14655222000E+03  0.18451481712E+03  0.00000000000E+00 0.  1.
        -11    1    5    5    0    0  0.27357269857E+03  0.23390894673E+03 -0.29249029811E+03  0.46379520400E+03  0.00000000000E+00 0. -1.
          1    1    6    6  503    0 -0.12599305301E+03 -0.97450095861E+02  0.99673045897E+02  0.18789754301E+03  0.00000000000E+00 0. -1.
         -1    1    6    6    0  503 -0.25835510917E+02 -0.37075513473E+02  0.10411214482E+03  0.11349628198E+03  0.00000000000E+00 0.  1.
<mgrwt>
<rscale>  0 0.15629620E+04</rscale>
<asrwt>0</asrwt>
<pdfrwt beam="1">  1        1 0.15068333E+00 0.15629620E+04</pdfrwt>
<pdfrwt beam="2">  1       -2 0.95927898E-01 0.15629620E+04</pdfrwt>
<totfact> 0.12071247E+01</totfact>
</mgrwt>
</event>
<event>
12    4  0.4413110E-008  0.1989679E+04  0.7818608E-02  0.8611461E-01
          3   -1    0    0  501    0  0.00000000000E+00  0.00000000000E+00  0.28940866269E+03  0.28940866269E+03  0.00000000000E+00 0. -1.
         -4   -1    0    0    0  501 -0.00000000000E+00 -0.00000000000E+00 -0.34197512973E+04  0.34197512973E+04  0.00000000000E+00 0.  1.
        -24    2    1    2    0    0 -0.37119347248E+03 -0.45201708624E+03 -0.25741876190E+03  0.64414171217E+03  0.80932602314E+02 0.  0.
        254    2    1    2    0    0  0.37119347248E+03  0.45201708624E+03 -0.28729238727E+04  0.30650182478E+04  0.89361134772E+03 0.  0.
         23    2    4    4    0    0  0.53955536904E+03  0.48471905770E+03 -0.13997915321E+04  0.15791563971E+04  0.90807665342E+02 0.  0.
         23    2    4    4    0    0 -0.16836189655E+03 -0.32701971461E+02 -0.14731323406E+04  0.14858618507E+04  0.90837212854E+02 0.  0.
          3    1    3    3  502    0 -0.96188406559E+02 -0.13867783891E+03 -0.37896448918E+02  0.17297367835E+03  0.00000000000E+00 0. -1.
         -4    1    3    3    0  502 -0.27500506592E+03 -0.31333924733E+03 -0.21952231298E+03  0.47116803382E+03  0.00000000000E+00 0.  1.
         11    1    5    5    0    0  0.51873148785E+03  0.45784872001E+03 -0.13659704240E+04  0.15312031237E+04  0.00000000000E+00 0.  1.
        -11    1    5    5    0    0  0.20823881183E+02  0.26870337690E+02 -0.33821108094E+02  0.47953273380E+02  0.00000000000E+00 0. -1.
          1    1    6    6  503    0 -0.21414823387E+02  0.29246948522E+00 -0.55869076564E+03  0.55910111055E+03  0.00000000000E+00 0. -1.
         -1    1    6    6    0  503 -0.14694707317E+03 -0.32994440946E+02 -0.91444157496E+03  0.92676074014E+03  0.00000000000E+00 0.  1.
<mgrwt>
<rscale>  0 0.19896790E+04</rscale>
<asrwt>0</asrwt>
<pdfrwt beam="1">  1        3 0.44524409E-01 0.19896790E+04</pdfrwt>
<pdfrwt beam="2">  1       -4 0.52611559E+00 0.19896790E+04</pdfrwt>
<totfact> 0.79292518E-03</totfact>
</mgrwt>
</event>
<event>
12    4  0.4413110E-008  0.2127820E+04  0.7818608E-02  0.8549087E-01
          1   -1    0    0  501    0  0.00000000000E+00  0.00000000000E+00  0.20364466765E+04  0.20364466765E+04  0.00000000000E+00 0. -1.
         -2   -1    0    0    0  501 -0.00000000000E+00 -0.00000000000E+00 -0.55582304585E+03  0.55582304585E+03  0.00000000000E+00 0.  1.
        -24    2    1    2    0    0  0.15053758764E+03 -0.45101916401E+03 -0.28200106526E+03  0.55902275510E+03  0.83078206002E+02 0.  0.
        254    2    1    2    0    0 -0.15053758764E+03  0.45101916401E+03  0.17626246959E+04  0.20332469673E+04  0.89507963873E+03 0.  0.
         23    2    4    4    0    0  0.22050790292E+03  0.26172902611E+03  0.14774885191E+04  0.15192375224E+04  0.89356069758E+02 0.  0.
         23    2    4    4    0    0 -0.37104549056E+03  0.18929013790E+03  0.28513617684E+03  0.51400944484E+03  0.96941000976E+02 0.  0.
          1    1    3    3  502    0  0.78148233215E+02 -0.26695981520E+03 -0.11826983809E+03  0.30226221049E+03  0.00000000000E+00 0. -1.
         -2    1    3    3    0  502  0.72389354426E+02 -0.18405934881E+03 -0.16373122717E+03  0.25676054461E+03  0.00000000000E+00 0.  1.
         11    1    5    5    0    0  0.34867773237E+02  0.20201573536E+02  0.88590780893E+02  0.97325185040E+02  0.00000000000E+00 0. -1.
        -11    1    5    5    0    0  0.18564012968E+03  0.24152745258E+03  0.13888977382E+04  0.14219123374E+04  0.00000000000E+00 0.  1.
          4    1    6    6  503    0 -0.11533807481E+03  0.11112049830E+03  0.11284022812E+03  0.19591721141E+03  0.00000000000E+00 0. -1.
         -4    1    6    6    0  503 -0.25570741575E+03  0.78169639598E+02  0.17229594872E+03  0.31809223343E+03  0.00000000000E+00 0.  1.
<mgrwt>
<rscale>  0 0.21278195E+04</rscale>
<asrwt>0</asrwt>
<pdfrwt beam="1">  1        1 0.31329949E+00 0.21278195E+04</pdfrwt>
<pdfrwt beam="2">  1       -2 0.85511239E-01 0.21278195E+04</pdfrwt>
<totfact> 0.26960706E+00</totfact>
</mgrwt>
</event>
<event>
12    4  0.4413110E-008  0.2437221E+04  0.7818608E-02  0.8425699E-01
         -2   -1    0    0    0  501 -0.00000000000E+00  0.00000000000E+00  0.12976600367E+04  0.12976600367E+04  0.00000000000E+00 0.  1.
          1   -1    0    0  501    0  0.00000000000E+00 -0.00000000000E+00 -0.11443761236E+04  0.11443761236E+04  0.00000000000E+00 0. -1.
        -24    2    1    2    0    0  0.10059110471E+04  0.19154531313E+03  0.27946051566E+03  0.10644326783E+04  0.79825466852E+02 0.  0.
        254    2    1    2    0    0 -0.10059110471E+04 -0.19154531313E+03 -0.12617660259E+03  0.13776034820E+04  0.91286591407E+03 0.  0.
         23    2    4    4    0    0 -0.10772772446E+04 -0.22118356314E+03 -0.32179428376E+03  0.11495326127E+04  0.91789086060E+02 0.  0.
         23    2    4    4    0    0  0.71366197508E+02  0.29638250012E+02  0.19561768117E+03  0.22807086933E+03  0.88195715531E+02 0.  0.
          3    1    3    3  502    0  0.51951095206E+03  0.76174751724E+02  0.10889128068E+03  0.53623831746E+03  0.00000000000E+00 0. -1.
         -4    1    3    3    0  502  0.48640009503E+03  0.11537056140E+03  0.17056923498E+03  0.52819436082E+03  0.00000000000E+00 0.  1.
         11    1    5    5    0    0 -0.75053799208E+02 -0.82914035604E+01 -0.46226985281E+02  0.88536739926E+02  0.00000000000E+00 0.  1.
        -11    1    5    5    0    0 -0.10022234454E+04 -0.21289215958E+03 -0.27556729848E+03  0.10609958728E+04  0.00000000000E+00 0. -1.
          1    1    6    6  503    0  0.81193347236E+02  0.47203020043E+02  0.17828479109E+03  0.20150918458E+03  0.00000000000E+00 0. -1.
         -1    1    6    6    0  503 -0.98271497278E+01 -0.17564770030E+02  0.17332890084E+02  0.26561684748E+02  0.00000000000E+00 0.  1.
<mgrwt>
<rscale>  0 0.24372207E+04</rscale>
<asrwt>0</asrwt>
<pdfrwt beam="1">  1        1 0.17605787E+00 0.24372207E+04</pdfrwt>
<pdfrwt beam="2">  1       -2 0.19964000E+00 0.24372207E+04</pdfrwt>
<totfact> 0.12306958E+00</totfact>
</mgrwt>
</event>
<event>
12    4  0.4413110E-008  0.2358074E+04  0.7818608E-02  0.8455369E-01
          1   -1    0    0  501    0  0.00000000000E+00  0.00000000000E+00  0.31012545885E+04  0.31012545885E+04  0.00000000000E+00 0. -1.
         -2   -1    0    0    0  501 -0.00000000000E+00 -0.00000000000E+00 -0.44824713093E+03  0.44824713093E+03  0.00000000000E+00 0.  1.
        -24    2    1    2    0    0  0.85975873887E+03  0.46659949324E+01  0.35408962395E+03  0.93337468002E+03  0.81252513540E+02 0.  0.
        254    2    1    2    0    0 -0.85975873887E+03 -0.46659949324E+01  0.22989178336E+04  0.26161270394E+04  0.90547811678E+03 0.  0.
         23    2    4    4    0    0 -0.64006348897E+03 -0.28593863152E+03  0.20586167702E+04  0.21766143885E+04  0.91131875363E+02 0.  0.
         23    2    4    4    0    0 -0.21969524989E+03  0.28127263659E+03  0.24030106336E+03  0.43951265085E+03  0.89702119771E+02 0.  0.
          3    1    3    3  502    0  0.29871418978E+03 -0.30973953560E+02  0.10087933689E+03  0.31680623981E+03  0.00000000000E+00 0. -1.
         -4    1    3    3    0  502  0.56104454909E+03  0.35639948493E+02  0.25321028706E+03  0.61656844021E+03  0.00000000000E+00 0.  1.
         11    1    5    5    0    0 -0.62997751780E+03 -0.26457887541E+03  0.19864584094E+04  0.21006881412E+04  0.00000000000E+00 0. -1.
        -11    1    5    5    0    0 -0.10085971171E+02 -0.21359756113E+02  0.72158360815E+02  0.75926247313E+02  0.00000000000E+00 0.  1.
          3    1    6    6  503    0 -0.20590553573E+03  0.24331681572E+03  0.24021679481E+03  0.39912939126E+03  0.00000000000E+00 0. -1.
         -3    1    6    6    0  503 -0.13789714164E+02  0.37955820862E+02  0.84268543194E-01  0.40383259591E+02  0.00000000000E+00 0.  1.
<mgrwt>
<rscale>  0 0.23580742E+04</rscale>
<asrwt>0</asrwt>
<pdfrwt beam="1">  1        1 0.47711608E+00 0.23580742E+04</pdfrwt>
<pdfrwt beam="2">  1       -2 0.68961099E-01 0.23580742E+04</pdfrwt>
<totfact> 0.76512036E-01</totfact>
</mgrwt>
</event>
<event>
12    4  0.4413110E-008  0.2231835E+04  0.7818608E-02  0.8505293E-01
          1   -1    0    0  501    0  0.00000000000E+00  0.00000000000E+00  0.15698770512E+04  0.15698770512E+04  0.00000000000E+00 0. -1.
         -2   -1    0    0    0  501 -0.00000000000E+00 -0.00000000000E+00 -0.79322901241E+03  0.79322901241E+03  0.00000000000E+00 0.  1.
        -24    2    1    2    0    0  0.95898270522E+02  0.39793111050E+03  0.12152767872E+04  0.12848969330E+04  0.80726773232E+02 0.  0.
        254    2    1    2    0    0 -0.95898270522E+02 -0.39793111050E+03 -0.43862874841E+03  0.10782091306E+04  0.89587616524E+03 0.  0.
         23    2    4    4    0    0  0.39182023866E+03 -0.19580371274E+03 -0.17474576675E+03  0.48097121328E+03  0.94525296398E+02 0.  0.
         23    2    4    4    0    0 -0.48771850918E+03 -0.20212739775E+03 -0.26388298165E+03  0.59723791734E+03  0.91291143000E+02 0.  0.
          1    1    3    3  502    0  0.22200428414E+02  0.25672912744E+03  0.77219016035E+03  0.81405180894E+03  0.00000000000E+00 0. -1.
         -2    1    3    3    0  502  0.73697842108E+02  0.14120198305E+03  0.44308662689E+03  0.47084512409E+03  0.00000000000E+00 0.  1.
         11    1    5    5    0    0  0.17594490147E+02 -0.38113765824E+02 -0.18077296047E+02  0.45705731164E+02  0.00000000000E+00 0.  1.
        -11    1    5    5    0    0  0.37422574851E+03 -0.15768994692E+03 -0.15666847070E+03  0.43526548211E+03  0.00000000000E+00 0. -1.
          4    1    6    6  503    0 -0.33289826332E+03 -0.17434571501E+03 -0.15815829297E+03  0.40771525321E+03  0.00000000000E+00 0. -1.
         -4    1    6    6    0  503 -0.15482024586E+03 -0.27781682741E+02 -0.10572468869E+03  0.18952266413E+03  0.00000000000E+00 0.  1.
<mgrwt>
<rscale>  0 0.22318351E+04</rscale>
<asrwt>0</asrwt>
<pdfrwt beam="1">  1        1 0.24151955E+00 0.22318351E+04</pdfrwt>
<pdfrwt beam="2">  1       -2 0.12203523E+00 0.22318351E+04</pdfrwt>
<totfact> 0.23792334E+00</totfact>
</mgrwt>
</event>
<event>
12    4  0.4413110E-008  0.1805447E+04  0.7818608E-02  0.8703408E-01
         -4   -1    0    0    0  501 -0.00000000000E+00  0.00000000000E+00  0.48116031168E+03  0.48116031168E+03  0.00000000000E+00 0.  1.
          1   -1    0    0  501    0  0.00000000000E+00 -0.00000000000E+00 -0.16936338641E+04  0.16936338641E+04  0.00000000000E+00 0. -1.
        -24    2    1    2    0    0  0.17574459295E+03  0.50338226164E+03  0.44877407380E+02  0.54097227511E+03  0.79731784465E+02 0.  0.
        254    2    1    2    0    0 -0.17574459295E+03 -0.50338226164E+03 -0.12573509598E+04  0.16338219007E+04  0.89675119388E+03 0.  0.
         23    2    4    4    0    0  0.25978492624E+03  0.57659024171E+02 -0.15852082142E+03  0.32240062927E+03  0.89445759891E+02 0.  0.
         23    2    4    4    0    0 -0.43552951918E+03 -0.56104128581E+03 -0.10988301384E+04  0.13114212714E+04  0.89133560461E+02 0.  0.
          3    1    3    3  502    0  0.40817947251E+02  0.21060359247E+03  0.41948971168E+02  0.21858566778E+03  0.00000000000E+00 0. -1.
         -4    1    3    3    0  502  0.13492664570E+03  0.29277866917E+03  0.29284362119E+01  0.32238660732E+03  0.00000000000E+00 0.  1.
         11    1    5    5    0    0  0.22603115515E+03  0.41805308767E+02 -0.16704038941E+03  0.28414830394E+03  0.00000000000E+00 0. -1.
        -11    1    5    5    0    0  0.33753771088E+02  0.15853715404E+02  0.85195679823E+01  0.38252325333E+02  0.00000000000E+00 0.  1.
          3    1    6    6  503    0 -0.41539516007E+03 -0.55443757471E+03 -0.10472895502E+04  0.12556948536E+04  0.00000000000E+00 0. -1.
         -3    1    6    6    0  503 -0.20134359114E+02 -0.66037111088E+01 -0.51540588181E+02  0.55726417859E+02  0.00000000000E+00 0.  1.
<mgrwt>
<rscale>  0 0.18054466E+04</rscale>
<asrwt>0</asrwt>
<pdfrwt beam="1">  1        1 0.26055905E+00 0.18054466E+04</pdfrwt>
<pdfrwt beam="2">  1       -4 0.74024664E-01 0.18054466E+04</pdfrwt>
<totfact> 0.36885382E+00</totfact>
</mgrwt>
</event>
<event>
12    4  0.4413110E-008  0.1121172E+04  0.7818608E-02  0.9184798E-01
          3   -1    0    0  501    0  0.00000000000E+00  0.00000000000E+00  0.21856465470E+04  0.21856465470E+04  0.00000000000E+00 0. -1.
         -4   -1    0    0    0  501 -0.00000000000E+00 -0.00000000000E+00 -0.14378201875E+03  0.14378201875E+03  0.00000000000E+00 0.  1.
        -24    2    1    2    0    0  0.17980687822E+02  0.68402981148E+02  0.80247083706E+03  0.80916487474E+03  0.76066268513E+02 0.  0.
        254    2    1    2    0    0 -0.17980687822E+02 -0.68402981148E+02  0.12393936912E+04  0.15202636910E+04  0.87755495298E+03 0.  0.
         23    2    4    4    0    0  0.10614174032E+03 -0.38149718907E+03  0.26065858558E+03  0.48140346429E+03  0.83667334667E+02 0.  0.
         23    2    4    4    0    0 -0.12412242814E+03  0.31309420792E+03  0.97873510560E+03  0.10388602267E+04  0.88734455118E+02 0.  0.
          1    1    3    3  502    0  0.18628771506E-01  0.77706813747E+02  0.49834294749E+03  0.50436498943E+03  0.00000000000E+00 0. -1.
         -2    1    3    3    0  502  0.17962059051E+02 -0.93038325994E+01  0.30412788958E+03  0.30479988531E+03  0.00000000000E+00 0.  1.
         11    1    5    5    0    0  0.97077443731E+02 -0.24414801951E+03  0.20362071793E+03  0.33240589989E+03  0.00000000000E+00 0. -1.
        -11    1    5    5    0    0  0.90642965859E+01 -0.13734916956E+03  0.57037867652E+02  0.14899756440E+03  0.00000000000E+00 0.  1.
          4    1    6    6  503    0 -0.10443880579E+03  0.28765050413E+03  0.78625286215E+03  0.84370838559E+03  0.00000000000E+00 0. -1.
         -4    1    6    6    0  503 -0.19683622352E+02  0.25443703791E+02  0.19248224346E+03  0.19515184113E+03  0.00000000000E+00 0.  1.
<mgrwt>
<rscale>  0 0.11211720E+04</rscale>
<asrwt>0</asrwt>
<pdfrwt beam="1">  1        3 0.33625329E+00 0.11211720E+04</pdfrwt>
<pdfrwt beam="2">  1       -4 0.22120312E-01 0.11211720E+04</pdfrwt>
<totfact> 0.10840274E+00</totfact>
</mgrwt>
</event>
<event>
12    4  0.4413110E-008  0.1333260E+04  0.7818608E-02  0.9003598E-01
         -2   -1    0    0    0  501 -0.00000000000E+00  0.00000000000E+00  0.33759440647E+03  0.33759440647E+03  0.00000000000E+00 0.  1.
          1   -1    0    0  501    0  0.00000000000E+00 -0.00000000000E+00 -0.13163592312E+04  0.13163592312E+04  0.00000000000E+00 0. -1.
        -24    2    1    2    0    0 -0.26826452618E+03 -0.13711709280E+03 -0.30475365861E+02  0.31271835000E+03  0.78083707366E+02 0.  0.
        254    2    1    2    0    0  0.26826452618E+03  0.13711709280E+03 -0.94828945889E+03  0.13412352877E+04  0.89938437052E+03 0.  0.
         23    2    4    4    0    0  0.53832332438E+03  0.19661995253E+03 -0.35620403509E+03  0.68140643462E+03  0.94773452127E+02 0.  0.
         23    2    4    4    0    0 -0.27005879819E+03 -0.59502859735E+02 -0.59208542380E+03  0.65982885306E+03  0.91305100944E+02 0.  0.
          1    1    3    3  502    0 -0.72893885100E+02 -0.18086836385E+02 -0.37268689426E+02  0.83842753693E+02  0.00000000000E+00 0. -1.
         -2    1    3    3    0  502 -0.19537064108E+03 -0.11903025641E+03  0.67933235656E+01  0.22887559630E+03  0.00000000000E+00 0.  1.
         11    1    5    5    0    0  0.38085685560E+03  0.14861378166E+03 -0.30134518247E+03  0.50788475026E+03  0.00000000000E+00 0. -1.
        -11    1    5    5    0    0  0.15746646878E+03  0.48006170874E+02 -0.54858852627E+02  0.17352168436E+03  0.00000000000E+00 0.  1.
          3    1    6    6  503    0 -0.12936932233E+03 -0.27214601408E+02 -0.18100996374E+03  0.22414652142E+03  0.00000000000E+00 0. -1.
         -3    1    6    6    0  503 -0.14068947586E+03 -0.32288258327E+02 -0.41107546005E+03  0.43568233164E+03  0.00000000000E+00 0.  1.
<mgrwt>
<rscale>  0 0.13332599E+04</rscale>
<asrwt>0</asrwt>
<pdfrwt beam="1">  1        1 0.20251681E+00 0.13332599E+04</pdfrwt>
<pdfrwt beam="2">  1       -2 0.51937600E-01 0.13332599E+04</pdfrwt>
<totfact> 0.26497148E+01</totfact>
</mgrwt>
</event>
<event>
12    4  0.4413110E-008  0.1644393E+04  0.7818608E-02  0.8793730E-01
          1   -1    0    0  501    0  0.00000000000E+00  0.00000000000E+00  0.85778497894E+03  0.85778497894E+03  0.00000000000E+00 0. -1.
         -2   -1    0    0    0  501 -0.00000000000E+00 -0.00000000000E+00 -0.78808500465E+03  0.78808500465E+03  0.00000000000E+00 0.  1.
        -24    2    1    2    0    0  0.39284850179E+02  0.53445019768E+03  0.19452797594E+03  0.57608130888E+03  0.82754019631E+02 0.  0.
        254    2    1    2    0    0 -0.39284850179E+02 -0.53445019768E+03 -0.12482800164E+03  0.10697886747E+04  0.91743417490E+03 0.  0.
         23    2    4    4    0    0  0.37423684210E+03 -0.48351594993E+03 -0.16144437616E+03  0.64033050472E+03  0.10058817456E+03 0.  0.
         23    2    4    4    0    0 -0.41352169228E+03 -0.50934247750E+02  0.36616374517E+02  0.42945816999E+03  0.97463189506E+02 0.  0.
          1    1    3    3  502    0 -0.10959864786E+02  0.23481347781E+03  0.53275522419E+02  0.24103063972E+03  0.00000000000E+00 0. -1.
         -2    1    3    3    0  502  0.50244714965E+02  0.29963671987E+03  0.14125245352E+03  0.33505066916E+03  0.00000000000E+00 0.  1.
         11    1    5    5    0    0  0.31867610604E+03 -0.38852939107E+03 -0.93869553869E+02  0.51119569779E+03  0.00000000000E+00 0. -1.
        -11    1    5    5    0    0  0.55560736053E+02 -0.94986558855E+02 -0.67574822293E+02  0.12913480693E+03  0.00000000000E+00 0.  1.
          2    1    6    6  503    0 -0.15718178909E+02  0.57024076872E+01  0.21662439900E+02  0.27364939321E+02  0.00000000000E+00 0.  1.
         -2    1    6    6    0  503 -0.39780351337E+03 -0.56636655437E+02  0.14953934618E+02  0.40209323066E+03  0.00000000000E+00 0. -1.
<mgrwt>
<rscale>  0 0.16443935E+04</rscale>
<asrwt>0</asrwt>
<pdfrwt beam="1">  1        1 0.13196692E+00 0.16443935E+04</pdfrwt>
<pdfrwt beam="2">  1       -2 0.12124385E+00 0.16443935E+04</pdfrwt>
<totfact> 0.85512051E+00</totfact>
</mgrwt>
</event>
<event>
12    4  0.4413110E-008  0.2683835E+04  0.7818608E-02  0.8340269E-01
          1   -1    0    0  501    0  0.00000000000E+00  0.00000000000E+00  0.20734224580E+04  0.20734224580E+04  0.00000000000E+00 0. -1.
         -2   -1    0    0    0  501 -0.00000000000E+00 -0.00000000000E+00 -0.86848817801E+03  0.86848817801E+03  0.00000000000E+00 0.  1.
        -24    2    1    2    0    0  0.21447047368E+03 -0.10985950046E+04  0.99653887885E+02  0.11264715677E+04  0.78094348534E+02 0.  0.
        254    2    1    2    0    0 -0.21447047368E+03  0.10985950046E+04  0.11052803921E+04  0.18154390683E+04  0.90623710887E+03 0.  0.
         23    2    4    4    0    0 -0.10930625115E+03  0.21682121078E+03 -0.13095746994E+03  0.29082712300E+03  0.92039461926E+02 0.  0.
         23    2    4    4    0    0 -0.10516422253E+03  0.88177379379E+03  0.12362378620E+04  0.15246119453E+04  0.87022957891E+02 0.  0.
          1    1    3    3  502    0  0.18285826130E+03 -0.96923493202E+03  0.11229997407E+03  0.99270578791E+03  0.00000000000E+00 0. -1.
         -2    1    3    3    0  502  0.31612212385E+02 -0.12936007255E+03 -0.12646086182E+02  0.13376577977E+03  0.00000000000E+00 0.  1.
         11    1    5    5    0    0 -0.11819127616E+03  0.18707628175E+03 -0.88716719413E+02  0.23840589182E+03  0.00000000000E+00 0.  1.
        -11    1    5    5    0    0  0.88850250085E+01  0.29744929037E+02 -0.42240750528E+02  0.52421231176E+02  0.00000000000E+00 0. -1.
          4    1    6    6  503    0 -0.94214904810E+02  0.47274853764E+03  0.70555644196E+03  0.85450425447E+03  0.00000000000E+00 0. -1.
         -4    1    6    6    0  503 -0.10949317723E+02  0.40902525615E+03  0.53068142007E+03  0.67010769084E+03  0.00000000000E+00 0.  1.
<mgrwt>
<rscale>  0 0.26838352E+04</rscale>
<asrwt>0</asrwt>
<pdfrwt beam="1">  1        1 0.31898807E+00 0.26838352E+04</pdfrwt>
<pdfrwt beam="2">  1       -2 0.13361357E+00 0.26838352E+04</pdfrwt>
<totfact> 0.82703153E-01</totfact>
</mgrwt>
</event>
<event>
12    4  0.4413110E-008  0.1380743E+04  0.7818608E-02  0.8967877E-01
         -2   -1    0    0    0  501 -0.00000000000E+00  0.00000000000E+00  0.11394192537E+04  0.11394192537E+04  0.00000000000E+00 0.  1.
          1   -1    0    0  501    0  0.00000000000E+00 -0.00000000000E+00 -0.41829426276E+03  0.41829426276E+03  0.00000000000E+00 0. -1.
        -24    2    1    2    0    0  0.39472167930E+03 -0.37390020162E+02  0.24074847565E+03  0.47095131572E+03  0.81437678777E+02 0.  0.
        254    2    1    2    0    0 -0.39472167930E+03  0.37390020162E+02  0.48037651528E+03  0.10867622007E+04  0.89055447156E+03 0.  0.
         23    2    4    4    0    0 -0.59539270434E+03  0.89642136782E+02  0.57905426890E+03  0.84051193815E+03  0.92888571832E+02 0.  0.
         23    2    4    4    0    0  0.20067102503E+03 -0.52252116621E+02 -0.98677753614E+02  0.24625026260E+03  0.88897405999E+02 0.  0.
          3    1    3    3  502    0  0.36561074178E+03 -0.11525458863E+02  0.21581961824E+03  0.42471420781E+03  0.00000000000E+00 0. -1.
         -4    1    3    3    0  502  0.29110937529E+02 -0.25864561299E+02  0.24928857419E+02  0.46237107903E+02  0.00000000000E+00 0.  1.
         11    1    5    5    0    0 -0.33632575392E+03  0.43535002968E+01  0.32829040681E+03  0.47000910302E+03  0.00000000000E+00 0. -1.
        -11    1    5    5    0    0 -0.25906695042E+03  0.85288636486E+02  0.25076386209E+03  0.37050283513E+03  0.00000000000E+00 0.  1.
          2    1    6    6  503    0  0.91118792883E+02  0.16680460687E+02 -0.62871589230E+02  0.11195404824E+03  0.00000000000E+00 0. -1.
         -2    1    6    6    0  503  0.10955223215E+03 -0.68932577308E+02 -0.35806164383E+02  0.13429621436E+03  0.00000000000E+00 0.  1.
<mgrwt>
<rscale>  0 0.13807426E+04</rscale>
<asrwt>0</asrwt>
<pdfrwt beam="1">  1        1 0.64352964E-01 0.13807426E+04</pdfrwt>
<pdfrwt beam="2">  1       -2 0.17529527E+00 0.13807426E+04</pdfrwt>
<totfact> 0.94202996E+00</totfact>
</mgrwt>
</event>
<event>
12    4  0.4413110E-008  0.1501073E+04  0.7818608E-02  0.8883740E-01
         -2   -1    0    0    0  501 -0.00000000000E+00  0.00000000000E+00  0.58360222556E+03  0.58360222556E+03  0.00000000000E+00 0.  1.
          1   -1    0    0  501    0  0.00000000000E+00 -0.00000000000E+00 -0.96522041191E+03  0.96522041191E+03  0.00000000000E+00 0. -1.
        -24    2    1    2    0    0  0.16989478887E+03 -0.12406656842E+03  0.31386792448E+03  0.38613751144E+03  0.79576070766E+02 0.  0.
        254    2    1    2    0    0 -0.16989478887E+03  0.12406656842E+03 -0.69548611083E+03  0.11626851260E+04  0.90767781686E+03 0.  0.
         23    2    4    4    0    0 -0.53100565210E+03  0.30363707537E+02 -0.48873383432E+03  0.72818128708E+03  0.92186055021E+02 0.  0.
         23    2    4    4    0    0  0.36111086323E+03  0.93702860886E+02 -0.20675227651E+03  0.43450383894E+03  0.82860126316E+02 0.  0.
          1    1    3    3  502    0 -0.63843514686E+01 -0.13003555549E+02  0.96253689663E+01  0.17392530820E+02  0.00000000000E+00 0. -1.
         -2    1    3    3    0  502  0.17627914034E+03 -0.11106301287E+03  0.30424255551E+03  0.36874498062E+03  0.00000000000E+00 0.  1.
         11    1    5    5    0    0 -0.39702540382E+03 -0.17497014931E+02 -0.35307465174E+03  0.53159855767E+03  0.00000000000E+00 0.  1.
        -11    1    5    5    0    0 -0.13398024828E+03  0.47860722468E+02 -0.13565918258E+03  0.19658272941E+03  0.00000000000E+00 0. -1.
          1    1    6    6  503    0  0.34859999911E+03  0.98252720665E+02 -0.21259357809E+03  0.41996617238E+03  0.00000000000E+00 0.  1.
         -1    1    6    6    0  503  0.12510864116E+02 -0.45498597789E+01  0.58413015778E+01  0.14537666561E+02  0.00000000000E+00 0. -1.
<mgrwt>
<rscale>  0 0.15010727E+04</rscale>
<asrwt>0</asrwt>
<pdfrwt beam="1">  1        1 0.14849545E+00 0.15010727E+04</pdfrwt>
<pdfrwt beam="2">  1       -2 0.89784959E-01 0.15010727E+04</pdfrwt>
<totfact> 0.14522899E+01</totfact>
</mgrwt>
</event>
<event>
12    4  0.4413110E-008  0.1452227E+04  0.7818608E-02  0.8916858E-01
          1   -1    0    0  501    0  0.00000000000E+00  0.00000000000E+00  0.75561757877E+03  0.75561757877E+03  0.00000000000E+00 0. -1.
         -2   -1    0    0    0  501 -0.00000000000E+00 -0.00000000000E+00 -0.69776104386E+03  0.69776104386E+03  0.00000000000E+00 0.  1.
        -24    2    1    2    0    0  0.56239382735E+02 -0.24893310089E+03  0.37441634585E+03  0.45995639209E+03  0.79004592865E+02 0.  0.
        254    2    1    2    0    0 -0.56239382735E+02  0.24893310089E+03 -0.31655981094E+03  0.99342223054E+03  0.90639233080E+03 0.  0.
         23    2    4    4    0    0  0.41110698264E+03  0.74995433282E+02 -0.86676798711E+02  0.43666771446E+03  0.92371852997E+02 0.  0.
         23    2    4    4    0    0 -0.46734636538E+03  0.17393766761E+03 -0.22988301223E+03  0.55675451608E+03  0.91991599722E+02 0.  0.
          3    1    3    3  502    0  0.21600995351E+02 -0.22259352758E+03  0.31396354214E+03  0.38547060500E+03  0.00000000000E+00 0. -1.
         -4    1    3    3    0  502  0.34638387384E+02 -0.26339573310E+02  0.60452803706E+02  0.74485787092E+02  0.00000000000E+00 0.  1.
         11    1    5    5    0    0  0.40827463903E+03  0.68822417691E+02 -0.71665174754E+02  0.42019115093E+03  0.00000000000E+00 0. -1.
        -11    1    5    5    0    0  0.28323436162E+01  0.61730155907E+01 -0.15011623958E+02  0.16476563528E+02  0.00000000000E+00 0.  1.
          2    1    6    6  503    0 -0.41234842781E+03  0.12706452836E+03 -0.17333473740E+03  0.46499629190E+03  0.00000000000E+00 0. -1.
         -2    1    6    6    0  503 -0.54997937564E+02  0.46873139248E+02 -0.56548274829E+02  0.91758224184E+02  0.00000000000E+00 0.  1.
<mgrwt>
<rscale>  0 0.14522266E+04</rscale>
<asrwt>0</asrwt>
<pdfrwt beam="1">  1        1 0.11624886E+00 0.14522266E+04</pdfrwt>
<pdfrwt beam="2">  1       -2 0.10734785E+00 0.14522266E+04</pdfrwt>
<totfact> 0.14349421E+01</totfact>
</mgrwt>
</event>
<event>
12    4  0.4413110E-008  0.2407511E+04  0.7818608E-02  0.8436697E-01
          1   -1    0    0  501    0  0.00000000000E+00  0.00000000000E+00  0.23745917218E+04  0.23745917218E+04  0.00000000000E+00 0. -1.
         -2   -1    0    0    0  501 -0.00000000000E+00 -0.00000000000E+00 -0.61022171471E+03  0.61022171471E+03  0.00000000000E+00 0.  1.
        -24    2    1    2    0    0  0.39463901518E+03 -0.95361072187E+02  0.19333369062E+04  0.19771830661E+04  0.81410057820E+02 0.  0.
        254    2    1    2    0    0 -0.39463901518E+03  0.95361072187E+02 -0.16896689918E+03  0.10076303704E+04  0.90660656509E+03 0.  0.
         23    2    4    4    0    0 -0.34736962672E+03 -0.18895850819E+03  0.25982467776E+03  0.48266901535E+03  0.95339078144E+02 0.  0.
         23    2    4    4    0    0 -0.47269388457E+02  0.28431958038E+03 -0.42879157694E+03  0.52496135501E+03  0.93006391871E+02 0.  0.
          1    1    3    3  502    0  0.31701601235E+03 -0.83851232807E+02  0.16895471735E+04  0.17210751967E+04  0.00000000000E+00 0. -1.
         -2    1    3    3    0  502  0.77623002830E+02 -0.11509839379E+02  0.24378973280E+03  0.25610786944E+03  0.00000000000E+00 0.  1.
         11    1    5    5    0    0 -0.26868815209E+03 -0.98376065797E+02  0.19537596584E+03  0.34647213658E+03  0.00000000000E+00 0. -1.
        -11    1    5    5    0    0 -0.78681474631E+02 -0.90582442394E+02  0.64448711919E+02  0.13619687878E+03  0.00000000000E+00 0.  1.
          2    1    6    6  503    0 -0.10637095164E+02  0.25269401691E+03 -0.33892076652E+03  0.42288851954E+03  0.00000000000E+00 0. -1.
         -2    1    6    6    0  503 -0.36632293294E+02  0.31625563465E+02 -0.89870810413E+02  0.10207283547E+03  0.00000000000E+00 0.  1.
<mgrwt>
<rscale>  0 0.24075111E+04</rscale>
<asrwt>0</asrwt>
<pdfrwt beam="1">  1        1 0.36532180E+00 0.24075111E+04</pdfrwt>
<pdfrwt beam="2">  1       -2 0.93880265E-01 0.24075111E+04</pdfrwt>
<totfact> 0.12472996E+00</totfact>
</mgrwt>
</event>
<event>
12    4  0.4413110E-008  0.2212766E+04  0.7818608E-02  0.8513134E-01
          1   -1    0    0  501    0  0.00000000000E+00  0.00000000000E+00  0.94417899001E+03  0.94417899001E+03  0.00000000000E+00 0. -1.
         -2   -1    0    0    0  501 -0.00000000000E+00 -0.00000000000E+00 -0.12964522041E+04  0.12964522041E+04  0.00000000000E+00 0.  1.
        -24    2    1    2    0    0 -0.63597156004E+03  0.65834159931E+03 -0.24579844720E+03  0.95109822404E+03  0.79356591071E+02 0.  0.
        254    2    1    2    0    0  0.63597156004E+03 -0.65834159931E+03 -0.10647476694E+03  0.12895329701E+04  0.90204485391E+03 0.  0.
         23    2    4    4    0    0  0.63177452723E+03 -0.40420476373E+03 -0.42914234830E+03  0.86894667517E+03  0.91567597415E+02 0.  0.
         23    2    4    4    0    0  0.41970328091E+01 -0.25413683558E+03  0.32266758136E+03  0.42058629495E+03  0.90417460450E+02 0.  0.
          1    1    3    3  502    0 -0.60764882650E+03  0.63750085256E+03 -0.25045625226E+03  0.91562698063E+03  0.00000000000E+00 0. -1.
         -2    1    3    3    0  502 -0.28322733540E+02  0.20840746753E+02  0.46578050656E+01  0.35471243401E+02  0.00000000000E+00 0.  1.
         11    1    5    5    0    0  0.57592900223E+03 -0.37068905182E+03 -0.35924944976E+03  0.77341111700E+03  0.00000000000E+00 0. -1.
        -11    1    5    5    0    0  0.55845525005E+02 -0.33515711914E+02 -0.69892898540E+02  0.95535558168E+02  0.00000000000E+00 0.  1.
          1    1    6    6  503    0  0.45596010077E+02 -0.15991902040E+03  0.18586825007E+03  0.24939946994E+03  0.00000000000E+00 0. -1.
         -1    1    6    6    0  503 -0.41398977268E+02 -0.94217815183E+02  0.13679933129E+03  0.17118682501E+03  0.00000000000E+00 0.  1.
<mgrwt>
<rscale>  0 0.22127656E+04</rscale>
<asrwt>0</asrwt>
<pdfrwt beam="1">  1        1 0.14525831E+00 0.22127656E+04</pdfrwt>
<pdfrwt beam="2">  1       -2 0.19945418E+00 0.22127656E+04</pdfrwt>
<totfact> 0.17934299E+00</totfact>
</mgrwt>
</event>
<event>
12    4  0.4413110E-008  0.1409912E+04  0.7818608E-02  0.8946675E-01
         -2   -1    0    0    0  501 -0.00000000000E+00  0.00000000000E+00  0.78004108139E+03  0.78004108139E+03  0.00000000000E+00 0.  1.
          1   -1    0    0  501    0  0.00000000000E+00 -0.00000000000E+00 -0.63709807676E+03  0.63709807676E+03  0.00000000000E+00 0. -1.
        -24    2    1    2    0    0  0.32741553161E+03  0.23892216354E+03  0.10291099131E+03  0.42583736041E+03  0.80386907017E+02 0.  0.
        254    2    1    2    0    0 -0.32741553161E+03 -0.23892216354E+03  0.40032013314E+02  0.99130179774E+03  0.90376543502E+03 0.  0.
         23    2    4    4    0    0 -0.29644908969E+03 -0.50610715404E+03  0.24403399462E+03  0.64182002263E+03  0.91399325863E+02 0.  0.
         23    2    4    4    0    0 -0.30966441919E+02  0.26718499050E+03 -0.20400198131E+03  0.34948177511E+03  0.90409972237E+02 0.  0.
          1    1    3    3  502    0  0.59883312042E+02  0.31007860565E+02 -0.11106289478E+02  0.68343603533E+02  0.00000000000E+00 0. -1.
         -2    1    3    3    0  502  0.26753221957E+03  0.20791430297E+03  0.11401728079E+03  0.35749375688E+03  0.00000000000E+00 0.  1.
         11    1    5    5    0    0 -0.30318673150E+03 -0.49624836594E+03  0.24102262552E+03  0.62950499670E+03  0.00000000000E+00 0. -1.
        -11    1    5    5    0    0  0.67376418034E+01 -0.98587881009E+01  0.30113690977E+01  0.12315025933E+02  0.00000000000E+00 0.  1.
          3    1    6    6  503    0 -0.53700950743E+02  0.24316159338E+03 -0.19143336319E+03  0.31409884614E+03  0.00000000000E+00 0. -1.
         -3    1    6    6    0  503  0.22734508824E+02  0.24023397119E+02 -0.12568618121E+02  0.35382928964E+02  0.00000000000E+00 0.  1.
<mgrwt>
<rscale>  0 0.14099116E+04</rscale>
<asrwt>0</asrwt>
<pdfrwt beam="1">  1        1 0.98015089E-01 0.14099116E+04</pdfrwt>
<pdfrwt beam="2">  1       -2 0.12000632E+00 0.14099116E+04</pdfrwt>
<totfact> 0.14201899E+01</totfact>
</mgrwt>
</event>
<event>
12    4  0.4413110E-008  0.3160105E+04  0.7818608E-02  0.8199434E-01
          1   -1    0    0  501    0  0.00000000000E+00  0.00000000000E+00  0.36777547426E+04  0.36777547426E+04  0.00000000000E+00 0. -1.
         -2   -1    0    0    0  501 -0.00000000000E+00 -0.00000000000E+00 -0.67882865479E+03  0.67882865479E+03  0.00000000000E+00 0.  1.
        -24    2    1    2    0    0  0.48103713223E+03  0.50040848318E+03  0.31280311534E+04  0.32050780642E+04  0.78365353225E+02 0.  0.
        254    2    1    2    0    0 -0.48103713223E+03 -0.50040848318E+03 -0.12910506553E+03  0.11515053332E+04  0.90966534607E+03 0.  0.
         23    2    4    4    0    0 -0.52096145426E+03 -0.65413456627E+03  0.11220436977E+03  0.84825250957E+03  0.87462173387E+02 0.  0.
         23    2    4    4    0    0  0.39924322022E+02  0.15372608310E+03 -0.24130943530E+03  0.30325282364E+03  0.92229991706E+02 0.  0.
          1    1    3    3  502    0  0.37438821926E+03  0.43278714607E+03  0.25608691639E+04  0.26240278442E+04  0.00000000000E+00 0. -1.
         -2    1    3    3    0  502  0.10664891298E+03  0.67621337108E+02  0.56716198945E+03  0.58105021999E+03  0.00000000000E+00 0.  1.
         11    1    5    5    0    0 -0.65968571285E+02 -0.44880668894E+02  0.20207537926E+02  0.82307177250E+02  0.00000000000E+00 0. -1.
        -11    1    5    5    0    0 -0.45499288297E+03 -0.60925389738E+03  0.91996831844E+02  0.76594533232E+03  0.00000000000E+00 0.  1.
          2    1    6    6  503    0  0.28664105321E+02  0.32991239304E+02 -0.14470009505E+02  0.46037310736E+02  0.00000000000E+00 0. -1.
         -2    1    6    6    0  503  0.11260216701E+02  0.12073484379E+03 -0.22683942580E+03  0.25721551291E+03  0.00000000000E+00 0.  1.
<mgrwt>
<rscale>  0 0.31601046E+04</rscale>
<asrwt>0</asrwt>
<pdfrwt beam="1">  1        1 0.56580841E+00 0.31601046E+04</pdfrwt>
<pdfrwt beam="2">  1       -2 0.10443518E+00 0.31601046E+04</pdfrwt>
<totfact> 0.98911834E-02</totfact>
</mgrwt>
</event>
<event>
12    4  0.4413110E-008  0.1601787E+04  0.7818608E-02  0.8819451E-01
          1   -1    0    0  501    0  0.00000000000E+00  0.00000000000E+00  0.18151136511E+04  0.18151136511E+04  0.00000000000E+00 0. -1.
         -2   -1    0    0    0  501 -0.00000000000E+00 -0.00000000000E+00 -0.35338319188E+03  0.35338319188E+03  0.00000000000E+00 0.  1.
        -24    2    1    2    0    0  0.13015451556E+03 -0.19741360793E+03  0.11485288754E+04  0.11751578847E+04  0.77234357715E+02 0.  0.
        254    2    1    2    0    0 -0.13015451556E+03  0.19741360793E+03  0.31320158389E+03  0.99333895828E+03  0.91253203963E+03 0.  0.
         23    2    4    4    0    0 -0.21061215495E+03  0.48355869786E+03  0.40294399613E+03  0.66974309848E+03  0.89473235389E+02 0.  0.
         23    2    4    4    0    0  0.80457639392E+02 -0.28614508993E+03 -0.89742412233E+02  0.32359585980E+03  0.91148975290E+02 0.  0.
          1    1    3    3  502    0  0.12463052937E+03 -0.17486239273E+03  0.11064910272E+04  0.11271344279E+04  0.00000000000E+00 0. -1.
         -2    1    3    3    0  502  0.55239861914E+01 -0.22551215204E+02  0.42037848156E+02  0.48023456854E+02  0.00000000000E+00 0.  1.
         11    1    5    5    0    0 -0.15125100223E+03  0.27984988435E+03  0.28433510982E+03  0.42666061234E+03  0.00000000000E+00 0. -1.
        -11    1    5    5    0    0 -0.59361152721E+02  0.20370881352E+03  0.11860888631E+03  0.24308248614E+03  0.00000000000E+00 0.  1.
          3    1    6    6  503    0  0.85406745955E+02 -0.28913426711E+03 -0.79428746749E+02  0.31177213231E+03  0.00000000000E+00 0. -1.
         -3    1    6    6    0  503 -0.49491065635E+01  0.29891771830E+01 -0.10313665484E+02  0.11823727488E+02  0.00000000000E+00 0.  1.
<mgrwt>
<rscale>  0 0.16017873E+04</rscale>
<asrwt>0</asrwt>
<pdfrwt beam="1">  1        1 0.27924825E+00 0.16017873E+04</pdfrwt>
<pdfrwt beam="2">  1       -2 0.54366646E-01 0.16017873E+04</pdfrwt>
<totfact> 0.10672888E+01</totfact>
</mgrwt>
</event>
<event>
12    4  0.4413110E-008  0.1155211E+04  0.7818608E-02  0.9152990E-01
          3   -1    0    0  501    0  0.00000000000E+00  0.00000000000E+00  0.34618832283E+03  0.34618832283E+03  0.00000000000E+00 0. -1.
         -4   -1    0    0    0  501 -0.00000000000E+00 -0.00000000000E+00 -0.96371802796E+03  0.96371802796E+03  0.00000000000E+00 0.  1.
        -24    2    1    2    0    0  0.15124919916E+03  0.67264818172E+02  0.21045940109E+02  0.18493503513E+03  0.79731798007E+02 0.  0.
        254    2    1    2    0    0 -0.15124919916E+03 -0.67264818172E+02 -0.63857564524E+03  0.11249713157E+04  0.91125228688E+03 0.  0.
         23    2    4    4    0    0 -0.49460272331E+02  0.41004961908E+03 -0.23794025868E+03  0.48564868801E+03  0.93016519051E+02 0.  0.
         23    2    4    4    0    0 -0.10178892682E+03 -0.47731443725E+03 -0.40063538656E+03  0.63932262765E+03  0.10017310828E+03 0.  0.
          1    1    3    3  502    0  0.10110063734E+03  0.29057745934E+02  0.48908750522E+02  0.11600757452E+03  0.00000000000E+00 0. -1.
         -2    1    3    3    0  502  0.50148561820E+02  0.38207072238E+02 -0.27862810413E+02  0.68927460607E+02  0.00000000000E+00 0.  1.
         11    1    5    5    0    0  0.21682616273E+02  0.13628966986E+03 -0.10331477798E+03  0.17239185975E+03  0.00000000000E+00 0. -1.
        -11    1    5    5    0    0 -0.71142888604E+02  0.27375994923E+03 -0.13462548070E+03  0.31325682826E+03  0.00000000000E+00 0.  1.
          3    1    6    6  503    0 -0.11632856819E+02 -0.48395627070E+02 -0.87491531007E+02  0.10065896917E+03  0.00000000000E+00 0. -1.
         -3    1    6    6    0  503 -0.90156070005E+02 -0.42891881018E+03 -0.31314385556E+03  0.53866365847E+03  0.00000000000E+00 0.  1.
<mgrwt>
<rscale>  0 0.11552107E+04</rscale>
<asrwt>0</asrwt>
<pdfrwt beam="1">  1        3 0.53259743E-01 0.11552107E+04</pdfrwt>
<pdfrwt beam="2">  1       -4 0.14826431E+00 0.11552107E+04</pdfrwt>
<totfact> 0.24200449E+00</totfact>
</mgrwt>
</event>
<event>
12    4  0.4722363E-008  0.2408921E+04  0.7818608E-02  0.8436171E-01
         -2   -1    0    0    0  501 -0.00000000000E+00  0.00000000000E+00  0.10220088251E+04  0.10220088251E+04  0.00000000000E+00 0.  1.
          1   -1    0    0  501    0  0.00000000000E+00 -0.00000000000E+00 -0.14194835885E+04  0.14194835885E+04  0.00000000000E+00 0. -1.
        -24    2    1    2    0    0 -0.40305772433E+03  0.23034851124E+03 -0.11106212657E+04  0.12063483558E+04  0.79251461313E+02 0.  0.
        254    2    1    2    0    0  0.40305772433E+03 -0.23034851124E+03  0.71314650233E+03  0.12351440578E+04  0.89525803203E+03 0.  0.
         23    2    4    4    0    0  0.20928361440E+03  0.13365820892E+03 -0.12805015981E+03  0.29405029749E+03  0.91676528935E+02 0.  0.
         23    2    4    4    0    0  0.19377410993E+03 -0.36400672016E+03  0.84119666214E+03  0.94109376029E+03  0.89422274995E+02 0.  0.
          3    1    3    3  502    0 -0.38748623711E+03  0.23148756048E+03 -0.10351249982E+04  0.11292545490E+04  0.00000000000E+00 0. -1.
         -4    1    3    3    0  502 -0.15571487217E+02 -0.11390492382E+01 -0.75496267468E+02  0.77093806813E+02  0.00000000000E+00 0.  1.
         11    1    5    5    0    0  0.88762529396E+02  0.10891496264E+03 -0.81989966776E+02  0.16267639769E+03  0.00000000000E+00 0.  1.
        -11    1    5    5    0    0  0.12052108501E+03  0.24743246279E+02 -0.46060193030E+02  0.13137389980E+03  0.00000000000E+00 0. -1.
          1    1    6    6  503    0  0.16291076039E+03 -0.25319075174E+03  0.53340501038E+03  0.61250826747E+03  0.00000000000E+00 0. -1.
         -1    1    6    6    0  503  0.30863349537E+02 -0.11081596842E+03  0.30779165175E+03  0.32858549282E+03  0.00000000000E+00 0.  1.
<mgrwt>
<rscale>  0 0.24089207E+04</rscale>
<asrwt>0</asrwt>
<pdfrwt beam="1">  1        1 0.21838209E+00 0.24089207E+04</pdfrwt>
<pdfrwt beam="2">  1       -2 0.15723213E+00 0.24089207E+04</pdfrwt>
<totfact> 0.15457068E+00</totfact>
</mgrwt>
</event>
<event>
12    4  0.4413110E-008  0.2042274E+04  0.7818608E-02  0.8587107E-01
          1   -1    0    0  501    0  0.00000000000E+00  0.00000000000E+00  0.72773328796E+03  0.72773328796E+03  0.00000000000E+00 0. -1.
         -2   -1    0    0    0  501 -0.00000000000E+00 -0.00000000000E+00 -0.14328339501E+04  0.14328339501E+04  0.00000000000E+00 0.  1.
        -24    2    1    2    0    0  0.47758736127E+03  0.60556857991E+03 -0.63930745074E+03  0.10049144870E+04  0.79599729311E+02 0.  0.
        254    2    1    2    0    0 -0.47758736127E+03 -0.60556857991E+03 -0.65793211408E+02  0.11556527511E+04  0.85813841651E+03 0.  0.
         23    2    4    4    0    0 -0.59785925437E+03 -0.89038456844E+02  0.14834125513E+02  0.61158027303E+03  0.91906714929E+02 0.  0.
         23    2    4    4    0    0  0.12027189310E+03 -0.51653012306E+03 -0.80627336922E+02  0.54407247809E+03  0.90804172000E+02 0.  0.
          1    1    3    3  502    0  0.18272120114E+03  0.20146901779E+03 -0.18301113506E+03  0.32782598743E+03  0.00000000000E+00 0. -1.
         -2    1    3    3    0  502  0.29486616013E+03  0.40409956211E+03 -0.45629631568E+03  0.67708849953E+03  0.00000000000E+00 0.  1.
         11    1    5    5    0    0 -0.65222532479E+02 -0.19862532276E+02  0.29457014105E+02  0.74271223306E+02  0.00000000000E+00 0. -1.
        -11    1    5    5    0    0 -0.53263672189E+03 -0.69175924568E+02 -0.14622888592E+02  0.53730904973E+03  0.00000000000E+00 0.  1.
          2    1    6    6  503    0  0.11106952475E+02 -0.15092190227E+03  0.10796310548E+02  0.15171468386E+03  0.00000000000E+00 0. -1.
         -2    1    6    6    0  503  0.10916494063E+03 -0.36560822080E+03 -0.91423647470E+02  0.39235779423E+03  0.00000000000E+00 0.  1.
<mgrwt>
<rscale>  0 0.20422742E+04</rscale>
<asrwt>0</asrwt>
<pdfrwt beam="1">  1        1 0.11195897E+00 0.20422742E+04</pdfrwt>
<pdfrwt beam="2">  1       -2 0.22043599E+00 0.20422742E+04</pdfrwt>
<totfact> 0.20401709E+00</totfact>
</mgrwt>
</event>
<event>
12    4  0.4413110E-008  0.2052994E+04  0.7818608E-02  0.8582237E-01
         -2   -1    0    0    0  501 -0.00000000000E+00  0.00000000000E+00  0.80876950765E+03  0.80876950765E+03  0.00000000000E+00 0.  1.
          1   -1    0    0  501    0  0.00000000000E+00 -0.00000000000E+00 -0.13028389692E+04  0.13028389692E+04  0.00000000000E+00 0. -1.
        -24    2    1    2    0    0  0.34605140180E+03  0.73262968840E+03 -0.38848509847E+03  0.90202284801E+03  0.78909527819E+02 0.  0.
        254    2    1    2    0    0 -0.34605140180E+03 -0.73262968840E+03 -0.10558436305E+03  0.12095856288E+04  0.89188087920E+03 0.  0.
         23    2    4    4    0    0  0.23796241590E+03 -0.88471838358E+02  0.13612846093E+03  0.30243988373E+03  0.92117033343E+02 0.  0.
         23    2    4    4    0    0 -0.58401381770E+03 -0.64415785004E+03 -0.24171282398E+03  0.90714574508E+03  0.92069748001E+02 0.  0.
          3    1    3    3  502    0  0.31791538808E+03  0.62003052727E+03 -0.31520130264E+03  0.76476134180E+03  0.00000000000E+00 0. -1.
         -4    1    3    3    0  502  0.28136013721E+02  0.11259916113E+03 -0.73283795829E+02  0.13726150621E+03  0.00000000000E+00 0.  1.
         11    1    5    5    0    0  0.11327352576E+03  0.10570483569E+01  0.34774201614E+02  0.11849579776E+03  0.00000000000E+00 0.  1.
        -11    1    5    5    0    0  0.12468889014E+03 -0.89528886715E+02  0.10135425932E+03  0.18394408597E+03  0.00000000000E+00 0. -1.
          4    1    6    6  503    0 -0.14010459664E+03 -0.21654380377E+03 -0.76426628223E+02  0.26900101571E+03  0.00000000000E+00 0.  1.
         -4    1    6    6    0  503 -0.44390922106E+03 -0.42761404627E+03 -0.16528619576E+03  0.63814472937E+03  0.00000000000E+00 0. -1.
<mgrwt>
<rscale>  0 0.20529943E+04</rscale>
<asrwt>0</asrwt>
<pdfrwt beam="1">  1        1 0.20043676E+00 0.20529943E+04</pdfrwt>
<pdfrwt beam="2">  1       -2 0.12442608E+00 0.20529943E+04</pdfrwt>
<totfact> 0.35385595E+00</totfact>
</mgrwt>
</event>
<event>
12    4  0.4413110E-008  0.1578075E+04  0.7818608E-02  0.8834132E-01
         -2   -1    0    0    0  501 -0.00000000000E+00  0.00000000000E+00  0.56895560456E+03  0.56895560456E+03  0.00000000000E+00 0.  1.
          1   -1    0    0  501    0  0.00000000000E+00 -0.00000000000E+00 -0.10942513259E+04  0.10942513259E+04  0.00000000000E+00 0. -1.
        -24    2    1    2    0    0  0.52339342880E+03 -0.15755511963E+03 -0.14072285393E+03  0.57003928803E+03  0.79859697316E+02 0.  0.
        254    2    1    2    0    0 -0.52339342880E+03  0.15755511963E+03 -0.38457286745E+03  0.10931676425E+04  0.86507508756E+03 0.  0.
         23    2    4    4    0    0 -0.47464809254E+03  0.27572908916E+03  0.11687760884E+03  0.56774980343E+03  0.85802805828E+02 0.  0.
         23    2    4    4    0    0 -0.48745336255E+02 -0.11817396953E+03 -0.50145047629E+03  0.52541783903E+03  0.90940257934E+02 0.  0.
          1    1    3    3  502    0  0.16195646261E+03 -0.73684665913E+02 -0.75609011677E+02  0.19332886080E+03  0.00000000000E+00 0. -1.
         -2    1    3    3    0  502  0.36143696619E+03 -0.83870453712E+02 -0.65113842253E+02  0.37671042723E+03  0.00000000000E+00 0.  1.
         11    1    5    5    0    0 -0.21949398743E+03  0.17576383179E+03  0.49020754649E+02  0.28543575366E+03  0.00000000000E+00 0. -1.
        -11    1    5    5    0    0 -0.25515410511E+03  0.99965257371E+02  0.67856854193E+02  0.28231404977E+03  0.00000000000E+00 0.  1.
          4    1    6    6  503    0 -0.74111081866E+02 -0.89821111788E+02 -0.33457486152E+03  0.35426067033E+03  0.00000000000E+00 0. -1.
         -4    1    6    6    0  503  0.25365745610E+02 -0.28352857745E+02 -0.16687561477E+03  0.17115716870E+03  0.00000000000E+00 0.  1.
<mgrwt>
<rscale>  0 0.15780753E+04</rscale>
<asrwt>0</asrwt>
<pdfrwt beam="1">  1        1 0.16834636E+00 0.15780753E+04</pdfrwt>
<pdfrwt beam="2">  1       -2 0.87531632E-01 0.15780753E+04</pdfrwt>
<totfact> 0.12161938E+01</totfact>
</mgrwt>
</event>
<event>
12    4  0.4413110E-008  0.1211516E+04  0.7818608E-02  0.9102836E-01
         -2   -1    0    0    0  501 -0.00000000000E+00  0.00000000000E+00  0.54933032774E+03  0.54933032774E+03  0.00000000000E+00 0.  1.
          1   -1    0    0  501    0  0.00000000000E+00 -0.00000000000E+00 -0.66798241192E+03  0.66798241192E+03  0.00000000000E+00 0. -1.
        -24    2    1    2    0    0  0.99906197518E+02  0.53558666169E+02 -0.13985544336E+03  0.19651839409E+03  0.78804537633E+02 0.  0.
        254    2    1    2    0    0 -0.99906197518E+02 -0.53558666169E+02  0.21203359185E+02  0.10207943456E+04  0.10142592048E+04 0.  0.
         23    2    4    4    0    0 -0.17267697646E+03 -0.38493415289E+03 -0.31510099438E+03  0.53402221583E+03  0.88878850626E+02 0.  0.
         23    2    4    4    0    0  0.72770778938E+02  0.33137548672E+03  0.33630435356E+03  0.48677212974E+03  0.93494323909E+02 0.  0.
          1    1    3    3  502    0  0.87855388437E+02  0.31419412792E+02 -0.14338067984E+03  0.17106656052E+03  0.00000000000E+00 0. -1.
         -2    1    3    3    0  502  0.12050809082E+02  0.22139253377E+02  0.35252364756E+01  0.25451833565E+02  0.00000000000E+00 0.  1.
         11    1    5    5    0    0 -0.15454684718E+03 -0.36310071189E+03 -0.31611591328E+03  0.50562449068E+03  0.00000000000E+00 0. -1.
        -11    1    5    5    0    0 -0.18130129281E+02 -0.21833440996E+02  0.10149189017E+01  0.28397725153E+02  0.00000000000E+00 0.  1.
          2    1    6    6  503    0  0.29669573235E+02  0.22037401490E+02  0.19056092639E+02  0.41582031059E+02  0.00000000000E+00 0.  1.
         -2    1    6    6    0  503  0.43101205703E+02  0.30933808523E+03  0.31724826092E+03  0.44519009868E+03  0.00000000000E+00 0. -1.
<mgrwt>
<rscale>  0 0.12115164E+04</rscale>
<asrwt>0</asrwt>
<pdfrwt beam="1">  1        1 0.10276652E+00 0.12115164E+04</pdfrwt>
<pdfrwt beam="2">  1       -2 0.84512359E-01 0.12115164E+04</pdfrwt>
<totfact> 0.30916895E+01</totfact>
</mgrwt>
</event>
<event>
12    4  0.4413110E-008  0.2538745E+04  0.7818608E-02  0.8389311E-01
         -2   -1    0    0    0  501 -0.00000000000E+00  0.00000000000E+00  0.52996567953E+03  0.52996567953E+03  0.00000000000E+00 0.  1.
          1   -1    0    0  501    0  0.00000000000E+00 -0.00000000000E+00 -0.30403972845E+04  0.30403972845E+04  0.00000000000E+00 0. -1.
        -24    2    1    2    0    0 -0.10472617097E+04  0.17120540133E+03 -0.15376336387E+04  0.18699187496E+04  0.78807012969E+02 0.  0.
        254    2    1    2    0    0  0.10472617097E+04 -0.17120540133E+03 -0.97279796631E+03  0.17004442145E+04  0.90504489683E+03 0.  0.
         23    2    4    4    0    0  0.65094405194E+03 -0.76781161535E+02 -0.10816079359E+04  0.12680407934E+04  0.91805344596E+02 0.  0.
         23    2    4    4    0    0  0.39631765772E+03 -0.94424239799E+02  0.10880996961E+03  0.43240342101E+03  0.95652946292E+02 0.  0.
          3    1    3    3  502    0 -0.20446345826E+03  0.42513024461E+02 -0.35771272789E+03  0.41421136960E+03  0.00000000000E+00 0. -1.
         -4    1    3    3    0  502 -0.84279825139E+03  0.12869237687E+03 -0.11799209108E+04  0.14557073800E+04  0.00000000000E+00 0.  1.
         11    1    5    5    0    0  0.63560527317E+03 -0.79915090597E+02 -0.10200711908E+04  0.12045437805E+04  0.00000000000E+00 0. -1.
        -11    1    5    5    0    0  0.15338778763E+02  0.31339290622E+01 -0.61536745165E+02  0.63497012928E+02  0.00000000000E+00 0.  1.
          1    1    6    6  503    0  0.37731366363E+03 -0.10680974668E+03  0.88604829485E+02  0.40202579339E+03  0.00000000000E+00 0. -1.
         -1    1    6    6    0  503  0.19003994091E+02  0.12385506884E+02  0.20205140122E+02  0.30377627615E+02  0.00000000000E+00 0.  1.
<mgrwt>
<rscale>  0 0.25387447E+04</rscale>
<asrwt>0</asrwt>
<pdfrwt beam="1">  1        1 0.46775342E+00 0.25387447E+04</pdfrwt>
<pdfrwt beam="2">  1       -2 0.81533182E-01 0.25387447E+04</pdfrwt>
<totfact> 0.57576498E-01</totfact>
</mgrwt>
</event>
<event>
12    4  0.4413110E-008  0.1129741E+04  0.7818608E-02  0.9176680E-01
         -2   -1    0    0    0  501 -0.00000000000E+00  0.00000000000E+00  0.17052154255E+03  0.17052154255E+03  0.00000000000E+00 0.  1.
          1   -1    0    0  501    0  0.00000000000E+00 -0.00000000000E+00 -0.18711917030E+04  0.18711917030E+04  0.00000000000E+00 0. -1.
        -24    2    1    2    0    0  0.29322515733E+01  0.20627976969E+03 -0.40029474952E+03  0.45707933708E+03  0.78266802743E+02 0.  0.
        254    2    1    2    0    0 -0.29322515733E+01 -0.20627976969E+03 -0.13003754109E+04  0.15846339085E+04  0.88177574986E+03 0.  0.
         23    2    4    4    0    0  0.33826089614E+03 -0.33872399728E+02 -0.10747060430E+04  0.11314059434E+04  0.97563090344E+02 0.  0.
         23    2    4    4    0    0 -0.34119314771E+03 -0.17240736996E+03 -0.22566936790E+03  0.45322796504E+03  0.91388508138E+02 0.  0.
          3    1    3    3  502    0  0.24853118386E+02  0.16981893958E+03 -0.35838111072E+03  0.39735773586E+03  0.00000000000E+00 0. -1.
         -4    1    3    3    0  502 -0.21920866813E+02  0.36460830112E+02 -0.41913638804E+02  0.59721601218E+02  0.00000000000E+00 0.  1.
         11    1    5    5    0    0  0.31620149038E+03 -0.55657826397E+01 -0.99359230165E+03  0.10427080235E+04  0.00000000000E+00 0.  1.
        -11    1    5    5    0    0  0.22059405753E+02 -0.28306617088E+02 -0.81113741393E+02  0.88697919907E+02  0.00000000000E+00 0. -1.
          1    1    6    6  503    0 -0.14811095276E+03 -0.11035314949E+03 -0.69835343860E+02  0.19746302738E+03  0.00000000000E+00 0. -1.
         -1    1    6    6    0  503 -0.19308219495E+03 -0.62054220471E+02 -0.15583402404E+03  0.25576493765E+03  0.00000000000E+00 0.  1.
<mgrwt>
<rscale>  0 0.11297407E+04</rscale>
<asrwt>0</asrwt>
<pdfrwt beam="1">  1        1 0.28787564E+00 0.11297407E+04</pdfrwt>
<pdfrwt beam="2">  1       -2 0.26234084E-01 0.11297407E+04</pdfrwt>
<totfact> 0.41874427E+01</totfact>
</mgrwt>
</event>
<event>
12    4  0.4413110E-008  0.1332163E+04  0.7818608E-02  0.9004441E-01
          1   -1    0    0  501    0  0.00000000000E+00  0.00000000000E+00  0.99900098664E+03  0.99900098664E+03  0.00000000000E+00 0. -1.
         -2   -1    0    0    0  501 -0.00000000000E+00 -0.00000000000E+00 -0.44410839312E+03  0.44410839312E+03  0.00000000000E+00 0.  1.
        -24    2    1    2    0    0  0.20627671998E+03 -0.21639508183E+03 -0.62218292947E+02  0.31499809056E+03  0.77303068694E+02 0.  0.
        254    2    1    2    0    0 -0.20627671998E+03  0.21639508183E+03  0.61711088647E+03  0.11281112892E+04  0.89578586615E+03 0.  0.
         23    2    4    4    0    0 -0.49949036456E+03 -0.72929071751E+02  0.26796903959E+03  0.58066226651E+03  0.10272286884E+03 0.  0.
         23    2    4    4    0    0  0.29321364457E+03  0.28932415358E+03  0.34914184688E+03  0.54744902270E+03  0.90098257477E+02 0.  0.
          3    1    3    3  502    0  0.87331847736E+01 -0.14246736250E+02 -0.24776970328E+02  0.29885385537E+02  0.00000000000E+00 0. -1.
         -4    1    3    3    0  502  0.19754353521E+03 -0.20214834558E+03 -0.37441322619E+02  0.28511270502E+03  0.00000000000E+00 0.  1.
         11    1    5    5    0    0 -0.24026098517E+03 -0.55653029971E+02  0.77481300308E+02  0.25850716168E+03  0.00000000000E+00 0.  1.
        -11    1    5    5    0    0 -0.25922937938E+03 -0.17276041781E+02  0.19048773928E+03  0.32215510484E+03  0.00000000000E+00 0. -1.
          3    1    6    6  503    0  0.11146079217E+03  0.13459573259E+03  0.95472843239E+02  0.19913458569E+03  0.00000000000E+00 0. -1.
         -3    1    6    6    0  503  0.18175285240E+03  0.15472842100E+03  0.25366900364E+03  0.34831443701E+03  0.00000000000E+00 0.  1.
<mgrwt>
<rscale>  0 0.13321632E+04</rscale>
<asrwt>0</asrwt>
<pdfrwt beam="1">  1        1 0.15369246E+00 0.13321632E+04</pdfrwt>
<pdfrwt beam="2">  1       -2 0.68324368E-01 0.13321632E+04</pdfrwt>
<totfact> 0.25528348E+01</totfact>
</mgrwt>
</event>
<event>
12    4  0.4413110E-008  0.2344752E+04  0.7818608E-02  0.8460482E-01
         -2   -1    0    0    0  501 -0.00000000000E+00  0.00000000000E+00  0.93301284087E+03  0.93301284087E+03  0.00000000000E+00 0.  1.
          1   -1    0    0  501    0  0.00000000000E+00 -0.00000000000E+00 -0.14731477616E+04  0.14731477616E+04  0.00000000000E+00 0. -1.
        -24    2    1    2    0    0 -0.21791248951E+02 -0.89153832648E+03 -0.68048142400E+03  0.11243664300E+04  0.76350864265E+02 0.  0.
        254    2    1    2    0    0  0.21791248951E+02  0.89153832648E+03  0.14034650329E+03  0.12817941724E+04  0.90993610397E+03 0.  0.
         23    2    4    4    0    0  0.38787938363E+03  0.65557254059E+03  0.28108022926E+03  0.81697925450E+03  0.90682053237E+02 0.  0.
         23    2    4    4    0    0 -0.36608813468E+03  0.23596578589E+03 -0.14073372597E+03  0.46481491791E+03  0.80910764554E+02 0.  0.
          1    1    3    3  502    0 -0.49281335665E+02 -0.67356434745E+03 -0.51436352715E+03  0.84893310588E+03  0.00000000000E+00 0. -1.
         -2    1    3    3    0  502  0.27490086714E+02 -0.21797397903E+03 -0.16611789685E+03  0.27543332416E+03  0.00000000000E+00 0.  1.
         11    1    5    5    0    0  0.30033019689E+03  0.56478303334E+03  0.21674804608E+03  0.67539456423E+03  0.00000000000E+00 0. -1.
        -11    1    5    5    0    0  0.87549186743E+02  0.90789507251E+02  0.64332183179E+02  0.14158469027E+03  0.00000000000E+00 0.  1.
          3    1    6    6  503    0 -0.32651486089E+03  0.22935740881E+03 -0.14481695104E+03  0.42448642459E+03  0.00000000000E+00 0. -1.
         -3    1    6    6    0  503 -0.39573273791E+02  0.66083770842E+01  0.40832250663E+01  0.40328493316E+02  0.00000000000E+00 0.  1.
<mgrwt>
<rscale>  0 0.23447522E+04</rscale>
<asrwt>0</asrwt>
<pdfrwt beam="1">  1        1 0.22663812E+00 0.23447522E+04</pdfrwt>
<pdfrwt beam="2">  1       -2 0.14354044E+00 0.23447522E+04</pdfrwt>
<totfact> 0.18165369E+00</totfact>
</mgrwt>
</event>
<event>
12    4  0.4413110E-008  0.1211400E+04  0.7818608E-02  0.9102936E-01
          1   -1    0    0  501    0  0.00000000000E+00  0.00000000000E+00  0.15336789844E+04  0.15336789844E+04  0.00000000000E+00 0. -1.
         -2   -1    0    0    0  501 -0.00000000000E+00 -0.00000000000E+00 -0.23921076164E+03  0.23921076164E+03  0.00000000000E+00 0.  1.
        -24    2    1    2    0    0  0.58603967184E+02  0.25740461095E+03  0.35076833367E+03  0.44627207588E+03  0.80179692549E+02 0.  0.
        254    2    1    2    0    0 -0.58603967184E+02 -0.25740461095E+03  0.94369988914E+03  0.13266176702E+04  0.89423341665E+03 0.  0.
         23    2    4    4    0    0 -0.21299712585E+03 -0.49477157145E+03  0.85986294244E+03  0.10198933909E+04  0.10320642192E+03 0.  0.
         23    2    4    4    0    0  0.15439315867E+03  0.23736696050E+03  0.83836946698E+02  0.30672427929E+03  0.82890460796E+02 0.  0.
          3    1    3    3  502    0  0.13847574877E+02  0.20849884994E+03  0.27893124405E+03  0.34851996308E+03  0.00000000000E+00 0. -1.
         -4    1    3    3    0  502  0.44756392307E+02  0.48905761009E+02  0.71837089614E+02  0.97752112798E+02  0.00000000000E+00 0.  1.
         11    1    5    5    0    0 -0.19099447375E+02 -0.82657303314E+02  0.20844687568E+03  0.22504914721E+03  0.00000000000E+00 0.  1.
        -11    1    5    5    0    0 -0.19389767848E+03 -0.41211426814E+03  0.65141606677E+03  0.79484424371E+03  0.00000000000E+00 0. -1.
          1    1    6    6  503    0  0.94666667847E+02  0.12022129632E+03  0.85369767334E+02  0.17522253070E+03  0.00000000000E+00 0. -1.
         -1    1    6    6    0  503  0.59726490821E+02  0.11714566418E+03 -0.15328206366E+01  0.13150174859E+03  0.00000000000E+00 0.  1.
<mgrwt>
<rscale>  0 0.12114000E+04</rscale>
<asrwt>0</asrwt>
<pdfrwt beam="1">  1        1 0.23595061E+00 0.12114000E+04</pdfrwt>
<pdfrwt beam="2">  1       -2 0.36801657E-01 0.12114000E+04</pdfrwt>
<totfact> 0.37418169E+01</totfact>
</mgrwt>
</event>
<event>
12    4  0.4413110E-008  0.2463388E+04  0.7818608E-02  0.8416146E-01
         -2   -1    0    0    0  501 -0.00000000000E+00  0.00000000000E+00  0.13723062296E+04  0.13723062296E+04  0.00000000000E+00 0.  1.
          1   -1    0    0  501    0  0.00000000000E+00 -0.00000000000E+00 -0.11054892319E+04  0.11054892319E+04  0.00000000000E+00 0. -1.
        -24    2    1    2    0    0 -0.71334181846E+03 -0.11698375915E+03 -0.66762551336E+03  0.98703759380E+03  0.77315170706E+02 0.  0.
        254    2    1    2    0    0  0.71334181846E+03  0.11698375915E+03  0.93444251106E+03  0.14907578677E+04  0.90919440372E+03 0.  0.
         23    2    4    4    0    0  0.58365183970E+03  0.27327599001E+03  0.14039930397E+03  0.66610793780E+03  0.93051510214E+02 0.  0.
         23    2    4    4    0    0  0.12968997876E+03 -0.15629223085E+03  0.79404320709E+03  0.82464992989E+03  0.91083149482E+02 0.  0.
          3    1    3    3  502    0 -0.55894912432E+03 -0.78753204011E+02 -0.55904406874E+03  0.79445356158E+03  0.00000000000E+00 0. -1.
         -4    1    3    3    0  502 -0.15439269414E+03 -0.38230555143E+02 -0.10858144463E+03  0.19258403222E+03  0.00000000000E+00 0.  1.
         11    1    5    5    0    0  0.38517978197E+03  0.15116439989E+03  0.12641374372E+03  0.43265988355E+03  0.00000000000E+00 0.  1.
        -11    1    5    5    0    0  0.19847205773E+03  0.12211159011E+03  0.13985560250E+02  0.23344805426E+03  0.00000000000E+00 0. -1.
          1    1    6    6  503    0  0.61005845782E+02 -0.12831789511E+02  0.26373148004E+03  0.27099937565E+03  0.00000000000E+00 0. -1.
         -1    1    6    6    0  503  0.68684132977E+02 -0.14346044134E+03  0.53031172705E+03  0.55365055424E+03  0.00000000000E+00 0.  1.
<mgrwt>
<rscale>  0 0.24633877E+04</rscale>
<asrwt>0</asrwt>
<pdfrwt beam="1">  1        1 0.17007527E+00 0.24633877E+04</pdfrwt>
<pdfrwt beam="2">  1       -2 0.21112403E+00 0.24633877E+04</pdfrwt>
<totfact> 0.11056234E+00</totfact>
</mgrwt>
</event>
<event>
12    4  0.4413110E-008  0.1860595E+04  0.7818608E-02  0.8674723E-01
          1   -1    0    0  501    0  0.00000000000E+00  0.00000000000E+00  0.22994564849E+04  0.22994564849E+04  0.00000000000E+00 0. -1.
         -2   -1    0    0    0  501 -0.00000000000E+00 -0.00000000000E+00 -0.37637320831E+03  0.37637320831E+03  0.00000000000E+00 0.  1.
        -24    2    1    2    0    0 -0.12156210863E+02 -0.71334524509E+03  0.77835142660E+03  0.10588118808E+04  0.79009135229E+02 0.  0.
        254    2    1    2    0    0  0.12156210863E+02  0.71334524509E+03  0.11447318500E+04  0.16170178124E+04  0.89181073396E+03 0.  0.
         23    2    4    4    0    0  0.12077913804E+03  0.77841324899E+02 -0.11107337264E+03  0.20242283013E+03  0.89391476099E+02 0.  0.
         23    2    4    4    0    0 -0.10862292718E+03  0.63550392019E+03  0.12558052226E+04  0.14145949823E+04  0.91476958337E+02 0.  0.
          3    1    3    3  502    0 -0.27766855668E+02 -0.34221647378E+03  0.42240854414E+03  0.54434556246E+03  0.00000000000E+00 0. -1.
         -4    1    3    3    0  502  0.15610644805E+02 -0.37112877131E+03  0.35594288245E+03  0.51446631832E+03  0.00000000000E+00 0.  1.
         11    1    5    5    0    0  0.40394565138E+02  0.28411560778E+02  0.84858714641E+01  0.50109357340E+02  0.00000000000E+00 0.  1.
        -11    1    5    5    0    0  0.80384572903E+02  0.49429764121E+02 -0.11955924410E+03  0.15231347279E+03  0.00000000000E+00 0. -1.
          3    1    6    6  503    0  0.13653191281E+02  0.13043383285E+03  0.27263017787E+03  0.30253364816E+03  0.00000000000E+00 0. -1.
         -3    1    6    6    0  503 -0.12227611846E+03  0.50507008734E+03  0.98317504478E+03  0.11120613342E+04  0.00000000000E+00 0.  1.
<mgrwt>
<rscale>  0 0.18605954E+04</rscale>
<asrwt>0</asrwt>
<pdfrwt beam="1">  1        1 0.35376253E+00 0.18605954E+04</pdfrwt>
<pdfrwt beam="2">  1       -2 0.57903572E-01 0.18605954E+04</pdfrwt>
<totfact> 0.42893941E+00</totfact>
</mgrwt>
</event>
<event>
12    4  0.4413110E-008  0.1645101E+04  0.7818608E-02  0.8793310E-01
         -2   -1    0    0    0  501 -0.00000000000E+00  0.00000000000E+00  0.48044665246E+03  0.48044665246E+03  0.00000000000E+00 0.  1.
          1   -1    0    0  501    0  0.00000000000E+00 -0.00000000000E+00 -0.14082514390E+04  0.14082514390E+04  0.00000000000E+00 0. -1.
        -24    2    1    2    0    0 -0.36518177106E+03 -0.41017347234E+03 -0.16616550482E+03  0.57935230705E+03  0.80237879837E+02 0.  0.
        254    2    1    2    0    0  0.36518177106E+03  0.41017347234E+03 -0.76163928170E+03  0.13093457844E+04  0.91251958027E+03 0.  0.
         23    2    4    4    0    0  0.49558874472E+03 -0.77340989444E+02 -0.56123561573E+03  0.75845012625E+03  0.93120057445E+02 0.  0.
         23    2    4    4    0    0 -0.13040697365E+03  0.48751446178E+03 -0.20040366597E+03  0.55089565816E+03  0.92994987074E+02 0.  0.
          3    1    3    3  502    0 -0.31730928325E+03 -0.34116880965E+03 -0.11128301272E+03  0.47902530918E+03  0.00000000000E+00 0. -1.
         -4    1    3    3    0  502 -0.47872487820E+02 -0.69004662685E+02 -0.54882492098E+02  0.10032699787E+03  0.00000000000E+00 0.  1.
         11    1    5    5    0    0  0.42195107277E+03 -0.51993565286E+02 -0.51526948540E+03  0.66801847372E+03  0.00000000000E+00 0.  1.
        -11    1    5    5    0    0  0.73637671947E+02 -0.25347424158E+02 -0.45966130327E+02  0.90431652525E+02  0.00000000000E+00 0. -1.
          4    1    6    6  503    0  0.11796144961E+02  0.50392897844E+02 -0.71226966135E+01  0.52242951640E+02  0.00000000000E+00 0. -1.
         -4    1    6    6    0  503 -0.14220311861E+03  0.43712156394E+03 -0.19328096936E+03  0.49865270652E+03  0.00000000000E+00 0.  1.
<mgrwt>
<rscale>  0 0.16451014E+04</rscale>
<asrwt>0</asrwt>
<pdfrwt beam="1">  1        1 0.21665406E+00 0.16451014E+04</pdfrwt>
<pdfrwt beam="2">  1       -2 0.73914872E-01 0.16451014E+04</pdfrwt>
<totfact> 0.10486609E+01</totfact>
</mgrwt>
</event>
<event>
12    4  0.4413110E-008  0.2077522E+04  0.7818608E-02  0.8571210E-01
          1   -1    0    0  501    0  0.00000000000E+00  0.00000000000E+00  0.10188178829E+04  0.10188178829E+04  0.00000000000E+00 0. -1.
         -2   -1    0    0    0  501 -0.00000000000E+00 -0.00000000000E+00 -0.10590941136E+04  0.10590941136E+04  0.00000000000E+00 0.  1.
        -24    2    1    2    0    0 -0.30880236338E+02  0.84090649693E+03  0.38538909380E+02  0.84618543361E+03  0.80418996159E+02 0.  0.
        254    2    1    2    0    0  0.30880236338E+02 -0.84090649693E+03 -0.78815140077E+02  0.12317265629E+04  0.89602520822E+03 0.  0.
         23    2    4    4    0    0 -0.72117329660E+01 -0.99027551401E+03  0.71453882229E+02  0.99715148259E+03  0.92237840379E+02 0.  0.
         23    2    4    4    0    0  0.38091969304E+02  0.14936901709E+03 -0.15026902231E+03  0.23457508026E+03  0.93180404725E+02 0.  0.
          3    1    3    3  502    0 -0.12516442805E+02  0.64999019088E+03  0.61525005307E+02  0.65301549435E+03  0.00000000000E+00 0. -1.
         -4    1    3    3    0  502 -0.18363793533E+02  0.19091630605E+03 -0.22986095927E+02  0.19316993926E+03  0.00000000000E+00 0.  1.
         11    1    5    5    0    0  0.34173313222E+02 -0.28020486846E+03  0.40812505442E+02  0.28521613602E+03  0.00000000000E+00 0.  1.
        -11    1    5    5    0    0 -0.41385046188E+02 -0.71007064556E+03  0.30641376786E+02  0.71193534657E+03  0.00000000000E+00 0. -1.
          2    1    6    6  503    0  0.37312936050E+02  0.14922934763E+03 -0.98191858108E+02  0.18249190226E+03  0.00000000000E+00 0. -1.
         -2    1    6    6    0  503  0.77903325409E+00  0.13966945714E+00 -0.52077164197E+02  0.52083178006E+02  0.00000000000E+00 0.  1.
<mgrwt>
<rscale>  0 0.20775216E+04</rscale>
<asrwt>0</asrwt>
<pdfrwt beam="1">  1        1 0.15674121E+00 0.20775216E+04</pdfrwt>
<pdfrwt beam="2">  1       -2 0.16293756E+00 0.20775216E+04</pdfrwt>
<totfact> 0.28320881E+00</totfact>
</mgrwt>
</event>
<event>
12    4  0.4413110E-008  0.1502228E+04  0.7818608E-02  0.8882972E-01
         -2   -1    0    0    0  501 -0.00000000000E+00  0.00000000000E+00  0.11349213058E+04  0.11349213058E+04  0.00000000000E+00 0.  1.
          1   -1    0    0  501    0  0.00000000000E+00 -0.00000000000E+00 -0.49710276696E+03  0.49710276696E+03  0.00000000000E+00 0. -1.
        -24    2    1    2    0    0 -0.41147359608E+02  0.95580857959E+02 -0.26716393959E+03  0.29889932734E+03  0.84471484270E+02 0.  0.
        254    2    1    2    0    0  0.41147359608E+02 -0.95580857959E+02  0.90498247839E+03  0.13331247454E+04  0.97334448934E+03 0.  0.
         23    2    4    4    0    0  0.74287190866E+02  0.57932584019E+02 -0.18649728794E+03  0.22696451686E+03  0.88639057344E+02 0.  0.
         23    2    4    4    0    0 -0.33139831258E+02 -0.15351344198E+03  0.10914797663E+04  0.11061602285E+04  0.87165047721E+02 0.  0.
          3    1    3    3  502    0 -0.33646052791E+02  0.10245193768E+03 -0.26781113389E+03  0.28870618254E+03  0.00000000000E+00 0. -1.
         -4    1    3    3    0  502 -0.75013068172E+01 -0.68710797164E+01  0.64719429761E+00  0.10193144799E+02  0.00000000000E+00 0.  1.
         11    1    5    5    0    0  0.22641282652E+02 -0.13210882042E+02 -0.70587467286E+01  0.27147393794E+02  0.00000000000E+00 0.  1.
        -11    1    5    5    0    0  0.51645908215E+02  0.71143466061E+02 -0.17943854121E+03  0.19981712307E+03  0.00000000000E+00 0. -1.
          3    1    6    6  503    0 -0.28825725210E+02 -0.11006845647E+03  0.48738503230E+03  0.50048991723E+03  0.00000000000E+00 0. -1.
         -3    1    6    6    0  503 -0.43141060482E+01 -0.43444985510E+02  0.60409473404E+03  0.60567031128E+03  0.00000000000E+00 0.  1.
<mgrwt>
<rscale>  0 0.15022284E+04</rscale>
<asrwt>0</asrwt>
<pdfrwt beam="1">  1        1 0.76477349E-01 0.15022284E+04</pdfrwt>
<pdfrwt beam="2">  1       -2 0.17460328E+00 0.15022284E+04</pdfrwt>
<totfact> 0.74660295E+00</totfact>
</mgrwt>
</event>
<event>
12    4  0.4413110E-008  0.1257811E+04  0.7818608E-02  0.9063707E-01
          1   -1    0    0  501    0  0.00000000000E+00  0.00000000000E+00  0.11243843457E+04  0.11243843457E+04  0.00000000000E+00 0. -1.
         -2   -1    0    0    0  501 -0.00000000000E+00 -0.00000000000E+00 -0.35176782108E+03  0.35176782108E+03  0.00000000000E+00 0.  1.
        -24    2    1    2    0    0  0.28654171522E+03  0.81007458365E+02  0.13879162935E+03  0.33783932388E+03  0.78765027193E+02 0.  0.
        254    2    1    2    0    0 -0.28654171522E+03 -0.81007458365E+02  0.63382489528E+03  0.11383128429E+04  0.89741504756E+03 0.  0.
         23    2    4    4    0    0  0.25992765810E+03  0.45465705479E+02 -0.10367374035E+02  0.27930670034E+03  0.90968305411E+02 0.  0.
         23    2    4    4    0    0 -0.54646937332E+03 -0.12647316384E+03  0.64419226932E+03  0.85900614257E+03  0.91014482204E+02 0.  0.
          3    1    3    3  502    0  0.22998460188E+03  0.41129688248E+02  0.13189967471E+03  0.26829478665E+03  0.00000000000E+00 0. -1.
         -4    1    3    3    0  502  0.56557113340E+02  0.39877770117E+02  0.68919546387E+01  0.69544537223E+02  0.00000000000E+00 0.  1.
         11    1    5    5    0    0  0.21908189871E+03  0.14831601384E+01 -0.87238814835E+01  0.21926053957E+03  0.00000000000E+00 0. -1.
        -11    1    5    5    0    0  0.40845759392E+02  0.43982545340E+02 -0.16434925515E+01  0.60046160766E+02  0.00000000000E+00 0.  1.
          1    1    6    6  503    0 -0.44137677649E+03 -0.13514101280E+03  0.54526798935E+03  0.71441845747E+03  0.00000000000E+00 0.  1.
         -1    1    6    6    0  503 -0.10509259683E+03  0.86678489617E+01  0.98924279969E+02  0.14458768510E+03  0.00000000000E+00 0. -1.
<mgrwt>
<rscale>  0 0.12578112E+04</rscale>
<asrwt>0</asrwt>
<pdfrwt beam="1">  1        1 0.17298221E+00 0.12578112E+04</pdfrwt>
<pdfrwt beam="2">  1       -2 0.54118127E-01 0.12578112E+04</pdfrwt>
<totfact> 0.33775002E+01</totfact>
</mgrwt>
</event>
<event>
12    4  0.4413110E-008  0.2197606E+04  0.7818608E-02  0.8519425E-01
          1   -1    0    0  501    0  0.00000000000E+00  0.00000000000E+00  0.52420435320E+03  0.52420435320E+03  0.00000000000E+00 0. -1.
         -2   -1    0    0    0  501 -0.00000000000E+00 -0.00000000000E+00 -0.23032392680E+04  0.23032392680E+04  0.00000000000E+00 0.  1.
        -24    2    1    2    0    0 -0.13656823509E+03  0.31838586749E+02  0.42387391698E+03  0.45315177557E+03  0.77542606150E+02 0.  0.
        254    2    1    2    0    0  0.13656823509E+03 -0.31838586749E+02 -0.22029088318E+04  0.23742918456E+04  0.87452265189E+03 0.  0.
         23    2    4    4    0    0 -0.11106874032E+03 -0.40317235975E+03 -0.11509575877E+04  0.12279096620E+04  0.90413232619E+02 0.  0.
         23    2    4    4    0    0  0.24763697541E+03  0.37133377300E+03 -0.10519512441E+04  0.11463821836E+04  0.91530587456E+02 0.  0.
          3    1    3    3  502    0 -0.12700119611E+03  0.21142303125E+02  0.41845236842E+03  0.43781124407E+03  0.00000000000E+00 0. -1.
         -4    1    3    3    0  502 -0.95670389725E+01  0.10696283624E+02  0.54215485588E+01  0.15340531504E+02  0.00000000000E+00 0.  1.
         11    1    5    5    0    0  0.46230023324E+01 -0.94986671875E+02 -0.32949336791E+03  0.34294273498E+03  0.00000000000E+00 0. -1.
        -11    1    5    5    0    0 -0.11569174266E+03 -0.30818568788E+03 -0.82146421981E+03  0.88496692704E+03  0.00000000000E+00 0.  1.
          3    1    6    6  503    0  0.12912721113E+02  0.80603143907E+02 -0.20592127034E+03  0.22151111654E+03  0.00000000000E+00 0. -1.
         -3    1    6    6    0  503  0.23472425430E+03  0.29073062910E+03 -0.84602997372E+03  0.92487106706E+03  0.00000000000E+00 0.  1.
<mgrwt>
<rscale>  0 0.21976060E+04</rscale>
<asrwt>0</asrwt>
<pdfrwt beam="1">  1        1 0.80646823E-01 0.21976060E+04</pdfrwt>
<pdfrwt beam="2">  1       -2 0.35434451E+00 0.21976060E+04</pdfrwt>
<totfact> 0.48480737E-01</totfact>
</mgrwt>
</event>
<event>
12    4  0.4413110E-008  0.1914823E+04  0.7818608E-02  0.8647513E-01
          3   -1    0    0  501    0  0.00000000000E+00  0.00000000000E+00  0.81320943957E+03  0.81320943957E+03  0.00000000000E+00 0. -1.
         -4   -1    0    0    0  501 -0.00000000000E+00 -0.00000000000E+00 -0.11271846034E+04  0.11271846034E+04  0.00000000000E+00 0.  1.
        -24    2    1    2    0    0  0.69905176783E+03 -0.17909913048E+03  0.53752256378E+02  0.72812382581E+03  0.80778264413E+02 0.  0.
        254    2    1    2    0    0 -0.69905176783E+03  0.17909913048E+03 -0.36772742020E+03  0.12122702172E+04  0.90201205712E+03 0.  0.
         23    2    4    4    0    0  0.88718587320E+02 -0.49163220913E+02 -0.36225001541E+03  0.38710655787E+03  0.91314858929E+02 0.  0.
         23    2    4    4    0    0 -0.78777035515E+03  0.22826235139E+03 -0.54774047922E+01  0.82516365928E+03  0.90439090675E+02 0.  0.
          1    1    3    3  502    0  0.51003818942E+03 -0.16489315710E+03  0.27129227691E+02  0.53671659460E+03  0.00000000000E+00 0. -1.
         -2    1    3    3    0  502  0.18901357841E+03 -0.14205973386E+02  0.26623028688E+02  0.19140723121E+03  0.00000000000E+00 0.  1.
         11    1    5    5    0    0  0.98262354344E+02 -0.32918844718E+02 -0.34903328503E+03  0.36409253587E+03  0.00000000000E+00 0. -1.
        -11    1    5    5    0    0 -0.95437670237E+01 -0.16244376195E+02 -0.13216730380E+02  0.23014022006E+02  0.00000000000E+00 0.  1.
          4    1    6    6  503    0 -0.69335937338E+03  0.21890421744E+03  0.18415869437E+02  0.72732758872E+03  0.00000000000E+00 0. -1.
         -4    1    6    6    0  503 -0.94410981767E+02  0.93581339541E+01 -0.23893274229E+02  0.97836070560E+02  0.00000000000E+00 0.  1.
<mgrwt>
<rscale>  0 0.19148234E+04</rscale>
<asrwt>0</asrwt>
<pdfrwt beam="1">  1        3 0.12510915E+00 0.19148234E+04</pdfrwt>
<pdfrwt beam="2">  1       -4 0.17341301E+00 0.19148234E+04</pdfrwt>
<totfact> 0.21877916E-01</totfact>
</mgrwt>
</event>
<event>
12    4  0.4413110E-008  0.1837717E+04  0.7818608E-02  0.8686495E-01
         -2   -1    0    0    0  501 -0.00000000000E+00  0.00000000000E+00  0.52414308563E+03  0.52414308563E+03  0.00000000000E+00 0.  1.
          1   -1    0    0  501    0  0.00000000000E+00 -0.00000000000E+00 -0.16108214050E+04  0.16108214050E+04  0.00000000000E+00 0. -1.
        -24    2    1    2    0    0 -0.51248212873E+03 -0.56131109122E+02  0.11946011457E+03  0.53521712276E+03  0.79987598085E+02 0.  0.
        254    2    1    2    0    0  0.51248212873E+03  0.56131109122E+02 -0.12061384339E+04  0.15997473679E+04  0.91576912236E+03 0.  0.
         23    2    4    4    0    0 -0.11574527961E+03 -0.16944305820E+03 -0.75737514044E+03  0.78986281412E+03  0.90322987351E+02 0.  0.
         23    2    4    4    0    0  0.62822740834E+03  0.22557416732E+03 -0.44876329350E+03  0.80988455375E+03  0.94715971453E+02 0.  0.
          1    1    3    3  502    0 -0.21694154693E+03 -0.63561620283E+02  0.49453289682E+02  0.23140730804E+03  0.00000000000E+00 0. -1.
         -2    1    3    3    0  502 -0.29554058181E+03  0.74305111619E+01  0.70006824887E+02  0.30380981472E+03  0.00000000000E+00 0.  1.
         11    1    5    5    0    0 -0.92090009955E+02 -0.57001218755E+02 -0.40472556105E+03  0.41896597552E+03  0.00000000000E+00 0. -1.
        -11    1    5    5    0    0 -0.23655269655E+02 -0.11244183944E+03 -0.35264957939E+03  0.37089683860E+03  0.00000000000E+00 0.  1.
          1    1    6    6  503    0  0.59062322014E+03  0.21017908413E+03 -0.38957872586E+03  0.73809390948E+03  0.00000000000E+00 0. -1.
         -1    1    6    6    0  503  0.37604188203E+02  0.15395083191E+02 -0.59184567642E+02  0.71790644264E+02  0.00000000000E+00 0.  1.
<mgrwt>
<rscale>  0 0.18377170E+04</rscale>
<asrwt>0</asrwt>
<pdfrwt beam="1">  1        1 0.24781868E+00 0.18377170E+04</pdfrwt>
<pdfrwt beam="2">  1       -2 0.80637397E-01 0.18377170E+04</pdfrwt>
<totfact> 0.61488013E+00</totfact>
</mgrwt>
</event>
<event>
12    4  0.4413110E-008  0.1393086E+04  0.7818608E-02  0.8958839E-01
         -2   -1    0    0    0  501 -0.00000000000E+00  0.00000000000E+00  0.34172545182E+03  0.34172545182E+03  0.00000000000E+00 0.  1.
          1   -1    0    0  501    0  0.00000000000E+00 -0.00000000000E+00 -0.14197715213E+04  0.14197715213E+04  0.00000000000E+00 0. -1.
        -24    2    1    2    0    0  0.19025123360E+02 -0.40004689540E+03 -0.35639800575E+03  0.54195315594E+03  0.79336062991E+02 0.  0.
        254    2    1    2    0    0 -0.19025123360E+02  0.40004689540E+03 -0.72164806370E+03  0.12195438172E+04  0.89783724599E+03 0.  0.
         23    2    4    4    0    0  0.23473241950E+03 -0.16866228049E+03 -0.64119729613E+02  0.30976765879E+03  0.91095494302E+02 0.  0.
         23    2    4    4    0    0 -0.25375754286E+03  0.56870917589E+03 -0.65752833409E+03  0.90977615837E+03  0.86753276125E+02 0.  0.
          3    1    3    3  502    0  0.10775563392E+02 -0.37523845399E+03 -0.35351946216E+03  0.51565106443E+03  0.00000000000E+00 0. -1.
         -4    1    3    3    0  502  0.82495599677E+01 -0.24808441408E+02 -0.28785435961E+01  0.26302091514E+02  0.00000000000E+00 0.  1.
         11    1    5    5    0    0  0.24307634642E+01  0.87074566366E+01  0.36336904775E+01  0.97433114793E+01  0.00000000000E+00 0. -1.
        -11    1    5    5    0    0  0.23230165604E+03 -0.17736973712E+03 -0.67753420091E+02  0.30002434731E+03  0.00000000000E+00 0.  1.
          1    1    6    6  503    0 -0.10797596039E+03  0.15097087191E+03 -0.17485525942E+03  0.25500073320E+03  0.00000000000E+00 0. -1.
         -1    1    6    6    0  503 -0.14578158247E+03  0.41773830398E+03 -0.48267307467E+03  0.65477542517E+03  0.00000000000E+00 0.  1.
<mgrwt>
<rscale>  0 0.13930859E+04</rscale>
<asrwt>0</asrwt>
<pdfrwt beam="1">  1        1 0.21842638E+00 0.13930859E+04</pdfrwt>
<pdfrwt beam="2">  1       -2 0.52573148E-01 0.13930859E+04</pdfrwt>
<totfact> 0.21741721E+01</totfact>
</mgrwt>
</event>
<event>
12    4  0.4413110E-008  0.1223433E+04  0.7818608E-02  0.9092589E-01
          1   -1    0    0  501    0  0.00000000000E+00  0.00000000000E+00  0.61775898572E+03  0.61775898572E+03  0.00000000000E+00 0. -1.
         -2   -1    0    0    0  501 -0.00000000000E+00 -0.00000000000E+00 -0.60573340542E+03  0.60573340542E+03  0.00000000000E+00 0.  1.
        -24    2    1    2    0    0 -0.22988537149E+03  0.22233800911E+03  0.27072486565E+02  0.32638201448E+03  0.59252219630E+02 0.  0.
        254    2    1    2    0    0  0.22988537149E+03 -0.22233800911E+03 -0.15046906257E+02  0.89711037666E+03  0.83803290162E+03 0.  0.
         23    2    4    4    0    0 -0.16914909462E+02 -0.51313821904E+02 -0.39187442657E+03  0.40686338114E+03  0.95147371157E+02 0.  0.
         23    2    4    4    0    0  0.24680028095E+03 -0.17102418720E+03  0.37682752031E+03  0.49024699551E+03  0.90462618037E+02 0.  0.
          3    1    3    3  502    0 -0.15559891176E+03  0.14847905012E+03  0.45979306124E+02  0.21993441354E+03  0.00000000000E+00 0. -1.
         -4    1    3    3    0  502 -0.74286459726E+02  0.73858958985E+02 -0.18906819560E+02  0.10644760094E+03  0.00000000000E+00 0.  1.
         11    1    5    5    0    0 -0.43413715620E+02 -0.44369269138E+02 -0.35779027729E+03  0.36313532638E+03  0.00000000000E+00 0.  1.
        -11    1    5    5    0    0  0.26498806157E+02 -0.69445527659E+01 -0.34084149283E+02  0.43728054761E+02  0.00000000000E+00 0. -1.
          4    1    6    6  503    0  0.58458081908E+02 -0.92187437436E+02  0.12184853229E+03  0.16359381340E+03  0.00000000000E+00 0. -1.
         -4    1    6    6    0  503  0.18834219904E+03 -0.78836749765E+02  0.25497898802E+03  0.32665318211E+03  0.00000000000E+00 0.  1.
<mgrwt>
<rscale>  0 0.12234333E+04</rscale>
<asrwt>0</asrwt>
<pdfrwt beam="1">  1        1 0.95039843E-01 0.12234333E+04</pdfrwt>
<pdfrwt beam="2">  1       -2 0.93189755E-01 0.12234333E+04</pdfrwt>
<totfact> 0.27678588E+01</totfact>
</mgrwt>
</event>
<event>
12    4  0.4413110E-008  0.1946690E+04  0.7818608E-02  0.8631959E-01
         -2   -1    0    0    0  501 -0.00000000000E+00  0.00000000000E+00  0.84587108348E+03  0.84587108348E+03  0.00000000000E+00 0.  1.
          1   -1    0    0  501    0  0.00000000000E+00 -0.00000000000E+00 -0.11200289342E+04  0.11200289342E+04  0.00000000000E+00 0. -1.
        -24    2    1    2    0    0  0.10093237762E+03  0.34048149433E+03  0.56650123230E+03  0.67341142423E+03  0.80276442665E+02 0.  0.
        254    2    1    2    0    0 -0.10093237762E+03 -0.34048149433E+03 -0.84065908300E+03  0.12924885934E+04  0.91526175355E+03 0.  0.
         23    2    4    4    0    0  0.80615386033E+02 -0.61440776108E+03 -0.64403213541E+03  0.89836952642E+03  0.91075118562E+02 0.  0.
         23    2    4    4    0    0 -0.18154776365E+03  0.27392626674E+03 -0.19662694759E+03  0.39411906702E+03  0.93126217427E+02 0.  0.
          1    1    3    3  502    0  0.90641758395E+01  0.27331653182E+02  0.14704962439E+02  0.32332869802E+02  0.00000000000E+00 0. -1.
         -2    1    3    3    0  502  0.91868201780E+02  0.31314984115E+03  0.55179626986E+03  0.64107855442E+03  0.00000000000E+00 0.  1.
         11    1    5    5    0    0 -0.49618406405E+01 -0.23602673668E+03 -0.20680156126E+03  0.31384729731E+03  0.00000000000E+00 0. -1.
        -11    1    5    5    0    0  0.85577226673E+02 -0.37838102439E+03 -0.43723057415E+03  0.58452222910E+03  0.00000000000E+00 0.  1.
          4    1    6    6  503    0 -0.10368126102E+03  0.17157961069E+03 -0.16987049200E+03  0.26276482021E+03  0.00000000000E+00 0. -1.
         -4    1    6    6    0  503 -0.77866502637E+02  0.10234665606E+03 -0.26756455591E+02  0.13135424681E+03  0.00000000000E+00 0.  1.
<mgrwt>
<rscale>  0 0.19466896E+04</rscale>
<asrwt>0</asrwt>
<pdfrwt beam="1">  1        1 0.17231214E+00 0.19466896E+04</pdfrwt>
<pdfrwt beam="2">  1       -2 0.13013401E+00 0.19466896E+04</pdfrwt>
<totfact> 0.43354276E+00</totfact>
</mgrwt>
</event>
<event>
12    4  0.4413110E-008  0.1435138E+04  0.7818608E-02  0.8928769E-01
          1   -1    0    0  501    0  0.00000000000E+00  0.00000000000E+00  0.41878960269E+03  0.41878960269E+03  0.00000000000E+00 0. -1.
         -2   -1    0    0    0  501 -0.00000000000E+00 -0.00000000000E+00 -0.12295082891E+04  0.12295082891E+04  0.00000000000E+00 0.  1.
        -24    2    1    2    0    0  0.28356296702E+03 -0.29299165466E+03 -0.71114551776E+02  0.42175181001E+03  0.81026192090E+02 0.  0.
        254    2    1    2    0    0 -0.28356296702E+03  0.29299165466E+03 -0.73960413458E+03  0.12265460817E+04  0.88946554107E+03 0.  0.
         23    2    4    4    0    0 -0.16741283678E+03  0.56805444481E+03 -0.25785452550E+03  0.65218482707E+03  0.90239581981E+02 0.  0.
         23    2    4    4    0    0 -0.11615013024E+03 -0.27506279015E+03 -0.48174960909E+03  0.57436125466E+03  0.93047158561E+02 0.  0.
          3    1    3    3  502    0  0.26603786184E+03 -0.25217507950E+03 -0.42748072451E+02  0.36904716819E+03  0.00000000000E+00 0. -1.
         -4    1    3    3    0  502  0.17525105179E+02 -0.40816575165E+02 -0.28366479326E+02  0.52704641817E+02  0.00000000000E+00 0.  1.
         11    1    5    5    0    0 -0.11087063554E+03  0.48509194943E+03 -0.22869035980E+03  0.54763653813E+03  0.00000000000E+00 0. -1.
        -11    1    5    5    0    0 -0.56542201235E+02  0.82962495380E+02 -0.29164165699E+02  0.10454828894E+03  0.00000000000E+00 0.  1.
          3    1    6    6  503    0 -0.59940405101E+02 -0.16473516916E+03 -0.19611306786E+03  0.26304156232E+03  0.00000000000E+00 0. -1.
         -3    1    6    6    0  503 -0.56209725142E+02 -0.11032762099E+03 -0.28563654122E+03  0.31131969234E+03  0.00000000000E+00 0.  1.
<mgrwt>
<rscale>  0 0.14351380E+04</rscale>
<asrwt>0</asrwt>
<pdfrwt beam="1">  1        1 0.64429170E-01 0.14351380E+04</pdfrwt>
<pdfrwt beam="2">  1       -2 0.18915512E+00 0.14351380E+04</pdfrwt>
<totfact> 0.75225430E+00</totfact>
</mgrwt>
</event>
<event>
12    4  0.4413110E-008  0.1235099E+04  0.7818608E-02  0.9082677E-01
         -2   -1    0    0    0  501 -0.00000000000E+00  0.00000000000E+00  0.56748929507E+03  0.56748929507E+03  0.00000000000E+00 0.  1.
          1   -1    0    0  501    0  0.00000000000E+00 -0.00000000000E+00 -0.67202562498E+03  0.67202562498E+03  0.00000000000E+00 0. -1.
        -24    2    1    2    0    0  0.11929971170E+03  0.96350649252E+02 -0.26292417984E+03  0.31483335372E+03  0.80467679555E+02 0.  0.
        254    2    1    2    0    0 -0.11929971170E+03 -0.96350649252E+02  0.15838784992E+03  0.92468156632E+03  0.89801638029E+03 0.  0.
         23    2    4    4    0    0 -0.22048343532E+03  0.35660537143E+03  0.13856720023E+03  0.45128339159E+03  0.93142333913E+02 0.  0.
         23    2    4    4    0    0  0.10118372362E+03 -0.45295602068E+03  0.19820649695E+02  0.47339817473E+03  0.91135454611E+02 0.  0.
          3    1    3    3  502    0  0.11359249772E+03  0.10426399412E+03 -0.26323836906E+03  0.30507158989E+03  0.00000000000E+00 0. -1.
         -4    1    3    3    0  502  0.57072139735E+01 -0.79133448697E+01  0.31418922657E+00  0.97617638383E+01  0.00000000000E+00 0.  1.
         11    1    5    5    0    0 -0.21977419657E+03  0.30822634954E+03  0.10654874702E+03  0.39326430746E+03  0.00000000000E+00 0. -1.
        -11    1    5    5    0    0 -0.70923875595E+00  0.48379021883E+02  0.32018453208E+02  0.58019084134E+02  0.00000000000E+00 0.  1.
          1    1    6    6  503    0  0.98280017839E+02 -0.29401027132E+03  0.42191487495E+02  0.31285959018E+03  0.00000000000E+00 0. -1.
         -1    1    6    6    0  503  0.29037057847E+01 -0.15894574936E+03 -0.22370837800E+02  0.16053858455E+03  0.00000000000E+00 0.  1.
<mgrwt>
<rscale>  0 0.12350989E+04</rscale>
<asrwt>0</asrwt>
<pdfrwt beam="1">  1        1 0.10338856E+00 0.12350989E+04</pdfrwt>
<pdfrwt beam="2">  1       -2 0.87306045E-01 0.12350989E+04</pdfrwt>
<totfact> 0.28395046E+01</totfact>
</mgrwt>
</event>
<event>
12    4  0.4413110E-008  0.1503433E+04  0.7818608E-02  0.8882173E-01
         -2   -1    0    0    0  501 -0.00000000000E+00  0.00000000000E+00  0.18220675500E+03  0.18220675500E+03  0.00000000000E+00 0.  1.
          1   -1    0    0  501    0  0.00000000000E+00 -0.00000000000E+00 -0.31013000687E+04  0.31013000687E+04  0.00000000000E+00 0. -1.
        -24    2    1    2    0    0  0.22402033158E+03  0.28034470699E+02 -0.25583836842E+02  0.24126503535E+03  0.81137192856E+02 0.  0.
        254    2    1    2    0    0 -0.22402033158E+03 -0.28034470699E+02 -0.28935094768E+04  0.30422417883E+04  0.91206741286E+03 0.  0.
         23    2    4    4    0    0  0.22623385542E+03  0.26640790606E+03 -0.15570054754E+04  0.15984852810E+04  0.93457012376E+02 0.  0.
         23    2    4    4    0    0 -0.45025418700E+03 -0.29444237676E+03 -0.13365040014E+04  0.14437565074E+04  0.93620300449E+02 0.  0.
          3    1    3    3  502    0  0.88158521486E+02 -0.13564127561E+02 -0.41333000323E+02  0.98307310933E+02  0.00000000000E+00 0. -1.
         -4    1    3    3    0  502  0.13586181009E+03  0.41598598260E+02  0.15749163481E+02  0.14295772441E+03  0.00000000000E+00 0.  1.
         11    1    5    5    0    0  0.22161919117E+03  0.27275495388E+03 -0.14833914164E+04  0.15244541400E+04  0.00000000000E+00 0.  1.
        -11    1    5    5    0    0  0.46146642516E+01 -0.63470478155E+01 -0.73614059035E+02  0.74031140945E+02  0.00000000000E+00 0. -1.
          3    1    6    6  503    0 -0.20810835057E+02 -0.49859660053E+01 -0.11543870129E+03  0.11740547035E+03  0.00000000000E+00 0. -1.
         -3    1    6    6    0  503 -0.42944335195E+03 -0.28945641075E+03 -0.12210653001E+04  0.13263510370E+04  0.00000000000E+00 0.  1.
<mgrwt>
<rscale>  0 0.15034332E+04</rscale>
<asrwt>0</asrwt>
<pdfrwt beam="1">  1        1 0.47712307E+00 0.15034332E+04</pdfrwt>
<pdfrwt beam="2">  1       -2 0.28031809E-01 0.15034332E+04</pdfrwt>
<totfact> 0.50101090E+00</totfact>
</mgrwt>
</event>
<event>
12    4  0.4413110E-008  0.1600758E+04  0.7818608E-02  0.8820083E-01
          1   -1    0    0  501    0  0.00000000000E+00  0.00000000000E+00  0.23761786650E+03  0.23761786650E+03  0.00000000000E+00 0. -1.
         -2   -1    0    0    0  501 -0.00000000000E+00 -0.00000000000E+00 -0.26959517471E+04  0.26959517471E+04  0.00000000000E+00 0.  1.
        -24    2    1    2    0    0 -0.30345095604E+03 -0.19608264737E+03 -0.10545968809E+03  0.38505636053E+03  0.81337369322E+02 0.  0.
        254    2    1    2    0    0  0.30345095604E+03  0.19608264737E+03 -0.23528741925E+04  0.25485132530E+04  0.91014940971E+03 0.  0.
         23    2    4    4    0    0  0.26843095244E+03 -0.31977716440E+03 -0.76673364708E+03  0.87771709994E+03  0.90521880596E+02 0.  0.
         23    2    4    4    0    0  0.35020003599E+02  0.51585981177E+03 -0.15861405454E+04  0.16707961531E+04  0.91543483703E+02 0.  0.
          1    1    3    3  502    0 -0.29069020098E+03 -0.19043242660E+03 -0.11727790338E+03  0.36676887636E+03  0.00000000000E+00 0. -1.
         -2    1    3    3    0  502 -0.12760755056E+02 -0.56502207717E+01  0.11818215289E+02  0.18287484162E+02  0.00000000000E+00 0.  1.
         11    1    5    5    0    0  0.67504897419E+02 -0.12753083430E+03 -0.32716594091E+03  0.35757317819E+03  0.00000000000E+00 0.  1.
        -11    1    5    5    0    0  0.20092605502E+03 -0.19224633011E+03 -0.43956770617E+03  0.52014392175E+03  0.00000000000E+00 0. -1.
          4    1    6    6  503    0  0.18982983240E+01  0.46064063518E+03 -0.13992772527E+04  0.14731497643E+04  0.00000000000E+00 0. -1.
         -4    1    6    6    0  503  0.33121705275E+02  0.55219176597E+02 -0.18686329271E+03  0.19764638875E+03  0.00000000000E+00 0.  1.
<mgrwt>
<rscale>  0 0.16007577E+04</rscale>
<asrwt>0</asrwt>
<pdfrwt beam="1">  1        1 0.36556597E-01 0.16007577E+04</pdfrwt>
<pdfrwt beam="2">  1       -2 0.41476178E+00 0.16007577E+04</pdfrwt>
<totfact> 0.59544540E-01</totfact>
</mgrwt>
</event>
<event>
12    4  0.4413110E-008  0.1236047E+04  0.7818608E-02  0.9081877E-01
          1   -1    0    0  501    0  0.00000000000E+00  0.00000000000E+00  0.14081233958E+04  0.14081233958E+04  0.00000000000E+00 0. -1.
         -2   -1    0    0    0  501 -0.00000000000E+00 -0.00000000000E+00 -0.27124959698E+03  0.27124959698E+03  0.00000000000E+00 0.  1.
        -24    2    1    2    0    0  0.42162102247E+02 -0.21485850561E+03  0.55556335031E+03  0.60246065852E+03  0.79789651976E+02 0.  0.
        254    2    1    2    0    0 -0.42162102247E+02  0.21485850561E+03  0.58131044851E+03  0.10769123343E+04  0.87970251667E+03 0.  0.
         23    2    4    4    0    0  0.35725198559E+03 -0.65327683873E+02  0.10644649179E+03  0.38998806085E+03  0.94144274950E+02 0.  0.
         23    2    4    4    0    0 -0.39941408783E+03  0.28018618948E+03  0.47486395672E+03  0.68692427340E+03  0.91286722292E+02 0.  0.
          3    1    3    3  502    0 -0.27267197194E+01 -0.10215620657E+03  0.34092321664E+03  0.35591005210E+03  0.00000000000E+00 0. -1.
         -4    1    3    3    0  502  0.44888821967E+02 -0.11270229904E+03  0.21464013367E+03  0.24655060642E+03  0.00000000000E+00 0.  1.
         11    1    5    5    0    0  0.34004679221E+03 -0.82804280906E+02  0.93507538225E+02  0.36225961621E+03  0.00000000000E+00 0.  1.
        -11    1    5    5    0    0  0.17205193374E+02  0.17476597033E+02  0.12938953567E+02  0.27728444643E+02  0.00000000000E+00 0. -1.
          3    1    6    6  503    0 -0.80280844169E+02  0.77906268621E+02  0.64605383801E+02  0.12918303390E+03  0.00000000000E+00 0. -1.
         -3    1    6    6    0  503 -0.31913324367E+03  0.20227992086E+03  0.41025857291E+03  0.55774123951E+03  0.00000000000E+00 0.  1.
<mgrwt>
<rscale>  0 0.12360468E+04</rscale>
<asrwt>0</asrwt>
<pdfrwt beam="1">  1        1 0.21663436E+00 0.12360468E+04</pdfrwt>
<pdfrwt beam="2">  1       -2 0.41730708E-01 0.12360468E+04</pdfrwt>
<totfact> 0.35726911E+01</totfact>
</mgrwt>
</event>
<event>
12    4  0.4413110E-008  0.1276289E+04  0.7818608E-02  0.9048583E-01
         -2   -1    0    0    0  501 -0.00000000000E+00  0.00000000000E+00  0.49865651134E+03  0.49865651134E+03  0.00000000000E+00 0.  1.
          1   -1    0    0  501    0  0.00000000000E+00 -0.00000000000E+00 -0.81665053664E+03  0.81665053664E+03  0.00000000000E+00 0. -1.
        -24    2    1    2    0    0 -0.33418000206E+02 -0.29932994674E+03  0.26866384168E+01  0.31229004393E+03  0.82478322992E+02 0.  0.
        254    2    1    2    0    0  0.33418000206E+02  0.29932994674E+03 -0.32068066372E+03  0.10030170040E+04  0.90138329392E+03 0.  0.
         23    2    4    4    0    0  0.67426098993E+02  0.23677822936E+03 -0.62473636043E+03  0.67747538614E+03  0.89817426293E+02 0.  0.
         23    2    4    4    0    0 -0.34008098787E+02  0.62551717380E+02  0.30405569671E+03  0.32554161790E+03  0.91968528059E+02 0.  0.
          1    1    3    3  502    0 -0.49389845153E+02 -0.15969996507E+03 -0.25077140088E+02  0.16903342451E+03  0.00000000000E+00 0. -1.
         -2    1    3    3    0  502  0.15971844947E+02 -0.13962998167E+03  0.27763778505E+02  0.14325661942E+03  0.00000000000E+00 0.  1.
         11    1    5    5    0    0  0.52057591841E+02  0.20217670395E+03 -0.59090577371E+03  0.62670172003E+03  0.00000000000E+00 0. -1.
        -11    1    5    5    0    0  0.15368507151E+02  0.34601525405E+02 -0.33830586715E+02  0.50773666106E+02  0.00000000000E+00 0.  1.
          2    1    6    6  503    0 -0.20314104442E+02  0.50432616032E+02  0.30232307459E+03  0.30717316456E+03  0.00000000000E+00 0. -1.
         -2    1    6    6    0  503 -0.13693994345E+02  0.12119101348E+02  0.17326221212E+01  0.18368453337E+02  0.00000000000E+00 0.  1.
<mgrwt>
<rscale>  0 0.12762885E+04</rscale>
<asrwt>0</asrwt>
<pdfrwt beam="1">  1        1 0.12563854E+00 0.12762885E+04</pdfrwt>
<pdfrwt beam="2">  1       -2 0.76716387E-01 0.12762885E+04</pdfrwt>
<totfact> 0.28008009E+01</totfact>
</mgrwt>
</event>
<event>
12    4  0.4413110E-008  0.2368679E+04  0.7818608E-02  0.8451323E-01
          1   -1    0    0  501    0  0.00000000000E+00  0.00000000000E+00  0.24683200400E+04  0.24683200400E+04  0.00000000000E+00 0. -1.
         -2   -1    0    0    0  501 -0.00000000000E+00 -0.00000000000E+00 -0.56826527529E+03  0.56826527529E+03  0.00000000000E+00 0.  1.
        -24    2    1    2    0    0  0.83436766901E+03  0.17588563755E+03  0.11760720410E+03  0.86412215471E+03  0.75963670471E+02 0.  0.
        254    2    1    2    0    0 -0.83436766901E+03 -0.17588563755E+03  0.17824475606E+04  0.21724631606E+04  0.90297935369E+03 0.  0.
         23    2    4    4    0    0 -0.93387842643E+03 -0.21398758122E+03  0.17878068738E+04  0.20303251044E+04  0.89705136526E+02 0.  0.
         23    2    4    4    0    0  0.99510757425E+02  0.38101943674E+02 -0.53593131147E+01  0.14213805619E+03  0.93916749439E+02 0.  0.
          3    1    3    3  502    0  0.55116508956E+03  0.82029497351E+02  0.90590006356E+02  0.56455145349E+03  0.00000000000E+00 0. -1.
         -4    1    3    3    0  502  0.28320257944E+03  0.93856140198E+02  0.27017197744E+02  0.29957070122E+03  0.00000000000E+00 0.  1.
         11    1    5    5    0    0 -0.53087487985E+03 -0.15516293010E+03  0.10923088255E+04  0.12243538064E+04  0.00000000000E+00 0. -1.
        -11    1    5    5    0    0 -0.40300354658E+03 -0.58824651120E+02  0.69549804826E+03  0.80597129804E+03  0.00000000000E+00 0.  1.
          3    1    6    6  503    0  0.23227242069E+00  0.40992877613E+02 -0.11654935012E+02  0.42618158989E+02  0.00000000000E+00 0. -1.
         -3    1    6    6    0  503  0.99278485004E+02 -0.28909339387E+01  0.62956218972E+01  0.99519897200E+02  0.00000000000E+00 0.  1.
<mgrwt>
<rscale>  0 0.23686794E+04</rscale>
<asrwt>0</asrwt>
<pdfrwt beam="1">  1        1 0.37974154E+00 0.23686794E+04</pdfrwt>
<pdfrwt beam="2">  1       -2 0.87425428E-01 0.23686794E+04</pdfrwt>
<totfact> 0.12714030E+00</totfact>
</mgrwt>
</event>
<event>
12    4  0.4413110E-008  0.1720589E+04  0.7818608E-02  0.8749708E-01
         -2   -1    0    0    0  501 -0.00000000000E+00  0.00000000000E+00  0.18957283181E+03  0.18957283181E+03  0.00000000000E+00 0.  1.
          1   -1    0    0  501    0  0.00000000000E+00 -0.00000000000E+00 -0.39040760155E+04  0.39040760155E+04  0.00000000000E+00 0. -1.
        -24    2    1    2    0    0 -0.18618724094E+03  0.93394947456E+02 -0.27791514454E+04  0.27880972370E+04  0.80094581678E+02 0.  0.
        254    2    1    2    0    0  0.18618724094E+03 -0.93394947456E+02 -0.93535173831E+03  0.13055516103E+04  0.88667571737E+03 0.  0.
         23    2    4    4    0    0 -0.30218549946E+03 -0.23422869639E+03 -0.44572625342E+03  0.59420381245E+03  0.90703469835E+02 0.  0.
         23    2    4    4    0    0  0.48837274040E+03  0.14083374894E+03 -0.48962548489E+03  0.71134779781E+03  0.89109458467E+02 0.  0.
          3    1    3    3  502    0 -0.14347740760E+03  0.70682316940E+02 -0.24711086528E+04  0.24762794129E+04  0.00000000000E+00 0. -1.
         -4    1    3    3    0  502 -0.42709833334E+02  0.22712630515E+02 -0.30804279250E+03  0.31181782416E+03  0.00000000000E+00 0.  1.
         11    1    5    5    0    0 -0.21287936728E+02 -0.38171946341E+02 -0.20816284672E+02  0.48410654253E+02  0.00000000000E+00 0. -1.
        -11    1    5    5    0    0 -0.28089756273E+03 -0.19605675005E+03 -0.42490996875E+03  0.54579315820E+03  0.00000000000E+00 0.  1.
          2    1    6    6  503    0  0.10217505100E+02  0.20572135655E+02 -0.20934223407E+02  0.31078157692E+02  0.00000000000E+00 0. -1.
         -2    1    6    6    0  503  0.47815523530E+03  0.12026161328E+03 -0.46869126148E+03  0.68026964011E+03  0.00000000000E+00 0.  1.
<mgrwt>
<rscale>  0 0.17205891E+04</rscale>
<asrwt>0</asrwt>
<pdfrwt beam="1">  1        1 0.60062708E+00 0.17205891E+04</pdfrwt>
<pdfrwt beam="2">  1       -2 0.29165051E-01 0.17205891E+04</pdfrwt>
<totfact> 0.10614862E+00</totfact>
</mgrwt>
</event>
<event>
12    4  0.4413110E-008  0.1460410E+04  0.7818608E-02  0.8911215E-01
         -2   -1    0    0    0  501 -0.00000000000E+00  0.00000000000E+00  0.53186330932E+03  0.53186330932E+03  0.00000000000E+00 0.  1.
          1   -1    0    0  501    0  0.00000000000E+00 -0.00000000000E+00 -0.10025116229E+04  0.10025116229E+04  0.00000000000E+00 0. -1.
        -24    2    1    2    0    0  0.38436174773E+02 -0.43967954137E+03 -0.21364581692E+03  0.49685462802E+03  0.80153276098E+02 0.  0.
        254    2    1    2    0    0 -0.38436174773E+02  0.43967954137E+03 -0.25700249669E+03  0.10375203042E+04  0.90310722494E+03 0.  0.
         23    2    4    4    0    0  0.21391149231E+03 -0.19702087939E+03 -0.14326515762E+02  0.30533250241E+03  0.91909382081E+02 0.  0.
         23    2    4    4    0    0 -0.25234766709E+03  0.63670042075E+03 -0.24267598093E+03  0.73218780182E+03  0.90225132515E+02 0.  0.
          3    1    3    3  502    0  0.54780516480E+02 -0.34518118406E+03 -0.14245715356E+03  0.37741885938E+03  0.00000000000E+00 0. -1.
         -2    1    3    3    0  502 -0.16344341707E+02 -0.94498357303E+02 -0.71188663362E+02  0.11943576864E+03  0.00000000000E+00 0.  1.
         11    1    5    5    0    0  0.46676798039E+02 -0.83459799831E+01  0.18870494397E+02  0.51034051532E+02  0.00000000000E+00 0.  1.
        -11    1    5    5    0    0  0.16723469427E+03 -0.18867489940E+03 -0.33197010158E+02  0.25429845088E+03  0.00000000000E+00 0. -1.
          3    1    6    6  503    0 -0.22335687847E+03  0.59413112203E+03 -0.20057211649E+03  0.66566452455E+03  0.00000000000E+00 0. -1.
         -3    1    6    6    0  503 -0.28990788615E+02  0.42569298720E+02 -0.42103864433E+02  0.66523277266E+02  0.00000000000E+00 0.  1.
<mgrwt>
<rscale>  0 0.14604097E+04</rscale>
<asrwt>0</asrwt>
<pdfrwt beam="1">  1        1 0.15423256E+00 0.14604097E+04</pdfrwt>
<pdfrwt beam="2">  1       -2 0.81825125E-01 0.14604097E+04</pdfrwt>
<totfact> 0.16835195E+01</totfact>
</mgrwt>
</event>
<event>
12    4  0.4413110E-008  0.2645767E+04  0.7818608E-02  0.8352819E-01
         -2   -1    0    0    0  501 -0.00000000000E+00  0.00000000000E+00  0.15848301423E+04  0.15848301423E+04  0.00000000000E+00 0.  1.
          1   -1    0    0  501    0  0.00000000000E+00 -0.00000000000E+00 -0.11042327359E+04  0.11042327359E+04  0.00000000000E+00 0. -1.
        -24    2    1    2    0    0 -0.64623751289E+03  0.85914010053E+03  0.67353566818E+03  0.12711776459E+04  0.80608160873E+02 0.  0.
        254    2    1    2    0    0  0.64623751289E+03 -0.85914010053E+03 -0.19293826183E+03  0.14178852324E+04  0.90411764941E+03 0.  0.
         23    2    4    4    0    0  0.15346843595E+03 -0.26107102031E+03  0.34600206263E+03  0.46963960077E+03  0.95568241525E+02 0.  0.
         23    2    4    4    0    0  0.49276907695E+03 -0.59806908022E+03 -0.53894032446E+03  0.94824563163E+03  0.90582099021E+02 0.  0.
          1    1    3    3  502    0 -0.49109907176E+03  0.61071055493E+03  0.51978452543E+03  0.94038376903E+03  0.00000000000E+00 0. -1.
         -2    1    3    3    0  502 -0.15513844113E+03  0.24842954560E+03  0.15375114275E+03  0.33079387682E+03  0.00000000000E+00 0.  1.
         11    1    5    5    0    0  0.12160680402E+03 -0.12099033750E+03  0.21653278205E+03  0.27624866019E+03  0.00000000000E+00 0. -1.
        -11    1    5    5    0    0  0.31861631925E+02 -0.14008068281E+03  0.12946928058E+03  0.19339094058E+03  0.00000000000E+00 0.  1.
          3    1    6    6  503    0  0.39576576194E+03 -0.53002783120E+03 -0.44868976512E+03  0.79930128581E+03  0.00000000000E+00 0. -1.
         -3    1    6    6    0  503  0.97003315011E+02 -0.68041249019E+02 -0.90250559337E+02  0.14894434582E+03  0.00000000000E+00 0.  1.
<mgrwt>
<rscale>  0 0.26457674E+04</rscale>
<asrwt>0</asrwt>
<pdfrwt beam="1">  1        1 0.16988196E+00 0.26457674E+04</pdfrwt>
<pdfrwt beam="2">  1       -2 0.24382002E+00 0.26457674E+04</pdfrwt>
<totfact> 0.67955540E-01</totfact>
</mgrwt>
</event>
<event>
12    4  0.4413110E-008  0.2121701E+04  0.7818608E-02  0.8551744E-01
          1   -1    0    0  501    0  0.00000000000E+00  0.00000000000E+00  0.70864604500E+03  0.70864604500E+03  0.00000000000E+00 0. -1.
         -4   -1    0    0    0  501 -0.00000000000E+00 -0.00000000000E+00 -0.15881047837E+04  0.15881047837E+04  0.00000000000E+00 0.  1.
        -24    2    1    2    0    0 -0.27006028904E+03  0.78661988644E+03 -0.63312945957E+03  0.10483057569E+04  0.79928980318E+02 0.  0.
        254    2    1    2    0    0  0.27006028904E+03 -0.78661988644E+03 -0.24632927916E+03  0.12484450718E+04  0.89790510533E+03 0.  0.
         23    2    4    4    0    0  0.21834828220E+03 -0.17954448691E+03 -0.50065539848E+03  0.58187239374E+03  0.89484408948E+02 0.  0.
         23    2    4    4    0    0  0.51712006844E+02 -0.60707539954E+03  0.25432611933E+03  0.66657267811E+03  0.91775202822E+02 0.  0.
          3    1    3    3  502    0 -0.32131588805E+02  0.11216520560E+03 -0.56637157775E+02  0.12969672311E+03  0.00000000000E+00 0. -1.
         -4    1    3    3    0  502 -0.23792870024E+03  0.67445468085E+03 -0.57649230180E+03  0.91860903378E+03  0.00000000000E+00 0.  1.
         11    1    5    5    0    0  0.19868341301E+03 -0.17603054770E+03 -0.40559821481E+03  0.48473886185E+03  0.00000000000E+00 0.  1.
        -11    1    5    5    0    0  0.19664869183E+02 -0.35139392049E+01 -0.95057183672E+02  0.97133531884E+02  0.00000000000E+00 0. -1.
          1    1    6    6  503    0  0.42837142371E+02 -0.21033230004E+03  0.50784428979E+02  0.22057596295E+03  0.00000000000E+00 0. -1.
         -1    1    6    6    0  503  0.88748644734E+01 -0.39674309950E+03  0.20354169035E+03  0.44599671516E+03  0.00000000000E+00 0.  1.
<mgrwt>
<rscale>  0 0.21217014E+04</rscale>
<asrwt>0</asrwt>
<pdfrwt beam="1">  1        1 0.10902247E+00 0.21217014E+04</pdfrwt>
<pdfrwt beam="2">  1       -4 0.24432381E+00 0.21217014E+04</pdfrwt>
<totfact> 0.80653743E-01</totfact>
</mgrwt>
</event>
<event>
12    4  0.4413110E-008  0.1885087E+04  0.7818608E-02  0.8662315E-01
         -4   -1    0    0    0  501 -0.00000000000E+00  0.00000000000E+00  0.14790783741E+04  0.14790783741E+04  0.00000000000E+00 0.  1.
          1   -1    0    0  501    0  0.00000000000E+00 -0.00000000000E+00 -0.60063640266E+03  0.60063640266E+03  0.00000000000E+00 0. -1.
        -24    2    1    2    0    0  0.37015543816E+03 -0.62776881526E+03  0.39476582949E+03  0.83259206551E+03  0.79124924058E+02 0.  0.
        254    2    1    2    0    0 -0.37015543816E+03  0.62776881526E+03  0.48367614200E+03  0.12471227113E+04  0.88896777944E+03 0.  0.
         23    2    4    4    0    0 -0.24329678355E+03 -0.18634029122E+03  0.15171074595E+03  0.35404779871E+03  0.91747830059E+02 0.  0.
         23    2    4    4    0    0 -0.12685865461E+03  0.81410910647E+03  0.33196539605E+03  0.89307491259E+03  0.92276865053E+02 0.  0.
          1    1    3    3  502    0  0.20905758270E+03 -0.29989434427E+03  0.16543860936E+03  0.40126253760E+03  0.00000000000E+00 0. -1.
         -2    1    3    3    0  502  0.16109785546E+03 -0.32787447099E+03  0.22932722013E+03  0.43132952791E+03  0.00000000000E+00 0.  1.
         11    1    5    5    0    0 -0.21024234720E+03 -0.12011577307E+03  0.92275445779E+02  0.25912236759E+03  0.00000000000E+00 0. -1.
        -11    1    5    5    0    0 -0.33054436355E+02 -0.66224518150E+02  0.59435300168E+02  0.94925431119E+02  0.00000000000E+00 0.  1.
          4    1    6    6  503    0 -0.99234871512E+02  0.64242748124E+03  0.22004226931E+03  0.68627926433E+03  0.00000000000E+00 0. -1.
         -4    1    6    6    0  503 -0.27623783100E+02  0.17168162524E+03  0.11192312674E+03  0.20679564825E+03  0.00000000000E+00 0.  1.
<mgrwt>
<rscale>  0 0.18850871E+04</rscale>
<asrwt>0</asrwt>
<pdfrwt beam="1">  1        1 0.92405601E-01 0.18850871E+04</pdfrwt>
<pdfrwt beam="2">  1       -4 0.22755052E+00 0.18850871E+04</pdfrwt>
<totfact> 0.13401207E+00</totfact>
</mgrwt>
</event>
<event>
12    4  0.4413110E-008  0.1547919E+04  0.7818608E-02  0.8853198E-01
          1   -1    0    0  501    0  0.00000000000E+00  0.00000000000E+00  0.14400185665E+04  0.14400185665E+04  0.00000000000E+00 0. -1.
         -2   -1    0    0    0  501 -0.00000000000E+00 -0.00000000000E+00 -0.41597591272E+03  0.41597591272E+03  0.00000000000E+00 0.  1.
        -24    2    1    2    0    0  0.10033922297E+02  0.45236732576E+03  0.60796671180E+03  0.76230561565E+03  0.82155048487E+02 0.  0.
        254    2    1    2    0    0 -0.10033922297E+02 -0.45236732576E+03  0.41607594199E+03  0.10936888636E+04  0.90459895191E+03 0.  0.
         23    2    4    4    0    0 -0.11813098841E+03 -0.53455004783E+03  0.62006515423E+03  0.83215251000E+03  0.91095117041E+02 0.  0.
         23    2    4    4    0    0  0.10809706611E+03  0.82182722066E+02 -0.20398921224E+03  0.26153635358E+03  0.91382109981E+02 0.  0.
          3    1    3    3  502    0  0.25126817912E+02  0.23288449076E+03  0.37275564733E+03  0.44024233738E+03  0.00000000000E+00 0. -1.
         -4    1    3    3    0  502 -0.15092895615E+02  0.21948283500E+03  0.23521106447E+03  0.32206327827E+03  0.00000000000E+00 0.  1.
         11    1    5    5    0    0 -0.84462081245E+02 -0.30605544696E+03  0.29500866898E+03  0.43339807862E+03  0.00000000000E+00 0.  1.
        -11    1    5    5    0    0 -0.33668907162E+02 -0.22849460087E+03  0.32505648525E+03  0.39875443137E+03  0.00000000000E+00 0. -1.
          1    1    6    6  503    0 -0.11700935359E+02 -0.73669765894E+01 -0.21825034137E+02  0.25836337733E+02  0.00000000000E+00 0. -1.
         -1    1    6    6    0  503  0.11979800147E+03  0.89549698655E+02 -0.18216417810E+03  0.23570001584E+03  0.00000000000E+00 0.  1.
<mgrwt>
<rscale>  0 0.15479187E+04</rscale>
<asrwt>0</asrwt>
<pdfrwt beam="1">  1        1 0.22154132E+00 0.15479187E+04</pdfrwt>
<pdfrwt beam="2">  1       -2 0.63996295E-01 0.15479187E+04</pdfrwt>
<totfact> 0.13745512E+01</totfact>
</mgrwt>
</event>
<event>
12    4  0.4413110E-008  0.1099309E+04  0.7818608E-02  0.9205865E-01
         -2   -1    0    0    0  501 -0.00000000000E+00  0.00000000000E+00  0.31357549100E+03  0.31357549100E+03  0.00000000000E+00 0.  1.
          1   -1    0    0  501    0  0.00000000000E+00 -0.00000000000E+00 -0.96346891236E+03  0.96346891236E+03  0.00000000000E+00 0. -1.
        -24    2    1    2    0    0 -0.20975830374E+01 -0.56993060598E+02  0.74905734897E+02  0.12333865014E+03  0.79680265355E+02 0.  0.
        254    2    1    2    0    0  0.20975830374E+01  0.56993060598E+02 -0.72479915626E+03  0.11537057532E+04  0.89579603666E+03 0.  0.
         23    2    4    4    0    0  0.12438633454E+03  0.29579029137E+03 -0.79510173885E+03  0.86220429102E+03  0.90805328289E+02 0.  0.
         23    2    4    4    0    0 -0.12228875151E+03 -0.23879723077E+03  0.70302582585E+02  0.29150146221E+03  0.89732899104E+02 0.  0.
          3    1    3    3  502    0 -0.18701605477E+02 -0.17687987927E+02 -0.10552742948E+02  0.27820412435E+02  0.00000000000E+00 0. -1.
         -4    1    3    3    0  502  0.16604022439E+02 -0.39305072671E+02  0.85458477845E+02  0.95518237706E+02  0.00000000000E+00 0.  1.
         11    1    5    5    0    0  0.12806291704E+03  0.20373798917E+03 -0.59942830438E+03  0.64592845660E+03  0.00000000000E+00 0.  1.
        -11    1    5    5    0    0 -0.36765824914E+01  0.92052302196E+02 -0.19567343446E+03  0.21627583442E+03  0.00000000000E+00 0. -1.
          1    1    6    6  503    0 -0.10839830350E+03 -0.11640827127E+03  0.49463127499E+02  0.16657634527E+03  0.00000000000E+00 0. -1.
         -1    1    6    6    0  503 -0.13890448007E+02 -0.12238895950E+03  0.20839455086E+02  0.12492511693E+03  0.00000000000E+00 0.  1.
<mgrwt>
<rscale>  0 0.10993093E+04</rscale>
<asrwt>0</asrwt>
<pdfrwt beam="1">  1        1 0.14822599E+00 0.10993093E+04</pdfrwt>
<pdfrwt beam="2">  1       -2 0.48242383E-01 0.10993093E+04</pdfrwt>
<totfact> 0.57483679E+01</totfact>
</mgrwt>
</event>
<event>
12    4  0.4413110E-008  0.1581254E+04  0.7818608E-02  0.8832148E-01
          1   -1    0    0  501    0  0.00000000000E+00  0.00000000000E+00  0.65877468363E+03  0.65877468363E+03  0.00000000000E+00 0. -1.
         -2   -1    0    0    0  501 -0.00000000000E+00 -0.00000000000E+00 -0.94886867898E+03  0.94886867898E+03  0.00000000000E+00 0.  1.
        -24    2    1    2    0    0  0.27835827862E+03 -0.44618845489E+03 -0.16866270600E+03  0.55650846037E+03  0.68462321912E+02 0.  0.
        254    2    1    2    0    0 -0.27835827862E+03  0.44618845489E+03 -0.12143128936E+03  0.10511349022E+04  0.90198201541E+03 0.  0.
         23    2    4    4    0    0  0.22813575879E+02  0.22769312811E+03 -0.47193290121E+03  0.53251849208E+03  0.92144784569E+02 0.  0.
         23    2    4    4    0    0 -0.30117185450E+03  0.21849532677E+03  0.35050161185E+03  0.51861641016E+03  0.87560877193E+02 0.  0.
          3    1    3    3  502    0  0.23371380467E+03 -0.38069006932E+03 -0.11660118298E+03  0.46167402704E+03  0.00000000000E+00 0. -1.
         -2    1    3    3    0  502  0.44644473954E+02 -0.65498385564E+02 -0.52061523022E+02  0.94834433332E+02  0.00000000000E+00 0.  1.
         11    1    5    5    0    0  0.25119469015E+02  0.66907753643E+02 -0.23911756290E+03  0.24956931724E+03  0.00000000000E+00 0.  1.
        -11    1    5    5    0    0 -0.23058931364E+01  0.16078537447E+03 -0.23281533831E+03  0.28294917483E+03  0.00000000000E+00 0. -1.
          1    1    6    6  503    0 -0.74813189083E+02  0.49680019161E+02  0.14034289799E+03  0.16661706570E+03  0.00000000000E+00 0. -1.
         -1    1    6    6    0  503 -0.22635866542E+03  0.16881530761E+03  0.21015871386E+03  0.35199934447E+03  0.00000000000E+00 0.  1.
<mgrwt>
<rscale>  0 0.15812535E+04</rscale>
<asrwt>0</asrwt>
<pdfrwt beam="1">  1        1 0.10134995E+00 0.15812535E+04</pdfrwt>
<pdfrwt beam="2">  1       -2 0.14597980E+00 0.15812535E+04</pdfrwt>
<totfact> 0.80809941E+00</totfact>
</mgrwt>
</event>
<event>
12    4  0.4413110E-008  0.1994184E+04  0.7818608E-02  0.8609345E-01
          1   -1    0    0  501    0  0.00000000000E+00  0.00000000000E+00  0.74748425890E+03  0.74748425890E+03  0.00000000000E+00 0. -1.
         -2   -1    0    0    0  501 -0.00000000000E+00 -0.00000000000E+00 -0.13300509659E+04  0.13300509659E+04  0.00000000000E+00 0.  1.
        -24    2    1    2    0    0  0.16701378647E+03 -0.30016528953E+03 -0.95974399943E+03  0.10224150946E+04  0.78938427221E+02 0.  0.
        254    2    1    2    0    0 -0.16701378647E+03  0.30016528953E+03  0.37717729246E+03  0.10551201302E+04  0.92359242810E+03 0.  0.
         23    2    4    4    0    0  0.27480273811E+03 -0.68257968709E+02 -0.88970668050E+02  0.30916853980E+03  0.86566223566E+02 0.  0.
         23    2    4    4    0    0 -0.44181652458E+03  0.36842325824E+03  0.46614796051E+03  0.74595159038E+03  0.90621826835E+02 0.  0.
          1    1    3    3  502    0  0.14243032913E+03 -0.20907870816E+03 -0.61514629761E+03  0.66513552929E+03  0.00000000000E+00 0. -1.
         -2    1    3    3    0  502  0.24583457347E+02 -0.91086581370E+02 -0.34459770182E+03  0.35727956530E+03  0.00000000000E+00 0.  1.
         11    1    5    5    0    0  0.23726396503E+03 -0.25545670313E+02 -0.64033888155E+02  0.24707713209E+03  0.00000000000E+00 0. -1.
        -11    1    5    5    0    0  0.37538773080E+02 -0.42712298397E+02 -0.24936779895E+02  0.62091407701E+02  0.00000000000E+00 0.  1.
          1    1    6    6  503    0 -0.40206120748E+03  0.30807097928E+03  0.37829549301E+03  0.63219334295E+03  0.00000000000E+00 0. -1.
         -1    1    6    6    0  503 -0.39755317101E+02  0.60352278965E+02  0.87852467496E+02  0.11375824743E+03  0.00000000000E+00 0.  1.
<mgrwt>
<rscale>  0 0.19941837E+04</rscale>
<asrwt>0</asrwt>
<pdfrwt beam="1">  1        1 0.11499758E+00 0.19941837E+04</pdfrwt>
<pdfrwt beam="2">  1       -2 0.20462322E+00 0.19941837E+04</pdfrwt>
<totfact> 0.24822023E+00</totfact>
</mgrwt>
</event>
<event>
12    4  0.4413110E-008  0.1344504E+04  0.7818608E-02  0.8994999E-01
          1   -1    0    0  501    0  0.00000000000E+00  0.00000000000E+00  0.28398726460E+04  0.28398726460E+04  0.00000000000E+00 0. -1.
         -2   -1    0    0    0  501 -0.00000000000E+00 -0.00000000000E+00 -0.15913476153E+03  0.15913476153E+03  0.00000000000E+00 0.  1.
        -24    2    1    2    0    0  0.32669850780E+03 -0.15065734150E+03  0.86209823760E+03  0.93738329396E+03  0.77746504541E+02 0.  0.
        254    2    1    2    0    0 -0.32669850780E+03  0.15065734150E+03  0.18186396468E+04  0.20616241135E+04  0.90189482254E+03 0.  0.
         23    2    4    4    0    0 -0.36541678628E+03  0.23856124312E+03  0.29972147380E+03  0.53703189322E+03  0.90163174662E+02 0.  0.
         23    2    4    4    0    0  0.38718278480E+02 -0.87903901621E+02  0.15189181730E+04  0.15245922203E+04  0.89681775564E+02 0.  0.
          3    1    3    3  502    0  0.68594406146E+02 -0.31115668701E+02  0.11020819643E+03  0.13348866601E+03  0.00000000000E+00 0. -1.
         -4    1    3    3    0  502  0.25810410165E+03 -0.11954167280E+03  0.75189004118E+03  0.80389462795E+03  0.00000000000E+00 0.  1.
         11    1    5    5    0    0 -0.22890889025E+03  0.10963102189E+03  0.13621238851E+03  0.28804870384E+03  0.00000000000E+00 0.  1.
        -11    1    5    5    0    0 -0.13650789602E+03  0.12893022123E+03  0.16350908529E+03  0.24898318938E+03  0.00000000000E+00 0. -1.
          4    1    6    6  503    0  0.30913014665E+01 -0.83226129792E+02  0.70855490324E+03  0.71343268480E+03  0.00000000000E+00 0. -1.
         -4    1    6    6    0  503  0.35626977013E+02 -0.46777718295E+01  0.81036326979E+03  0.81115953552E+03  0.00000000000E+00 0.  1.
<mgrwt>
<rscale>  0 0.13445036E+04</rscale>
<asrwt>0</asrwt>
<pdfrwt beam="1">  1        1 0.43690345E+00 0.13445036E+04</pdfrwt>
<pdfrwt beam="2">  1       -2 0.24482273E-01 0.13445036E+04</pdfrwt>
<totfact> 0.10071731E+01</totfact>
</mgrwt>
</event>
<event>
12    4  0.4413110E-008  0.1490061E+04  0.7818608E-02  0.8891089E-01
          3   -1    0    0  501    0  0.00000000000E+00  0.00000000000E+00  0.20644813135E+03  0.20644813135E+03  0.00000000000E+00 0. -1.
         -4   -1    0    0    0  501 -0.00000000000E+00 -0.00000000000E+00 -0.26886686258E+04  0.26886686258E+04  0.00000000000E+00 0.  1.
        -24    2    1    2    0    0  0.39443943265E+03 -0.11864483740E+03 -0.12019907595E+04  0.12732321937E+04  0.81727410408E+02 0.  0.
        254    2    1    2    0    0 -0.39443943265E+03  0.11864483740E+03 -0.12802297349E+04  0.16218845634E+04  0.90656621353E+03 0.  0.
         23    2    4    4    0    0 -0.14012857130E+03  0.38941790641E+03 -0.18774314373E+03  0.46454715365E+03  0.96302895154E+02 0.  0.
         23    2    4    4    0    0 -0.25431086135E+03 -0.27077306901E+03 -0.10924865912E+04  0.11573374098E+04  0.88943010445E+02 0.  0.
          1    1    3    3  502    0  0.18775657594E+03 -0.35797484124E+02 -0.44855000725E+03  0.48757676389E+03  0.00000000000E+00 0. -1.
         -2    1    3    3    0  502  0.20668285671E+03 -0.82847353279E+02 -0.75344075226E+03  0.78565542979E+03  0.00000000000E+00 0.  1.
         11    1    5    5    0    0 -0.13712863574E+03  0.32424378159E+03 -0.18842132305E+03  0.39930049789E+03  0.00000000000E+00 0.  1.
        -11    1    5    5    0    0 -0.29999355557E+01  0.65174124821E+02  0.67817931632E+00  0.65246655751E+02  0.00000000000E+00 0. -1.
          2    1    6    6  503    0 -0.17353708474E+03 -0.13869647445E+03 -0.73315140403E+03  0.76606971813E+03  0.00000000000E+00 0. -1.
         -2    1    6    6    0  503 -0.80773776612E+02 -0.13207659456E+03 -0.35933518715E+03  0.39126769166E+03  0.00000000000E+00 0.  1.
<mgrwt>
<rscale>  0 0.14900612E+04</rscale>
<asrwt>0</asrwt>
<pdfrwt beam="1">  1        3 0.31761253E-01 0.14900612E+04</pdfrwt>
<pdfrwt beam="2">  1       -4 0.41364130E+00 0.14900612E+04</pdfrwt>
<totfact> 0.11949609E-01</totfact>
</mgrwt>
</event>
<event>
12    4  0.4413110E-008  0.2169028E+04  0.7818608E-02  0.8531431E-01
         -2   -1    0    0    0  501 -0.00000000000E+00  0.00000000000E+00  0.54951874159E+03  0.54951874159E+03  0.00000000000E+00 0.  1.
          1   -1    0    0  501    0  0.00000000000E+00 -0.00000000000E+00 -0.21403639684E+04  0.21403639684E+04  0.00000000000E+00 0. -1.
        -24    2    1    2    0    0 -0.66776268161E+03  0.48416057875E+03 -0.11003539057E+04  0.13774793932E+04  0.79701292202E+02 0.  0.
        254    2    1    2    0    0  0.66776268161E+03 -0.48416057875E+03 -0.49049132108E+03  0.13124033167E+04  0.89526658866E+03 0.  0.
         23    2    4    4    0    0 -0.18858163871E+02 -0.47958682706E+03 -0.52888611662E+02  0.49305850364E+03  0.99751329509E+02 0.  0.
         23    2    4    4    0    0  0.68662084548E+03 -0.45737516890E+01 -0.43760270942E+03  0.81934481310E+03  0.91436791317E+02 0.  0.
          1    1    3    3  502    0 -0.63955716553E+03  0.47870307972E+03 -0.10479977654E+04  0.13177592051E+04  0.00000000000E+00 0. -1.
         -2    1    3    3    0  502 -0.28205516084E+02  0.54574990252E+01 -0.52356140357E+02  0.59720188096E+02  0.00000000000E+00 0.  1.
         11    1    5    5    0    0 -0.33190418250E+02 -0.41641575184E+03 -0.75390632707E+02  0.42448489931E+03  0.00000000000E+00 0. -1.
        -11    1    5    5    0    0  0.14332254379E+02 -0.63171075219E+02  0.22502021045E+02  0.68573604332E+02  0.00000000000E+00 0.  1.
          3    1    6    6  503    0  0.45188080937E+03  0.31899392507E+02 -0.31719403304E+03  0.55301527259E+03  0.00000000000E+00 0. -1.
         -3    1    6    6    0  503  0.23474003611E+03 -0.36473144196E+02 -0.12040867638E+03  0.26632954051E+03  0.00000000000E+00 0.  1.
<mgrwt>
<rscale>  0 0.21690275E+04</rscale>
<asrwt>0</asrwt>
<pdfrwt beam="1">  1        1 0.32928676E+00 0.21690275E+04</pdfrwt>
<pdfrwt beam="2">  1       -2 0.84541345E-01 0.21690275E+04</pdfrwt>
<totfact> 0.23435179E+00</totfact>
</mgrwt>
</event>
<event>
12    4  0.4413110E-008  0.2750355E+04  0.7818608E-02  0.8318849E-01
         -2   -1    0    0    0  501 -0.00000000000E+00  0.00000000000E+00  0.17818225169E+04  0.17818225169E+04  0.00000000000E+00 0.  1.
          1   -1    0    0  501    0  0.00000000000E+00 -0.00000000000E+00 -0.10613362095E+04  0.10613362095E+04  0.00000000000E+00 0. -1.
        -24    2    1    2    0    0 -0.10261355673E+04 -0.60646214443E+03  0.37403889146E+02  0.11952481271E+04  0.80426980853E+02 0.  0.
        254    2    1    2    0    0  0.10261355673E+04  0.60646214443E+03  0.68308241820E+03  0.16479105993E+04  0.91008637952E+03 0.  0.
         23    2    4    4    0    0 -0.11087943151E+03 -0.82095085014E+02  0.55176908019E+02  0.17507234989E+03  0.92585016086E+02 0.  0.
         23    2    4    4    0    0  0.11370149988E+04  0.68855722944E+03  0.62790551018E+03  0.14728382494E+04  0.89849949989E+02 0.  0.
          3    1    3    3  502    0 -0.80924224614E+03 -0.50970229771E+03  0.47209901148E+02  0.95754802490E+03  0.00000000000E+00 0. -1.
         -4    1    3    3    0  502 -0.21689332119E+03 -0.96759846724E+02 -0.98060120011E+01  0.23770010220E+03  0.00000000000E+00 0.  1.
         11    1    5    5    0    0 -0.12733004329E+03 -0.74710409662E+02  0.44848809387E+02  0.15429193413E+03  0.00000000000E+00 0. -1.
        -11    1    5    5    0    0  0.16450611776E+02 -0.73846753519E+01  0.10328098632E+02  0.20780415761E+02  0.00000000000E+00 0.  1.
          4    1    6    6  503    0  0.46980526357E+03  0.33584961875E+03  0.28029275373E+03  0.64193144485E+03  0.00000000000E+00 0. -1.
         -4    1    6    6    0  503  0.66720973526E+03  0.35270761069E+03  0.34761275645E+03  0.83090680459E+03  0.00000000000E+00 0.  1.
<mgrwt>
<rscale>  0 0.27503547E+04</rscale>
<asrwt>0</asrwt>
<pdfrwt beam="1">  1        1 0.16328249E+00 0.27503547E+04</pdfrwt>
<pdfrwt beam="2">  1       -2 0.27412654E+00 0.27503547E+04</pdfrwt>
<totfact> 0.47323998E-01</totfact>
</mgrwt>
</event>
<event>
12    4  0.4413110E-008  0.2364311E+04  0.7818608E-02  0.8452987E-01
          1   -1    0    0  501    0  0.00000000000E+00  0.00000000000E+00  0.14393288737E+04  0.14393288737E+04  0.00000000000E+00 0. -1.
         -2   -1    0    0    0  501 -0.00000000000E+00 -0.00000000000E+00 -0.97093243238E+03  0.97093243238E+03  0.00000000000E+00 0.  1.
        -24    2    1    2    0    0 -0.10983862333E+03 -0.29043848829E+03  0.11852256800E+04  0.12280242805E+04  0.82853377597E+02 0.  0.
        254    2    1    2    0    0  0.10983862333E+03  0.29043848829E+03 -0.71682923871E+03  0.11822370256E+04  0.88736756116E+03 0.  0.
         23    2    4    4    0    0  0.15620919776E+03  0.22187685687E+03 -0.90969806609E+03  0.95367617749E+03  0.91197735659E+02 0.  0.
         23    2    4    4    0    0 -0.46370574434E+02  0.68561631422E+02  0.19286882738E+03  0.22856084811E+03  0.90502758188E+02 0.  0.
          3    1    3    3  502    0 -0.56060943775E+02 -0.12279333233E+03  0.36612789395E+03  0.39021874200E+03  0.00000000000E+00 0. -1.
         -4    1    3    3    0  502 -0.53777679554E+02 -0.16764515597E+03  0.81909778609E+03  0.83780553849E+03  0.00000000000E+00 0.  1.
         11    1    5    5    0    0  0.66011464400E+02  0.11247468211E+03 -0.58514818937E+03  0.59950518853E+03  0.00000000000E+00 0.  1.
        -11    1    5    5    0    0  0.90197733363E+02  0.10940217476E+03 -0.32454987672E+03  0.35417098896E+03  0.00000000000E+00 0. -1.
          4    1    6    6  503    0 -0.45843366818E+02  0.76072063657E+02  0.19959532394E+03  0.21846479462E+03  0.00000000000E+00 0. -1.
         -4    1    6    6    0  503 -0.52720761543E+00 -0.75104322356E+01 -0.67264965581E+01  0.10096053495E+02  0.00000000000E+00 0.  1.
<mgrwt>
<rscale>  0 0.23643105E+04</rscale>
<asrwt>0</asrwt>
<pdfrwt beam="1">  1        1 0.22143521E+00 0.23643105E+04</pdfrwt>
<pdfrwt beam="2">  1       -2 0.14937422E+00 0.23643105E+04</pdfrwt>
<totfact> 0.17238072E+00</totfact>
</mgrwt>
</event>
<event>
12    4  0.4413110E-008  0.1741745E+04  0.7818608E-02  0.8737907E-01
          1   -1    0    0  501    0  0.00000000000E+00  0.00000000000E+00  0.10772845258E+04  0.10772845258E+04  0.00000000000E+00 0. -1.
         -2   -1    0    0    0  501 -0.00000000000E+00 -0.00000000000E+00 -0.70401008751E+03  0.70401008751E+03  0.00000000000E+00 0.  1.
        -24    2    1    2    0    0 -0.46649631709E+03  0.40309010196E+03  0.20080157386E+03  0.65370186963E+03  0.83092828430E+02 0.  0.
        254    2    1    2    0    0  0.46649631709E+03 -0.40309010196E+03  0.17247286443E+03  0.11275927437E+04  0.92823384040E+03 0.  0.
         23    2    4    4    0    0  0.27195314630E+03 -0.40135575939E+03  0.52106212181E+03  0.71828888186E+03  0.96892846217E+02 0.  0.
         23    2    4    4    0    0  0.19454317079E+03 -0.17343425696E+01 -0.34858925738E+03  0.40930386181E+03  0.90361096089E+02 0.  0.
          1    1    3    3  502    0 -0.32506751962E+03  0.27243386804E+03  0.97494977763E+02  0.43519464089E+03  0.00000000000E+00 0. -1.
         -2    1    3    3    0  502 -0.14142879747E+03  0.13065623391E+03  0.10330659610E+03  0.21850722874E+03  0.00000000000E+00 0.  1.
         11    1    5    5    0    0  0.75281095582E+02 -0.59037452242E+02  0.68135461317E+02  0.11745256578E+03  0.00000000000E+00 0.  1.
        -11    1    5    5    0    0  0.19667205072E+03 -0.34231830715E+03  0.45292666049E+03  0.60083631608E+03  0.00000000000E+00 0. -1.
          3    1    6    6  503    0  0.20446511784E+03 -0.26776777235E+01 -0.33437352787E+03  0.39194235611E+03  0.00000000000E+00 0. -1.
         -3    1    6    6    0  503 -0.99219470568E+01  0.94333515393E+00 -0.14215729516E+02  0.17361505703E+02  0.00000000000E+00 0.  1.
<mgrwt>
<rscale>  0 0.17417453E+04</rscale>
<asrwt>0</asrwt>
<pdfrwt beam="1">  1        1 0.16573608E+00 0.17417453E+04</pdfrwt>
<pdfrwt beam="2">  1       -2 0.10830924E+00 0.17417453E+04</pdfrwt>
<totfact> 0.74816186E+00</totfact>
</mgrwt>
</event>
<event>
12    4  0.4413110E-008  0.1446668E+04  0.7818608E-02  0.8920713E-01
         -2   -1    0    0    0  501 -0.00000000000E+00  0.00000000000E+00  0.74242472341E+03  0.74242472341E+03  0.00000000000E+00 0.  1.
          1   -1    0    0  501    0  0.00000000000E+00 -0.00000000000E+00 -0.70473459747E+03  0.70473459747E+03  0.00000000000E+00 0. -1.
        -24    2    1    2    0    0  0.21364473843E+03  0.29315575192E+03 -0.23050685147E+03  0.43764809484E+03  0.82571648891E+02 0.  0.
        254    2    1    2    0    0 -0.21364473843E+03 -0.29315575192E+03  0.26819697741E+03  0.10095112260E+04  0.90310515870E+03 0.  0.
         23    2    4    4    0    0 -0.41051877082E+03  0.29465290371E+01 -0.15608097545E+03  0.44853534989E+03  0.91040353587E+02 0.  0.
         23    2    4    4    0    0  0.19687403239E+03 -0.29610228095E+03  0.42427795286E+03  0.56097587615E+03  0.90808628037E+02 0.  0.
          1    1    3    3  502    0  0.10560683777E+03  0.10068252543E+03 -0.12877804769E+03  0.19461130666E+03  0.00000000000E+00 0. -1.
         -2    1    3    3    0  502  0.10803790066E+03  0.19247322648E+03 -0.10172880378E+03  0.24303678819E+03  0.00000000000E+00 0.  1.
         11    1    5    5    0    0 -0.26951826226E+03 -0.37346238871E+02 -0.12081538273E+03  0.29770991242E+03  0.00000000000E+00 0. -1.
        -11    1    5    5    0    0 -0.14100050856E+03  0.40292767908E+02 -0.35265592715E+02  0.15082543748E+03  0.00000000000E+00 0.  1.
          4    1    6    6  503    0 -0.69792307983E+01 -0.16968970927E+02  0.40667401487E+02  0.44614943467E+02  0.00000000000E+00 0. -1.
         -4    1    6    6    0  503  0.20385326318E+03 -0.27913331003E+03  0.38361055137E+03  0.51636093268E+03  0.00000000000E+00 0.  1.
<mgrwt>
<rscale>  0 0.14466684E+04</rscale>
<asrwt>0</asrwt>
<pdfrwt beam="1">  1        1 0.10842071E+00 0.14466684E+04</pdfrwt>
<pdfrwt beam="2">  1       -2 0.11421919E+00 0.14466684E+04</pdfrwt>
<totfact> 0.13750816E+01</totfact>
</mgrwt>
</event>
<event>
12    4  0.4413110E-008  0.1884784E+04  0.7818608E-02  0.8662468E-01
         -2   -1    0    0    0  501 -0.00000000000E+00  0.00000000000E+00  0.52985968407E+03  0.52985968407E+03  0.00000000000E+00 0.  1.
          1   -1    0    0  501    0  0.00000000000E+00 -0.00000000000E+00 -0.16761089962E+04  0.16761089962E+04  0.00000000000E+00 0. -1.
        -24    2    1    2    0    0 -0.83842718418E+02  0.62203701720E+03 -0.63086856578E+01  0.63261848412E+03  0.78782578928E+02 0.  0.
        254    2    1    2    0    0  0.83842718418E+02 -0.62203701720E+03 -0.11399406264E+04  0.15733501961E+04  0.88431134539E+03 0.  0.
         23    2    4    4    0    0 -0.33257143006E+03 -0.50513686776E+03 -0.47858812432E+03  0.77700860929E+03  0.94492194944E+02 0.  0.
         23    2    4    4    0    0  0.41641414847E+03 -0.11690014944E+03 -0.66135250212E+03  0.79634158682E+03  0.98521078219E+02 0.  0.
          3    1    3    3  502    0 -0.58684946019E+02  0.17999586753E+03 -0.13521924912E+02  0.18980326043E+03  0.00000000000E+00 0. -1.
         -4    1    3    3    0  502 -0.25157772400E+02  0.44204114967E+03  0.72132392543E+01  0.44281522369E+03  0.00000000000E+00 0.  1.
         11    1    5    5    0    0 -0.93783072292E+02 -0.16984077970E+03 -0.10244093497E+03  0.21939758489E+03  0.00000000000E+00 0.  1.
        -11    1    5    5    0    0 -0.23878835776E+03 -0.33529608805E+03 -0.37614718935E+03  0.55761102440E+03  0.00000000000E+00 0. -1.
          1    1    6    6  503    0  0.27979650180E+03 -0.47788509768E+02 -0.36110192694E+03  0.45930863885E+03  0.00000000000E+00 0. -1.
         -1    1    6    6    0  503  0.13661764668E+03 -0.69111639672E+02 -0.30025057518E+03  0.33703294797E+03  0.00000000000E+00 0.  1.
<mgrwt>
<rscale>  0 0.18847839E+04</rscale>
<asrwt>0</asrwt>
<pdfrwt beam="1">  1        1 0.25786292E+00 0.18847839E+04</pdfrwt>
<pdfrwt beam="2">  1       -2 0.81516875E-01 0.18847839E+04</pdfrwt>
<totfact> 0.53918575E+00</totfact>
</mgrwt>
</event>
<event>
12    4  0.4413110E-008  0.2600524E+04  0.7818608E-02  0.8368023E-01
         -2   -1    0    0    0  501 -0.00000000000E+00  0.00000000000E+00  0.69477066733E+03  0.69477066733E+03  0.00000000000E+00 0.  1.
          1   -1    0    0  501    0  0.00000000000E+00 -0.00000000000E+00 -0.24334381399E+04  0.24334381399E+04  0.00000000000E+00 0. -1.
        -24    2    1    2    0    0  0.88331964243E+02  0.22719376541E+02 -0.21690724233E+04  0.21724099211E+04  0.78555595912E+02 0.  0.
        254    2    1    2    0    0 -0.88331964243E+02 -0.22719376541E+02  0.43040495074E+03  0.95579888615E+03  0.84851893506E+03 0.  0.
         23    2    4    4    0    0 -0.98704105383E+02  0.38654422184E+03  0.32907209287E+03  0.52494118963E+03  0.90088148025E+02 0.  0.
         23    2    4    4    0    0  0.10372141140E+02 -0.40926359838E+03  0.10133285787E+03  0.43085769651E+03  0.88123392430E+02 0.  0.
          3    1    3    3  502    0  0.92153664164E+02  0.29290339969E+02 -0.21447191489E+04  0.21468978665E+04  0.00000000000E+00 0. -1.
         -4    1    3    3    0  502 -0.38216999210E+01 -0.65709634281E+01 -0.24353274471E+02  0.25512054565E+02  0.00000000000E+00 0.  1.
         11    1    5    5    0    0 -0.32687396989E+02  0.29037797391E+03  0.22905097140E+03  0.37128450163E+03  0.00000000000E+00 0. -1.
        -11    1    5    5    0    0 -0.66016708394E+02  0.96166247929E+02  0.10002112147E+03  0.15365668800E+03  0.00000000000E+00 0.  1.
          2    1    6    6  503    0  0.14491827079E+02 -0.27934550304E+03  0.26751236497E+02  0.28099742308E+03  0.00000000000E+00 0.  1.
         -2    1    6    6    0  503 -0.41196859395E+01 -0.12991809533E+03  0.74581621377E+02  0.14986027344E+03  0.00000000000E+00 0. -1.
<mgrwt>
<rscale>  0 0.26005241E+04</rscale>
<asrwt>0</asrwt>
<pdfrwt beam="1">  1        1 0.37437511E+00 0.26005241E+04</pdfrwt>
<pdfrwt beam="2">  1       -2 0.10688779E+00 0.26005241E+04</pdfrwt>
<totfact> 0.82128228E-01</totfact>
</mgrwt>
</event>
<event>
12    4  0.4413110E-008  0.1288955E+04  0.7818608E-02  0.9038370E-01
         -2   -1    0    0    0  501 -0.00000000000E+00  0.00000000000E+00  0.44803293720E+03  0.44803293720E+03  0.00000000000E+00 0.  1.
          1   -1    0    0  501    0  0.00000000000E+00 -0.00000000000E+00 -0.92705492976E+03  0.92705492976E+03  0.00000000000E+00 0. -1.
        -24    2    1    2    0    0  0.99074284048E+02 -0.16320984124E+02  0.20324406706E+03  0.24066728820E+03  0.80811537118E+02 0.  0.
        254    2    1    2    0    0 -0.99074284048E+02  0.16320984124E+02 -0.68226605961E+03  0.11344205788E+04  0.90074468367E+03 0.  0.
         23    2    4    4    0    0  0.41173242857E+02 -0.16051892095E+03 -0.82890479012E+03  0.85049089828E+03  0.93755304192E+02 0.  0.
         23    2    4    4    0    0 -0.14024752690E+03  0.17683990507E+03  0.14663873051E+03  0.28392968048E+03  0.90395936551E+02 0.  0.
          1    1    3    3  502    0  0.70057544850E+02 -0.28415554146E+02  0.67561743765E+02  0.10139079114E+03  0.00000000000E+00 0. -1.
         -2    1    3    3    0  502  0.29016739197E+02  0.12094570023E+02  0.13568232329E+03  0.13927649705E+03  0.00000000000E+00 0.  1.
         11    1    5    5    0    0  0.59035316562E+02 -0.10095273719E+03 -0.38858899042E+03  0.40580540561E+03  0.00000000000E+00 0. -1.
        -11    1    5    5    0    0 -0.17862073705E+02 -0.59566183756E+02 -0.44031579970E+03  0.44468549267E+03  0.00000000000E+00 0.  1.
          4    1    6    6  503    0 -0.10719480697E+03  0.99957306337E+02  0.13531583063E+03  0.19948073529E+03  0.00000000000E+00 0. -1.
         -4    1    6    6    0  503 -0.33052719939E+02  0.76882598732E+02  0.11322899881E+02  0.84448945197E+02  0.00000000000E+00 0.  1.
<mgrwt>
<rscale>  0 0.12889548E+04</rscale>
<asrwt>0</asrwt>
<pdfrwt beam="1">  1        1 0.14262383E+00 0.12889548E+04</pdfrwt>
<pdfrwt beam="2">  1       -2 0.68928144E-01 0.12889548E+04</pdfrwt>
<totfact> 0.28662784E+01</totfact>
</mgrwt>
</event>
<event>
12    4  0.4413110E-008  0.1928010E+04  0.7818608E-02  0.8641038E-01
          1   -1    0    0  501    0  0.00000000000E+00  0.00000000000E+00  0.17870559650E+04  0.17870559650E+04  0.00000000000E+00 0. -1.
         -2   -1    0    0    0  501 -0.00000000000E+00 -0.00000000000E+00 -0.52002036657E+03  0.52002036657E+03  0.00000000000E+00 0.  1.
        -24    2    1    2    0    0 -0.43652490092E+03 -0.52018916900E+03  0.87729886555E+03  0.11124639328E+04  0.82291808359E+02 0.  0.
        254    2    1    2    0    0  0.43652490092E+03  0.52018916900E+03  0.38973673283E+03  0.11946123987E+04  0.90224902410E+03 0.  0.
         23    2    4    4    0    0  0.53255960615E+03 -0.49848907623E+02  0.15677761231E+03  0.56469407278E+03  0.90529157804E+02 0.  0.
         23    2    4    4    0    0 -0.96034705234E+02  0.57003807663E+03  0.23295912052E+03  0.62991832590E+03  0.91438897942E+02 0.  0.
          3    1    3    3  502    0 -0.43404424205E+03 -0.49879262522E+03  0.86022897381E+03  0.10849803567E+04  0.00000000000E+00 0. -1.
         -4    1    3    3    0  502 -0.24806588679E+01 -0.21396543780E+02  0.17069891745E+02  0.27483576156E+02  0.00000000000E+00 0.  1.
         11    1    5    5    0    0  0.31433834451E+03 -0.74013864204E+02  0.94495065881E+02  0.33647580061E+03  0.00000000000E+00 0. -1.
        -11    1    5    5    0    0  0.21822126164E+03  0.24164956581E+02  0.62282546427E+02  0.22821827216E+03  0.00000000000E+00 0.  1.
          3    1    6    6  503    0 -0.28679882082E+02  0.39275813100E+03  0.18018480498E+03  0.43306818060E+03  0.00000000000E+00 0. -1.
         -3    1    6    6    0  503 -0.67354823152E+02  0.17727994562E+03  0.52774315534E+02  0.19685014529E+03  0.00000000000E+00 0.  1.
<mgrwt>
<rscale>  0 0.19280099E+04</rscale>
<asrwt>0</asrwt>
<pdfrwt beam="1">  1        1 0.27493168E+00 0.19280099E+04</pdfrwt>
<pdfrwt beam="2">  1       -2 0.80003134E-01 0.19280099E+04</pdfrwt>
<totfact> 0.47089520E+00</totfact>
</mgrwt>
</event>
<event>
12    4  0.4413110E-008  0.1453920E+04  0.7818608E-02  0.8915687E-01
         -2   -1    0    0    0  501 -0.00000000000E+00  0.00000000000E+00  0.29248842043E+03  0.29248842043E+03  0.00000000000E+00 0.  1.
          1   -1    0    0  501    0  0.00000000000E+00 -0.00000000000E+00 -0.18068091054E+04  0.18068091054E+04  0.00000000000E+00 0. -1.
        -24    2    1    2    0    0  0.28919533647E+03 -0.32770697639E+03 -0.57257421545E+03  0.72474591432E+03  0.79934993095E+02 0.  0.
        254    2    1    2    0    0 -0.28919533647E+03  0.32770697639E+03 -0.94174646948E+03  0.13745516115E+04  0.90082179968E+03 0.  0.
         23    2    4    4    0    0  0.17340299864E+03  0.13949713499E+03 -0.81878655992E+03  0.85341807513E+03  0.91558340048E+02 0.  0.
         23    2    4    4    0    0 -0.46259833511E+03  0.18820984140E+03 -0.12295990955E+03  0.52113353633E+03  0.83909828329E+02 0.  0.
          1    1    3    3  502    0  0.66117208876E+02 -0.12061227982E+03 -0.21408299772E+03  0.25446087570E+03  0.00000000000E+00 0. -1.
         -2    1    3    3    0  502  0.22307812759E+03 -0.20709469657E+03 -0.35849121773E+03  0.47028503862E+03  0.00000000000E+00 0.  1.
         11    1    5    5    0    0  0.11313207745E+03  0.13875961257E+03 -0.57122558542E+03  0.59862489630E+03  0.00000000000E+00 0. -1.
        -11    1    5    5    0    0  0.60270921194E+02  0.73752242208E+00 -0.24756097450E+03  0.25479317883E+03  0.00000000000E+00 0.  1.
          2    1    6    6  503    0 -0.26654860484E+03  0.11584606866E+03 -0.29239201068E+02  0.29210169676E+03  0.00000000000E+00 0. -1.
         -2    1    6    6    0  503 -0.19604973026E+03  0.72363772736E+02 -0.93720708485E+02  0.22903183958E+03  0.00000000000E+00 0.  1.
<mgrwt>
<rscale>  0 0.14539199E+04</rscale>
<asrwt>0</asrwt>
<pdfrwt beam="1">  1        1 0.27797063E+00 0.14539199E+04</pdfrwt>
<pdfrwt beam="2">  1       -2 0.44998218E-01 0.14539199E+04</pdfrwt>
<totfact> 0.16093763E+01</totfact>
</mgrwt>
</event>
<event>
12    4  0.4413110E-008  0.2015247E+04  0.7818608E-02  0.8599525E-01
          1   -1    0    0  501    0  0.00000000000E+00  0.00000000000E+00  0.10467811665E+04  0.10467811665E+04  0.00000000000E+00 0. -1.
         -2   -1    0    0    0  501 -0.00000000000E+00 -0.00000000000E+00 -0.96993068317E+03  0.96993068317E+03  0.00000000000E+00 0.  1.
        -24    2    1    2    0    0  0.69020862419E+03  0.24699206789E+03  0.28726215406E+03  0.79120911592E+03  0.78097973405E+02 0.  0.
        254    2    1    2    0    0 -0.69020862419E+03 -0.24699206789E+03 -0.21041167072E+03  0.12255027338E+04  0.95926578839E+03 0.  0.
         23    2    4    4    0    0 -0.26701095348E+03 -0.23345175109E+02 -0.55896525388E+03  0.62650241696E+03  0.90682285606E+02 0.  0.
         23    2    4    4    0    0 -0.42319767071E+03 -0.22364689278E+03  0.34855358317E+03  0.59900031681E+03  0.90540477415E+02 0.  0.
          1    1    3    3  502    0  0.47821332335E+03  0.15728976099E+03  0.16028164844E+03  0.52831643772E+03  0.00000000000E+00 0. -1.
         -2    1    3    3    0  502  0.21199530084E+03  0.89702306904E+02  0.12698050561E+03  0.26289267819E+03  0.00000000000E+00 0.  1.
         11    1    5    5    0    0 -0.73539955699E+01 -0.13400311397E+02 -0.81385569008E+02  0.82808577087E+02  0.00000000000E+00 0.  1.
        -11    1    5    5    0    0 -0.25965695791E+03 -0.99448637120E+01 -0.47757968488E+03  0.54369383987E+03  0.00000000000E+00 0. -1.
          3    1    6    6  503    0 -0.21874496086E+03 -0.15544182274E+03  0.15861884202E+03  0.31172336326E+03  0.00000000000E+00 0. -1.
         -3    1    6    6    0  503 -0.20445270985E+03 -0.68205070044E+02  0.18993474115E+03  0.28727695355E+03  0.00000000000E+00 0.  1.
<mgrwt>
<rscale>  0 0.20152471E+04</rscale>
<asrwt>0</asrwt>
<pdfrwt beam="1">  1        1 0.16104326E+00 0.20152471E+04</pdfrwt>
<pdfrwt beam="2">  1       -2 0.14922011E+00 0.20152471E+04</pdfrwt>
<totfact> 0.34343072E+00</totfact>
</mgrwt>
</event>
<event>
12    4  0.4413110E-008  0.1607809E+04  0.7818608E-02  0.8815765E-01
         -2   -1    0    0    0  501 -0.00000000000E+00  0.00000000000E+00  0.10214516317E+04  0.10214516317E+04  0.00000000000E+00 0.  1.
          1   -1    0    0  501    0  0.00000000000E+00 -0.00000000000E+00 -0.63269039312E+03  0.63269039312E+03  0.00000000000E+00 0. -1.
        -24    2    1    2    0    0 -0.26264153346E+03  0.48018468040E+02  0.62623713523E+03  0.68518107261E+03  0.77548722413E+02 0.  0.
        254    2    1    2    0    0  0.26264153346E+03 -0.48018468040E+02 -0.23747589669E+03  0.96896095218E+03  0.90066873875E+03 0.  0.
         23    2    4    4    0    0 -0.15816739330E+03 -0.35416360821E+03 -0.18433788575E+03  0.43852936116E+03  0.88762372610E+02 0.  0.
         23    2    4    4    0    0  0.42080892677E+03  0.30614514017E+03 -0.53138010943E+02  0.53043159102E+03  0.87914872732E+02 0.  0.
          3    1    3    3  502    0 -0.47151394781E+02  0.88792430249E+01  0.52807577367E+02  0.71349388321E+02  0.00000000000E+00 0. -1.
         -4    1    3    3    0  502 -0.21549013868E+03  0.39139225015E+02  0.57342955787E+03  0.61383168429E+03  0.00000000000E+00 0.  1.
         11    1    5    5    0    0 -0.14679116493E+03 -0.22813552578E+03 -0.12984287004E+03  0.30075344574E+03  0.00000000000E+00 0. -1.
        -11    1    5    5    0    0 -0.11376228378E+02 -0.12602808243E+03 -0.54495015709E+02  0.13777591542E+03  0.00000000000E+00 0.  1.
          1    1    6    6  503    0  0.32826148041E+03  0.22260497183E+03 -0.46203477380E+01  0.39664835890E+03  0.00000000000E+00 0. -1.
         -1    1    6    6    0  503  0.92547446357E+02  0.83540168341E+02 -0.48517663205E+02  0.13378323212E+03  0.00000000000E+00 0.  1.
<mgrwt>
<rscale>  0 0.16078092E+04</rscale>
<asrwt>0</asrwt>
<pdfrwt beam="1">  1        1 0.97336983E-01 0.16078092E+04</pdfrwt>
<pdfrwt beam="2">  1       -2 0.15714641E+00 0.16078092E+04</pdfrwt>
<totfact> 0.70323380E+00</totfact>
</mgrwt>
</event>
<event>
12    4  0.4413110E-008  0.2948515E+04  0.7818608E-02  0.8258587E-01
         -2   -1    0    0    0  501 -0.00000000000E+00  0.00000000000E+00  0.26942250892E+04  0.26942250892E+04  0.00000000000E+00 0.  1.
          1   -1    0    0  501    0  0.00000000000E+00 -0.00000000000E+00 -0.80670154476E+03  0.80670154476E+03  0.00000000000E+00 0. -1.
        -24    2    1    2    0    0  0.11440047275E+03 -0.35721382017E+03  0.23797199012E+04  0.24104517069E+04  0.80755445119E+02 0.  0.
        254    2    1    2    0    0 -0.11440047275E+03  0.35721382017E+03 -0.49219635669E+03  0.10904749271E+04  0.89788035480E+03 0.  0.
         23    2    4    4    0    0 -0.44634431523E+03  0.25893428458E+03 -0.51178142994E+03  0.73172777656E+03  0.85059364552E+02 0.  0.
         23    2    4    4    0    0  0.33194384248E+03  0.98279535599E+02  0.19585073245E+02  0.35874715051E+03  0.92034565376E+02 0.  0.
          3    1    3    3  502    0  0.45205193969E+01 -0.83305036838E+02  0.37835415418E+03  0.38744293805E+03  0.00000000000E+00 0. -1.
         -4    1    3    3    0  502  0.10987995335E+03 -0.27390878334E+03  0.20013657470E+04  0.20230087689E+04  0.00000000000E+00 0.  1.
         11    1    5    5    0    0 -0.36013977737E+03  0.20247278862E+03 -0.45292372604E+03  0.61305447636E+03  0.00000000000E+00 0.  1.
        -11    1    5    5    0    0 -0.86204537858E+02  0.56461495951E+02 -0.58857703900E+02  0.11867330020E+03  0.00000000000E+00 0. -1.
          4    1    6    6  503    0  0.92611186055E+02  0.37216061031E+02 -0.35036351704E+02  0.10578002137E+03  0.00000000000E+00 0. -1.
         -4    1    6    6    0  503  0.23933265643E+03  0.61063474569E+02  0.54621424948E+02  0.25296712913E+03  0.00000000000E+00 0.  1.
<mgrwt>
<rscale>  0 0.29485152E+04</rscale>
<asrwt>0</asrwt>
<pdfrwt beam="1">  1        1 0.12410793E+00 0.29485152E+04</pdfrwt>
<pdfrwt beam="2">  1       -2 0.41449616E+00 0.29485152E+04</pdfrwt>
<totfact> 0.97424399E-02</totfact>
</mgrwt>
</event>
<event>
12    4  0.4413110E-008  0.1341277E+04  0.7818608E-02  0.8997457E-01
          1   -1    0    0  501    0  0.00000000000E+00  0.00000000000E+00  0.15647534027E+04  0.15647534027E+04  0.00000000000E+00 0. -1.
         -2   -1    0    0    0  501 -0.00000000000E+00 -0.00000000000E+00 -0.28742950463E+03  0.28742950463E+03  0.00000000000E+00 0.  1.
        -24    2    1    2    0    0 -0.68025726416E+02 -0.33327746103E+03  0.53096535881E+03  0.63540399114E+03  0.78183465105E+02 0.  0.
        254    2    1    2    0    0  0.68025726416E+02  0.33327746103E+03  0.74635853921E+03  0.12167789161E+04  0.89877611018E+03 0.  0.
         23    2    4    4    0    0  0.20465991857E+03  0.54706900778E+03  0.22924218537E+03  0.63416730235E+03  0.91902156005E+02 0.  0.
         23    2    4    4    0    0 -0.13663419215E+03 -0.21379154675E+03  0.51711635385E+03  0.58261161379E+03  0.87471373485E+02 0.  0.
          1    1    3    3  502    0 -0.13589157509E+02 -0.19141943499E+03  0.34956498132E+03  0.39877530197E+03  0.00000000000E+00 0. -1.
         -2    1    3    3    0  502 -0.54436568907E+02 -0.14185802604E+03  0.18140037749E+03  0.23662868917E+03  0.00000000000E+00 0.  1.
         11    1    5    5    0    0  0.10711778415E+03  0.40428478862E+03  0.15617973837E+03  0.44644430858E+03  0.00000000000E+00 0. -1.
        -11    1    5    5    0    0  0.97542134412E+02  0.14278421916E+03  0.73062447001E+02  0.18772299377E+03  0.00000000000E+00 0.  1.
          4    1    6    6  503    0 -0.71182895360E+02 -0.42898896123E+02  0.12804512830E+03  0.15265279153E+03  0.00000000000E+00 0.  1.
         -4    1    6    6    0  503 -0.65451296789E+02 -0.17089265063E+03  0.38907122555E+03  0.42995882226E+03  0.00000000000E+00 0. -1.
<mgrwt>
<rscale>  0 0.13412774E+04</rscale>
<asrwt>0</asrwt>
<pdfrwt beam="1">  1        1 0.24073129E+00 0.13412774E+04</pdfrwt>
<pdfrwt beam="2">  1       -2 0.44219925E-01 0.13412774E+04</pdfrwt>
<totfact> 0.24597574E+01</totfact>
</mgrwt>
</event>
<event>
12    4  0.4413110E-008  0.2845484E+04  0.7818608E-02  0.8289285E-01
          1   -1    0    0  501    0  0.00000000000E+00  0.00000000000E+00  0.21863638052E+04  0.21863638052E+04  0.00000000000E+00 0. -1.
         -2   -1    0    0    0  501 -0.00000000000E+00 -0.00000000000E+00 -0.92582728072E+03  0.92582728072E+03  0.00000000000E+00 0.  1.
        -24    2    1    2    0    0  0.54596659011E+03  0.10327196833E+04 -0.15072392614E+01  0.11709457265E+04  0.80759896269E+02 0.  0.
        254    2    1    2    0    0 -0.54596659011E+03 -0.10327196833E+04  0.12620437637E+04  0.19412453594E+04  0.90060514220E+03 0.  0.
         23    2    4    4    0    0 -0.57371981812E+02 -0.78061632966E+02  0.72790642778E+03  0.74001605605E+03  0.91601488902E+02 0.  0.
         23    2    4    4    0    0 -0.48859460829E+03 -0.95465805031E+03  0.53413733592E+03  0.12012293033E+04  0.86904898149E+02 0.  0.
          3    1    3    3  502    0  0.35744167820E+03  0.60545010029E+03 -0.22658917464E+02  0.70345419453E+03  0.00000000000E+00 0. -1.
         -4    1    3    3    0  502  0.18852491190E+03  0.42726958298E+03  0.21151678203E+02  0.46749153194E+03  0.00000000000E+00 0.  1.
         11    1    5    5    0    0 -0.52553488256E+02 -0.28400939777E+00  0.22152189643E+03  0.22767059623E+03  0.00000000000E+00 0.  1.
        -11    1    5    5    0    0 -0.48184935554E+01 -0.77777623568E+02  0.50638453135E+03  0.51234545982E+03  0.00000000000E+00 0. -1.
          1    1    6    6  503    0 -0.18946490686E+03 -0.28826731169E+03  0.18912607940E+03  0.39340013705E+03  0.00000000000E+00 0. -1.
         -1    1    6    6    0  503 -0.29912970143E+03 -0.66639073862E+03  0.34501125651E+03  0.80782916629E+03  0.00000000000E+00 0.  1.
<mgrwt>
<rscale>  0 0.28454843E+04</rscale>
<asrwt>0</asrwt>
<pdfrwt beam="1">  1        1 0.33636366E+00 0.28454843E+04</pdfrwt>
<pdfrwt beam="2">  1       -2 0.14243497E+00 0.28454843E+04</pdfrwt>
<totfact> 0.57943263E-01</totfact>
</mgrwt>
</event>
<event>
12    4  0.4413110E-008  0.1101561E+04  0.7818608E-02  0.9203671E-01
         -2   -1    0    0    0  501 -0.00000000000E+00  0.00000000000E+00  0.44659035938E+03  0.44659035938E+03  0.00000000000E+00 0.  1.
          1   -1    0    0  501    0  0.00000000000E+00 -0.00000000000E+00 -0.67927872407E+03  0.67927872407E+03  0.00000000000E+00 0. -1.
        -24    2    1    2    0    0 -0.46253543860E+02 -0.12066065428E+03 -0.17796725110E+03  0.23415740635E+03  0.80367684282E+02 0.  0.
        254    2    1    2    0    0  0.46253543860E+02  0.12066065428E+03 -0.54721113593E+02  0.89171167710E+03  0.88060032420E+03 0.  0.
         23    2    4    4    0    0 -0.22789341240E+02  0.63848010361E+02 -0.45677730699E+03  0.47036800084E+03  0.89468572867E+02 0.  0.
         23    2    4    4    0    0  0.69042885100E+02  0.56812643920E+02  0.40205619340E+03  0.42134367625E+03  0.88807175238E+02 0.  0.
          1    1    3    3  502    0 -0.15548876799E+02  0.68621648706E+01 -0.41640450065E+02  0.44975370572E+02  0.00000000000E+00 0. -1.
         -2    1    3    3    0  502 -0.30704667061E+02 -0.12752281915E+03 -0.13632680103E+03  0.18918203578E+03  0.00000000000E+00 0.  1.
         11    1    5    5    0    0  0.40439658683E+00  0.45692578320E+02 -0.77641922069E+02  0.90090195430E+02  0.00000000000E+00 0. -1.
        -11    1    5    5    0    0 -0.23193737827E+02  0.18155432041E+02 -0.37913538493E+03  0.38027780541E+03  0.00000000000E+00 0.  1.
          4    1    6    6  503    0  0.54529101905E+02  0.50554038085E+02  0.39818820159E+03  0.40507157097E+03  0.00000000000E+00 0.  1.
         -4    1    6    6    0  503  0.14513783195E+02  0.62586058353E+01  0.38679918067E+01  0.16272105280E+02  0.00000000000E+00 0. -1.
<mgrwt>
<rscale>  0 0.11015613E+04</rscale>
<asrwt>0</asrwt>
<pdfrwt beam="1">  1        1 0.10450442E+00 0.11015613E+04</pdfrwt>
<pdfrwt beam="2">  1       -2 0.68706209E-01 0.11015613E+04</pdfrwt>
<totfact> 0.48185957E+01</totfact>
</mgrwt>
</event>
<event>
12    4  0.4413110E-008  0.2067685E+04  0.7818608E-02  0.8575613E-01
         -2   -1    0    0    0  501 -0.00000000000E+00  0.00000000000E+00  0.63489622975E+03  0.63489622975E+03  0.00000000000E+00 0.  1.
          1   -1    0    0  501    0  0.00000000000E+00 -0.00000000000E+00 -0.16834727616E+04  0.16834727616E+04  0.00000000000E+00 0. -1.
        -24    2    1    2    0    0  0.14467494125E+03  0.16178787083E+03  0.48114253300E+03  0.53383306595E+03  0.79833899240E+02 0.  0.
        254    2    1    2    0    0 -0.14467494125E+03 -0.16178787083E+03 -0.15297190648E+04  0.17845359254E+04  0.89298482512E+03 0.  0.
         23    2    4    4    0    0 -0.46533405513E+03 -0.28722110434E+03 -0.10456450671E+04  0.11834307784E+04  0.90016972619E+02 0.  0.
         23    2    4    4    0    0  0.32065911387E+03  0.12543323350E+03 -0.48407399778E+03  0.60110514699E+03  0.91891234816E+02 0.  0.
          3    1    3    3  502    0  0.25434686972E+02 -0.49502402396E+01  0.45186665034E+02  0.52088989976E+02  0.00000000000E+00 0. -1.
         -4    1    3    3    0  502  0.11924025428E+03  0.16673811107E+03  0.43595586797E+03  0.48174407598E+03  0.00000000000E+00 0.  1.
         11    1    5    5    0    0 -0.44044991862E+03 -0.24334416285E+03 -0.93428304035E+03  0.10611773235E+04  0.00000000000E+00 0.  1.
        -11    1    5    5    0    0 -0.24884136504E+02 -0.43876941491E+02 -0.11136202671E+03  0.12225345490E+03  0.00000000000E+00 0. -1.
          4    1    6    6  503    0  0.99315363250E+02 -0.50111922363E+01 -0.13342150180E+03  0.16640297644E+03  0.00000000000E+00 0. -1.
         -4    1    6    6    0  503  0.22134375062E+03  0.13044442574E+03 -0.35065249597E+03  0.43470217055E+03  0.00000000000E+00 0.  1.
<mgrwt>
<rscale>  0 0.20676852E+04</rscale>
<asrwt>0</asrwt>
<pdfrwt beam="1">  1        1 0.25899581E+00 0.20676852E+04</pdfrwt>
<pdfrwt beam="2">  1       -2 0.97676342E-01 0.20676852E+04</pdfrwt>
<totfact> 0.34584905E+00</totfact>
</mgrwt>
</event>
<event>
12    4  0.4413110E-008  0.2031128E+04  0.7818608E-02  0.8592204E-01
          1   -1    0    0  501    0  0.00000000000E+00  0.00000000000E+00  0.10294571570E+04  0.10294571570E+04  0.00000000000E+00 0. -1.
         -2   -1    0    0    0  501 -0.00000000000E+00 -0.00000000000E+00 -0.10018580039E+04  0.10018580039E+04  0.00000000000E+00 0.  1.
        -24    2    1    2    0    0  0.46151122181E+03  0.37902691719E+03 -0.53821221450E+03  0.80780873331E+03  0.78921162995E+02 0.  0.
        254    2    1    2    0    0 -0.46151122181E+03 -0.37902691719E+03  0.56581136765E+03  0.12235064276E+04  0.90563318333E+03 0.  0.
         23    2    4    4    0    0 -0.23887214972E+03  0.26451002445E+03  0.63959626604E+02  0.37340178940E+03  0.91173491474E+02 0.  0.
         23    2    4    4    0    0 -0.22263907209E+03 -0.64353694164E+03  0.50185174105E+03  0.85010463818E+03  0.84349120810E+02 0.  0.
          3    1    3    3  502    0  0.89157515369E+02  0.83957451239E+02 -0.71422468909E+02  0.14177124261E+03  0.00000000000E+00 0. -1.
         -2    1    3    3    0  502  0.37235370644E+03  0.29506946595E+03 -0.46678974559E+03  0.66603749071E+03  0.00000000000E+00 0.  1.
         11    1    5    5    0    0 -0.74004367190E+02  0.96019534710E+02 -0.20588451898E+02  0.12296455490E+03  0.00000000000E+00 0.  1.
        -11    1    5    5    0    0 -0.16486778253E+03  0.16849048974E+03  0.84548078502E+02  0.25043723450E+03  0.00000000000E+00 0. -1.
          1    1    6    6  503    0 -0.93003193807E+02 -0.34775106964E+03  0.22316978443E+03  0.42353884494E+03  0.00000000000E+00 0. -1.
         -1    1    6    6    0  503 -0.12963587829E+03 -0.29578587200E+03  0.27868195661E+03  0.42656579324E+03  0.00000000000E+00 0.  1.
<mgrwt>
<rscale>  0 0.20311277E+04</rscale>
<asrwt>0</asrwt>
<pdfrwt beam="1">  1        1 0.15837802E+00 0.20311277E+04</pdfrwt>
<pdfrwt beam="2">  1       -2 0.15413200E+00 0.20311277E+04</pdfrwt>
<totfact> 0.32442753E+00</totfact>
</mgrwt>
</event>
<event>
12    4  0.4413110E-008  0.2357651E+04  0.7818608E-02  0.8455531E-01
         -2   -1    0    0    0  501 -0.00000000000E+00  0.00000000000E+00  0.14948891939E+04  0.14948891939E+04  0.00000000000E+00 0.  1.
          1   -1    0    0  501    0  0.00000000000E+00 -0.00000000000E+00 -0.92958709450E+03  0.92958709450E+03  0.00000000000E+00 0. -1.
        -24    2    1    2    0    0  0.20580572477E+03 -0.57461599787E+03  0.10612744799E+04  0.12269278372E+04  0.80677474332E+02 0.  0.
        254    2    1    2    0    0 -0.20580572477E+03  0.57461599787E+03 -0.49597238046E+03  0.11975484512E+04  0.90310251318E+03 0.  0.
         23    2    4    4    0    0 -0.26298880320E+03  0.29391928947E+03 -0.71818284015E+03  0.82461179501E+03  0.92985812144E+02 0.  0.
         23    2    4    4    0    0  0.57183078432E+02  0.28069670840E+03  0.22221045968E+03  0.37293665614E+03  0.87428339408E+02 0.  0.
          1    1    3    3  502    0  0.78847943990E+00 -0.77982924364E+02  0.12037894924E+03  0.14343308409E+03  0.00000000000E+00 0. -1.
         -2    1    3    3    0  502  0.20501724533E+03 -0.49663307351E+03  0.94089553061E+03  0.10834947532E+04  0.00000000000E+00 0.  1.
         11    1    5    5    0    0 -0.26635745441E+03  0.29800508741E+03 -0.71156542301E+03  0.81613643275E+03  0.00000000000E+00 0. -1.
        -11    1    5    5    0    0  0.33686512096E+01 -0.40857979466E+01 -0.66174171372E+01  0.84753622578E+01  0.00000000000E+00 0.  1.
          4    1    6    6  503    0  0.72975401216E+01  0.13584063971E+03  0.15327457214E+03  0.20493664375E+03  0.00000000000E+00 0. -1.
         -4    1    6    6    0  503  0.49885538310E+02  0.14485606869E+03  0.68935887546E+02  0.16800001239E+03  0.00000000000E+00 0.  1.
<mgrwt>
<rscale>  0 0.23576511E+04</rscale>
<asrwt>0</asrwt>
<pdfrwt beam="1">  1        1 0.14301340E+00 0.23576511E+04</pdfrwt>
<pdfrwt beam="2">  1       -2 0.22998295E+00 0.23576511E+04</pdfrwt>
<totfact> 0.11607131E+00</totfact>
</mgrwt>
</event>
<event>
12    4  0.4413110E-008  0.1852706E+04  0.7818608E-02  0.8678762E-01
         -2   -1    0    0    0  501 -0.00000000000E+00  0.00000000000E+00  0.90573202316E+03  0.90573202316E+03  0.00000000000E+00 0.  1.
          1   -1    0    0  501    0  0.00000000000E+00 -0.00000000000E+00 -0.94744343451E+03  0.94744343451E+03  0.00000000000E+00 0. -1.
        -24    2    1    2    0    0  0.41292640323E+03 -0.51739619156E+03 -0.24845748858E+03  0.71151742611E+03  0.79491449239E+02 0.  0.
        254    2    1    2    0    0 -0.41292640323E+03  0.51739619156E+03  0.20674607723E+03  0.11416580316E+04  0.90688041496E+03 0.  0.
         23    2    4    4    0    0 -0.41562646943E+03  0.82153591044E+02  0.45750999612E+03  0.63000235411E+03  0.89961075042E+02 0.  0.
         23    2    4    4    0    0  0.27000661990E+01  0.43524260052E+03 -0.25076391888E+03  0.51165567745E+03  0.97291199955E+02 0.  0.
          3    1    3    3  502    0  0.31859836941E+03 -0.41886771598E+03 -0.22822886868E+03  0.57362313498E+03  0.00000000000E+00 0. -1.
         -4    1    3    3    0  502  0.94328033820E+02 -0.98528475580E+02 -0.20228619901E+02  0.13789429113E+03  0.00000000000E+00 0.  1.
         11    1    5    5    0    0 -0.31979912124E+03  0.10053069514E+03  0.34418914166E+03  0.48046234384E+03  0.00000000000E+00 0. -1.
        -11    1    5    5    0    0 -0.95827348187E+02 -0.18377104097E+02  0.11332085446E+03  0.14954001027E+03  0.00000000000E+00 0.  1.
          4    1    6    6  503    0  0.23755531749E+02  0.44104304390E+02 -0.52746293654E+02  0.72743978779E+02  0.00000000000E+00 0. -1.
         -4    1    6    6    0  503 -0.21055465550E+02  0.39113829613E+03 -0.19801762523E+03  0.43891169867E+03  0.00000000000E+00 0.  1.
<mgrwt>
<rscale>  0 0.18527060E+04</rscale>
<asrwt>0</asrwt>
<pdfrwt beam="1">  1        1 0.14576053E+00 0.18527060E+04</pdfrwt>
<pdfrwt beam="2">  1       -2 0.13934339E+00 0.18527060E+04</pdfrwt>
<totfact> 0.49844986E+00</totfact>
</mgrwt>
</event>
<event>
12    4  0.4413110E-008  0.2031637E+04  0.7818608E-02  0.8591971E-01
         -2   -1    0    0    0  501 -0.00000000000E+00  0.00000000000E+00  0.82474582964E+03  0.82474582964E+03  0.00000000000E+00 0.  1.
          1   -1    0    0  501    0  0.00000000000E+00 -0.00000000000E+00 -0.12511574834E+04  0.12511574834E+04  0.00000000000E+00 0. -1.
        -24    2    1    2    0    0 -0.25409399486E+03  0.74106218653E+03  0.60760114555E+02  0.78966989446E+03  0.78420840095E+02 0.  0.
        254    2    1    2    0    0  0.25409399486E+03 -0.74106218653E+03 -0.48717176828E+03  0.12862334186E+04  0.89628296462E+03 0.  0.
         23    2    4    4    0    0  0.11030366670E+03  0.19320129542E+03 -0.87675175694E+02  0.25589541125E+03  0.91114683936E+02 0.  0.
         23    2    4    4    0    0  0.14379032817E+03 -0.93426348195E+03 -0.39949659259E+03  0.10303380073E+04  0.92059598218E+02 0.  0.
          3    1    3    3  502    0 -0.24921728124E+03  0.73456235725E+03  0.51566126208E+02  0.77739962396E+03  0.00000000000E+00 0. -1.
         -4    1    3    3    0  502 -0.48767136239E+01  0.64998292815E+01  0.91939883465E+01  0.12270270501E+02  0.00000000000E+00 0.  1.
         11    1    5    5    0    0  0.62674765346E+02  0.28608570835E+02 -0.29471001285E+02  0.74934080718E+02  0.00000000000E+00 0.  1.
        -11    1    5    5    0    0  0.47628901350E+02  0.16459272458E+03 -0.58204174410E+02  0.18096133053E+03  0.00000000000E+00 0. -1.
          2    1    6    6  503    0  0.51362210635E+01 -0.30075289605E+03 -0.11217663159E+03  0.32103314770E+03  0.00000000000E+00 0. -1.
         -2    1    6    6    0  503  0.13865410710E+03 -0.63351058590E+03 -0.28731996100E+03  0.70930485960E+03  0.00000000000E+00 0.  1.
<mgrwt>
<rscale>  0 0.20316367E+04</rscale>
<asrwt>0</asrwt>
<pdfrwt beam="1">  1        1 0.19248577E+00 0.20316367E+04</pdfrwt>
<pdfrwt beam="2">  1       -2 0.12688397E+00 0.20316367E+04</pdfrwt>
<totfact> 0.36759359E+00</totfact>
</mgrwt>
</event>
<event>
12    4  0.4413110E-008  0.2438190E+04  0.7818608E-02  0.8425342E-01
          1   -1    0    0  501    0  0.00000000000E+00  0.00000000000E+00  0.16182941906E+04  0.16182941906E+04  0.00000000000E+00 0. -1.
         -2   -1    0    0    0  501 -0.00000000000E+00 -0.00000000000E+00 -0.91837014047E+03  0.91837014047E+03  0.00000000000E+00 0.  1.
        -24    2    1    2    0    0 -0.11170491999E+03 -0.14828986159E+03  0.13848230802E+04  0.13994774217E+04  0.79587801717E+02 0.  0.
        254    2    1    2    0    0  0.11170491999E+03  0.14828986159E+03 -0.68489903010E+03  0.11371869093E+04  0.88861662889E+03 0.  0.
         23    2    4    4    0    0  0.39797525862E+03 -0.52972865982E+02 -0.61276994375E+02  0.41635980184E+03  0.91707052852E+02 0.  0.
         23    2    4    4    0    0 -0.28627033863E+03  0.20126272757E+03 -0.62362203573E+03  0.72082710750E+03  0.90718703542E+02 0.  0.
          1    1    3    3  502    0 -0.79924068234E+02 -0.41916234653E+02  0.56247278010E+03  0.56966696917E+03  0.00000000000E+00 0. -1.
         -2    1    3    3    0  502 -0.31780851760E+02 -0.10637362694E+03  0.82235030014E+03  0.82981045256E+03  0.00000000000E+00 0.  1.
         11    1    5    5    0    0  0.10343930978E+03 -0.38583365025E+02  0.15901350594E+02  0.11154021614E+03  0.00000000000E+00 0. -1.
        -11    1    5    5    0    0  0.29453594884E+03 -0.14389500957E+02 -0.77178344969E+02  0.30481958570E+03  0.00000000000E+00 0.  1.
          3    1    6    6  503    0 -0.77534823313E+02  0.96288343061E+01 -0.13745249291E+03  0.15810613867E+03  0.00000000000E+00 0. -1.
         -3    1    6    6    0  503 -0.20873551531E+03  0.19163389327E+03 -0.48616954281E+03  0.56272096883E+03  0.00000000000E+00 0.  1.
<mgrwt>
<rscale>  0 0.24381904E+04</rscale>
<asrwt>0</asrwt>
<pdfrwt beam="1">  1        1 0.24896834E+00 0.24381904E+04</pdfrwt>
<pdfrwt beam="2">  1       -2 0.14128771E+00 0.24381904E+04</pdfrwt>
<totfact> 0.14913240E+00</totfact>
</mgrwt>
</event>
<event>
12    4  0.4413110E-008  0.1168774E+04  0.7818608E-02  0.9140636E-01
         -2   -1    0    0    0  501 -0.00000000000E+00  0.00000000000E+00  0.22317088145E+03  0.22317088145E+03  0.00000000000E+00 0.  1.
          1   -1    0    0  501    0  0.00000000000E+00 -0.00000000000E+00 -0.15302546185E+04  0.15302546185E+04  0.00000000000E+00 0. -1.
        -24    2    1    2    0    0 -0.85128431089E+02 -0.17689612067E+03 -0.42444101233E+03  0.47451481433E+03  0.80467687857E+02 0.  0.
        254    2    1    2    0    0  0.85128431089E+02  0.17689612067E+03 -0.88264272469E+03  0.12789106856E+04  0.90444196883E+03 0.  0.
         23    2    4    4    0    0 -0.14374427251E+03  0.32691043365E+01 -0.95387719596E+03  0.96906876471E+03  0.92409214039E+02 0.  0.
         23    2    4    4    0    0  0.22887270360E+03  0.17362701633E+03  0.71234471265E+02  0.30984192089E+03  0.91643934816E+02 0.  0.
          3    1    3    3  502    0 -0.49068186474E+02 -0.81087684386E+02 -0.29278176936E+03  0.30774025403E+03  0.00000000000E+00 0. -1.
         -4    1    3    3    0  502 -0.36060244615E+02 -0.95808436280E+02 -0.13165924297E+03  0.16677456030E+03  0.00000000000E+00 0.  1.
         11    1    5    5    0    0 -0.92379654874E+01  0.30076071564E+02 -0.12369778450E+03  0.12763640538E+03  0.00000000000E+00 0. -1.
        -11    1    5    5    0    0 -0.13450630702E+03 -0.26806967227E+02 -0.83017941145E+03  0.84143235933E+03  0.00000000000E+00 0.  1.
          3    1    6    6  503    0  0.61570111746E+02  0.10019675305E+03  0.14297992786E+02  0.11846814163E+03  0.00000000000E+00 0. -1.
         -3    1    6    6    0  503  0.16730259185E+03  0.73430263277E+02  0.56936478479E+02  0.19137377926E+03  0.00000000000E+00 0.  1.
<mgrwt>
<rscale>  0 0.11687742E+04</rscale>
<asrwt>0</asrwt>
<pdfrwt beam="1">  1        1 0.23542378E+00 0.11687742E+04</pdfrwt>
<pdfrwt beam="2">  1       -2 0.34333983E-01 0.11687742E+04</pdfrwt>
<totfact> 0.43117365E+01</totfact>
</mgrwt>
</event>
<event>
12    4  0.4413110E-008  0.2212576E+04  0.7818608E-02  0.8513212E-01
          1   -1    0    0  501    0  0.00000000000E+00  0.00000000000E+00  0.30793445629E+04  0.30793445629E+04  0.00000000000E+00 0. -1.
         -2   -1    0    0    0  501 -0.00000000000E+00 -0.00000000000E+00 -0.39744610956E+03  0.39744610956E+03  0.00000000000E+00 0.  1.
        -24    2    1    2    0    0  0.86518802467E+03  0.15280235472E+03  0.66413002545E+03  0.11042435441E+04  0.79913931509E+02 0.  0.
        254    2    1    2    0    0 -0.86518802467E+03 -0.15280235472E+03  0.20177684279E+04  0.23725471283E+04  0.88639244685E+03 0.  0.
         23    2    4    4    0    0 -0.30064456512E+03 -0.39033139593E+03  0.40300439798E+03  0.64317213506E+03  0.92261028248E+02 0.  0.
         23    2    4    4    0    0 -0.56454345955E+03  0.23752904122E+03  0.16147640299E+04  0.17293749932E+04  0.90253154361E+02 0.  0.
          1    1    3    3  502    0  0.63618505454E+03  0.12131145020E+03  0.44554723649E+03  0.78610446603E+03  0.00000000000E+00 0. -1.
         -2    1    3    3    0  502  0.22900297013E+03  0.31490904512E+02  0.21858278896E+03  0.31813907812E+03  0.00000000000E+00 0.  1.
         11    1    5    5    0    0 -0.40967663192E+02 -0.15549913732E+02  0.22244162093E+02  0.49142161040E+02  0.00000000000E+00 0. -1.
        -11    1    5    5    0    0 -0.25967690193E+03 -0.37478148220E+03  0.38076023589E+03  0.59402997402E+03  0.00000000000E+00 0.  1.
          3    1    6    6  503    0 -0.18601324539E+03  0.12416417706E+03  0.60988899027E+03  0.64960160928E+03  0.00000000000E+00 0. -1.
         -3    1    6    6    0  503 -0.37853021416E+03  0.11336486416E+03  0.10048750396E+04  0.10797733840E+04  0.00000000000E+00 0.  1.
<mgrwt>
<rscale>  0 0.22125763E+04</rscale>
<asrwt>0</asrwt>
<pdfrwt beam="1">  1        1 0.47374530E+00 0.22125763E+04</pdfrwt>
<pdfrwt beam="2">  1       -2 0.61145557E-01 0.22125763E+04</pdfrwt>
<totfact> 0.10420881E+00</totfact>
</mgrwt>
</event>
<event>
12    4  0.4413110E-008  0.1553419E+04  0.7818608E-02  0.8849687E-01
         -2   -1    0    0    0  501 -0.00000000000E+00  0.00000000000E+00  0.70041360233E+03  0.70041360233E+03  0.00000000000E+00 0.  1.
          1   -1    0    0  501    0  0.00000000000E+00 -0.00000000000E+00 -0.86131629709E+03  0.86131629709E+03  0.00000000000E+00 0. -1.
        -24    2    1    2    0    0  0.43238293412E+03  0.19750951264E+03 -0.21656093281E+03  0.52903428837E+03  0.83747425933E+02 0.  0.
        254    2    1    2    0    0 -0.43238293412E+03 -0.19750951264E+03  0.55658238055E+02  0.10326956111E+04  0.91509418987E+03 0.  0.
         23    2    4    4    0    0 -0.34086241106E+03  0.33255349621E+03  0.21234541598E+02  0.48600922923E+03  0.94736761738E+02 0.  0.
         23    2    4    4    0    0 -0.91520523056E+02 -0.53006300885E+03  0.34423696457E+02  0.54668638182E+03  0.91313798003E+02 0.  0.
          1    1    3    3  502    0  0.43014257558E+03  0.20356404999E+03 -0.21118939270E+03  0.52063606998E+03  0.00000000000E+00 0. -1.
         -2    1    3    3    0  502  0.22403585345E+01 -0.60545373510E+01 -0.53715401106E+01  0.83982183860E+01  0.00000000000E+00 0.  1.
         11    1    5    5    0    0 -0.26190818416E+02  0.46737167005E+01  0.16941155211E+02  0.31540534824E+02  0.00000000000E+00 0.  1.
        -11    1    5    5    0    0 -0.31467159264E+03  0.32787977951E+03  0.42933863866E+01  0.45446869441E+03  0.00000000000E+00 0. -1.
          1    1    6    6  503    0 -0.65849640659E+02 -0.42715025284E+03 -0.84602315364E+01  0.43227894836E+03  0.00000000000E+00 0. -1.
         -1    1    6    6    0  503 -0.25670882397E+02 -0.10291275600E+03  0.42883927994E+02  0.11440743346E+03  0.00000000000E+00 0.  1.
<mgrwt>
<rscale>  0 0.15534190E+04</rscale>
<asrwt>0</asrwt>
<pdfrwt beam="1">  1        1 0.13251020E+00 0.15534190E+04</pdfrwt>
<pdfrwt beam="2">  1       -2 0.10775594E+00 0.15534190E+04</pdfrwt>
<totfact> 0.11419675E+01</totfact>
</mgrwt>
</event>
<event>
12    4  0.4413110E-008  0.1626525E+04  0.7818608E-02  0.8804416E-01
          1   -1    0    0  501    0  0.00000000000E+00  0.00000000000E+00  0.19614206658E+04  0.19614206658E+04  0.00000000000E+00 0. -1.
         -2   -1    0    0    0  501 -0.00000000000E+00 -0.00000000000E+00 -0.33720251588E+03  0.33720251588E+03  0.00000000000E+00 0.  1.
        -24    2    1    2    0    0  0.46705417893E+03  0.16957321457E+03  0.94220549384E+03  0.10681819687E+04  0.79792508910E+02 0.  0.
        254    2    1    2    0    0 -0.46705417893E+03 -0.16957321457E+03  0.68201265610E+03  0.12304412130E+04  0.89551640655E+03 0.  0.
         23    2    4    4    0    0 -0.16806556249E+03  0.35877024921E+03  0.23113523688E+03  0.46836288085E+03  0.94753181539E+02 0.  0.
         23    2    4    4    0    0 -0.29898861644E+03 -0.52834346379E+03  0.45087741923E+03  0.76207833215E+03  0.94508881483E+02 0.  0.
          1    1    3    3  502    0  0.30155285742E+03  0.14831043515E+03  0.64782601724E+03  0.72980042450E+03  0.00000000000E+00 0. -1.
         -2    1    3    3    0  502  0.16550132151E+03  0.21262779428E+02  0.29437947659E+03  0.33838154419E+03  0.00000000000E+00 0.  1.
         11    1    5    5    0    0 -0.15501069557E+03  0.25205414580E+03  0.13968462082E+03  0.32721766678E+03  0.00000000000E+00 0. -1.
        -11    1    5    5    0    0 -0.13054866922E+02  0.10671610342E+03  0.91450616054E+02  0.14114521407E+03  0.00000000000E+00 0.  1.
          3    1    6    6  503    0 -0.10601435271E+03 -0.28301932820E+03  0.22605858421E+03  0.37741418443E+03  0.00000000000E+00 0. -1.
         -3    1    6    6    0  503 -0.19297426372E+03 -0.24532413559E+03  0.22481883501E+03  0.38466414772E+03  0.00000000000E+00 0.  1.
<mgrwt>
<rscale>  0 0.16265251E+04</rscale>
<asrwt>0</asrwt>
<pdfrwt beam="1">  1        1 0.30175702E+00 0.16265251E+04</pdfrwt>
<pdfrwt beam="2">  1       -2 0.51877311E-01 0.16265251E+04</pdfrwt>
<totfact> 0.93383000E+00</totfact>
</mgrwt>
</event>
<event>
12    4  0.4413110E-008  0.2040876E+04  0.7818608E-02  0.8587745E-01
         -2   -1    0    0    0  501 -0.00000000000E+00  0.00000000000E+00  0.77749883765E+03  0.77749883765E+03  0.00000000000E+00 0.  1.
          1   -1    0    0  501    0  0.00000000000E+00 -0.00000000000E+00 -0.13392869732E+04  0.13392869732E+04  0.00000000000E+00 0. -1.
        -24    2    1    2    0    0 -0.54342568520E+03  0.34873411106E+03 -0.73359352992E+03  0.98062819208E+03  0.80902586032E+02 0.  0.
        254    2    1    2    0    0  0.54342568520E+03 -0.34873411106E+03  0.17180539438E+03  0.11361576187E+04  0.91891788836E+03 0.  0.
         23    2    4    4    0    0  0.34452531384E+02  0.28344282829E+03  0.98838144613E+02  0.31575192612E+03  0.91670530644E+02 0.  0.
         23    2    4    4    0    0  0.50897315381E+03 -0.63217693935E+03  0.72967249765E+02  0.82040569263E+03  0.95078530731E+02 0.  0.
          1    1    3    3  502    0 -0.29280040390E+03  0.20943859818E+03 -0.35377740646E+03  0.50473265820E+03  0.00000000000E+00 0. -1.
         -2    1    3    3    0  502 -0.25062528130E+03  0.13929551288E+03 -0.37981612346E+03  0.47589553389E+03  0.00000000000E+00 0.  1.
         11    1    5    5    0    0  0.19383805559E+01  0.23363227038E+03  0.10460789365E+03  0.25598946560E+03  0.00000000000E+00 0. -1.
        -11    1    5    5    0    0  0.32514150828E+02  0.49810557911E+02 -0.57697490421E+01  0.59762460521E+02  0.00000000000E+00 0.  1.
          3    1    6    6  503    0  0.38866211530E+03 -0.54005441508E+03  0.67380378380E+02  0.66877285120E+03  0.00000000000E+00 0. -1.
         -3    1    6    6    0  503  0.12031103851E+03 -0.92122524272E+02  0.55868713852E+01  0.15163284142E+03  0.00000000000E+00 0.  1.
<mgrwt>
<rscale>  0 0.20408763E+04</rscale>
<asrwt>0</asrwt>
<pdfrwt beam="1">  1        1 0.20604415E+00 0.20408763E+04</pdfrwt>
<pdfrwt beam="2">  1       -2 0.11961521E+00 0.20408763E+04</pdfrwt>
<totfact> 0.36822033E+00</totfact>
</mgrwt>
</event>
<event>
12    4  0.4413110E-008  0.1579607E+04  0.7818608E-02  0.8833175E-01
          1   -1    0    0  501    0  0.00000000000E+00  0.00000000000E+00  0.18199280452E+04  0.18199280452E+04  0.00000000000E+00 0. -1.
         -2   -1    0    0    0  501 -0.00000000000E+00 -0.00000000000E+00 -0.34275521439E+03  0.34275521439E+03  0.00000000000E+00 0.  1.
        -24    2    1    2    0    0  0.25712512217E+03  0.40559929812E+03  0.79309693019E+03  0.93022893846E+03  0.75491841764E+02 0.  0.
        254    2    1    2    0    0 -0.25712512217E+03 -0.40559929812E+03  0.68407590061E+03  0.12324543211E+04  0.90573710137E+03 0.  0.
         23    2    4    4    0    0 -0.54272660695E+03 -0.46004727234E+03  0.52360126414E+03  0.88825473806E+03  0.92965225729E+02 0.  0.
         23    2    4    4    0    0  0.28560148478E+03  0.54447974223E+02  0.16047463647E+03  0.34419958307E+03  0.90490076990E+02 0.  0.
          1    1    3    3  502    0  0.11642780374E+03  0.15819943863E+03  0.39143128843E+03  0.43795085276E+03  0.00000000000E+00 0. -1.
         -2    1    3    3    0  502  0.14069731843E+03  0.24739985949E+03  0.40166564176E+03  0.49227808570E+03  0.00000000000E+00 0.  1.
         11    1    5    5    0    0 -0.46921223828E+03 -0.40598470830E+03  0.49138595870E+03  0.79148207076E+03  0.00000000000E+00 0.  1.
        -11    1    5    5    0    0 -0.73514368669E+02 -0.54062564039E+02  0.32215305437E+02  0.96772667297E+02  0.00000000000E+00 0. -1.
          2    1    6    6  503    0  0.24981542812E+02  0.30351044644E+02  0.39963597667E+02  0.56056690330E+02  0.00000000000E+00 0. -1.
         -2    1    6    6    0  503  0.26061994197E+03  0.24096929579E+02  0.12051103880E+03  0.28814289274E+03  0.00000000000E+00 0.  1.
<mgrwt>
<rscale>  0 0.15796073E+04</rscale>
<asrwt>0</asrwt>
<pdfrwt beam="1">  1        1 0.27998892E+00 0.15796073E+04</pdfrwt>
<pdfrwt beam="2">  1       -2 0.52731573E-01 0.15796073E+04</pdfrwt>
<totfact> 0.11304866E+01</totfact>
</mgrwt>
</event>
<event>
12    4  0.4413110E-008  0.2058595E+04  0.7818608E-02  0.8579705E-01
         -2   -1    0    0    0  501 -0.00000000000E+00  0.00000000000E+00  0.62385291563E+03  0.62385291563E+03  0.00000000000E+00 0.  1.
          1   -1    0    0  501    0  0.00000000000E+00 -0.00000000000E+00 -0.16982427929E+04  0.16982427929E+04  0.00000000000E+00 0. -1.
        -24    2    1    2    0    0 -0.15590716361E+03 -0.46432785159E+03 -0.12005554937E+04  0.12995163175E+04  0.86612750415E+02 0.  0.
        254    2    1    2    0    0  0.15590716361E+03  0.46432785159E+03  0.12616561647E+03  0.10225793910E+04  0.88873137152E+03 0.  0.
         23    2    4    4    0    0  0.36297933984E+03 -0.48655744327E+02 -0.13830422334E+03  0.40249138414E+03  0.93540758537E+02 0.  0.
         23    2    4    4    0    0 -0.20707217623E+03  0.51298359592E+03  0.26446983981E+03  0.62008800687E+03  0.92378483678E+02 0.  0.
          3    1    3    3  502    0 -0.86570116115E+02 -0.29461791352E+03 -0.85273308684E+03  0.90633758466E+03  0.00000000000E+00 0. -1.
         -4    1    3    3    0  502 -0.69337047493E+02 -0.16970993807E+03 -0.34782240685E+03  0.39317873282E+03  0.00000000000E+00 0.  1.
         11    1    5    5    0    0  0.10287711194E+03  0.11700117485E+02 -0.75632397301E+02  0.12822188749E+03  0.00000000000E+00 0.  1.
        -11    1    5    5    0    0  0.26010222790E+03 -0.60355861813E+02 -0.62671826039E+02  0.27426949665E+03  0.00000000000E+00 0. -1.
          4    1    6    6  503    0 -0.14054283823E+03  0.28753146167E+03  0.10827199581E+03  0.33786011293E+03  0.00000000000E+00 0. -1.
         -4    1    6    6    0  503 -0.66529337999E+02  0.22545213424E+03  0.15619784400E+03  0.28222789394E+03  0.00000000000E+00 0.  1.
<mgrwt>
<rscale>  0 0.20585954E+04</rscale>
<asrwt>0</asrwt>
<pdfrwt beam="1">  1        1 0.26126812E+00 0.20585954E+04</pdfrwt>
<pdfrwt beam="2">  1       -2 0.95977372E-01 0.20585954E+04</pdfrwt>
<totfact> 0.35240828E+00</totfact>
</mgrwt>
</event>
<event>
12    4  0.4413110E-008  0.1858971E+04  0.7818608E-02  0.8675553E-01
          1   -1    0    0  501    0  0.00000000000E+00  0.00000000000E+00  0.21797593901E+04  0.21797593901E+04  0.00000000000E+00 0. -1.
         -2   -1    0    0    0  501 -0.00000000000E+00 -0.00000000000E+00 -0.39634808357E+03  0.39634808357E+03  0.00000000000E+00 0.  1.
        -24    2    1    2    0    0 -0.62145340055E+03  0.35649440888E+01  0.11513854602E+04  0.13108329913E+04  0.79859971810E+02 0.  0.
        254    2    1    2    0    0  0.62145340055E+03 -0.35649440888E+01  0.63202584633E+03  0.12652744824E+04  0.90290963424E+03 0.  0.
         23    2    4    4    0    0  0.14425556073E+03 -0.35145285246E+03 -0.60320051145E+01  0.39113097637E+03  0.92834698709E+02 0.  0.
         23    2    4    4    0    0  0.47719783982E+03  0.34788790837E+03  0.63805785144E+03  0.87414350607E+03  0.90913542993E+02 0.  0.
          1    1    3    3  502    0 -0.56039476831E+03  0.31776379781E+01  0.98028534421E+03  0.11291641819E+04  0.00000000000E+00 0. -1.
         -2    1    3    3    0  502 -0.61058632240E+02  0.38730611068E+00  0.17110011604E+03  0.18166880934E+03  0.00000000000E+00 0.  1.
         11    1    5    5    0    0  0.60311082731E+02 -0.92157826782E+02  0.34886842136E+02  0.11553174236E+03  0.00000000000E+00 0. -1.
        -11    1    5    5    0    0  0.83944478001E+02 -0.25929502568E+03 -0.40918847251E+02  0.27559923401E+03  0.00000000000E+00 0.  1.
          4    1    6    6  503    0  0.45953454431E+03  0.31711940337E+03  0.57300191440E+03  0.80004244094E+03  0.00000000000E+00 0.  1.
         -4    1    6    6    0  503  0.17663295510E+02  0.30768505002E+02  0.65055937044E+02  0.74101065128E+02  0.00000000000E+00 0. -1.
<mgrwt>
<rscale>  0 0.18589712E+04</rscale>
<asrwt>0</asrwt>
<pdfrwt beam="1">  1        1 0.33534759E+00 0.18589712E+04</pdfrwt>
<pdfrwt beam="2">  1       -2 0.60976629E-01 0.18589712E+04</pdfrwt>
<totfact> 0.46420362E+00</totfact>
</mgrwt>
</event>
<event>
12    4  0.4413110E-008  0.1743101E+04  0.7818608E-02  0.8737157E-01
         -2   -1    0    0    0  501 -0.00000000000E+00  0.00000000000E+00  0.52861484009E+03  0.52861484009E+03  0.00000000000E+00 0.  1.
          1   -1    0    0  501    0  0.00000000000E+00 -0.00000000000E+00 -0.14369628401E+04  0.14369628401E+04  0.00000000000E+00 0. -1.
        -24    2    1    2    0    0 -0.39255261258E+03  0.87503340963E+02 -0.78500445277E+03  0.88551961107E+03  0.78476763402E+02 0.  0.
        254    2    1    2    0    0  0.39255261258E+03 -0.87503340963E+02 -0.12334354725E+03  0.10800580691E+04  0.99476500428E+03 0.  0.
         23    2    4    4    0    0  0.34420541989E+02 -0.48199375961E+02 -0.52327995049E+03  0.53426338003E+03  0.90041652011E+02 0.  0.
         23    2    4    4    0    0  0.35813207059E+03 -0.39303965002E+02  0.39993640325E+03  0.54579468911E+03  0.90218259605E+02 0.  0.
          3    1    3    3  502    0 -0.32421926338E+03  0.42784350904E+02 -0.65259567309E+03  0.72995187784E+03  0.00000000000E+00 0. -1.
         -4    1    3    3    0  502 -0.68333349202E+02  0.44718990059E+02 -0.13240877968E+03  0.15556773323E+03  0.00000000000E+00 0.  1.
         11    1    5    5    0    0  0.51653936270E+02 -0.34943940274E+02 -0.18387691387E+03  0.19416469182E+03  0.00000000000E+00 0. -1.
        -11    1    5    5    0    0 -0.17233394281E+02 -0.13255435687E+02 -0.33940303663E+03  0.34009868821E+03  0.00000000000E+00 0.  1.
          4    1    6    6  503    0  0.16368124976E+03 -0.17638524845E+02  0.24982032476E+03  0.29918700464E+03  0.00000000000E+00 0. -1.
         -4    1    6    6    0  503  0.19445082083E+03 -0.21665440157E+02  0.15011607849E+03  0.24660768447E+03  0.00000000000E+00 0.  1.
<mgrwt>
<rscale>  0 0.17431006E+04</rscale>
<asrwt>0</asrwt>
<pdfrwt beam="1">  1        1 0.22107120E+00 0.17431006E+04</pdfrwt>
<pdfrwt beam="2">  1       -2 0.81325361E-01 0.17431006E+04</pdfrwt>
<totfact> 0.80209368E+00</totfact>
</mgrwt>
</event>
<event>
12    4  0.4413110E-008  0.2479744E+04  0.7818608E-02  0.8410237E-01
         -2   -1    0    0    0  501 -0.00000000000E+00  0.00000000000E+00  0.16041041004E+04  0.16041041004E+04  0.00000000000E+00 0.  1.
          1   -1    0    0  501    0  0.00000000000E+00 -0.00000000000E+00 -0.95834373265E+03  0.95834373265E+03  0.00000000000E+00 0. -1.
        -24    2    1    2    0    0  0.87388314985E+03 -0.59576011699E+03  0.38717712064E+03  0.11291434403E+04  0.80354897132E+02 0.  0.
        254    2    1    2    0    0 -0.87388314985E+03  0.59576011699E+03  0.25858324712E+03  0.14333043927E+04  0.93214500481E+03 0.  0.
         23    2    4    4    0    0 -0.19221063630E+03  0.64262074556E+03  0.30566632756E+03  0.74224518385E+03  0.87118642188E+02 0.  0.
         23    2    4    4    0    0 -0.68167251354E+03 -0.46860628575E+02 -0.47083080444E+02  0.69105920889E+03  0.92047159060E+02 0.  0.
          1    1    3    3  502    0  0.38608083047E+03 -0.26151800442E+03  0.12839132145E+03  0.48366766040E+03  0.00000000000E+00 0. -1.
         -2    1    3    3    0  502  0.48780231938E+03 -0.33424211256E+03  0.25878579919E+03  0.64547577992E+03  0.00000000000E+00 0.  1.
         11    1    5    5    0    0 -0.19592310879E+03  0.62552324554E+03  0.30860976365E+03  0.72450340337E+03  0.00000000000E+00 0. -1.
        -11    1    5    5    0    0  0.37124724889E+01  0.17097500018E+02 -0.29434360852E+01  0.17741780487E+02  0.00000000000E+00 0.  1.
          1    1    6    6  503    0 -0.38930977718E+03 -0.72048560883E+02 -0.32471529006E+02  0.39724991873E+03  0.00000000000E+00 0. -1.
         -1    1    6    6    0  503 -0.29236273636E+03  0.25187932308E+02 -0.14611551438E+02  0.29380929016E+03  0.00000000000E+00 0.  1.
<mgrwt>
<rscale>  0 0.24797444E+04</rscale>
<asrwt>0</asrwt>
<pdfrwt beam="1">  1        1 0.14743750E+00 0.24797444E+04</pdfrwt>
<pdfrwt beam="2">  1       -2 0.24678525E+00 0.24797444E+04</pdfrwt>
<totfact> 0.85676571E-01</totfact>
</mgrwt>
</event>
<event>
12    4  0.4413110E-008  0.2386382E+04  0.7818608E-02  0.8444620E-01
          1   -1    0    0  501    0  0.00000000000E+00  0.00000000000E+00  0.22101228757E+04  0.22101228757E+04  0.00000000000E+00 0. -1.
         -2   -1    0    0    0  501 -0.00000000000E+00 -0.00000000000E+00 -0.64417455285E+03  0.64417455285E+03  0.00000000000E+00 0.  1.
        -24    2    1    2    0    0 -0.28107602616E+03  0.48059258766E+03  0.16937319770E+04  0.17847214350E+04  0.80806082686E+02 0.  0.
        254    2    1    2    0    0  0.28107602616E+03 -0.48059258766E+03 -0.12778365413E+03  0.10695759935E+04  0.90426278032E+03 0.  0.
         23    2    4    4    0    0  0.54135274236E+03 -0.37151902420E+03 -0.29775058184E+03  0.72650031311E+03  0.89767026031E+02 0.  0.
         23    2    4    4    0    0 -0.26027671620E+03 -0.10907356346E+03  0.16996692771E+03  0.34307568042E+03  0.95766146112E+02 0.  0.
          3    1    3    3  502    0 -0.77305927347E+02  0.20304494477E+03  0.70786201647E+03  0.74045397586E+03  0.00000000000E+00 0. -1.
         -4    1    3    3    0  502 -0.20377009882E+03  0.27754764289E+03  0.98586996048E+03  0.10442674591E+04  0.00000000000E+00 0.  1.
         11    1    5    5    0    0  0.45214754604E+02 -0.72143973761E+01 -0.92201767695E+01  0.46705815731E+02  0.00000000000E+00 0.  1.
        -11    1    5    5    0    0  0.49613798776E+03 -0.36430462682E+03 -0.28853040507E+03  0.67979449738E+03  0.00000000000E+00 0. -1.
          3    1    6    6  503    0 -0.22655197614E+03 -0.79099277758E+02  0.17595343276E+03  0.29756025295E+03  0.00000000000E+00 0. -1.
         -3    1    6    6    0  503 -0.33724740054E+02 -0.29974285705E+02 -0.59865050495E+01  0.45515427472E+02  0.00000000000E+00 0.  1.
<mgrwt>
<rscale>  0 0.23863821E+04</rscale>
<asrwt>0</asrwt>
<pdfrwt beam="1">  1        1 0.34001890E+00 0.23863821E+04</pdfrwt>
<pdfrwt beam="2">  1       -2 0.99103778E-01 0.23863821E+04</pdfrwt>
<totfact> 0.14263148E+00</totfact>
</mgrwt>
</event>
<event>
12    4  0.4413110E-008  0.2050234E+04  0.7818608E-02  0.8583488E-01
          1   -1    0    0  501    0  0.00000000000E+00  0.00000000000E+00  0.20401688136E+04  0.20401688136E+04  0.00000000000E+00 0. -1.
         -2   -1    0    0    0  501 -0.00000000000E+00 -0.00000000000E+00 -0.51508703197E+03  0.51508703197E+03  0.00000000000E+00 0.  1.
        -24    2    1    2    0    0  0.10122880579E+02 -0.18479835777E+03  0.16153820412E+04  0.16280224419E+04  0.82128109817E+02 0.  0.
        254    2    1    2    0    0 -0.10122880579E+02  0.18479835777E+03 -0.90300259632E+02  0.92723340364E+03  0.90407673468E+03 0.  0.
         23    2    4    4    0    0 -0.10497208744E+03 -0.30258372978E+03 -0.23051305533E+03  0.40370063922E+03  0.85216692940E+02 0.  0.
         23    2    4    4    0    0  0.94849206866E+02  0.48738208755E+03  0.14021279570E+03  0.52353276442E+03  0.88821484107E+02 0.  0.
          3    1    3    3  502    0 -0.16699943017E+02 -0.16430055238E+03  0.12066923921E+04  0.12179409217E+04  0.00000000000E+00 0. -1.
         -4    1    3    3    0  502  0.26822823596E+02 -0.20497805383E+02  0.40868964910E+03  0.41008152016E+03  0.00000000000E+00 0.  1.
         11    1    5    5    0    0 -0.99093673109E+01 -0.91556937738E+01  0.62455370277E+01  0.14867044822E+02  0.00000000000E+00 0. -1.
        -11    1    5    5    0    0 -0.95062720134E+02 -0.29342803601E+03 -0.23675859236E+03  0.38883359440E+03  0.00000000000E+00 0.  1.
          1    1    6    6  503    0  0.31098280054E+02  0.59018551597E+02 -0.46329488982E+01  0.66871194623E+02  0.00000000000E+00 0. -1.
         -1    1    6    6    0  503  0.63750926812E+02  0.42836353595E+03  0.14484574460E+03  0.45666156980E+03  0.00000000000E+00 0.  1.
<mgrwt>
<rscale>  0 0.20502336E+04</rscale>
<asrwt>0</asrwt>
<pdfrwt beam="1">  1        1 0.31387212E+00 0.20502336E+04</pdfrwt>
<pdfrwt beam="2">  1       -2 0.79244160E-01 0.20502336E+04</pdfrwt>
<totfact> 0.32059062E+00</totfact>
</mgrwt>
</event>
<event>
12    4  0.4413110E-008  0.1389940E+04  0.7818608E-02  0.8961133E-01
          1   -1    0    0  501    0  0.00000000000E+00  0.00000000000E+00  0.56284955137E+03  0.56284955137E+03  0.00000000000E+00 0. -1.
         -2   -1    0    0    0  501 -0.00000000000E+00 -0.00000000000E+00 -0.85810375527E+03  0.85810375527E+03  0.00000000000E+00 0.  1.
        -24    2    1    2    0    0 -0.19505695339E+03 -0.33016486712E+03 -0.51928544379E+02  0.39536861473E+03  0.81016746684E+02 0.  0.
        254    2    1    2    0    0  0.19505695339E+03  0.33016486712E+03 -0.24332565952E+03  0.10255846919E+04  0.91954365266E+03 0.  0.
         23    2    4    4    0    0  0.40227571969E+03  0.41271037457E+03 -0.42647517649E+03  0.72276570006E+03  0.91397883440E+02 0.  0.
         23    2    4    4    0    0 -0.20721876630E+03 -0.82545507444E+02  0.18314951697E+03  0.30281899185E+03  0.91663615200E+02 0.  0.
          1    1    3    3  502    0 -0.46453643563E+02 -0.25790887898E+02 -0.40282499863E+01  0.53285436067E+02  0.00000000000E+00 0. -1.
         -2    1    3    3    0  502 -0.14860330982E+03 -0.30437397922E+03 -0.47900294392E+02  0.34208317866E+03  0.00000000000E+00 0.  1.
         11    1    5    5    0    0  0.81852838368E+02  0.11254954889E+03 -0.62912703328E+02  0.15272621368E+03  0.00000000000E+00 0.  1.
        -11    1    5    5    0    0  0.32042288132E+03  0.30016082567E+03 -0.36356247316E+03  0.57003948638E+03  0.00000000000E+00 0. -1.
          3    1    6    6  503    0 -0.81692507443E+02 -0.19209853072E+02  0.12524746207E+03  0.15076342720E+03  0.00000000000E+00 0. -1.
         -3    1    6    6    0  503 -0.12552625886E+03 -0.63335654373E+02  0.57902054898E+02  0.15205556465E+03  0.00000000000E+00 0.  1.
<mgrwt>
<rscale>  0 0.13899400E+04</rscale>
<asrwt>0</asrwt>
<pdfrwt beam="1">  1        1 0.86592238E-01 0.13899400E+04</pdfrwt>
<pdfrwt beam="2">  1       -2 0.13201596E+00 0.13899400E+04</pdfrwt>
<totfact> 0.13378953E+01</totfact>
</mgrwt>
</event>
<event>
12    4  0.4413110E-008  0.2945282E+04  0.7818608E-02  0.8259531E-01
          1   -1    0    0  501    0  0.00000000000E+00  0.00000000000E+00  0.12869303197E+04  0.12869303197E+04  0.00000000000E+00 0. -1.
         -2   -1    0    0    0  501 -0.00000000000E+00 -0.00000000000E+00 -0.16851512527E+04  0.16851512527E+04  0.00000000000E+00 0.  1.
        -24    2    1    2    0    0  0.21247284607E+02  0.46983155279E+03 -0.14343423770E+04  0.15115902740E+04  0.79837127636E+02 0.  0.
        254    2    1    2    0    0 -0.21247284607E+02 -0.46983155279E+03  0.10361214440E+04  0.14604912985E+04  0.91558399460E+03 0.  0.
         23    2    4    4    0    0  0.12042021554E+02  0.25400385572E+03  0.13844131132E+03  0.30326857413E+03  0.90237810079E+02 0.  0.
         23    2    4    4    0    0 -0.33289306160E+02 -0.72383540852E+03  0.89768013264E+03  0.11572227243E+04  0.91043597596E+02 0.  0.
          3    1    3    3  502    0  0.15699591135E+02  0.23357913840E+02 -0.55068406587E+02  0.61843340019E+02  0.00000000000E+00 0. -1.
         -4    1    3    3    0  502  0.55476934717E+01  0.44647363895E+03 -0.13792739704E+04  0.14497469340E+04  0.00000000000E+00 0.  1.
         11    1    5    5    0    0  0.11292331289E+02  0.20291270605E+03  0.64167834034E+02  0.21311638592E+03  0.00000000000E+00 0. -1.
        -11    1    5    5    0    0  0.74969026478E+00  0.51091149673E+02  0.74273477289E+02  0.90152188209E+02  0.00000000000E+00 0.  1.
          3    1    6    6  503    0 -0.17801744822E+02 -0.49837166861E+03  0.68157194343E+03  0.84453036433E+03  0.00000000000E+00 0. -1.
         -3    1    6    6    0  503 -0.15487561339E+02 -0.22546373990E+03  0.21610818920E+03  0.31269236001E+03  0.00000000000E+00 0.  1.
<mgrwt>
<rscale>  0 0.29452825E+04</rscale>
<asrwt>0</asrwt>
<pdfrwt beam="1">  1        1 0.19798928E+00 0.29452825E+04</pdfrwt>
<pdfrwt beam="2">  1       -2 0.25925404E+00 0.29452825E+04</pdfrwt>
<totfact> 0.39116922E-01</totfact>
</mgrwt>
</event>
<event>
12    4  0.4413110E-008  0.2099949E+04  0.7818608E-02  0.8561266E-01
          1   -1    0    0  501    0  0.00000000000E+00  0.00000000000E+00  0.15902967698E+04  0.15902967698E+04  0.00000000000E+00 0. -1.
         -2   -1    0    0    0  501 -0.00000000000E+00 -0.00000000000E+00 -0.69323287462E+03  0.69323287462E+03  0.00000000000E+00 0.  1.
        -24    2    1    2    0    0 -0.60436819411E+03 -0.58517444268E+03  0.19883002467E+03  0.87011706927E+03  0.99399663501E+02 0.  0.
        254    2    1    2    0    0  0.60436819411E+03  0.58517444268E+03  0.69823387055E+03  0.14134125752E+04  0.89583175166E+03 0.  0.
         23    2    4    4    0    0  0.16794016311E+03 -0.82285107786E+02 -0.13979249329E+03  0.25301492556E+03  0.97467297229E+02 0.  0.
         23    2    4    4    0    0  0.43642803100E+03  0.66745955047E+03  0.83802636384E+03  0.11603976496E+04  0.90900170488E+02 0.  0.
          3    1    3    3  502    0 -0.15346077290E+03 -0.20136758524E+03  0.33876993315E+02  0.25543446102E+03  0.00000000000E+00 0. -1.
         -4    1    3    3    0  502 -0.45090742121E+03 -0.38380685745E+03  0.16495303136E+03  0.61468260825E+03  0.00000000000E+00 0.  1.
         11    1    5    5    0    0  0.10819647330E+03 -0.90629458072E+02 -0.13003059432E+03  0.19190656832E+03  0.00000000000E+00 0. -1.
        -11    1    5    5    0    0  0.59743689809E+02  0.83443502860E+01 -0.97618989720E+01  0.61108357246E+02  0.00000000000E+00 0.  1.
          2    1    6    6  503    0  0.20342850989E+03  0.27370112333E+03  0.30062096788E+03  0.45460799583E+03  0.00000000000E+00 0. -1.
         -2    1    6    6    0  503  0.23299952111E+03  0.39375842714E+03  0.53740539596E+03  0.70578965379E+03  0.00000000000E+00 0.  1.
<mgrwt>
<rscale>  0 0.20999486E+04</rscale>
<asrwt>0</asrwt>
<pdfrwt beam="1">  1        1 0.24466104E+00 0.20999486E+04</pdfrwt>
<pdfrwt beam="2">  1       -2 0.10665121E+00 0.20999486E+04</pdfrwt>
<totfact> 0.32392501E+00</totfact>
</mgrwt>
</event>
<event>
12    4  0.4413110E-008  0.1546036E+04  0.7818608E-02  0.8854404E-01
          1   -1    0    0  501    0  0.00000000000E+00  0.00000000000E+00  0.17582251041E+04  0.17582251041E+04  0.00000000000E+00 0. -1.
         -2   -1    0    0    0  501 -0.00000000000E+00 -0.00000000000E+00 -0.33986367066E+03  0.33986367066E+03  0.00000000000E+00 0.  1.
        -24    2    1    2    0    0  0.46339270784E+03 -0.17697571919E+03  0.34265971640E+03  0.60864156166E+03  0.83520431495E+02 0.  0.
        254    2    1    2    0    0 -0.46339270784E+03  0.17697571919E+03  0.10757017170E+04  0.14894472131E+04  0.90292059986E+03 0.  0.
         23    2    4    4    0    0 -0.33770111200E+03  0.53573896850E+03  0.65696008391E+03  0.91711688264E+03  0.91915946213E+02 0.  0.
         23    2    4    4    0    0 -0.12569159585E+03 -0.35876324931E+03  0.41874163309E+03  0.57233033041E+03  0.87795247574E+02 0.  0.
          3    1    3    3  502    0  0.46023895683E+03 -0.16333476925E+03  0.33785833622E+03  0.59384038225E+03  0.00000000000E+00 0. -1.
         -4    1    3    3    0  502  0.31537510076E+01 -0.13640949931E+02  0.48013801838E+01  0.14801179416E+02  0.00000000000E+00 0.  1.
         11    1    5    5    0    0 -0.30097526950E+02  0.11347549260E+03  0.11419540009E+03  0.16377770896E+03  0.00000000000E+00 0.  1.
        -11    1    5    5    0    0 -0.30760358505E+03  0.42226347591E+03  0.54276468381E+03  0.75333917369E+03  0.00000000000E+00 0. -1.
          1    1    6    6  503    0 -0.34279795686E+01 -0.35732800105E+01 -0.43161296931E+01  0.65687403270E+01  0.00000000000E+00 0.  1.
         -1    1    6    6    0  503 -0.12226361628E+03 -0.35518996930E+03  0.42305776279E+03  0.56576159008E+03  0.00000000000E+00 0. -1.
<mgrwt>
<rscale>  0 0.15460360E+04</rscale>
<asrwt>0</asrwt>
<pdfrwt beam="1">  1        1 0.27049617E+00 0.15460360E+04</pdfrwt>
<pdfrwt beam="2">  1       -2 0.52286719E-01 0.15460360E+04</pdfrwt>
<totfact> 0.12704696E+01</totfact>
</mgrwt>
</event>
<event>
12    4  0.4413110E-008  0.1935465E+04  0.7818608E-02  0.8637402E-01
         -2   -1    0    0    0  501 -0.00000000000E+00  0.00000000000E+00  0.10348113879E+04  0.10348113879E+04  0.00000000000E+00 0.  1.
          1   -1    0    0  501    0  0.00000000000E+00 -0.00000000000E+00 -0.90500207229E+03  0.90500207229E+03  0.00000000000E+00 0. -1.
        -24    2    1    2    0    0 -0.10941587123E+03  0.74549937807E+03  0.35042580908E+02  0.75836936581E+03  0.78453533677E+02 0.  0.
        254    2    1    2    0    0  0.10941587123E+03 -0.74549937807E+03  0.94766734725E+02  0.11814440944E+04  0.90503494885E+03 0.  0.
         23    2    4    4    0    0 -0.17641732726E+03 -0.73901811810E+03 -0.16521997640E+03  0.78299285873E+03  0.92245997096E+02 0.  0.
         23    2    4    4    0    0  0.28583319848E+03 -0.64812599634E+01  0.25998671112E+03  0.39845123568E+03  0.97096205743E+02 0.  0.
          3    1    3    3  502    0 -0.96220061990E+02  0.53619833183E+03  0.55872010208E+02  0.54762088429E+03  0.00000000000E+00 0. -1.
         -4    1    3    3    0  502 -0.13195809237E+02  0.20930104624E+03 -0.20829429300E+02  0.21074848152E+03  0.00000000000E+00 0.  1.
         11    1    5    5    0    0 -0.11487417216E+03 -0.50502178088E+03 -0.68537609641E+02  0.52243705700E+03  0.00000000000E+00 0. -1.
        -11    1    5    5    0    0 -0.61543155100E+02 -0.23399633722E+03 -0.96682366754E+02  0.26055580173E+03  0.00000000000E+00 0.  1.
          3    1    6    6  503    0  0.23756231006E+03  0.32651881637E+02  0.20762135149E+03  0.31718862232E+03  0.00000000000E+00 0. -1.
         -3    1    6    6    0  503  0.48270888425E+02 -0.39133141600E+02  0.52365359630E+02  0.81262613359E+02  0.00000000000E+00 0.  1.
<mgrwt>
<rscale>  0 0.19354653E+04</rscale>
<asrwt>0</asrwt>
<pdfrwt beam="1">  1        1 0.13923109E+00 0.19354653E+04</pdfrwt>
<pdfrwt beam="2">  1       -2 0.15920175E+00 0.19354653E+04</pdfrwt>
<totfact> 0.37617574E+00</totfact>
</mgrwt>
</event>
<event>
12    4  0.4413110E-008  0.1159158E+04  0.7818608E-02  0.9149377E-01
          1   -1    0    0  501    0  0.00000000000E+00  0.00000000000E+00  0.56560767411E+03  0.56560767411E+03  0.00000000000E+00 0. -1.
         -2   -1    0    0    0  501 -0.00000000000E+00 -0.00000000000E+00 -0.59389505453E+03  0.59389505453E+03  0.00000000000E+00 0.  1.
        -24    2    1    2    0    0 -0.56173073790E+02 -0.13144409424E+03  0.16245273458E+03  0.23019897103E+03  0.78534776758E+02 0.  0.
        254    2    1    2    0    0  0.56173073790E+02  0.13144409424E+03 -0.19074011501E+03  0.92930375761E+03  0.89821529619E+03 0.  0.
         23    2    4    4    0    0 -0.34390900363E+03  0.19155300178E+03  0.10812628635E+03  0.41851855889E+03  0.92198346319E+02 0.  0.
         23    2    4    4    0    0  0.40008207742E+03 -0.60108907546E+02 -0.29886640136E+03  0.51078519872E+03  0.88891191486E+02 0.  0.
          3    1    3    3  502    0 -0.25587817496E+02 -0.11355727996E+03  0.15525007499E+03  0.19404272215E+03  0.00000000000E+00 0. -1.
         -4    1    3    3    0  502 -0.30585256294E+02 -0.17886814281E+02  0.72026595918E+01  0.36156248877E+02  0.00000000000E+00 0.  1.
         11    1    5    5    0    0 -0.26253757494E+03  0.12961495959E+03  0.11822603988E+03  0.31575847180E+03  0.00000000000E+00 0. -1.
        -11    1    5    5    0    0 -0.81371428698E+02  0.61938042189E+02 -0.10099753534E+02  0.10276008710E+03  0.00000000000E+00 0.  1.
          4    1    6    6  503    0  0.19744988657E+03 -0.11831498277E+02 -0.19600764357E+03  0.27846981595E+03  0.00000000000E+00 0. -1.
         -4    1    6    6    0  503  0.20263219086E+03 -0.48277409269E+02 -0.10285875780E+03  0.23231538277E+03  0.00000000000E+00 0.  1.
<mgrwt>
<rscale>  0 0.11591576E+04</rscale>
<asrwt>0</asrwt>
<pdfrwt beam="1">  1        1 0.87016565E-01 0.11591576E+04</pdfrwt>
<pdfrwt beam="2">  1       -2 0.91368470E-01 0.11591576E+04</pdfrwt>
<totfact> 0.33049332E+01</totfact>
</mgrwt>
</event>
<event>
12    4  0.4413110E-008  0.2032045E+04  0.7818608E-02  0.8591783E-01
          1   -1    0    0  501    0  0.00000000000E+00  0.00000000000E+00  0.94111536448E+03  0.94111536448E+03  0.00000000000E+00 0. -1.
         -2   -1    0    0    0  501 -0.00000000000E+00 -0.00000000000E+00 -0.10968918299E+04  0.10968918299E+04  0.00000000000E+00 0.  1.
        -24    2    1    2    0    0  0.33862610218E+03 -0.69084863418E+03 -0.32681076360E+03  0.83852351917E+03  0.66158480763E+02 0.  0.
        254    2    1    2    0    0 -0.33862610218E+03  0.69084863418E+03  0.17103429822E+03  0.11994836752E+04  0.90419515781E+03 0.  0.
         23    2    4    4    0    0  0.58356979267E+01  0.63544734451E+03 -0.20952036728E+03  0.67428003122E+03  0.83230962837E+02 0.  0.
         23    2    4    4    0    0 -0.34446180011E+03  0.55401289666E+02  0.38055466550E+03  0.52520364395E+03  0.96404250719E+02 0.  0.
          1    1    3    3  502    0  0.46501159687E+02 -0.11042848216E+03 -0.26602327040E+02  0.12273748949E+03  0.00000000000E+00 0. -1.
         -2    1    3    3    0  502  0.29212494249E+03 -0.58042015202E+03 -0.30020843656E+03  0.71578602968E+03  0.00000000000E+00 0.  1.
         11    1    5    5    0    0  0.31651650551E+02  0.46724438475E+03 -0.12743333191E+03  0.48534358566E+03  0.00000000000E+00 0. -1.
        -11    1    5    5    0    0 -0.25815952624E+02  0.16820295977E+03 -0.82087035371E+02  0.18893644556E+03  0.00000000000E+00 0.  1.
          1    1    6    6  503    0 -0.26388282597E+03  0.47458363357E+02  0.22573593954E+03  0.35048988073E+03  0.00000000000E+00 0. -1.
         -1    1    6    6    0  503 -0.80578974139E+02  0.79429263092E+01  0.15481872596E+03  0.17471376322E+03  0.00000000000E+00 0.  1.
<mgrwt>
<rscale>  0 0.20320450E+04</rscale>
<asrwt>0</asrwt>
<pdfrwt beam="1">  1        1 0.14478698E+00 0.20320450E+04</pdfrwt>
<pdfrwt beam="2">  1       -2 0.16875259E+00 0.20320450E+04</pdfrwt>
<totfact> 0.29716001E+00</totfact>
</mgrwt>
</event>
<event>
12    4  0.4413110E-008  0.4130128E+04  0.7818608E-02  0.7978798E-01
         -2   -1    0    0    0  501 -0.00000000000E+00  0.00000000000E+00  0.20617929392E+04  0.20617929392E+04  0.00000000000E+00 0.  1.
          1   -1    0    0  501    0  0.00000000000E+00 -0.00000000000E+00 -0.20683397614E+04  0.20683397614E+04  0.00000000000E+00 0. -1.
        -24    2    1    2    0    0 -0.13269257541E+04 -0.13382807958E+04  0.53765291314E+03  0.19612345019E+04  0.75117715127E+02 0.  0.
        254    2    1    2    0    0  0.13269257541E+04  0.13382807958E+04 -0.54419973531E+03  0.21688981987E+04  0.92533161581E+03 0.  0.
         23    2    4    4    0    0  0.12282649568E+04  0.91099345752E+03 -0.71362379032E+03  0.16898865154E+04  0.88958626909E+02 0.  0.
         23    2    4    4    0    0  0.98660797336E+02  0.42728733827E+03  0.16942405501E+03  0.47901168328E+03  0.91865444691E+02 0.  0.
          3    1    3    3  502    0 -0.13023052011E+04 -0.13119782154E+04  0.51622462589E+03  0.19193159039E+04  0.00000000000E+00 0. -1.
         -4    1    3    3    0  502 -0.24620552994E+02 -0.26302580394E+02  0.21428287243E+02  0.41918598012E+02  0.00000000000E+00 0.  1.
         11    1    5    5    0    0  0.96364807432E+03  0.67181717601E+03 -0.56384155059E+03  0.13030246442E+04  0.00000000000E+00 0. -1.
        -11    1    5    5    0    0  0.26461688245E+03  0.23917628151E+03 -0.14978223973E+03  0.38686187128E+03  0.00000000000E+00 0.  1.
          1    1    6    6  503    0  0.81600000691E+02  0.40384520783E+03  0.13403130934E+03  0.43325962642E+03  0.00000000000E+00 0. -1.
         -1    1    6    6    0  503  0.17060796645E+02  0.23442130441E+02  0.35392745661E+02  0.45752056863E+02  0.00000000000E+00 0.  1.
<mgrwt>
<rscale>  0 0.41301275E+04</rscale>
<asrwt>0</asrwt>
<pdfrwt beam="1">  1        1 0.31820612E+00 0.41301275E+04</pdfrwt>
<pdfrwt beam="2">  1       -2 0.31719892E+00 0.41301275E+04</pdfrwt>
<totfact> 0.45416436E-02</totfact>
</mgrwt>
</event>
<event>
12    4  0.4413110E-008  0.3264341E+04  0.7818608E-02  0.8172028E-01
          1   -1    0    0  501    0  0.00000000000E+00  0.00000000000E+00  0.19876007741E+04  0.19876007741E+04  0.00000000000E+00 0. -1.
         -2   -1    0    0    0  501 -0.00000000000E+00 -0.00000000000E+00 -0.13402999626E+04  0.13402999626E+04  0.00000000000E+00 0.  1.
        -24    2    1    2    0    0  0.59866659303E+03  0.70570715758E+03 -0.91388299626E+03  0.13027889811E+04  0.75184550059E+02 0.  0.
        254    2    1    2    0    0 -0.59866659303E+03 -0.70570715758E+03  0.15611838078E+04  0.20251117556E+04  0.89853127885E+03 0.  0.
         23    2    4    4    0    0 -0.65593940972E+03 -0.52497270505E+03  0.16010734156E+04  0.18104970976E+04  0.92794441068E+02 0.  0.
         23    2    4    4    0    0  0.57272816699E+02 -0.18073445254E+03 -0.39889607756E+02  0.21461465796E+03  0.92320922542E+02 0.  0.
          3    1    3    3  502    0  0.49333333883E+03  0.56364793910E+03 -0.69954143124E+03  0.10249073112E+04  0.00000000000E+00 0. -1.
         -4    1    3    3    0  502  0.10533325420E+03  0.14205921848E+03 -0.21434156502E+03  0.27788166994E+03  0.00000000000E+00 0.  1.
         11    1    5    5    0    0 -0.47431197144E+03 -0.36668567959E+03  0.12255845924E+04  0.13643635245E+04  0.00000000000E+00 0. -1.
        -11    1    5    5    0    0 -0.18162743828E+03 -0.15828702546E+03  0.37548882316E+03  0.44613357314E+03  0.00000000000E+00 0.  1.
          3    1    6    6  503    0  0.17724095963E+01 -0.31734941888E+02 -0.45515205301E+02  0.55514699729E+02  0.00000000000E+00 0. -1.
         -3    1    6    6    0  503  0.55500407102E+02 -0.14899951065E+03  0.56255975452E+01  0.15909995823E+03  0.00000000000E+00 0.  1.
<mgrwt>
<rscale>  0 0.32643414E+04</rscale>
<asrwt>0</asrwt>
<pdfrwt beam="1">  1        1 0.30578473E+00 0.32643414E+04</pdfrwt>
<pdfrwt beam="2">  1       -2 0.20619999E+00 0.32643414E+04</pdfrwt>
<totfact> 0.26933899E-01</totfact>
</mgrwt>
</event>
<event>
12    4  0.4413110E-008  0.1191412E+04  0.7818608E-02  0.9120407E-01
         -2   -1    0    0    0  501 -0.00000000000E+00  0.00000000000E+00  0.10332370524E+03  0.10332370524E+03  0.00000000000E+00 0.  1.
          1   -1    0    0  501    0  0.00000000000E+00 -0.00000000000E+00 -0.34345035364E+04  0.34345035364E+04  0.00000000000E+00 0. -1.
        -24    2    1    2    0    0  0.35739076756E+01 -0.14738438964E+03 -0.13415377392E+04  0.13519488759E+04  0.79418676175E+02 0.  0.
        254    2    1    2    0    0 -0.35739076756E+01  0.14738438964E+03 -0.19896420919E+04  0.21858783657E+04  0.89311457536E+03 0.  0.
         23    2    4    4    0    0  0.31825839113E+03  0.33684797042E+03 -0.73598462104E+03  0.87455128253E+03  0.91714909705E+02 0.  0.
         23    2    4    4    0    0 -0.32183229880E+03 -0.18946358078E+03 -0.12536574709E+04  0.13113270832E+04  0.91919464038E+02 0.  0.
          1    1    3    3  502    0 -0.20897159911E+02 -0.14048768532E+03 -0.11366777152E+04  0.11455172235E+04  0.00000000000E+00 0. -1.
         -2    1    3    3    0  502  0.24471067587E+02 -0.68967043168E+01 -0.20486002401E+03  0.20643165241E+03  0.00000000000E+00 0.  1.
         11    1    5    5    0    0  0.13240760325E+03  0.17288350031E+03 -0.27111113275E+03  0.34773801112E+03  0.00000000000E+00 0. -1.
        -11    1    5    5    0    0  0.18585078788E+03  0.16396447011E+03 -0.46487348830E+03  0.52681327141E+03  0.00000000000E+00 0.  1.
          2    1    6    6  503    0 -0.20909269863E+03 -0.16676506702E+03 -0.81030512940E+03  0.85330226000E+03  0.00000000000E+00 0. -1.
         -2    1    6    6    0  503 -0.11273960017E+03 -0.22698513758E+02 -0.44335234149E+03  0.45802482321E+03  0.00000000000E+00 0.  1.
<mgrwt>
<rscale>  0 0.11914120E+04</rscale>
<asrwt>0</asrwt>
<pdfrwt beam="1">  1        1 0.52838515E+00 0.11914120E+04</pdfrwt>
<pdfrwt beam="2">  1       -2 0.15895955E-01 0.11914120E+04</pdfrwt>
<totfact> 0.79507312E+00</totfact>
</mgrwt>
</event>
<event>
12    4  0.4413110E-008  0.1532413E+04  0.7818608E-02  0.8863180E-01
          1   -1    0    0  501    0  0.00000000000E+00  0.00000000000E+00  0.17005984347E+04  0.17005984347E+04  0.00000000000E+00 0. -1.
         -2   -1    0    0    0  501 -0.00000000000E+00 -0.00000000000E+00 -0.34521519181E+03  0.34521519181E+03  0.00000000000E+00 0.  1.
        -24    2    1    2    0    0 -0.27210121080E+03 -0.34432997344E+03  0.76554506817E+03  0.88616918543E+03  0.81451668355E+02 0.  0.
        254    2    1    2    0    0  0.27210121080E+03  0.34432997344E+03  0.58983817474E+03  0.11596444411E+04  0.89680764819E+03 0.  0.
         23    2    4    4    0    0  0.20268478678E+03  0.32809052099E+03 -0.14069537115E+03  0.42009906317E+03  0.89238571603E+02 0.  0.
         23    2    4    4    0    0  0.69416424025E+02  0.16239452453E+02  0.73053354589E+03  0.73954537792E+03  0.90364509625E+02 0.  0.
          3    1    3    3  502    0 -0.21561566570E+03 -0.21317803819E+03  0.53665786705E+03  0.61639002062E+03  0.00000000000E+00 0. -1.
         -4    1    3    3    0  502 -0.56485545104E+02 -0.13115193525E+03  0.22888720112E+03  0.26977916480E+03  0.00000000000E+00 0.  1.
         11    1    5    5    0    0  0.17644639457E+02  0.53848543200E+02 -0.53592657989E+02  0.77994691465E+02  0.00000000000E+00 0.  1.
        -11    1    5    5    0    0  0.18504014732E+03  0.27424197779E+03 -0.87102713163E+02  0.34210437171E+03  0.00000000000E+00 0. -1.
          1    1    6    6  503    0  0.37544002371E+02  0.71178689885E+01  0.66506182535E+03  0.66615872562E+03  0.00000000000E+00 0. -1.
         -1    1    6    6    0  503  0.31872421654E+02  0.91215834649E+01  0.65471720535E+02  0.73386652307E+02  0.00000000000E+00 0.  1.
<mgrwt>
<rscale>  0 0.15324130E+04</rscale>
<asrwt>0</asrwt>
<pdfrwt beam="1">  1        1 0.26163052E+00 0.15324130E+04</pdfrwt>
<pdfrwt beam="2">  1       -2 0.53110031E-01 0.15324130E+04</pdfrwt>
<totfact> 0.13479684E+01</totfact>
</mgrwt>
</event>
<event>
12    4  0.4413110E-008  0.1097382E+04  0.7818608E-02  0.9207747E-01
         -2   -1    0    0    0  501 -0.00000000000E+00  0.00000000000E+00  0.12329167533E+04  0.12329167533E+04  0.00000000000E+00 0.  1.
          1   -1    0    0  501    0  0.00000000000E+00 -0.00000000000E+00 -0.24418675157E+03  0.24418675157E+03  0.00000000000E+00 0. -1.
        -24    2    1    2    0    0  0.23852193222E+02  0.13692700897E+03  0.27820631784E+03  0.32081874841E+03  0.78790742708E+02 0.  0.
        254    2    1    2    0    0 -0.23852193222E+02 -0.13692700897E+03  0.71052368384E+03  0.11562847564E+04  0.90157229312E+03 0.  0.
         23    2    4    4    0    0  0.37308631192E+03 -0.10176193843E+03  0.78657885895E+02  0.40351748221E+03  0.84204555584E+02 0.  0.
         23    2    4    4    0    0 -0.39693850514E+03 -0.35165070542E+02  0.63186579795E+03  0.75276727421E+03  0.92776200883E+02 0.  0.
          1    1    3    3  502    0 -0.40220460173E+01  0.89339738123E+02  0.99440359693E+02  0.13373911469E+03  0.00000000000E+00 0. -1.
         -2    1    3    3    0  502  0.27874239239E+02  0.47587270849E+02  0.17876595815E+03  0.18707963372E+03  0.00000000000E+00 0.  1.
         11    1    5    5    0    0  0.21773918819E+03 -0.67251791940E+02  0.44514106385E+01  0.22793194740E+03  0.00000000000E+00 0. -1.
        -11    1    5    5    0    0  0.15534712373E+03 -0.34510146490E+02  0.74206475256E+02  0.17558553481E+03  0.00000000000E+00 0.  1.
          4    1    6    6  503    0 -0.35774667477E+03 -0.47696399560E+02  0.51503666157E+03  0.62890412036E+03  0.00000000000E+00 0. -1.
         -4    1    6    6    0  503 -0.39191830367E+02  0.12531329018E+02  0.11682913638E+03  0.12386315385E+03  0.00000000000E+00 0.  1.
<mgrwt>
<rscale>  0 0.10973822E+04</rscale>
<asrwt>0</asrwt>
<pdfrwt beam="1">  1        1 0.37567193E-01 0.10973822E+04</pdfrwt>
<pdfrwt beam="2">  1       -2 0.18967950E+00 0.10973822E+04</pdfrwt>
<totfact> 0.15514665E+01</totfact>
</mgrwt>
</event>
<event>
12    4  0.4413110E-008  0.1774236E+04  0.7818608E-02  0.8720122E-01
         -2   -1    0    0    0  501 -0.00000000000E+00  0.00000000000E+00  0.27646636087E+03  0.27646636087E+03  0.00000000000E+00 0.  1.
          1   -1    0    0  501    0  0.00000000000E+00 -0.00000000000E+00 -0.28465602740E+04  0.28465602740E+04  0.00000000000E+00 0. -1.
        -24    2    1    2    0    0 -0.36466178835E+03  0.33815180247E+03 -0.17522187898E+04  0.18232511939E+04  0.81543653222E+02 0.  0.
        254    2    1    2    0    0  0.36466178835E+03 -0.33815180247E+03 -0.81787512328E+03  0.12997754409E+04  0.87930177875E+03 0.  0.
         23    2    4    4    0    0  0.31736340663E+03  0.22317301154E+03 -0.52142776885E+03  0.65647897381E+03  0.92477024106E+02 0.  0.
         23    2    4    4    0    0  0.47298381725E+02 -0.56132481401E+03 -0.29644735443E+03  0.64329646710E+03  0.92879636611E+02 0.  0.
          3    1    3    3  502    0 -0.27365216978E+03  0.28677776210E+03 -0.14621953968E+04  0.15149727302E+04  0.00000000000E+00 0. -1.
         -4    1    3    3    0  502 -0.91009618572E+02  0.51374040373E+02 -0.29002339308E+03  0.30827846378E+03  0.00000000000E+00 0.  1.
         11    1    5    5    0    0  0.20384024070E+03  0.11945572645E+03 -0.24630960857E+03  0.34130475763E+03  0.00000000000E+00 0. -1.
        -11    1    5    5    0    0  0.11352316593E+03  0.10371728509E+03 -0.27511816028E+03  0.31517421618E+03  0.00000000000E+00 0.  1.
          2    1    6    6  503    0  0.68840479515E+02 -0.28370778738E+03 -0.16554694687E+03  0.33561125109E+03  0.00000000000E+00 0.  1.
         -2    1    6    6    0  503 -0.21542097790E+02 -0.27761702662E+03 -0.13090040757E+03  0.30768521601E+03  0.00000000000E+00 0. -1.
<mgrwt>
<rscale>  0 0.17742358E+04</rscale>
<asrwt>0</asrwt>
<pdfrwt beam="1">  1        1 0.43793235E+00 0.17742358E+04</pdfrwt>
<pdfrwt beam="2">  1       -2 0.42533286E-01 0.17742358E+04</pdfrwt>
<totfact> 0.33680410E+00</totfact>
</mgrwt>
</event>
<event>
12    4  0.4413110E-008  0.1269856E+04  0.7818608E-02  0.9053817E-01
         -2   -1    0    0    0  501 -0.00000000000E+00  0.00000000000E+00  0.66072440393E+03  0.66072440393E+03  0.00000000000E+00 0.  1.
          1   -1    0    0  501    0  0.00000000000E+00 -0.00000000000E+00 -0.61013921463E+03  0.61013921463E+03  0.00000000000E+00 0. -1.
        -24    2    1    2    0    0  0.53665563892E+02  0.35762621654E+02  0.30890464741E+03  0.32669292273E+03  0.84541272280E+02 0.  0.
        254    2    1    2    0    0 -0.53665563892E+02 -0.35762621654E+02 -0.25831945811E+03  0.94417069583E+03  0.90585341119E+03 0.  0.
         23    2    4    4    0    0 -0.33279146473E+03 -0.29324106259E+03  0.37499289850E+02  0.45414675480E+03  0.90014434250E+02 0.  0.
         23    2    4    4    0    0  0.27912590084E+03  0.25747844093E+03 -0.29581874796E+03  0.49002394103E+03  0.91696865128E+02 0.  0.
          3    1    3    3  502    0  0.11144962398E+01 -0.17416123156E+01 -0.54228116127E+01  0.58036368868E+01  0.00000000000E+00 0. -1.
         -4    1    3    3    0  502  0.52551067652E+02  0.37504233970E+02  0.31432745902E+03  0.32088928585E+03  0.00000000000E+00 0.  1.
         11    1    5    5    0    0 -0.44700170749E+02 -0.52650766036E+02 -0.25367700994E+02  0.73578044842E+02  0.00000000000E+00 0.  1.
        -11    1    5    5    0    0 -0.28809129398E+03 -0.24059029655E+03  0.62866990844E+02  0.38056870996E+03  0.00000000000E+00 0. -1.
          3    1    6    6  503    0  0.14815231256E+03  0.11906628381E+03 -0.20290322470E+03  0.27802087377E+03  0.00000000000E+00 0. -1.
         -3    1    6    6    0  503  0.13097358827E+03  0.13841215712E+03 -0.92915523257E+02  0.21200306726E+03  0.00000000000E+00 0.  1.
<mgrwt>
<rscale>  0 0.12698565E+04</rscale>
<asrwt>0</asrwt>
<pdfrwt beam="1">  1        1 0.93867571E-01 0.12698565E+04</pdfrwt>
<pdfrwt beam="2">  1       -2 0.10164991E+00 0.12698565E+04</pdfrwt>
<totfact> 0.22886686E+01</totfact>
</mgrwt>
</event>
<event>
12    4  0.4413110E-008  0.2850314E+04  0.7818608E-02  0.8287816E-01
          1   -1    0    0  501    0  0.00000000000E+00  0.00000000000E+00  0.14368961203E+04  0.14368961203E+04  0.00000000000E+00 0. -1.
         -2   -1    0    0    0  501 -0.00000000000E+00 -0.00000000000E+00 -0.14135136611E+04  0.14135136611E+04  0.00000000000E+00 0.  1.
        -24    2    1    2    0    0 -0.81151716081E+03  0.43332032012E+03  0.89022274379E+03  0.12844276821E+04  0.10455302478E+03 0.  0.
        254    2    1    2    0    0  0.81151716081E+03 -0.43332032012E+03 -0.86684028463E+03  0.15659820993E+04  0.92442482339E+03 0.  0.
         23    2    4    4    0    0  0.46506336270E+02 -0.49052716375E+02 -0.67375433588E+03  0.68318249766E+03  0.90688542290E+02 0.  0.
         23    2    4    4    0    0  0.76501082454E+03 -0.38426760374E+03 -0.19308594875E+03  0.88279960162E+03  0.95654587267E+02 0.  0.
          3    1    3    3  502    0 -0.73729483845E+03  0.42203576664E+03  0.83532751306E+03  0.11914234852E+04  0.00000000000E+00 0. -1.
         -4    1    3    3    0  502 -0.74222322367E+02  0.11284553479E+02  0.54895230733E+02  0.93004196905E+02  0.00000000000E+00 0.  1.
         11    1    5    5    0    0  0.11013689861E+02  0.26369978667E+02 -0.13247284768E+03  0.13552022916E+03  0.00000000000E+00 0.  1.
        -11    1    5    5    0    0  0.35492646408E+02 -0.75422695042E+02 -0.54128148819E+03  0.54766226850E+03  0.00000000000E+00 0. -1.
          1    1    6    6  503    0  0.44074542131E+03 -0.24819558750E+03 -0.72238834406E+02  0.51095599151E+03  0.00000000000E+00 0. -1.
         -1    1    6    6    0  503  0.32426540323E+03 -0.13607201624E+03 -0.12084711435E+03  0.37184361012E+03  0.00000000000E+00 0.  1.
<mgrwt>
<rscale>  0 0.28503139E+04</rscale>
<asrwt>0</asrwt>
<pdfrwt beam="1">  1        1 0.22106094E+00 0.28503139E+04</pdfrwt>
<pdfrwt beam="2">  1       -2 0.21746364E+00 0.28503139E+04</pdfrwt>
<totfact> 0.56200930E-01</totfact>
</mgrwt>
</event>
<event>
12    4  0.4413110E-008  0.2670760E+04  0.7818608E-02  0.8344555E-01
         -2   -1    0    0    0  501 -0.00000000000E+00  0.00000000000E+00  0.14598602806E+04  0.14598602806E+04  0.00000000000E+00 0.  1.
          3   -1    0    0  501    0  0.00000000000E+00 -0.00000000000E+00 -0.12215142943E+04  0.12215142943E+04  0.00000000000E+00 0. -1.
        -24    2    1    2    0    0  0.72153589345E+03  0.79596541989E+03 -0.39622381388E+03  0.11480124145E+04  0.82244744152E+02 0.  0.
        254    2    1    2    0    0 -0.72153589345E+03 -0.79596541989E+03  0.63456980016E+03  0.15333621604E+04  0.89126072981E+03 0.  0.
         23    2    4    4    0    0 -0.70015189821E+03 -0.77234366133E+03  0.17154088339E+03  0.10606601314E+04  0.94054388211E+02 0.  0.
         23    2    4    4    0    0 -0.21383995244E+02 -0.23621758560E+02  0.46302891676E+03  0.47270202899E+03  0.89644674812E+02 0.  0.
          3    1    3    3  502    0  0.53155581941E+03  0.62706496080E+03 -0.27922135506E+03  0.86817430239E+03  0.00000000000E+00 0. -1.
         -4    1    3    3    0  502  0.18998007404E+03  0.16890045909E+03 -0.11700245882E+03  0.27983811210E+03  0.00000000000E+00 0.  1.
         11    1    5    5    0    0 -0.58551427798E+02 -0.32323164217E+02  0.39623585444E+01  0.66998186001E+02  0.00000000000E+00 0. -1.
        -11    1    5    5    0    0 -0.64160047041E+03 -0.74002049712E+03  0.16757852485E+03  0.99366194542E+03  0.00000000000E+00 0.  1.
          2    1    6    6  503    0  0.12071825562E+02 -0.50657496313E+02  0.24602154695E+03  0.25147268733E+03  0.00000000000E+00 0. -1.
         -2    1    6    6    0  503 -0.33455820807E+02  0.27035737753E+02  0.21700736981E+03  0.22122934166E+03  0.00000000000E+00 0.  1.
<mgrwt>
<rscale>  0 0.26707603E+04</rscale>
<asrwt>0</asrwt>
<pdfrwt beam="1">  1        3 0.18792528E+00 0.26707603E+04</pdfrwt>
<pdfrwt beam="2">  1       -2 0.22459389E+00 0.26707603E+04</pdfrwt>
<totfact> 0.59132440E-02</totfact>
</mgrwt>
</event>
<event>
12    4  0.4413110E-008  0.1983330E+04  0.7818608E-02  0.8614454E-01
          1   -1    0    0  501    0  0.00000000000E+00  0.00000000000E+00  0.12332823226E+04  0.12332823226E+04  0.00000000000E+00 0. -1.
         -2   -1    0    0    0  501 -0.00000000000E+00 -0.00000000000E+00 -0.79738428666E+03  0.79738428666E+03  0.00000000000E+00 0.  1.
        -24    2    1    2    0    0  0.64365918227E+03  0.80276529355E+02 -0.27920303158E+03  0.71051610732E+03  0.78341188569E+02 0.  0.
        254    2    1    2    0    0 -0.64365918227E+03 -0.80276529355E+02  0.71510106756E+03  0.13201505020E+04  0.90038122313E+03 0.  0.
         23    2    4    4    0    0 -0.15332846864E+03 -0.40728252489E+03  0.88335281040E+02  0.45498679508E+03  0.99101904343E+02 0.  0.
         23    2    4    4    0    0 -0.49033071363E+03  0.32700599553E+03  0.62676578652E+03  0.86516370690E+03  0.91190782119E+02 0.  0.
          1    1    3    3  502    0  0.12525566474E+03  0.34652111476E+02 -0.29330262333E+02  0.13322918099E+03  0.00000000000E+00 0. -1.
         -2    1    3    3    0  502  0.51840351754E+03  0.45624417880E+02 -0.24987276925E+03  0.57728692633E+03  0.00000000000E+00 0.  1.
         11    1    5    5    0    0 -0.13713293562E+03 -0.22624321975E+03  0.53707270724E+02  0.26995538047E+03  0.00000000000E+00 0.  1.
        -11    1    5    5    0    0 -0.16195533024E+02 -0.18103930514E+03  0.34628010316E+02  0.18503141461E+03  0.00000000000E+00 0. -1.
          3    1    6    6  503    0 -0.61309412611E+02  0.74410925283E+02  0.13006310322E+03  0.16190194778E+03  0.00000000000E+00 0. -1.
         -3    1    6    6    0  503 -0.42902130102E+03  0.25259507025E+03  0.49670268330E+03  0.70326175912E+03  0.00000000000E+00 0.  1.
<mgrwt>
<rscale>  0 0.19833305E+04</rscale>
<asrwt>0</asrwt>
<pdfrwt beam="1">  1        1 0.18973574E+00 0.19833305E+04</pdfrwt>
<pdfrwt beam="2">  1       -2 0.12267451E+00 0.19833305E+04</pdfrwt>
<totfact> 0.41389316E+00</totfact>
</mgrwt>
</event>
<event>
12    4  0.4413110E-008  0.1246043E+04  0.7818608E-02  0.9073483E-01
          1   -1    0    0  501    0  0.00000000000E+00  0.00000000000E+00  0.45701765580E+03  0.45701765580E+03  0.00000000000E+00 0. -1.
         -2   -1    0    0    0  501 -0.00000000000E+00 -0.00000000000E+00 -0.84932330732E+03  0.84932330732E+03  0.00000000000E+00 0.  1.
        -24    2    1    2    0    0 -0.11650863503E+03  0.67355281494E+02  0.17946722806E+03  0.23776385085E+03  0.78817300388E+02 0.  0.
        254    2    1    2    0    0  0.11650863503E+03 -0.67355281494E+02 -0.57177287959E+03  0.10685771123E+04  0.89264876802E+03 0.  0.
         23    2    4    4    0    0 -0.11280172653E+03 -0.18284221276E+03 -0.72118836982E+03  0.75795271167E+03  0.90687066803E+02 0.  0.
         23    2    4    4    0    0  0.22931036156E+03  0.11548693127E+03  0.14941549024E+03  0.31062440059E+03  0.90785771488E+02 0.  0.
          3    1    3    3  502    0 -0.29003951156E+02  0.61812316084E+02  0.78543655181E+02  0.10407255821E+03  0.00000000000E+00 0. -1.
         -4    1    3    3    0  502 -0.87504683876E+02  0.55429654106E+01  0.10092357288E+03  0.13369129265E+03  0.00000000000E+00 0.  1.
         11    1    5    5    0    0 -0.78216384069E+02 -0.46440377514E+02 -0.24206437869E+03  0.25859171454E+03  0.00000000000E+00 0.  1.
        -11    1    5    5    0    0 -0.34585342465E+02 -0.13640183525E+03 -0.47912399114E+03  0.49936099713E+03  0.00000000000E+00 0. -1.
          3    1    6    6  503    0  0.22890692091E+03  0.92625644151E+02  0.14760200984E+03  0.28768775035E+03  0.00000000000E+00 0. -1.
         -3    1    6    6    0  503  0.40344065737E+00  0.22861287116E+02  0.18134803964E+01  0.22936650238E+02  0.00000000000E+00 0.  1.
<mgrwt>
<rscale>  0 0.12460429E+04</rscale>
<asrwt>0</asrwt>
<pdfrwt beam="1">  1        1 0.70310409E-01 0.12460429E+04</pdfrwt>
<pdfrwt beam="2">  1       -2 0.13066512E+00 0.12460429E+04</pdfrwt>
<totfact> 0.18524659E+01</totfact>
</mgrwt>
</event>
<event>
12    4  0.4413110E-008  0.1642094E+04  0.7818608E-02  0.8795097E-01
          1   -1    0    0  501    0  0.00000000000E+00  0.00000000000E+00  0.19003083204E+04  0.19003083204E+04  0.00000000000E+00 0. -1.
         -2   -1    0    0    0  501 -0.00000000000E+00 -0.00000000000E+00 -0.35474163022E+03  0.35474163022E+03  0.00000000000E+00 0.  1.
        -24    2    1    2    0    0 -0.29896080950E+03  0.19039298974E+03  0.11540567087E+04  0.12117543114E+04  0.10428119754E+03 0.  0.
        254    2    1    2    0    0  0.29896080950E+03 -0.19039298974E+03  0.39150998150E+03  0.10432956392E+04  0.89975478273E+03 0.  0.
         23    2    4    4    0    0  0.37281078436E+03 -0.57727352470E+02 -0.19237179730E+03  0.43312817347E+03  0.90954813535E+02 0.  0.
         23    2    4    4    0    0 -0.73849974854E+02 -0.13266563727E+03  0.58388177880E+03  0.61016746575E+03  0.91282060377E+02 0.  0.
          3    1    3    3  502    0 -0.56678154486E+02  0.88445403837E+02  0.38182022177E+03  0.39600717722E+03  0.00000000000E+00 0. -1.
         -4    1    3    3    0  502 -0.24228265502E+03  0.10194758591E+03  0.77223648694E+03  0.81574713420E+03  0.00000000000E+00 0.  1.
         11    1    5    5    0    0  0.52471838995E+02  0.13487465463E+02 -0.30284591929E+01  0.54262115488E+02  0.00000000000E+00 0. -1.
        -11    1    5    5    0    0  0.32033894536E+03 -0.71214817934E+02 -0.18934333811E+03  0.37886605799E+03  0.00000000000E+00 0.  1.
          3    1    6    6  503    0 -0.67040353404E+01 -0.87972530247E+01  0.17143534070E+01  0.11192620704E+02  0.00000000000E+00 0. -1.
         -3    1    6    6    0  503 -0.67145939514E+02 -0.12386838425E+03  0.58216742540E+03  0.59897484505E+03  0.00000000000E+00 0.  1.
<mgrwt>
<rscale>  0 0.16420944E+04</rscale>
<asrwt>0</asrwt>
<pdfrwt beam="1">  1        1 0.29235512E+00 0.16420944E+04</pdfrwt>
<pdfrwt beam="2">  1       -2 0.54575637E-01 0.16420944E+04</pdfrwt>
<totfact> 0.92380735E+00</totfact>
</mgrwt>
</event>
<event>
12    4  0.4413110E-008  0.2324547E+04  0.7818608E-02  0.8468305E-01
          1   -1    0    0  501    0  0.00000000000E+00  0.00000000000E+00  0.10512770790E+04  0.10512770790E+04  0.00000000000E+00 0. -1.
         -2   -1    0    0    0  501 -0.00000000000E+00 -0.00000000000E+00 -0.12849892594E+04  0.12849892594E+04  0.00000000000E+00 0.  1.
        -24    2    1    2    0    0  0.63305126931E+03  0.63783140708E+03  0.30210413910E+03  0.95140703908E+03  0.79533827538E+02 0.  0.
        254    2    1    2    0    0 -0.63305126931E+03 -0.63783140708E+03 -0.53581631950E+03  0.13848592994E+04  0.90727798239E+03 0.  0.
         23    2    4    4    0    0  0.77314183322E+02 -0.25265332848E+03  0.15360460306E+03  0.31855897295E+03  0.89856874156E+02 0.  0.
         23    2    4    4    0    0 -0.71036545263E+03 -0.38517807860E+03 -0.68942092255E+03  0.10663003264E+04  0.93348535640E+02 0.  0.
          1    1    3    3  502    0  0.44704327597E+03  0.47079100151E+03  0.18325472517E+03  0.67459184104E+03  0.00000000000E+00 0. -1.
         -2    1    3    3    0  502  0.18600799334E+03  0.16704040556E+03  0.11884941393E+03  0.27681519804E+03  0.00000000000E+00 0.  1.
         11    1    5    5    0    0  0.25122702887E+01 -0.13878582798E+03  0.50523698634E+02  0.14771750632E+03  0.00000000000E+00 0.  1.
        -11    1    5    5    0    0  0.74801913033E+02 -0.11386750050E+03  0.10308090442E+03  0.17084146663E+03  0.00000000000E+00 0. -1.
          2    1    6    6  503    0 -0.35243006916E+03 -0.23798531221E+03 -0.38944827401E+03  0.57664020030E+03  0.00000000000E+00 0. -1.
         -2    1    6    6    0  503 -0.35793538347E+03 -0.14719276639E+03 -0.29997264855E+03  0.48966012610E+03  0.00000000000E+00 0.  1.
<mgrwt>
<rscale>  0 0.23245471E+04</rscale>
<asrwt>0</asrwt>
<pdfrwt beam="1">  1        1 0.16173494E+00 0.23245471E+04</pdfrwt>
<pdfrwt beam="2">  1       -2 0.19769065E+00 0.23245471E+04</pdfrwt>
<totfact> 0.15043468E+00</totfact>
</mgrwt>
</event>
<event>
12    4  0.4413110E-008  0.1339013E+04  0.7818608E-02  0.8999187E-01
         -2   -1    0    0    0  501 -0.00000000000E+00  0.00000000000E+00  0.45117107327E+03  0.45117107327E+03  0.00000000000E+00 0.  1.
          1   -1    0    0  501    0  0.00000000000E+00 -0.00000000000E+00 -0.99350041641E+03  0.99350041641E+03  0.00000000000E+00 0. -1.
        -24    2    1    2    0    0  0.10154594938E+03  0.34429537192E+03 -0.13126362601E+03  0.39103266364E+03  0.82616714781E+02 0.  0.
        254    2    1    2    0    0 -0.10154594938E+03 -0.34429537192E+03 -0.41106571713E+03  0.10536388260E+04  0.90129288745E+03 0.  0.
         23    2    4    4    0    0 -0.45220390495E+03 -0.71531310361E+02 -0.42775835692E+02  0.46908156936E+03  0.92750453247E+02 0.  0.
         23    2    4    4    0    0  0.35065795557E+03 -0.27276406156E+03 -0.36828988143E+03  0.58455725667E+03  0.93319421790E+02 0.  0.
          3    1    3    3  502    0 -0.10386920005E+02  0.57666646107E+02 -0.63575408933E+01  0.58938514628E+02  0.00000000000E+00 0. -1.
         -4    1    3    3    0  502  0.11193286939E+03  0.28662872581E+03 -0.12490608512E+03  0.33209414901E+03  0.00000000000E+00 0.  1.
         11    1    5    5    0    0 -0.39695955676E+03 -0.78453549453E+02 -0.63664475138E+02  0.40961569125E+03  0.00000000000E+00 0.  1.
        -11    1    5    5    0    0 -0.55244348196E+02  0.69222390921E+01  0.20888639446E+02  0.59465878111E+02  0.00000000000E+00 0. -1.
          4    1    6    6  503    0  0.21464423794E+02 -0.36620512431E+02 -0.68427388905E+02  0.80523853434E+02  0.00000000000E+00 0. -1.
         -4    1    6    6    0  503  0.32919353178E+03 -0.23614354913E+03 -0.29986249253E+03  0.50403340324E+03  0.00000000000E+00 0.  1.
<mgrwt>
<rscale>  0 0.13390125E+04</rscale>
<asrwt>0</asrwt>
<pdfrwt beam="1">  1        1 0.15284622E+00 0.13390125E+04</pdfrwt>
<pdfrwt beam="2">  1       -2 0.69410935E-01 0.13390125E+04</pdfrwt>
<totfact> 0.24898568E+01</totfact>
</mgrwt>
</event>
<event>
12    4  0.4413110E-008  0.2543009E+04  0.7818608E-02  0.8387822E-01
         -2   -1    0    0    0  501 -0.00000000000E+00  0.00000000000E+00  0.73974318879E+03  0.73974318879E+03  0.00000000000E+00 0.  1.
          1   -1    0    0  501    0  0.00000000000E+00 -0.00000000000E+00 -0.21855203388E+04  0.21855203388E+04  0.00000000000E+00 0. -1.
        -24    2    1    2    0    0 -0.59063205822E+03 -0.52123236745E+03 -0.15252367557E+04  0.17184460317E+04  0.78614208441E+02 0.  0.
        254    2    1    2    0    0  0.59063205822E+03  0.52123236745E+03  0.79459605648E+02  0.12068174959E+04  0.91080471591E+03 0.  0.
         23    2    4    4    0    0  0.52297288447E+03 -0.43388775831E+02  0.27340190262E+03  0.59911744325E+03  0.93860996663E+02 0.  0.
         23    2    4    4    0    0  0.67659173746E+02  0.56462114328E+03 -0.19394229697E+03  0.60770005269E+03  0.91164358460E+02 0.  0.
          3    1    3    3  502    0 -0.58677268443E+03 -0.51586730722E+03 -0.14881711946E+04  0.16807958728E+04  0.00000000000E+00 0. -1.
         -4    1    3    3    0  502 -0.38593737824E+01 -0.53650602369E+01 -0.37065561145E+02  0.37650158836E+02  0.00000000000E+00 0.  1.
         11    1    5    5    0    0  0.22406656294E+02 -0.20483406940E+01  0.38588660617E+02  0.44669213940E+02  0.00000000000E+00 0.  1.
        -11    1    5    5    0    0  0.50056622818E+03 -0.41340435137E+02  0.23481324201E+03  0.55444822931E+03  0.00000000000E+00 0. -1.
          3    1    6    6  503    0 -0.20098946340E+02  0.13505161158E+03 -0.31439143547E+02  0.14011183098E+03  0.00000000000E+00 0. -1.
         -3    1    6    6    0  503  0.87758120086E+02  0.42956953170E+03 -0.16250315343E+03  0.46758822171E+03  0.00000000000E+00 0.  1.
<mgrwt>
<rscale>  0 0.25430091E+04</rscale>
<asrwt>0</asrwt>
<pdfrwt beam="1">  1        1 0.33623390E+00 0.25430091E+04</pdfrwt>
<pdfrwt beam="2">  1       -2 0.11380665E+00 0.25430091E+04</pdfrwt>
<totfact> 0.10486007E+00</totfact>
</mgrwt>
</event>
<event>
12    4  0.4413110E-008  0.1858783E+04  0.7818608E-02  0.8675649E-01
         -2   -1    0    0    0  501 -0.00000000000E+00  0.00000000000E+00  0.93588746769E+03  0.93588746769E+03  0.00000000000E+00 0.  1.
          1   -1    0    0  501    0  0.00000000000E+00 -0.00000000000E+00 -0.92294103279E+03  0.92294103279E+03  0.00000000000E+00 0. -1.
        -24    2    1    2    0    0  0.12520810725E+02  0.70076103588E+03 -0.50257753614E+02  0.70695345034E+03  0.77682295624E+02 0.  0.
        254    2    1    2    0    0 -0.12520810725E+02 -0.70076103588E+03  0.63204188513E+02  0.11518750501E+04  0.91192026055E+03 0.  0.
         23    2    4    4    0    0  0.25036880240E+03 -0.69495391005E+03  0.28490732579E+03  0.79671478440E+03  0.89088658587E+02 0.  0.
         23    2    4    4    0    0 -0.26288961312E+03 -0.58071258288E+01 -0.22170313728E+03  0.35516026574E+03  0.88554287779E+02 0.  0.
          1    1    3    3  502    0  0.18644706731E+02  0.64573578420E+03 -0.66069966509E+02  0.64937475202E+03  0.00000000000E+00 0. -1.
         -2    1    3    3    0  502 -0.61238960054E+01  0.55025251673E+02  0.15812212894E+02  0.57578698323E+02  0.00000000000E+00 0.  1.
         11    1    5    5    0    0  0.19757764501E+02 -0.12279731378E+03  0.74256736011E+02  0.14485721374E+03  0.00000000000E+00 0. -1.
        -11    1    5    5    0    0  0.23061103790E+03 -0.57215659627E+03  0.21065058978E+03  0.65185757066E+03  0.00000000000E+00 0.  1.
          3    1    6    6  503    0 -0.58408378309E+02  0.51012162358E+01 -0.79790578195E+01  0.59171162127E+02  0.00000000000E+00 0. -1.
         -3    1    6    6    0  503 -0.20448123481E+03 -0.10908342065E+02 -0.21372407946E+03  0.29598910362E+03  0.00000000000E+00 0.  1.
<mgrwt>
<rscale>  0 0.18587834E+04</rscale>
<asrwt>0</asrwt>
<pdfrwt beam="1">  1        1 0.14199093E+00 0.18587834E+04</pdfrwt>
<pdfrwt beam="2">  1       -2 0.14398269E+00 0.18587834E+04</pdfrwt>
<totfact> 0.47861459E+00</totfact>
</mgrwt>
</event>
<event>
12    4  0.4413110E-008  0.1288312E+04  0.7818608E-02  0.9038885E-01
         -2   -1    0    0    0  501 -0.00000000000E+00  0.00000000000E+00  0.43782687464E+03  0.43782687464E+03  0.00000000000E+00 0.  1.
          1   -1    0    0  501    0  0.00000000000E+00 -0.00000000000E+00 -0.94771945783E+03  0.94771945783E+03  0.00000000000E+00 0. -1.
        -24    2    1    2    0    0 -0.29902251056E+03 -0.26853601361E+02 -0.26364060476E+03  0.40759626762E+03  0.80577733739E+02 0.  0.
        254    2    1    2    0    0  0.29902251056E+03  0.26853601361E+02 -0.24625197843E+03  0.97795006484E+03  0.89755819573E+03 0.  0.
         23    2    4    4    0    0 -0.14777939365E+02  0.33006379124E+03 -0.38111042006E+03  0.51208412167E+03  0.88456212952E+02 0.  0.
         23    2    4    4    0    0  0.31380044993E+03 -0.30321018988E+03  0.13485844163E+03  0.46586594317E+03  0.91853884543E+02 0.  0.
          1    1    3    3  502    0 -0.26352210887E+03 -0.41351555005E+02 -0.25336592064E+03  0.36789691859E+03  0.00000000000E+00 0. -1.
         -2    1    3    3    0  502 -0.35500401691E+02  0.14497953643E+02 -0.10274684118E+02  0.39699349034E+02  0.00000000000E+00 0.  1.
         11    1    5    5    0    0 -0.51106083580E+02  0.15404908442E+03 -0.18022259434E+03  0.24253481338E+03  0.00000000000E+00 0. -1.
        -11    1    5    5    0    0  0.36328144215E+02  0.17601470682E+03 -0.20088782572E+03  0.26954930830E+03  0.00000000000E+00 0.  1.
          4    1    6    6  503    0  0.84733821668E+02 -0.38377975597E+02  0.49873890617E+02  0.10554664614E+03  0.00000000000E+00 0. -1.
         -4    1    6    6    0  503  0.22906662826E+03 -0.26483221428E+03  0.84984551015E+02  0.36031929703E+03  0.00000000000E+00 0.  1.
<mgrwt>
<rscale>  0 0.12883121E+04</rscale>
<asrwt>0</asrwt>
<pdfrwt beam="1">  1        1 0.14580299E+00 0.12883121E+04</pdfrwt>
<pdfrwt beam="2">  1       -2 0.67357981E-01 0.12883121E+04</pdfrwt>
<totfact> 0.29004533E+01</totfact>
</mgrwt>
</event>
<event>
12    4  0.4413110E-008  0.3170687E+04  0.7818608E-02  0.8196602E-01
         -2   -1    0    0    0  501 -0.00000000000E+00  0.00000000000E+00  0.99943131412E+03  0.99943131412E+03  0.00000000000E+00 0.  1.
          1   -1    0    0  501    0  0.00000000000E+00 -0.00000000000E+00 -0.25147448072E+04  0.25147448072E+04  0.00000000000E+00 0. -1.
        -24    2    1    2    0    0 -0.51316590425E+02  0.70672910745E+03 -0.21073798642E+04  0.22247187060E+04  0.78892363541E+02 0.  0.
        254    2    1    2    0    0  0.51316590425E+02 -0.70672910745E+03  0.59206637107E+03  0.12894574154E+04  0.90003245192E+03 0.  0.
         23    2    4    4    0    0  0.32251165510E+03 -0.76307570202E+03  0.32433754357E+03  0.89410733394E+03  0.89077425625E+02 0.  0.
         23    2    4    4    0    0 -0.27119506467E+03  0.56346594573E+02  0.26772882750E+03  0.39535008141E+03  0.88889031808E+02 0.  0.
          3    1    3    3  502    0  0.94340056574E+01  0.33916863846E+03 -0.94234239773E+03  0.10015655547E+04  0.00000000000E+00 0. -1.
         -4    1    3    3    0  502 -0.60750596083E+02  0.36756046898E+03 -0.11650374664E+04  0.12231531513E+04  0.00000000000E+00 0.  1.
         11    1    5    5    0    0  0.23240737325E+03 -0.55086919862E+03  0.19035964459E+03  0.62746064053E+03  0.00000000000E+00 0.  1.
        -11    1    5    5    0    0  0.90104281846E+02 -0.21220650340E+03  0.13397789898E+03  0.26664669341E+03  0.00000000000E+00 0. -1.
          2    1    6    6  503    0 -0.27371937913E+03  0.42832925064E+02  0.25721613786E+03  0.37804377994E+03  0.00000000000E+00 0.  1.
         -2    1    6    6    0  503  0.25243144537E+01  0.13513669509E+02  0.10512689647E+02  0.17306301473E+02  0.00000000000E+00 0. -1.
<mgrwt>
<rscale>  0 0.31706874E+04</rscale>
<asrwt>0</asrwt>
<pdfrwt beam="1">  1        1 0.38688381E+00 0.31706874E+04</pdfrwt>
<pdfrwt beam="2">  1       -2 0.15375866E+00 0.31706874E+04</pdfrwt>
<totfact> 0.27382675E-01</totfact>
</mgrwt>
</event>
<event>
12    4  0.4413110E-008  0.2139233E+04  0.7818608E-02  0.8544155E-01
         -2   -1    0    0    0  501 -0.00000000000E+00  0.00000000000E+00  0.27997925052E+03  0.27997925052E+03  0.00000000000E+00 0.  1.
          1   -1    0    0  501    0  0.00000000000E+00 -0.00000000000E+00 -0.40863010876E+04  0.40863010876E+04  0.00000000000E+00 0. -1.
        -24    2    1    2    0    0 -0.24080392665E+03 -0.48014035966E+03 -0.28952570325E+04  0.29455132586E+04  0.70808022241E+02 0.  0.
        254    2    1    2    0    0  0.24080392665E+03  0.48014035966E+03 -0.91106480456E+03  0.14207670795E+04  0.94869316438E+03 0.  0.
         23    2    4    4    0    0  0.36861530555E+03  0.14448712935E+03  0.32870529198E+02  0.40694131772E+03  0.88130530157E+02 0.  0.
         23    2    4    4    0    0 -0.12781137890E+03  0.33565323031E+03 -0.94393533376E+03  0.10138257618E+04  0.88486843247E+02 0.  0.
          1    1    3    3  502    0 -0.21802702304E+03 -0.46608792153E+03 -0.27764033023E+04  0.28236835925E+04  0.00000000000E+00 0. -1.
         -2    1    3    3    0  502 -0.22776903611E+02 -0.14052438137E+02 -0.11885373025E+03  0.12182966613E+03  0.00000000000E+00 0.  1.
         11    1    5    5    0    0  0.76162995713E+02  0.38897788318E+02  0.43255856114E+02  0.95837930592E+02  0.00000000000E+00 0. -1.
        -11    1    5    5    0    0  0.29245230983E+03  0.10558934103E+03 -0.10385326916E+02  0.31110338713E+03  0.00000000000E+00 0.  1.
          3    1    6    6  503    0 -0.83225320185E+02  0.28298358073E+03 -0.82722047330E+03  0.87823679741E+03  0.00000000000E+00 0. -1.
         -3    1    6    6    0  503 -0.44586058713E+02  0.52669649585E+02 -0.11671486046E+03  0.13558896442E+03  0.00000000000E+00 0.  1.
<mgrwt>
<rscale>  0 0.21392331E+04</rscale>
<asrwt>0</asrwt>
<pdfrwt beam="1">  1        1 0.62866167E+00 0.21392331E+04</pdfrwt>
<pdfrwt beam="2">  1       -2 0.43073733E-01 0.21392331E+04</pdfrwt>
<totfact> 0.33318359E-01</totfact>
</mgrwt>
</event>
<event>
12    4  0.4413110E-008  0.2345857E+04  0.7818608E-02  0.8460057E-01
         -4   -1    0    0    0  501 -0.00000000000E+00  0.00000000000E+00  0.18484411370E+04  0.18484411370E+04  0.00000000000E+00 0.  1.
          3   -1    0    0  501    0  0.00000000000E+00 -0.00000000000E+00 -0.74428209685E+03  0.74428209685E+03  0.00000000000E+00 0. -1.
        -24    2    1    2    0    0  0.47649486596E+03  0.52996383976E+03 -0.30124709386E+03  0.77801759690E+03  0.81563109211E+02 0.  0.
        254    2    1    2    0    0 -0.47649486596E+03 -0.52996383976E+03  0.14054061340E+04  0.18147056369E+04  0.90004506471E+03 0.  0.
         23    2    4    4    0    0 -0.55974296047E+02 -0.18609019275E+02 -0.10858910522E+03  0.15969242548E+03  0.10114672297E+03 0.  0.
         23    2    4    4    0    0 -0.42052056991E+03 -0.51135482048E+03  0.15139952392E+04  0.16550132114E+04  0.92551842618E+02 0.  0.
          3    1    3    3  502    0  0.46022506810E+03  0.49157574207E+03 -0.29742548600E+03  0.73614926694E+03  0.00000000000E+00 0. -1.
         -4    1    3    3    0  502  0.16269797858E+02  0.38388097688E+02 -0.38216078655E+01  0.41868329954E+02  0.00000000000E+00 0.  1.
         11    1    5    5    0    0 -0.59619075270E+02  0.29866203786E+02 -0.76310970946E+02  0.10133996522E+03  0.00000000000E+00 0. -1.
        -11    1    5    5    0    0  0.36447792233E+01 -0.48475223061E+02 -0.32278134273E+02  0.58352460261E+02  0.00000000000E+00 0.  1.
          1    1    6    6  503    0 -0.20538326055E+03 -0.28213419895E+03  0.69343148912E+03  0.77629196829E+03  0.00000000000E+00 0. -1.
         -1    1    6    6    0  503 -0.21513730936E+03 -0.22922062153E+03  0.82056375007E+03  0.87872124314E+03  0.00000000000E+00 0.  1.
<mgrwt>
<rscale>  0 0.23458573E+04</rscale>
<asrwt>0</asrwt>
<pdfrwt beam="1">  1        3 0.11450494E+00 0.23458573E+04</pdfrwt>
<pdfrwt beam="2">  1       -4 0.28437556E+00 0.23458573E+04</pdfrwt>
<totfact> 0.50467566E-02</totfact>
</mgrwt>
</event>
<event>
12    4  0.4413110E-008  0.1707661E+04  0.7818608E-02  0.8757007E-01
         -2   -1    0    0    0  501 -0.00000000000E+00  0.00000000000E+00  0.47559210177E+03  0.47559210177E+03  0.00000000000E+00 0.  1.
          1   -1    0    0  501    0  0.00000000000E+00 -0.00000000000E+00 -0.15328814079E+04  0.15328814079E+04  0.00000000000E+00 0. -1.
        -24    2    1    2    0    0  0.17976575132E+03  0.35899121889E+03 -0.91734536035E+03  0.10045350764E+04  0.79861059904E+02 0.  0.
        254    2    1    2    0    0 -0.17976575132E+03 -0.35899121889E+03 -0.13994394581E+03  0.10039384333E+04  0.90946008674E+03 0.  0.
         23    2    4    4    0    0  0.25149592948E+03 -0.14355936869E+03  0.23721365187E+03  0.38506932548E+03  0.90269451681E+02 0.  0.
         23    2    4    4    0    0 -0.43126168080E+03 -0.21543185020E+03 -0.37715759768E+03  0.61886910786E+03  0.91398029394E+02 0.  0.
          1    1    3    3  502    0  0.11499481488E+03  0.28229229120E+03 -0.74718507257E+03  0.80696857300E+03  0.00000000000E+00 0. -1.
         -2    1    3    3    0  502  0.64770936437E+02  0.76698927685E+02 -0.17016028778E+03  0.19756650336E+03  0.00000000000E+00 0.  1.
         11    1    5    5    0    0  0.11112994986E+03 -0.11381948346E+03  0.13839558035E+03  0.21085084119E+03  0.00000000000E+00 0.  1.
        -11    1    5    5    0    0  0.14036597961E+03 -0.29739885229E+02  0.98818071523E+02  0.17421848428E+03  0.00000000000E+00 0. -1.
          2    1    6    6  503    0 -0.17923606262E+02 -0.29987965094E+02 -0.45727342295E+02  0.57545838645E+02  0.00000000000E+00 0. -1.
         -2    1    6    6    0  503 -0.41333807453E+03 -0.18544388510E+03 -0.33143025539E+03  0.56132326922E+03  0.00000000000E+00 0.  1.
<mgrwt>
<rscale>  0 0.17076607E+04</rscale>
<asrwt>0</asrwt>
<pdfrwt beam="1">  1        1 0.23582791E+00 0.17076607E+04</pdfrwt>
<pdfrwt beam="2">  1       -2 0.73168015E-01 0.17076607E+04</pdfrwt>
<totfact> 0.87375837E+00</totfact>
</mgrwt>
</event>
<event>
12    4  0.4413110E-008  0.1828090E+04  0.7818608E-02  0.8691503E-01
         -2   -1    0    0    0  501 -0.00000000000E+00  0.00000000000E+00  0.10048836981E+04  0.10048836981E+04  0.00000000000E+00 0.  1.
          1   -1    0    0  501    0  0.00000000000E+00 -0.00000000000E+00 -0.83141743029E+03  0.83141743029E+03  0.00000000000E+00 0. -1.
        -24    2    1    2    0    0  0.30672167629E+03 -0.22806385872E+03  0.64006473458E+03  0.74982871583E+03  0.80429647929E+02 0.  0.
        254    2    1    2    0    0 -0.30672167629E+03  0.22806385872E+03 -0.46659846680E+03  0.10864724125E+04  0.90366855849E+03 0.  0.
         23    2    4    4    0    0 -0.34287119873E+03  0.37541228252E+03  0.70408006464E+02  0.52115722300E+03  0.90291322511E+02 0.  0.
         23    2    4    4    0    0  0.36149522439E+02 -0.14734842380E+03 -0.53700647326E+03  0.56531518953E+03  0.90481850202E+02 0.  0.
          1    1    3    3  502    0  0.82188187135E+02 -0.10572068566E+03  0.19528854204E+03  0.23678972978E+03  0.00000000000E+00 0. -1.
         -2    1    3    3    0  502  0.22453348916E+03 -0.12234317307E+03  0.44477619255E+03  0.51303898605E+03  0.00000000000E+00 0.  1.
         11    1    5    5    0    0 -0.30951508210E+03  0.36899511674E+03  0.72868670237E+02  0.48710042632E+03  0.00000000000E+00 0.  1.
        -11    1    5    5    0    0 -0.33356116635E+02  0.64171657864E+01 -0.24606637739E+01  0.34056796677E+02  0.00000000000E+00 0. -1.
          4    1    6    6  503    0  0.61701823258E+02 -0.12904872347E+03 -0.40174127445E+03  0.42644664334E+03  0.00000000000E+00 0.  1.
         -4    1    6    6    0  503 -0.25552300819E+02 -0.18299700329E+02 -0.13526519882E+03  0.13886854619E+03  0.00000000000E+00 0. -1.
<mgrwt>
<rscale>  0 0.18280895E+04</rscale>
<asrwt>0</asrwt>
<pdfrwt beam="1">  1        1 0.12791037E+00 0.18280895E+04</pdfrwt>
<pdfrwt beam="2">  1       -2 0.15459749E+00 0.18280895E+04</pdfrwt>
<totfact> 0.47338393E+00</totfact>
</mgrwt>
</event>
<event>
12    4  0.4413110E-008  0.1845703E+04  0.7818608E-02  0.8682366E-01
          1   -1    0    0  501    0  0.00000000000E+00  0.00000000000E+00  0.61423911833E+03  0.61423911833E+03  0.00000000000E+00 0. -1.
         -2   -1    0    0    0  501 -0.00000000000E+00 -0.00000000000E+00 -0.13865199044E+04  0.13865199044E+04  0.00000000000E+00 0.  1.
        -24    2    1    2    0    0 -0.17338734459E+03 -0.58300506080E+03  0.18031406499E+02  0.61381366175E+03  0.80523335468E+02 0.  0.
        254    2    1    2    0    0  0.17338734459E+03  0.58300506080E+03 -0.79031219253E+03  0.13869453609E+04  0.96388069822E+03 0.  0.
         23    2    4    4    0    0 -0.35327578325E+03  0.36611731725E+03 -0.56955669258E+03  0.76944553524E+03  0.93839952094E+02 0.  0.
         23    2    4    4    0    0  0.52666312785E+03  0.21688774355E+03 -0.22075549995E+03  0.61749982571E+03  0.90325524943E+02 0.  0.
          3    1    3    3  502    0 -0.14190321770E+03 -0.53982302821E+03  0.30293297054E+02  0.55898399693E+03  0.00000000000E+00 0. -1.
         -4    1    3    3    0  502 -0.31484126889E+02 -0.43182032585E+02 -0.12261890555E+02  0.54829664819E+02  0.00000000000E+00 0.  1.
         11    1    5    5    0    0 -0.38037089980E+02  0.20826843121E+02 -0.19554194720E+02  0.47570412439E+02  0.00000000000E+00 0. -1.
        -11    1    5    5    0    0 -0.31523869328E+03  0.34529047413E+03 -0.55000249786E+03  0.72187512280E+03  0.00000000000E+00 0.  1.
          2    1    6    6  503    0  0.22137506626E+03  0.79190171547E+02 -0.45370202655E+02  0.23945032579E+03  0.00000000000E+00 0. -1.
         -2    1    6    6    0  503  0.30528806159E+03  0.13769757200E+03 -0.17538529729E+03  0.37804949992E+03  0.00000000000E+00 0.  1.
<mgrwt>
<rscale>  0 0.18457029E+04</rscale>
<asrwt>0</asrwt>
<pdfrwt beam="1">  1        1 0.94498326E-01 0.18457029E+04</pdfrwt>
<pdfrwt beam="2">  1       -2 0.21331075E+00 0.18457029E+04</pdfrwt>
<totfact> 0.29679891E+00</totfact>
</mgrwt>
</event>
<event>
12    4  0.4413110E-008  0.1914894E+04  0.7818608E-02  0.8647478E-01
         -2   -1    0    0    0  501 -0.00000000000E+00  0.00000000000E+00  0.81929214615E+03  0.81929214615E+03  0.00000000000E+00 0.  1.
          1   -1    0    0  501    0  0.00000000000E+00 -0.00000000000E+00 -0.11188981468E+04  0.11188981468E+04  0.00000000000E+00 0. -1.
        -24    2    1    2    0    0  0.37509905413E+02 -0.67061118301E+03  0.21041879219E+03  0.70845124114E+03  0.80627174005E+02 0.  0.
        254    2    1    2    0    0 -0.37509905413E+02  0.67061118301E+03 -0.51002479281E+03  0.12297390518E+04  0.89498966162E+03 0.  0.
         23    2    4    4    0    0 -0.12287689360E+03  0.66390951061E+03  0.22805604505E+02  0.68173332983E+03  0.91464026544E+02 0.  0.
         23    2    4    4    0    0  0.85366988184E+02  0.67016724060E+01 -0.53283039732E+03  0.54800572195E+03  0.95234468017E+02 0.  0.
          1    1    3    3  502    0 -0.77183714135E+01 -0.12967943337E+03  0.11832498088E+02  0.13044668148E+03  0.00000000000E+00 0. -1.
         -2    1    3    3    0  502  0.45228276826E+02 -0.54093174964E+03  0.19858629410E+03  0.57800455967E+03  0.00000000000E+00 0.  1.
         11    1    5    5    0    0 -0.84042459265E+02  0.22069239297E+03 -0.14490691061E+01  0.23615750480E+03  0.00000000000E+00 0. -1.
        -11    1    5    5    0    0 -0.38834434332E+02  0.44321711764E+03  0.24254673611E+02  0.44557582503E+03  0.00000000000E+00 0.  1.
          3    1    6    6  503    0 -0.68493405289E+01  0.67302238472E+01 -0.25678801507E+03  0.25696749612E+03  0.00000000000E+00 0. -1.
         -3    1    6    6    0  503  0.92216328713E+02 -0.28551441250E-01 -0.27604238224E+03  0.29103822583E+03  0.00000000000E+00 0.  1.
<mgrwt>
<rscale>  0 0.19148937E+04</rscale>
<asrwt>0</asrwt>
<pdfrwt beam="1">  1        1 0.17213818E+00 0.19148937E+04</pdfrwt>
<pdfrwt beam="2">  1       -2 0.12604495E+00 0.19148937E+04</pdfrwt>
<totfact> 0.47214947E+00</totfact>
</mgrwt>
</event>
<event>
12    4  0.4413110E-008  0.1802956E+04  0.7818608E-02  0.8704729E-01
         -2   -1    0    0    0  501 -0.00000000000E+00  0.00000000000E+00  0.22595083537E+03  0.22595083537E+03  0.00000000000E+00 0.  1.
          1   -1    0    0  501    0  0.00000000000E+00 -0.00000000000E+00 -0.35966356168E+04  0.35966356168E+04  0.00000000000E+00 0. -1.
        -24    2    1    2    0    0 -0.70825326765E+02  0.24872771538E+03  0.52686728137E+02  0.27593120572E+03  0.80501153142E+02 0.  0.
        254    2    1    2    0    0  0.70825326765E+02 -0.24872771538E+03 -0.34233715096E+04  0.35466552465E+04  0.89017371413E+03 0.  0.
         23    2    4    4    0    0  0.15985415262E+03 -0.52799649257E+03 -0.15386174061E+04  0.16370439276E+04  0.90750493918E+02 0.  0.
         23    2    4    4    0    0 -0.89028825851E+02  0.27926877719E+03 -0.18847541035E+04  0.19096113189E+04  0.91652479121E+02 0.  0.
          3    1    3    3  502    0  0.55590666503E+01  0.12593926421E+03  0.29616135407E+02  0.12949408083E+03  0.00000000000E+00 0. -1.
         -2    1    3    3    0  502 -0.76384393415E+02  0.12278845116E+03  0.23070592731E+02  0.14643712489E+03  0.00000000000E+00 0.  1.
         11    1    5    5    0    0  0.18978944138E+01  0.37013690934E+01 -0.78324091223E+01  0.88684141215E+01  0.00000000000E+00 0. -1.
        -11    1    5    5    0    0  0.15795625820E+03 -0.53169786166E+03 -0.15307849970E+04  0.16281755134E+04  0.00000000000E+00 0.  1.
          4    1    6    6  503    0 -0.98085754459E+02  0.25277446063E+03 -0.18011374799E+04  0.18214312956E+04  0.00000000000E+00 0.  1.
         -4    1    6    6    0  503  0.90569286084E+01  0.26494316554E+02 -0.83616623576E+02  0.88180023269E+02  0.00000000000E+00 0. -1.
<mgrwt>
<rscale>  0 0.18029563E+04</rscale>
<asrwt>0</asrwt>
<pdfrwt beam="1">  1        1 0.55332858E+00 0.18029563E+04</pdfrwt>
<pdfrwt beam="2">  1       -2 0.34761665E-01 0.18029563E+04</pdfrwt>
<totfact> 0.13562588E+00</totfact>
</mgrwt>
</event>
<event>
12    4  0.4413110E-008  0.1141575E+04  0.7818608E-02  0.9165592E-01
         -2   -1    0    0    0  501 -0.00000000000E+00  0.00000000000E+00  0.17632086376E+04  0.17632086376E+04  0.00000000000E+00 0.  1.
          1   -1    0    0  501    0  0.00000000000E+00 -0.00000000000E+00 -0.18477570646E+03  0.18477570646E+03  0.00000000000E+00 0. -1.
        -24    2    1    2    0    0 -0.12060535140E+03  0.13826814187E+03  0.35687923263E+03  0.40898067156E+03  0.78985271954E+02 0.  0.
        254    2    1    2    0    0  0.12060535140E+03 -0.13826814187E+03  0.12215536985E+04  0.15390036725E+04  0.91797338511E+03 0.  0.
         23    2    4    4    0    0  0.26956023300E+03 -0.40574631576E+03  0.10829377921E+04  0.11908010095E+04  0.89218779095E+02 0.  0.
         23    2    4    4    0    0 -0.14895488160E+03  0.26747817389E+03  0.13861590633E+03  0.34820266300E+03  0.91096623259E+02 0.  0.
          1    1    3    3  502    0 -0.73038605243E+02  0.31883516108E+02  0.10851077671E+03  0.13463203600E+03  0.00000000000E+00 0. -1.
         -2    1    3    3    0  502 -0.47566746158E+02  0.10638462576E+03  0.24836845592E+03  0.27434863556E+03  0.00000000000E+00 0.  1.
         11    1    5    5    0    0  0.20655240277E+03 -0.35465334827E+03  0.95302843361E+03  0.10376444901E+04  0.00000000000E+00 0.  1.
        -11    1    5    5    0    0  0.63007830232E+02 -0.51092967491E+02  0.12990935852E+03  0.15315651938E+03  0.00000000000E+00 0. -1.
          1    1    6    6  503    0 -0.53764217493E+02  0.13315352489E+03  0.11048328062E+03  0.18118224960E+03  0.00000000000E+00 0. -1.
         -1    1    6    6    0  503 -0.95190664109E+02  0.13432464900E+03  0.28132625716E+02  0.16702041340E+03  0.00000000000E+00 0.  1.
<mgrwt>
<rscale>  0 0.11415746E+04</rscale>
<asrwt>0</asrwt>
<pdfrwt beam="1">  1        1 0.28427033E-01 0.11415746E+04</pdfrwt>
<pdfrwt beam="2">  1       -2 0.27126286E+00 0.11415746E+04</pdfrwt>
<totfact> 0.68437719E+00</totfact>
</mgrwt>
</event>
<event>
12    4  0.4413110E-008  0.1623033E+04  0.7818608E-02  0.8806522E-01
          1   -1    0    0  501    0  0.00000000000E+00  0.00000000000E+00  0.34654262764E+04  0.34654262764E+04  0.00000000000E+00 0. -1.
         -2   -1    0    0    0  501 -0.00000000000E+00 -0.00000000000E+00 -0.19003692995E+03  0.19003692995E+03  0.00000000000E+00 0.  1.
        -24    2    1    2    0    0 -0.53513048040E+03  0.21529654795E+03  0.13801251490E+04  0.14978964128E+04  0.78936696269E+02 0.  0.
        254    2    1    2    0    0  0.53513048040E+03 -0.21529654795E+03  0.18952641975E+04  0.21575667936E+04  0.85460567271E+03 0.  0.
         23    2    4    4    0    0  0.59183255359E+03  0.14024286392E+03  0.14673681548E+04  0.15909293256E+04  0.89179509205E+02 0.  0.
         23    2    4    4    0    0 -0.56702073189E+02 -0.35553941187E+03  0.42789604270E+03  0.56663746802E+03  0.91430838901E+02 0.  0.
          3    1    3    3  502    0 -0.44973724366E+03  0.20920461725E+03  0.11525714292E+04  0.12547713176E+04  0.00000000000E+00 0. -1.
         -4    1    3    3    0  502 -0.85393236745E+02  0.60919306989E+01  0.22755371981E+03  0.24312509517E+03  0.00000000000E+00 0.  1.
         11    1    5    5    0    0  0.53609620878E+03  0.13777356061E+03  0.13843339610E+04  0.14908927576E+04  0.00000000000E+00 0. -1.
        -11    1    5    5    0    0  0.55736344813E+02  0.24693033150E+01  0.83034193793E+02  0.10003656797E+03  0.00000000000E+00 0.  1.
          1    1    6    6  503    0  0.19939367661E+01 -0.98551947458E+02  0.64879923919E+02  0.11800790931E+03  0.00000000000E+00 0. -1.
         -1    1    6    6    0  503 -0.58696009955E+02 -0.25698746441E+03  0.36301611878E+03  0.44862955871E+03  0.00000000000E+00 0.  1.
<mgrwt>
<rscale>  0 0.16230329E+04</rscale>
<asrwt>0</asrwt>
<pdfrwt beam="1">  1        1 0.53314246E+00 0.16230329E+04</pdfrwt>
<pdfrwt beam="2">  1       -2 0.29236453E-01 0.16230329E+04</pdfrwt>
<totfact> 0.24291992E+00</totfact>
</mgrwt>
</event>
<event>
12    4  0.4413110E-008  0.1884564E+04  0.7818608E-02  0.8662578E-01
         -2   -1    0    0    0  501 -0.00000000000E+00  0.00000000000E+00  0.90039332336E+03  0.90039332336E+03  0.00000000000E+00 0.  1.
          1   -1    0    0  501    0  0.00000000000E+00 -0.00000000000E+00 -0.98611955517E+03  0.98611955517E+03  0.00000000000E+00 0. -1.
        -24    2    1    2    0    0  0.12128096978E+03 -0.69352024653E+03  0.12341023773E+03  0.71925029512E+03  0.80071806970E+02 0.  0.
        254    2    1    2    0    0 -0.12128096978E+03  0.69352024653E+03 -0.20913646953E+03  0.11672625834E+04  0.90724002874E+03 0.  0.
         23    2    4    4    0    0 -0.15357722699E+03 -0.17032479301E+03 -0.16384620438E+03  0.29689213026E+03  0.93289112763E+02 0.  0.
         23    2    4    4    0    0  0.32296257205E+02  0.86384503954E+03 -0.45290265155E+02  0.87037045314E+03  0.90676441366E+02 0.  0.
          1    1    3    3  502    0  0.86659364970E+02 -0.50049653704E+03  0.52205698510E+02  0.51061929467E+03  0.00000000000E+00 0. -1.
         -2    1    3    3    0  502  0.34621604813E+02 -0.19302370949E+03  0.71204539215E+02  0.20863100045E+03  0.00000000000E+00 0.  1.
         11    1    5    5    0    0 -0.11388410463E+03 -0.57698152064E+02 -0.75182411104E+02  0.14815890448E+03  0.00000000000E+00 0.  1.
        -11    1    5    5    0    0 -0.39693122362E+02 -0.11262664095E+03 -0.88663793273E+02  0.14873322578E+03  0.00000000000E+00 0. -1.
          4    1    6    6  503    0  0.44845706376E+02  0.22452931194E+03  0.43733663693E+01  0.22900584193E+03  0.00000000000E+00 0. -1.
         -4    1    6    6    0  503 -0.12549449172E+02  0.63931572760E+03 -0.49663631524E+02  0.64136461122E+03  0.00000000000E+00 0.  1.
<mgrwt>
<rscale>  0 0.18845641E+04</rscale>
<asrwt>0</asrwt>
<pdfrwt beam="1">  1        1 0.15171070E+00 0.18845641E+04</pdfrwt>
<pdfrwt beam="2">  1       -2 0.13852205E+00 0.18845641E+04</pdfrwt>
<totfact> 0.47038638E+00</totfact>
</mgrwt>
</event>
<event>
12    4  0.4413110E-008  0.1696337E+04  0.7818608E-02  0.8763456E-01
         -2   -1    0    0    0  501 -0.00000000000E+00  0.00000000000E+00  0.96247413133E+03  0.96247413133E+03  0.00000000000E+00 0.  1.
          1   -1    0    0  501    0  0.00000000000E+00 -0.00000000000E+00 -0.74743847250E+03  0.74743847250E+03  0.00000000000E+00 0. -1.
        -24    2    1    2    0    0 -0.37112990190E+03 -0.23128034283E+03  0.49844271510E+03  0.66807177675E+03  0.81527649246E+02 0.  0.
        254    2    1    2    0    0  0.37112990190E+03  0.23128034283E+03 -0.28340705627E+03  0.10418408271E+04  0.90215561207E+03 0.  0.
         23    2    4    4    0    0  0.59291240608E+03 -0.49635772402E+02 -0.29816948240E+03  0.67233347709E+03  0.95490486460E+02 0.  0.
         23    2    4    4    0    0 -0.22178250418E+03  0.28091611523E+03  0.14762426132E+02  0.36950734999E+03  0.90644412491E+02 0.  0.
          1    1    3    3  502    0 -0.56487121186E+02 -0.28770215785E+02  0.34940811648E+02  0.72383565088E+02  0.00000000000E+00 0. -1.
         -2    1    3    3    0  502 -0.31464278071E+03 -0.20251012704E+03  0.46350190345E+03  0.59568821166E+03  0.00000000000E+00 0.  1.
         11    1    5    5    0    0  0.55553772495E+02  0.66255839978E+01 -0.59494321905E+02  0.81668196629E+02  0.00000000000E+00 0. -1.
        -11    1    5    5    0    0  0.53735863358E+03 -0.56261356399E+02 -0.23867516050E+03  0.59066528047E+03  0.00000000000E+00 0.  1.
          1    1    6    6  503    0  0.22533568699E+01  0.39399438088E+02 -0.31800881037E+01  0.39591745342E+02  0.00000000000E+00 0. -1.
         -1    1    6    6    0  503 -0.22403586105E+03  0.24151667714E+03  0.17942514236E+02  0.32991560465E+03  0.00000000000E+00 0.  1.
<mgrwt>
<rscale>  0 0.16963375E+04</rscale>
<asrwt>0</asrwt>
<pdfrwt beam="1">  1        1 0.11499053E+00 0.16963375E+04</pdfrwt>
<pdfrwt beam="2">  1       -2 0.14807294E+00 0.16963375E+04</pdfrwt>
<totfact> 0.63622220E+00</totfact>
</mgrwt>
</event>
<event>
12    4  0.4413110E-008  0.2283446E+04  0.7818608E-02  0.8484477E-01
          1   -1    0    0  501    0  0.00000000000E+00  0.00000000000E+00  0.15809863324E+04  0.15809863324E+04  0.00000000000E+00 0. -1.
         -2   -1    0    0    0  501 -0.00000000000E+00 -0.00000000000E+00 -0.82450545714E+03  0.82450545714E+03  0.00000000000E+00 0.  1.
        -24    2    1    2    0    0  0.22141547160E+03  0.33241006879E+02  0.13044192809E+04  0.13258636968E+04  0.79215570484E+02 0.  0.
        254    2    1    2    0    0 -0.22141547160E+03 -0.33241006879E+02 -0.54793840555E+03  0.10796280928E+04  0.90290118331E+03 0.  0.
         23    2    4    4    0    0  0.27751495731E+03 -0.37892378236E+02  0.46586348077E+02  0.29816546349E+03  0.91005340155E+02 0.  0.
         23    2    4    4    0    0 -0.49893042891E+03  0.46513713566E+01 -0.59452475363E+03  0.78146262928E+03  0.90944764245E+02 0.  0.
          1    1    3    3  502    0  0.20875489520E+03  0.79437407546E+01  0.11258628656E+04  0.11450803034E+04  0.00000000000E+00 0. -1.
         -2    1    3    3    0  502  0.12660576398E+02  0.25297266124E+02  0.17855641530E+03  0.18078339336E+03  0.00000000000E+00 0.  1.
         11    1    5    5    0    0  0.21567526422E+03  0.82893563633E+01  0.20998892332E+02  0.21685360616E+03  0.00000000000E+00 0. -1.
        -11    1    5    5    0    0  0.61839693082E+02 -0.46181734599E+02  0.25587455746E+02  0.81311857331E+02  0.00000000000E+00 0.  1.
          4    1    6    6  503    0 -0.45617988195E+03  0.19714495569E+02 -0.56861136206E+03  0.72925141556E+03  0.00000000000E+00 0. -1.
         -4    1    6    6    0  503 -0.42750546951E+02 -0.15063124212E+02 -0.25913391574E+02  0.52211213724E+02  0.00000000000E+00 0.  1.
<mgrwt>
<rscale>  0 0.22834464E+04</rscale>
<asrwt>0</asrwt>
<pdfrwt beam="1">  1        1 0.24322867E+00 0.22834464E+04</pdfrwt>
<pdfrwt beam="2">  1       -2 0.12684699E+00 0.22834464E+04</pdfrwt>
<totfact> 0.21122261E+00</totfact>
</mgrwt>
</event>
<event>
12    4  0.4413110E-008  0.1345623E+04  0.7818608E-02  0.8994148E-01
          1   -1    0    0  501    0  0.00000000000E+00  0.00000000000E+00  0.15277292528E+04  0.15277292528E+04  0.00000000000E+00 0. -1.
         -2   -1    0    0    0  501 -0.00000000000E+00 -0.00000000000E+00 -0.29630604085E+03  0.29630604085E+03  0.00000000000E+00 0.  1.
        -24    2    1    2    0    0  0.29653881039E+03 -0.19486542906E+03  0.21710159744E+03  0.42353052055E+03  0.79606511761E+02 0.  0.
        254    2    1    2    0    0 -0.29653881039E+03  0.19486542906E+03  0.10143216145E+04  0.14005047731E+04  0.89814112495E+03 0.  0.
         23    2    4    4    0    0  0.10806096410E+03  0.34001061550E+03  0.86054931546E+03  0.93544267710E+03  0.84991100601E+02 0.  0.
         23    2    4    4    0    0 -0.40459977449E+03 -0.14514518644E+03  0.15377229908E+03  0.46506209603E+03  0.88705865281E+02 0.  0.
          1    1    3    3  502    0  0.14997582733E+02 -0.35917022233E+02  0.12334709952E+02  0.40830197692E+02  0.00000000000E+00 0. -1.
         -2    1    3    3    0  502  0.28154122766E+03 -0.15894840683E+03  0.20476688748E+03  0.38270032285E+03  0.00000000000E+00 0.  1.
         11    1    5    5    0    0  0.67583090654E+02  0.29670456043E+03  0.66958843103E+03  0.73549285333E+03  0.00000000000E+00 0.  1.
        -11    1    5    5    0    0  0.40477873445E+02  0.43306055071E+02  0.19096088443E+03  0.19994982378E+03  0.00000000000E+00 0. -1.
          4    1    6    6  503    0 -0.93506633457E+02 -0.17740672406E+02 -0.51576076062E+00  0.95176089261E+02  0.00000000000E+00 0. -1.
         -4    1    6    6    0  503 -0.31109314103E+03 -0.12740451404E+03  0.15428805984E+03  0.36988600677E+03  0.00000000000E+00 0.  1.
<mgrwt>
<rscale>  0 0.13456231E+04</rscale>
<asrwt>0</asrwt>
<pdfrwt beam="1">  1        1 0.23503526E+00 0.13456231E+04</pdfrwt>
<pdfrwt beam="2">  1       -2 0.45585546E-01 0.13456231E+04</pdfrwt>
<totfact> 0.24537942E+01</totfact>
</mgrwt>
</event>
<event>
12    4  0.4413110E-008  0.1656321E+04  0.7818608E-02  0.8786676E-01
          1   -1    0    0  501    0  0.00000000000E+00  0.00000000000E+00  0.81152506391E+03  0.81152506391E+03  0.00000000000E+00 0. -1.
         -2   -1    0    0    0  501 -0.00000000000E+00 -0.00000000000E+00 -0.84513707120E+03  0.84513707120E+03  0.00000000000E+00 0.  1.
        -24    2    1    2    0    0 -0.85339484287E+02  0.40363713844E+03  0.41651724805E+03  0.59179145363E+03  0.80775859979E+02 0.  0.
        254    2    1    2    0    0  0.85339484287E+02 -0.40363713844E+03 -0.45012925533E+03  0.10648706815E+04  0.87242618866E+03 0.  0.
         23    2    4    4    0    0 -0.33070550701E+03 -0.23677075137E+03  0.75091875800E+01  0.41770306787E+03  0.94831133826E+02 0.  0.
         23    2    4    4    0    0  0.41604499130E+03 -0.16686638708E+03 -0.45763844291E+03  0.64716761361E+03  0.91951888245E+02 0.  0.
          1    1    3    3  502    0 -0.94818641633E+02  0.26964390381E+03  0.27402482984E+03  0.39596466639E+03  0.00000000000E+00 0. -1.
         -2    1    3    3    0  502  0.94791573459E+01  0.13399323463E+03  0.14249241821E+03  0.19582678724E+03  0.00000000000E+00 0.  1.
         11    1    5    5    0    0 -0.31130956008E+03 -0.21882286921E+03 -0.18035117397E+02  0.38094928238E+03  0.00000000000E+00 0.  1.
        -11    1    5    5    0    0 -0.19395946929E+02 -0.17947882152E+02  0.25544304977E+02  0.36753785489E+02  0.00000000000E+00 0. -1.
          3    1    6    6  503    0 -0.23460102405E-01 -0.13112220460E+02 -0.70663063098E+01  0.14895085116E+02  0.00000000000E+00 0. -1.
         -3    1    6    6    0  503  0.41606845140E+03 -0.15375416662E+03 -0.45057213660E+03  0.63227252849E+03  0.00000000000E+00 0.  1.
<mgrwt>
<rscale>  0 0.16563211E+04</rscale>
<asrwt>0</asrwt>
<pdfrwt beam="1">  1        1 0.12485001E+00 0.16563211E+04</pdfrwt>
<pdfrwt beam="2">  1       -2 0.13002109E+00 0.16563211E+04</pdfrwt>
<totfact> 0.78456661E+00</totfact>
</mgrwt>
</event>
<event>
12    4  0.4413110E-008  0.1694070E+04  0.7818608E-02  0.8764754E-01
         -2   -1    0    0    0  501 -0.00000000000E+00  0.00000000000E+00  0.14054276644E+04  0.14054276644E+04  0.00000000000E+00 0.  1.
          1   -1    0    0  501    0  0.00000000000E+00 -0.00000000000E+00 -0.51049801273E+03  0.51049801273E+03  0.00000000000E+00 0. -1.
        -24    2    1    2    0    0  0.12826340573E+03 -0.21341218253E+03 -0.30007950463E+03  0.39797912215E+03  0.79645537612E+02 0.  0.
        254    2    1    2    0    0 -0.12826340573E+03  0.21341218253E+03  0.11950091563E+04  0.15179465550E+04  0.90228520949E+03 0.  0.
         23    2    4    4    0    0  0.18073796643E+03  0.24142526676E+03  0.11473440608E+04  0.11895815997E+04  0.88054622680E+02 0.  0.
         23    2    4    4    0    0 -0.30900137216E+03 -0.28013084224E+02  0.47665095483E+02  0.32836495526E+03  0.96358713313E+02 0.  0.
          3    1    3    3  502    0  0.12050581150E+03 -0.20786454269E+03 -0.24901438798E+03  0.34603104504E+03  0.00000000000E+00 0. -1.
         -4    1    3    3    0  502  0.77575942250E+01 -0.55476398476E+01 -0.51065116655E+02  0.51948077106E+02  0.00000000000E+00 0.  1.
         11    1    5    5    0    0  0.13334670427E+02  0.35269952512E+02  0.27901071739E+03  0.28154708914E+03  0.00000000000E+00 0. -1.
        -11    1    5    5    0    0  0.16740329601E+03  0.20615531425E+03  0.86833334343E+03  0.90803451059E+03  0.00000000000E+00 0.  1.
          1    1    6    6  503    0 -0.10014633861E+02  0.14348694063E+02  0.17732508129E+02  0.24912241112E+02  0.00000000000E+00 0. -1.
         -1    1    6    6    0  503 -0.29898673830E+03 -0.42361778287E+02  0.29932587354E+02  0.30345271415E+03  0.00000000000E+00 0.  1.
<mgrwt>
<rscale>  0 0.16940697E+04</rscale>
<asrwt>0</asrwt>
<pdfrwt beam="1">  1        1 0.78538157E-01 0.16940697E+04</pdfrwt>
<pdfrwt beam="2">  1       -2 0.21621964E+00 0.16940697E+04</pdfrwt>
<totfact> 0.37445074E+00</totfact>
</mgrwt>
</event>
<event>
12    4  0.4413110E-008  0.1076147E+04  0.7818608E-02  0.9228758E-01
          1   -1    0    0  501    0  0.00000000000E+00  0.00000000000E+00  0.10084480036E+04  0.10084480036E+04  0.00000000000E+00 0. -1.
         -2   -1    0    0    0  501 -0.00000000000E+00 -0.00000000000E+00 -0.28709764167E+03  0.28709764167E+03  0.00000000000E+00 0.  1.
        -24    2    1    2    0    0  0.11168140031E+03  0.38206289535E+02  0.21291973161E+03  0.25532049915E+03  0.76949915156E+02 0.  0.
        254    2    1    2    0    0 -0.11168140031E+03 -0.38206289535E+02  0.50843063030E+03  0.10402251461E+04  0.89979675096E+03 0.  0.
         23    2    4    4    0    0  0.34778908335E+03 -0.10037092112E+03  0.41599580256E+03  0.55882237604E+03  0.90544861353E+02 0.  0.
         23    2    4    4    0    0 -0.45947048366E+03  0.62164631582E+02  0.92434827744E+02  0.48140277007E+03  0.90702055518E+02 0.  0.
          3    1    3    3  502    0  0.12226117640E+03  0.30337400921E+02  0.17859575556E+03  0.21855113143E+03  0.00000000000E+00 0. -1.
         -4    1    3    3    0  502 -0.10579776088E+02  0.78688886145E+01  0.34323976057E+02  0.36769367719E+02  0.00000000000E+00 0.  1.
         11    1    5    5    0    0  0.28900504197E+03 -0.11413647731E+03  0.32518628324E+03  0.44977457526E+03  0.00000000000E+00 0. -1.
        -11    1    5    5    0    0  0.58784041376E+02  0.13765556194E+02  0.90809519314E+02  0.10904780078E+03  0.00000000000E+00 0.  1.
          3    1    6    6  503    0 -0.28237339497E+03  0.67069514603E+02  0.91242122003E+02  0.30423375684E+03  0.00000000000E+00 0. -1.
         -3    1    6    6    0  503 -0.17709708869E+03 -0.49048830209E+01  0.11927057408E+01  0.17716901322E+03  0.00000000000E+00 0.  1.
<mgrwt>
<rscale>  0 0.10761469E+04</rscale>
<asrwt>0</asrwt>
<pdfrwt beam="1">  1        1 0.15514584E+00 0.10761469E+04</pdfrwt>
<pdfrwt beam="2">  1       -2 0.44168869E-01 0.10761469E+04</pdfrwt>
<totfact> 0.63364612E+01</totfact>
</mgrwt>
</event>
<event>
12    4  0.4413110E-008  0.1518310E+04  0.7818608E-02  0.8872368E-01
          1   -1    0    0  501    0  0.00000000000E+00  0.00000000000E+00  0.67258303348E+03  0.67258303348E+03  0.00000000000E+00 0. -1.
         -2   -1    0    0    0  501 -0.00000000000E+00 -0.00000000000E+00 -0.85686968283E+03  0.85686968283E+03  0.00000000000E+00 0.  1.
        -24    2    1    2    0    0 -0.32480213176E+03  0.99790444351E+02  0.28232327571E+03  0.44882072681E+03  0.79240489853E+02 0.  0.
        254    2    1    2    0    0  0.32480213176E+03 -0.99790444351E+02 -0.46660992505E+03  0.10806319895E+04  0.91355684935E+03 0.  0.
         23    2    4    4    0    0  0.16568054289E+03  0.25447446128E+03  0.14766391308E+03  0.34822658335E+03  0.85145924119E+02 0.  0.
         23    2    4    4    0    0  0.15912158887E+03 -0.35426490563E+03 -0.61427383813E+03  0.73240540615E+03  0.90895694877E+02 0.  0.
          3    1    3    3  502    0 -0.22396709222E+03  0.29546848502E+02  0.17754106906E+03  0.28732404330E+03  0.00000000000E+00 0. -1.
         -4    1    3    3    0  502 -0.10083503954E+03  0.70243595849E+02  0.10478220664E+03  0.16149668351E+03  0.00000000000E+00 0.  1.
         11    1    5    5    0    0  0.35556129310E+02  0.37528817891E+02 -0.63001499265E+01  0.52080153541E+02  0.00000000000E+00 0.  1.
        -11    1    5    5    0    0  0.13012441358E+03  0.21694564338E+03  0.15396406300E+03  0.29614642981E+03  0.00000000000E+00 0. -1.
          1    1    6    6  503    0  0.21752830404E+02 -0.13337364812E+03 -0.16515689897E+03  0.21339755603E+03  0.00000000000E+00 0. -1.
         -1    1    6    6    0  503  0.13736875847E+03 -0.22089125751E+03 -0.44911693915E+03  0.51900785011E+03  0.00000000000E+00 0.  1.
<mgrwt>
<rscale>  0 0.15183096E+04</rscale>
<asrwt>0</asrwt>
<pdfrwt beam="1">  1        1 0.10347431E+00 0.15183096E+04</pdfrwt>
<pdfrwt beam="2">  1       -2 0.13182611E+00 0.15183096E+04</pdfrwt>
<totfact> 0.10255423E+01</totfact>
</mgrwt>
</event>
<event>
12    4  0.4413110E-008  0.1429766E+04  0.7818608E-02  0.8932550E-01
         -2   -1    0    0    0  501 -0.00000000000E+00  0.00000000000E+00  0.31340398494E+03  0.31340398494E+03  0.00000000000E+00 0.  1.
          1   -1    0    0  501    0  0.00000000000E+00 -0.00000000000E+00 -0.16306667192E+04  0.16306667192E+04  0.00000000000E+00 0. -1.
        -24    2    1    2    0    0  0.24772215611E+03  0.32408306175E+03 -0.53728829223E+03  0.67922169722E+03  0.79166327920E+02 0.  0.
        254    2    1    2    0    0 -0.24772215611E+03 -0.32408306175E+03 -0.77997444201E+03  0.12648490069E+04  0.90834287719E+03 0.  0.
         23    2    4    4    0    0 -0.28710829448E+01  0.25186642143E+03 -0.95775100646E+01  0.26810025891E+03  0.91329528441E+02 0.  0.
         23    2    4    4    0    0 -0.24485107316E+03 -0.57594948318E+03 -0.77039693195E+03  0.99674874800E+03  0.91251184521E+02 0.  0.
          3    1    3    3  502    0  0.22504208886E+03  0.31397616963E+03 -0.47554599541E+03  0.61267362487E+03  0.00000000000E+00 0. -1.
         -4    1    3    3    0  502  0.22680067246E+02  0.10106892120E+02 -0.61742296812E+02  0.66548072355E+02  0.00000000000E+00 0.  1.
         11    1    5    5    0    0 -0.26224354617E+02  0.22310637251E+03  0.12470917725E+02  0.22498820863E+03  0.00000000000E+00 0. -1.
        -11    1    5    5    0    0  0.23353271673E+02  0.28760048917E+02 -0.22048427789E+02  0.43112050282E+02  0.00000000000E+00 0.  1.
          1    1    6    6  503    0 -0.14099985828E+03 -0.34004912124E+03 -0.38110948329E+03  0.52986677868E+03  0.00000000000E+00 0. -1.
         -1    1    6    6    0  503 -0.10385121488E+03 -0.23590036194E+03 -0.38928744865E+03  0.46688196932E+03  0.00000000000E+00 0.  1.
<mgrwt>
<rscale>  0 0.14297656E+04</rscale>
<asrwt>0</asrwt>
<pdfrwt beam="1">  1        1 0.25087180E+00 0.14297656E+04</pdfrwt>
<pdfrwt beam="2">  1       -2 0.48215998E-01 0.14297656E+04</pdfrwt>
<totfact> 0.18494398E+01</totfact>
</mgrwt>
</event>
<event>
12    4  0.4413110E-008  0.2366421E+04  0.7818608E-02  0.8452183E-01
         -2   -1    0    0    0  501 -0.00000000000E+00  0.00000000000E+00  0.69386241486E+03  0.69386241486E+03  0.00000000000E+00 0.  1.
          1   -1    0    0  501    0  0.00000000000E+00 -0.00000000000E+00 -0.20176733016E+04  0.20176733016E+04  0.00000000000E+00 0. -1.
        -24    2    1    2    0    0  0.24892622074E+03 -0.60403425094E+03 -0.14436367846E+04  0.15865890429E+04  0.79724434985E+02 0.  0.
        254    2    1    2    0    0 -0.24892622074E+03  0.60403425094E+03  0.11982589786E+03  0.11249466736E+04  0.90792352809E+03 0.  0.
         23    2    4    4    0    0  0.53181426123E+02  0.39622146609E+03  0.45948515237E+03  0.61667181472E+03  0.96632331784E+02 0.  0.
         23    2    4    4    0    0 -0.30210764686E+03  0.20781278484E+03 -0.33965925451E+03  0.50827485883E+03  0.92302432847E+02 0.  0.
          3    1    3    3  502    0  0.23742543300E+03 -0.50100396632E+03 -0.12072416124E+04  0.13284608091E+04  0.00000000000E+00 0. -1.
         -4    1    3    3    0  502  0.11500787741E+02 -0.10303028461E+03 -0.23639517214E+03  0.25812823379E+03  0.00000000000E+00 0.  1.
         11    1    5    5    0    0 -0.17423056389E+02  0.14927200201E+03  0.21306021896E+03  0.26073041707E+03  0.00000000000E+00 0. -1.
        -11    1    5    5    0    0  0.70604482512E+02  0.24694946408E+03  0.24642493341E+03  0.35594139766E+03  0.00000000000E+00 0.  1.
          4    1    6    6  503    0 -0.14939764312E+03  0.14609951480E+03 -0.15086061442E+03  0.25772785836E+03  0.00000000000E+00 0. -1.
         -4    1    6    6    0  503 -0.15271000374E+03  0.61713270043E+02 -0.18879864009E+03  0.25054700047E+03  0.00000000000E+00 0.  1.
<mgrwt>
<rscale>  0 0.23664215E+04</rscale>
<asrwt>0</asrwt>
<pdfrwt beam="1">  1        1 0.31041127E+00 0.23664215E+04</pdfrwt>
<pdfrwt beam="2">  1       -2 0.10674807E+00 0.23664215E+04</pdfrwt>
<totfact> 0.16169679E+00</totfact>
</mgrwt>
</event>
<event>
12    4  0.4413110E-008  0.1451258E+04  0.7818608E-02  0.8917528E-01
          1   -1    0    0  501    0  0.00000000000E+00  0.00000000000E+00  0.89673821749E+03  0.89673821749E+03  0.00000000000E+00 0. -1.
         -2   -1    0    0    0  501 -0.00000000000E+00 -0.00000000000E+00 -0.58716999641E+03  0.58716999641E+03  0.00000000000E+00 0.  1.
        -24    2    1    2    0    0  0.42600487823E+03 -0.40683869005E+02  0.18016473007E+03  0.47131134295E+03  0.80868526376E+02 0.  0.
        254    2    1    2    0    0 -0.42600487823E+03  0.40683869005E+02  0.12940349100E+03  0.10125968710E+04  0.90855480083E+03 0.  0.
         23    2    4    4    0    0  0.11790440527E+03 -0.20406232985E+02  0.37611091123E+03  0.40542787783E+03  0.92706436921E+02 0.  0.
         23    2    4    4    0    0 -0.54390928349E+03  0.61090101990E+02 -0.24670742023E+03  0.60716899313E+03  0.90666012312E+02 0.  0.
          3    1    3    3  502    0  0.64344919304E+02 -0.23560766576E+02  0.39362735523E+01  0.68635796865E+02  0.00000000000E+00 0. -1.
         -4    1    3    3    0  502  0.36165995892E+03 -0.17123102429E+02  0.17622845651E+03  0.40267554608E+03  0.00000000000E+00 0.  1.
         11    1    5    5    0    0  0.12234286739E+03 -0.25810597233E+01  0.36240904628E+03  0.38251111866E+03  0.00000000000E+00 0.  1.
        -11    1    5    5    0    0 -0.44384621203E+01 -0.17825173262E+02  0.13701864951E+02  0.22916759172E+02  0.00000000000E+00 0. -1.
          2    1    6    6  503    0 -0.14223972187E+03 -0.84827560034E+01 -0.30455647014E+02  0.14571081656E+03  0.00000000000E+00 0. -1.
         -2    1    6    6    0  503 -0.40166956162E+03  0.69572857993E+02 -0.21625177321E+03  0.46145817656E+03  0.00000000000E+00 0.  1.
<mgrwt>
<rscale>  0 0.14512585E+04</rscale>
<asrwt>0</asrwt>
<pdfrwt beam="1">  1        1 0.13795973E+00 0.14512585E+04</pdfrwt>
<pdfrwt beam="2">  1       -2 0.90333846E-01 0.14512585E+04</pdfrwt>
<totfact> 0.16328777E+01</totfact>
</mgrwt>
</event>
<event>
12    4  0.4413110E-008  0.2096289E+04  0.7818608E-02  0.8562880E-01
          1   -1    0    0  501    0  0.00000000000E+00  0.00000000000E+00  0.12592129785E+04  0.12592129785E+04  0.00000000000E+00 0. -1.
         -2   -1    0    0    0  501 -0.00000000000E+00 -0.00000000000E+00 -0.87245478409E+03  0.87245478409E+03  0.00000000000E+00 0.  1.
        -24    2    1    2    0    0 -0.69693463686E+03 -0.25478932341E+03 -0.27012069379E+03  0.79371556741E+03  0.79898218721E+02 0.  0.
        254    2    1    2    0    0  0.69693463686E+03  0.25478932341E+03  0.65687888824E+03  0.13379521952E+04  0.89888303773E+03 0.  0.
         23    2    4    4    0    0 -0.17125649437E+02  0.35717168363E+02  0.57147664749E+03  0.58040719500E+03  0.93369959814E+02 0.  0.
         23    2    4    4    0    0  0.71406028629E+03  0.21907215504E+03  0.85402240750E+02  0.75754500023E+03  0.93306929351E+02 0.  0.
          3    1    3    3  502    0 -0.22345168713E+03 -0.59861479003E+02 -0.11722634800E+03  0.25933775239E+03  0.00000000000E+00 0. -1.
         -4    1    3    3    0  502 -0.47348294973E+03 -0.19492784440E+03 -0.15289434580E+03  0.53437781502E+03  0.00000000000E+00 0.  1.
         11    1    5    5    0    0 -0.13434298008E+02 -0.83016555305E+01  0.46316479121E+03  0.46343394531E+03  0.00000000000E+00 0. -1.
        -11    1    5    5    0    0 -0.36913514285E+01  0.44018823893E+02  0.10831185628E+03  0.11697324969E+03  0.00000000000E+00 0.  1.
          3    1    6    6  503    0  0.64429457021E+03  0.21458642816E+03  0.99169544385E+02  0.68629252283E+03  0.00000000000E+00 0. -1.
         -3    1    6    6    0  503  0.69765716082E+02  0.44857268834E+01 -0.13767303635E+02  0.71252477398E+02  0.00000000000E+00 0.  1.
<mgrwt>
<rscale>  0 0.20962885E+04</rscale>
<asrwt>0</asrwt>
<pdfrwt beam="1">  1        1 0.19372508E+00 0.20962885E+04</pdfrwt>
<pdfrwt beam="2">  1       -2 0.13422381E+00 0.20962885E+04</pdfrwt>
<totfact> 0.31274112E+00</totfact>
</mgrwt>
</event>
<event>
12    4  0.4413110E-008  0.1550409E+04  0.7818608E-02  0.8851607E-01
          1   -1    0    0  501    0  0.00000000000E+00  0.00000000000E+00  0.50749183603E+03  0.50749183603E+03  0.00000000000E+00 0. -1.
         -2   -1    0    0    0  501 -0.00000000000E+00 -0.00000000000E+00 -0.11841409654E+04  0.11841409654E+04  0.00000000000E+00 0.  1.
        -24    2    1    2    0    0  0.72093670653E+02  0.22114389227E+02  0.32466271228E+03  0.34351633312E+03  0.83132730127E+02 0.  0.
        254    2    1    2    0    0 -0.72093670653E+02 -0.22114389227E+02 -0.10013118416E+04  0.13481164683E+04  0.89950323196E+03 0.  0.
         23    2    4    4    0    0  0.16935909371E+02 -0.11256619711E+03  0.13574053782E+03  0.20033605867E+03  0.93547148742E+02 0.  0.
         23    2    4    4    0    0 -0.89029580025E+02  0.90451807883E+02 -0.11370523795E+04  0.11477804096E+04  0.91673111617E+02 0.  0.
          1    1    3    3  502    0  0.54189344135E+02  0.49555047026E+02  0.26979866233E+03  0.27961313614E+03  0.00000000000E+00 0. -1.
         -2    1    3    3    0  502  0.17904326518E+02 -0.27440657799E+02  0.54864049948E+02  0.63903196987E+02  0.00000000000E+00 0.  1.
         11    1    5    5    0    0  0.50830998848E+02 -0.35140134390E+02  0.45823250518E+02  0.76931071596E+02  0.00000000000E+00 0. -1.
        -11    1    5    5    0    0 -0.33895089477E+02 -0.77426062720E+02  0.89917287306E+02  0.12340498708E+03  0.00000000000E+00 0.  1.
          2    1    6    6  503    0  0.18479825497E+01 -0.16105260202E+02 -0.97826461776E+02  0.99160531812E+02  0.00000000000E+00 0. -1.
         -2    1    6    6    0  503 -0.90877562574E+02  0.10655706809E+03 -0.10392259177E+04  0.10486198778E+04  0.00000000000E+00 0.  1.
<mgrwt>
<rscale>  0 0.15504088E+04</rscale>
<asrwt>0</asrwt>
<pdfrwt beam="1">  1        1 0.78075669E-01 0.15504088E+04</pdfrwt>
<pdfrwt beam="2">  1       -2 0.18217553E+00 0.15504088E+04</pdfrwt>
<totfact> 0.64029877E+00</totfact>
</mgrwt>
</event>
<event>
12    4  0.4413110E-008  0.1268274E+04  0.7818608E-02  0.9055109E-01
          1   -1    0    0  501    0  0.00000000000E+00  0.00000000000E+00  0.10474392152E+04  0.10474392152E+04  0.00000000000E+00 0. -1.
         -2   -1    0    0    0  501 -0.00000000000E+00 -0.00000000000E+00 -0.38391727987E+03  0.38391727987E+03  0.00000000000E+00 0.  1.
        -24    2    1    2    0    0 -0.23038092940E+03 -0.16300399552E+03  0.31759198041E+03  0.43254487887E+03  0.81146355578E+02 0.  0.
        254    2    1    2    0    0  0.23038092940E+03  0.16300399552E+03  0.34592995489E+03  0.99881161619E+03  0.89348275628E+03 0.  0.
         23    2    4    4    0    0  0.41477322977E+03  0.29935560071E+03 -0.60433126444E+02  0.52302138535E+03  0.90821797804E+02 0.  0.
         23    2    4    4    0    0 -0.18439230037E+03 -0.13635160519E+03  0.40636308134E+03  0.47579023084E+03  0.93022089932E+02 0.  0.
          3    1    3    3  502    0 -0.21484062051E+03 -0.13004047172E+03  0.30235038232E+03  0.39304296228E+03  0.00000000000E+00 0. -1.
         -4    1    3    3    0  502 -0.15540308892E+02 -0.32963523801E+02  0.15241598091E+02  0.39501916589E+02  0.00000000000E+00 0.  1.
         11    1    5    5    0    0  0.16688688575E+03  0.16516018120E+03 -0.28517390529E+00  0.23479608049E+03  0.00000000000E+00 0. -1.
        -11    1    5    5    0    0  0.24788634402E+03  0.13419541950E+03 -0.60147952539E+02  0.28822530486E+03  0.00000000000E+00 0.  1.
          4    1    6    6  503    0 -0.80252639624E+02 -0.11092344771E+02  0.17490459522E+03  0.19275669563E+03  0.00000000000E+00 0.  1.
         -4    1    6    6    0  503 -0.10413966075E+03 -0.12525926041E+03  0.23145848611E+03  0.28303353521E+03  0.00000000000E+00 0. -1.
<mgrwt>
<rscale>  0 0.12682744E+04</rscale>
<asrwt>0</asrwt>
<pdfrwt beam="1">  1        1 0.16114449E+00 0.12682744E+04</pdfrwt>
<pdfrwt beam="2">  1       -2 0.59064197E-01 0.12682744E+04</pdfrwt>
<totfact> 0.32140731E+01</totfact>
</mgrwt>
</event>
<event>
12    4  0.4413110E-008  0.1743469E+04  0.7818608E-02  0.8736954E-01
         -2   -1    0    0    0  501 -0.00000000000E+00  0.00000000000E+00  0.17180844143E+04  0.17180844143E+04  0.00000000000E+00 0.  1.
          1   -1    0    0  501    0  0.00000000000E+00 -0.00000000000E+00 -0.44230704772E+03  0.44230704772E+03  0.00000000000E+00 0. -1.
        -24    2    1    2    0    0 -0.47100502003E+03  0.27019117464E+02  0.10078174609E+04  0.11157552982E+04  0.81474470879E+02 0.  0.
        254    2    1    2    0    0  0.47100502003E+03 -0.27019117464E+02  0.26795990570E+03  0.10446361638E+04  0.89268496241E+03 0.  0.
         23    2    4    4    0    0 -0.11162935299E+03 -0.18883823096E+03 -0.17168871368E+03  0.29148345855E+03  0.85817260968E+02 0.  0.
         23    2    4    4    0    0  0.58263437302E+03  0.16181911350E+03  0.43964861938E+03  0.75315270528E+03  0.91103517112E+02 0.  0.
          3    1    3    3  502    0 -0.29822243994E+03 -0.19666122166E+02  0.59649718760E+03  0.66718234003E+03  0.00000000000E+00 0. -1.
         -4    1    3    3    0  502 -0.17278258009E+03  0.46685239630E+02  0.41132027333E+03  0.44857295821E+03  0.00000000000E+00 0.  1.
         11    1    5    5    0    0 -0.10150806946E+03 -0.96726127803E+02 -0.81529456586E+02  0.16219397109E+03  0.00000000000E+00 0. -1.
        -11    1    5    5    0    0 -0.10121283531E+02 -0.92112103157E+02 -0.90159257096E+02  0.12928948746E+03  0.00000000000E+00 0.  1.
          4    1    6    6  503    0  0.74987401798E+02  0.34688925250E+02  0.97992703295E+02  0.12817566798E+03  0.00000000000E+00 0.  1.
         -4    1    6    6    0  503  0.50764697122E+03  0.12713018825E+03  0.34165591608E+03  0.62497703730E+03  0.00000000000E+00 0. -1.
<mgrwt>
<rscale>  0 0.17434688E+04</rscale>
<asrwt>0</asrwt>
<pdfrwt beam="1">  1        1 0.68047239E-01 0.17434688E+04</pdfrwt>
<pdfrwt beam="2">  1       -2 0.26432068E+00 0.17434688E+04</pdfrwt>
<totfact> 0.22832935E+00</totfact>
</mgrwt>
</event>
<event>
12    4  0.4413110E-008  0.1695059E+04  0.7818608E-02  0.8764188E-01
          1   -1    0    0  501    0  0.00000000000E+00  0.00000000000E+00  0.27401324295E+04  0.27401324295E+04  0.00000000000E+00 0. -1.
         -2   -1    0    0    0  501 -0.00000000000E+00 -0.00000000000E+00 -0.26214283061E+03  0.26214283061E+03  0.00000000000E+00 0.  1.
        -24    2    1    2    0    0 -0.35345987547E+01 -0.58028362676E+03  0.12057557585E+04  0.13404766810E+04  0.79304490878E+02 0.  0.
        254    2    1    2    0    0  0.35345987547E+01  0.58028362676E+03  0.12722338404E+04  0.16617985791E+04  0.89791647277E+03 0.  0.
         23    2    4    4    0    0  0.31149410429E+03 -0.22737674388E+02  0.69532437735E+03  0.76776610557E+03  0.91887019048E+02 0.  0.
         23    2    4    4    0    0 -0.30795950554E+03  0.60302130114E+03  0.57690946305E+03  0.89403247357E+03  0.89419173274E+02 0.  0.
          1    1    3    3  502    0 -0.14142814651E+02 -0.51610153617E+03  0.11158425697E+04  0.12294980501E+04  0.00000000000E+00 0. -1.
         -2    1    3    3    0  502  0.10608215896E+02 -0.64182090585E+02  0.89913188827E+02  0.11097863092E+03  0.00000000000E+00 0.  1.
         11    1    5    5    0    0  0.70609341592E+02  0.28830541373E+02  0.12373448147E+03  0.14535164650E+03  0.00000000000E+00 0.  1.
        -11    1    5    5    0    0  0.24088476270E+03 -0.51568215760E+02  0.57158989588E+03  0.62241445907E+03  0.00000000000E+00 0. -1.
          2    1    6    6  503    0 -0.91071927212E+02  0.15040874846E+03  0.20045405736E+03  0.26664342604E+03  0.00000000000E+00 0.  1.
         -2    1    6    6    0  503 -0.21688757832E+03  0.45261255269E+03  0.37645540569E+03  0.62738904753E+03  0.00000000000E+00 0. -1.
<mgrwt>
<rscale>  0 0.16950588E+04</rscale>
<asrwt>0</asrwt>
<pdfrwt beam="1">  1        1 0.42155882E+00 0.16950588E+04</pdfrwt>
<pdfrwt beam="2">  1       -2 0.40329668E-01 0.16950588E+04</pdfrwt>
<totfact> 0.44845160E+00</totfact>
</mgrwt>
</event>
<event>
12    4  0.4413110E-008  0.2086158E+04  0.7818608E-02  0.8567365E-01
         -2   -1    0    0    0  501 -0.00000000000E+00  0.00000000000E+00  0.73493365282E+03  0.73493365282E+03  0.00000000000E+00 0.  1.
          1   -1    0    0  501    0  0.00000000000E+00 -0.00000000000E+00 -0.14804247898E+04  0.14804247898E+04  0.00000000000E+00 0. -1.
        -24    2    1    2    0    0  0.32944013150E+03  0.34402481182E+03  0.43733761700E+03  0.65101655885E+03  0.75329259018E+02 0.  0.
        254    2    1    2    0    0 -0.32944013150E+03 -0.34402481182E+03 -0.11828287539E+04  0.15643418837E+04  0.90619964502E+03 0.  0.
         23    2    4    4    0    0 -0.33422779023E+03 -0.57166535384E+03 -0.11313588577E+04  0.13142157682E+04  0.93170425379E+02 0.  0.
         23    2    4    4    0    0  0.47876587319E+01  0.22764054202E+03 -0.51469896276E+02  0.25012611547E+03  0.89837549899E+02 0.  0.
          3    1    3    3  502    0  0.82611337303E+02  0.10411150363E+03  0.81329917247E+02  0.15581525496E+03  0.00000000000E+00 0. -1.
         -4    1    3    3    0  502  0.24682879419E+03  0.23991330819E+03  0.35600769975E+03  0.49520130389E+03  0.00000000000E+00 0.  1.
         11    1    5    5    0    0 -0.23940833764E+03 -0.44479748379E+03 -0.92666139895E+03  0.10553968458E+04  0.00000000000E+00 0.  1.
        -11    1    5    5    0    0 -0.94819452591E+02 -0.12686787005E+03 -0.20469745871E+03  0.25881892249E+03  0.00000000000E+00 0. -1.
          4    1    6    6  503    0  0.42437096210E+02  0.97057475455E+02 -0.41806231867E+02  0.11388073454E+03  0.00000000000E+00 0. -1.
         -4    1    6    6    0  503 -0.37649437478E+02  0.13058306657E+03 -0.96636644094E+01  0.13624538093E+03  0.00000000000E+00 0.  1.
<mgrwt>
<rscale>  0 0.20861582E+04</rscale>
<asrwt>0</asrwt>
<pdfrwt beam="1">  1        1 0.22775766E+00 0.20861582E+04</pdfrwt>
<pdfrwt beam="2">  1       -2 0.11306672E+00 0.20861582E+04</pdfrwt>
<totfact> 0.33526772E+00</totfact>
</mgrwt>
</event>
<event>
12    4  0.4413110E-008  0.1907241E+04  0.7818608E-02  0.8651260E-01
         -2   -1    0    0    0  501 -0.00000000000E+00  0.00000000000E+00  0.60938929386E+03  0.60938929386E+03  0.00000000000E+00 0.  1.
          1   -1    0    0  501    0  0.00000000000E+00 -0.00000000000E+00 -0.14923012060E+04  0.14923012060E+04  0.00000000000E+00 0. -1.
        -24    2    1    2    0    0 -0.34634240268E+03  0.40356230524E+03  0.23623648641E+03  0.58760004954E+03  0.81550883523E+02 0.  0.
        254    2    1    2    0    0  0.34634240268E+03 -0.40356230524E+03 -0.11191483986E+04  0.15140904504E+04  0.87015007885E+03 0.  0.
         23    2    4    4    0    0  0.35763662609E+03 -0.16767541836E+03 -0.11848434873E+04  0.12522410964E+04  0.90745093160E+02 0.  0.
         23    2    4    4    0    0 -0.11294223413E+02 -0.23588688688E+03  0.65695088700E+02  0.26184935395E+03  0.92081792990E+02 0.  0.
          3    1    3    3  502    0 -0.22601292521E+02  0.14219255503E+02  0.31819684245E+02  0.41539113569E+02  0.00000000000E+00 0. -1.
         -4    1    3    3    0  502 -0.32374111016E+03  0.38934304974E+03  0.20441680216E+03  0.54606093597E+03  0.00000000000E+00 0.  1.
         11    1    5    5    0    0 -0.42745785163E+01 -0.46942204704E+01 -0.76918133544E+01  0.99735510224E+01  0.00000000000E+00 0.  1.
        -11    1    5    5    0    0  0.36191120461E+03 -0.16298119789E+03 -0.11771516739E+04  0.12422675454E+04  0.00000000000E+00 0. -1.
          1    1    6    6  503    0 -0.51114599252E+02 -0.11944603893E+03  0.25604836665E+02  0.13242230225E+03  0.00000000000E+00 0. -1.
         -1    1    6    6    0  503  0.39820375839E+02 -0.11644084796E+03  0.40090252035E+02  0.12942705170E+03  0.00000000000E+00 0.  1.
<mgrwt>
<rscale>  0 0.19072413E+04</rscale>
<asrwt>0</asrwt>
<pdfrwt beam="1">  1        1 0.22958480E+00 0.19072413E+04</pdfrwt>
<pdfrwt beam="2">  1       -2 0.93752200E-01 0.19072413E+04</pdfrwt>
<totfact> 0.52241288E+00</totfact>
</mgrwt>
</event>
<event>
12    4  0.4413110E-008  0.1696993E+04  0.7818608E-02  0.8763081E-01
          1   -1    0    0  501    0  0.00000000000E+00  0.00000000000E+00  0.53551751482E+03  0.53551751482E+03  0.00000000000E+00 0. -1.
         -2   -1    0    0    0  501 -0.00000000000E+00 -0.00000000000E+00 -0.13443943191E+04  0.13443943191E+04  0.00000000000E+00 0.  1.
        -24    2    1    2    0    0  0.13696583477E+03  0.47125863830E+02  0.36889446119E+03  0.40432214838E+03  0.80079892849E+02 0.  0.
        254    2    1    2    0    0 -0.13696583477E+03 -0.47125863830E+02 -0.11777712654E+04  0.14755896855E+04  0.87706287081E+03 0.  0.
         23    2    4    4    0    0 -0.14708517762E+03 -0.40748821731E+03 -0.92680623822E+03  0.10272437368E+04  0.92623942946E+02 0.  0.
         23    2    4    4    0    0  0.10119342841E+02  0.36036235348E+03 -0.25096502722E+03  0.44834594874E+03  0.89817692923E+02 0.  0.
          3    1    3    3  502    0  0.10672661007E+03  0.68538491926E+02  0.25984420704E+03  0.28914893413E+03  0.00000000000E+00 0. -1.
         -4    1    3    3    0  502  0.30239224707E+02 -0.21412628096E+02  0.10905025414E+03  0.11517321426E+03  0.00000000000E+00 0.  1.
         11    1    5    5    0    0 -0.13406074614E+03 -0.25213371875E+03 -0.55745070563E+03  0.62633456315E+03  0.00000000000E+00 0.  1.
        -11    1    5    5    0    0 -0.13024431471E+02 -0.15535449856E+03 -0.36935553259E+03  0.40090917362E+03  0.00000000000E+00 0. -1.
          1    1    6    6  503    0 -0.33255269079E+02  0.14885188711E+03 -0.13268503591E+03  0.20215864060E+03  0.00000000000E+00 0. -1.
         -1    1    6    6    0  503  0.43374611921E+02  0.21151046637E+03 -0.11827999132E+03  0.24618730814E+03  0.00000000000E+00 0.  1.
<mgrwt>
<rscale>  0 0.16969935E+04</rscale>
<asrwt>0</asrwt>
<pdfrwt beam="1">  1        1 0.82387311E-01 0.16969935E+04</pdfrwt>
<pdfrwt beam="2">  1       -2 0.20682989E+00 0.16969935E+04</pdfrwt>
<totfact> 0.40235789E+00</totfact>
</mgrwt>
</event>
<event>
12    4  0.5557584E-008  0.1478562E+04  0.7818608E-02  0.8898835E-01
          1   -1    0    0  501    0  0.00000000000E+00  0.00000000000E+00  0.12740938928E+04  0.12740938928E+04  0.00000000000E+00 0. -1.
         -2   -1    0    0    0  501 -0.00000000000E+00 -0.00000000000E+00 -0.42896096313E+03  0.42896096313E+03  0.00000000000E+00 0.  1.
        -24    2    1    2    0    0 -0.20075351747E+03  0.32992139221E+03  0.55601035189E+03  0.68120112297E+03  0.75745354390E+02 0.  0.
        254    2    1    2    0    0  0.20075351747E+03 -0.32992139221E+03  0.28912257774E+03  0.10218537329E+04  0.90080135808E+03 0.  0.
         23    2    4    4    0    0  0.41972343879E+03 -0.14092658146E+03 -0.16001784546E+03  0.47988279101E+03  0.93025350348E+02 0.  0.
         23    2    4    4    0    0 -0.21896992132E+03 -0.18899481074E+03  0.44914042320E+03  0.54197094192E+03  0.91315481742E+02 0.  0.
          1    1    3    3  502    0 -0.20751316073E+03  0.31781693447E+03  0.53946777128E+03  0.65961715560E+03  0.00000000000E+00 0. -1.
         -2    1    3    3    0  502  0.67596432595E+01  0.12104457740E+02  0.16542580612E+02  0.21583967372E+02  0.00000000000E+00 0.  1.
         11    1    5    5    0    0  0.40279102497E+03 -0.11194739058E+03 -0.15538356161E+03  0.44600098573E+03  0.00000000000E+00 0.  1.
        -11    1    5    5    0    0  0.16932413825E+02 -0.28979190885E+02 -0.46342838435E+01  0.33881805280E+02  0.00000000000E+00 0. -1.
          2    1    6    6  503    0 -0.42992973682E+01  0.83249959095E+01  0.48620768062E+01  0.10556008034E+02  0.00000000000E+00 0. -1.
         -2    1    6    6    0  503 -0.21467062395E+03 -0.19731980665E+03  0.44427834639E+03  0.53141493389E+03  0.00000000000E+00 0.  1.
<mgrwt>
<rscale>  0 0.14785622E+04</rscale>
<asrwt>0</asrwt>
<pdfrwt beam="1">  1        1 0.19601444E+00 0.14785622E+04</pdfrwt>
<pdfrwt beam="2">  1       -2 0.65993995E-01 0.14785622E+04</pdfrwt>
<totfact> 0.16955659E+01</totfact>
</mgrwt>
</event>
<event>
12    4  0.4413110E-008  0.2071278E+04  0.7818608E-02  0.8574002E-01
         -2   -1    0    0    0  501 -0.00000000000E+00  0.00000000000E+00  0.10944706679E+04  0.10944706679E+04  0.00000000000E+00 0.  1.
          1   -1    0    0  501    0  0.00000000000E+00 -0.00000000000E+00 -0.97997006549E+03  0.97997006549E+03  0.00000000000E+00 0. -1.
        -24    2    1    2    0    0 -0.35877310140E+03  0.74077403602E+03 -0.69477881839E+02  0.82962004598E+03  0.77317099724E+02 0.  0.
        254    2    1    2    0    0  0.35877310140E+03 -0.74077403602E+03  0.18397848422E+03  0.12448206874E+04  0.91556875784E+03 0.  0.
         23    2    4    4    0    0  0.42375434767E+03 -0.65506363799E+03 -0.22095007262E+03  0.81604471721E+03  0.91836424734E+02 0.  0.
         23    2    4    4    0    0 -0.64981246277E+02 -0.85710398030E+02  0.40492855684E+03  0.42877597016E+03  0.91174896487E+02 0.  0.
          3    1    3    3  502    0 -0.32964749472E+03  0.65241309919E+03 -0.40139944642E+02  0.73206662124E+03  0.00000000000E+00 0. -1.
         -2    1    3    3    0  502 -0.29125606676E+02  0.88360936824E+02 -0.29337937197E+02  0.97553424746E+02  0.00000000000E+00 0.  1.
         11    1    5    5    0    0  0.12642328436E+02 -0.65631110009E+02 -0.22183654003E+02  0.70422905181E+02  0.00000000000E+00 0. -1.
        -11    1    5    5    0    0  0.41111201924E+03 -0.58943252798E+03 -0.19876641862E+03  0.74562181203E+03  0.00000000000E+00 0.  1.
          4    1    6    6  503    0 -0.18962013284E+02 -0.19570164570E+02  0.16023538585E+02  0.31611755374E+02  0.00000000000E+00 0. -1.
         -4    1    6    6    0  503 -0.46019232993E+02 -0.66140233460E+02  0.38890501825E+03  0.39716421479E+03  0.00000000000E+00 0.  1.
<mgrwt>
<rscale>  0 0.20712783E+04</rscale>
<asrwt>0</asrwt>
<pdfrwt beam="1">  1        1 0.15076463E+00 0.20712783E+04</pdfrwt>
<pdfrwt beam="2">  1       -2 0.16838010E+00 0.20712783E+04</pdfrwt>
<totfact> 0.27752828E+00</totfact>
</mgrwt>
</event>
<event>
12    4  0.4413110E-008  0.1436640E+04  0.7818608E-02  0.8927716E-01
          1   -1    0    0  501    0  0.00000000000E+00  0.00000000000E+00  0.67165749573E+03  0.67165749573E+03  0.00000000000E+00 0. -1.
         -2   -1    0    0    0  501 -0.00000000000E+00 -0.00000000000E+00 -0.76822416422E+03  0.76822416422E+03  0.00000000000E+00 0.  1.
        -24    2    1    2    0    0  0.56327872094E+02  0.26184160788E+03  0.30452816229E+03  0.41311969166E+03  0.78718620541E+02 0.  0.
        254    2    1    2    0    0 -0.56327872094E+02 -0.26184160788E+03 -0.40109483077E+03  0.10267619683E+04  0.90643765338E+03 0.  0.
         23    2    4    4    0    0 -0.34298326152E+02  0.28685449174E+03 -0.35454419504E+03  0.46673172967E+03  0.93139930423E+02 0.  0.
         23    2    4    4    0    0 -0.22029545942E+02 -0.54869609962E+03 -0.46550635731E+02  0.56003023862E+03  0.99570054985E+02 0.  0.
          3    1    3    3  502    0  0.47349274988E+02  0.25832234615E+03  0.26755971452E+03  0.37491410909E+03  0.00000000000E+00 0. -1.
         -4    1    3    3    0  502  0.89785971065E+01  0.35192617318E+01  0.36968447769E+02  0.38205582571E+02  0.00000000000E+00 0.  1.
         11    1    5    5    0    0 -0.10861390862E+02  0.27465444911E+03 -0.30500182946E+03  0.41058391615E+03  0.00000000000E+00 0.  1.
        -11    1    5    5    0    0 -0.23436935290E+02  0.12200042626E+02 -0.49542365583E+02  0.56147813523E+02  0.00000000000E+00 0. -1.
          3    1    6    6  503    0  0.37202634635E+02 -0.23842864251E+03 -0.35992840035E+02  0.24398306935E+03  0.00000000000E+00 0. -1.
         -3    1    6    6    0  503 -0.59232180577E+02 -0.31026745711E+03 -0.10557795696E+02  0.31604716927E+03  0.00000000000E+00 0.  1.
<mgrwt>
<rscale>  0 0.14366399E+04</rscale>
<asrwt>0</asrwt>
<pdfrwt beam="1">  1        1 0.10333192E+00 0.14366399E+04</pdfrwt>
<pdfrwt beam="2">  1       -2 0.11818833E+00 0.14366399E+04</pdfrwt>
<totfact> 0.13609581E+01</totfact>
</mgrwt>
</event>
<event>
12    4  0.4413110E-008  0.1468426E+04  0.7818608E-02  0.8905725E-01
         -2   -1    0    0    0  501 -0.00000000000E+00  0.00000000000E+00  0.13103962989E+04  0.13103962989E+04  0.00000000000E+00 0.  1.
          1   -1    0    0  501    0  0.00000000000E+00 -0.00000000000E+00 -0.41137824295E+03  0.41137824295E+03  0.00000000000E+00 0. -1.
        -24    2    1    2    0    0 -0.15848081777E+03 -0.12156175758E+03 -0.19439789086E+03  0.29009876298E+03  0.80456956225E+02 0.  0.
        254    2    1    2    0    0  0.15848081777E+03  0.12156175758E+03  0.10934159468E+04  0.14316757788E+04  0.90235451600E+03 0.  0.
         23    2    4    4    0    0  0.22036449584E+03  0.48326768145E+03  0.56305118783E+03  0.77947122554E+03  0.91872674784E+02 0.  0.
         23    2    4    4    0    0 -0.61883678067E+02 -0.36170592387E+03  0.53036475895E+03  0.65220455329E+03  0.97073358011E+02 0.  0.
          1    1    3    3  502    0 -0.10168635687E+03 -0.10327324910E+03 -0.92248476837E+02  0.17180006004E+03  0.00000000000E+00 0. -1.
         -2    1    3    3    0  502 -0.56794460901E+02 -0.18288508487E+02 -0.10214941402E+03  0.11829870294E+03  0.00000000000E+00 0.  1.
         11    1    5    5    0    0  0.16046478217E+02  0.34697858337E+02  0.11850069767E+02  0.40023180656E+02  0.00000000000E+00 0. -1.
        -11    1    5    5    0    0  0.20431801762E+03  0.44856982311E+03  0.55120111806E+03  0.73944804489E+03  0.00000000000E+00 0.  1.
          2    1    6    6  503    0  0.87274377838E+01 -0.16115453268E+02  0.69332739508E+02  0.71714048637E+02  0.00000000000E+00 0. -1.
         -2    1    6    6    0  503 -0.70611115851E+02 -0.34559047060E+03  0.46103201944E+03  0.58049050466E+03  0.00000000000E+00 0.  1.
<mgrwt>
<rscale>  0 0.14684257E+04</rscale>
<asrwt>0</asrwt>
<pdfrwt beam="1">  1        1 0.63288961E-01 0.14684257E+04</pdfrwt>
<pdfrwt beam="2">  1       -2 0.20159943E+00 0.14684257E+04</pdfrwt>
<totfact> 0.63536455E+00</totfact>
</mgrwt>
</event>
<event>
12    4  0.4413110E-008  0.1521842E+04  0.7818608E-02  0.8870057E-01
          1   -1    0    0  501    0  0.00000000000E+00  0.00000000000E+00  0.11034343495E+04  0.11034343495E+04  0.00000000000E+00 0. -1.
         -2   -1    0    0    0  501 -0.00000000000E+00 -0.00000000000E+00 -0.52472586907E+03  0.52472586907E+03  0.00000000000E+00 0.  1.
        -24    2    1    2    0    0 -0.74503260790E+02  0.56177263997E+03  0.19689590228E+03  0.60591025714E+03  0.84970633086E+02 0.  0.
        254    2    1    2    0    0  0.74503260790E+02 -0.56177263997E+03  0.38181257813E+03  0.10222499614E+04  0.76031237256E+03 0.  0.
         23    2    4    4    0    0 -0.69738898855E+02 -0.68990238748E+03  0.16691803920E+03  0.71894553124E+03  0.90510920918E+02 0.  0.
         23    2    4    4    0    0  0.14424215964E+03  0.12812974751E+03  0.21489453893E+03  0.30330443016E+03  0.92687009217E+02 0.  0.
          1    1    3    3  502    0 -0.82687731802E+02  0.49934536703E+03  0.15164389521E+03  0.52837385204E+03  0.00000000000E+00 0. -1.
         -2    1    3    3    0  502  0.81844710119E+01  0.62427272943E+02  0.45252007065E+02  0.77536405103E+02  0.00000000000E+00 0.  1.
         11    1    5    5    0    0  0.19822916438E+01 -0.28968532336E+03  0.36689035336E+02  0.29200616665E+03  0.00000000000E+00 0.  1.
        -11    1    5    5    0    0 -0.71721190499E+02 -0.40021706412E+03  0.13022900386E+03  0.42693936458E+03  0.00000000000E+00 0. -1.
          4    1    6    6  503    0  0.25774611886E+02  0.32401582138E+02  0.18887611964E+01  0.41445875088E+02  0.00000000000E+00 0. -1.
         -4    1    6    6    0  503  0.11846754776E+03  0.95728165371E+02  0.21300577773E+03  0.26185855507E+03  0.00000000000E+00 0.  1.
<mgrwt>
<rscale>  0 0.15218417E+04</rscale>
<asrwt>0</asrwt>
<pdfrwt beam="1">  1        1 0.16975913E+00 0.15218417E+04</pdfrwt>
<pdfrwt beam="2">  1       -2 0.80727057E-01 0.15218417E+04</pdfrwt>
<totfact> 0.14454680E+01</totfact>
</mgrwt>
</event>
<event>
12    4  0.4413110E-008  0.2547333E+04  0.7818608E-02  0.8386314E-01
          1   -1    0    0  501    0  0.00000000000E+00  0.00000000000E+00  0.12411283065E+04  0.12411283065E+04  0.00000000000E+00 0. -1.
         -2   -1    0    0    0  501 -0.00000000000E+00 -0.00000000000E+00 -0.13070575434E+04  0.13070575434E+04  0.00000000000E+00 0.  1.
        -24    2    1    2    0    0 -0.28745102763E+03  0.77072939139E+03  0.71876685799E+03  0.10953406020E+04  0.80581326868E+02 0.  0.
        254    2    1    2    0    0  0.28745102763E+03 -0.77072939139E+03 -0.78469609482E+03  0.14528452479E+04  0.90463222635E+03 0.  0.
         23    2    4    4    0    0 -0.12632134003E+03 -0.97407498947E+02 -0.61158169045E+03  0.63869007746E+03  0.91910549766E+02 0.  0.
         23    2    4    4    0    0  0.41377236766E+03 -0.67332189244E+03 -0.17311440438E+03  0.81415517039E+03  0.91159757532E+02 0.  0.
          3    1    3    3  502    0 -0.28346080134E+03  0.71985339809E+03  0.69062052058E+03  0.10370610609E+04  0.00000000000E+00 0. -1.
         -4    1    3    3    0  502 -0.39902262879E+01  0.50875993299E+02  0.28146337406E+02  0.58279541087E+02  0.00000000000E+00 0.  1.
         11    1    5    5    0    0 -0.10182506666E+02  0.16016079539E+02 -0.10599194270E+03  0.10767771433E+03  0.00000000000E+00 0. -1.
        -11    1    5    5    0    0 -0.11613883336E+03 -0.11342357849E+03 -0.50558974775E+03  0.53101236314E+03  0.00000000000E+00 0.  1.
          4    1    6    6  503    0  0.34281608728E+01 -0.44278025550E+02 -0.71048987636E+01  0.44975275653E+02  0.00000000000E+00 0. -1.
         -4    1    6    6    0  503  0.41034420678E+03 -0.62904386689E+03 -0.16600950561E+03  0.76917989474E+03  0.00000000000E+00 0.  1.
<mgrwt>
<rscale>  0 0.25473328E+04</rscale>
<asrwt>0</asrwt>
<pdfrwt beam="1">  1        1 0.19094282E+00 0.25473328E+04</pdfrwt>
<pdfrwt beam="2">  1       -2 0.20108578E+00 0.25473328E+04</pdfrwt>
<totfact> 0.10131320E+00</totfact>
</mgrwt>
</event>
<event>
12    4  0.4413110E-008  0.1726588E+04  0.7818608E-02  0.8746344E-01
          1   -1    0    0  501    0  0.00000000000E+00  0.00000000000E+00  0.87838161073E+03  0.87838161073E+03  0.00000000000E+00 0. -1.
         -2   -1    0    0    0  501 -0.00000000000E+00 -0.00000000000E+00 -0.84846554558E+03  0.84846554558E+03  0.00000000000E+00 0.  1.
        -24    2    1    2    0    0  0.16594166361E+03 -0.26064593200E+03 -0.52835019732E+03  0.61736871210E+03  0.80729536620E+02 0.  0.
        254    2    1    2    0    0 -0.16594166361E+03  0.26064593200E+03  0.55826626247E+03  0.11094784442E+04  0.90763883829E+03 0.  0.
         23    2    4    4    0    0 -0.20342964534E+03  0.20262500273E+03  0.79310435641E+03  0.84850613802E+03  0.92236835219E+02 0.  0.
         23    2    4    4    0    0  0.37487981725E+02  0.58020929263E+02 -0.23483809394E+03  0.26097230619E+03  0.90475616771E+02 0.  0.
          3    1    3    3  502    0  0.37449960351E+01 -0.37497431727E+02 -0.10976737623E+03  0.11605584546E+03  0.00000000000E+00 0. -1.
         -4    1    3    3    0  502  0.16219666757E+03 -0.22314850027E+03 -0.41858282110E+03  0.50131286664E+03  0.00000000000E+00 0.  1.
         11    1    5    5    0    0 -0.29225939118E+02  0.22225480144E+01  0.37453491550E+02  0.47559008256E+02  0.00000000000E+00 0. -1.
        -11    1    5    5    0    0 -0.17420370622E+03  0.20040245472E+03  0.75565086486E+03  0.80094712976E+03  0.00000000000E+00 0.  1.
          1    1    6    6  503    0  0.17698519966E+02  0.92187359838E+00  0.76843470194E+00  0.17739164350E+02  0.00000000000E+00 0. -1.
         -1    1    6    6    0  503  0.19789461759E+02  0.57099055665E+02 -0.23560652864E+03  0.24323314184E+03  0.00000000000E+00 0.  1.
<mgrwt>
<rscale>  0 0.17265880E+04</rscale>
<asrwt>0</asrwt>
<pdfrwt beam="1">  1        1 0.13513563E+00 0.17265880E+04</pdfrwt>
<pdfrwt beam="2">  1       -2 0.13053316E+00 0.17265880E+04</pdfrwt>
<totfact> 0.67793621E+00</totfact>
</mgrwt>
</event>
<event>
12    4  0.4413110E-008  0.1809450E+04  0.7818608E-02  0.8701290E-01
         -2   -1    0    0    0  501 -0.00000000000E+00  0.00000000000E+00  0.72087693419E+03  0.72087693419E+03  0.00000000000E+00 0.  1.
          1   -1    0    0  501    0  0.00000000000E+00 -0.00000000000E+00 -0.11354600534E+04  0.11354600534E+04  0.00000000000E+00 0. -1.
        -24    2    1    2    0    0 -0.19425100404E+03  0.41510448191E+03  0.36521156700E+03  0.59142262185E+03  0.79724811028E+02 0.  0.
        254    2    1    2    0    0  0.19425100404E+03 -0.41510448191E+03 -0.77979468616E+03  0.12649143657E+04  0.88424171838E+03 0.  0.
         23    2    4    4    0    0  0.74273088862E+02 -0.44780406175E+03 -0.93696663067E+03  0.10451706559E+04  0.91816466864E+02 0.  0.
         23    2    4    4    0    0  0.11997791518E+03  0.32699579837E+02  0.15717194451E+03  0.21974370977E+03  0.90112791491E+02 0.  0.
          1    1    3    3  502    0  0.78523172074E+01  0.14885634539E+02  0.13786270692E+02  0.21755511043E+02  0.00000000000E+00 0. -1.
         -2    1    3    3    0  502 -0.20210332125E+03  0.40021884737E+03  0.35142529630E+03  0.56966711081E+03  0.00000000000E+00 0.  1.
         11    1    5    5    0    0  0.46506432909E+02 -0.29753757783E+03 -0.71351962365E+03  0.77446866422E+03  0.00000000000E+00 0.  1.
        -11    1    5    5    0    0  0.27766655953E+02 -0.15026648391E+03 -0.22344700701E+03  0.27070199171E+03  0.00000000000E+00 0. -1.
          2    1    6    6  503    0  0.19530105379E+02 -0.23717790390E+02  0.89243457603E+01  0.31993789152E+02  0.00000000000E+00 0. -1.
         -2    1    6    6    0  503  0.10044780980E+03  0.56417370226E+02  0.14824759875E+03  0.18774992062E+03  0.00000000000E+00 0.  1.
<mgrwt>
<rscale>  0 0.18094496E+04</rscale>
<asrwt>0</asrwt>
<pdfrwt beam="1">  1        1 0.17468616E+00 0.18094496E+04</pdfrwt>
<pdfrwt beam="2">  1       -2 0.11090414E+00 0.18094496E+04</pdfrwt>
<totfact> 0.63516446E+00</totfact>
</mgrwt>
</event>
<event>
12    4  0.4413110E-008  0.1375998E+04  0.7818608E-02  0.8971378E-01
          1   -1    0    0  501    0  0.00000000000E+00  0.00000000000E+00  0.15367091327E+04  0.15367091327E+04  0.00000000000E+00 0. -1.
         -2   -1    0    0    0  501 -0.00000000000E+00 -0.00000000000E+00 -0.30802372901E+03  0.30802372901E+03  0.00000000000E+00 0.  1.
        -24    2    1    2    0    0  0.15032116803E+03  0.72188406192E+02  0.84351998941E+03  0.86333253060E+03  0.77520747507E+02 0.  0.
        254    2    1    2    0    0 -0.15032116803E+03 -0.72188406192E+02  0.38516541432E+03  0.98140033117E+03  0.88712264884E+03 0.  0.
         23    2    4    4    0    0  0.27090670746E+03 -0.28453040165E+03  0.27598368324E+03  0.48844576622E+03  0.89801333602E+02 0.  0.
         23    2    4    4    0    0 -0.42122787550E+03  0.21234199546E+03  0.10918173109E+03  0.49295456495E+03  0.92528409543E+02 0.  0.
          1    1    3    3  502    0  0.15056724785E+03  0.82329676823E+02  0.81921075371E+03  0.83699159542E+03  0.00000000000E+00 0. -1.
         -2    1    3    3    0  502 -0.24607981893E+00 -0.10141270631E+02  0.24309235704E+02  0.26340935173E+02  0.00000000000E+00 0.  1.
         11    1    5    5    0    0  0.91645808032E+02 -0.14986470928E+03  0.91340229302E+02  0.19799349158E+03  0.00000000000E+00 0. -1.
        -11    1    5    5    0    0  0.17926089943E+03 -0.13466569237E+03  0.18464345393E+03  0.29045227464E+03  0.00000000000E+00 0.  1.
          3    1    6    6  503    0 -0.42105472175E+03  0.19843501511E+03  0.99441387481E+02  0.47597491896E+03  0.00000000000E+00 0. -1.
         -3    1    6    6    0  503 -0.17315374347E+00  0.13906980342E+02  0.97403436042E+01  0.16979645991E+02  0.00000000000E+00 0.  1.
<mgrwt>
<rscale>  0 0.13759984E+04</rscale>
<asrwt>0</asrwt>
<pdfrwt beam="1">  1        1 0.23641679E+00 0.13759984E+04</pdfrwt>
<pdfrwt beam="2">  1       -2 0.47388267E-01 0.13759984E+04</pdfrwt>
<totfact> 0.22319631E+01</totfact>
</mgrwt>
</event>
<event>
12    4  0.4413110E-008  0.1627684E+04  0.7818608E-02  0.8803719E-01
          1   -1    0    0  501    0  0.00000000000E+00  0.00000000000E+00  0.11890643566E+04  0.11890643566E+04  0.00000000000E+00 0. -1.
         -2   -1    0    0    0  501 -0.00000000000E+00 -0.00000000000E+00 -0.55702490094E+03  0.55702490094E+03  0.00000000000E+00 0.  1.
        -24    2    1    2    0    0 -0.36991109335E+02 -0.12649617353E+03 -0.36878484003E+03  0.40001540312E+03  0.81488897491E+02 0.  0.
        254    2    1    2    0    0  0.36991109335E+02  0.12649617353E+03  0.10008242957E+04  0.13460738544E+04  0.89044703748E+03 0.  0.
         23    2    4    4    0    0  0.13434094334E+03 -0.63592145924E+01 -0.12492370521E+03  0.20473802375E+03  0.90685156331E+02 0.  0.
         23    2    4    4    0    0 -0.97349834002E+02  0.13285538812E+03  0.11257480009E+04  0.11413358306E+04  0.90616623665E+02 0.  0.
          3    1    3    3  502    0 -0.23836534486E+02 -0.38288664092E+01 -0.24953401542E+02  0.34720496005E+02  0.00000000000E+00 0. -1.
         -4    1    3    3    0  502 -0.13154574849E+02 -0.12266730712E+03 -0.34383143849E+03  0.36529490712E+03  0.00000000000E+00 0.  1.
         11    1    5    5    0    0  0.60515062240E+02 -0.40664702444E+02 -0.90849324446E+02  0.11648729774E+03  0.00000000000E+00 0.  1.
        -11    1    5    5    0    0  0.73825881097E+02  0.34305487852E+02 -0.34074380761E+02  0.88250726007E+02  0.00000000000E+00 0. -1.
          3    1    6    6  503    0 -0.14610342976E+02 -0.13366262039E+02  0.13475043487E+03  0.13619764602E+03  0.00000000000E+00 0. -1.
         -3    1    6    6    0  503 -0.82739491027E+02  0.14622165016E+03  0.99099756599E+03  0.10051381846E+04  0.00000000000E+00 0.  1.
<mgrwt>
<rscale>  0 0.16276836E+04</rscale>
<asrwt>0</asrwt>
<pdfrwt beam="1">  1        1 0.18293298E+00 0.16276836E+04</pdfrwt>
<pdfrwt beam="2">  1       -2 0.85696139E-01 0.16276836E+04</pdfrwt>
<totfact> 0.10809368E+01</totfact>
</mgrwt>
</event>
<event>
12    4  0.4413110E-008  0.1334647E+04  0.7818608E-02  0.9002532E-01
         -2   -1    0    0    0  501 -0.00000000000E+00  0.00000000000E+00  0.21137919045E+03  0.21137919045E+03  0.00000000000E+00 0.  1.
          1   -1    0    0  501    0  0.00000000000E+00 -0.00000000000E+00 -0.21067390641E+04  0.21067390641E+04  0.00000000000E+00 0. -1.
        -24    2    1    2    0    0 -0.75824543118E+02 -0.24774186966E+03 -0.84427798069E+02  0.28402445816E+03  0.80102711702E+02 0.  0.
        254    2    1    2    0    0  0.75824543118E+02  0.24774186966E+03 -0.18109320756E+04  0.20340937964E+04  0.88934649873E+03 0.  0.
         23    2    4    4    0    0  0.36449110502E+03  0.45694461465E+02 -0.15252572009E+04  0.15713983576E+04  0.89115206356E+02 0.  0.
         23    2    4    4    0    0 -0.28866656191E+03  0.20204740820E+03 -0.28567487470E+03  0.46269543878E+03  0.91243607505E+02 0.  0.
          1    1    3    3  502    0  0.68352263850E+00 -0.40970715767E+02 -0.43546770376E+02  0.59794547944E+02  0.00000000000E+00 0. -1.
         -2    1    3    3    0  502 -0.76508065756E+02 -0.20677115390E+03 -0.40881027693E+02  0.22422991022E+03  0.00000000000E+00 0.  1.
         11    1    5    5    0    0  0.18104586362E+03 -0.11175094056E+02 -0.86286439618E+03  0.88172413693E+03  0.00000000000E+00 0. -1.
        -11    1    5    5    0    0  0.18344524141E+03  0.56869555521E+02 -0.66239280468E+03  0.68967422065E+03  0.00000000000E+00 0.  1.
          2    1    6    6  503    0 -0.17459823542E+03  0.16943030941E+03 -0.16849302290E+03  0.29594099467E+03  0.00000000000E+00 0. -1.
         -2    1    6    6    0  503 -0.11406832649E+03  0.32617098793E+02 -0.11718185180E+03  0.16675444411E+03  0.00000000000E+00 0.  1.
<mgrwt>
<rscale>  0 0.13346472E+04</rscale>
<asrwt>0</asrwt>
<pdfrwt beam="1">  1        1 0.32411369E+00 0.13346472E+04</pdfrwt>
<pdfrwt beam="2">  1       -2 0.32519876E-01 0.13346472E+04</pdfrwt>
<totfact> 0.19147937E+01</totfact>
</mgrwt>
</event>
<event>
12    4  0.4413110E-008  0.3091796E+04  0.7818608E-02  0.8217993E-01
         -2   -1    0    0    0  501 -0.00000000000E+00  0.00000000000E+00  0.16111491463E+04  0.16111491463E+04  0.00000000000E+00 0.  1.
          1   -1    0    0  501    0  0.00000000000E+00 -0.00000000000E+00 -0.14832893277E+04  0.14832893277E+04  0.00000000000E+00 0. -1.
        -24    2    1    2    0    0 -0.45514534781E+03 -0.58838980785E+02 -0.12830099099E+04  0.13641057459E+04  0.63645454627E+02 0.  0.
        254    2    1    2    0    0  0.45514534781E+03  0.58838980785E+02  0.14108697285E+04  0.17303327282E+04  0.89043733415E+03 0.  0.
         23    2    4    4    0    0  0.70757746075E+03  0.27676721459E+02  0.86815357264E+03  0.11240764889E+04  0.91790322649E+02 0.  0.
         23    2    4    4    0    0 -0.25243211294E+03  0.31162259325E+02  0.54271615586E+03  0.60625623926E+03  0.91174249455E+02 0.  0.
          3    1    3    3  502    0 -0.23338407036E+03 -0.16931965121E+02 -0.73825076194E+03  0.77444754712E+03  0.00000000000E+00 0. -1.
         -4    1    3    3    0  502 -0.22176127744E+03 -0.41907015664E+02 -0.54475914795E+03  0.58965819879E+03  0.00000000000E+00 0.  1.
         11    1    5    5    0    0  0.46634959656E+03  0.61744356646E+02  0.57322592408E+03  0.74154047214E+03  0.00000000000E+00 0.  1.
        -11    1    5    5    0    0  0.24122786419E+03 -0.34067635186E+02  0.29492764856E+03  0.38253601675E+03  0.00000000000E+00 0. -1.
          4    1    6    6  503    0 -0.24228619049E+03  0.38864868393E+02  0.44899482830E+03  0.51167316907E+03  0.00000000000E+00 0. -1.
         -4    1    6    6    0  503 -0.10145922447E+02 -0.77026090678E+01  0.93721327559E+02  0.94583070199E+02  0.00000000000E+00 0.  1.
<mgrwt>
<rscale>  0 0.30917958E+04</rscale>
<asrwt>0</asrwt>
<pdfrwt beam="1">  1        1 0.22819836E+00 0.30917958E+04</pdfrwt>
<pdfrwt beam="2">  1       -2 0.24786910E+00 0.30917958E+04</pdfrwt>
<totfact> 0.33003848E-01</totfact>
</mgrwt>
</event>
<event>
12    4  0.4413110E-008  0.1283512E+04  0.7818608E-02  0.9042743E-01
         -2   -1    0    0    0  501 -0.00000000000E+00  0.00000000000E+00  0.14527213471E+04  0.14527213471E+04  0.00000000000E+00 0.  1.
          1   -1    0    0  501    0  0.00000000000E+00 -0.00000000000E+00 -0.28350292140E+03  0.28350292140E+03  0.00000000000E+00 0. -1.
        -24    2    1    2    0    0  0.28421575722E+03  0.14390018828E+03  0.28725181942E+03  0.43605890577E+03  0.78408549919E+02 0.  0.
        254    2    1    2    0    0 -0.28421575722E+03 -0.14390018828E+03  0.88196660623E+03  0.13001653627E+04  0.90059925327E+03 0.  0.
         23    2    4    4    0    0  0.27832464034E+03  0.13311482824E+03  0.27624082312E+03  0.42359054838E+03  0.89083092695E+02 0.  0.
         23    2    4    4    0    0 -0.56254039756E+03 -0.27701501652E+03  0.60572578311E+03  0.87657481431E+03  0.91053075084E+02 0.  0.
          3    1    3    3  502    0  0.28670355580E+03  0.13632792313E+03  0.26886911523E+03  0.41602263479E+03  0.00000000000E+00 0. -1.
         -4    1    3    3    0  502 -0.24877985827E+01  0.75722651527E+01  0.18382704189E+02  0.20036270976E+02  0.00000000000E+00 0.  1.
         11    1    5    5    0    0  0.21878750105E+03  0.75715153040E+02  0.23946099429E+03  0.33308005464E+03  0.00000000000E+00 0.  1.
        -11    1    5    5    0    0  0.59537139291E+02  0.57399675203E+02  0.36779828829E+02  0.90510493740E+02  0.00000000000E+00 0. -1.
          3    1    6    6  503    0 -0.15100690951E+03 -0.11217572047E+03  0.21464194839E+03  0.28540785727E+03  0.00000000000E+00 0. -1.
         -3    1    6    6    0  503 -0.41153348805E+03 -0.16483929605E+03  0.39108383473E+03  0.59116695704E+03  0.00000000000E+00 0.  1.
<mgrwt>
<rscale>  0 0.12835120E+04</rscale>
<asrwt>0</asrwt>
<pdfrwt beam="1">  1        1 0.43615835E-01 0.12835120E+04</pdfrwt>
<pdfrwt beam="2">  1       -2 0.22349559E+00 0.12835120E+04</pdfrwt>
<totfact> 0.76136187E+00</totfact>
</mgrwt>
</event>
<event>
12    4  0.4413110E-008  0.1343529E+04  0.7818608E-02  0.8995741E-01
         -2   -1    0    0    0  501 -0.00000000000E+00  0.00000000000E+00  0.92634848922E+03  0.92634848922E+03  0.00000000000E+00 0.  1.
          1   -1    0    0  501    0  0.00000000000E+00 -0.00000000000E+00 -0.48714692137E+03  0.48714692137E+03  0.00000000000E+00 0. -1.
        -24    2    1    2    0    0 -0.30246415205E+02  0.34838859346E+03  0.22391478124E+03  0.42266964199E+03  0.78881806010E+02 0.  0.
        254    2    1    2    0    0  0.30246415205E+02 -0.34838859346E+03  0.21528678662E+03  0.99082576860E+03  0.90171938292E+03 0.  0.
         23    2    4    4    0    0  0.31534878701E+03 -0.27186964458E+03 -0.20241370442E+03  0.47144976684E+03  0.89082062174E+02 0.  0.
         23    2    4    4    0    0 -0.28510237181E+03 -0.76518948886E+02  0.41770049104E+03  0.51937600176E+03  0.90217620448E+02 0.  0.
          3    1    3    3  502    0  0.20499874999E+02  0.31660692685E+02  0.23510285110E+02  0.44445222940E+02  0.00000000000E+00 0. -1.
         -4    1    3    3    0  502 -0.50746290204E+02  0.31672790078E+03  0.20040449613E+03  0.37822441905E+03  0.00000000000E+00 0.  1.
         11    1    5    5    0    0  0.31368831541E+03 -0.25729067281E+03 -0.17815917710E+03  0.44310218000E+03  0.00000000000E+00 0.  1.
        -11    1    5    5    0    0  0.16604716044E+01 -0.14578971769E+02 -0.24254527323E+02  0.28347586837E+02  0.00000000000E+00 0. -1.
          4    1    6    6  503    0 -0.45682507085E+02 -0.48390187793E+02  0.73458885435E+02  0.99119673010E+02  0.00000000000E+00 0. -1.
         -4    1    6    6    0  503 -0.23941986472E+03 -0.28128761093E+02  0.34424160561E+03  0.42025632875E+03  0.00000000000E+00 0.  1.
<mgrwt>
<rscale>  0 0.13435294E+04</rscale>
<asrwt>0</asrwt>
<pdfrwt beam="1">  1        1 0.74945680E-01 0.13435294E+04</pdfrwt>
<pdfrwt beam="2">  1       -2 0.14251515E+00 0.13435294E+04</pdfrwt>
<totfact> 0.13478921E+01</totfact>
</mgrwt>
</event>
<event>
12    4  0.4413110E-008  0.1618562E+04  0.7818608E-02  0.8809225E-01
          1   -1    0    0  501    0  0.00000000000E+00  0.00000000000E+00  0.13081155343E+04  0.13081155343E+04  0.00000000000E+00 0. -1.
         -2   -1    0    0    0  501 -0.00000000000E+00 -0.00000000000E+00 -0.50067132731E+03  0.50067132731E+03  0.00000000000E+00 0.  1.
        -24    2    1    2    0    0  0.11166315223E+03 -0.94132714944E+02 -0.31776375889E+03  0.35880364530E+03  0.80228559892E+02 0.  0.
        254    2    1    2    0    0 -0.11166315223E+03  0.94132714944E+02  0.11252079659E+04  0.14499832163E+04  0.90278941816E+03 0.  0.
         23    2    4    4    0    0 -0.43304916683E+03 -0.15911437360E+03  0.75160403587E+03  0.88646466504E+03  0.89788701180E+02 0.  0.
         23    2    4    4    0    0  0.32138601460E+03  0.25324708854E+03  0.37360393004E+03  0.56351855130E+03  0.10271418053E+03 0.  0.
          3    1    3    3  502    0  0.23558811268E+02  0.12937526989E+02 -0.68229259785E+02  0.73332319503E+02  0.00000000000E+00 0. -1.
         -4    1    3    3    0  502  0.88104340962E+02 -0.10707024193E+03 -0.24953449911E+03  0.28547132579E+03  0.00000000000E+00 0.  1.
         11    1    5    5    0    0 -0.75126150144E+02  0.68252835447E+01  0.11561237246E+03  0.13804616473E+03  0.00000000000E+00 0. -1.
        -11    1    5    5    0    0 -0.35792301669E+03 -0.16593965714E+03  0.63599166340E+03  0.74841850031E+03  0.00000000000E+00 0.  1.
          3    1    6    6  503    0  0.26543172660E+01  0.12736312587E+00 -0.62480609064E+01  0.67896897281E+01  0.00000000000E+00 0. -1.
         -3    1    6    6    0  503  0.31873169733E+03  0.25311972542E+03  0.37985199095E+03  0.55672886157E+03  0.00000000000E+00 0.  1.
<mgrwt>
<rscale>  0 0.16185623E+04</rscale>
<asrwt>0</asrwt>
<pdfrwt beam="1">  1        1 0.20124854E+00 0.16185623E+04</pdfrwt>
<pdfrwt beam="2">  1       -2 0.77026359E-01 0.16185623E+04</pdfrwt>
<totfact> 0.11288410E+01</totfact>
</mgrwt>
</event>
<event>
12    4  0.4413110E-008  0.2013260E+04  0.7818608E-02  0.8600446E-01
         -2   -1    0    0    0  501 -0.00000000000E+00  0.00000000000E+00  0.10716812166E+04  0.10716812166E+04  0.00000000000E+00 0.  1.
          1   -1    0    0  501    0  0.00000000000E+00 -0.00000000000E+00 -0.94552753961E+03  0.94552753961E+03  0.00000000000E+00 0. -1.
        -24    2    1    2    0    0 -0.72522274712E+03  0.26601227923E+03 -0.18429488530E+03  0.79815559460E+03  0.79857265155E+02 0.  0.
        254    2    1    2    0    0  0.72522274712E+03 -0.26601227923E+03  0.31044856231E+03  0.12190531616E+04  0.89050644882E+03 0.  0.
         23    2    4    4    0    0  0.35576887123E+03 -0.44554252620E+03 -0.14907976600E+03  0.59626518985E+03  0.90707042803E+02 0.  0.
         23    2    4    4    0    0  0.36945387589E+03  0.17953024696E+03  0.45952832831E+03  0.62278797177E+03  0.89282121841E+02 0.  0.
          1    1    3    3  502    0 -0.71240128470E+03  0.25355200604E+03 -0.18945045657E+03  0.77954838574E+03  0.00000000000E+00 0. -1.
         -2    1    3    3    0  502 -0.12821462419E+02  0.12460273190E+02  0.51555712665E+01  0.18607208861E+02  0.00000000000E+00 0.  1.
         11    1    5    5    0    0  0.34768061086E+03 -0.42507299900E+03 -0.15959377403E+03  0.57187326774E+03  0.00000000000E+00 0.  1.
        -11    1    5    5    0    0  0.80882603661E+01 -0.20469527191E+02  0.10514008030E+02  0.24391922107E+02  0.00000000000E+00 0. -1.
          1    1    6    6  503    0  0.18052832083E+03  0.45034228572E+02  0.17191832178E+03  0.25332679631E+03  0.00000000000E+00 0. -1.
         -1    1    6    6    0  503  0.18892555506E+03  0.13449601839E+03  0.28761000653E+03  0.36946117546E+03  0.00000000000E+00 0.  1.
<mgrwt>
<rscale>  0 0.20132601E+04</rscale>
<asrwt>0</asrwt>
<pdfrwt beam="1">  1        1 0.14546578E+00 0.20132601E+04</pdfrwt>
<pdfrwt beam="2">  1       -2 0.16487403E+00 0.20132601E+04</pdfrwt>
<totfact> 0.31484656E+00</totfact>
</mgrwt>
</event>
<event>
12    4  0.4413110E-008  0.1115366E+04  0.7818608E-02  0.9190343E-01
         -2   -1    0    0    0  501 -0.00000000000E+00  0.00000000000E+00  0.30747019367E+03  0.30747019367E+03  0.00000000000E+00 0.  1.
          1   -1    0    0  501    0  0.00000000000E+00 -0.00000000000E+00 -0.10115143538E+04  0.10115143538E+04  0.00000000000E+00 0. -1.
        -24    2    1    2    0    0  0.47581857807E+02 -0.99501271740E+02  0.41264966054E+02  0.14323320653E+03  0.81537830237E+02 0.  0.
        254    2    1    2    0    0 -0.47581857807E+02  0.99501271740E+02 -0.74530912622E+03  0.11757513410E+04  0.90263003821E+03 0.  0.
         23    2    4    4    0    0 -0.29698413445E+03  0.22874551718E+03 -0.78869584010E+03  0.87821187110E+03  0.93224860357E+02 0.  0.
         23    2    4    4    0    0  0.24940227664E+03 -0.12924424544E+03  0.43386713882E+02  0.29753946987E+03  0.87987263943E+02 0.  0.
          1    1    3    3  502    0  0.26731371736E+02 -0.32063365683E+02 -0.23096551427E+02  0.47708241862E+02  0.00000000000E+00 0. -1.
         -2    1    3    3    0  502  0.20850486071E+02 -0.67437906057E+02  0.64361517481E+02  0.95524964670E+02  0.00000000000E+00 0.  1.
         11    1    5    5    0    0 -0.26705782715E+03  0.18473983451E+03 -0.73008829164E+03  0.79904793541E+03  0.00000000000E+00 0. -1.
        -11    1    5    5    0    0 -0.29926307296E+02  0.44005682670E+02 -0.58607548468E+02  0.79163935685E+02  0.00000000000E+00 0.  1.
          3    1    6    6  503    0  0.15104552998E+03 -0.28842212934E+02  0.20426649768E+02  0.15512534736E+03  0.00000000000E+00 0. -1.
         -3    1    6    6    0  503  0.98356746663E+02 -0.10040203251E+03  0.22960064113E+02  0.14241412251E+03  0.00000000000E+00 0.  1.
<mgrwt>
<rscale>  0 0.11153663E+04</rscale>
<asrwt>0</asrwt>
<pdfrwt beam="1">  1        1 0.15561759E+00 0.11153663E+04</pdfrwt>
<pdfrwt beam="2">  1       -2 0.47303107E-01 0.11153663E+04</pdfrwt>
<totfact> 0.54776595E+01</totfact>
</mgrwt>
</event>
<event>
12    4  0.4413110E-008  0.2314947E+04  0.7818608E-02  0.8472051E-01
          1   -1    0    0  501    0  0.00000000000E+00  0.00000000000E+00  0.10236947770E+04  0.10236947770E+04  0.00000000000E+00 0. -1.
         -2   -1    0    0    0  501 -0.00000000000E+00 -0.00000000000E+00 -0.13087342847E+04  0.13087342847E+04  0.00000000000E+00 0.  1.
        -24    2    1    2    0    0  0.37700162474E+03  0.34385924690E+03  0.72498308022E+03  0.88998717607E+03  0.78149217690E+02 0.  0.
        254    2    1    2    0    0 -0.37700162474E+03 -0.34385924690E+03 -0.10100225879E+04  0.14424418856E+04  0.89449625959E+03 0.  0.
         23    2    4    4    0    0 -0.10398992381E+03 -0.31245150058E+03  0.48858995305E+02  0.34455183317E+03  0.88819591576E+02 0.  0.
         23    2    4    4    0    0 -0.27301170093E+03 -0.31407746320E+02 -0.10588815832E+04  0.10978900524E+04  0.92792911971E+02 0.  0.
          3    1    3    3  502    0  0.29621986024E+03  0.23420888291E+03  0.56908671598E+03  0.68297854778E+03  0.00000000000E+00 0. -1.
         -4    1    3    3    0  502  0.80781764504E+02  0.10965036399E+03  0.15589636424E+03  0.20700862828E+03  0.00000000000E+00 0.  1.
         11    1    5    5    0    0  0.54336626372E+01 -0.94517077815E+02 -0.50277037334E+01  0.94806542460E+02  0.00000000000E+00 0. -1.
        -11    1    5    5    0    0 -0.10942358645E+03 -0.21793442276E+03  0.53886699038E+02  0.24974529071E+03  0.00000000000E+00 0.  1.
          1    1    6    6  503    0  0.37089419552E+01 -0.12049590024E+02 -0.41987238679E+02  0.43839218538E+02  0.00000000000E+00 0. -1.
         -1    1    6    6    0  503 -0.27672064288E+03 -0.19358156297E+02 -0.10168943446E+04  0.10540508339E+04  0.00000000000E+00 0.  1.
<mgrwt>
<rscale>  0 0.23149466E+04</rscale>
<asrwt>0</asrwt>
<pdfrwt beam="1">  1        1 0.15749151E+00 0.23149466E+04</pdfrwt>
<pdfrwt beam="2">  1       -2 0.20134374E+00 0.23149466E+04</pdfrwt>
<totfact> 0.14959018E+00</totfact>
</mgrwt>
</event>
<event>
12    4  0.4413110E-008  0.1453757E+04  0.7818608E-02  0.8915800E-01
         -2   -1    0    0    0  501 -0.00000000000E+00  0.00000000000E+00  0.24306301344E+03  0.24306301344E+03  0.00000000000E+00 0.  1.
          1   -1    0    0  501    0  0.00000000000E+00 -0.00000000000E+00 -0.21737265288E+04  0.21737265288E+04  0.00000000000E+00 0. -1.
        -24    2    1    2    0    0  0.57625507066E+02 -0.41620352051E+03 -0.36974182834E+03  0.56517597587E+03  0.78541673866E+02 0.  0.
        254    2    1    2    0    0 -0.57625507066E+02  0.41620352051E+03 -0.15609216871E+04  0.18516135664E+04  0.90302282176E+03 0.  0.
         23    2    4    4    0    0 -0.37162470830E+03  0.37119448535E+03 -0.13711029142E+04  0.14710753307E+04  0.90824873193E+02 0.  0.
         23    2    4    4    0    0  0.31399920124E+03  0.45009035164E+02 -0.18981877286E+03  0.38053823567E+03  0.90315395455E+02 0.  0.
          3    1    3    3  502    0 -0.16615408863E+02 -0.56978067469E+02 -0.37091286667E+02  0.69988109924E+02  0.00000000000E+00 0. -1.
         -4    1    3    3    0  502  0.74240915928E+02 -0.35922545304E+03 -0.33265054167E+03  0.49518786595E+03  0.00000000000E+00 0.  1.
         11    1    5    5    0    0 -0.24240242123E+03  0.23655816681E+03 -0.75868857924E+03  0.83085923018E+03  0.00000000000E+00 0.  1.
        -11    1    5    5    0    0 -0.12922228707E+03  0.13463631854E+03 -0.61241433496E+03  0.64021610055E+03  0.00000000000E+00 0. -1.
          1    1    6    6  503    0  0.29152325178E+03  0.44854631007E+02 -0.14127158866E+03  0.32704037367E+03  0.00000000000E+00 0. -1.
         -1    1    6    6    0  503  0.22475949460E+02  0.15440415711E+00 -0.48547184205E+02  0.53497862004E+02  0.00000000000E+00 0.  1.
<mgrwt>
<rscale>  0 0.14537572E+04</rscale>
<asrwt>0</asrwt>
<pdfrwt beam="1">  1        1 0.33441947E+00 0.14537572E+04</pdfrwt>
<pdfrwt beam="2">  1       -2 0.37394310E-01 0.14537572E+04</pdfrwt>
<totfact> 0.13069473E+01</totfact>
</mgrwt>
</event>
<event>
12    4  0.4413110E-008  0.1731192E+04  0.7818608E-02  0.8743772E-01
         -2   -1    0    0    0  501 -0.00000000000E+00  0.00000000000E+00  0.43975198723E+03  0.43975198723E+03  0.00000000000E+00 0.  1.
          1   -1    0    0  501    0  0.00000000000E+00 -0.00000000000E+00 -0.17038152906E+04  0.17038152906E+04  0.00000000000E+00 0. -1.
        -24    2    1    2    0    0  0.39743749405E+03 -0.89067800524E+02 -0.10012832464E+04  0.10838243567E+04  0.78850884813E+02 0.  0.
        254    2    1    2    0    0 -0.39743749405E+03  0.89067800524E+02 -0.26278005704E+03  0.10597429211E+04  0.94239697883E+03 0.  0.
         23    2    4    4    0    0  0.48462338339E+01 -0.21169468746E+03 -0.45849986976E+03  0.51310422668E+03  0.90640444535E+02 0.  0.
         23    2    4    4    0    0 -0.40228372789E+03  0.30076248799E+03  0.19571981272E+03  0.54663869444E+03  0.90649573968E+02 0.  0.
          1    1    3    3  502    0  0.32199833746E+03 -0.50317938891E+02 -0.85085254129E+03  0.91113383831E+03  0.00000000000E+00 0. -1.
         -2    1    3    3    0  502  0.75439156591E+02 -0.38749861633E+02 -0.15043070508E+03  0.17269051843E+03  0.00000000000E+00 0.  1.
         11    1    5    5    0    0 -0.28038288044E+02 -0.54272369924E+02 -0.71638312357E+02  0.94147137667E+02  0.00000000000E+00 0.  1.
        -11    1    5    5    0    0  0.32884521878E+02 -0.15742231754E+03 -0.38686155740E+03  0.41895708902E+03  0.00000000000E+00 0. -1.
          2    1    6    6  503    0 -0.38308310872E+03  0.27346447878E+03  0.20282439179E+03  0.51251655900E+03  0.00000000000E+00 0. -1.
         -2    1    6    6    0  503 -0.19200619164E+02  0.27298009205E+02 -0.71045790721E+01  0.34122135435E+02  0.00000000000E+00 0.  1.
<mgrwt>
<rscale>  0 0.17311917E+04</rscale>
<asrwt>0</asrwt>
<pdfrwt beam="1">  1        1 0.26212543E+00 0.17311917E+04</pdfrwt>
<pdfrwt beam="2">  1       -2 0.67654152E-01 0.17311917E+04</pdfrwt>
<totfact> 0.79024406E+00</totfact>
</mgrwt>
</event>
<event>
12    4  0.4413110E-008  0.1619085E+04  0.7818608E-02  0.8808909E-01
         -2   -1    0    0    0  501 -0.00000000000E+00  0.00000000000E+00  0.45415095227E+03  0.45415095227E+03  0.00000000000E+00 0.  1.
          1   -1    0    0  501    0  0.00000000000E+00 -0.00000000000E+00 -0.14430417723E+04  0.14430417723E+04  0.00000000000E+00 0. -1.
        -24    2    1    2    0    0 -0.13065878780E+03 -0.47085839287E+03 -0.65066002570E+03  0.81756651745E+03  0.79228760269E+02 0.  0.
        254    2    1    2    0    0  0.13065878780E+03  0.47085839287E+03 -0.33823079437E+03  0.10796262072E+04  0.90133974281E+03 0.  0.
         23    2    4    4    0    0  0.31407009893E+03  0.41329062149E+03  0.14899355887E+03  0.54810153615E+03  0.93632518357E+02 0.  0.
         23    2    4    4    0    0 -0.18341131114E+03  0.57567771384E+02 -0.48722435324E+03  0.53152467101E+03  0.90427585089E+02 0.  0.
          1    1    3    3  502    0 -0.50626660925E+02 -0.32262756170E+03 -0.42928572248E+03  0.53938653477E+03  0.00000000000E+00 0. -1.
         -2    1    3    3    0  502 -0.80032126870E+02 -0.14823083118E+03 -0.22137430322E+03  0.27817998269E+03  0.00000000000E+00 0.  1.
         11    1    5    5    0    0  0.34728428850E+02  0.78465712637E+02  0.55347972591E+02  0.10210940162E+03  0.00000000000E+00 0. -1.
        -11    1    5    5    0    0  0.27934167008E+03  0.33482490885E+03  0.93645586280E+02  0.44599213453E+03  0.00000000000E+00 0.  1.
          2    1    6    6  503    0 -0.11419965241E+03  0.70808199849E+02 -0.38147078755E+03  0.40444446285E+03  0.00000000000E+00 0. -1.
         -2    1    6    6    0  503 -0.69211658724E+02 -0.13240428465E+02 -0.10575356570E+03  0.12708020816E+03  0.00000000000E+00 0.  1.
<mgrwt>
<rscale>  0 0.16190847E+04</rscale>
<asrwt>0</asrwt>
<pdfrwt beam="1">  1        1 0.22200642E+00 0.16190847E+04</pdfrwt>
<pdfrwt beam="2">  1       -2 0.69869378E-01 0.16190847E+04</pdfrwt>
<totfact> 0.11245154E+01</totfact>
</mgrwt>
</event>
<event>
12    4  0.4413110E-008  0.1327393E+04  0.7818608E-02  0.9008120E-01
          1   -1    0    0  501    0  0.00000000000E+00  0.00000000000E+00  0.71641967880E+03  0.71641967880E+03  0.00000000000E+00 0. -1.
         -2   -1    0    0    0  501 -0.00000000000E+00 -0.00000000000E+00 -0.61485317387E+03  0.61485317387E+03  0.00000000000E+00 0.  1.
        -24    2    1    2    0    0 -0.31343384878E+02 -0.31573777945E+03  0.19429144207E+03  0.38052333835E+03  0.79850444066E+02 0.  0.
        254    2    1    2    0    0  0.31343384878E+02  0.31573777945E+03 -0.92724937135E+02  0.95074951433E+03  0.89143366095E+03 0.  0.
         23    2    4    4    0    0 -0.24704378413E+03  0.52158178406E+03 -0.99925763103E+02  0.59296055792E+03  0.92406040848E+02 0.  0.
         23    2    4    4    0    0  0.27838716900E+03 -0.20584400461E+03  0.72008259672E+01  0.35778895640E+03  0.89943956598E+02 0.  0.
          1    1    3    3  502    0 -0.18886060520E+02 -0.20734441374E+03  0.81471636805E+02  0.22357552817E+03  0.00000000000E+00 0. -1.
         -2    1    3    3    0  502 -0.12457324358E+02 -0.10839336571E+03  0.11281980527E+03  0.15694781018E+03  0.00000000000E+00 0.  1.
         11    1    5    5    0    0 -0.52934126681E+02  0.96132796075E+02  0.16681007607E+02  0.11100356870E+03  0.00000000000E+00 0. -1.
        -11    1    5    5    0    0 -0.19410965744E+03  0.42544898798E+03 -0.11660677071E+03  0.48195698923E+03  0.00000000000E+00 0.  1.
          1    1    6    6  503    0  0.85983564162E+02 -0.41611301700E+02 -0.34194199612E+02  0.10145894254E+03  0.00000000000E+00 0. -1.
         -1    1    6    6    0  503  0.19240360484E+03 -0.16423270291E+03  0.41395025579E+02  0.25633001386E+03  0.00000000000E+00 0.  1.
<mgrwt>
<rscale>  0 0.13273928E+04</rscale>
<asrwt>0</asrwt>
<pdfrwt beam="1">  1        1 0.11021841E+00 0.13273928E+04</pdfrwt>
<pdfrwt beam="2">  1       -2 0.94592796E-01 0.13273928E+04</pdfrwt>
<totfact> 0.21257958E+01</totfact>
</mgrwt>
</event>
<event>
12    4  0.4413110E-008  0.1527817E+04  0.7818608E-02  0.8866163E-01
          1   -1    0    0  501    0  0.00000000000E+00  0.00000000000E+00  0.12719216121E+04  0.12719216121E+04  0.00000000000E+00 0. -1.
         -2   -1    0    0    0  501 -0.00000000000E+00 -0.00000000000E+00 -0.45879884779E+03  0.45879884779E+03  0.00000000000E+00 0.  1.
        -24    2    1    2    0    0  0.36795909951E+03 -0.73636588692E+02  0.64001880080E+03  0.74643942237E+03  0.82045717678E+02 0.  0.
        254    2    1    2    0    0 -0.36795909951E+03  0.73636588692E+02  0.17310396351E+03  0.98428103752E+03  0.89332409155E+03 0.  0.
         23    2    4    4    0    0 -0.52067087506E+03 -0.11215282886E+03 -0.15991103710E+03  0.56345321492E+03  0.90727991636E+02 0.  0.
         23    2    4    4    0    0  0.15271177556E+03  0.18578941755E+03  0.33301500061E+03  0.42082782260E+03  0.91424677069E+02 0.  0.
          1    1    3    3  502    0  0.15242642567E+03 -0.82309349152E+01  0.32627021699E+03  0.36021357280E+03  0.00000000000E+00 0. -1.
         -2    1    3    3    0  502  0.21553267384E+03 -0.65405653776E+02  0.31374858380E+03  0.38622584957E+03  0.00000000000E+00 0.  1.
         11    1    5    5    0    0 -0.51312824988E+02 -0.28066488503E+02  0.55047110474E+01  0.58745515819E+02  0.00000000000E+00 0. -1.
        -11    1    5    5    0    0 -0.46935805007E+03 -0.84086340353E+02 -0.16541574814E+03  0.50470769911E+03  0.00000000000E+00 0.  1.
          1    1    6    6  503    0  0.83046616055E+02  0.52846766440E+02  0.18755463390E+03  0.21181657597E+03  0.00000000000E+00 0. -1.
         -1    1    6    6    0  503  0.69665159501E+02  0.13294265111E+03  0.14546036671E+03  0.20901124662E+03  0.00000000000E+00 0.  1.
<mgrwt>
<rscale>  0 0.15278170E+04</rscale>
<asrwt>0</asrwt>
<pdfrwt beam="1">  1        1 0.19568025E+00 0.15278170E+04</pdfrwt>
<pdfrwt beam="2">  1       -2 0.70584439E-01 0.15278170E+04</pdfrwt>
<totfact> 0.14643322E+01</totfact>
</mgrwt>
</event>
<event>
12    4  0.4413110E-008  0.1689810E+04  0.7818608E-02  0.8767197E-01
          1   -1    0    0  501    0  0.00000000000E+00  0.00000000000E+00  0.20488006260E+04  0.20488006260E+04  0.00000000000E+00 0. -1.
         -2   -1    0    0    0  501 -0.00000000000E+00 -0.00000000000E+00 -0.34843053047E+03  0.34843053047E+03  0.00000000000E+00 0.  1.
        -24    2    1    2    0    0 -0.38449127204E+03  0.22330018855E+03  0.11875004827E+04  0.12703718933E+04  0.77400506477E+02 0.  0.
        254    2    1    2    0    0  0.38449127204E+03 -0.22330018855E+03  0.51286961282E+03  0.11268592631E+04  0.89948876964E+03 0.  0.
         23    2    4    4    0    0  0.35271534254E+03 -0.44098873676E+03  0.63862814597E+03  0.85775896149E+03  0.95001833614E+02 0.  0.
         23    2    4    4    0    0  0.31775929503E+02  0.21768854821E+03 -0.12575853315E+03  0.26910030166E+03  0.90563513482E+02 0.  0.
          3    1    3    3  502    0 -0.37263643624E+03  0.20504779578E+03  0.10808746221E+04  0.11615474424E+04  0.00000000000E+00 0. -1.
         -4    1    3    3    0  502 -0.11854835800E+02  0.18252392766E+02  0.10662586056E+03  0.10882445090E+03  0.00000000000E+00 0.  1.
         11    1    5    5    0    0  0.23609407108E+03 -0.28884007722E+03  0.48627859131E+03  0.61289140064E+03  0.00000000000E+00 0. -1.
        -11    1    5    5    0    0  0.11662127146E+03 -0.15214865953E+03  0.15234955466E+03  0.24486756086E+03  0.00000000000E+00 0.  1.
          2    1    6    6  503    0  0.16097274535E+02  0.11132237334E+03 -0.11530010216E+03  0.16107733115E+03  0.00000000000E+00 0. -1.
         -2    1    6    6    0  503  0.15678654968E+02  0.10636617487E+03 -0.10458430993E+02  0.10802297051E+03  0.00000000000E+00 0.  1.
<mgrwt>
<rscale>  0 0.16898103E+04</rscale>
<asrwt>0</asrwt>
<pdfrwt beam="1">  1        1 0.31520009E+00 0.16898103E+04</pdfrwt>
<pdfrwt beam="2">  1       -2 0.53604698E-01 0.16898103E+04</pdfrwt>
<totfact> 0.75745180E+00</totfact>
</mgrwt>
</event>
<event>
12    4  0.4413110E-008  0.2033645E+04  0.7818608E-02  0.8591050E-01
         -2   -1    0    0    0  501 -0.00000000000E+00  0.00000000000E+00  0.67674480923E+03  0.67674480923E+03  0.00000000000E+00 0.  1.
          1   -1    0    0  501    0  0.00000000000E+00 -0.00000000000E+00 -0.15277965003E+04  0.15277965003E+04  0.00000000000E+00 0. -1.
        -24    2    1    2    0    0 -0.30965061087E+03 -0.14196683616E+03  0.46033020134E+03  0.57884272234E+03  0.84361837145E+02 0.  0.
        254    2    1    2    0    0  0.30965061087E+03  0.14196683616E+03 -0.13113818924E+04  0.16256985872E+04  0.89840711559E+03 0.  0.
         23    2    4    4    0    0  0.33215822152E+03  0.42523641123E+03 -0.11786529769E+04  0.12996171334E+04  0.92880373193E+02 0.  0.
         23    2    4    4    0    0 -0.22507610656E+02 -0.28326957508E+03 -0.13272891550E+03  0.32608145387E+03  0.89240712939E+02 0.  0.
          1    1    3    3  502    0 -0.16155038346E+03 -0.98825276856E+02  0.31114579132E+03  0.36424808194E+03  0.00000000000E+00 0. -1.
         -2    1    3    3    0  502 -0.14810022740E+03 -0.43141559300E+02  0.14918441002E+03  0.21459464040E+03  0.00000000000E+00 0.  1.
         11    1    5    5    0    0  0.24369323423E+03  0.33971505284E+03 -0.98660965950E+03  0.10715369008E+04  0.00000000000E+00 0. -1.
        -11    1    5    5    0    0  0.88464987295E+02  0.85521358390E+02 -0.19204331743E+03  0.22808023257E+03  0.00000000000E+00 0.  1.
          4    1    6    6  503    0  0.55985119129E+01 -0.16470605847E+03 -0.11939282691E+03  0.20350448680E+03  0.00000000000E+00 0.  1.
         -4    1    6    6    0  503 -0.28106122569E+02 -0.11856351661E+03 -0.13336088597E+02  0.12257696707E+03  0.00000000000E+00 0. -1.
<mgrwt>
<rscale>  0 0.20336453E+04</rscale>
<asrwt>0</asrwt>
<pdfrwt beam="1">  1        1 0.23504561E+00 0.20336453E+04</pdfrwt>
<pdfrwt beam="2">  1       -2 0.10411459E+00 0.20336453E+04</pdfrwt>
<totfact> 0.38116629E+00</totfact>
</mgrwt>
</event>
<event>
12    4  0.4413110E-008  0.1979491E+04  0.7818608E-02  0.8616270E-01
          1   -1    0    0  501    0  0.00000000000E+00  0.00000000000E+00  0.62089282940E+03  0.62089282940E+03  0.00000000000E+00 0. -1.
         -2   -1    0    0    0  501 -0.00000000000E+00 -0.00000000000E+00 -0.15777216684E+04  0.15777216684E+04  0.00000000000E+00 0.  1.
        -24    2    1    2    0    0 -0.53849430111E+03 -0.49124436649E+03 -0.68807718670E+03  0.10055644384E+04  0.80077993293E+02 0.  0.
        254    2    1    2    0    0  0.53849430111E+03  0.49124436649E+03 -0.26875165231E+03  0.11930500594E+04  0.90545229233E+03 0.  0.
         23    2    4    4    0    0  0.70481035692E+03  0.56860301572E+03 -0.34821196393E+03  0.97448648518E+03  0.91133469574E+02 0.  0.
         23    2    4    4    0    0 -0.16631605581E+03 -0.77358649230E+02  0.79460311612E+02  0.21856357422E+03  0.88378186357E+02 0.  0.
          1    1    3    3  502    0 -0.19867453752E+03 -0.19845074718E+03 -0.21523081469E+03  0.35380584295E+03  0.00000000000E+00 0. -1.
         -2    1    3    3    0  502 -0.33981976359E+03 -0.29279361931E+03 -0.47284637201E+03  0.65175859547E+03  0.00000000000E+00 0.  1.
         11    1    5    5    0    0  0.30004463079E+02  0.62119690990E+01 -0.35091718020E+01  0.30841054643E+02  0.00000000000E+00 0. -1.
        -11    1    5    5    0    0  0.67480589384E+03  0.56239104662E+03 -0.34470279212E+03  0.94364543054E+03  0.00000000000E+00 0.  1.
          1    1    6    6  503    0 -0.48735209386E+02  0.65997606734E+00  0.58114827655E+02  0.75847804159E+02  0.00000000000E+00 0. -1.
         -1    1    6    6    0  503 -0.11758084642E+03 -0.78018625298E+02  0.21345483957E+02  0.14271577006E+03  0.00000000000E+00 0.  1.
<mgrwt>
<rscale>  0 0.19794909E+04</rscale>
<asrwt>0</asrwt>
<pdfrwt beam="1">  1        1 0.95521975E-01 0.19794909E+04</pdfrwt>
<pdfrwt beam="2">  1       -2 0.24272641E+00 0.19794909E+04</pdfrwt>
<totfact> 0.18888182E+00</totfact>
</mgrwt>
</event>
<event>
12    4  0.4413110E-008  0.1908444E+04  0.7818608E-02  0.8650665E-01
         -2   -1    0    0    0  501 -0.00000000000E+00  0.00000000000E+00  0.33156174408E+03  0.33156174408E+03  0.00000000000E+00 0.  1.
          1   -1    0    0  501    0  0.00000000000E+00 -0.00000000000E+00 -0.27462139018E+04  0.27462139018E+04  0.00000000000E+00 0. -1.
        -24    2    1    2    0    0  0.89024972463E+02 -0.64573361045E+03 -0.15206098595E+04  0.16565028115E+04  0.82763991917E+02 0.  0.
        254    2    1    2    0    0 -0.89024972463E+02  0.64573361045E+03 -0.89404229828E+03  0.14212728344E+04  0.89208043212E+03 0.  0.
         23    2    4    4    0    0  0.31978184061E+03  0.29115278703E+03 -0.72212765991E+03  0.84667410947E+03  0.91423845187E+02 0.  0.
         23    2    4    4    0    0 -0.40880681308E+03  0.35458082342E+03 -0.17191463837E+03  0.57459872495E+03  0.88082240390E+02 0.  0.
          1    1    3    3  502    0  0.21377305505E+02 -0.26906714588E+03 -0.53571482120E+03  0.59987039253E+03  0.00000000000E+00 0. -1.
         -2    1    3    3    0  502  0.67647666959E+02 -0.37666646457E+03 -0.98489503829E+03  0.10566324190E+04  0.00000000000E+00 0.  1.
         11    1    5    5    0    0  0.25095130316E+03  0.22292667432E+03 -0.47866080122E+03  0.58462724989E+03  0.00000000000E+00 0.  1.
        -11    1    5    5    0    0  0.68830537448E+02  0.68226112706E+02 -0.24346685869E+03  0.26204685959E+03  0.00000000000E+00 0. -1.
          4    1    6    6  503    0 -0.22548906119E+03  0.17474126747E+03 -0.47330627807E+02  0.28917125653E+03  0.00000000000E+00 0. -1.
         -4    1    6    6    0  503 -0.18331775189E+03  0.17983955595E+03 -0.12458401057E+03  0.28542746842E+03  0.00000000000E+00 0.  1.
<mgrwt>
<rscale>  0 0.19084438E+04</rscale>
<asrwt>0</asrwt>
<pdfrwt beam="1">  1        1 0.42249446E+00 0.19084438E+04</pdfrwt>
<pdfrwt beam="2">  1       -2 0.51009497E-01 0.19084438E+04</pdfrwt>
<totfact> 0.27192095E+00</totfact>
</mgrwt>
</event>
<event>
12    4  0.4413110E-008  0.2141484E+04  0.7818608E-02  0.8543186E-01
          1   -1    0    0  501    0  0.00000000000E+00  0.00000000000E+00  0.24778373642E+04  0.24778373642E+04  0.00000000000E+00 0. -1.
         -2   -1    0    0    0  501 -0.00000000000E+00 -0.00000000000E+00 -0.46269736484E+03  0.46269736484E+03  0.00000000000E+00 0.  1.
        -24    2    1    2    0    0  0.59505834228E+03  0.60930495962E+03  0.52505361652E+03  0.10037370888E+04  0.80373370843E+02 0.  0.
        254    2    1    2    0    0 -0.59505834228E+03 -0.60930495962E+03  0.14900863829E+04  0.19367976402E+04  0.89748576942E+03 0.  0.
         23    2    4    4    0    0 -0.23195844176E+03 -0.13938212277E+03  0.12646503032E+04  0.12965936715E+04  0.92642672365E+02 0.  0.
         23    2    4    4    0    0 -0.36309990052E+03 -0.46992283685E+03  0.22543607966E+03  0.64020396874E+03  0.79816572364E+02 0.  0.
          1    1    3    3  502    0 -0.22132813672E+01  0.58488931699E+01  0.23214779573E+01  0.66706390721E+01  0.00000000000E+00 0. -1.
         -4    1    3    3    0  502  0.59727162365E+03  0.60345606645E+03  0.52273213857E+03  0.99706644976E+03  0.00000000000E+00 0.  1.
         11    1    5    5    0    0 -0.44305120587E+01 -0.35292654668E+02  0.17638486802E+03  0.17993560675E+03  0.00000000000E+00 0.  1.
        -11    1    5    5    0    0 -0.22752792970E+03 -0.10408946810E+03  0.10882654352E+04  0.11166580647E+04  0.00000000000E+00 0. -1.
          3    1    6    6  503    0 -0.31966459859E+03 -0.44820829182E+03  0.21055031825E+03  0.58941289854E+03  0.00000000000E+00 0. -1.
         -3    1    6    6    0  503 -0.43435301925E+02 -0.21714545037E+02  0.14885761410E+02  0.50791070202E+02  0.00000000000E+00 0.  1.
<mgrwt>
<rscale>  0 0.21414844E+04</rscale>
<asrwt>0</asrwt>
<pdfrwt beam="1">  1        1 0.38120574E+00 0.21414844E+04</pdfrwt>
<pdfrwt beam="2">  1       -2 0.71184212E-01 0.21414844E+04</pdfrwt>
<totfact> 0.20252710E+00</totfact>
</mgrwt>
</event>
<event>
12    4  0.4413110E-008  0.2633250E+04  0.7818608E-02  0.8356994E-01
          1   -1    0    0  501    0  0.00000000000E+00  0.00000000000E+00  0.15228970141E+04  0.15228970141E+04  0.00000000000E+00 0. -1.
         -2   -1    0    0    0  501 -0.00000000000E+00 -0.00000000000E+00 -0.11382919858E+04  0.11382919858E+04  0.00000000000E+00 0.  1.
        -24    2    1    2    0    0  0.55096515389E+03 -0.47506399688E+03 -0.74518986299E+03  0.10442845852E+04  0.77291402796E+02 0.  0.
        254    2    1    2    0    0 -0.55096515389E+03  0.47506399688E+03  0.11297948913E+04  0.16169044147E+04  0.89927470098E+03 0.  0.
         23    2    4    4    0    0 -0.48082013376E+03  0.51578240433E+03  0.28851095380E+03  0.76722693936E+03  0.90438467315E+02 0.  0.
         23    2    4    4    0    0 -0.70145020135E+02 -0.40718407448E+02  0.84128393752E+03  0.84967747532E+03  0.87263027569E+02 0.  0.
          3    1    3    3  502    0  0.21249854495E+03 -0.13847763482E+03 -0.23837145159E+03  0.34806987213E+03  0.00000000000E+00 0. -1.
         -4    1    3    3    0  502  0.33846660894E+03 -0.33658636206E+03 -0.50681841140E+03  0.69621471302E+03  0.00000000000E+00 0.  1.
         11    1    5    5    0    0 -0.65404997396E+02  0.11806994412E+03  0.40460071404E+02  0.14090898753E+03  0.00000000000E+00 0. -1.
        -11    1    5    5    0    0 -0.41541513636E+03  0.39771246022E+03  0.24805088239E+03  0.62631795183E+03  0.00000000000E+00 0.  1.
          3    1    6    6  503    0 -0.48197628418E+02  0.11626492044E+02  0.20682437758E+03  0.21268406114E+03  0.00000000000E+00 0. -1.
         -3    1    6    6    0  503 -0.21947391716E+02 -0.52344899492E+02  0.63445955994E+03  0.63699341417E+03  0.00000000000E+00 0.  1.
<mgrwt>
<rscale>  0 0.26332501E+04</rscale>
<asrwt>0</asrwt>
<pdfrwt beam="1">  1        1 0.23429185E+00 0.26332501E+04</pdfrwt>
<pdfrwt beam="2">  1       -2 0.17512184E+00 0.26332501E+04</pdfrwt>
<totfact> 0.95385724E-01</totfact>
</mgrwt>
</event>
<event>
12    4  0.4413110E-008  0.1453369E+04  0.7818608E-02  0.8916068E-01
          3   -1    0    0  501    0  0.00000000000E+00  0.00000000000E+00  0.12189909234E+04  0.12189909234E+04  0.00000000000E+00 0. -1.
         -4   -1    0    0    0  501 -0.00000000000E+00 -0.00000000000E+00 -0.43320292992E+03  0.43320292992E+03  0.00000000000E+00 0.  1.
        -24    2    1    2    0    0  0.29955822738E+03 -0.27443449124E+03  0.39281010677E+03  0.57056112875E+03  0.78681637522E+02 0.  0.
        254    2    1    2    0    0 -0.29955822738E+03  0.27443449124E+03  0.39297788671E+03  0.10816327246E+04  0.92219754383E+03 0.  0.
         23    2    4    4    0    0 -0.34980153737E+02  0.28802704405E+03 -0.24133184739E+03  0.38814920024E+03  0.90749941183E+02 0.  0.
         23    2    4    4    0    0 -0.26457807364E+03 -0.13592552807E+02  0.63430973411E+03  0.69348352433E+03  0.91565524063E+02 0.  0.
          1    1    3    3  502    0  0.21240815391E+03 -0.14585809121E+03  0.22752002379E+03  0.34373997126E+03  0.00000000000E+00 0. -1.
         -2    1    3    3    0  502  0.87150073470E+02 -0.12857640003E+03  0.16529008298E+03  0.22682115748E+03  0.00000000000E+00 0.  1.
         11    1    5    5    0    0  0.81015461965E+01  0.49633309149E+02 -0.88270908780E+02  0.10159160283E+03  0.00000000000E+00 0.  1.
        -11    1    5    5    0    0 -0.43081699933E+02  0.23839373490E+03 -0.15306093861E+03  0.28655759742E+03  0.00000000000E+00 0. -1.
          2    1    6    6  503    0 -0.23442336307E+03 -0.33291431330E+02  0.59385805805E+03  0.63931997127E+03  0.00000000000E+00 0. -1.
         -2    1    6    6    0  503 -0.30154710573E+02  0.19698878523E+02  0.40451676053E+02  0.54163553062E+02  0.00000000000E+00 0.  1.
<mgrwt>
<rscale>  0 0.14533691E+04</rscale>
<asrwt>0</asrwt>
<pdfrwt beam="1">  1        3 0.18753706E+00 0.14533691E+04</pdfrwt>
<pdfrwt beam="2">  1       -4 0.66646605E-01 0.14533691E+04</pdfrwt>
<totfact> 0.82101752E-01</totfact>
</mgrwt>
</event>
<event>
12    4  0.4413110E-008  0.3460187E+04  0.7818608E-02  0.8123290E-01
         -4   -1    0    0    0  501 -0.00000000000E+00  0.00000000000E+00  0.22579850036E+04  0.22579850036E+04  0.00000000000E+00 0.  1.
          3   -1    0    0  501    0  0.00000000000E+00 -0.00000000000E+00 -0.13256169185E+04  0.13256169185E+04  0.00000000000E+00 0. -1.
        -24    2    1    2    0    0 -0.93568877322E+03 -0.97535186784E+03 -0.42646440684E+03  0.14194801107E+04  0.78912280086E+02 0.  0.
        254    2    1    2    0    0  0.93568877322E+03  0.97535186784E+03  0.13588324919E+04  0.21641218114E+04  0.10050734935E+04 0.  0.
         23    2    4    4    0    0  0.90554038843E+03  0.53541368271E+03  0.13498318334E+04  0.17137835203E+04  0.91305911455E+02 0.  0.
         23    2    4    4    0    0  0.30148384787E+02  0.43993818513E+03  0.90006585284E+01  0.45033829111E+03  0.90934222091E+02 0.  0.
          3    1    3    3  502    0 -0.85467924795E+03 -0.91763801216E+03 -0.38568046458E+03  0.13119777281E+04  0.00000000000E+00 0. -1.
         -4    1    3    3    0  502 -0.81009525268E+02 -0.57713855683E+02 -0.40783942255E+02  0.10750238261E+03  0.00000000000E+00 0.  1.
         11    1    5    5    0    0  0.96886746815E+01  0.14041055635E+02  0.39678778742E+02  0.43190590907E+02  0.00000000000E+00 0. -1.
        -11    1    5    5    0    0  0.89585171375E+03  0.52137262708E+03  0.13101530546E+04  0.16705929294E+04  0.00000000000E+00 0.  1.
          3    1    6    6  503    0 -0.17472996844E+02  0.63973458054E+02 -0.22581404970E+02  0.70055897714E+02  0.00000000000E+00 0. -1.
         -3    1    6    6    0  503  0.47621381631E+02  0.37596472708E+03  0.31582063499E+02  0.38028239340E+03  0.00000000000E+00 0.  1.
<mgrwt>
<rscale>  0 0.34601868E+04</rscale>
<asrwt>0</asrwt>
<pdfrwt beam="1">  1        3 0.20394106E+00 0.34601868E+04</pdfrwt>
<pdfrwt beam="2">  1       -4 0.34738231E+00 0.34601868E+04</pdfrwt>
<totfact> 0.39848781E-03</totfact>
</mgrwt>
</event>
<event>
12    4  0.4413110E-008  0.1877262E+04  0.7818608E-02  0.8666258E-01
          1   -1    0    0  501    0  0.00000000000E+00  0.00000000000E+00  0.23544513824E+04  0.23544513824E+04  0.00000000000E+00 0. -1.
         -2   -1    0    0    0  501 -0.00000000000E+00 -0.00000000000E+00 -0.37419661055E+03  0.37419661055E+03  0.00000000000E+00 0.  1.
        -24    2    1    2    0    0 -0.45285656835E+03  0.83944191383E+02  0.15727630062E+04  0.16409494692E+04  0.83701780231E+02 0.  0.
        254    2    1    2    0    0  0.45285656835E+03 -0.83944191383E+02  0.40749176567E+03  0.10876985238E+04  0.89716934900E+03 0.  0.
         23    2    4    4    0    0  0.30247020553E+03  0.25540382199E+03 -0.13232442494E+03  0.42623298147E+03  0.86287099497E+02 0.  0.
         23    2    4    4    0    0  0.15038636281E+03 -0.33934801337E+03  0.53981619061E+03  0.66146554231E+03  0.91444035978E+02 0.  0.
          3    1    3    3  502    0 -0.43134533510E+03  0.72419181316E+02  0.14074515308E+04  0.14738463785E+04  0.00000000000E+00 0. -1.
         -4    1    3    3    0  502 -0.21511233244E+02  0.11525010067E+02  0.16531147537E+03  0.16710309064E+03  0.00000000000E+00 0.  1.
         11    1    5    5    0    0  0.16852254987E+03  0.15003132317E+03 -0.11950478802E+03  0.25532458187E+03  0.00000000000E+00 0.  1.
        -11    1    5    5    0    0  0.13394765566E+03  0.10537249882E+03 -0.12819636920E+02  0.17090839960E+03  0.00000000000E+00 0. -1.
          1    1    6    6  503    0  0.97371326540E+02 -0.16348690353E+03  0.20589383886E+03  0.28035944025E+03  0.00000000000E+00 0. -1.
         -1    1    6    6    0  503  0.53015036274E+02 -0.17586110984E+03  0.33392235175E+03  0.38110610206E+03  0.00000000000E+00 0.  1.
<mgrwt>
<rscale>  0 0.18772615E+04</rscale>
<asrwt>0</asrwt>
<pdfrwt beam="1">  1        1 0.36222328E+00 0.18772615E+04</pdfrwt>
<pdfrwt beam="2">  1       -2 0.57568711E-01 0.18772615E+04</pdfrwt>
<totfact> 0.39752764E+00</totfact>
</mgrwt>
</event>
<event>
12    4  0.4413110E-008  0.1848357E+04  0.7818608E-02  0.8680998E-01
          1   -1    0    0  501    0  0.00000000000E+00  0.00000000000E+00  0.12371097997E+04  0.12371097997E+04  0.00000000000E+00 0. -1.
         -2   -1    0    0    0  501 -0.00000000000E+00 -0.00000000000E+00 -0.69040454864E+03  0.69040454864E+03  0.00000000000E+00 0.  1.
        -24    2    1    2    0    0 -0.28578363114E+03 -0.59459412919E+03 -0.22916482860E+02  0.66495473907E+03  0.80157205065E+02 0.  0.
        254    2    1    2    0    0  0.28578363114E+03  0.59459412919E+03  0.56962173388E+03  0.12625596092E+04  0.91344041124E+03 0.  0.
         23    2    4    4    0    0  0.27751846541E+03  0.74476238522E+03  0.68401220094E+03  0.10526520294E+04  0.92282689935E+02 0.  0.
         23    2    4    4    0    0  0.82651657271E+01 -0.15016825603E+03 -0.11439046706E+03  0.20990757985E+03  0.91417695437E+02 0.  0.
          3    1    3    3  502    0  0.43188940564E+01 -0.34780881235E+01  0.23061922238E+01  0.60057027431E+01  0.00000000000E+00 0. -1.
         -4    1    3    3    0  502 -0.29010252519E+03 -0.59111604107E+03 -0.25222675084E+02  0.65894903632E+03  0.00000000000E+00 0.  1.
         11    1    5    5    0    0  0.16296374503E+03  0.55485928422E+03  0.48899513857E+03  0.75732572452E+03  0.00000000000E+00 0. -1.
        -11    1    5    5    0    0  0.11455472038E+03  0.18990310101E+03  0.19501706238E+03  0.29532630488E+03  0.00000000000E+00 0.  1.
          3    1    6    6  503    0  0.46907524470E+02 -0.11281916313E+03 -0.76585040741E+02  0.14420037408E+03  0.00000000000E+00 0. -1.
         -3    1    6    6    0  503 -0.38642358743E+02 -0.37349092903E+02 -0.37805426324E+02  0.65707205765E+02  0.00000000000E+00 0.  1.
<mgrwt>
<rscale>  0 0.18483574E+04</rscale>
<asrwt>0</asrwt>
<pdfrwt beam="1">  1        1 0.19032458E+00 0.18483574E+04</pdfrwt>
<pdfrwt beam="2">  1       -2 0.10621608E+00 0.18483574E+04</pdfrwt>
<totfact> 0.59180767E+00</totfact>
</mgrwt>
</event>
<event>
12    4  0.4413110E-008  0.1462109E+04  0.7818608E-02  0.8910049E-01
          1   -1    0    0  501    0  0.00000000000E+00  0.00000000000E+00  0.16796302290E+04  0.16796302290E+04  0.00000000000E+00 0. -1.
         -2   -1    0    0    0  501 -0.00000000000E+00 -0.00000000000E+00 -0.31818933734E+03  0.31818933734E+03  0.00000000000E+00 0.  1.
        -24    2    1    2    0    0  0.13683118698E+03 -0.10233425506E+03 -0.13741206462E+03  0.23357075866E+03  0.80486957391E+02 0.  0.
        254    2    1    2    0    0 -0.13683118698E+03  0.10233425506E+03  0.14988529562E+04  0.17642488076E+04  0.91477789509E+03 0.  0.
         23    2    4    4    0    0 -0.89422667557E+02 -0.10725116252E+03  0.15209117461E+04  0.15298302137E+04  0.87799304520E+02 0.  0.
         23    2    4    4    0    0 -0.47408519422E+02  0.20958541758E+03 -0.22058789880E+02  0.23441859396E+03  0.91059716692E+02 0.  0.
          1    1    3    3  502    0 -0.37926317271E+01 -0.10492910367E+02 -0.35270293103E+02  0.36992956072E+02  0.00000000000E+00 0. -1.
         -4    1    3    3    0  502  0.14062381871E+03 -0.91841344695E+02 -0.10214177152E+03  0.19657780259E+03  0.00000000000E+00 0.  1.
         11    1    5    5    0    0 -0.78699037367E+01 -0.36949849440E+02  0.80309783244E+03  0.80398591731E+03  0.00000000000E+00 0.  1.
        -11    1    5    5    0    0 -0.81552763820E+02 -0.70301313081E+02  0.71781391369E+03  0.72584429638E+03  0.00000000000E+00 0. -1.
          2    1    6    6  503    0 -0.19199964043E+02  0.31227598937E+02  0.29024836465E+02  0.46757274155E+02  0.00000000000E+00 0. -1.
         -2    1    6    6    0  503 -0.28208555379E+02  0.17835781865E+03 -0.51083626345E+02  0.18766131980E+03  0.00000000000E+00 0.  1.
<mgrwt>
<rscale>  0 0.14621087E+04</rscale>
<asrwt>0</asrwt>
<pdfrwt beam="1">  1        1 0.25840465E+00 0.14621087E+04</pdfrwt>
<pdfrwt beam="2">  1       -2 0.48952207E-01 0.14621087E+04</pdfrwt>
<totfact> 0.16560503E+01</totfact>
</mgrwt>
</event>
<event>
12    4  0.4413110E-008  0.1845424E+04  0.7818608E-02  0.8682510E-01
          1   -1    0    0  501    0  0.00000000000E+00  0.00000000000E+00  0.70193974818E+03  0.70193974818E+03  0.00000000000E+00 0. -1.
         -2   -1    0    0    0  501 -0.00000000000E+00 -0.00000000000E+00 -0.12129211945E+04  0.12129211945E+04  0.00000000000E+00 0.  1.
        -24    2    1    2    0    0 -0.56134719623E+03  0.62481754576E+02 -0.63127165541E+03  0.85081831841E+03  0.79832722950E+02 0.  0.
        254    2    1    2    0    0  0.56134719623E+03 -0.62481754576E+02  0.12029020908E+03  0.10640426243E+04  0.89370147561E+03 0.  0.
         23    2    4    4    0    0  0.77325308560E+03  0.15730921537E+02  0.20718944962E+03  0.80513534995E+03  0.84543878663E+02 0.  0.
         23    2    4    4    0    0 -0.21190588938E+03 -0.78212676113E+02 -0.86899240533E+02  0.25890727433E+03  0.91979182634E+02 0.  0.
          3    1    3    3  502    0 -0.75623340262E+02 -0.89430108336E+01 -0.11896529138E+03  0.14125015960E+03  0.00000000000E+00 0. -1.
         -4    1    3    3    0  502 -0.48572385596E+03  0.71424765409E+02 -0.51230636403E+03  0.70956815881E+03  0.00000000000E+00 0.  1.
         11    1    5    5    0    0  0.35026180708E+03  0.12732799181E+02  0.13716287254E+03  0.37637628947E+03  0.00000000000E+00 0. -1.
        -11    1    5    5    0    0  0.42299127853E+03  0.29981223566E+01  0.70026577079E+02  0.42875906048E+03  0.00000000000E+00 0.  1.
          4    1    6    6  503    0 -0.49535821005E+02 -0.13932333440E+02  0.18793608202E+02  0.54782362006E+02  0.00000000000E+00 0.  1.
         -4    1    6    6    0  503 -0.16237006837E+03 -0.64280342673E+02 -0.10569284874E+03  0.20412491232E+03  0.00000000000E+00 0. -1.
<mgrwt>
<rscale>  0 0.18454242E+04</rscale>
<asrwt>0</asrwt>
<pdfrwt beam="1">  1        1 0.10799073E+00 0.18454242E+04</pdfrwt>
<pdfrwt beam="2">  1       -2 0.18660326E+00 0.18454242E+04</pdfrwt>
<totfact> 0.36467898E+00</totfact>
</mgrwt>
</event>
<event>
12    4  0.4413110E-008  0.1431538E+04  0.7818608E-02  0.8931301E-01
         -2   -1    0    0    0  501 -0.00000000000E+00  0.00000000000E+00  0.35695755732E+03  0.35695755732E+03  0.00000000000E+00 0.  1.
          1   -1    0    0  501    0  0.00000000000E+00 -0.00000000000E+00 -0.14352561976E+04  0.14352561976E+04  0.00000000000E+00 0. -1.
        -24    2    1    2    0    0  0.14760415516E+03  0.11932927198E+03  0.15531469372E+03  0.25803318991E+03  0.80199820695E+02 0.  0.
        254    2    1    2    0    0 -0.14760415516E+03 -0.11932927198E+03 -0.12336133340E+04  0.15341805650E+04  0.89212201319E+03 0.  0.
         23    2    4    4    0    0  0.18218323380E+03  0.47004363867E+02 -0.11159429672E+04  0.11356108368E+04  0.94250335018E+02 0.  0.
         23    2    4    4    0    0 -0.32978738896E+03 -0.16633363584E+03 -0.11767036676E+03  0.39856972819E+03  0.92654803914E+02 0.  0.
          3    1    3    3  502    0 -0.80607212022E+01  0.12045481841E+02  0.20090839639E+01  0.14632336706E+02  0.00000000000E+00 0. -1.
         -4    1    3    3    0  502  0.15566487636E+03  0.10728379014E+03  0.15330560975E+03  0.24340085321E+03  0.00000000000E+00 0.  1.
         11    1    5    5    0    0  0.36734463172E+02  0.52979001746E+02 -0.37545548539E+03  0.38095015018E+03  0.00000000000E+00 0. -1.
        -11    1    5    5    0    0  0.14544877062E+03 -0.59746378788E+01 -0.74048748181E+03  0.75466068660E+03  0.00000000000E+00 0.  1.
          4    1    6    6  503    0 -0.10332730301E+03 -0.71828947319E+02  0.13332510707E+01  0.12584795103E+03  0.00000000000E+00 0. -1.
         -4    1    6    6    0  503 -0.22646008595E+03 -0.94504688525E+02 -0.11900361783E+03  0.27272177716E+03  0.00000000000E+00 0.  1.
<mgrwt>
<rscale>  0 0.14315384E+04</rscale>
<asrwt>0</asrwt>
<pdfrwt beam="1">  1        1 0.22080865E+00 0.14315384E+04</pdfrwt>
<pdfrwt beam="2">  1       -2 0.54916547E-01 0.14315384E+04</pdfrwt>
<totfact> 0.19315868E+01</totfact>
</mgrwt>
</event>
<event>
12    4  0.4413110E-008  0.1453494E+04  0.7818608E-02  0.8915982E-01
          1   -1    0    0  501    0  0.00000000000E+00  0.00000000000E+00  0.15363667714E+04  0.15363667714E+04  0.00000000000E+00 0. -1.
         -2   -1    0    0    0  501 -0.00000000000E+00 -0.00000000000E+00 -0.34377264428E+03  0.34377264428E+03  0.00000000000E+00 0.  1.
        -24    2    1    2    0    0  0.15525775751E+03 -0.17708532650E+03  0.85325272836E+03  0.88885796407E+03  0.81018995927E+02 0.  0.
        254    2    1    2    0    0 -0.15525775751E+03  0.17708532650E+03  0.33934139873E+03  0.99128145158E+03  0.90112271485E+03 0.  0.
         23    2    4    4    0    0 -0.36339257107E+03  0.41439530939E+02 -0.17288057105E+03  0.41474916958E+03  0.91420929714E+02 0.  0.
         23    2    4    4    0    0  0.20813481356E+03  0.13564579556E+03  0.51222196978E+03  0.57653228200E+03  0.91094694649E+02 0.  0.
          3    1    3    3  502    0  0.13227834394E+03 -0.17899207725E+03  0.80767261914E+03  0.83777728765E+03  0.00000000000E+00 0. -1.
         -4    1    3    3    0  502  0.22979413574E+02  0.19067507529E+01  0.45580109224E+02  0.51080676419E+02  0.00000000000E+00 0.  1.
         11    1    5    5    0    0 -0.32340264631E+03  0.62516016621E+02 -0.16655554717E+03  0.36910469283E+03  0.00000000000E+00 0. -1.
        -11    1    5    5    0    0 -0.39989924760E+02 -0.21076485683E+02 -0.63250238757E+01  0.45644476753E+02  0.00000000000E+00 0.  1.
          1    1    6    6  503    0  0.20748764339E+03  0.10547905699E+03  0.43010752465E+03  0.48904952344E+03  0.00000000000E+00 0. -1.
         -1    1    6    6    0  503  0.64717017401E+00  0.30166738573E+02  0.82114445128E+02  0.87482758553E+02  0.00000000000E+00 0.  1.
<mgrwt>
<rscale>  0 0.14534935E+04</rscale>
<asrwt>0</asrwt>
<pdfrwt beam="1">  1        1 0.23636412E+00 0.14534935E+04</pdfrwt>
<pdfrwt beam="2">  1       -2 0.52888100E-01 0.14534935E+04</pdfrwt>
<totfact> 0.17734846E+01</totfact>
</mgrwt>
</event>
<event>
12    4  0.4413110E-008  0.1499292E+04  0.7818608E-02  0.8884924E-01
         -2   -1    0    0    0  501 -0.00000000000E+00  0.00000000000E+00  0.62085553074E+03  0.62085553074E+03  0.00000000000E+00 0.  1.
          1   -1    0    0  501    0  0.00000000000E+00 -0.00000000000E+00 -0.90515300775E+03  0.90515300775E+03  0.00000000000E+00 0. -1.
        -24    2    1    2    0    0  0.21675015916E+03 -0.11927380053E+03 -0.49868897683E+03  0.56246829624E+03  0.80455066205E+02 0.  0.
        254    2    1    2    0    0 -0.21675015916E+03  0.11927380053E+03  0.21439149982E+03  0.96354024225E+03  0.90622249600E+03 0.  0.
         23    2    4    4    0    0 -0.42330512601E+03  0.36434270562E+01  0.44486189737E+03  0.62076705965E+03  0.90824723223E+02 0.  0.
         23    2    4    4    0    0  0.20655496685E+03  0.11563037347E+03 -0.23047039754E+03  0.34277318260E+03  0.91331883638E+02 0.  0.
          3    1    3    3  502    0  0.14450031889E+03 -0.73466801344E+02 -0.40151582828E+03  0.43300424180E+03  0.00000000000E+00 0. -1.
         -4    1    3    3    0  502  0.72249840267E+02 -0.45806999184E+02 -0.97173148550E+02  0.12946405444E+03  0.00000000000E+00 0.  1.
         11    1    5    5    0    0 -0.22826229255E+03 -0.24527567222E+02  0.29154452929E+03  0.37108420650E+03  0.00000000000E+00 0. -1.
        -11    1    5    5    0    0 -0.19504283346E+03  0.28170994279E+02  0.15331736808E+03  0.24968285315E+03  0.00000000000E+00 0.  1.
          1    1    6    6  503    0  0.12230609293E+02 -0.10492881246E+02 -0.17490154737E+00  0.16115798183E+02  0.00000000000E+00 0. -1.
         -1    1    6    6    0  503  0.19432435756E+03  0.12612325472E+03 -0.23029549600E+03  0.32665738442E+03  0.00000000000E+00 0.  1.
<mgrwt>
<rscale>  0 0.14992922E+04</rscale>
<asrwt>0</asrwt>
<pdfrwt beam="1">  1        1 0.13925431E+00 0.14992922E+04</pdfrwt>
<pdfrwt beam="2">  1       -2 0.95516236E-01 0.14992922E+04</pdfrwt>
<totfact> 0.14060482E+01</totfact>
</mgrwt>
</event>
<event>
12    4  0.4413110E-008  0.1934660E+04  0.7818608E-02  0.8637793E-01
         -2   -1    0    0    0  501 -0.00000000000E+00  0.00000000000E+00  0.38815476690E+03  0.38815476690E+03  0.00000000000E+00 0.  1.
          1   -1    0    0  501    0  0.00000000000E+00 -0.00000000000E+00 -0.24107076372E+04  0.24107076372E+04  0.00000000000E+00 0. -1.
        -24    2    1    2    0    0 -0.61476122318E+03 -0.52649181217E+02 -0.16802146800E+03  0.64472402644E+03  0.82064357370E+02 0.  0.
        254    2    1    2    0    0  0.61476122318E+03  0.52649181217E+02 -0.18545314023E+04  0.21541383776E+04  0.90571636296E+03 0.  0.
         23    2    4    4    0    0  0.67683817007E+03 -0.15730594050E+03 -0.17664344213E+04  0.19010009254E+04  0.10324188281E+03 0.  0.
         23    2    4    4    0    0 -0.62076946886E+02  0.20995512172E+03 -0.88096980959E+02  0.25313745218E+03  0.91557583909E+02 0.  0.
          3    1    3    3  502    0 -0.25949409861E+03 -0.17533880544E+02 -0.11274571669E+03  0.28347172842E+03  0.00000000000E+00 0. -1.
         -4    1    3    3    0  502 -0.35526712458E+03 -0.35115300673E+02 -0.55275751303E+02  0.36125229802E+03  0.00000000000E+00 0.  1.
         11    1    5    5    0    0  0.23687054782E+03 -0.77523799090E+02 -0.51636518414E+03  0.57336776963E+03  0.00000000000E+00 0.  1.
        -11    1    5    5    0    0  0.43996762225E+03 -0.79782141415E+02 -0.12500692372E+04  0.13276331558E+04  0.00000000000E+00 0. -1.
          1    1    6    6  503    0 -0.15921275512E+02  0.26351047488E+02  0.18455348152E+02  0.35895188996E+02  0.00000000000E+00 0. -1.
         -1    1    6    6    0  503 -0.46155671374E+02  0.18360407423E+03 -0.10655232911E+03  0.21724226319E+03  0.00000000000E+00 0.  1.
<mgrwt>
<rscale>  0 0.19346603E+04</rscale>
<asrwt>0</asrwt>
<pdfrwt beam="1">  1        1 0.37087811E+00 0.19346603E+04</pdfrwt>
<pdfrwt beam="2">  1       -2 0.59716117E-01 0.19346603E+04</pdfrwt>
<totfact> 0.33497272E+00</totfact>
</mgrwt>
</event>
<event>
12    4  0.4413110E-008  0.1826927E+04  0.7818608E-02  0.8692109E-01
         -2   -1    0    0    0  501 -0.00000000000E+00  0.00000000000E+00  0.56376489075E+03  0.56376489075E+03  0.00000000000E+00 0.  1.
          1   -1    0    0  501    0  0.00000000000E+00 -0.00000000000E+00 -0.14800777168E+04  0.14800777168E+04  0.00000000000E+00 0. -1.
        -24    2    1    2    0    0  0.29846448655E+03  0.95294266320E+02 -0.10275835995E+04  0.10772927920E+04  0.80434189061E+02 0.  0.
        254    2    1    2    0    0 -0.29846448655E+03 -0.95294266320E+02  0.11127077344E+03  0.96654981558E+03  0.90756559766E+03 0.  0.
         23    2    4    4    0    0  0.21726483274E+03 -0.19898796113E+03  0.26973175750E+03  0.40957884108E+03  0.90550482282E+02 0.  0.
         23    2    4    4    0    0 -0.51572931929E+03  0.10369369481E+03 -0.15846098406E+03  0.55697097450E+03  0.91529611860E+02 0.  0.
          1    1    3    3  502    0  0.21648147358E+03  0.63950452814E+02 -0.60615483241E+03  0.64682112649E+03  0.00000000000E+00 0. -1.
         -2    1    3    3    0  502  0.81983012970E+02  0.31343813506E+02 -0.42142876712E+03  0.43047166552E+03  0.00000000000E+00 0.  1.
         11    1    5    5    0    0  0.52895447972E+02 -0.11473843767E+02  0.23074953334E+02  0.58839025981E+02  0.00000000000E+00 0. -1.
        -11    1    5    5    0    0  0.16436938477E+03 -0.18751411736E+03  0.24665680416E+03  0.35073981510E+03  0.00000000000E+00 0.  1.
          3    1    6    6  503    0 -0.98358698506E+02  0.43756186548E+02 -0.33847216881E+01  0.10770558841E+03  0.00000000000E+00 0. -1.
         -3    1    6    6    0  503 -0.41737062078E+03  0.59937508260E+02 -0.15507626237E+03  0.44926538609E+03  0.00000000000E+00 0.  1.
<mgrwt>
<rscale>  0 0.18269273E+04</rscale>
<asrwt>0</asrwt>
<pdfrwt beam="1">  1        1 0.22770426E+00 0.18269273E+04</pdfrwt>
<pdfrwt beam="2">  1       -2 0.86733062E-01 0.18269273E+04</pdfrwt>
<totfact> 0.64199534E+00</totfact>
</mgrwt>
</event>
<event>
12    4  0.4413110E-008  0.1444104E+04  0.7818608E-02  0.8922498E-01
         -2   -1    0    0    0  501 -0.00000000000E+00  0.00000000000E+00  0.13269700073E+03  0.13269700073E+03  0.00000000000E+00 0.  1.
          1   -1    0    0  501    0  0.00000000000E+00 -0.00000000000E+00 -0.39289432818E+04  0.39289432818E+04  0.00000000000E+00 0. -1.
        -24    2    1    2    0    0  0.28686856657E+03  0.10997172165E+03 -0.20491018337E+04  0.20733305672E+04  0.74121264498E+02 0.  0.
        254    2    1    2    0    0 -0.28686856657E+03 -0.10997172165E+03 -0.17471444474E+04  0.19883097153E+04  0.89803922528E+03 0.  0.
         23    2    4    4    0    0 -0.28050032968E+02 -0.42087958980E+03 -0.43985057718E+03  0.61689687571E+03  0.95743363006E+02 0.  0.
         23    2    4    4    0    0 -0.25881853360E+03  0.31090786815E+03 -0.13072938702E+04  0.13714128396E+04  0.90028761434E+02 0.  0.
          3    1    3    3  502    0  0.11936643140E+03  0.54005263768E+02 -0.11159126736E+04  0.11235773265E+04  0.00000000000E+00 0. -1.
         -4    1    3    3    0  502  0.16750213516E+03  0.55966457879E+02 -0.93318916011E+03  0.94975324071E+03  0.00000000000E+00 0.  1.
         11    1    5    5    0    0  0.90626977746E+01  0.10512264496E+00 -0.15777415730E+02  0.18195339756E+02  0.00000000000E+00 0.  1.
        -11    1    5    5    0    0 -0.37112730742E+02 -0.42098471244E+03 -0.42407316145E+03  0.59870153596E+03  0.00000000000E+00 0. -1.
          3    1    6    6  503    0 -0.20091389446E+03  0.25676634368E+03 -0.91924626723E+03  0.97535073079E+03  0.00000000000E+00 0. -1.
         -3    1    6    6    0  503 -0.57904639142E+02  0.54141524465E+02 -0.38804760295E+03  0.39606210884E+03  0.00000000000E+00 0.  1.
<mgrwt>
<rscale>  0 0.14441039E+04</rscale>
<asrwt>0</asrwt>
<pdfrwt beam="1">  1        1 0.60445271E+00 0.14441039E+04</pdfrwt>
<pdfrwt beam="2">  1       -2 0.20414927E-01 0.14441039E+04</pdfrwt>
<totfact> 0.19868324E+00</totfact>
</mgrwt>
</event>
<event>
12    4  0.4413110E-008  0.2126918E+04  0.7818608E-02  0.8549478E-01
         -2   -1    0    0    0  501 -0.00000000000E+00  0.00000000000E+00  0.12617988954E+04  0.12617988954E+04  0.00000000000E+00 0.  1.
          1   -1    0    0  501    0  0.00000000000E+00 -0.00000000000E+00 -0.89629572863E+03  0.89629572863E+03  0.00000000000E+00 0. -1.
        -24    2    1    2    0    0  0.79675261720E+03  0.13079880451E+03 -0.20274295619E+03  0.83639020895E+03  0.80751563815E+02 0.  0.
        254    2    1    2    0    0 -0.79675261720E+03 -0.13079880451E+03  0.56824612292E+03  0.13217044150E+04  0.87867846465E+03 0.  0.
         23    2    4    4    0    0 -0.69287107129E+03  0.24829205374E+03  0.53862989171E+03  0.91692114919E+03  0.94355541438E+02 0.  0.
         23    2    4    4    0    0 -0.10388154591E+03 -0.37909085825E+03  0.29616231211E+02  0.40478326585E+03  0.92038670015E+02 0.  0.
          1    1    3    3  502    0  0.16673049943E+02 -0.48019940048E+01  0.45292921219E+01  0.17932212020E+02  0.00000000000E+00 0. -1.
         -2    1    3    3    0  502  0.78007956726E+03  0.13560079852E+03 -0.20727224831E+03  0.81845799693E+03  0.00000000000E+00 0.  1.
         11    1    5    5    0    0 -0.38889373535E+02 -0.64534000733E+00  0.50451738979E+02  0.63703828799E+02  0.00000000000E+00 0.  1.
        -11    1    5    5    0    0 -0.65398169776E+03  0.24893739374E+03  0.48817815273E+03  0.85321732039E+03  0.00000000000E+00 0. -1.
          4    1    6    6  503    0 -0.11126182160E+03 -0.34782285158E+03  0.47095289244E+02  0.36820903750E+03  0.00000000000E+00 0. -1.
         -4    1    6    6    0  503  0.73802756889E+01 -0.31268006668E+02 -0.17479058033E+02  0.36574228358E+02  0.00000000000E+00 0.  1.
<mgrwt>
<rscale>  0 0.21269179E+04</rscale>
<asrwt>0</asrwt>
<pdfrwt beam="1">  1        1 0.13789165E+00 0.21269179E+04</pdfrwt>
<pdfrwt beam="2">  1       -2 0.19412291E+00 0.21269179E+04</pdfrwt>
<totfact> 0.21430443E+00</totfact>
</mgrwt>
</event>
<event>
12    4  0.4413110E-008  0.1984717E+04  0.7818608E-02  0.8613799E-01
         -2   -1    0    0    0  501 -0.00000000000E+00  0.00000000000E+00  0.12391663535E+04  0.12391663535E+04  0.00000000000E+00 0.  1.
          1   -1    0    0  501    0  0.00000000000E+00 -0.00000000000E+00 -0.79470814603E+03  0.79470814603E+03  0.00000000000E+00 0. -1.
        -24    2    1    2    0    0 -0.53042449297E+03 -0.13486351080E+02  0.75603415860E+03  0.92714605744E+03  0.80499307141E+02 0.  0.
        254    2    1    2    0    0  0.53042449297E+03  0.13486351080E+02 -0.31157595116E+03  0.11067284421E+04  0.91991099935E+03 0.  0.
         23    2    4    4    0    0 -0.23633709943E+03  0.80802628864E+02 -0.17740951329E+03  0.32008260007E+03  0.92706235293E+02 0.  0.
         23    2    4    4    0    0  0.76676159239E+03 -0.67316277784E+02 -0.13416643787E+03  0.78664584200E+03  0.91412399912E+02 0.  0.
          1    1    3    3  502    0 -0.20266281083E+02 -0.17059190107E+02  0.36332381357E+02  0.44964208556E+02  0.00000000000E+00 0. -1.
         -2    1    3    3    0  502 -0.51015821188E+03  0.35728390268E+01  0.71970177725E+03  0.88218184889E+03  0.00000000000E+00 0.  1.
         11    1    5    5    0    0 -0.21895617734E+03  0.97638584081E+02 -0.14699511901E+03  0.28121640370E+03  0.00000000000E+00 0. -1.
        -11    1    5    5    0    0 -0.17380922090E+02 -0.16835955217E+02 -0.30414394280E+02  0.38866196370E+02  0.00000000000E+00 0.  1.
          1    1    6    6  503    0  0.66172025207E+03 -0.68268145956E+02 -0.14559971729E+03  0.68097981572E+03  0.00000000000E+00 0. -1.
         -1    1    6    6    0  503  0.10504134033E+03  0.95186817161E+00  0.11433279416E+02  0.10566602628E+03  0.00000000000E+00 0.  1.
<mgrwt>
<rscale>  0 0.19847172E+04</rscale>
<asrwt>0</asrwt>
<pdfrwt beam="1">  1        1 0.12226279E+00 0.19847172E+04</pdfrwt>
<pdfrwt beam="2">  1       -2 0.19064098E+00 0.19847172E+04</pdfrwt>
<totfact> 0.27897387E+00</totfact>
</mgrwt>
</event>
<event>
12    4  0.4413110E-008  0.1178678E+04  0.7818608E-02  0.9131727E-01
         -2   -1    0    0    0  501 -0.00000000000E+00  0.00000000000E+00  0.36812751074E+03  0.36812751074E+03  0.00000000000E+00 0.  1.
          1   -1    0    0  501    0  0.00000000000E+00 -0.00000000000E+00 -0.94347807573E+03  0.94347807573E+03  0.00000000000E+00 0. -1.
        -24    2    1    2    0    0  0.25000062601E+03 -0.87142574191E+02 -0.81825348288E+02  0.28829492152E+03  0.79526303254E+02 0.  0.
        254    2    1    2    0    0 -0.25000062601E+03  0.87142574191E+02 -0.49352521670E+03  0.10233106649E+04  0.85644815152E+03 0.  0.
         23    2    4    4    0    0 -0.30973623156E+02  0.11868503743E+03  0.22238106748E+03  0.26823782197E+03  0.86328943689E+02 0.  0.
         23    2    4    4    0    0 -0.21902700286E+03 -0.31542463240E+02 -0.71590628418E+03  0.75507284298E+03  0.92980834133E+02 0.  0.
          1    1    3    3  502    0  0.14973025394E+02 -0.28982825826E+02 -0.20513512992E+02  0.38535696407E+02  0.00000000000E+00 0. -1.
         -2    1    3    3    0  502  0.23502760062E+03 -0.58159748365E+02 -0.61311835297E+02  0.24975922511E+03  0.00000000000E+00 0.  1.
         11    1    5    5    0    0 -0.60202151389E+02  0.67181142865E+02  0.14546248672E+03  0.17116348919E+03  0.00000000000E+00 0.  1.
        -11    1    5    5    0    0  0.29228528233E+02  0.51503894565E+02  0.76918580764E+02  0.97074332781E+02  0.00000000000E+00 0. -1.
          4    1    6    6  503    0 -0.13899745361E+03  0.76245218727E+01 -0.31505908242E+03  0.34444252185E+03  0.00000000000E+00 0. -1.
         -4    1    6    6    0  503 -0.80029549250E+02 -0.39166985113E+02 -0.40084720176E+03  0.41063032113E+03  0.00000000000E+00 0.  1.
<mgrwt>
<rscale>  0 0.11786776E+04</rscale>
<asrwt>0</asrwt>
<pdfrwt beam="1">  1        1 0.14515047E+00 0.11786776E+04</pdfrwt>
<pdfrwt beam="2">  1       -2 0.56635003E-01 0.11786776E+04</pdfrwt>
<totfact> 0.42627485E+01</totfact>
</mgrwt>
</event>
<event>
12    4  0.4413110E-008  0.1507187E+04  0.7818608E-02  0.8879687E-01
          1   -1    0    0  501    0  0.00000000000E+00  0.00000000000E+00  0.73353372777E+03  0.73353372777E+03  0.00000000000E+00 0. -1.
         -2   -1    0    0    0  501 -0.00000000000E+00 -0.00000000000E+00 -0.77420223702E+03  0.77420223702E+03  0.00000000000E+00 0.  1.
        -24    2    1    2    0    0 -0.58043733037E+02  0.35420943975E+03  0.31469200223E+03  0.48385437441E+03  0.79060718512E+02 0.  0.
        254    2    1    2    0    0  0.58043733037E+02 -0.35420943975E+03 -0.35536051148E+03  0.10238815904E+04  0.89062843873E+03 0.  0.
         23    2    4    4    0    0  0.31900654751E+03 -0.35317977074E+03  0.95835796663E+02  0.49465279280E+03  0.94845968225E+02 0.  0.
         23    2    4    4    0    0 -0.26096281447E+03 -0.10296690100E+01 -0.45119630814E+03  0.52922879759E+03  0.91664393108E+02 0.  0.
          1    1    3    3  502    0 -0.32974555328E+02  0.16898506863E+03  0.20272425585E+03  0.26597067250E+03  0.00000000000E+00 0. -1.
         -2    1    3    3    0  502 -0.25069177709E+02  0.18522437112E+03  0.11196774638E+03  0.21788370191E+03  0.00000000000E+00 0.  1.
         11    1    5    5    0    0 -0.28382642091E+01 -0.26528234914E+02  0.65662096408E+01  0.27475772972E+02  0.00000000000E+00 0. -1.
        -11    1    5    5    0    0  0.32184481172E+03 -0.32665153582E+03  0.89269587022E+02  0.46717701982E+03  0.00000000000E+00 0.  1.
          1    1    6    6  503    0 -0.70311320082E+02  0.20399145546E+02 -0.64562103172E+02  0.97611843732E+02  0.00000000000E+00 0. -1.
         -1    1    6    6    0  503 -0.19065149439E+03 -0.21428814556E+02 -0.38663420497E+03  0.43161695386E+03  0.00000000000E+00 0.  1.
<mgrwt>
<rscale>  0 0.15071874E+04</rscale>
<asrwt>0</asrwt>
<pdfrwt beam="1">  1        1 0.11285134E+00 0.15071874E+04</pdfrwt>
<pdfrwt beam="2">  1       -2 0.11910804E+00 0.15071874E+04</pdfrwt>
<totfact> 0.11609831E+01</totfact>
</mgrwt>
</event>
<event>
12    4  0.4413110E-008  0.2366884E+04  0.7818608E-02  0.8452007E-01
         -2   -1    0    0    0  501 -0.00000000000E+00  0.00000000000E+00  0.10757736545E+04  0.10757736545E+04  0.00000000000E+00 0.  1.
          1   -1    0    0  501    0  0.00000000000E+00 -0.00000000000E+00 -0.13018860275E+04  0.13018860275E+04  0.00000000000E+00 0. -1.
        -24    2    1    2    0    0  0.76328351972E+02 -0.10026695340E+04  0.31444466824E+02  0.10092160962E+04  0.79725545913E+02 0.  0.
        254    2    1    2    0    0 -0.76328351972E+02  0.10026695340E+04 -0.25755683991E+03  0.13684435858E+04  0.89170068410E+03 0.  0.
         23    2    4    4    0    0 -0.53531277190E+02  0.31634361773E+03 -0.52810218849E+03  0.62450056223E+03  0.90388874410E+02 0.  0.
         23    2    4    4    0    0 -0.22797074782E+02  0.68632591625E+03  0.27054534858E+03  0.74394302357E+03  0.93238762019E+02 0.  0.
          1    1    3    3  502    0  0.50023849402E+02 -0.90614325169E+03  0.13812959612E+02  0.90762810443E+03  0.00000000000E+00 0. -1.
         -2    1    3    3    0  502  0.26304502570E+02 -0.96526282290E+02  0.17631507212E+02  0.10158799178E+03  0.00000000000E+00 0.  1.
         11    1    5    5    0    0 -0.63216730681E+02  0.26711883745E+03 -0.48945199856E+03  0.56117028365E+03  0.00000000000E+00 0. -1.
        -11    1    5    5    0    0  0.96854534913E+01  0.49224780279E+02 -0.38650189933E+02  0.63330278578E+02  0.00000000000E+00 0.  1.
          1    1    6    6  503    0 -0.33326531274E+02  0.64888847806E+03  0.27345802246E+03  0.70494411459E+03  0.00000000000E+00 0. -1.
         -1    1    6    6    0  503  0.10529456492E+02  0.37437438188E+02 -0.29126738863E+01  0.38998908975E+02  0.00000000000E+00 0.  1.
<mgrwt>
<rscale>  0 0.23668838E+04</rscale>
<asrwt>0</asrwt>
<pdfrwt beam="1">  1        1 0.20029016E+00 0.23668838E+04</pdfrwt>
<pdfrwt beam="2">  1       -2 0.16550364E+00 0.23668838E+04</pdfrwt>
<totfact> 0.16328163E+00</totfact>
</mgrwt>
</event>
<event>
12    4  0.4413110E-008  0.1893701E+04  0.7818608E-02  0.8657998E-01
         -2   -1    0    0    0  501 -0.00000000000E+00  0.00000000000E+00  0.41289490931E+03  0.41289490931E+03  0.00000000000E+00 0.  1.
          1   -1    0    0  501    0  0.00000000000E+00 -0.00000000000E+00 -0.21713171322E+04  0.21713171322E+04  0.00000000000E+00 0. -1.
        -24    2    1    2    0    0  0.63838695635E+03  0.14308936189E+03 -0.24498257683E+03  0.70303768089E+03  0.78949643984E+02 0.  0.
        254    2    1    2    0    0 -0.63838695635E+03 -0.14308936189E+03 -0.15134396460E+04  0.18811743606E+04  0.90570687380E+03 0.  0.
         23    2    4    4    0    0 -0.68256901264E+03 -0.15563735293E+03 -0.50553752384E+03  0.86817782043E+03  0.89672165317E+02 0.  0.
         23    2    4    4    0    0  0.44182056296E+02  0.12547991044E+02 -0.10079021222E+04  0.10129965402E+04  0.90475390472E+02 0.  0.
          1    1    3    3  502    0  0.31185849154E+03  0.66600815507E+02 -0.16141139788E+03  0.35741436280E+03  0.00000000000E+00 0. -1.
         -2    1    3    3    0  502  0.32652846481E+03  0.76488546379E+02 -0.83571178951E+02  0.34562331809E+03  0.00000000000E+00 0.  1.
         11    1    5    5    0    0 -0.48722274614E+03 -0.11388820280E+03 -0.40933862905E+03  0.64646317785E+03  0.00000000000E+00 0.  1.
        -11    1    5    5    0    0 -0.19534626650E+03 -0.41749150130E+02 -0.96198894792E+02  0.22171464258E+03  0.00000000000E+00 0. -1.
          4    1    6    6  503    0 -0.25606302166E+02  0.64840950523E+01 -0.43967139455E+03  0.44046414313E+03  0.00000000000E+00 0. -1.
         -4    1    6    6    0  503  0.69788358462E+02  0.60638959915E+01 -0.56823072765E+03  0.57253239703E+03  0.00000000000E+00 0.  1.
<mgrwt>
<rscale>  0 0.18937009E+04</rscale>
<asrwt>0</asrwt>
<pdfrwt beam="1">  1        1 0.33404879E+00 0.18937009E+04</pdfrwt>
<pdfrwt beam="2">  1       -2 0.63522293E-01 0.18937009E+04</pdfrwt>
<totfact> 0.42981403E+00</totfact>
</mgrwt>
</event>
<event>
12    4  0.4413110E-008  0.1750278E+04  0.7818608E-02  0.8733197E-01
         -4   -1    0    0    0  501 -0.00000000000E+00  0.00000000000E+00  0.89976405093E+03  0.89976405093E+03  0.00000000000E+00 0.  1.
          3   -1    0    0  501    0  0.00000000000E+00 -0.00000000000E+00 -0.85118774743E+03  0.85118774743E+03  0.00000000000E+00 0. -1.
        -24    2    1    2    0    0  0.11212867101E+03  0.60399211927E+03 -0.16163749463E+03  0.64052169568E+03  0.82231648207E+02 0.  0.
        254    2    1    2    0    0 -0.11212867101E+03 -0.60399211927E+03  0.21021379813E+03  0.11104301027E+04  0.90082509567E+03 0.  0.
         23    2    4    4    0    0 -0.25510756419E+03  0.14762554629E+03  0.13442374603E+03  0.33578546872E+03  0.88368355661E+02 0.  0.
         23    2    4    4    0    0  0.14297889318E+03 -0.75161766556E+03  0.75790052094E+02  0.77464463395E+03  0.94647228387E+02 0.  0.
          3    1    3    3  502    0  0.11145296229E+03  0.43885712079E+03 -0.96214814042E+02  0.46289807270E+03  0.00000000000E+00 0. -1.
         -4    1    3    3    0  502  0.67570872106E+00  0.16513499848E+03 -0.65422680584E+02  0.17762362298E+03  0.00000000000E+00 0.  1.
         11    1    5    5    0    0 -0.97521767067E+02  0.35838760926E+02  0.65735854111E+01  0.10410631038E+03  0.00000000000E+00 0. -1.
        -11    1    5    5    0    0 -0.15758579712E+03  0.11178678536E+03  0.12785016062E+03  0.23167915833E+03  0.00000000000E+00 0.  1.
          2    1    6    6  503    0  0.10771868317E+03 -0.70049546671E+03  0.73004158522E+02  0.71247934759E+03  0.00000000000E+00 0.  1.
         -2    1    6    6    0  503  0.35260210015E+02 -0.51122198851E+02  0.27858935723E+01  0.62165286363E+02  0.00000000000E+00 0. -1.
<mgrwt>
<rscale>  0 0.17502778E+04</rscale>
<asrwt>0</asrwt>
<pdfrwt beam="1">  1        3 0.13095196E+00 0.17502778E+04</pdfrwt>
<pdfrwt beam="2">  1       -4 0.13842524E+00 0.17502778E+04</pdfrwt>
<totfact> 0.36476841E-01</totfact>
</mgrwt>
</event>
<event>
12    4  0.4413110E-008  0.1499706E+04  0.7818608E-02  0.8884648E-01
         -2   -1    0    0    0  501 -0.00000000000E+00  0.00000000000E+00  0.19575217899E+03  0.19575217899E+03  0.00000000000E+00 0.  1.
          1   -1    0    0  501    0  0.00000000000E+00 -0.00000000000E+00 -0.28724055407E+04  0.28724055407E+04  0.00000000000E+00 0. -1.
        -24    2    1    2    0    0  0.30310904044E+03 -0.19791385588E+03 -0.14127989804E+04  0.14611226546E+04  0.88506881918E+02 0.  0.
        254    2    1    2    0    0 -0.30310904044E+03  0.19791385588E+03 -0.12638543813E+04  0.16070350651E+04  0.92422335959E+03 0.  0.
         23    2    4    4    0    0 -0.52762251981E+03  0.54433209703E+02 -0.12036596252E+04  0.13186027131E+04  0.92564161050E+02 0.  0.
         23    2    4    4    0    0  0.22451347937E+03  0.14348064618E+03 -0.60194756130E+02  0.28843235198E+03  0.92611094144E+02 0.  0.
          1    1    3    3  502    0  0.21782945014E+03 -0.91669713898E+02 -0.88020349115E+03  0.91137873117E+03  0.00000000000E+00 0. -1.
         -2    1    3    3    0  502  0.85279590296E+02 -0.10624414198E+03 -0.53259548921E+03  0.54974392343E+03  0.00000000000E+00 0.  1.
         11    1    5    5    0    0 -0.11895687012E+03 -0.21436233273E+02 -0.22700159438E+03  0.25717692917E+03  0.00000000000E+00 0.  1.
        -11    1    5    5    0    0 -0.40866564969E+03  0.75869442976E+02 -0.97665803083E+03  0.10614257839E+04  0.00000000000E+00 0. -1.
          1    1    6    6  503    0  0.20462742967E+03  0.15416410458E+03 -0.42395440407E+02  0.25968505826E+03  0.00000000000E+00 0. -1.
         -1    1    6    6    0  503  0.19886049695E+02 -0.10683458407E+02 -0.17799315723E+02  0.28747293720E+02  0.00000000000E+00 0.  1.
<mgrwt>
<rscale>  0 0.14997062E+04</rscale>
<asrwt>0</asrwt>
<pdfrwt beam="1">  1        1 0.44190852E+00 0.14997062E+04</pdfrwt>
<pdfrwt beam="2">  1       -2 0.30115721E-01 0.14997062E+04</pdfrwt>
<totfact> 0.64293465E+00</totfact>
</mgrwt>
</event>
<event>
12    4  0.4413110E-008  0.3010092E+04  0.7818608E-02  0.8240855E-01
          1   -1    0    0  501    0  0.00000000000E+00  0.00000000000E+00  0.79190049731E+03  0.79190049731E+03  0.00000000000E+00 0. -1.
         -2   -1    0    0    0  501 -0.00000000000E+00 -0.00000000000E+00 -0.28604144973E+04  0.28604144973E+04  0.00000000000E+00 0.  1.
        -24    2    1    2    0    0  0.56097385845E+03  0.11274800569E+04 -0.27481227800E+03  0.12914331170E+04  0.79842088903E+02 0.  0.
        254    2    1    2    0    0 -0.56097385845E+03 -0.11274800569E+04 -0.17937017220E+04  0.23608818776E+04  0.87777811763E+03 0.  0.
         23    2    4    4    0    0 -0.63702908882E+03 -0.72337595560E+03 -0.16596518902E+04  0.19209091974E+04  0.79805480506E+02 0.  0.
         23    2    4    4    0    0  0.76055230363E+02 -0.40410410127E+03 -0.13404983179E+03  0.43997268019E+03  0.80759390680E+02 0.  0.
          1    1    3    3  502    0  0.23316091263E+03  0.50454079573E+03 -0.84181547066E+02  0.56214940950E+03  0.00000000000E+00 0. -1.
         -2    1    3    3    0  502  0.32781294582E+03  0.62293926114E+03 -0.19063073093E+03  0.72928370755E+03  0.00000000000E+00 0.  1.
         11    1    5    5    0    0 -0.36379820396E+03 -0.36198083681E+03 -0.92324129456E+03  0.10562924535E+04  0.00000000000E+00 0. -1.
        -11    1    5    5    0    0 -0.27323088485E+03 -0.36139511879E+03 -0.73641059566E+03  0.86461674384E+03  0.00000000000E+00 0.  1.
          3    1    6    6  503    0  0.58127348103E+02 -0.37461559789E+03 -0.14153864943E+03  0.40465889841E+03  0.00000000000E+00 0. -1.
         -3    1    6    6    0  503  0.17927882260E+02 -0.29488503376E+02  0.74888176424E+01  0.35313781777E+02  0.00000000000E+00 0.  1.
<mgrwt>
<rscale>  0 0.30100921E+04</rscale>
<asrwt>0</asrwt>
<pdfrwt beam="1">  1        1 0.12183085E+00 0.30100921E+04</pdfrwt>
<pdfrwt beam="2">  1       -2 0.44006377E+00 0.30100921E+04</pdfrwt>
<totfact> 0.67607304E-02</totfact>
</mgrwt>
</event>
<event>
12    4  0.4413110E-008  0.1247879E+04  0.7818608E-02  0.9071951E-01
         -2   -1    0    0    0  501 -0.00000000000E+00  0.00000000000E+00  0.48680031736E+03  0.48680031736E+03  0.00000000000E+00 0.  1.
          1   -1    0    0  501    0  0.00000000000E+00 -0.00000000000E+00 -0.79971270141E+03  0.79971270141E+03  0.00000000000E+00 0. -1.
        -24    2    1    2    0    0 -0.17002688463E+02  0.23116684542E+03 -0.24245901604E+03  0.34790295194E+03  0.92319486986E+02 0.  0.
        254    2    1    2    0    0  0.17002688463E+02 -0.23116684542E+03 -0.70453368004E+02  0.93861006683E+03  0.90680647255E+03 0.  0.
         23    2    4    4    0    0  0.46097741681E+02  0.64261689595E+01 -0.45955315184E+03  0.47250069570E+03  0.99506334655E+02 0.  0.
         23    2    4    4    0    0 -0.29095053218E+02 -0.23759301438E+03  0.38909978384E+03  0.46610937112E+03  0.92532920975E+02 0.  0.
          1    1    3    3  502    0  0.25291893753E+02  0.17329557560E+03 -0.14777706051E+03  0.22914863304E+03  0.00000000000E+00 0. -1.
         -2    1    3    3    0  502 -0.42294582217E+02  0.57871269822E+02 -0.94681955531E+02  0.11875431891E+03  0.00000000000E+00 0.  1.
         11    1    5    5    0    0  0.14103226634E+02  0.23901540537E+02 -0.41022711093E+03  0.41116476890E+03  0.00000000000E+00 0. -1.
        -11    1    5    5    0    0  0.31994515047E+02 -0.17475371577E+02 -0.49326040911E+02  0.61335926803E+02  0.00000000000E+00 0.  1.
          3    1    6    6  503    0  0.35322570980E+01 -0.21821567674E+03  0.34069201926E+03  0.40460055660E+03  0.00000000000E+00 0. -1.
         -3    1    6    6    0  503 -0.32627310316E+02 -0.19377337633E+02  0.48407764579E+02  0.61508814521E+02  0.00000000000E+00 0.  1.
<mgrwt>
<rscale>  0 0.12478788E+04</rscale>
<asrwt>0</asrwt>
<pdfrwt beam="1">  1        1 0.12303272E+00 0.12478788E+04</pdfrwt>
<pdfrwt beam="2">  1       -2 0.74892357E-01 0.12478788E+04</pdfrwt>
<totfact> 0.30628996E+01</totfact>
</mgrwt>
</event>
<event>
12    4  0.4413110E-008  0.1663690E+04  0.7818608E-02  0.8782348E-01
         -2   -1    0    0    0  501 -0.00000000000E+00  0.00000000000E+00  0.67066697130E+03  0.67066697130E+03  0.00000000000E+00 0.  1.
          1   -1    0    0  501    0  0.00000000000E+00 -0.00000000000E+00 -0.10317583827E+04  0.10317583827E+04  0.00000000000E+00 0. -1.
        -24    2    1    2    0    0 -0.56934853428E+03 -0.26360153187E+03 -0.30955748167E+02  0.63336302187E+03  0.80913151140E+02 0.  0.
        254    2    1    2    0    0  0.56934853428E+03  0.26360153187E+03 -0.33013566319E+03  0.10690623321E+04  0.80016322877E+03 0.  0.
         23    2    4    4    0    0  0.30925569249E+03 -0.26628322301E+03 -0.10878974954E+03  0.43212125353E+03  0.91365912436E+02 0.  0.
         23    2    4    4    0    0  0.26009284180E+03  0.52988475488E+03 -0.22134591365E+03  0.63694107855E+03  0.90960344409E+02 0.  0.
          1    1    3    3  502    0 -0.16927814419E+03 -0.45402682582E+02 -0.29059847044E+02  0.17765406946E+03  0.00000000000E+00 0. -1.
         -2    1    3    3    0  502 -0.40007039009E+03 -0.21819884929E+03 -0.18959011235E+01  0.45570895240E+03  0.00000000000E+00 0.  1.
         11    1    5    5    0    0  0.28985175386E+02 -0.59065448874E+02  0.36046883616E+01  0.65892802498E+02  0.00000000000E+00 0.  1.
        -11    1    5    5    0    0  0.28027051710E+03 -0.20721777413E+03 -0.11239443790E+03  0.36622845103E+03  0.00000000000E+00 0. -1.
          1    1    6    6  503    0  0.19749359141E+03  0.47149726210E+03 -0.19817785082E+03  0.54825892366E+03  0.00000000000E+00 0. -1.
         -1    1    6    6    0  503  0.62599250385E+02  0.58387492778E+02 -0.23168062831E+02  0.88682154896E+02  0.00000000000E+00 0.  1.
<mgrwt>
<rscale>  0 0.16636902E+04</rscale>
<asrwt>0</asrwt>
<pdfrwt beam="1">  1        1 0.15873206E+00 0.16636902E+04</pdfrwt>
<pdfrwt beam="2">  1       -2 0.10317953E+00 0.16636902E+04</pdfrwt>
<totfact> 0.91698410E+00</totfact>
</mgrwt>
</event>
<event>
12    4  0.4413110E-008  0.1686281E+04  0.7818608E-02  0.8769228E-01
          1   -1    0    0  501    0  0.00000000000E+00  0.00000000000E+00  0.68225459106E+03  0.68225459106E+03  0.00000000000E+00 0. -1.
         -2   -1    0    0    0  501 -0.00000000000E+00 -0.00000000000E+00 -0.10419656722E+04  0.10419656722E+04  0.00000000000E+00 0.  1.
        -24    2    1    2    0    0 -0.35429596075E+03  0.27691506231E+02 -0.63447630121E+03  0.73152021376E+03  0.79178273636E+02 0.  0.
        254    2    1    2    0    0  0.35429596075E+03 -0.27691506231E+02  0.27476522008E+03  0.99270004950E+03  0.88524856102E+03 0.  0.
         23    2    4    4    0    0  0.31053009462E+03 -0.34981995955E+03  0.41013220087E+03  0.62901852991E+03  0.93021207355E+02 0.  0.
         23    2    4    4    0    0  0.43765866131E+02  0.32212845331E+03 -0.13536698079E+03  0.36368151959E+03  0.90872640148E+02 0.  0.
          1    1    3    3  502    0 -0.17184141120E+03 -0.25122773677E+02 -0.32177749911E+03  0.36565199752E+03  0.00000000000E+00 0. -1.
         -2    1    3    3    0  502 -0.18245454956E+03  0.52814279908E+02 -0.31269880210E+03  0.36586821624E+03  0.00000000000E+00 0.  1.
         11    1    5    5    0    0  0.25557824957E+03 -0.29029138318E+03  0.38104449170E+03  0.54294035902E+03  0.00000000000E+00 0. -1.
        -11    1    5    5    0    0  0.54951845053E+02 -0.59528576361E+02  0.29087709173E+02  0.86078170887E+02  0.00000000000E+00 0.  1.
          2    1    6    6  503    0  0.61528500204E+02  0.29607165007E+03 -0.13725679366E+03  0.33208975552E+03  0.00000000000E+00 0. -1.
         -2    1    6    6    0  503 -0.17762634073E+02  0.26056803242E+02  0.18898128650E+01  0.31591764071E+02  0.00000000000E+00 0.  1.
<mgrwt>
<rscale>  0 0.16862810E+04</rscale>
<asrwt>0</asrwt>
<pdfrwt beam="1">  1        1 0.10496224E+00 0.16862810E+04</pdfrwt>
<pdfrwt beam="2">  1       -2 0.16030241E+00 0.16862810E+04</pdfrwt>
<totfact> 0.59174667E+00</totfact>
</mgrwt>
</event>
<event>
12    4  0.4413110E-008  0.8420146E+03  0.7818608E-02  0.9501118E-01
         -2   -1    0    0    0  501 -0.00000000000E+00  0.00000000000E+00  0.78370204893E+02  0.78370204893E+02  0.00000000000E+00 0.  1.
          1   -1    0    0  501    0  0.00000000000E+00 -0.00000000000E+00 -0.22616652199E+04  0.22616652199E+04  0.00000000000E+00 0. -1.
        -24    2    1    2    0    0 -0.40496347348E+02 -0.34275312408E+02 -0.14754393690E+03  0.17434767197E+03  0.76243991341E+02 0.  0.
        254    2    1    2    0    0  0.40496347348E+02  0.34275312408E+02 -0.20357510781E+04  0.21656877529E+04  0.73695742044E+03 0.  0.
         23    2    4    4    0    0 -0.68063228319E+02 -0.21815396016E+03 -0.23006443023E+03  0.33699971611E+03  0.91735561359E+02 0.  0.
         23    2    4    4    0    0  0.10855957567E+03  0.25242927257E+03 -0.18056866479E+04  0.18286880368E+04  0.89944128162E+02 0.  0.
          1    1    3    3  502    0 -0.18066607943E+02  0.43154681780E+01 -0.12099654143E+03  0.12241400502E+03  0.00000000000E+00 0. -1.
         -2    1    3    3    0  502 -0.22429739405E+02 -0.38590780586E+02 -0.26547395472E+02  0.51933666945E+02  0.00000000000E+00 0.  1.
         11    1    5    5    0    0 -0.63944100974E+02 -0.22727511180E+03 -0.22286048579E+03  0.32466847802E+03  0.00000000000E+00 0. -1.
        -11    1    5    5    0    0 -0.41191273449E+01  0.91211516402E+01 -0.72039444432E+01  0.12331238091E+02  0.00000000000E+00 0.  1.
          3    1    6    6  503    0  0.14285965379E+02  0.14612237830E+03 -0.88168955248E+03  0.89383013218E+03  0.00000000000E+00 0. -1.
         -3    1    6    6    0  503  0.94273610289E+02  0.10630689427E+03 -0.92399709544E+03  0.93485790458E+03  0.00000000000E+00 0.  1.
<mgrwt>
<rscale>  0 0.84201465E+03</rscale>
<asrwt>0</asrwt>
<pdfrwt beam="1">  1        1 0.34794852E+00 0.84201465E+03</pdfrwt>
<pdfrwt beam="2">  1       -2 0.12056954E-01 0.84201465E+03</pdfrwt>
<totfact> 0.90213155E+01</totfact>
</mgrwt>
</event>
<event>
12    4  0.4413110E-008  0.2101753E+04  0.7818608E-02  0.8560472E-01
         -2   -1    0    0    0  501 -0.00000000000E+00  0.00000000000E+00  0.64455203322E+03  0.64455203322E+03  0.00000000000E+00 0.  1.
          1   -1    0    0  501    0  0.00000000000E+00 -0.00000000000E+00 -0.17133470708E+04  0.17133470708E+04  0.00000000000E+00 0. -1.
        -24    2    1    2    0    0  0.88315780922E+01 -0.38577547008E+03  0.41719203131E+03  0.57345625853E+03  0.76825642597E+02 0.  0.
        254    2    1    2    0    0 -0.88315780922E+01  0.38577547008E+03 -0.14859870689E+04  0.17844428455E+04  0.90949325994E+03 0.  0.
         23    2    4    4    0    0  0.20909646991E+03  0.59978277366E+03 -0.78249320209E+03  0.10120003569E+04  0.91588218870E+02 0.  0.
         23    2    4    4    0    0 -0.21792804800E+03 -0.21400730357E+03 -0.70349386684E+03  0.77244248859E+03  0.92043562572E+02 0.  0.
          1    1    3    3  502    0  0.17156386896E+02 -0.86733472671E+02  0.56837650595E+02  0.10510735187E+03  0.00000000000E+00 0. -1.
         -2    1    3    3    0  502 -0.83248088037E+01 -0.29904199741E+03  0.36035438072E+03  0.46834890665E+03  0.00000000000E+00 0.  1.
         11    1    5    5    0    0  0.19939588003E+03  0.57010063942E+03 -0.70428340806E+03  0.92778692323E+03  0.00000000000E+00 0. -1.
        -11    1    5    5    0    0  0.97005898717E+01  0.29682134241E+02 -0.78209794022E+02  0.84213433714E+02  0.00000000000E+00 0.  1.
          3    1    6    6  503    0 -0.20552292000E+03 -0.19098482540E+03 -0.55740619280E+03  0.62403248149E+03  0.00000000000E+00 0. -1.
         -3    1    6    6    0  503 -0.12405127994E+02 -0.23022478175E+02 -0.14608767404E+03  0.14841000710E+03  0.00000000000E+00 0.  1.
<mgrwt>
<rscale>  0 0.21017529E+04</rscale>
<asrwt>0</asrwt>
<pdfrwt beam="1">  1        1 0.26359186E+00 0.21017529E+04</pdfrwt>
<pdfrwt beam="2">  1       -2 0.99161852E-01 0.21017529E+04</pdfrwt>
<totfact> 0.31752145E+00</totfact>
</mgrwt>
</event>
<event>
12    4  0.4413110E-008  0.9952232E+03  0.7818608E-02  0.9313800E-01
          1   -1    0    0  501    0  0.00000000000E+00  0.00000000000E+00  0.94511044157E+03  0.94511044157E+03  0.00000000000E+00 0. -1.
         -2   -1    0    0    0  501 -0.00000000000E+00 -0.00000000000E+00 -0.26199825166E+03  0.26199825166E+03  0.00000000000E+00 0.  1.
        -24    2    1    2    0    0  0.11723663455E+02  0.17163202165E+02  0.38381942514E+01  0.80939255786E+02  0.78130734021E+02 0.  0.
        254    2    1    2    0    0 -0.11723663455E+02 -0.17163202165E+02  0.67927399566E+03  0.11261694374E+04  0.89800468866E+03 0.  0.
         23    2    4    4    0    0  0.26198073334E+03 -0.35245928565E+03  0.41543575475E+03  0.61125078552E+03  0.90438950633E+02 0.  0.
         23    2    4    4    0    0 -0.27370439679E+03  0.33529608349E+03  0.26383824091E+03  0.51491865192E+03  0.90515414718E+02 0.  0.
          3    1    3    3  502    0  0.88859524160E+01  0.22278026783E+02  0.38732874990E+02  0.45557724182E+02  0.00000000000E+00 0. -1.
         -4    1    3    3    0  502  0.28377110387E+01 -0.51148246182E+01 -0.34894680738E+02  0.35381531604E+02  0.00000000000E+00 0.  1.
         11    1    5    5    0    0  0.22614463366E+03 -0.31267173823E+03  0.31782660815E+03  0.49991875747E+03  0.00000000000E+00 0. -1.
        -11    1    5    5    0    0  0.35836099681E+02 -0.39787547420E+02  0.97609146599E+02  0.11133202805E+03  0.00000000000E+00 0.  1.
          3    1    6    6  503    0 -0.89943942760E+02  0.16608004550E+03  0.14596493291E+03  0.23870118556E+03  0.00000000000E+00 0. -1.
         -3    1    6    6    0  503 -0.18376045403E+03  0.16921603799E+03  0.11787330801E+03  0.27621746636E+03  0.00000000000E+00 0.  1.
<mgrwt>
<rscale>  0 0.99522316E+03</rscale>
<asrwt>0</asrwt>
<pdfrwt beam="1">  1        1 0.14540160E+00 0.99522316E+03</pdfrwt>
<pdfrwt beam="2">  1       -2 0.40307424E-01 0.99522316E+03</pdfrwt>
<totfact> 0.85620720E+01</totfact>
</mgrwt>
</event>
<event>
12    4  0.4413110E-008  0.1648987E+04  0.7818608E-02  0.8791006E-01
          1   -1    0    0  501    0  0.00000000000E+00  0.00000000000E+00  0.28363548398E+04  0.28363548398E+04  0.00000000000E+00 0. -1.
         -2   -1    0    0    0  501 -0.00000000000E+00 -0.00000000000E+00 -0.23967014317E+03  0.23967014317E+03  0.00000000000E+00 0.  1.
        -24    2    1    2    0    0 -0.33911727228E+03 -0.42861512068E+03  0.56425573834E+03  0.78827497615E+03  0.65432818461E+02 0.  0.
        254    2    1    2    0    0  0.33911727228E+03  0.42861512068E+03  0.20324289583E+04  0.22877500068E+04  0.89683954931E+03 0.  0.
         23    2    4    4    0    0  0.61701014563E+02  0.56780209287E+03  0.66011305701E+03  0.87784371401E+03  0.93027449336E+02 0.  0.
         23    2    4    4    0    0  0.27741625772E+03 -0.13918697218E+03  0.13723159013E+04  0.14099062928E+04  0.90840675631E+02 0.  0.
          1    1    3    3  502    0 -0.30180716137E+03 -0.38510553784E+03  0.53083123346E+03  0.72192495202E+03  0.00000000000E+00 0. -1.
         -2    1    3    3    0  502 -0.37310110910E+02 -0.43509582843E+02  0.33424504878E+02  0.66350024127E+02  0.00000000000E+00 0.  1.
         11    1    5    5    0    0 -0.31844406041E+01  0.35831612380E+03  0.38372272750E+03  0.52501782525E+03  0.00000000000E+00 0. -1.
        -11    1    5    5    0    0  0.64885455168E+02  0.20948596907E+03  0.27639032951E+03  0.35282588875E+03  0.00000000000E+00 0.  1.
          3    1    6    6  503    0  0.21472706155E+03 -0.63263896772E+02  0.10044688554E+04  0.10291101559E+04  0.00000000000E+00 0. -1.
         -3    1    6    6    0  503  0.62689196170E+02 -0.75923075410E+02  0.36784704588E+03  0.38079613688E+03  0.00000000000E+00 0.  1.
<mgrwt>
<rscale>  0 0.16489870E+04</rscale>
<asrwt>0</asrwt>
<pdfrwt beam="1">  1        1 0.43636226E+00 0.16489870E+04</pdfrwt>
<pdfrwt beam="2">  1       -2 0.36872332E-01 0.16489870E+04</pdfrwt>
<totfact> 0.45812993E+00</totfact>
</mgrwt>
</event>
<event>
12    4  0.4413110E-008  0.1908881E+04  0.7818608E-02  0.8650448E-01
          1   -1    0    0  501    0  0.00000000000E+00  0.00000000000E+00  0.76749107711E+03  0.76749107711E+03  0.00000000000E+00 0. -1.
         -2   -1    0    0    0  501 -0.00000000000E+00 -0.00000000000E+00 -0.11869282540E+04  0.11869282540E+04  0.00000000000E+00 0.  1.
        -24    2    1    2    0    0 -0.58101872243E+03  0.25696736977E+03 -0.53631114493E+03  0.83516613586E+03  0.79106544412E+02 0.  0.
        254    2    1    2    0    0  0.58101872243E+03 -0.25696736977E+03  0.11687396801E+03  0.11192531953E+04  0.91403129366E+03 0.  0.
         23    2    4    4    0    0  0.24540068607E+03 -0.55399289722E+03 -0.87081770450E+02  0.61847100917E+03  0.88280958036E+02 0.  0.
         23    2    4    4    0    0  0.33561803636E+03  0.29702552744E+03  0.20395573846E+03  0.50078218610E+03  0.91220745376E+02 0.  0.
          1    1    3    3  502    0 -0.20543041442E+03  0.10390425928E+03 -0.14809355797E+03  0.27373244633E+03  0.00000000000E+00 0. -1.
         -2    1    3    3    0  502 -0.37558830802E+03  0.15306311050E+03 -0.38821758696E+03  0.56143368953E+03  0.00000000000E+00 0.  1.
         11    1    5    5    0    0  0.19301259529E+03 -0.45205301538E+03 -0.10456088709E+03  0.50253235693E+03  0.00000000000E+00 0.  1.
        -11    1    5    5    0    0  0.52388090782E+02 -0.10193988183E+03  0.17479116643E+02  0.11593865224E+03  0.00000000000E+00 0. -1.
          3    1    6    6  503    0  0.34662427321E+02  0.72202498430E+00  0.20868349767E+02  0.40465951242E+02  0.00000000000E+00 0. -1.
         -3    1    6    6    0  503  0.30095560904E+03  0.29630350246E+03  0.18308738869E+03  0.46031623486E+03  0.00000000000E+00 0.  1.
<mgrwt>
<rscale>  0 0.19088812E+04</rscale>
<asrwt>0</asrwt>
<pdfrwt beam="1">  1        1 0.11807555E+00 0.19088812E+04</pdfrwt>
<pdfrwt beam="2">  1       -2 0.18260435E+00 0.19088812E+04</pdfrwt>
<totfact> 0.33641747E+00</totfact>
</mgrwt>
</event>
<event>
12    4  0.4413110E-008  0.1142094E+04  0.7818608E-02  0.9165108E-01
          1   -1    0    0  501    0  0.00000000000E+00  0.00000000000E+00  0.64848407627E+03  0.64848407627E+03  0.00000000000E+00 0. -1.
         -2   -1    0    0    0  501 -0.00000000000E+00 -0.00000000000E+00 -0.50285683241E+03  0.50285683241E+03  0.00000000000E+00 0.  1.
        -24    2    1    2    0    0  0.16778573675E+03  0.50623728404E+01 -0.86768311164E+02  0.20448920334E+03  0.78162736566E+02 0.  0.
        254    2    1    2    0    0 -0.16778573675E+03 -0.50623728404E+01  0.23239555503E+03  0.94685170534E+03  0.90240942860E+03 0.  0.
         23    2    4    4    0    0  0.12721386674E+03  0.13029879712E+03  0.48498258390E+03  0.52604975807E+03  0.91428096671E+02 0.  0.
         23    2    4    4    0    0 -0.29499960349E+03 -0.13536116996E+03 -0.25258702887E+03  0.42080194727E+03  0.89031788025E+02 0.  0.
          1    1    3    3  502    0  0.64760699038E+02 -0.36175558771E+02 -0.33432117819E+02  0.81365383881E+02  0.00000000000E+00 0. -1.
         -2    1    3    3    0  502  0.10302503771E+03  0.41237931612E+02 -0.53336193345E+02  0.12312381946E+03  0.00000000000E+00 0.  1.
         11    1    5    5    0    0  0.49598965415E+02  0.92826745711E+02  0.17408414541E+03  0.20342603514E+03  0.00000000000E+00 0.  1.
        -11    1    5    5    0    0  0.77614901329E+02  0.37472051410E+02  0.31089843848E+03  0.32262372293E+03  0.00000000000E+00 0. -1.
          1    1    6    6  503    0 -0.10852015964E+03 -0.17950777356E+02 -0.12363171808E+03  0.16548008089E+03  0.00000000000E+00 0. -1.
         -1    1    6    6    0  503 -0.18647944385E+03 -0.11741039260E+03 -0.12895531079E+03  0.25532186638E+03  0.00000000000E+00 0.  1.
<mgrwt>
<rscale>  0 0.11420940E+04</rscale>
<asrwt>0</asrwt>
<pdfrwt beam="1">  1        1 0.99766782E-01 0.11420940E+04</pdfrwt>
<pdfrwt beam="2">  1       -2 0.77362589E-01 0.11420940E+04</pdfrwt>
<totfact> 0.39637257E+01</totfact>
</mgrwt>
</event>
<event>
12    4  0.4413110E-008  0.1168981E+04  0.7818608E-02  0.9140449E-01
         -4   -1    0    0    0  501 -0.00000000000E+00  0.00000000000E+00  0.15252420955E+04  0.15252420955E+04  0.00000000000E+00 0.  1.
          3   -1    0    0  501    0  0.00000000000E+00 -0.00000000000E+00 -0.22398359053E+03  0.22398359053E+03  0.00000000000E+00 0. -1.
        -24    2    1    2    0    0  0.13561748650E+03  0.17353017472E+03  0.17460193783E+03  0.29252859366E+03  0.81131481131E+02 0.  0.
        254    2    1    2    0    0 -0.13561748650E+03 -0.17353017472E+03  0.11266565672E+04  0.14566970924E+04  0.89671989744E+03 0.  0.
         23    2    4    4    0    0 -0.43203520802E+03  0.53100780812E+02  0.27493930675E+03  0.52234444601E+03  0.88192879486E+02 0.  0.
         23    2    4    4    0    0  0.29641772152E+03 -0.22663095553E+03  0.85171726040E+03  0.93435264637E+03  0.91474151968E+02 0.  0.
          3    1    3    3  502    0  0.53842887567E+02  0.26708084521E+02  0.17810279421E+02  0.62686397036E+02  0.00000000000E+00 0. -1.
         -4    1    3    3    0  502  0.81774598931E+02  0.14682209020E+03  0.15679165841E+03  0.22984219662E+03  0.00000000000E+00 0.  1.
         11    1    5    5    0    0 -0.37928495289E+03  0.22851871877E+02  0.21324854509E+03  0.43572264748E+03  0.00000000000E+00 0. -1.
        -11    1    5    5    0    0 -0.52750255127E+02  0.30248908934E+02  0.61690761661E+02  0.86621798538E+02  0.00000000000E+00 0.  1.
          1    1    6    6  503    0  0.11258912591E+03 -0.64570543385E+02  0.39875940935E+03  0.41935037009E+03  0.00000000000E+00 0. -1.
         -1    1    6    6    0  503  0.18382859561E+03 -0.16206041215E+03  0.45295785105E+03  0.51500227629E+03  0.00000000000E+00 0.  1.
<mgrwt>
<rscale>  0 0.11689811E+04</rscale>
<asrwt>0</asrwt>
<pdfrwt beam="1">  1        3 0.34459015E-01 0.11689811E+04</pdfrwt>
<pdfrwt beam="2">  1       -4 0.23465262E+00 0.11689811E+04</pdfrwt>
<totfact> 0.14868518E+00</totfact>
</mgrwt>
</event>
<event>
12    4  0.4413110E-008  0.1604005E+04  0.7818608E-02  0.8818092E-01
          1   -1    0    0  501    0  0.00000000000E+00  0.00000000000E+00  0.15982672883E+04  0.15982672883E+04  0.00000000000E+00 0. -1.
         -2   -1    0    0    0  501 -0.00000000000E+00 -0.00000000000E+00 -0.40244061124E+03  0.40244061124E+03  0.00000000000E+00 0.  1.
        -24    2    1    2    0    0  0.43751300553E+03  0.32645856249E+03  0.34719908448E+03  0.65201311189E+03  0.81123799112E+02 0.  0.
        254    2    1    2    0    0 -0.43751300553E+03 -0.32645856249E+03  0.84862759261E+03  0.13486947877E+04  0.89488324174E+03 0.  0.
         23    2    4    4    0    0 -0.68147119730E+03 -0.37262153720E+03  0.66164192682E+03  0.10243707011E+04  0.91189315244E+02 0.  0.
         23    2    4    4    0    0  0.24395819178E+03  0.46162974707E+02  0.18698566579E+03  0.32432408658E+03  0.92605908838E+02 0.  0.
          3    1    3    3  502    0  0.35775838809E+03  0.27859561146E+03  0.25131463359E+03  0.51842610277E+03  0.00000000000E+00 0. -1.
         -4    1    3    3    0  502  0.79754617440E+02  0.47862951032E+02  0.95884450888E+02  0.13358700912E+03  0.00000000000E+00 0.  1.
         11    1    5    5    0    0 -0.49604905588E+02 -0.18335562336E+02  0.77283718757E+02  0.93646210225E+02  0.00000000000E+00 0. -1.
        -11    1    5    5    0    0 -0.63186629172E+03 -0.35428597486E+03  0.58435820806E+03  0.93072449088E+03  0.00000000000E+00 0.  1.
          3    1    6    6  503    0  0.70267290629E+02 -0.28037189983E+02  0.62296951691E+02  0.98002481319E+02  0.00000000000E+00 0. -1.
         -3    1    6    6    0  503  0.17369090115E+03  0.74200164690E+02  0.12468871410E+03  0.22632160526E+03  0.00000000000E+00 0.  1.
<mgrwt>
<rscale>  0 0.16040046E+04</rscale>
<asrwt>0</asrwt>
<pdfrwt beam="1">  1        1 0.24588727E+00 0.16040046E+04</pdfrwt>
<pdfrwt beam="2">  1       -2 0.61913941E-01 0.16040046E+04</pdfrwt>
<totfact> 0.11412268E+01</totfact>
</mgrwt>
</event>
<event>
12    4  0.4413110E-008  0.1702926E+04  0.7818608E-02  0.8759697E-01
         -2   -1    0    0    0  501 -0.00000000000E+00  0.00000000000E+00  0.14678669481E+04  0.14678669481E+04  0.00000000000E+00 0.  1.
          1   -1    0    0  501    0  0.00000000000E+00 -0.00000000000E+00 -0.49390669029E+03  0.49390669029E+03  0.00000000000E+00 0. -1.
        -24    2    1    2    0    0 -0.40524506560E+03 -0.77051725186E+01  0.86999883302E+03  0.96315688706E+03  0.80562316023E+02 0.  0.
        254    2    1    2    0    0  0.40524506560E+03  0.77051725186E+01  0.10396142474E+03  0.99861675128E+03  0.90672184557E+03 0.  0.
         23    2    4    4    0    0 -0.64754017498E+02  0.27316381185E+03  0.29650598719E+03  0.41840638362E+03  0.91304712476E+02 0.  0.
         23    2    4    4    0    0  0.46999908309E+03 -0.26545863934E+03 -0.19254456246E+03  0.58021036767E+03  0.90571711429E+02 0.  0.
          1    1    3    3  502    0 -0.16564071649E+03  0.28958733923E+02  0.41143667739E+03  0.44447226543E+03  0.00000000000E+00 0. -1.
         -2    1    3    3    0  502 -0.23960434910E+03 -0.36663906442E+02  0.45856215563E+03  0.51868462164E+03  0.00000000000E+00 0.  1.
         11    1    5    5    0    0 -0.83410099127E+02  0.25776551427E+03  0.26923040121E+03  0.38194936041E+03  0.00000000000E+00 0.  1.
        -11    1    5    5    0    0  0.18656081629E+02  0.15398297589E+02  0.27275585987E+02  0.36457023210E+02  0.00000000000E+00 0. -1.
          1    1    6    6  503    0  0.60171165380E+02 -0.26820110838E+01 -0.26897366393E+02  0.65963858631E+02  0.00000000000E+00 0. -1.
         -1    1    6    6    0  503  0.40982791771E+03 -0.26277662825E+03 -0.16564719607E+03  0.51424650904E+03  0.00000000000E+00 0.  1.
<mgrwt>
<rscale>  0 0.17029261E+04</rscale>
<asrwt>0</asrwt>
<pdfrwt beam="1">  1        1 0.75985645E-01 0.17029261E+04</pdfrwt>
<pdfrwt beam="2">  1       -2 0.22582568E+00 0.17029261E+04</pdfrwt>
<totfact> 0.34054752E+00</totfact>
</mgrwt>
</event>
<event>
12    4  0.4413110E-008  0.1610789E+04  0.7818608E-02  0.8813947E-01
         -2   -1    0    0    0  501 -0.00000000000E+00  0.00000000000E+00  0.46356840920E+03  0.46356840920E+03  0.00000000000E+00 0.  1.
          1   -1    0    0  501    0  0.00000000000E+00 -0.00000000000E+00 -0.13992757101E+04  0.13992757101E+04  0.00000000000E+00 0. -1.
        -24    2    1    2    0    0  0.48179769513E+03 -0.26519693596E+03 -0.43893438247E+03  0.70753962172E+03  0.74097842818E+02 0.  0.
        254    2    1    2    0    0 -0.48179769513E+03  0.26519693596E+03 -0.49677291841E+03  0.11553044976E+04  0.88627688435E+03 0.  0.
         23    2    4    4    0    0 -0.13517108153E+03 -0.21330095340E+03 -0.48915793186E+03  0.55762801051E+03  0.88910054612E+02 0.  0.
         23    2    4    4    0    0 -0.34662661360E+03  0.47849788936E+03 -0.76149865506E+01  0.59767648704E+03  0.89715972725E+02 0.  0.
          1    1    3    3  502    0  0.14698043848E+03 -0.99098973821E+02 -0.10309732323E+03  0.20506807154E+03  0.00000000000E+00 0. -1.
         -2    1    3    3    0  502  0.33481725665E+03 -0.16609796214E+03 -0.33583705925E+03  0.50247155018E+03  0.00000000000E+00 0.  1.
         11    1    5    5    0    0  0.12973571336E+02 -0.11500057111E+02 -0.34169532252E+02  0.38316077580E+02  0.00000000000E+00 0. -1.
        -11    1    5    5    0    0 -0.14814465287E+03 -0.20180089628E+03 -0.45498839960E+03  0.51931193293E+03  0.00000000000E+00 0.  1.
          2    1    6    6  503    0 -0.65769116367E+02  0.15955092203E+03  0.20346855175E+01  0.17258682839E+03  0.00000000000E+00 0. -1.
         -2    1    6    6    0  503 -0.28085749723E+03  0.31894696733E+03 -0.96496720681E+01  0.42508965865E+03  0.00000000000E+00 0.  1.
<mgrwt>
<rscale>  0 0.16107886E+04</rscale>
<asrwt>0</asrwt>
<pdfrwt beam="1">  1        1 0.21527318E+00 0.16107886E+04</pdfrwt>
<pdfrwt beam="2">  1       -2 0.71318218E-01 0.16107886E+04</pdfrwt>
<totfact> 0.11544891E+01</totfact>
</mgrwt>
</event>
<event>
12    4  0.4413110E-008  0.2808074E+04  0.7818608E-02  0.8300766E-01
          1   -1    0    0  501    0  0.00000000000E+00  0.00000000000E+00  0.14843752921E+04  0.14843752921E+04  0.00000000000E+00 0. -1.
         -2   -1    0    0    0  501 -0.00000000000E+00 -0.00000000000E+00 -0.13280469560E+04  0.13280469560E+04  0.00000000000E+00 0.  1.
        -24    2    1    2    0    0  0.51568085105E+03 -0.81020963058E+03  0.88734148302E+03  0.13099812132E+04  0.79432271410E+02 0.  0.
        254    2    1    2    0    0 -0.51568085105E+03  0.81020963058E+03 -0.73101314687E+03  0.15024410349E+04  0.89475273506E+03 0.  0.
         23    2    4    4    0    0 -0.29694257357E+03 -0.13090716850E+03 -0.13729753287E+03  0.36474248515E+03  0.94206630218E+02 0.  0.
         23    2    4    4    0    0 -0.21873827748E+03  0.94111679907E+03 -0.59371561400E+03  0.11376985498E+04  0.91172892350E+02 0.  0.
          1    1    3    3  502    0  0.35472833217E+03 -0.54967219004E+03  0.65336148900E+03  0.92458257688E+03  0.00000000000E+00 0. -1.
         -2    1    3    3    0  502  0.16095251888E+03 -0.26053744053E+03  0.23397999401E+03  0.38539863629E+03  0.00000000000E+00 0.  1.
         11    1    5    5    0    0 -0.23221676486E+03 -0.13482901308E+03 -0.13326772537E+03  0.29977287282E+03  0.00000000000E+00 0.  1.
        -11    1    5    5    0    0 -0.64725808710E+02  0.39218445816E+01 -0.40298074961E+01  0.64969612332E+02  0.00000000000E+00 0. -1.
          1    1    6    6  503    0 -0.28387188009E+02  0.38507676735E+02 -0.24472931624E+02  0.53736374951E+02  0.00000000000E+00 0. -1.
         -1    1    6    6    0  503 -0.19035108947E+03  0.90260912234E+03 -0.56924268238E+03  0.10839621748E+04  0.00000000000E+00 0.  1.
<mgrwt>
<rscale>  0 0.28080741E+04</rscale>
<asrwt>0</asrwt>
<pdfrwt beam="1">  1        1 0.22836543E+00 0.28080741E+04</pdfrwt>
<pdfrwt beam="2">  1       -2 0.20431492E+00 0.28080741E+04</pdfrwt>
<totfact> 0.63511527E-01</totfact>
</mgrwt>
</event>
<event>
12    4  0.4413110E-008  0.1932069E+04  0.7818608E-02  0.8639056E-01
          1   -1    0    0  501    0  0.00000000000E+00  0.00000000000E+00  0.24502120400E+04  0.24502120400E+04  0.00000000000E+00 0. -1.
         -2   -1    0    0    0  501 -0.00000000000E+00 -0.00000000000E+00 -0.38087424986E+03  0.38087424986E+03  0.00000000000E+00 0.  1.
        -24    2    1    2    0    0  0.57150464215E+03 -0.32360337601E+03  0.26333093747E+03  0.71207959198E+03  0.79859011546E+02 0.  0.
        254    2    1    2    0    0 -0.57150464215E+03  0.32360337601E+03  0.18060068527E+04  0.21190066979E+04  0.89285605379E+03 0.  0.
         23    2    4    4    0    0 -0.16820062176E+02 -0.24968488217E+03  0.23495660280E+03  0.35469129826E+03  0.89307653556E+02 0.  0.
         23    2    4    4    0    0 -0.55468457997E+03  0.57328825818E+03  0.15710502499E+04  0.17643153996E+04  0.90969948223E+02 0.  0.
          1    1    3    3  502    0  0.45332353650E+02 -0.25710907327E+02 -0.11282839570E+01  0.52128169618E+02  0.00000000000E+00 0. -1.
         -4    1    3    3    0  502  0.52617228850E+03 -0.29789246868E+03  0.26445922142E+03  0.65995142236E+03  0.00000000000E+00 0.  1.
         11    1    5    5    0    0 -0.31168907634E+01 -0.18629597284E+03  0.21969689376E+03  0.28806705753E+03  0.00000000000E+00 0. -1.
        -11    1    5    5    0    0 -0.13703171413E+02 -0.63388909335E+02  0.15259709044E+02  0.66624240736E+02  0.00000000000E+00 0.  1.
          3    1    6    6  503    0 -0.42511164562E+03  0.48982266132E+03  0.12836872493E+04  0.14382277653E+04  0.00000000000E+00 0. -1.
         -3    1    6    6    0  503 -0.12957293434E+03  0.83465596859E+02  0.28736300057E+03  0.32608763434E+03  0.00000000000E+00 0.  1.
<mgrwt>
<rscale>  0 0.19320690E+04</rscale>
<asrwt>0</asrwt>
<pdfrwt beam="1">  1        1 0.37695569E+00 0.19320690E+04</pdfrwt>
<pdfrwt beam="2">  1       -2 0.58596040E-01 0.19320690E+04</pdfrwt>
<totfact> 0.32750131E+00</totfact>
</mgrwt>
</event>
<event>
12    4  0.4413110E-008  0.2865894E+04  0.7818608E-02  0.8283098E-01
         -2   -1    0    0    0  501 -0.00000000000E+00  0.00000000000E+00  0.84350032412E+03  0.84350032412E+03  0.00000000000E+00 0.  1.
          1   -1    0    0  501    0  0.00000000000E+00 -0.00000000000E+00 -0.24343042728E+04  0.24343042728E+04  0.00000000000E+00 0. -1.
        -24    2    1    2    0    0 -0.36726311430E+03  0.59644869119E+03 -0.19466392699E+04  0.20703567364E+04  0.79619923363E+02 0.  0.
        254    2    1    2    0    0  0.36726311430E+03 -0.59644869119E+03  0.35583532126E+03  0.12074478606E+04  0.91688512026E+03 0.  0.
         23    2    4    4    0    0  0.48834134766E+03 -0.32862972447E+03  0.57615844917E+03  0.82869798477E+03  0.91142875566E+02 0.  0.
         23    2    4    4    0    0 -0.12107823336E+03 -0.26781896672E+03 -0.22032312791E+03  0.37874987579E+03  0.92316034277E+02 0.  0.
          1    1    3    3  502    0 -0.33438112545E+03  0.49408813665E+03 -0.16843450738E+04  0.17868833625E+04  0.00000000000E+00 0. -1.
         -2    1    3    3    0  502 -0.32881988848E+02  0.10236055454E+03 -0.26229419616E+03  0.28347337381E+03  0.00000000000E+00 0.  1.
         11    1    5    5    0    0  0.78186106418E+02 -0.80452900566E+02  0.73685107622E+02  0.13422083121E+03  0.00000000000E+00 0.  1.
        -11    1    5    5    0    0  0.41015524124E+03 -0.24817682391E+03  0.50247334155E+03  0.69447715355E+03  0.00000000000E+00 0. -1.
          3    1    6    6  503    0 -0.12804415281E+03 -0.21232674851E+03 -0.15352438511E+03  0.29162937099E+03  0.00000000000E+00 0. -1.
         -3    1    6    6    0  503  0.69659194486E+01 -0.55492218216E+02 -0.66798742796E+02  0.87120504793E+02  0.00000000000E+00 0.  1.
<mgrwt>
<rscale>  0 0.28658935E+04</rscale>
<asrwt>0</asrwt>
<pdfrwt beam="1">  1        1 0.37450835E+00 0.28658935E+04</pdfrwt>
<pdfrwt beam="2">  1       -2 0.12976928E+00 0.28658935E+04</pdfrwt>
<totfact> 0.49680217E-01</totfact>
</mgrwt>
</event>
<event>
12    4  0.4413110E-008  0.2187345E+04  0.7818608E-02  0.8523714E-01
          1   -1    0    0  501    0  0.00000000000E+00  0.00000000000E+00  0.12734122475E+04  0.12734122475E+04  0.00000000000E+00 0. -1.
         -2   -1    0    0    0  501 -0.00000000000E+00 -0.00000000000E+00 -0.93930306115E+03  0.93930306115E+03  0.00000000000E+00 0.  1.
        -24    2    1    2    0    0 -0.38481875707E+03 -0.29728755312E+03 -0.63580500286E+03  0.80442201910E+03  0.79883778762E+02 0.  0.
        254    2    1    2    0    0  0.38481875707E+03  0.29728755312E+03  0.96991418924E+03  0.14082932896E+04  0.89782575702E+03 0.  0.
         23    2    4    4    0    0  0.44055514092E+03  0.59742833944E+02  0.10423877254E+04  0.11373280728E+04  0.96358377333E+02 0.  0.
         23    2    4    4    0    0 -0.55736383849E+02  0.23754471917E+03 -0.72473536128E+02  0.27096521674E+03  0.92928451802E+02 0.  0.
          3    1    3    3  502    0 -0.11150360994E+03 -0.99798746222E+02 -0.14073004836E+03  0.20542100986E+03  0.00000000000E+00 0. -1.
         -4    1    3    3    0  502 -0.27331514713E+03 -0.19748880689E+03 -0.49507495450E+03  0.59900100924E+03  0.00000000000E+00 0.  1.
         11    1    5    5    0    0  0.13668269850E+02  0.22458318006E+02  0.66241426887E+02  0.71267975167E+02  0.00000000000E+00 0.  1.
        -11    1    5    5    0    0  0.42688687107E+03  0.37284515937E+02  0.97614629848E+03  0.10660600977E+04  0.00000000000E+00 0. -1.
          4    1    6    6  503    0 -0.57176979789E+02  0.21114174220E+03 -0.29805090205E+02  0.22076771892E+03  0.00000000000E+00 0. -1.
         -4    1    6    6    0  503  0.14405959398E+01  0.26402976971E+02 -0.42668445923E+02  0.50197497818E+02  0.00000000000E+00 0.  1.
<mgrwt>
<rscale>  0 0.21873454E+04</rscale>
<asrwt>0</asrwt>
<pdfrwt beam="1">  1        1 0.19590958E+00 0.21873454E+04</pdfrwt>
<pdfrwt beam="2">  1       -2 0.14450816E+00 0.21873454E+04</pdfrwt>
<totfact> 0.25027391E+00</totfact>
</mgrwt>
</event>
<event>
12    4  0.4413110E-008  0.2372514E+04  0.7818608E-02  0.8449866E-01
          1   -1    0    0  501    0  0.00000000000E+00  0.00000000000E+00  0.17734532037E+04  0.17734532037E+04  0.00000000000E+00 0. -1.
         -2   -1    0    0    0  501 -0.00000000000E+00 -0.00000000000E+00 -0.79348369612E+03  0.79348369612E+03  0.00000000000E+00 0.  1.
        -24    2    1    2    0    0  0.83131890113E+03 -0.40995713403E+03  0.86846297769E+03  0.12727087379E+04  0.80022627256E+02 0.  0.
        254    2    1    2    0    0 -0.83131890113E+03  0.40995713403E+03  0.11150652985E+03  0.12942281619E+04  0.89634639600E+03 0.  0.
         23    2    4    4    0    0 -0.11649454739E+03 -0.16770660033E+03 -0.21923815440E+03  0.31309641786E+03  0.90925877332E+02 0.  0.
         23    2    4    4    0    0 -0.71482435374E+03  0.57766373436E+03  0.33074468424E+03  0.98113174399E+03  0.92510573556E+02 0.  0.
          1    1    3    3  502    0  0.71434517600E+03 -0.37116972486E+03  0.72266194898E+03  0.10818023330E+04  0.00000000000E+00 0. -1.
         -2    1    3    3    0  502  0.11697372513E+03 -0.38787409175E+02  0.14580102871E+03  0.19090640496E+03  0.00000000000E+00 0.  1.
         11    1    5    5    0    0 -0.31421032187E+02 -0.12193396644E+03 -0.10924078685E+03  0.16669949894E+03  0.00000000000E+00 0. -1.
        -11    1    5    5    0    0 -0.85073515200E+02 -0.45772633887E+02 -0.10999736755E+03  0.14639691892E+03  0.00000000000E+00 0.  1.
          3    1    6    6  503    0 -0.42442180537E+03  0.32191222536E+03  0.23663218738E+03  0.58288604530E+03  0.00000000000E+00 0. -1.
         -3    1    6    6    0  503 -0.29040254837E+03  0.25575150900E+03  0.94112496868E+02  0.39824569869E+03  0.00000000000E+00 0.  1.
<mgrwt>
<rscale>  0 0.23725144E+04</rscale>
<asrwt>0</asrwt>
<pdfrwt beam="1">  1        1 0.27283895E+00 0.23725144E+04</pdfrwt>
<pdfrwt beam="2">  1       -2 0.12207441E+00 0.23725144E+04</pdfrwt>
<totfact> 0.17049548E+00</totfact>
</mgrwt>
</event>
<event>
12    4  0.4413110E-008  0.2034791E+04  0.7818608E-02  0.8590525E-01
          1   -1    0    0  501    0  0.00000000000E+00  0.00000000000E+00  0.13328932782E+04  0.13328932782E+04  0.00000000000E+00 0. -1.
         -2   -1    0    0    0  501 -0.00000000000E+00 -0.00000000000E+00 -0.77657625053E+03  0.77657625053E+03  0.00000000000E+00 0.  1.
        -24    2    1    2    0    0  0.30974679472E+03 -0.73810686400E+03  0.72666368620E+02  0.80764422181E+03  0.79145235918E+02 0.  0.
        254    2    1    2    0    0 -0.30974679472E+03  0.73810686400E+03  0.48365065906E+03  0.13018253069E+04  0.90558619151E+03 0.  0.
         23    2    4    4    0    0 -0.15085690734E+03  0.50193674421E+03  0.73707556916E+03  0.90964773150E+03  0.97366827445E+02 0.  0.
         23    2    4    4    0    0 -0.15888988738E+03  0.23617011979E+03 -0.25342491011E+03  0.39217757544E+03  0.92502669251E+02 0.  0.
          1    1    3    3  502    0 -0.42978391056E+01 -0.18474169098E+02 -0.11986126018E+01  0.19005341802E+02  0.00000000000E+00 0. -1.
         -4    1    3    3    0  502  0.31404463382E+03 -0.71963269490E+03  0.73864981221E+02  0.78863888001E+03  0.00000000000E+00 0.  1.
         11    1    5    5    0    0 -0.76716250312E+02  0.38911650892E+03  0.57836534021E+03  0.70128703634E+03  0.00000000000E+00 0. -1.
        -11    1    5    5    0    0 -0.74140657025E+02  0.11282023529E+03  0.15871022895E+03  0.20836069516E+03  0.00000000000E+00 0.  1.
          3    1    6    6  503    0 -0.11161789196E+03  0.19901296131E+03 -0.15167253191E+03  0.27398771781E+03  0.00000000000E+00 0. -1.
         -3    1    6    6    0  503 -0.47271995419E+02  0.37157158485E+02 -0.10175237820E+03  0.11818985763E+03  0.00000000000E+00 0.  1.
<mgrwt>
<rscale>  0 0.20347907E+04</rscale>
<asrwt>0</asrwt>
<pdfrwt beam="1">  1        1 0.20506050E+00 0.20347907E+04</pdfrwt>
<pdfrwt beam="2">  1       -2 0.11947327E+00 0.20347907E+04</pdfrwt>
<totfact> 0.37338260E+00</totfact>
</mgrwt>
</event>
<event>
12    4  0.4413110E-008  0.1372608E+04  0.7818608E-02  0.8973889E-01
          1   -1    0    0  501    0  0.00000000000E+00  0.00000000000E+00  0.34031445817E+03  0.34031445817E+03  0.00000000000E+00 0. -1.
         -2   -1    0    0    0  501 -0.00000000000E+00 -0.00000000000E+00 -0.13840518229E+04  0.13840518229E+04  0.00000000000E+00 0.  1.
        -24    2    1    2    0    0  0.15668894592E+03  0.25503404175E+03 -0.77995217056E+01  0.30966773130E+03  0.78990398407E+02 0.  0.
        254    2    1    2    0    0 -0.15668894592E+03 -0.25503404175E+03 -0.10359378431E+04  0.14146985498E+04  0.91575705506E+03 0.  0.
         23    2    4    4    0    0 -0.10762877019E+02  0.19186361206E+02 -0.10831687951E+04  0.10871615973E+04  0.90452992452E+02 0.  0.
         23    2    4    4    0    0 -0.14592606890E+03 -0.27422040296E+03  0.47230952065E+02  0.32753695254E+03  0.92511866598E+02 0.  0.
          3    1    3    3  502    0  0.84586308372E+02  0.96963740798E+02  0.29405316982E+02  0.13199046655E+03  0.00000000000E+00 0. -1.
         -4    1    3    3    0  502  0.72102637551E+02  0.15807030096E+03 -0.37204838687E+02  0.17767726475E+03  0.00000000000E+00 0.  1.
         11    1    5    5    0    0 -0.39210085936E+02  0.20590063679E+02 -0.94754376461E+03  0.94857818203E+03  0.00000000000E+00 0. -1.
        -11    1    5    5    0    0  0.28447208917E+02 -0.14037024736E+01 -0.13562503052E+03  0.13858341524E+03  0.00000000000E+00 0.  1.
          1    1    6    6  503    0 -0.50859364577E+02 -0.65075377152E+02  0.52272708716E+02  0.97744134111E+02  0.00000000000E+00 0. -1.
         -1    1    6    6    0  503 -0.95066704326E+02 -0.20914502581E+03 -0.50417566502E+01  0.22979281843E+03  0.00000000000E+00 0.  1.
<mgrwt>
<rscale>  0 0.13726075E+04</rscale>
<asrwt>0</asrwt>
<pdfrwt beam="1">  1        1 0.52356070E-01 0.13726075E+04</pdfrwt>
<pdfrwt beam="2">  1       -2 0.21293105E+00 0.13726075E+04</pdfrwt>
<totfact> 0.69502243E+00</totfact>
</mgrwt>
</event>
<event>
12    4  0.4413110E-008  0.1514040E+04  0.7818608E-02  0.8875170E-01
          1   -1    0    0  501    0  0.00000000000E+00  0.00000000000E+00  0.93595669336E+03  0.93595669336E+03  0.00000000000E+00 0. -1.
         -2   -1    0    0    0  501 -0.00000000000E+00 -0.00000000000E+00 -0.61229224422E+03  0.61229224422E+03  0.00000000000E+00 0.  1.
        -24    2    1    2    0    0 -0.20078363291E+03  0.38687738281E+03 -0.53324618218E+02  0.44636506547E+03  0.80062976357E+02 0.  0.
        254    2    1    2    0    0  0.20078363291E+03 -0.38687738281E+03  0.37698906736E+03  0.11018838721E+04  0.93916938522E+03 0.  0.
         23    2    4    4    0    0  0.13660171577E+03 -0.52831050410E+03  0.60003116054E+03  0.81605970749E+03  0.90244307738E+02 0.  0.
         23    2    4    4    0    0  0.64181917140E+02  0.14143312129E+03 -0.22304209318E+03  0.28582416462E+03  0.88459207926E+02 0.  0.
          1    1    3    3  502    0 -0.20963063479E+02  0.38866520756E+02 -0.31100521888E+02  0.54012025770E+02  0.00000000000E+00 0. -1.
         -2    1    3    3    0  502 -0.17982056943E+03  0.34801086206E+03 -0.22224096330E+02  0.39235303970E+03  0.00000000000E+00 0.  1.
         11    1    5    5    0    0  0.49248543524E+02 -0.27158707346E+03  0.36206156214E+03  0.45527303048E+03  0.00000000000E+00 0.  1.
        -11    1    5    5    0    0  0.87353172247E+02 -0.25672343064E+03  0.23796959840E+03  0.36078667701E+03  0.00000000000E+00 0. -1.
          2    1    6    6  503    0  0.15909133602E+02  0.18200286474E+02  0.25155731577E+01  0.24303889977E+02  0.00000000000E+00 0. -1.
         -2    1    6    6    0  503  0.48272783538E+02  0.12323283481E+03 -0.22555766634E+03  0.26152027465E+03  0.00000000000E+00 0.  1.
<mgrwt>
<rscale>  0 0.15140397E+04</rscale>
<asrwt>0</asrwt>
<pdfrwt beam="1">  1        1 0.14399334E+00 0.15140397E+04</pdfrwt>
<pdfrwt beam="2">  1       -2 0.94198808E-01 0.15140397E+04</pdfrwt>
<totfact> 0.13696178E+01</totfact>
</mgrwt>
</event>
<event>
12    4  0.4413110E-008  0.1673517E+04  0.7818608E-02  0.8776614E-01
         -2   -1    0    0    0  501 -0.00000000000E+00  0.00000000000E+00  0.13590888991E+04  0.13590888991E+04  0.00000000000E+00 0.  1.
          1   -1    0    0  501    0  0.00000000000E+00 -0.00000000000E+00 -0.51517221071E+03  0.51517221071E+03  0.00000000000E+00 0. -1.
        -24    2    1    2    0    0  0.16681655967E+03 -0.82268873901E+02  0.92440086108E+03  0.94626065843E+03  0.79349540304E+02 0.  0.
        254    2    1    2    0    0 -0.16681655967E+03  0.82268873901E+02 -0.80484172717E+02  0.92800045135E+03  0.90559991357E+03 0.  0.
         23    2    4    4    0    0 -0.36287096009E+02 -0.58211294601E+02 -0.47107841490E+03  0.48332519721E+03  0.83564736069E+02 0.  0.
         23    2    4    4    0    0 -0.13052946366E+03  0.14048016850E+03  0.39059424218E+03  0.44467525415E+03  0.91649337128E+02 0.  0.
          3    1    3    3  502    0  0.10126668185E+03 -0.87755456549E+02  0.54727490473E+03  0.56344101941E+03  0.00000000000E+00 0. -1.
         -4    1    3    3    0  502  0.65549877828E+02  0.54865826480E+01  0.37712595635E+03  0.38281963902E+03  0.00000000000E+00 0.  1.
         11    1    5    5    0    0 -0.36238177941E+02 -0.63465336271E+02 -0.21291896592E+03  0.22511228420E+03  0.00000000000E+00 0.  1.
        -11    1    5    5    0    0 -0.48918068043E-01  0.52540416693E+01 -0.25815944898E+03  0.25821291300E+03  0.00000000000E+00 0. -1.
          3    1    6    6  503    0 -0.13548982799E+03  0.92363961973E+02  0.30929621836E+03  0.35007534282E+03  0.00000000000E+00 0. -1.
         -3    1    6    6    0  503  0.49603643248E+01  0.48116206529E+02  0.81298023826E+02  0.94599911326E+02  0.00000000000E+00 0.  1.
<mgrwt>
<rscale>  0 0.16735171E+04</rscale>
<asrwt>0</asrwt>
<pdfrwt beam="1">  1        1 0.79257264E-01 0.16735171E+04</pdfrwt>
<pdfrwt beam="2">  1       -2 0.20909060E+00 0.16735171E+04</pdfrwt>
<totfact> 0.41146387E+00</totfact>
</mgrwt>
</event>
<event>
12    4  0.4413110E-008  0.1412083E+04  0.7818608E-02  0.8945118E-01
          1   -1    0    0  501    0  0.00000000000E+00  0.00000000000E+00  0.54568761907E+03  0.54568761907E+03  0.00000000000E+00 0. -1.
         -2   -1    0    0    0  501 -0.00000000000E+00 -0.00000000000E+00 -0.91351657206E+03  0.91351657206E+03  0.00000000000E+00 0.  1.
        -24    2    1    2    0    0 -0.71487984223E+02 -0.18141024098E+03 -0.48852762470E+03  0.53156407490E+03  0.76687145059E+02 0.  0.
        254    2    1    2    0    0  0.71487984223E+02  0.18141024098E+03  0.12069867171E+03  0.92764011623E+03  0.89884804526E+03 0.  0.
         23    2    4    4    0    0 -0.22277149779E+03  0.30679059495E+03 -0.22317168790E+03  0.44954801999E+03  0.92413259936E+02 0.  0.
         23    2    4    4    0    0  0.29425948201E+03 -0.12538035397E+03  0.34387035961E+03  0.47809209624E+03  0.89534084878E+02 0.  0.
          1    1    3    3  502    0  0.14164473048E+02 -0.12277046395E+02 -0.29815177044E+02  0.35217935020E+02  0.00000000000E+00 0. -1.
         -2    1    3    3    0  502 -0.85652457271E+02 -0.16913319459E+03 -0.45871244765E+03  0.49634613989E+03  0.00000000000E+00 0.  1.
         11    1    5    5    0    0 -0.56368619109E+02  0.15526884248E+03 -0.93502105748E+02  0.18981169206E+03  0.00000000000E+00 0. -1.
        -11    1    5    5    0    0 -0.16640287868E+03  0.15152175248E+03 -0.12966958216E+03  0.25973632792E+03  0.00000000000E+00 0.  1.
          2    1    6    6  503    0  0.23417216224E+03 -0.12812503943E+03  0.24477691114E+03  0.36217173209E+03  0.00000000000E+00 0. -1.
         -2    1    6    6    0  503  0.60087319776E+02  0.27446854596E+01  0.99093448473E+02  0.11592036416E+03  0.00000000000E+00 0.  1.
<mgrwt>
<rscale>  0 0.14120831E+04</rscale>
<asrwt>0</asrwt>
<pdfrwt beam="1">  1        1 0.83951942E-01 0.14120831E+04</pdfrwt>
<pdfrwt beam="2">  1       -2 0.14054101E+00 0.14120831E+04</pdfrwt>
<totfact> 0.11877753E+01</totfact>
</mgrwt>
</event>
<event>
12    4  0.4413110E-008  0.2540056E+04  0.7818608E-02  0.8388853E-01
         -2   -1    0    0    0  501 -0.00000000000E+00  0.00000000000E+00  0.22842376181E+04  0.22842376181E+04  0.00000000000E+00 0.  1.
          1   -1    0    0  501    0  0.00000000000E+00 -0.00000000000E+00 -0.70613092403E+03  0.70613092403E+03  0.00000000000E+00 0. -1.
        -24    2    1    2    0    0  0.88864368358E+01  0.31732421636E+03  0.19454404101E+04  0.19740736034E+04  0.10702605034E+03 0.  0.
        254    2    1    2    0    0 -0.88864368358E+01 -0.31732421636E+03 -0.36733371594E+03  0.10162949388E+04  0.89283129241E+03 0.  0.
         23    2    4    4    0    0  0.94214223466E+02 -0.50419921569E+03  0.65275230527E+02  0.52516373614E+03  0.91885390719E+02 0.  0.
         23    2    4    4    0    0 -0.10310066030E+03  0.18687499933E+03 -0.43260894647E+03  0.49113120266E+03  0.92235275957E+02 0.  0.
          3    1    3    3  502    0 -0.47330813318E+02  0.10481570705E+03  0.63787225995E+03  0.64815704759E+03  0.00000000000E+00 0. -1.
         -4    1    3    3    0  502  0.56217250154E+02  0.21250850931E+03  0.13075681501E+04  0.13259165558E+04  0.00000000000E+00 0.  1.
         11    1    5    5    0    0  0.21922010943E+02 -0.39285104777E+02 -0.15893246857E+02  0.47712569798E+02  0.00000000000E+00 0.  1.
        -11    1    5    5    0    0  0.72292212524E+02 -0.46491411091E+03  0.81168477384E+02  0.47745116634E+03  0.00000000000E+00 0. -1.
          1    1    6    6  503    0 -0.12740984197E+02  0.11851497442E+03 -0.22033347927E+03  0.25050942881E+03  0.00000000000E+00 0. -1.
         -1    1    6    6    0  503 -0.90359676105E+02  0.68360024914E+02 -0.21227546720E+03  0.24062177384E+03  0.00000000000E+00 0.  1.
<mgrwt>
<rscale>  0 0.25400558E+04</rscale>
<asrwt>0</asrwt>
<pdfrwt beam="1">  1        1 0.10863553E+00 0.25400558E+04</pdfrwt>
<pdfrwt beam="2">  1       -2 0.35142117E+00 0.25400558E+04</pdfrwt>
<totfact> 0.31811793E-01</totfact>
</mgrwt>
</event>
<event>
12    4  0.4413110E-008  0.1574823E+04  0.7818608E-02  0.8836166E-01
          1   -1    0    0  501    0  0.00000000000E+00  0.00000000000E+00  0.78495913785E+03  0.78495913785E+03  0.00000000000E+00 0. -1.
         -2   -1    0    0    0  501 -0.00000000000E+00 -0.00000000000E+00 -0.78987146700E+03  0.78987146700E+03  0.00000000000E+00 0.  1.
        -24    2    1    2    0    0  0.63221688209E+02  0.32783748393E+03 -0.41410673423E+03  0.53800202457E+03  0.80544356612E+02 0.  0.
        254    2    1    2    0    0 -0.63221688209E+02 -0.32783748393E+03  0.40919440507E+03  0.10368285803E+04  0.89224382655E+03 0.  0.
         23    2    4    4    0    0 -0.36867498579E+03 -0.32826078892E+03  0.49709316772E+03  0.70639534856E+03  0.90644251817E+02 0.  0.
         23    2    4    4    0    0  0.30545329758E+03  0.42330499145E+00 -0.87898762648E+02  0.33043323172E+03  0.90321824403E+02 0.  0.
          1    1    3    3  502    0  0.25354628474E+02  0.27830478402E+03 -0.31690683668E+03  0.42252379001E+03  0.00000000000E+00 0. -1.
         -2    1    3    3    0  502  0.37867059735E+02  0.49532699908E+02 -0.97199897550E+02  0.11547823456E+03  0.00000000000E+00 0.  1.
         11    1    5    5    0    0 -0.13503386300E+03 -0.18024350117E+03  0.22986289173E+03  0.32180555132E+03  0.00000000000E+00 0. -1.
        -11    1    5    5    0    0 -0.23364112279E+03 -0.14801728775E+03  0.26723027599E+03  0.38458979723E+03  0.00000000000E+00 0.  1.
          3    1    6    6  503    0  0.31090649682E+03  0.24162417709E+01 -0.90854028825E+02  0.32391841958E+03  0.00000000000E+00 0. -1.
         -3    1    6    6    0  503 -0.54531992463E+01 -0.19929367795E+01  0.29552661775E+01  0.65148121391E+01  0.00000000000E+00 0.  1.
<mgrwt>
<rscale>  0 0.15748229E+04</rscale>
<asrwt>0</asrwt>
<pdfrwt beam="1">  1        1 0.12076295E+00 0.15748229E+04</pdfrwt>
<pdfrwt beam="2">  1       -2 0.12151869E+00 0.15748229E+04</pdfrwt>
<totfact> 0.98769835E+00</totfact>
</mgrwt>
</event>
<event>
12    4  0.4413110E-008  0.1470088E+04  0.7818608E-02  0.8904591E-01
          1   -1    0    0  501    0  0.00000000000E+00  0.00000000000E+00  0.83509306505E+03  0.83509306505E+03  0.00000000000E+00 0. -1.
         -2   -1    0    0    0  501 -0.00000000000E+00 -0.00000000000E+00 -0.64698131756E+03  0.64698131756E+03  0.00000000000E+00 0.  1.
        -24    2    1    2    0    0  0.89939173353E+01 -0.36053512391E+03 -0.22058966492E+03  0.43049369906E+03  0.81231512022E+02 0.  0.
        254    2    1    2    0    0 -0.89939173353E+01  0.36053512391E+03  0.40870141241E+03  0.10515806836E+04  0.89928784235E+03 0.  0.
         23    2    4    4    0    0  0.16883750844E+03  0.53608339547E+03  0.51248031680E+03  0.76617101980E+03  0.92143612440E+02 0.  0.
         23    2    4    4    0    0 -0.17783142578E+03 -0.17554827156E+03 -0.10377890439E+03  0.28540966376E+03  0.90815216388E+02 0.  0.
          3    1    3    3  502    0  0.12675434097E+02 -0.89788747431E+02 -0.18312430020E+02  0.92509625921E+02  0.00000000000E+00 0. -1.
         -4    1    3    3    0  502 -0.36815167620E+01 -0.27074637648E+03 -0.20227723490E+03  0.33798407314E+03  0.00000000000E+00 0.  1.
         11    1    5    5    0    0  0.13806115475E+03  0.28741035497E+03  0.27899509180E+03  0.42367895374E+03  0.00000000000E+00 0. -1.
        -11    1    5    5    0    0  0.30776353695E+02  0.24867304050E+03  0.23348522500E+03  0.34249206605E+03  0.00000000000E+00 0.  1.
          4    1    6    6  503    0 -0.14890699437E+01 -0.10179759429E+02 -0.31421269787E+02  0.33062683290E+02  0.00000000000E+00 0.  1.
         -4    1    6    6    0  503 -0.17634235583E+03 -0.16536851213E+03 -0.72357634606E+02  0.25234698047E+03  0.00000000000E+00 0. -1.
<mgrwt>
<rscale>  0 0.14700879E+04</rscale>
<asrwt>0</asrwt>
<pdfrwt beam="1">  1        1 0.12847586E+00 0.14700879E+04</pdfrwt>
<pdfrwt beam="2">  1       -2 0.99535588E-01 0.14700879E+04</pdfrwt>
<totfact> 0.14631568E+01</totfact>
</mgrwt>
</event>
<event>
12    4  0.4413110E-008  0.1828562E+04  0.7818608E-02  0.8691257E-01
         -2   -1    0    0    0  501 -0.00000000000E+00  0.00000000000E+00  0.42077050249E+03  0.42077050249E+03  0.00000000000E+00 0.  1.
          1   -1    0    0  501    0  0.00000000000E+00 -0.00000000000E+00 -0.19866158209E+04  0.19866158209E+04  0.00000000000E+00 0. -1.
        -24    2    1    2    0    0 -0.32642273816E+03 -0.52980052411E+03 -0.97303026478E+03  0.11579063505E+04  0.81968414294E+02 0.  0.
        254    2    1    2    0    0  0.32642273816E+03  0.52980052411E+03 -0.59281505366E+03  0.12494799729E+04  0.90693446049E+03 0.  0.
         23    2    4    4    0    0  0.24586996338E+03  0.77940841644E+03 -0.43791116154E+03  0.93163309718E+03  0.90799360434E+02 0.  0.
         23    2    4    4    0    0  0.80552774772E+02 -0.24960789233E+03 -0.15490389212E+03  0.31784687577E+03  0.90766575370E+02 0.  0.
          1    1    3    3  502    0 -0.47129054647E+02 -0.69051564792E+02 -0.18819800837E+03  0.20593143701E+03  0.00000000000E+00 0. -1.
         -2    1    3    3    0  502 -0.27929368351E+03 -0.46074895932E+03 -0.78483225641E+03  0.95197491346E+03  0.00000000000E+00 0.  1.
         11    1    5    5    0    0  0.19032766220E+03  0.46196203329E+03 -0.28027224375E+03  0.57287526550E+03  0.00000000000E+00 0.  1.
        -11    1    5    5    0    0  0.55542301187E+02  0.31744638315E+03 -0.15763891778E+03  0.35875783169E+03  0.00000000000E+00 0. -1.
          3    1    6    6  503    0 -0.90720147042E+01 -0.13925712522E+02  0.71719988932E+01  0.18101505135E+02  0.00000000000E+00 0. -1.
         -3    1    6    6    0  503  0.89624789476E+02 -0.23568217980E+03 -0.16207589102E+03  0.29974537063E+03  0.00000000000E+00 0.  1.
<mgrwt>
<rscale>  0 0.18285616E+04</rscale>
<asrwt>0</asrwt>
<pdfrwt beam="1">  1        1 0.30563321E+00 0.18285616E+04</pdfrwt>
<pdfrwt beam="2">  1       -2 0.64733922E-01 0.18285616E+04</pdfrwt>
<totfact> 0.55400881E+00</totfact>
</mgrwt>
</event>
<event>
12    4  0.4413110E-008  0.2349750E+04  0.7818608E-02  0.8458560E-01
          1   -1    0    0  501    0  0.00000000000E+00  0.00000000000E+00  0.16488092632E+04  0.16488092632E+04  0.00000000000E+00 0. -1.
         -2   -1    0    0    0  501 -0.00000000000E+00 -0.00000000000E+00 -0.83716829795E+03  0.83716829795E+03  0.00000000000E+00 0.  1.
        -24    2    1    2    0    0  0.42477394245E+02 -0.17355675761E+02  0.14045678938E+04  0.14076750398E+04  0.81440167751E+02 0.  0.
        254    2    1    2    0    0 -0.42477394245E+02  0.17355675761E+02 -0.59292692848E+03  0.10783025214E+04  0.89948231590E+03 0.  0.
         23    2    4    4    0    0  0.41340060331E+03 -0.57618867357E+02 -0.32134147536E+03  0.53466838981E+03  0.91596673405E+02 0.  0.
         23    2    4    4    0    0 -0.45587799756E+03  0.74974543118E+02 -0.27158545313E+03  0.54363413159E+03  0.91287895696E+02 0.  0.
          1    1    3    3  502    0  0.48809628584E+02 -0.95280829178E+01  0.13827731715E+04  0.13836671594E+04  0.00000000000E+00 0. -1.
         -2    1    3    3    0  502 -0.63322343385E+01 -0.78275928432E+01  0.21794722287E+02  0.24007880394E+02  0.00000000000E+00 0.  1.
         11    1    5    5    0    0  0.27696949456E+02  0.86606697965E+01 -0.52113140174E+02  0.59648198541E+02  0.00000000000E+00 0.  1.
        -11    1    5    5    0    0  0.38570365386E+03 -0.66279537153E+02 -0.26922833518E+03  0.47502019127E+03  0.00000000000E+00 0. -1.
          1    1    6    6  503    0 -0.24748792805E+03  0.25368779232E+02 -0.19515311404E+03  0.31619390793E+03  0.00000000000E+00 0. -1.
         -1    1    6    6    0  503 -0.20839006950E+03  0.49605763886E+02 -0.76432339090E+02  0.22744022366E+03  0.00000000000E+00 0.  1.
<mgrwt>
<rscale>  0 0.23497496E+04</rscale>
<asrwt>0</asrwt>
<pdfrwt beam="1">  1        1 0.25366296E+00 0.23497496E+04</pdfrwt>
<pdfrwt beam="2">  1       -2 0.12879512E+00 0.23497496E+04</pdfrwt>
<totfact> 0.18157329E+00</totfact>
</mgrwt>
</event>
<event>
12    4  0.4413110E-008  0.1400629E+04  0.7818608E-02  0.8953364E-01
         -2   -1    0    0    0  501 -0.00000000000E+00  0.00000000000E+00  0.63778513724E+03  0.63778513724E+03  0.00000000000E+00 0.  1.
          1   -1    0    0  501    0  0.00000000000E+00 -0.00000000000E+00 -0.76897394032E+03  0.76897394032E+03  0.00000000000E+00 0. -1.
        -24    2    1    2    0    0  0.18153548926E+03  0.30075626618E+03  0.11131576630E+03  0.38149432332E+03  0.98677522213E+02 0.  0.
        254    2    1    2    0    0 -0.18153548926E+03 -0.30075626618E+03 -0.24250456938E+03  0.10252647542E+04  0.93217481440E+03 0.  0.
         23    2    4    4    0    0  0.16830487371E+03 -0.24942130731E+03 -0.49170159200E+03  0.58376272455E+03  0.92037731073E+02 0.  0.
         23    2    4    4    0    0 -0.34984036298E+03 -0.51334958872E+02  0.24919702262E+03  0.44150202969E+03  0.88325129879E+02 0.  0.
          3    1    3    3  502    0  0.13166882607E+02  0.94054517235E+02  0.70463720097E+01  0.95232716901E+02  0.00000000000E+00 0. -1.
         -4    1    3    3    0  502  0.16836860666E+03  0.20670174895E+03  0.10426939429E+03  0.28626160642E+03  0.00000000000E+00 0.  1.
         11    1    5    5    0    0 -0.32605091317E+01 -0.65966647673E+01 -0.54799962357E+02  0.55291796681E+02  0.00000000000E+00 0. -1.
        -11    1    5    5    0    0  0.17156538285E+03 -0.24282464254E+03 -0.43690162965E+03  0.52847092787E+03  0.00000000000E+00 0.  1.
          1    1    6    6  503    0 -0.20462883576E+03 -0.27642084209E+02  0.91580533164E+02  0.22588501344E+03  0.00000000000E+00 0. -1.
         -1    1    6    6    0  503 -0.14521152721E+03 -0.23692874663E+02  0.15761648946E+03  0.21561701625E+03  0.00000000000E+00 0.  1.
<mgrwt>
<rscale>  0 0.14006286E+04</rscale>
<asrwt>0</asrwt>
<pdfrwt beam="1">  1        1 0.11830368E+00 0.14006286E+04</pdfrwt>
<pdfrwt beam="2">  1       -2 0.98120790E-01 0.14006286E+04</pdfrwt>
<totfact> 0.17375596E+01</totfact>
</mgrwt>
</event>
<event>
12    4  0.4413110E-008  0.1383804E+04  0.7818608E-02  0.8965626E-01
         -2   -1    0    0    0  501 -0.00000000000E+00  0.00000000000E+00  0.54590184013E+03  0.54590184013E+03  0.00000000000E+00 0.  1.
          1   -1    0    0  501    0  0.00000000000E+00 -0.00000000000E+00 -0.87694909906E+03  0.87694909906E+03  0.00000000000E+00 0. -1.
        -24    2    1    2    0    0  0.31922108981E+03  0.61550610919E+02  0.11744859054E+03  0.35501788230E+03  0.80950252922E+02 0.  0.
        254    2    1    2    0    0 -0.31922108981E+03 -0.61550610919E+02 -0.44849584947E+03  0.10678330569E+04  0.91292295869E+03 0.  0.
         23    2    4    4    0    0  0.28714487539E+03  0.12739582060E+03 -0.15930926998E+03  0.36397332243E+03  0.91734733699E+02 0.  0.
         23    2    4    4    0    0 -0.60636596520E+03 -0.18894643152E+03 -0.28918657949E+03  0.70385973446E+03  0.91701746421E+02 0.  0.
          1    1    3    3  502    0  0.11157147765E+03  0.11958983925E+01  0.59861368709E+01  0.11173834898E+03  0.00000000000E+00 0. -1.
         -2    1    3    3    0  502  0.20764961217E+03  0.60354712527E+02  0.11146245367E+03  0.24327953333E+03  0.00000000000E+00 0.  1.
         11    1    5    5    0    0  0.97314961193E+01  0.25986318716E+02  0.12691118972E+01  0.27777714487E+02  0.00000000000E+00 0.  1.
        -11    1    5    5    0    0  0.27741337927E+03  0.10140950188E+03 -0.16057838188E+03  0.33619560794E+03  0.00000000000E+00 0. -1.
          1    1    6    6  503    0 -0.27314748243E+03 -0.73164460911E+02 -0.17737558058E+03  0.33380335841E+03  0.00000000000E+00 0. -1.
         -1    1    6    6    0  503 -0.33321848277E+03 -0.11578197061E+03 -0.11181099891E+03  0.37005637605E+03  0.00000000000E+00 0.  1.
<mgrwt>
<rscale>  0 0.13838036E+04</rscale>
<asrwt>0</asrwt>
<pdfrwt beam="1">  1        1 0.13491524E+00 0.13838036E+04</pdfrwt>
<pdfrwt beam="2">  1       -2 0.83984899E-01 0.13838036E+04</pdfrwt>
<totfact> 0.20144938E+01</totfact>
</mgrwt>
</event>
<event>
12    4  0.4413110E-008  0.1256614E+04  0.7818608E-02  0.9064696E-01
         -2   -1    0    0    0  501 -0.00000000000E+00  0.00000000000E+00  0.12215629651E+03  0.12215629651E+03  0.00000000000E+00 0.  1.
          1   -1    0    0  501    0  0.00000000000E+00 -0.00000000000E+00 -0.32316771437E+04  0.32316771437E+04  0.00000000000E+00 0. -1.
        -24    2    1    2    0    0  0.85822391462E+02  0.81981509254E+02 -0.14910603235E+04  0.14979877394E+04  0.81362942301E+02 0.  0.
        254    2    1    2    0    0 -0.85822391462E+02 -0.81981509254E+02 -0.16184605236E+04  0.18558457007E+04  0.90036789572E+03 0.  0.
         23    2    4    4    0    0  0.21324699488E+03  0.25913190083E+03 -0.30255705420E+03  0.46102416429E+03  0.91536255981E+02 0.  0.
         23    2    4    4    0    0 -0.29906938634E+03 -0.34111341008E+03 -0.13159034694E+04  0.13948215365E+04  0.90135017015E+02 0.  0.
          3    1    3    3  502    0  0.82908827063E+02  0.46341193962E+02 -0.13094612988E+04  0.13129014712E+04  0.00000000000E+00 0. -1.
         -4    1    3    3    0  502  0.29135643991E+01  0.35640315292E+02 -0.18159902468E+03  0.18508626825E+03  0.00000000000E+00 0.  1.
         11    1    5    5    0    0  0.17168185896E+03  0.19113590795E+03 -0.17584513464E+03  0.31133439801E+03  0.00000000000E+00 0.  1.
        -11    1    5    5    0    0  0.41565135916E+02  0.67995992875E+02 -0.12671191956E+03  0.14968976628E+03  0.00000000000E+00 0. -1.
          1    1    6    6  503    0 -0.89024851288E+02 -0.11457276518E+03 -0.30475280935E+03  0.33753017268E+03  0.00000000000E+00 0. -1.
         -1    1    6    6    0  503 -0.21004453505E+03 -0.22654064490E+03 -0.10111506601E+04  0.10572913638E+04  0.00000000000E+00 0.  1.
<mgrwt>
<rscale>  0 0.12566140E+04</rscale>
<asrwt>0</asrwt>
<pdfrwt beam="1">  1        1 0.49718106E+00 0.12566140E+04</pdfrwt>
<pdfrwt beam="2">  1       -2 0.18793278E-01 0.12566140E+04</pdfrwt>
<totfact> 0.84250237E+00</totfact>
</mgrwt>
</event>
<event>
12    4  0.4413110E-008  0.2095908E+04  0.7818608E-02  0.8563048E-01
         -2   -1    0    0    0  501 -0.00000000000E+00  0.00000000000E+00  0.63383255984E+03  0.63383255984E+03  0.00000000000E+00 0.  1.
          1   -1    0    0  501    0  0.00000000000E+00 -0.00000000000E+00 -0.17326465229E+04  0.17326465229E+04  0.00000000000E+00 0. -1.
        -24    2    1    2    0    0 -0.73067503218E+03 -0.45719204564E+03 -0.52101068444E+03  0.10103273140E+04  0.79991116818E+02 0.  0.
        254    2    1    2    0    0  0.73067503218E+03  0.45719204564E+03 -0.57780327860E+03  0.13561517688E+04  0.87314398694E+03 0.  0.
         23    2    4    4    0    0  0.12619775461E+03 -0.19807801272E+03 -0.35041039895E+03  0.43173204137E+03  0.91893065355E+02 0.  0.
         23    2    4    4    0    0  0.60447727757E+03  0.65527005836E+03 -0.22739287965E+03  0.92441972741E+03  0.89848106392E+02 0.  0.
          3    1    3    3  502    0 -0.32965393078E+03 -0.24479940181E+03 -0.27436471293E+03  0.49383646778E+03  0.00000000000E+00 0. -1.
         -4    1    3    3    0  502 -0.40102110140E+03 -0.21239264383E+03 -0.24664597151E+03  0.51649084617E+03  0.00000000000E+00 0.  1.
         11    1    5    5    0    0 -0.62611970283E+01  0.48039013353E+01 -0.23713403676E+02  0.24992110159E+02  0.00000000000E+00 0.  1.
        -11    1    5    5    0    0  0.13245895164E+03 -0.20288191405E+03 -0.32669699527E+03  0.40673993121E+03  0.00000000000E+00 0. -1.
          3    1    6    6  503    0  0.50819221328E+03  0.58750888995E+03 -0.21513113395E+03  0.80604430784E+03  0.00000000000E+00 0. -1.
         -3    1    6    6    0  503  0.96285064293E+02  0.67761168410E+02 -0.12261745701E+02  0.11837541957E+03  0.00000000000E+00 0.  1.
<mgrwt>
<rscale>  0 0.20959082E+04</rscale>
<asrwt>0</asrwt>
<pdfrwt beam="1">  1        1 0.26656100E+00 0.20959082E+04</pdfrwt>
<pdfrwt beam="2">  1       -2 0.97512701E-01 0.20959082E+04</pdfrwt>
<totfact> 0.32063708E+00</totfact>
</mgrwt>
</event>
<event>
12    4  0.4413110E-008  0.2079850E+04  0.7818608E-02  0.8570172E-01
         -2   -1    0    0    0  501 -0.00000000000E+00  0.00000000000E+00  0.77058765685E+03  0.77058765685E+03  0.00000000000E+00 0.  1.
          1   -1    0    0  501    0  0.00000000000E+00 -0.00000000000E+00 -0.14034010703E+04  0.14034010703E+04  0.00000000000E+00 0. -1.
        -24    2    1    2    0    0 -0.19357693137E+02 -0.16721425149E+03  0.60557395055E+03  0.63373985533E+03  0.81062127139E+02 0.  0.
        254    2    1    2    0    0  0.19357693137E+02  0.16721425149E+03 -0.12383873640E+04  0.15402488719E+04  0.90023774510E+03 0.  0.
         23    2    4    4    0    0 -0.24752185471E+03  0.22559592120E+03 -0.11996751736E+04  0.12489901478E+04  0.92710728310E+02 0.  0.
         23    2    4    4    0    0  0.26687954785E+03 -0.58381669714E+02 -0.38712190489E+02  0.29125872403E+03  0.93273244904E+02 0.  0.
          1    1    3    3  502    0  0.20722404578E+02 -0.51484083504E+02  0.28940699692E+03  0.29468023139E+03  0.00000000000E+00 0. -1.
         -2    1    3    3    0  502 -0.40080097715E+02 -0.11573016798E+03  0.31616695363E+03  0.33905962393E+03  0.00000000000E+00 0.  1.
         11    1    5    5    0    0 -0.15431654867E+03  0.18521072218E+03 -0.74207070059E+03  0.78024709770E+03  0.00000000000E+00 0.  1.
        -11    1    5    5    0    0 -0.93205306041E+02  0.40385199016E+02 -0.45760447297E+03  0.46874305014E+03  0.00000000000E+00 0. -1.
          3    1    6    6  503    0  0.27267383377E+03 -0.54246420309E+02 -0.29443982131E+02  0.27957224795E+03  0.00000000000E+00 0. -1.
         -3    1    6    6    0  503 -0.57942859256E+01 -0.41352494056E+01 -0.92682083584E+01  0.11686476082E+02  0.00000000000E+00 0.  1.
<mgrwt>
<rscale>  0 0.20798496E+04</rscale>
<asrwt>0</asrwt>
<pdfrwt beam="1">  1        1 0.21590786E+00 0.20798496E+04</pdfrwt>
<pdfrwt beam="2">  1       -2 0.11855195E+00 0.20798496E+04</pdfrwt>
<totfact> 0.33810235E+00</totfact>
</mgrwt>
</event>
<event>
12    4  0.4413110E-008  0.1180582E+04  0.7818608E-02  0.9130025E-01
         -2   -1    0    0    0  501 -0.00000000000E+00  0.00000000000E+00  0.24262862981E+03  0.24262862981E+03  0.00000000000E+00 0.  1.
          1   -1    0    0  501    0  0.00000000000E+00 -0.00000000000E+00 -0.14361182150E+04  0.14361182150E+04  0.00000000000E+00 0. -1.
        -24    2    1    2    0    0  0.37438185046E+02 -0.20387967463E+03 -0.97762021416E+02  0.24268022045E+03  0.79798102354E+02 0.  0.
        254    2    1    2    0    0 -0.37438185046E+02  0.20387967463E+03 -0.10957275638E+04  0.14360666244E+04  0.90482037785E+03 0.  0.
         23    2    4    4    0    0  0.38644892796E+02 -0.34857559380E+03 -0.40486745391E+03  0.54359532535E+03  0.92627480669E+02 0.  0.
         23    2    4    4    0    0 -0.76083077841E+02  0.55245526843E+03 -0.69086010987E+03  0.89247129902E+03  0.90674526834E+02 0.  0.
          3    1    3    3  502    0  0.32678993472E+02 -0.24276790991E+02 -0.67082808994E+01  0.41258698814E+02  0.00000000000E+00 0. -1.
         -4    1    3    3    0  502  0.47591915733E+01 -0.17960288364E+03 -0.91053740517E+02  0.20142152163E+03  0.00000000000E+00 0.  1.
         11    1    5    5    0    0  0.24976855214E+02 -0.27946600087E+03 -0.37175280823E+03  0.46575233694E+03  0.00000000000E+00 0. -1.
        -11    1    5    5    0    0  0.13668037581E+02 -0.69109592931E+02 -0.33114645684E+02  0.77842988413E+02  0.00000000000E+00 0.  1.
          3    1    6    6  503    0 -0.79597623924E+02  0.44703174991E+03 -0.50784085498E+03  0.68123087214E+03  0.00000000000E+00 0. -1.
         -3    1    6    6    0  503  0.35145460827E+01  0.10542351852E+03 -0.18301925488E+03  0.21124042688E+03  0.00000000000E+00 0.  1.
<mgrwt>
<rscale>  0 0.11805819E+04</rscale>
<asrwt>0</asrwt>
<pdfrwt beam="1">  1        1 0.22094126E+00 0.11805819E+04</pdfrwt>
<pdfrwt beam="2">  1       -2 0.37327482E-01 0.11805819E+04</pdfrwt>
<totfact> 0.42640271E+01</totfact>
</mgrwt>
</event>
<event>
12    4  0.4413110E-008  0.1731808E+04  0.7818608E-02  0.8743428E-01
          1   -1    0    0  501    0  0.00000000000E+00  0.00000000000E+00  0.21196615365E+04  0.21196615365E+04  0.00000000000E+00 0. -1.
         -2   -1    0    0    0  501 -0.00000000000E+00 -0.00000000000E+00 -0.35373070822E+03  0.35373070822E+03  0.00000000000E+00 0.  1.
        -24    2    1    2    0    0  0.38775186362E+03 -0.24946498472E+03  0.11238469046E+04  0.12174415715E+04  0.80918655328E+02 0.  0.
        254    2    1    2    0    0 -0.38775186362E+03  0.24946498472E+03  0.64208392372E+03  0.12559506732E+04  0.97598977563E+03 0.  0.
         23    2    4    4    0    0  0.17594238834E+03  0.41493863915E+03  0.41578834479E+03  0.61993241556E+03  0.91139749465E+02 0.  0.
         23    2    4    4    0    0 -0.56369425197E+03 -0.16547365443E+03  0.22629557893E+03  0.63601825766E+03  0.90425632584E+02 0.  0.
          1    1    3    3  502    0  0.35575727050E+03 -0.23503089619E+03  0.10810116697E+04  0.11620623855E+04  0.00000000000E+00 0. -1.
         -2    1    3    3    0  502  0.31994593124E+02 -0.14434088532E+02  0.42835234873E+02  0.55379186050E+02  0.00000000000E+00 0.  1.
         11    1    5    5    0    0 -0.27731484146E+01  0.79059641469E+02  0.79411057882E+02  0.11209029117E+03  0.00000000000E+00 0. -1.
        -11    1    5    5    0    0  0.17871553676E+03  0.33587899768E+03  0.33637728690E+03  0.50784212439E+03  0.00000000000E+00 0.  1.
          1    1    6    6  503    0 -0.40162620587E+02 -0.38576622275E+02  0.22686006326E+02  0.60131911342E+02  0.00000000000E+00 0. -1.
         -1    1    6    6    0  503 -0.52353163138E+03 -0.12689703216E+03  0.20360957260E+03  0.57588634632E+03  0.00000000000E+00 0.  1.
<mgrwt>
<rscale>  0 0.17318076E+04</rscale>
<asrwt>0</asrwt>
<pdfrwt beam="1">  1        1 0.32610177E+00 0.17318076E+04</pdfrwt>
<pdfrwt beam="2">  1       -2 0.54420110E-01 0.17318076E+04</pdfrwt>
<totfact> 0.65479030E+00</totfact>
</mgrwt>
</event>
<event>
12    4  0.4413110E-008  0.1575239E+04  0.7818608E-02  0.8835906E-01
         -2   -1    0    0    0  501 -0.00000000000E+00  0.00000000000E+00  0.47226393334E+03  0.47226393334E+03  0.00000000000E+00 0.  1.
          1   -1    0    0  501    0  0.00000000000E+00 -0.00000000000E+00 -0.13135542273E+04  0.13135542273E+04  0.00000000000E+00 0. -1.
        -24    2    1    2    0    0  0.14931224726E+03  0.50710961786E+03 -0.29876816456E+03  0.61254432251E+03  0.80584236494E+02 0.  0.
        254    2    1    2    0    0 -0.14931224726E+03 -0.50710961786E+03 -0.54252212940E+03  0.11732738381E+04  0.89598377589E+03 0.  0.
         23    2    4    4    0    0 -0.41918250126E+03 -0.44755598969E+03 -0.77704334016E+02  0.62501917075E+03  0.92685851175E+02 0.  0.
         23    2    4    4    0    0  0.26987025400E+03 -0.59553628168E+02 -0.46481779538E+03  0.54825466738E+03  0.90282937357E+02 0.  0.
          3    1    3    3  502    0  0.78108210166E+01  0.11190614626E+03 -0.89466681640E+02  0.14348617223E+03  0.00000000000E+00 0. -1.
         -4    1    3    3    0  502  0.14150142625E+03  0.39520347160E+03 -0.20930148292E+03  0.46905815028E+03  0.00000000000E+00 0.  1.
         11    1    5    5    0    0 -0.20298922517E+03 -0.15320368491E+03 -0.17954547004E+02  0.25494776006E+03  0.00000000000E+00 0. -1.
        -11    1    5    5    0    0 -0.21619327610E+03 -0.29435230479E+03 -0.59749787012E+02  0.37007141069E+03  0.00000000000E+00 0.  1.
          2    1    6    6  503    0  0.62385636793E+01  0.80940017386E+01 -0.73144934136E+00  0.10245367688E+02  0.00000000000E+00 0. -1.
         -2    1    6    6    0  503  0.26363169032E+03 -0.67647629907E+02 -0.46408634604E+03  0.53800929969E+03  0.00000000000E+00 0.  1.
<mgrwt>
<rscale>  0 0.15752388E+04</rscale>
<asrwt>0</asrwt>
<pdfrwt beam="1">  1        1 0.20208526E+00 0.15752388E+04</pdfrwt>
<pdfrwt beam="2">  1       -2 0.72655991E-01 0.15752388E+04</pdfrwt>
<totfact> 0.12780825E+01</totfact>
</mgrwt>
</event>
<event>
12    4  0.4413110E-008  0.2620930E+04  0.7818608E-02  0.8361126E-01
         -2   -1    0    0    0  501 -0.00000000000E+00  0.00000000000E+00  0.63139030391E+03  0.63139030391E+03  0.00000000000E+00 0.  1.
          1   -1    0    0  501    0  0.00000000000E+00 -0.00000000000E+00 -0.27199004900E+04  0.27199004900E+04  0.00000000000E+00 0. -1.
        -24    2    1    2    0    0  0.19529732210E+02  0.97346844020E+03 -0.17153552090E+04  0.19737532183E+04  0.72360618734E+02 0.  0.
        254    2    1    2    0    0 -0.19529732210E+02 -0.97346844020E+03 -0.37315497702E+03  0.13775375756E+04  0.90019049134E+03 0.  0.
         23    2    4    4    0    0  0.71493354833E+02  0.86487896918E+02  0.13312574292E+03  0.19568013208E+03  0.89312902574E+02 0.  0.
         23    2    4    4    0    0 -0.91023087043E+02 -0.10599563371E+04 -0.50628071994E+03  0.11818574435E+04  0.93135440900E+02 0.  0.
          1    1    3    3  502    0 -0.13885202546E+02  0.64003802094E+03 -0.11690691903E+04  0.13328781785E+04  0.00000000000E+00 0. -1.
         -2    1    3    3    0  502  0.33414934756E+02  0.33343041926E+03 -0.54628601874E+03  0.64087503979E+03  0.00000000000E+00 0.  1.
         11    1    5    5    0    0  0.57333486854E+02  0.36698380325E+02  0.12628850038E+03  0.14346666917E+03  0.00000000000E+00 0.  1.
        -11    1    5    5    0    0  0.14159867980E+02  0.49789516594E+02  0.68372425301E+01  0.52213462912E+02  0.00000000000E+00 0. -1.
          1    1    6    6  503    0 -0.10334735402E+03 -0.99495712514E+03 -0.45930468307E+03  0.11007184692E+04  0.00000000000E+00 0. -1.
         -1    1    6    6    0  503  0.12324266977E+02 -0.64999211980E+02 -0.46976036869E+02  0.81138974325E+02  0.00000000000E+00 0.  1.
<mgrwt>
<rscale>  0 0.26209302E+04</rscale>
<asrwt>0</asrwt>
<pdfrwt beam="1">  1        1 0.41844623E+00 0.26209302E+04</pdfrwt>
<pdfrwt beam="2">  1       -2 0.97136970E-01 0.26209302E+04</pdfrwt>
<totfact> 0.64959069E-01</totfact>
</mgrwt>
</event>
<event>
12    4  0.4413110E-008  0.1114019E+04  0.7818608E-02  0.9191634E-01
          1   -1    0    0  501    0  0.00000000000E+00  0.00000000000E+00  0.22642063454E+04  0.22642063454E+04  0.00000000000E+00 0. -1.
         -2   -1    0    0    0  501 -0.00000000000E+00 -0.00000000000E+00 -0.13702804062E+03  0.13702804062E+03  0.00000000000E+00 0.  1.
        -24    2    1    2    0    0  0.11650715949E+03 -0.10215888735E+03  0.50023271279E+03  0.52948315952E+03  0.78161965137E+02 0.  0.
        254    2    1    2    0    0 -0.11650715949E+03  0.10215888735E+03  0.16269455920E+04  0.18717512265E+04  0.91240908486E+03 0.  0.
         23    2    4    4    0    0  0.21863206461E+03  0.31213205575E+03  0.32788941757E+03  0.51078852520E+03  0.90371718036E+02 0.  0.
         23    2    4    4    0    0 -0.33513922410E+03 -0.20997316840E+03  0.12990561744E+04  0.13609627013E+04  0.90914790076E+02 0.  0.
          3    1    3    3  502    0  0.37333723284E+02 -0.21687310056E+01  0.19703669064E+03  0.20055415166E+03  0.00000000000E+00 0. -1.
         -4    1    3    3    0  502  0.79173436210E+02 -0.99990156348E+02  0.30319602215E+03  0.32892900786E+03  0.00000000000E+00 0.  1.
         11    1    5    5    0    0  0.21661717284E+03  0.26686215448E+03  0.26888612284E+03  0.43639220447E+03  0.00000000000E+00 0.  1.
        -11    1    5    5    0    0  0.20148917670E+01  0.45269901271E+02  0.59003294727E+02  0.74396320733E+02  0.00000000000E+00 0. -1.
          3    1    6    6  503    0 -0.17594770978E+02 -0.11738388562E+02  0.23524841512E+02  0.31635168720E+02  0.00000000000E+00 0. -1.
         -3    1    6    6    0  503 -0.31754445312E+03 -0.19823477984E+03  0.12755313329E+04  0.13293275326E+04  0.00000000000E+00 0.  1.
<mgrwt>
<rscale>  0 0.11140193E+04</rscale>
<asrwt>0</asrwt>
<pdfrwt beam="1">  1        1 0.34833941E+00 0.11140193E+04</pdfrwt>
<pdfrwt beam="2">  1       -2 0.21081239E-01 0.11140193E+04</pdfrwt>
<totfact> 0.33706190E+01</totfact>
</mgrwt>
</event>
<event>
12    4  0.4413110E-008  0.1284033E+04  0.7818608E-02  0.9042324E-01
          1   -1    0    0  501    0  0.00000000000E+00  0.00000000000E+00  0.29065717609E+04  0.29065717609E+04  0.00000000000E+00 0. -1.
         -2   -1    0    0    0  501 -0.00000000000E+00 -0.00000000000E+00 -0.14181142394E+03  0.14181142394E+03  0.00000000000E+00 0.  1.
        -24    2    1    2    0    0 -0.19372830456E+03 -0.24795830960E+03  0.73146136378E+03  0.80342813576E+03  0.10699094979E+03 0.  0.
        254    2    1    2    0    0  0.19372830456E+03  0.24795830960E+03  0.20332989732E+04  0.22449550491E+04  0.89805594414E+03 0.  0.
         23    2    4    4    0    0 -0.15394626984E+03 -0.14244000469E+03  0.14050116911E+04  0.14233908820E+04  0.89415557536E+02 0.  0.
         23    2    4    4    0    0  0.34767457440E+03  0.39039831428E+03  0.62828728204E+03  0.82156416704E+03  0.83272554358E+02 0.  0.
          3    1    3    3  502    0 -0.12874454220E+03 -0.12429532622E+03  0.52051791064E+03  0.55042109386E+03  0.00000000000E+00 0. -1.
         -2    1    3    3    0  502 -0.64983762357E+02 -0.12366298338E+03  0.21094345314E+03  0.25300704190E+03  0.00000000000E+00 0.  1.
         11    1    5    5    0    0 -0.54709142390E+02 -0.62881215206E+02  0.30973149227E+03  0.32075026858E+03  0.00000000000E+00 0.  1.
        -11    1    5    5    0    0 -0.99237127448E+02 -0.79558789479E+02  0.10952801989E+04  0.11026406135E+04  0.00000000000E+00 0. -1.
          3    1    6    6  503    0  0.15220744840E+03  0.20160255375E+03  0.35916035760E+03  0.43909777897E+03  0.00000000000E+00 0.  1.
         -3    1    6    6    0  503  0.19546712600E+03  0.18879576054E+03  0.26912692444E+03  0.38246638807E+03  0.00000000000E+00 0. -1.
<mgrwt>
<rscale>  0 0.12840328E+04</rscale>
<asrwt>0</asrwt>
<pdfrwt beam="1">  1        1 0.44716484E+00 0.12840328E+04</pdfrwt>
<pdfrwt beam="2">  1       -2 0.21817144E-01 0.12840328E+04</pdfrwt>
<totfact> 0.11164115E+01</totfact>
</mgrwt>
</event>
<event>
12    4  0.4413110E-008  0.2251813E+04  0.7818608E-02  0.8497166E-01
         -2   -1    0    0    0  501 -0.00000000000E+00  0.00000000000E+00  0.53704177569E+03  0.53704177569E+03  0.00000000000E+00 0.  1.
          1   -1    0    0  501    0  0.00000000000E+00 -0.00000000000E+00 -0.23604603624E+04  0.23604603624E+04  0.00000000000E+00 0. -1.
        -24    2    1    2    0    0 -0.94157136061E+03 -0.30511757973E+02 -0.71864104414E+03  0.11873759934E+04  0.77001330204E+02 0.  0.
        254    2    1    2    0    0  0.94157136061E+03  0.30511757973E+02 -0.11047775425E+04  0.17101261447E+04  0.90360966003E+03 0.  0.
         23    2    4    4    0    0  0.30216335206E+03 -0.25679933555E+03 -0.87818299226E+03  0.96793602187E+03  0.91903125405E+02 0.  0.
         23    2    4    4    0    0  0.63940800855E+03  0.28731109352E+03 -0.22659455027E+03  0.74219012280E+03  0.90060103889E+02 0.  0.
          3    1    3    3  502    0 -0.55195814865E+03 -0.23491588410E+02 -0.46812007298E+03  0.72411743199E+03  0.00000000000E+00 0. -1.
         -4    1    3    3    0  502 -0.38961321196E+03 -0.70201695630E+01 -0.25052097115E+03  0.46325856139E+03  0.00000000000E+00 0.  1.
         11    1    5    5    0    0  0.12491655892E+03 -0.11459000302E+03 -0.27131449239E+03  0.31991650359E+03  0.00000000000E+00 0.  1.
        -11    1    5    5    0    0  0.17724679314E+03 -0.14220933253E+03 -0.60686849987E+03  0.64801951828E+03  0.00000000000E+00 0. -1.
          4    1    6    6  503    0  0.64106946458E+03  0.28322848288E+03 -0.22059455563E+03  0.73474511901E+03  0.00000000000E+00 0. -1.
         -4    1    6    6    0  503 -0.16614560294E+01  0.40826106450E+01 -0.59999946422E+01  0.74450037960E+01  0.00000000000E+00 0.  1.
<mgrwt>
<rscale>  0 0.22518133E+04</rscale>
<asrwt>0</asrwt>
<pdfrwt beam="1">  1        1 0.36314775E+00 0.22518133E+04</pdfrwt>
<pdfrwt beam="2">  1       -2 0.82621811E-01 0.22518133E+04</pdfrwt>
<totfact> 0.17337010E+00</totfact>
</mgrwt>
</event>
<event>
12    4  0.4413110E-008  0.2693246E+04  0.7818608E-02  0.8337200E-01
          1   -1    0    0  501    0  0.00000000000E+00  0.00000000000E+00  0.15712251502E+04  0.15712251502E+04  0.00000000000E+00 0. -1.
         -2   -1    0    0    0  501 -0.00000000000E+00 -0.00000000000E+00 -0.11541268192E+04  0.11541268192E+04  0.00000000000E+00 0.  1.
        -24    2    1    2    0    0 -0.55338758870E+03 -0.10237285990E+04  0.42213387020E+03  0.12401395949E+04  0.74102245525E+02 0.  0.
        254    2    1    2    0    0  0.55338758870E+03  0.10237285990E+04 -0.50355391978E+01  0.14852123745E+04  0.92280679072E+03 0.  0.
         23    2    4    4    0    0  0.21847474281E+03  0.11564832415E+03 -0.36359634221E+03  0.44896057798E+03  0.90871075628E+02 0.  0.
         23    2    4    4    0    0  0.33491284589E+03  0.90808027486E+03  0.35856080301E+03  0.10362517965E+04  0.92062676653E+02 0.  0.
          3    1    3    3  502    0 -0.14638582651E+03 -0.25834630185E+03  0.14190203582E+03  0.32910151877E+03  0.00000000000E+00 0. -1.
         -4    1    3    3    0  502 -0.40700176219E+03 -0.76538229715E+03  0.28023183439E+03  0.91103807616E+03  0.00000000000E+00 0.  1.
         11    1    5    5    0    0  0.25911808207E+02 -0.12980044333E+02 -0.22530601011E+02  0.36708736526E+02  0.00000000000E+00 0. -1.
        -11    1    5    5    0    0  0.19256293460E+03  0.12862836848E+03 -0.34106574120E+03  0.41225184145E+03  0.00000000000E+00 0.  1.
          3    1    6    6  503    0  0.87677445705E+02  0.34981066931E+03  0.11004465984E+03  0.37704729943E+03  0.00000000000E+00 0. -1.
         -3    1    6    6    0  503  0.24723540019E+03  0.55826960556E+03  0.24851614317E+03  0.65920449711E+03  0.00000000000E+00 0.  1.
<mgrwt>
<rscale>  0 0.26932457E+04</rscale>
<asrwt>0</asrwt>
<pdfrwt beam="1">  1        1 0.24172695E+00 0.26932457E+04</pdfrwt>
<pdfrwt beam="2">  1       -2 0.17755797E+00 0.26932457E+04</pdfrwt>
<totfact> 0.84503135E-01</totfact>
</mgrwt>
</event>
<event>
12    4  0.4413110E-008  0.2983347E+04  0.7818608E-02  0.8248502E-01
         -2   -1    0    0    0  501 -0.00000000000E+00  0.00000000000E+00  0.20953592898E+04  0.20953592898E+04  0.00000000000E+00 0.  1.
          1   -1    0    0  501    0  0.00000000000E+00 -0.00000000000E+00 -0.10619135636E+04  0.10619135636E+04  0.00000000000E+00 0. -1.
        -24    2    1    2    0    0  0.36251235940E+03  0.12743598722E+04  0.76311117121E+03  0.15309067166E+04  0.76996239596E+02 0.  0.
        254    2    1    2    0    0 -0.36251235940E+03 -0.12743598722E+04  0.27033455505E+03  0.16263661367E+04  0.90364691365E+03 0.  0.
         23    2    4    4    0    0 -0.63865637623E+03 -0.84098150183E+03  0.30273035928E+03  0.11021608991E+04  0.89337134910E+02 0.  0.
         23    2    4    4    0    0  0.27614401683E+03 -0.43337837035E+03 -0.32395804233E+02  0.52420523768E+03  0.98332665801E+02 0.  0.
          3    1    3    3  502    0  0.12755958059E+03  0.49264256672E+03  0.33420281855E+03  0.60881825619E+03  0.00000000000E+00 0. -1.
         -4    1    3    3    0  502  0.23495277881E+03  0.78171730546E+03  0.42890835266E+03  0.92208846046E+03  0.00000000000E+00 0.  1.
         11    1    5    5    0    0 -0.24223547251E+03 -0.38101516130E+03  0.15340540817E+03  0.47684777082E+03  0.00000000000E+00 0.  1.
        -11    1    5    5    0    0 -0.39642090371E+03 -0.45996634053E+03  0.14932495111E+03  0.62531312824E+03  0.00000000000E+00 0. -1.
          2    1    6    6  503    0  0.26588329472E+03 -0.36094647718E+03 -0.12866894737E+02  0.44848839760E+03  0.00000000000E+00 0. -1.
         -2    1    6    6    0  503  0.10260722111E+02 -0.72431893167E+02 -0.19528909495E+02  0.75716840082E+02  0.00000000000E+00 0.  1.
<mgrwt>
<rscale>  0 0.29833474E+04</rscale>
<asrwt>0</asrwt>
<pdfrwt beam="1">  1        1 0.16337132E+00 0.29833474E+04</pdfrwt>
<pdfrwt beam="2">  1       -2 0.32236297E+00 0.29833474E+04</pdfrwt>
<totfact> 0.23461648E-01</totfact>
</mgrwt>
</event>
<event>
12    4  0.4413110E-008  0.1917596E+04  0.7818608E-02  0.8646147E-01
          1   -1    0    0  501    0  0.00000000000E+00  0.00000000000E+00  0.15503506745E+04  0.15503506745E+04  0.00000000000E+00 0. -1.
         -2   -1    0    0    0  501 -0.00000000000E+00 -0.00000000000E+00 -0.59295866102E+03  0.59295866102E+03  0.00000000000E+00 0.  1.
        -24    2    1    2    0    0 -0.70111325605E+03  0.14574132788E+03  0.59812733858E+03  0.93644915076E+03  0.79877195449E+02 0.  0.
        254    2    1    2    0    0  0.70111325605E+03 -0.14574132788E+03  0.35926467495E+03  0.12068601848E+04  0.90257413354E+03 0.  0.
         23    2    4    4    0    0  0.58124116726E+03 -0.34774556104E+03  0.56159775086E+03  0.88452137217E+03  0.90651830194E+02 0.  0.
         23    2    4    4    0    0  0.11987208879E+03  0.20200423316E+03 -0.20233307591E+03  0.32233881263E+03  0.88253094187E+02 0.  0.
          3    1    3    3  502    0 -0.43505664899E+03  0.12308433421E+03  0.40383714234E+03  0.60622477572E+03  0.00000000000E+00 0. -1.
         -4    1    3    3    0  502 -0.26605660706E+03  0.22656993664E+02  0.19429019624E+03  0.33022437505E+03  0.00000000000E+00 0.  1.
         11    1    5    5    0    0  0.33458171632E+03 -0.14931345171E+03  0.31648471957E+03  0.48415081274E+03  0.00000000000E+00 0. -1.
        -11    1    5    5    0    0  0.24665945094E+03 -0.19843210932E+03  0.24511303129E+03  0.40037055943E+03  0.00000000000E+00 0.  1.
          1    1    6    6  503    0 -0.55284214964E+01  0.16310612557E+02 -0.46010311528E+02  0.49127876945E+02  0.00000000000E+00 0. -1.
         -1    1    6    6    0  503  0.12540051029E+03  0.18569362060E+03 -0.15632276438E+03  0.27321093568E+03  0.00000000000E+00 0.  1.
<mgrwt>
<rscale>  0 0.19175963E+04</rscale>
<asrwt>0</asrwt>
<pdfrwt beam="1">  1        1 0.23851549E+00 0.19175963E+04</pdfrwt>
<pdfrwt beam="2">  1       -2 0.91224410E-01 0.19175963E+04</pdfrwt>
<totfact> 0.50706600E+00</totfact>
</mgrwt>
</event>
<event>
12    4  0.4413110E-008  0.1465969E+04  0.7818608E-02  0.8907404E-01
          1   -1    0    0  501    0  0.00000000000E+00  0.00000000000E+00  0.70880076797E+03  0.70880076797E+03  0.00000000000E+00 0. -1.
         -2   -1    0    0    0  501 -0.00000000000E+00 -0.00000000000E+00 -0.75799345647E+03  0.75799345647E+03  0.00000000000E+00 0.  1.
        -24    2    1    2    0    0  0.43720730490E+03  0.56517424749E+01  0.31222347846E+02  0.44555296250E+03  0.79752352498E+02 0.  0.
        254    2    1    2    0    0 -0.43720730490E+03 -0.56517424749E+01 -0.80415036351E+02  0.10212412619E+04  0.91939380429E+03 0.  0.
         23    2    4    4    0    0 -0.22544644016E+03 -0.75312540317E+02  0.40559664521E+03  0.47891854535E+03  0.91412572234E+02 0.  0.
         23    2    4    4    0    0 -0.21176086474E+03  0.69660797842E+02 -0.48601168156E+03  0.54232271659E+03  0.90616133904E+02 0.  0.
          3    1    3    3  502    0  0.42353396633E+03 -0.83945693822E+01  0.36687513893E+02  0.42520284937E+03  0.00000000000E+00 0. -1.
         -4    1    3    3    0  502  0.13673338570E+02  0.14046311857E+02 -0.54651660468E+01  0.20350113129E+02  0.00000000000E+00 0.  1.
         11    1    5    5    0    0 -0.72075354691E+00 -0.13862184946E+02  0.36809387048E+01  0.14360674319E+02  0.00000000000E+00 0. -1.
        -11    1    5    5    0    0 -0.22472568661E+03 -0.61450355371E+02  0.40191570651E+03  0.46455787103E+03  0.00000000000E+00 0.  1.
          1    1    6    6  503    0 -0.95311805496E+02  0.59741100991E+02 -0.32082031325E+03  0.33996913508E+03  0.00000000000E+00 0.  1.
         -1    1    6    6    0  503 -0.11644905925E+03  0.99196968511E+01 -0.16519136832E+03  0.20235358151E+03  0.00000000000E+00 0. -1.
<mgrwt>
<rscale>  0 0.14659691E+04</rscale>
<asrwt>0</asrwt>
<pdfrwt beam="1">  1        1 0.10904627E+00 0.14659691E+04</pdfrwt>
<pdfrwt beam="2">  1       -2 0.11661438E+00 0.14659691E+04</pdfrwt>
<totfact> 0.12935753E+01</totfact>
</mgrwt>
</event>
<event>
12    4  0.4413110E-008  0.1358996E+04  0.7818608E-02  0.8984046E-01
         -2   -1    0    0    0  501 -0.00000000000E+00  0.00000000000E+00  0.27998999623E+03  0.27998999623E+03  0.00000000000E+00 0.  1.
          1   -1    0    0  501    0  0.00000000000E+00 -0.00000000000E+00 -0.16490490505E+04  0.16490490505E+04  0.00000000000E+00 0. -1.
        -24    2    1    2    0    0 -0.16974120051E+03  0.99404795957E+01 -0.86913674185E+03  0.88917962063E+03  0.79566534616E+02 0.  0.
        254    2    1    2    0    0  0.16974120051E+03 -0.99404795957E+01 -0.49992231246E+03  0.10398594261E+04  0.89580936552E+03 0.  0.
         23    2    4    4    0    0  0.45495402742E+03 -0.24868325366E+03 -0.25646202134E+03  0.58603694823E+03  0.94021319839E+02 0.  0.
         23    2    4    4    0    0 -0.28521282691E+03  0.23874277406E+03 -0.24346029112E+03  0.45382247791E+03  0.91309689020E+02 0.  0.
          1    1    3    3  502    0 -0.17216584515E+03  0.12772829055E+02 -0.86838083971E+03  0.88537534762E+03  0.00000000000E+00 0. -1.
         -2    1    3    3    0  502  0.24246446426E+01 -0.28323494597E+01 -0.75590213944E+00  0.38042730120E+01  0.00000000000E+00 0.  1.
         11    1    5    5    0    0  0.11031614111E+02  0.35699772968E+01 -0.20524772787E+02  0.23573450018E+02  0.00000000000E+00 0.  1.
        -11    1    5    5    0    0  0.44392241331E+03 -0.25225323096E+03 -0.23593724855E+03  0.56246349821E+03  0.00000000000E+00 0. -1.
          3    1    6    6  503    0 -0.17523735154E+03  0.13760557316E+03 -0.91953618642E+02  0.24103711565E+03  0.00000000000E+00 0. -1.
         -3    1    6    6    0  503 -0.10997547537E+03  0.10113720090E+03 -0.15150667248E+03  0.21278536226E+03  0.00000000000E+00 0.  1.
<mgrwt>
<rscale>  0 0.13589956E+04</rscale>
<asrwt>0</asrwt>
<pdfrwt beam="1">  1        1 0.25369986E+00 0.13589956E+04</pdfrwt>
<pdfrwt beam="2">  1       -2 0.43075384E-01 0.13589956E+04</pdfrwt>
<totfact> 0.22654948E+01</totfact>
</mgrwt>
</event>
<event>
12    4  0.4413110E-008  0.1703961E+04  0.7818608E-02  0.8759109E-01
          1   -1    0    0  501    0  0.00000000000E+00  0.00000000000E+00  0.15598139201E+04  0.15598139201E+04  0.00000000000E+00 0. -1.
         -2   -1    0    0    0  501 -0.00000000000E+00 -0.00000000000E+00 -0.46535707432E+03  0.46535707432E+03  0.00000000000E+00 0.  1.
        -24    2    1    2    0    0 -0.36789592712E+02  0.12797734011E+03 -0.31053336899E+03  0.34706995473E+03  0.79340446831E+02 0.  0.
        254    2    1    2    0    0  0.36789592712E+02 -0.12797734011E+03  0.14049902147E+04  0.16781010396E+04  0.90790633992E+03 0.  0.
         23    2    4    4    0    0  0.93753404661E+02  0.17897563285E+03  0.13263652796E+04  0.13446682243E+04  0.89809801868E+02 0.  0.
         23    2    4    4    0    0 -0.56963811949E+02 -0.30695297296E+03  0.78624935089E+02  0.33343281529E+03  0.86778790130E+02 0.  0.
          1    1    3    3  502    0  0.19386006048E+02  0.12303663272E+02 -0.78464140043E+02  0.81754624537E+02  0.00000000000E+00 0. -1.
         -2    1    3    3    0  502 -0.56175598760E+02  0.11567367684E+03 -0.23206922895E+03  0.26531533019E+03  0.00000000000E+00 0.  1.
         11    1    5    5    0    0  0.49838593366E+02  0.18332109697E+02  0.25888323648E+03  0.26427349804E+03  0.00000000000E+00 0. -1.
        -11    1    5    5    0    0  0.43914811295E+02  0.16064352315E+03  0.10674820432E+04  0.10803947263E+04  0.00000000000E+00 0.  1.
          3    1    6    6  503    0 -0.20963904772E+02 -0.17662779622E+03  0.86926182830E+02  0.19797228331E+03  0.00000000000E+00 0. -1.
         -3    1    6    6    0  503 -0.35999907177E+02 -0.13032517674E+03 -0.83012477409E+01  0.13546053198E+03  0.00000000000E+00 0.  1.
<mgrwt>
<rscale>  0 0.17039606E+04</rscale>
<asrwt>0</asrwt>
<pdfrwt beam="1">  1        1 0.23997137E+00 0.17039606E+04</pdfrwt>
<pdfrwt beam="2">  1       -2 0.71593397E-01 0.17039606E+04</pdfrwt>
<totfact> 0.87851631E+00</totfact>
</mgrwt>
</event>
<event>
12    4  0.4545512E-008  0.2247711E+04  0.7818608E-02  0.8498828E-01
          1   -1    0    0  501    0  0.00000000000E+00  0.00000000000E+00  0.15015211983E+04  0.15015211983E+04  0.00000000000E+00 0. -1.
         -2   -1    0    0    0  501 -0.00000000000E+00 -0.00000000000E+00 -0.84118094097E+03  0.84118094097E+03  0.00000000000E+00 0.  1.
        -24    2    1    2    0    0  0.61854688727E+03  0.29100271849E+03  0.95337101563E+03  0.11758368594E+04  0.79957442855E+02 0.  0.
        254    2    1    2    0    0 -0.61854688727E+03 -0.29100271849E+03 -0.29303075834E+03  0.11668652798E+04  0.89912441960E+03 0.  0.
         23    2    4    4    0    0 -0.74422355992E+03 -0.18913940795E+03 -0.47447062609E+03  0.90735825913E+03  0.92380802190E+02 0.  0.
         23    2    4    4    0    0  0.12567667265E+03 -0.10186331054E+03  0.18143986775E+03  0.25950702066E+03  0.90844416882E+02 0.  0.
          3    1    3    3  502    0  0.53160448532E+03  0.25135840286E+03  0.76780597207E+03  0.96711446388E+03  0.00000000000E+00 0. -1.
         -4    1    3    3    0  502  0.86942401947E+02  0.39644315625E+02  0.18556504356E+03  0.20872239556E+03  0.00000000000E+00 0.  1.
         11    1    5    5    0    0 -0.20046850078E+03 -0.27549421935E+02 -0.16550667522E+03  0.26141738656E+03  0.00000000000E+00 0.  1.
        -11    1    5    5    0    0 -0.54375505914E+03 -0.16158998602E+03 -0.30896395087E+03  0.64594087257E+03  0.00000000000E+00 0. -1.
          4    1    6    6  503    0  0.49265367953E+02  0.33108393839E+01  0.22747897649E+02  0.54364556325E+02  0.00000000000E+00 0. -1.
         -4    1    6    6    0  503  0.76411304696E+02 -0.10517414992E+03  0.15869197010E+03  0.20514246433E+03  0.00000000000E+00 0.  1.
<mgrwt>
<rscale>  0 0.22477108E+04</rscale>
<asrwt>0</asrwt>
<pdfrwt beam="1">  1        1 0.23100326E+00 0.22477108E+04</pdfrwt>
<pdfrwt beam="2">  1       -2 0.12941245E+00 0.22477108E+04</pdfrwt>
<totfact> 0.22853309E+00</totfact>
</mgrwt>
</event>
<event>
12    4  0.4413110E-008  0.1586762E+04  0.7818608E-02  0.8828722E-01
          1   -1    0    0  501    0  0.00000000000E+00  0.00000000000E+00  0.31885905870E+04  0.31885905870E+04  0.00000000000E+00 0. -1.
         -2   -1    0    0    0  501 -0.00000000000E+00 -0.00000000000E+00 -0.19740813716E+03  0.19740813716E+03  0.00000000000E+00 0.  1.
        -24    2    1    2    0    0  0.18221387527E+03 -0.16030777363E+03 -0.13336844246E+01  0.25553048347E+03  0.79959806424E+02 0.  0.
        254    2    1    2    0    0 -0.18221387527E+03  0.16030777363E+03  0.29925161343E+04  0.31304682407E+04  0.88644126341E+03 0.  0.
         23    2    4    4    0    0  0.95994054284E+02 -0.23156170651E+03  0.20617397246E+04  0.20788731153E+04  0.90039186059E+02 0.  0.
         23    2    4    4    0    0 -0.27820792955E+03  0.39186948014E+03  0.93077640969E+03  0.10515951254E+04  0.92445884038E+02 0.  0.
          3    1    3    3  502    0  0.32062463375E+02 -0.49358109527E+02  0.30259512936E+02  0.66180530800E+02  0.00000000000E+00 0. -1.
         -4    1    3    3    0  502  0.15015141189E+03 -0.11094966410E+03 -0.31593197361E+02  0.18934995267E+03  0.00000000000E+00 0.  1.
         11    1    5    5    0    0  0.32458104146E+02 -0.15516850772E+02  0.16919511081E+03  0.17297770580E+03  0.00000000000E+00 0.  1.
        -11    1    5    5    0    0  0.63535950138E+02 -0.21604485574E+03  0.18925446138E+04  0.19058954095E+04  0.00000000000E+00 0. -1.
          1    1    6    6  503    0 -0.25704729385E+03  0.30291430660E+03  0.77743843825E+03  0.87306409483E+03  0.00000000000E+00 0. -1.
         -1    1    6    6    0  503 -0.21160635705E+02  0.88955173546E+02  0.15333797144E+03  0.17853103061E+03  0.00000000000E+00 0.  1.
<mgrwt>
<rscale>  0 0.15867624E+04</rscale>
<asrwt>0</asrwt>
<pdfrwt beam="1">  1        1 0.49055236E+00 0.15867624E+04</pdfrwt>
<pdfrwt beam="2">  1       -2 0.30370485E-01 0.15867624E+04</pdfrwt>
<totfact> 0.36899722E+00</totfact>
</mgrwt>
</event>
<event>
12    4  0.4413110E-008  0.1410798E+04  0.7818608E-02  0.8946039E-01
          1   -1    0    0  501    0  0.00000000000E+00  0.00000000000E+00  0.15359525573E+04  0.15359525573E+04  0.00000000000E+00 0. -1.
         -2   -1    0    0    0  501 -0.00000000000E+00 -0.00000000000E+00 -0.32396027533E+03  0.32396027533E+03  0.00000000000E+00 0.  1.
        -24    2    1    2    0    0 -0.14109799610E+03 -0.14404276897E+02 -0.14896991338E+03  0.21998507439E+03  0.78008141659E+02 0.  0.
        254    2    1    2    0    0  0.14109799610E+03  0.14404276897E+02  0.13609621953E+04  0.16399277582E+04  0.90389646940E+03 0.  0.
         23    2    4    4    0    0  0.35233451607E+03 -0.77956814711E+02  0.13397836016E+04  0.13903936578E+04  0.89205091813E+02 0.  0.
         23    2    4    4    0    0 -0.21123651997E+03  0.92361091607E+02  0.21178593779E+02  0.24953410046E+03  0.93098312789E+02 0.  0.
          3    1    3    3  502    0  0.75492359445E+01 -0.10022223863E+02 -0.69081894285E+01  0.14323373056E+02  0.00000000000E+00 0. -1.
         -4    1    3    3    0  502 -0.14864723205E+03 -0.43820530335E+01 -0.14206172395E+03  0.20566170133E+03  0.00000000000E+00 0.  1.
         11    1    5    5    0    0  0.20459593808E+03 -0.41471584240E+01  0.67033238419E+03  0.70087245779E+03  0.00000000000E+00 0. -1.
        -11    1    5    5    0    0  0.14773857799E+03 -0.73809656287E+02  0.66945121736E+03  0.68952119998E+03  0.00000000000E+00 0.  1.
          2    1    6    6  503    0 -0.10102988954E+03  0.10596481926E+02  0.43497516456E+02  0.11050501323E+03  0.00000000000E+00 0. -1.
         -2    1    6    6    0  503 -0.11020663043E+03  0.81764609681E+02 -0.22318922678E+02  0.13902908723E+03  0.00000000000E+00 0.  1.
<mgrwt>
<rscale>  0 0.14107978E+04</rscale>
<asrwt>0</asrwt>
<pdfrwt beam="1">  1        1 0.23630039E+00 0.14107978E+04</pdfrwt>
<pdfrwt beam="2">  1       -2 0.49840043E-01 0.14107978E+04</pdfrwt>
<totfact> 0.20114922E+01</totfact>
</mgrwt>
</event>
<event>
12    4  0.4413110E-008  0.1714227E+04  0.7818608E-02  0.8753291E-01
          1   -1    0    0  501    0  0.00000000000E+00  0.00000000000E+00  0.13444633709E+04  0.13444633709E+04  0.00000000000E+00 0. -1.
         -2   -1    0    0    0  501 -0.00000000000E+00 -0.00000000000E+00 -0.54642147275E+03  0.54642147275E+03  0.00000000000E+00 0.  1.
        -24    2    1    2    0    0  0.55041545343E+03 -0.23034549060E+03  0.10109077010E+03  0.61057989591E+03  0.81069409007E+02 0.  0.
        254    2    1    2    0    0 -0.55041545343E+03  0.23034549060E+03  0.69695112808E+03  0.12803049478E+04  0.89298581622E+03 0.  0.
         23    2    4    4    0    0 -0.11194509451E+03  0.47368054860E+03  0.11764862416E+03  0.50882276851E+03  0.90301963901E+02 0.  0.
         23    2    4    4    0    0 -0.43847035892E+03 -0.24333505800E+03  0.57930250393E+03  0.77148217927E+03  0.90139645956E+02 0.  0.
          3    1    3    3  502    0  0.15170040660E+03 -0.97280403654E+02  0.50887439715E+02  0.18725923694E+03  0.00000000000E+00 0. -1.
         -4    1    3    3    0  502  0.39871504682E+03 -0.13306508694E+03  0.50203330390E+02  0.42332065897E+03  0.00000000000E+00 0.  1.
         11    1    5    5    0    0 -0.15499354284E+02  0.23425292826E+03  0.32419021123E+02  0.23699294782E+03  0.00000000000E+00 0.  1.
        -11    1    5    5    0    0 -0.96445740224E+02  0.23942762033E+03  0.85229603033E+02  0.27182982069E+03  0.00000000000E+00 0. -1.
          4    1    6    6  503    0 -0.34732014448E+03 -0.18093890979E+03  0.39247585489E+03  0.55444338621E+03  0.00000000000E+00 0.  1.
         -4    1    6    6    0  503 -0.91150214439E+02 -0.62396148212E+02  0.18682664904E+03  0.21703879306E+03  0.00000000000E+00 0. -1.
<mgrwt>
<rscale>  0 0.17142271E+04</rscale>
<asrwt>0</asrwt>
<pdfrwt beam="1">  1        1 0.20684052E+00 0.17142271E+04</pdfrwt>
<pdfrwt beam="2">  1       -2 0.84064842E-01 0.17142271E+04</pdfrwt>
<totfact> 0.86646758E+00</totfact>
</mgrwt>
</event>
<event>
12    4  0.4413110E-008  0.1619304E+04  0.7818608E-02  0.8808776E-01
          1   -1    0    0  501    0  0.00000000000E+00  0.00000000000E+00  0.35166184035E+03  0.35166184035E+03  0.00000000000E+00 0. -1.
         -2   -1    0    0    0  501 -0.00000000000E+00 -0.00000000000E+00 -0.18641107056E+04  0.18641107056E+04  0.00000000000E+00 0.  1.
        -24    2    1    2    0    0  0.47556524303E+03  0.18163762648E+01 -0.92147509262E+03  0.10400045463E+04  0.79545649460E+02 0.  0.
        254    2    1    2    0    0 -0.47556524303E+03 -0.18163762648E+01 -0.59097377266E+03  0.11757679997E+04  0.89834001891E+03 0.  0.
         23    2    4    4    0    0  0.39341296998E+02 -0.33486820866E+03 -0.48738549867E+02  0.35210803079E+03  0.88995304857E+02 0.  0.
         23    2    4    4    0    0 -0.51490654003E+03  0.33305183239E+03 -0.54223522279E+03  0.82365996892E+03  0.91347903803E+02 0.  0.
          3    1    3    3  502    0  0.43071880440E+03  0.23468896428E+02 -0.80391586607E+03  0.91233228447E+03  0.00000000000E+00 0. -1.
         -4    1    3    3    0  502  0.44846438629E+02 -0.21652520164E+02 -0.11755922656E+03  0.12767226181E+03  0.00000000000E+00 0.  1.
         11    1    5    5    0    0  0.66958519707E+02 -0.21829249506E+03 -0.22252429593E+02  0.22941278819E+03  0.00000000000E+00 0. -1.
        -11    1    5    5    0    0 -0.27617222709E+02 -0.11657571360E+03 -0.26486120273E+02  0.12269524261E+03  0.00000000000E+00 0.  1.
          4    1    6    6  503    0 -0.40838717224E+03  0.23060103570E+03 -0.44664458884E+03  0.64764829102E+03  0.00000000000E+00 0. -1.
         -4    1    6    6    0  503 -0.10651936779E+03  0.10245079669E+03 -0.95590633956E+02  0.17601167790E+03  0.00000000000E+00 0.  1.
<mgrwt>
<rscale>  0 0.16193043E+04</rscale>
<asrwt>0</asrwt>
<pdfrwt beam="1">  1        1 0.54101822E-01 0.16193043E+04</pdfrwt>
<pdfrwt beam="2">  1       -2 0.28678626E+00 0.16193043E+04</pdfrwt>
<totfact> 0.22858457E+00</totfact>
</mgrwt>
</event>
<event>
12    4  0.4413110E-008  0.1244998E+04  0.7818608E-02  0.9074357E-01
         -2   -1    0    0    0  501 -0.00000000000E+00  0.00000000000E+00  0.48393583060E+03  0.48393583060E+03  0.00000000000E+00 0.  1.
          1   -1    0    0  501    0  0.00000000000E+00 -0.00000000000E+00 -0.80073618815E+03  0.80073618815E+03  0.00000000000E+00 0. -1.
        -24    2    1    2    0    0 -0.22936026811E+03 -0.29853195615E+02 -0.25834718039E+03  0.35590108583E+03  0.80155919327E+02 0.  0.
        254    2    1    2    0    0  0.22936026811E+03  0.29853195615E+02 -0.58453177165E+02  0.92877093291E+03  0.89760867087E+03 0.  0.
         23    2    4    4    0    0  0.12998317655E+03 -0.40291258186E+03 -0.16305457362E+03  0.46247785065E+03  0.89804195673E+02 0.  0.
         23    2    4    4    0    0  0.99377091566E+02  0.43276577747E+03  0.10460139646E+03  0.46629308226E+03  0.96569984688E+02 0.  0.
          1    1    3    3  502    0 -0.62481309858E+02 -0.26087028595E+02 -0.12537512255E+03  0.14248988910E+03  0.00000000000E+00 0. -1.
         -2    1    3    3    0  502 -0.16687895825E+03 -0.37661670198E+01 -0.13297205784E+03  0.21341119672E+03  0.00000000000E+00 0.  1.
         11    1    5    5    0    0  0.13087633508E+03 -0.39400138607E+03 -0.14064577762E+03  0.43834568786E+03  0.00000000000E+00 0.  1.
        -11    1    5    5    0    0 -0.89315853644E+00 -0.89111957927E+01 -0.22408796002E+02  0.24132162789E+02  0.00000000000E+00 0. -1.
          1    1    6    6  503    0  0.10499779892E+03  0.26557738846E+03  0.84426059892E+02  0.29779799634E+03  0.00000000000E+00 0. -1.
         -1    1    6    6    0  503 -0.56207073498E+01  0.16718838901E+03  0.20175336566E+02  0.16849508592E+03  0.00000000000E+00 0.  1.
<mgrwt>
<rscale>  0 0.12449979E+04</rscale>
<asrwt>0</asrwt>
<pdfrwt beam="1">  1        1 0.12319018E+00 0.12449979E+04</pdfrwt>
<pdfrwt beam="2">  1       -2 0.74451666E-01 0.12449979E+04</pdfrwt>
<totfact> 0.30975358E+01</totfact>
</mgrwt>
</event>
<event>
12    4  0.4413110E-008  0.1901306E+04  0.7818608E-02  0.8654207E-01
          1   -1    0    0  501    0  0.00000000000E+00  0.00000000000E+00  0.19584054788E+04  0.19584054788E+04  0.00000000000E+00 0. -1.
         -2   -1    0    0    0  501 -0.00000000000E+00 -0.00000000000E+00 -0.46146787097E+03  0.46146787097E+03  0.00000000000E+00 0.  1.
        -24    2    1    2    0    0 -0.28382976782E+03 -0.35759669776E+03 -0.15314377729E+03  0.48808060839E+03  0.79592263528E+02 0.  0.
        254    2    1    2    0    0  0.28382976782E+03  0.35759669776E+03  0.16500813851E+04  0.19317927414E+04  0.89477364889E+03 0.  0.
         23    2    4    4    0    0 -0.13207821045E+03  0.51077672981E+03  0.10668520604E+04  0.11936378674E+04  0.90887393410E+02 0.  0.
         23    2    4    4    0    0  0.41590797827E+03 -0.15318003205E+03  0.58322932470E+03  0.73815487397E+03  0.90953857386E+02 0.  0.
          1    1    3    3  502    0 -0.10262444244E+02 -0.29649975382E+02 -0.30483156262E+02  0.43745418248E+02  0.00000000000E+00 0. -1.
         -2    1    3    3    0  502 -0.27356732357E+03 -0.32794672237E+03 -0.12266062103E+03  0.44433519014E+03  0.00000000000E+00 0.  1.
         11    1    5    5    0    0 -0.12084214070E+03  0.42004022251E+03  0.80080188491E+03  0.91231588300E+03  0.00000000000E+00 0.  1.
        -11    1    5    5    0    0 -0.11236069749E+02  0.90736507304E+02  0.26605017549E+03  0.28132198439E+03  0.00000000000E+00 0. -1.
          1    1    6    6  503    0  0.40509326118E+03 -0.13396284599E+03  0.57142420296E+03  0.71314249213E+03  0.00000000000E+00 0.  1.
         -1    1    6    6    0  503  0.10814717085E+02 -0.19217186065E+02  0.11805121740E+02  0.25012381838E+02  0.00000000000E+00 0. -1.
<mgrwt>
<rscale>  0 0.19013061E+04</rscale>
<asrwt>0</asrwt>
<pdfrwt beam="1">  1        1 0.30129315E+00 0.19013061E+04</pdfrwt>
<pdfrwt beam="2">  1       -2 0.70995058E-01 0.19013061E+04</pdfrwt>
<totfact> 0.47085620E+00</totfact>
</mgrwt>
</event>
<event>
12    4  0.4413110E-008  0.1869321E+04  0.7818608E-02  0.8670280E-01
         -2   -1    0    0    0  501 -0.00000000000E+00  0.00000000000E+00  0.89578608060E+03  0.89578608060E+03  0.00000000000E+00 0.  1.
          1   -1    0    0  501    0  0.00000000000E+00 -0.00000000000E+00 -0.97522221046E+03  0.97522221046E+03  0.00000000000E+00 0. -1.
        -24    2    1    2    0    0  0.12552068672E+03  0.59537496466E+03  0.34821442964E+03  0.70582020445E+03  0.81866236434E+02 0.  0.
        254    2    1    2    0    0 -0.12552068672E+03 -0.59537496466E+03 -0.42765055950E+03  0.11651880866E+04  0.89696793967E+03 0.  0.
         23    2    4    4    0    0  0.94766455245E+02 -0.26963799766E+03  0.23924910786E+03  0.38551732653E+03  0.98479148180E+02 0.  0.
         23    2    4    4    0    0 -0.22028714196E+03 -0.32573696700E+03 -0.66689966736E+03  0.77967076008E+03  0.92197240787E+02 0.  0.
          3    1    3    3  502    0  0.36682515232E+02  0.66947067227E+02  0.26443987692E+02  0.80788620604E+02  0.00000000000E+00 0. -1.
         -4    1    3    3    0  502  0.88838171483E+02  0.52842789743E+03  0.32177044195E+03  0.62503158385E+03  0.00000000000E+00 0.  1.
         11    1    5    5    0    0 -0.73016975864E+01  0.52937005174E+01  0.65730725901E+01  0.11159898570E+02  0.00000000000E+00 0.  1.
        -11    1    5    5    0    0  0.10206815283E+03 -0.27493169817E+03  0.23267603527E+03  0.37435742796E+03  0.00000000000E+00 0. -1.
          1    1    6    6  503    0 -0.19686472494E+03 -0.32208210651E+03 -0.64530543720E+03  0.74760397975E+03  0.00000000000E+00 0. -1.
         -1    1    6    6    0  503 -0.23422417017E+02 -0.36548604879E+01 -0.21594230163E+02  0.32066780326E+02  0.00000000000E+00 0.  1.
<mgrwt>
<rscale>  0 0.18693212E+04</rscale>
<asrwt>0</asrwt>
<pdfrwt beam="1">  1        1 0.15003419E+00 0.18693212E+04</pdfrwt>
<pdfrwt beam="2">  1       -2 0.13781324E+00 0.18693212E+04</pdfrwt>
<totfact> 0.48682553E+00</totfact>
</mgrwt>
</event>
<event>
12    4  0.4413110E-008  0.1331029E+04  0.7818608E-02  0.9005314E-01
         -2   -1    0    0    0  501 -0.00000000000E+00  0.00000000000E+00  0.22826193179E+03  0.22826193179E+03  0.00000000000E+00 0.  1.
          1   -1    0    0  501    0  0.00000000000E+00 -0.00000000000E+00 -0.19403579106E+04  0.19403579106E+04  0.00000000000E+00 0. -1.
        -24    2    1    2    0    0  0.80565479880E+02 -0.69076843239E+01 -0.10169476391E+04  0.10232393793E+04  0.79358767403E+02 0.  0.
        254    2    1    2    0    0 -0.80565479880E+02  0.69076843239E+01 -0.69514833970E+03  0.11453804631E+04  0.90671201515E+03 0.  0.
         23    2    4    4    0    0  0.15440723917E+03 -0.38419389338E+03 -0.45302231454E+03  0.62068723828E+03  0.92611484563E+02 0.  0.
         23    2    4    4    0    0 -0.23497271905E+03  0.39110157770E+03 -0.24212602515E+03  0.52469322482E+03  0.92224429183E+02 0.  0.
          3    1    3    3  502    0  0.32404140224E+02  0.12420436433E+02 -0.77557781974E+03  0.77635381755E+03  0.00000000000E+00 0. -1.
         -4    1    3    3    0  502  0.48161339656E+02 -0.19328120757E+02 -0.24136981937E+03  0.24688556173E+03  0.00000000000E+00 0.  1.
         11    1    5    5    0    0  0.19621980668E+02 -0.37725139656E+02 -0.97150164915E+02  0.10604887001E+03  0.00000000000E+00 0. -1.
        -11    1    5    5    0    0  0.13478525850E+03 -0.34646875372E+03 -0.35587214963E+03  0.51463836827E+03  0.00000000000E+00 0.  1.
          1    1    6    6  503    0 -0.64594934215E+02  0.13918026489E+03 -0.36943142873E+02  0.15782410294E+03  0.00000000000E+00 0. -1.
         -1    1    6    6    0  503 -0.17037778484E+03  0.25192131281E+03 -0.20518288228E+03  0.36686912188E+03  0.00000000000E+00 0.  1.
<mgrwt>
<rscale>  0 0.13310294E+04</rscale>
<asrwt>0</asrwt>
<pdfrwt beam="1">  1        1 0.29851661E+00 0.13310294E+04</pdfrwt>
<pdfrwt beam="2">  1       -2 0.35117220E-01 0.13310294E+04</pdfrwt>
<totfact> 0.21445365E+01</totfact>
</mgrwt>
</event>
<event>
12    4  0.4413110E-008  0.1910467E+04  0.7818608E-02  0.8649664E-01
         -2   -1    0    0    0  501 -0.00000000000E+00  0.00000000000E+00  0.39892186126E+03  0.39892186126E+03  0.00000000000E+00 0.  1.
          1   -1    0    0  501    0  0.00000000000E+00 -0.00000000000E+00 -0.22873423610E+04  0.22873423610E+04  0.00000000000E+00 0. -1.
        -24    2    1    2    0    0 -0.12229797921E+03  0.73059777109E+03 -0.74929189517E+03  0.10565992073E+04  0.78953415700E+02 0.  0.
        254    2    1    2    0    0  0.12229797921E+03 -0.73059777109E+03 -0.11391286045E+04  0.16296650149E+04  0.89970227540E+03 0.  0.
         23    2    4    4    0    0  0.26021813524E+03 -0.76125113218E+03 -0.12012980467E+04  0.14486804107E+04  0.91330011640E+02 0.  0.
         23    2    4    4    0    0 -0.13792015603E+03  0.30653361095E+02  0.62169442194E+02  0.18098460426E+03  0.94492271904E+02 0.  0.
          1    1    3    3  502    0 -0.93854776237E+02  0.51752852386E+03 -0.48034763111E+03  0.71230494786E+03  0.00000000000E+00 0. -1.
         -2    1    3    3    0  502 -0.28443202970E+02  0.21306924722E+03 -0.26894426405E+03  0.34429425943E+03  0.00000000000E+00 0.  1.
         11    1    5    5    0    0  0.19991346581E+03 -0.46862608725E+03 -0.71550678892E+03  0.87836539575E+03  0.00000000000E+00 0. -1.
        -11    1    5    5    0    0  0.60304669425E+02 -0.29262504493E+03 -0.48579125781E+03  0.57031501492E+03  0.00000000000E+00 0.  1.
          1    1    6    6  503    0 -0.14751524079E+03  0.20263269980E+02  0.70310442881E+02  0.16466604007E+03  0.00000000000E+00 0. -1.
         -1    1    6    6    0  503  0.95950847574E+01  0.10390091115E+02 -0.81410006871E+01  0.16318564185E+02  0.00000000000E+00 0.  1.
<mgrwt>
<rscale>  0 0.19104668E+04</rscale>
<asrwt>0</asrwt>
<pdfrwt beam="1">  1        1 0.35189883E+00 0.19104668E+04</pdfrwt>
<pdfrwt beam="2">  1       -2 0.61372593E-01 0.19104668E+04</pdfrwt>
<totfact> 0.38494520E+00</totfact>
</mgrwt>
</event>
<event>
12    4  0.4413110E-008  0.1688246E+04  0.7818608E-02  0.8768097E-01
          1   -1    0    0  501    0  0.00000000000E+00  0.00000000000E+00  0.14063959567E+04  0.14063959567E+04  0.00000000000E+00 0. -1.
         -2   -1    0    0    0  501 -0.00000000000E+00 -0.00000000000E+00 -0.50664496660E+03  0.50664496660E+03  0.00000000000E+00 0.  1.
        -24    2    1    2    0    0 -0.32471265238E+03 -0.50812162435E+03  0.34172949979E+03  0.69759670138E+03  0.78969709388E+02 0.  0.
        254    2    1    2    0    0  0.32471265238E+03  0.50812162435E+03  0.55802149033E+03  0.12154442219E+04  0.89570686119E+03 0.  0.
         23    2    4    4    0    0 -0.28414688685E+03  0.27676982088E+03  0.11643692756E+03  0.42363493866E+03  0.92563578684E+02 0.  0.
         23    2    4    4    0    0  0.60885953923E+03  0.23135180348E+03  0.44158456277E+03  0.79180928327E+03  0.87928490911E+02 0.  0.
          1    1    3    3  502    0 -0.20904709406E+03 -0.30540876063E+03  0.16693655329E+03  0.40600863467E+03  0.00000000000E+00 0. -1.
         -2    1    3    3    0  502 -0.11566555832E+03 -0.20271286372E+03  0.17479294650E+03  0.29158806671E+03  0.00000000000E+00 0.  1.
         11    1    5    5    0    0 -0.18595601394E+03  0.23614981654E+03  0.76911178219E+02  0.31026070378E+03  0.00000000000E+00 0. -1.
        -11    1    5    5    0    0 -0.98190872904E+02  0.40620004340E+02  0.39525749337E+02  0.11337423488E+03  0.00000000000E+00 0.  1.
          1    1    6    6  503    0  0.51686661097E+03  0.22357026691E+03  0.35826485666E+03  0.66744922302E+03  0.00000000000E+00 0. -1.
         -1    1    6    6    0  503  0.91992928252E+02  0.77815365647E+01  0.83319706107E+02  0.12436006025E+03  0.00000000000E+00 0.  1.
<mgrwt>
<rscale>  0 0.16882458E+04</rscale>
<asrwt>0</asrwt>
<pdfrwt beam="1">  1        1 0.21636861E+00 0.16882458E+04</pdfrwt>
<pdfrwt beam="2">  1       -2 0.77945380E-01 0.16882458E+04</pdfrwt>
<totfact> 0.93127121E+00</totfact>
</mgrwt>
</event>
<event>
12    4  0.4413110E-008  0.3139696E+04  0.7818608E-02  0.8204928E-01
          1   -1    0    0  501    0  0.00000000000E+00  0.00000000000E+00  0.19395669511E+04  0.19395669511E+04  0.00000000000E+00 0. -1.
         -2   -1    0    0    0  501 -0.00000000000E+00 -0.00000000000E+00 -0.12706042236E+04  0.12706042236E+04  0.00000000000E+00 0.  1.
        -24    2    1    2    0    0 -0.24950511763E+03  0.10325675949E+04  0.12996674799E+04  0.16807166699E+04  0.84996025983E+02 0.  0.
        254    2    1    2    0    0  0.24950511763E+03 -0.10325675949E+04 -0.63070475240E+03  0.15294545049E+04  0.90166177472E+03 0.  0.
         23    2    4    4    0    0  0.41716311264E+03 -0.11066822458E+04 -0.51740565619E+03  0.12940755713E+04  0.90290174005E+02 0.  0.
         23    2    4    4    0    0 -0.16765799501E+03  0.74114650922E+02 -0.11329909621E+03  0.23537893352E+03  0.94680369533E+02 0.  0.
          3    1    3    3  502    0 -0.23243677235E+03  0.90328695684E+03  0.11762354737E+04  0.15011609071E+04  0.00000000000E+00 0. -1.
         -4    1    3    3    0  502 -0.17068345282E+02  0.12928063807E+03  0.12343200620E+03  0.17955576277E+03  0.00000000000E+00 0.  1.
         11    1    5    5    0    0  0.30618740534E+03 -0.89273180240E+03 -0.43655932302E+03  0.10398580868E+04  0.00000000000E+00 0.  1.
        -11    1    5    5    0    0  0.11097570730E+03 -0.21395044343E+03 -0.80846333178E+02  0.25421748453E+03  0.00000000000E+00 0. -1.
          1    1    6    6  503    0 -0.85270962544E+01  0.97953945726E+01 -0.51249375917E+02  0.52869269498E+02  0.00000000000E+00 0. -1.
         -1    1    6    6    0  503 -0.15913089875E+03  0.64319256349E+02 -0.62049720291E+02  0.18250966403E+03  0.00000000000E+00 0.  1.
<mgrwt>
<rscale>  0 0.31396955E+04</rscale>
<asrwt>0</asrwt>
<pdfrwt beam="1">  1        1 0.29839492E+00 0.31396955E+04</pdfrwt>
<pdfrwt beam="2">  1       -2 0.19547757E+00 0.31396955E+04</pdfrwt>
<totfact> 0.34498571E-01</totfact>
</mgrwt>
</event>
<event>
12    4  0.4413110E-008  0.1297448E+04  0.7818608E-02  0.9031591E-01
         -2   -1    0    0    0  501 -0.00000000000E+00  0.00000000000E+00  0.87294352145E+03  0.87294352145E+03  0.00000000000E+00 0.  1.
          1   -1    0    0  501    0  0.00000000000E+00 -0.00000000000E+00 -0.48209629597E+03  0.48209629597E+03  0.00000000000E+00 0. -1.
        -24    2    1    2    0    0 -0.17564746832E+03 -0.27701953730E+03  0.11376065506E+03  0.35692178262E+03  0.82824000734E+02 0.  0.
        254    2    1    2    0    0  0.17564746832E+03  0.27701953730E+03  0.27708657042E+03  0.99811803479E+03  0.90103872653E+03 0.  0.
         23    2    4    4    0    0  0.22161636485E+03 -0.11714685554E+02  0.54252609080E+03  0.59289116608E+03  0.89074848237E+02 0.  0.
         23    2    4    4    0    0 -0.45968896532E+02  0.28873422285E+03 -0.26543952038E+03  0.40522686871E+03  0.90940009099E+02 0.  0.
          1    1    3    3  502    0 -0.22775314422E+02 -0.50798225353E+02 -0.10983466706E+02  0.56743380115E+02  0.00000000000E+00 0. -1.
         -2    1    3    3    0  502 -0.15287215390E+03 -0.22622131194E+03  0.12474412177E+03  0.30017840251E+03  0.00000000000E+00 0.  1.
         11    1    5    5    0    0  0.57473712789E+02  0.31669959641E+02  0.20192560353E+03  0.21232089715E+03  0.00000000000E+00 0.  1.
        -11    1    5    5    0    0  0.16414265207E+03 -0.43384645194E+02  0.34060048727E+03  0.38057026893E+03  0.00000000000E+00 0. -1.
          1    1    6    6  503    0 -0.73002253009E+02  0.22070061680E+03 -0.19156466853E+03  0.30122269740E+03  0.00000000000E+00 0. -1.
         -1    1    6    6    0  503  0.27033356477E+02  0.68033606048E+02 -0.73874851853E+02  0.10400417131E+03  0.00000000000E+00 0.  1.
<mgrwt>
<rscale>  0 0.12974480E+04</rscale>
<asrwt>0</asrwt>
<pdfrwt beam="1">  1        1 0.74168661E-01 0.12974480E+04</pdfrwt>
<pdfrwt beam="2">  1       -2 0.13429900E+00 0.12974480E+04</pdfrwt>
<totfact> 0.16000628E+01</totfact>
</mgrwt>
</event>
<event>
12    4  0.4413110E-008  0.2163466E+04  0.7818608E-02  0.8533790E-01
          1   -1    0    0  501    0  0.00000000000E+00  0.00000000000E+00  0.26974859162E+04  0.26974859162E+04  0.00000000000E+00 0. -1.
         -2   -1    0    0    0  501 -0.00000000000E+00 -0.00000000000E+00 -0.43379138665E+03  0.43379138665E+03  0.00000000000E+00 0.  1.
        -24    2    1    2    0    0 -0.73342904412E+03 -0.50714352167E+03  0.93777529231E+03  0.12965202217E+04  0.80183988731E+02 0.  0.
        254    2    1    2    0    0  0.73342904412E+03  0.50714352167E+03  0.13259192373E+04  0.18347570812E+04  0.90175329712E+03 0.  0.
         23    2    4    4    0    0  0.81742359405E+03  0.62673150905E+03  0.88385705162E+03  0.13603227587E+04  0.91109842881E+02 0.  0.
         23    2    4    4    0    0 -0.83994549935E+02 -0.11958798738E+03  0.44206218565E+03  0.47443432252E+03  0.91173347354E+02 0.  0.
          1    1    3    3  502    0 -0.28844214885E+02 -0.39268321319E+02  0.39463714185E+02  0.62700674070E+02  0.00000000000E+00 0. -1.
         -2    1    3    3    0  502 -0.70458482923E+03 -0.46787520035E+03  0.89831157813E+03  0.12338195476E+04  0.00000000000E+00 0.  1.
         11    1    5    5    0    0  0.75549405715E+03  0.55129591017E+03  0.78026222993E+03  0.12179932670E+04  0.00000000000E+00 0.  1.
        -11    1    5    5    0    0  0.61929536904E+02  0.75435598874E+02  0.10359482169E+03  0.14232949167E+03  0.00000000000E+00 0. -1.
          1    1    6    6  503    0 -0.48720095468E+02 -0.10688060190E+03  0.22159414871E+03  0.25080087222E+03  0.00000000000E+00 0. -1.
         -1    1    6    6    0  503 -0.35274454468E+02 -0.12707385474E+02  0.22046803693E+03  0.22363345030E+03  0.00000000000E+00 0.  1.
<mgrwt>
<rscale>  0 0.21634659E+04</rscale>
<asrwt>0</asrwt>
<pdfrwt beam="1">  1        1 0.41499782E+00 0.21634659E+04</pdfrwt>
<pdfrwt beam="2">  1       -2 0.66737138E-01 0.21634659E+04</pdfrwt>
<totfact> 0.16339971E+00</totfact>
</mgrwt>
</event>
<event>
12    4  0.4413110E-008  0.2427879E+04  0.7818608E-02  0.8429139E-01
         -2   -1    0    0    0  501 -0.00000000000E+00  0.00000000000E+00  0.61051029249E+03  0.61051029249E+03  0.00000000000E+00 0.  1.
          1   -1    0    0  501    0  0.00000000000E+00 -0.00000000000E+00 -0.24137985548E+04  0.24137985548E+04  0.00000000000E+00 0. -1.
        -24    2    1    2    0    0 -0.50183206438E+03 -0.86959341526E+03 -0.11652546441E+04  0.15402130737E+04  0.80061214940E+02 0.  0.
        254    2    1    2    0    0  0.50183206438E+03  0.86959341526E+03 -0.63803361816E+03  0.14840957735E+04  0.88736984308E+03 0.  0.
         23    2    4    4    0    0  0.30901227997E+03  0.12978745439E+03  0.15357758972E+03  0.37979334811E+03  0.91233429804E+02 0.  0.
         23    2    4    4    0    0  0.19281978440E+03  0.73980596086E+03 -0.79161120788E+03  0.11043024254E+04  0.91341192017E+02 0.  0.
          1    1    3    3  502    0 -0.29562073413E+03 -0.48951115139E+03 -0.60497186206E+03  0.83246846166E+03  0.00000000000E+00 0. -1.
         -2    1    3    3    0  502 -0.20621133024E+03 -0.38008226387E+03 -0.56028278205E+03  0.70774461205E+03  0.00000000000E+00 0.  1.
         11    1    5    5    0    0  0.25502856815E+03  0.14212316367E+03  0.13076685962E+03  0.31990394777E+03  0.00000000000E+00 0.  1.
        -11    1    5    5    0    0  0.53983711827E+02 -0.12335709276E+02  0.22810730101E+02  0.59889400346E+02  0.00000000000E+00 0. -1.
          1    1    6    6  503    0  0.18503088149E+03  0.62171835681E+03 -0.63239784167E+03  0.90592338111E+03  0.00000000000E+00 0. -1.
         -1    1    6    6    0  503  0.77889029114E+01  0.11808760405E+03 -0.15921336621E+03  0.19837904430E+03  0.00000000000E+00 0.  1.
<mgrwt>
<rscale>  0 0.24278788E+04</rscale>
<asrwt>0</asrwt>
<pdfrwt beam="1">  1        1 0.37135363E+00 0.24278788E+04</pdfrwt>
<pdfrwt beam="2">  1       -2 0.93924658E-01 0.24278788E+04</pdfrwt>
<totfact> 0.11687535E+00</totfact>
</mgrwt>
</event>
<event>
12    4  0.4413110E-008  0.1126065E+04  0.7818608E-02  0.9180153E-01
          1   -1    0    0  501    0  0.00000000000E+00  0.00000000000E+00  0.78386142380E+03  0.78386142380E+03  0.00000000000E+00 0. -1.
         -2   -1    0    0    0  501 -0.00000000000E+00 -0.00000000000E+00 -0.40441525422E+03  0.40441525422E+03  0.00000000000E+00 0.  1.
        -24    2    1    2    0    0 -0.55697559998E+02  0.88202756745E+01 -0.11713376312E+03  0.15322335218E+03  0.81099085925E+02 0.  0.
        254    2    1    2    0    0  0.55697559998E+02 -0.88202756745E+01  0.49657993270E+03  0.10350533258E+04  0.90640153482E+03 0.  0.
         23    2    4    4    0    0 -0.21619704677E+03 -0.27930775089E+03 -0.42047666403E+02  0.36755698591E+03  0.92607499132E+02 0.  0.
         23    2    4    4    0    0  0.27189460677E+03  0.27048747522E+03  0.53862759910E+03  0.66749633993E+03  0.91331932357E+02 0.  0.
          3    1    3    3  502    0  0.14894897429E+02  0.11986807349E+02 -0.35398729706E+01  0.19444079317E+02  0.00000000000E+00 0. -1.
         -4    1    3    3    0  502 -0.70592457427E+02 -0.31665316748E+01 -0.11359389015E+03  0.13377927287E+03  0.00000000000E+00 0.  1.
         11    1    5    5    0    0 -0.21319043109E+03 -0.24463313117E+03 -0.17495905206E+02  0.32496405259E+03  0.00000000000E+00 0. -1.
        -11    1    5    5    0    0 -0.30066156824E+01 -0.34674619720E+02 -0.24551761197E+02  0.42592933316E+02  0.00000000000E+00 0.  1.
          4    1    6    6  503    0  0.18871254545E+03  0.23279251413E+03  0.44676788620E+03  0.53796498361E+03  0.00000000000E+00 0. -1.
         -4    1    6    6    0  503  0.83182061327E+02  0.37694961084E+02  0.91859712899E+02  0.12953135633E+03  0.00000000000E+00 0.  1.
<mgrwt>
<rscale>  0 0.11260649E+04</rscale>
<asrwt>0</asrwt>
<pdfrwt beam="1">  1        1 0.12059406E+00 0.11260649E+04</pdfrwt>
<pdfrwt beam="2">  1       -2 0.62217732E-01 0.11260649E+04</pdfrwt>
<totfact> 0.47744190E+01</totfact>
</mgrwt>
</event>
<event>
12    4  0.4413110E-008  0.1108527E+04  0.7818608E-02  0.9196921E-01
          1   -1    0    0  501    0  0.00000000000E+00  0.00000000000E+00  0.89487975920E+03  0.89487975920E+03  0.00000000000E+00 0. -1.
         -2   -1    0    0    0  501 -0.00000000000E+00 -0.00000000000E+00 -0.34329520788E+03  0.34329520788E+03  0.00000000000E+00 0.  1.
        -24    2    1    2    0    0  0.74440730277E+02  0.93324991557E+01  0.25815707464E+03  0.29076218593E+03  0.11076576961E+03 0.  0.
        254    2    1    2    0    0 -0.74440730277E+02 -0.93324991557E+01  0.29342747668E+03  0.94741278115E+03  0.89769859972E+03 0.  0.
         23    2    4    4    0    0 -0.45562666252E+03  0.85471720834E+02  0.52827413296E+02  0.47786442493E+03  0.10325987776E+03 0.  0.
         23    2    4    4    0    0  0.38118593224E+03 -0.94804219990E+02  0.24060006338E+03  0.46954835622E+03  0.91086295700E+02 0.  0.
          3    1    3    3  502    0  0.43769260236E+02  0.21391371097E+02  0.25270421398E+03  0.25735725881E+03  0.00000000000E+00 0. -1.
         -4    1    3    3    0  502  0.30671470040E+02 -0.12058871941E+02  0.54528606645E+01  0.33404927127E+02  0.00000000000E+00 0.  1.
         11    1    5    5    0    0 -0.10015121296E+03 -0.83151277068E+01  0.45079343348E+02  0.11014333390E+03  0.00000000000E+00 0. -1.
        -11    1    5    5    0    0 -0.35547544955E+03  0.93786848541E+02  0.77480699481E+01  0.36772109102E+03  0.00000000000E+00 0.  1.
          3    1    6    6  503    0  0.32338584548E+02 -0.13470576337E+02  0.57323288212E+02  0.67180353146E+02  0.00000000000E+00 0. -1.
         -3    1    6    6    0  503  0.34884734769E+03 -0.81333643653E+02  0.18327677517E+03  0.40236800307E+03  0.00000000000E+00 0.  1.
<mgrwt>
<rscale>  0 0.11085268E+04</rscale>
<asrwt>0</asrwt>
<pdfrwt beam="1">  1        1 0.13767381E+00 0.11085268E+04</pdfrwt>
<pdfrwt beam="2">  1       -2 0.52814648E-01 0.11085268E+04</pdfrwt>
<totfact> 0.54234231E+01</totfact>
</mgrwt>
</event>
<event>
12    4  0.4413110E-008  0.2554369E+04  0.7818608E-02  0.8383868E-01
          1   -1    0    0  501    0  0.00000000000E+00  0.00000000000E+00  0.95309879866E+03  0.95309879866E+03  0.00000000000E+00 0. -1.
         -2   -1    0    0    0  501 -0.00000000000E+00 -0.00000000000E+00 -0.17114709086E+04  0.17114709086E+04  0.00000000000E+00 0.  1.
        -24    2    1    2    0    0 -0.27420673548E+03  0.35337774936E+03  0.73722752443E+03  0.86585085474E+03  0.78282260787E+02 0.  0.
        254    2    1    2    0    0  0.27420673548E+03 -0.35337774936E+03 -0.14955996344E+04  0.17987188525E+04  0.89359167218E+03 0.  0.
         23    2    4    4    0    0  0.28224612641E+03 -0.36090989969E+03 -0.15957008266E+04  0.16627369342E+04  0.92272166631E+02 0.  0.
         23    2    4    4    0    0 -0.80393909283E+01  0.75321503262E+01  0.10010119220E+03  0.13598191837E+03  0.91375425294E+02 0.  0.
          1    1    3    3  502    0 -0.23715595851E+03  0.25229788736E+03  0.55224695601E+03  0.65182349838E+03  0.00000000000E+00 0. -1.
         -2    1    3    3    0  502 -0.37050776968E+02  0.10107986201E+03  0.18498056842E+03  0.21402735636E+03  0.00000000000E+00 0.  1.
         11    1    5    5    0    0  0.25047568237E+03 -0.34726598828E+03 -0.15259970349E+04  0.15849286055E+04  0.00000000000E+00 0. -1.
        -11    1    5    5    0    0  0.31770444038E+02 -0.13643911407E+02 -0.69703791731E+02  0.77808328697E+02  0.00000000000E+00 0.  1.
          3    1    6    6  503    0  0.22732717545E+01  0.48614726294E+02  0.63476504319E+02  0.79986411206E+02  0.00000000000E+00 0. -1.
         -3    1    6    6    0  503 -0.10312662683E+02 -0.41082575968E+02  0.36624687884E+02  0.55995507162E+02  0.00000000000E+00 0.  1.
<mgrwt>
<rscale>  0 0.25543695E+04</rscale>
<asrwt>0</asrwt>
<pdfrwt beam="1">  1        1 0.14663059E+00 0.25543695E+04</pdfrwt>
<pdfrwt beam="2">  1       -2 0.26330321E+00 0.25543695E+04</pdfrwt>
<totfact> 0.68063537E-01</totfact>
</mgrwt>
</event>
<event>
12    4  0.4413110E-008  0.1633950E+04  0.7818608E-02  0.8799959E-01
          1   -1    0    0  501    0  0.00000000000E+00  0.00000000000E+00  0.24263149857E+04  0.24263149857E+04  0.00000000000E+00 0. -1.
         -2   -1    0    0    0  501 -0.00000000000E+00 -0.00000000000E+00 -0.27508702116E+03  0.27508702116E+03  0.00000000000E+00 0.  1.
        -24    2    1    2    0    0  0.14944945737E+02 -0.46191728655E+03  0.13049018389E+04  0.13865790324E+04  0.79004257810E+02 0.  0.
        254    2    1    2    0    0 -0.14944945737E+02  0.46191728655E+03  0.84632612566E+03  0.13148229745E+04  0.89381240335E+03 0.  0.
         23    2    4    4    0    0  0.18280426829E+03 -0.21357814500E+03  0.22886655957E+03  0.37390923782E+03  0.91625277663E+02 0.  0.
         23    2    4    4    0    0 -0.19774921403E+03  0.67549543156E+03  0.61745956608E+03  0.94091373672E+03  0.93078002232E+02 0.  0.
          3    1    3    3  502    0  0.40416600410E+02 -0.33002557095E+03  0.98559746497E+03  0.10401695737E+04  0.00000000000E+00 0. -1.
         -4    1    3    3    0  502 -0.25471654673E+02 -0.13189171560E+03  0.31930437396E+03  0.34640945868E+03  0.00000000000E+00 0.  1.
         11    1    5    5    0    0  0.18142494068E+03 -0.16594892901E+03  0.20732332708E+03  0.32161625906E+03  0.00000000000E+00 0. -1.
        -11    1    5    5    0    0  0.13793276075E+01 -0.47629215996E+02  0.21543232490E+02  0.52292978756E+02  0.00000000000E+00 0.  1.
          4    1    6    6  503    0 -0.14738479346E+02  0.18524381857E+02  0.48083773340E+01  0.24155661639E+02  0.00000000000E+00 0.  1.
         -4    1    6    6    0  503 -0.18301073468E+03  0.65697104970E+03  0.61265118875E+03  0.91675807508E+03  0.00000000000E+00 0. -1.
<mgrwt>
<rscale>  0 0.16339495E+04</rscale>
<asrwt>0</asrwt>
<pdfrwt beam="1">  1        1 0.37327922E+00 0.16339495E+04</pdfrwt>
<pdfrwt beam="2">  1       -2 0.42321082E-01 0.16339495E+04</pdfrwt>
<totfact> 0.67856099E+00</totfact>
</mgrwt>
</event>
<event>
12    4  0.4413110E-008  0.1957898E+04  0.7818608E-02  0.8626562E-01
          1   -1    0    0  501    0  0.00000000000E+00  0.00000000000E+00  0.13227328075E+04  0.13227328075E+04  0.00000000000E+00 0. -1.
         -2   -1    0    0    0  501 -0.00000000000E+00 -0.00000000000E+00 -0.72451619361E+03  0.72451619361E+03  0.00000000000E+00 0.  1.
        -24    2    1    2    0    0 -0.46315633076E+03 -0.61144285465E+03  0.30045966771E+03  0.82761109126E+03  0.79296628083E+02 0.  0.
        254    2    1    2    0    0  0.46315633076E+03  0.61144285465E+03  0.29775694615E+03  0.12196379098E+04  0.90026733855E+03 0.  0.
         23    2    4    4    0    0  0.11661323924E+01  0.54801530153E+03  0.45644220861E+03  0.71878511002E+03  0.89389115742E+02 0.  0.
         23    2    4    4    0    0  0.46199019837E+03  0.63427553123E+02 -0.15868526246E+03  0.50085279980E+03  0.90633970804E+02 0.  0.
          3    1    3    3  502    0 -0.17176967435E+03 -0.26771387684E+03  0.15693791050E+03  0.35469007405E+03  0.00000000000E+00 0. -1.
         -4    1    3    3    0  502 -0.29138665641E+03 -0.34372897781E+03  0.14352175720E+03  0.47292101720E+03  0.00000000000E+00 0.  1.
         11    1    5    5    0    0  0.32810584714E+02  0.28210412035E+03  0.27492033664E+03  0.39527264096E+03  0.00000000000E+00 0.  1.
        -11    1    5    5    0    0 -0.31644452322E+02  0.26591118118E+03  0.18152187196E+03  0.32351246906E+03  0.00000000000E+00 0. -1.
          4    1    6    6  503    0  0.24314494629E+03  0.45279549667E+02 -0.37845285431E+02  0.25020385320E+03  0.00000000000E+00 0. -1.
         -4    1    6    6    0  503  0.21884525207E+03  0.18148003455E+02 -0.12083997702E+03  0.25064894660E+03  0.00000000000E+00 0.  1.
<mgrwt>
<rscale>  0 0.19578982E+04</rscale>
<asrwt>0</asrwt>
<pdfrwt beam="1">  1        1 0.20349735E+00 0.19578982E+04</pdfrwt>
<pdfrwt beam="2">  1       -2 0.11146403E+00 0.19578982E+04</pdfrwt>
<totfact> 0.45291964E+00</totfact>
</mgrwt>
</event>
<event>
12    4  0.4413110E-008  0.2060858E+04  0.7818608E-02  0.8578685E-01
          1   -1    0    0  501    0  0.00000000000E+00  0.00000000000E+00  0.26123244369E+04  0.26123244369E+04  0.00000000000E+00 0. -1.
         -2   -1    0    0    0  501 -0.00000000000E+00 -0.00000000000E+00 -0.40645161459E+03  0.40645161459E+03  0.00000000000E+00 0.  1.
        -24    2    1    2    0    0  0.66206862759E+03 -0.12559079467E+03  0.17326598163E+03  0.70036957614E+03  0.79928264338E+02 0.  0.
        254    2    1    2    0    0 -0.66206862759E+03  0.12559079467E+03  0.20326068407E+04  0.23184064754E+04  0.88848753555E+03 0.  0.
         23    2    4    4    0    0 -0.60926171695E+03  0.21584902888E+03  0.62630085149E+03  0.90549684855E+03  0.99403939286E+02 0.  0.
         23    2    4    4    0    0 -0.52806910638E+02 -0.90258234204E+02  0.14063059892E+04  0.14129096268E+04  0.87646788961E+02 0.  0.
          3    1    3    3  502    0  0.29653311791E+01 -0.84227080557E-01  0.91838888823E+01  0.96511190131E+01  0.00000000000E+00 0. -1.
         -4    1    3    3    0  502  0.65910329641E+03 -0.12550656759E+03  0.16408209275E+03  0.69071845712E+03  0.00000000000E+00 0.  1.
         11    1    5    5    0    0 -0.54242069672E+03  0.17334528144E+03  0.50788550622E+03  0.76303111749E+03  0.00000000000E+00 0.  1.
        -11    1    5    5    0    0 -0.66841020239E+02  0.42503747437E+02  0.11841534527E+03  0.14246573106E+03  0.00000000000E+00 0. -1.
          2    1    6    6  503    0  0.22564952915E+02 -0.12117332408E+02  0.38450440712E+03  0.38535651797E+03  0.00000000000E+00 0. -1.
         -2    1    6    6    0  503 -0.75371863553E+02 -0.78140901796E+02  0.10218015821E+04  0.10275531088E+04  0.00000000000E+00 0.  1.
<mgrwt>
<rscale>  0 0.20608576E+04</rscale>
<asrwt>0</asrwt>
<pdfrwt beam="1">  1        1 0.40189606E+00 0.20608576E+04</pdfrwt>
<pdfrwt beam="2">  1       -2 0.62531019E-01 0.20608576E+04</pdfrwt>
<totfact> 0.21765937E+00</totfact>
</mgrwt>
</event>
<event>
12    4  0.4413110E-008  0.1409202E+04  0.7818608E-02  0.8947184E-01
          1   -1    0    0  501    0  0.00000000000E+00  0.00000000000E+00  0.35811149407E+03  0.35811149407E+03  0.00000000000E+00 0. -1.
         -2   -1    0    0    0  501 -0.00000000000E+00 -0.00000000000E+00 -0.13863355275E+04  0.13863355275E+04  0.00000000000E+00 0.  1.
        -24    2    1    2    0    0 -0.24669532592E+02  0.21089818351E+03 -0.73652575669E+03  0.77061643889E+03  0.79327649432E+02 0.  0.
        254    2    1    2    0    0  0.24669532592E+02 -0.21089818351E+03 -0.29169827675E+03  0.97383058270E+03  0.90452832431E+03 0.  0.
         23    2    4    4    0    0 -0.41865452483E+02  0.30016906173E+03  0.86677332766E+02  0.32814288462E+03  0.91162552524E+02 0.  0.
         23    2    4    4    0    0  0.66534985075E+02 -0.51106724524E+03 -0.37837560952E+03  0.64568769807E+03  0.90154690233E+02 0.  0.
          3    1    3    3  502    0  0.16425950316E+02  0.32214200900E+02 -0.63613050057E+02  0.73172308430E+02  0.00000000000E+00 0. -1.
         -4    1    3    3    0  502 -0.41095482908E+02  0.17868398261E+03 -0.67291270664E+03  0.69744413046E+03  0.00000000000E+00 0.  1.
         11    1    5    5    0    0 -0.23465180370E+02  0.29434843204E+03  0.72100259646E+02  0.30395733512E+03  0.00000000000E+00 0. -1.
        -11    1    5    5    0    0 -0.18400272113E+02  0.58206296865E+01  0.14577073120E+02  0.24185549498E+02  0.00000000000E+00 0.  1.
          4    1    6    6  503    0  0.21989791205E+02 -0.40399896799E+03 -0.32006435047E+03  0.51588749306E+03  0.00000000000E+00 0. -1.
         -4    1    6    6    0  503  0.44545193870E+02 -0.10706827725E+03 -0.58311259049E+02  0.12980020501E+03  0.00000000000E+00 0.  1.
<mgrwt>
<rscale>  0 0.14092022E+04</rscale>
<asrwt>0</asrwt>
<pdfrwt beam="1">  1        1 0.55094075E-01 0.14092022E+04</pdfrwt>
<pdfrwt beam="2">  1       -2 0.21328239E+00 0.14092022E+04</pdfrwt>
<totfact> 0.64476892E+00</totfact>
</mgrwt>
</event>
<event>
12    4  0.4413110E-008  0.2639385E+04  0.7818608E-02  0.8354945E-01
         -2   -1    0    0    0  501 -0.00000000000E+00  0.00000000000E+00  0.72108402168E+03  0.72108402168E+03  0.00000000000E+00 0.  1.
          1   -1    0    0  501    0  0.00000000000E+00 -0.00000000000E+00 -0.24152363047E+04  0.24152363047E+04  0.00000000000E+00 0. -1.
        -24    2    1    2    0    0  0.19042595246E+03 -0.62534292697E+03 -0.18973607812E+04  0.20079599436E+04  0.67892425675E+02 0.  0.
        254    2    1    2    0    0 -0.19042595246E+03  0.62534292697E+03  0.20320849821E+03  0.11283603827E+04  0.89698809350E+03 0.  0.
         23    2    4    4    0    0  0.25619203630E+03 -0.60416318094E+02  0.11019922536E+03  0.29962252557E+03  0.91352600401E+02 0.  0.
         23    2    4    4    0    0 -0.44661798876E+03  0.68575924507E+03  0.93009272847E+02  0.82873785716E+03  0.91773312980E+02 0.  0.
          1    1    3    3  502    0  0.17641881845E+03 -0.53417713874E+03 -0.16851982147E+04  0.17766152757E+04  0.00000000000E+00 0. -1.
         -2    1    3    3    0  502  0.14007134002E+02 -0.91165788235E+02 -0.21216256653E+03  0.23134466794E+03  0.00000000000E+00 0.  1.
         11    1    5    5    0    0  0.17925980958E+03  0.20696606159E+01  0.65008196792E+02  0.19069459477E+03  0.00000000000E+00 0.  1.
        -11    1    5    5    0    0  0.76932226725E+02 -0.62485978710E+02  0.45191028572E+02  0.10892793080E+03  0.00000000000E+00 0. -1.
          4    1    6    6  503    0 -0.37936180518E+03  0.57447578197E+03  0.11149622832E+03  0.69740175812E+03  0.00000000000E+00 0.  1.
         -4    1    6    6    0  503 -0.67256183576E+02  0.11128346310E+03 -0.18486955468E+02  0.13133609904E+03  0.00000000000E+00 0. -1.
<mgrwt>
<rscale>  0 0.26393850E+04</rscale>
<asrwt>0</asrwt>
<pdfrwt beam="1">  1        1 0.37157482E+00 0.26393850E+04</pdfrwt>
<pdfrwt beam="2">  1       -2 0.11093600E+00 0.26393850E+04</pdfrwt>
<totfact> 0.77011818E-01</totfact>
</mgrwt>
</event>
<event>
12    4  0.4413110E-008  0.1351281E+04  0.7818608E-02  0.8989859E-01
         -4   -1    0    0    0  501 -0.00000000000E+00  0.00000000000E+00  0.58946179831E+03  0.58946179831E+03  0.00000000000E+00 0.  1.
          3   -1    0    0  501    0  0.00000000000E+00 -0.00000000000E+00 -0.77441829254E+03  0.77441829254E+03  0.00000000000E+00 0. -1.
        -24    2    1    2    0    0 -0.13835000448E+03  0.28645840807E+03  0.13763851517E+03  0.35582699872E+03  0.80432262581E+02 0.  0.
        254    2    1    2    0    0  0.13835000448E+03 -0.28645840807E+03 -0.32259500940E+03  0.10080530921E+04  0.90050227827E+03 0.  0.
         23    2    4    4    0    0 -0.22286569143E+03 -0.62569832335E+02  0.20588197595E+03  0.32376609643E+03  0.94090365302E+02 0.  0.
         23    2    4    4    0    0  0.36121569591E+03 -0.22388857574E+03 -0.52847698535E+03  0.68428699570E+03  0.91421524358E+02 0.  0.
          3    1    3    3  502    0 -0.30668018686E+02  0.98122367059E+02  0.82944536333E+02  0.13209209815E+03  0.00000000000E+00 0. -1.
         -2    1    3    3    0  502 -0.10768198580E+03  0.18833604102E+03  0.54693978834E+02  0.22373490056E+03  0.00000000000E+00 0.  1.
         11    1    5    5    0    0 -0.27595138172E+02  0.19528140780E+02  0.51687485564E+02  0.61761121241E+02  0.00000000000E+00 0. -1.
        -11    1    5    5    0    0 -0.19527055326E+03 -0.82097973114E+02  0.15419449039E+03  0.26200497519E+03  0.00000000000E+00 0.  1.
          1    1    6    6  503    0  0.33544783563E+02 -0.95810760318E+00 -0.74176888523E+02  0.81414871279E+02  0.00000000000E+00 0. -1.
         -1    1    6    6    0  503  0.32767091235E+03 -0.22293046814E+03 -0.45430009682E+03  0.60287212442E+03  0.00000000000E+00 0.  1.
<mgrwt>
<rscale>  0 0.13512809E+04</rscale>
<asrwt>0</asrwt>
<pdfrwt beam="1">  1        3 0.11914128E+00 0.13512809E+04</pdfrwt>
<pdfrwt beam="2">  1       -4 0.90686431E-01 0.13512809E+04</pdfrwt>
<totfact> 0.13403180E+00</totfact>
</mgrwt>
</event>
<event>
12    4  0.4413110E-008  0.2260196E+04  0.7818608E-02  0.8493783E-01
         -2   -1    0    0    0  501 -0.00000000000E+00  0.00000000000E+00  0.12986391219E+04  0.12986391219E+04  0.00000000000E+00 0.  1.
          1   -1    0    0  501    0  0.00000000000E+00 -0.00000000000E+00 -0.98343063368E+03  0.98343063368E+03  0.00000000000E+00 0. -1.
        -24    2    1    2    0    0  0.90951549211E+02  0.94503732839E+03  0.21458604839E+03  0.97662230861E+03  0.79851269009E+02 0.  0.
        254    2    1    2    0    0 -0.90951549211E+02 -0.94503732839E+03  0.10062243983E+03  0.13054474470E+04  0.89033725354E+03 0.  0.
         23    2    4    4    0    0 -0.21107530443E+03 -0.94252621387E+03  0.33559639724E+03  0.10266613517E+04  0.92196210106E+02 0.  0.
         23    2    4    4    0    0  0.12012375521E+03 -0.25111145154E+01 -0.23497395741E+03  0.27878609532E+03  0.89849340656E+02 0.  0.
          3    1    3    3  502    0  0.56520034051E+02  0.37402617789E+03  0.51365823770E+02  0.38174408162E+03  0.00000000000E+00 0. -1.
         -4    1    3    3    0  502  0.34431515160E+02  0.57101115049E+03  0.16322022462E+03  0.59487822699E+03  0.00000000000E+00 0.  1.
         11    1    5    5    0    0 -0.10097472735E+03 -0.56223828672E+03  0.15754492990E+03  0.59256070706E+03  0.00000000000E+00 0.  1.
        -11    1    5    5    0    0 -0.11010057707E+03 -0.38028792715E+03  0.17805146734E+03  0.43410064459E+03  0.00000000000E+00 0. -1.
          1    1    6    6  503    0  0.96991958075E+02 -0.71909509978E+01 -0.91999933204E+02  0.13387732227E+03  0.00000000000E+00 0. -1.
         -1    1    6    6    0  503  0.23131797139E+02  0.46798364824E+01 -0.14297402421E+03  0.14490877305E+03  0.00000000000E+00 0.  1.
<mgrwt>
<rscale>  0 0.22601960E+04</rscale>
<asrwt>0</asrwt>
<pdfrwt beam="1">  1        1 0.15129702E+00 0.22601960E+04</pdfrwt>
<pdfrwt beam="2">  1       -2 0.19979063E+00 0.22601960E+04</pdfrwt>
<totfact> 0.16540355E+00</totfact>
</mgrwt>
</event>
<event>
12    4  0.4413110E-008  0.2323004E+04  0.7818608E-02  0.8468906E-01
          1   -1    0    0  501    0  0.00000000000E+00  0.00000000000E+00  0.16329299060E+04  0.16329299060E+04  0.00000000000E+00 0. -1.
         -2   -1    0    0    0  501 -0.00000000000E+00 -0.00000000000E+00 -0.82617591603E+03  0.82617591603E+03  0.00000000000E+00 0.  1.
        -24    2    1    2    0    0  0.24146474772E+03  0.93027658865E+03  0.57889208527E+03  0.11248517314E+04  0.80346844101E+02 0.  0.
        254    2    1    2    0    0 -0.24146474772E+03 -0.93027658865E+03  0.22786190466E+03  0.13342540906E+04  0.89699117890E+03 0.  0.
         23    2    4    4    0    0 -0.56260208224E+02 -0.82039159761E+03 -0.19559513659E+03  0.85064087804E+03  0.95524140730E+02 0.  0.
         23    2    4    4    0    0 -0.18520453950E+03 -0.10988499103E+03  0.42345704126E+03  0.48361321261E+03  0.90501054747E+02 0.  0.
          3    1    3    3  502    0  0.24505913988E+03  0.90416149446E+03  0.55262598226E+03  0.10876384815E+04  0.00000000000E+00 0. -1.
         -4    1    3    3    0  502 -0.35943921576E+01  0.26115094182E+02  0.26266103011E+02  0.37213249878E+02  0.00000000000E+00 0.  1.
         11    1    5    5    0    0 -0.23396700900E+02 -0.52532120090E+02 -0.28248904368E+02  0.64070506882E+02  0.00000000000E+00 0.  1.
        -11    1    5    5    0    0 -0.32863507324E+02 -0.76785947752E+03 -0.16734623222E+03  0.78657037115E+03  0.00000000000E+00 0. -1.
          4    1    6    6  503    0 -0.14550363193E+03 -0.83571271314E+02  0.39235185504E+03  0.42672642577E+03  0.00000000000E+00 0. -1.
         -4    1    6    6    0  503 -0.39700907567E+02 -0.26313719720E+02  0.31105186216E+02  0.56886786838E+02  0.00000000000E+00 0.  1.
<mgrwt>
<rscale>  0 0.23230044E+04</rscale>
<asrwt>0</asrwt>
<pdfrwt beam="1">  1        1 0.25121999E+00 0.23230044E+04</pdfrwt>
<pdfrwt beam="2">  1       -2 0.12710399E+00 0.23230044E+04</pdfrwt>
<totfact> 0.19293464E+00</totfact>
</mgrwt>
</event>
<event>
12    4  0.4413110E-008  0.1650530E+04  0.7818608E-02  0.8790093E-01
          1   -1    0    0  501    0  0.00000000000E+00  0.00000000000E+00  0.95882257151E+03  0.95882257151E+03  0.00000000000E+00 0. -1.
         -2   -1    0    0    0  501 -0.00000000000E+00 -0.00000000000E+00 -0.71031131919E+03  0.71031131919E+03  0.00000000000E+00 0.  1.
        -24    2    1    2    0    0  0.33307064230E+03  0.88186227466E+02 -0.37638897023E+03  0.51647716983E+03  0.79794401851E+02 0.  0.
        254    2    1    2    0    0 -0.33307064230E+03 -0.88186227466E+02  0.62490022255E+03  0.11526567209E+04  0.90520956940E+03 0.  0.
         23    2    4    4    0    0 -0.58953873946E+03 -0.22628747681E+03  0.29698112618E+03  0.70385777379E+03  0.91956668761E+02 0.  0.
         23    2    4    4    0    0  0.25646809716E+03  0.13810124935E+03  0.32791909636E+03  0.44879894707E+03  0.95087965623E+02 0.  0.
          3    1    3    3  502    0  0.15532122026E+02  0.24059100072E+02 -0.20434114074E+02  0.35180109848E+02  0.00000000000E+00 0. -1.
         -4    1    3    3    0  502  0.31753852028E+03  0.64127127394E+02 -0.35595485616E+03  0.48129705998E+03  0.00000000000E+00 0.  1.
         11    1    5    5    0    0 -0.71216110947E+02 -0.60283431519E+02  0.54212961328E+02  0.10791140695E+03  0.00000000000E+00 0.  1.
        -11    1    5    5    0    0 -0.51832262851E+03 -0.16600404530E+03  0.24276816486E+03  0.59594636684E+03  0.00000000000E+00 0. -1.
          3    1    6    6  503    0  0.25405608782E+03  0.13139088056E+03  0.27968183064E+03  0.40003748029E+03  0.00000000000E+00 0. -1.
         -3    1    6    6    0  503  0.24120093413E+01  0.67103687919E+01  0.48237265721E+02  0.48761466781E+02  0.00000000000E+00 0.  1.
<mgrwt>
<rscale>  0 0.16505302E+04</rscale>
<asrwt>0</asrwt>
<pdfrwt beam="1">  1        1 0.14751117E+00 0.16505302E+04</pdfrwt>
<pdfrwt beam="2">  1       -2 0.10927866E+00 0.16505302E+04</pdfrwt>
<totfact> 0.91180862E+00</totfact>
</mgrwt>
</event>
<event>
12    4  0.4413110E-008  0.2273950E+04  0.7818608E-02  0.8488264E-01
         -2   -1    0    0    0  501 -0.00000000000E+00  0.00000000000E+00  0.15067881411E+04  0.15067881411E+04  0.00000000000E+00 0.  1.
          1   -1    0    0  501    0  0.00000000000E+00 -0.00000000000E+00 -0.85792545212E+03  0.85792545212E+03  0.00000000000E+00 0. -1.
        -24    2    1    2    0    0  0.59188770617E+03 -0.37981806008E+03  0.94347970387E+03  0.11789928307E+04  0.72645217596E+02 0.  0.
        254    2    1    2    0    0 -0.59188770617E+03  0.37981806008E+03 -0.29461701486E+03  0.11857207626E+04  0.90804279962E+03 0.  0.
         23    2    4    4    0    0 -0.70723084703E+03  0.48378411764E+03 -0.42769528714E+03  0.96207735997E+03  0.91907804095E+02 0.  0.
         23    2    4    4    0    0  0.11534314086E+03 -0.10396605756E+03  0.13307827228E+03  0.22364340263E+03  0.90518305973E+02 0.  0.
          3    1    3    3  502    0  0.21373144750E+03 -0.13421057229E+03  0.28197997804E+03  0.37842610557E+03  0.00000000000E+00 0. -1.
         -4    1    3    3    0  502  0.37815625867E+03 -0.24560748779E+03  0.66149972584E+03  0.80056672508E+03  0.00000000000E+00 0.  1.
         11    1    5    5    0    0 -0.59295767817E+02  0.21512332958E+02 -0.52847632364E+02  0.82289979930E+02  0.00000000000E+00 0.  1.
        -11    1    5    5    0    0 -0.64793507921E+03  0.46227178468E+03 -0.37484765478E+03  0.87978738004E+03  0.00000000000E+00 0. -1.
          4    1    6    6  503    0  0.12118947808E+03 -0.91882237675E+02  0.14155532314E+03  0.20776704432E+03  0.00000000000E+00 0. -1.
         -4    1    6    6    0  503 -0.58463372157E+01 -0.12083819884E+02 -0.84770508560E+01  0.15876358306E+02  0.00000000000E+00 0.  1.
<mgrwt>
<rscale>  0 0.22739498E+04</rscale>
<asrwt>0</asrwt>
<pdfrwt beam="1">  1        1 0.13198853E+00 0.22739498E+04</pdfrwt>
<pdfrwt beam="2">  1       -2 0.23181356E+00 0.22739498E+04</pdfrwt>
<totfact> 0.13042231E+00</totfact>
</mgrwt>
</event>
<event>
12    4  0.4413110E-008  0.1612835E+04  0.7818608E-02  0.8812701E-01
         -2   -1    0    0    0  501 -0.00000000000E+00  0.00000000000E+00  0.79848530978E+03  0.79848530978E+03  0.00000000000E+00 0.  1.
          1   -1    0    0  501    0  0.00000000000E+00 -0.00000000000E+00 -0.81442875719E+03  0.81442875719E+03  0.00000000000E+00 0. -1.
        -24    2    1    2    0    0  0.34737019687E+03 -0.15767305234E+03 -0.41145267841E+03  0.56707376902E+03  0.82173644402E+02 0.  0.
        254    2    1    2    0    0 -0.34737019687E+03  0.15767305234E+03  0.39550923100E+03  0.10458402980E+04  0.88984691488E+03 0.  0.
         23    2    4    4    0    0 -0.38619840073E+03 -0.25726043583E+03  0.39879611873E+03  0.61867324628E+03  0.91575677837E+02 0.  0.
         23    2    4    4    0    0  0.38828203861E+02  0.41493348817E+03 -0.32868877330E+01  0.42716705168E+03  0.93720101328E+02 0.  0.
          1    1    3    3  502    0  0.24235763663E+03 -0.11670062902E+03 -0.34029407170E+03  0.43376988840E+03  0.00000000000E+00 0. -1.
         -2    1    3    3    0  502  0.10501256023E+03 -0.40972423320E+02 -0.71158606708E+02  0.13330388062E+03  0.00000000000E+00 0.  1.
         11    1    5    5    0    0 -0.16455709649E+03 -0.16422805997E+03  0.20326348643E+03  0.30881376038E+03  0.00000000000E+00 0. -1.
        -11    1    5    5    0    0 -0.22164130423E+03 -0.93032375866E+02  0.19553263230E+03  0.30985948589E+03  0.00000000000E+00 0.  1.
          1    1    6    6  503    0  0.17933495219E+02  0.31948419863E+03  0.35687883404E+02  0.32197109877E+03  0.00000000000E+00 0. -1.
         -1    1    6    6    0  503  0.20894708642E+02  0.95449289539E+02 -0.38974771137E+02  0.10519595291E+03  0.00000000000E+00 0.  1.
<mgrwt>
<rscale>  0 0.16128353E+04</rscale>
<asrwt>0</asrwt>
<pdfrwt beam="1">  1        1 0.12529673E+00 0.16128353E+04</pdfrwt>
<pdfrwt beam="2">  1       -2 0.12284389E+00 0.16128353E+04</pdfrwt>
<totfact> 0.90325811E+00</totfact>
</mgrwt>
</event>
<event>
12    4  0.4413110E-008  0.1897971E+04  0.7818608E-02  0.8655867E-01
         -2   -1    0    0    0  501 -0.00000000000E+00  0.00000000000E+00  0.32559570796E+03  0.32559570796E+03  0.00000000000E+00 0.  1.
          1   -1    0    0  501    0  0.00000000000E+00 -0.00000000000E+00 -0.27659247049E+04  0.27659247049E+04  0.00000000000E+00 0. -1.
        -24    2    1    2    0    0  0.40015439713E+03  0.40165878838E+03 -0.17818382399E+04  0.18713435205E+04  0.74335285405E+02 0.  0.
        254    2    1    2    0    0 -0.40015439713E+03 -0.40165878838E+03 -0.65849075703E+03  0.12201768924E+04  0.85660273625E+03 0.  0.
         23    2    4    4    0    0 -0.78682788668E+02 -0.11973895714E+03  0.19704473332E+03  0.25946895788E+03  0.89269894617E+02 0.  0.
         23    2    4    4    0    0 -0.32147160846E+03 -0.28191983124E+03 -0.85553549035E+03  0.96070793449E+03  0.90531617969E+02 0.  0.
          1    1    3    3  502    0  0.22129998762E+03  0.22242510846E+03 -0.11054153104E+04  0.11490820780E+04  0.00000000000E+00 0. -1.
         -2    1    3    3    0  502  0.17885440951E+03  0.17923367991E+03 -0.67642292949E+03  0.72226144252E+03  0.00000000000E+00 0.  1.
         11    1    5    5    0    0 -0.30933544361E+02 -0.30179437830E+00  0.10090302650E+02  0.32539045072E+02  0.00000000000E+00 0. -1.
        -11    1    5    5    0    0 -0.47749244307E+02 -0.11943716276E+03  0.18695443067E+03  0.22692991281E+03  0.00000000000E+00 0.  1.
          4    1    6    6  503    0 -0.15379744692E+03 -0.19273855693E+03 -0.50728483586E+03  0.56403874928E+03  0.00000000000E+00 0. -1.
         -4    1    6    6    0  503 -0.16767416154E+03 -0.89181274310E+02 -0.34825065449E+03  0.39666918520E+03  0.00000000000E+00 0.  1.
<mgrwt>
<rscale>  0 0.18979707E+04</rscale>
<asrwt>0</asrwt>
<pdfrwt beam="1">  1        1 0.42552686E+00 0.18979707E+04</pdfrwt>
<pdfrwt beam="2">  1       -2 0.50091649E-01 0.18979707E+04</pdfrwt>
<totfact> 0.27353977E+00</totfact>
</mgrwt>
</event>
<event>
12    4  0.4413110E-008  0.2645148E+04  0.7818608E-02  0.8353025E-01
          1   -1    0    0  501    0  0.00000000000E+00  0.00000000000E+00  0.13711887907E+04  0.13711887907E+04  0.00000000000E+00 0. -1.
         -2   -1    0    0    0  501 -0.00000000000E+00 -0.00000000000E+00 -0.12756827979E+04  0.12756827979E+04  0.00000000000E+00 0.  1.
        -24    2    1    2    0    0  0.12827560044E+03  0.11600440005E+04  0.55981849161E+02  0.11711450941E+04  0.79310473228E+02 0.  0.
        254    2    1    2    0    0 -0.12827560044E+03 -0.11600440005E+04  0.39524143651E+02  0.14757264944E+04  0.90224709226E+03 0.  0.
         23    2    4    4    0    0 -0.45438245984E+03 -0.99699019632E+03  0.19964808906E+02  0.10994224621E+04  0.88759705282E+02 0.  0.
         23    2    4    4    0    0  0.32610685940E+03 -0.16305380423E+03  0.19559334746E+02  0.37630403227E+03  0.91049054390E+02 0.  0.
          1    1    3    3  502    0  0.13656220521E+03  0.11151263527E+04  0.46040845948E+02  0.11244001858E+04  0.00000000000E+00 0. -1.
         -2    1    3    3    0  502 -0.82866047728E+01  0.44917647890E+02  0.99410032138E+01  0.46744908338E+02  0.00000000000E+00 0.  1.
         11    1    5    5    0    0 -0.44490340514E+03 -0.93198150111E+03  0.86863206132E+01  0.10327652252E+04  0.00000000000E+00 0. -1.
        -11    1    5    5    0    0 -0.94790546962E+01 -0.65008695211E+02  0.11278488293E+02  0.66657236885E+02  0.00000000000E+00 0.  1.
          3    1    6    6  503    0  0.20383224461E+03 -0.12197266130E+03 -0.27216807035E+02  0.23909343076E+03  0.00000000000E+00 0. -1.
         -3    1    6    6    0  503  0.12227461479E+03 -0.41081142924E+02  0.46776141781E+02  0.13721060151E+03  0.00000000000E+00 0.  1.
<mgrwt>
<rscale>  0 0.26451480E+04</rscale>
<asrwt>0</asrwt>
<pdfrwt beam="1">  1        1 0.21095212E+00 0.26451480E+04</pdfrwt>
<pdfrwt beam="2">  1       -2 0.19625889E+00 0.26451480E+04</pdfrwt>
<totfact> 0.87292252E-01</totfact>
</mgrwt>
</event>
<event>
12    4  0.4413110E-008  0.3082892E+04  0.7818608E-02  0.8220449E-01
         -2   -1    0    0    0  501 -0.00000000000E+00  0.00000000000E+00  0.72170660527E+03  0.72170660527E+03  0.00000000000E+00 0.  1.
          1   -1    0    0  501    0  0.00000000000E+00 -0.00000000000E+00 -0.32922732964E+04  0.32922732964E+04  0.00000000000E+00 0. -1.
        -24    2    1    2    0    0  0.10104253527E+04 -0.39090480136E+03 -0.38300762792E+01  0.10863473129E+04  0.79811388594E+02 0.  0.
        254    2    1    2    0    0 -0.10104253527E+04  0.39090480136E+03 -0.25667366149E+04  0.29276325888E+04  0.89951640761E+03 0.  0.
         23    2    4    4    0    0 -0.53003455102E+03 -0.23363739476E+03 -0.13906274117E+04  0.15087854785E+04  0.84059291015E+02 0.  0.
         23    2    4    4    0    0 -0.48039080167E+03  0.62454219611E+03 -0.11761092032E+04  0.14188471103E+04  0.95215479291E+02 0.  0.
          3    1    3    3  502    0  0.10574521940E+03 -0.63748602334E+02  0.13210225225E+02  0.12417908751E+03  0.00000000000E+00 0. -1.
         -4    1    3    3    0  502  0.90468013329E+03 -0.32715619903E+03 -0.17040301504E+02  0.96216822542E+03  0.00000000000E+00 0.  1.
         11    1    5    5    0    0 -0.15486311485E+03 -0.84792954800E+02 -0.33604466407E+03  0.37960301076E+03  0.00000000000E+00 0. -1.
        -11    1    5    5    0    0 -0.37517143617E+03 -0.14884443996E+03 -0.10545827476E+04  0.11291824677E+04  0.00000000000E+00 0.  1.
          2    1    6    6  503    0 -0.81760516277E+02  0.64464909283E+02 -0.19183799318E+03  0.21827121243E+03  0.00000000000E+00 0. -1.
         -2    1    6    6    0  503 -0.39863028539E+03  0.56007728683E+03 -0.98427120998E+03  0.12005758978E+04  0.00000000000E+00 0.  1.
<mgrwt>
<rscale>  0 0.30828917E+04</rscale>
<asrwt>0</asrwt>
<pdfrwt beam="1">  1        1 0.50650359E+00 0.30828917E+04</pdfrwt>
<pdfrwt beam="2">  1       -2 0.11103178E+00 0.30828917E+04</pdfrwt>
<totfact> 0.17280993E-01</totfact>
</mgrwt>
</event>
<event>
12    4  0.4413110E-008  0.1658819E+04  0.7818608E-02  0.8785206E-01
         -4   -1    0    0    0  501 -0.00000000000E+00  0.00000000000E+00  0.89822891259E+03  0.89822891259E+03  0.00000000000E+00 0.  1.
          3   -1    0    0  501    0  0.00000000000E+00 -0.00000000000E+00 -0.76586306880E+03  0.76586306880E+03  0.00000000000E+00 0. -1.
        -24    2    1    2    0    0  0.69487875995E+02 -0.19782700591E+02 -0.53190192142E+03  0.54269843227E+03  0.79887509763E+02 0.  0.
        254    2    1    2    0    0 -0.69487875995E+02  0.19782700591E+02  0.66426776521E+03  0.11213935491E+04  0.90058420371E+03 0.  0.
         23    2    4    4    0    0 -0.41959190816E+02  0.28917736514E+03  0.76088818503E+03  0.82012232285E+03  0.90915741888E+02 0.  0.
         23    2    4    4    0    0 -0.27528685179E+02 -0.26939466455E+03 -0.96620419813E+02  0.30127122628E+03  0.89986290418E+02 0.  0.
          3    1    3    3  502    0  0.86158171750E+02 -0.21861005872E+02 -0.40169216636E+03  0.41140944405E+03  0.00000000000E+00 0. -1.
         -4    1    3    3    0  502 -0.16670295754E+02  0.20783052817E+01 -0.13020975507E+03  0.13128898822E+03  0.00000000000E+00 0.  1.
         11    1    5    5    0    0 -0.24779881632E+02  0.23390939518E+03  0.49549311056E+03  0.54848980875E+03  0.00000000000E+00 0.  1.
        -11    1    5    5    0    0 -0.17179309185E+02  0.55267969960E+02  0.26539507447E+03  0.27163251410E+03  0.00000000000E+00 0. -1.
          4    1    6    6  503    0  0.15258877959E+02 -0.65023535101E+01 -0.15850634192E+02  0.22942461987E+02  0.00000000000E+00 0. -1.
         -4    1    6    6    0  503 -0.42787563138E+02 -0.26289231104E+03 -0.80769785621E+02  0.27832876429E+03  0.00000000000E+00 0.  1.
<mgrwt>
<rscale>  0 0.16588193E+04</rscale>
<asrwt>0</asrwt>
<pdfrwt beam="1">  1        3 0.11782509E+00 0.16588193E+04</pdfrwt>
<pdfrwt beam="2">  1       -4 0.13818906E+00 0.16588193E+04</pdfrwt>
<totfact> 0.47849570E-01</totfact>
</mgrwt>
</event>
<event>
12    4  0.4413110E-008  0.1726505E+04  0.7818608E-02  0.8746390E-01
         -2   -1    0    0    0  501 -0.00000000000E+00  0.00000000000E+00  0.26048126532E+03  0.26048126532E+03  0.00000000000E+00 0.  1.
          1   -1    0    0  501    0  0.00000000000E+00 -0.00000000000E+00 -0.28608765821E+04  0.28608765821E+04  0.00000000000E+00 0. -1.
        -24    2    1    2    0    0  0.59079874955E+02 -0.23468942378E+03  0.93899382381E+02  0.27161325366E+03  0.79919386205E+02 0.  0.
        254    2    1    2    0    0 -0.59079874955E+02  0.23468942378E+03 -0.26942946991E+04  0.28497445937E+04  0.89624258236E+03 0.  0.
         23    2    4    4    0    0 -0.25178433460E+03 -0.23899706080E+03 -0.15789416814E+04  0.16192493282E+04  0.91633004609E+02 0.  0.
         23    2    4    4    0    0  0.19270445965E+03  0.47368648458E+03 -0.11153530177E+04  0.12304952655E+04  0.92694928508E+02 0.  0.
          3    1    3    3  502    0  0.39024257520E+02 -0.12739759195E+03  0.93895723887E+01  0.13357096683E+03  0.00000000000E+00 0. -1.
         -4    1    3    3    0  502  0.20055617435E+02 -0.10729183183E+03  0.84509809992E+02  0.13804228683E+03  0.00000000000E+00 0.  1.
         11    1    5    5    0    0 -0.52661196590E+01 -0.11581039976E+02 -0.18849158910E+03  0.18892043740E+03  0.00000000000E+00 0. -1.
        -11    1    5    5    0    0 -0.24651821494E+03 -0.22741602082E+03 -0.13904500923E+04  0.14303288908E+04  0.00000000000E+00 0.  1.
          4    1    6    6  503    0  0.87532220916E+01  0.46214737158E+01 -0.48183687779E+01  0.11008796209E+02  0.00000000000E+00 0. -1.
         -4    1    6    6    0  503  0.18395123755E+03  0.46906501086E+03 -0.11105346490E+04  0.12194864693E+04  0.00000000000E+00 0.  1.
<mgrwt>
<rscale>  0 0.17265049E+04</rscale>
<asrwt>0</asrwt>
<pdfrwt beam="1">  1        1 0.44013485E+00 0.17265049E+04</pdfrwt>
<pdfrwt beam="2">  1       -2 0.40074042E-01 0.17265049E+04</pdfrwt>
<totfact> 0.37154777E+00</totfact>
</mgrwt>
</event>
<event>
12    4  0.4413110E-008  0.1518273E+04  0.7818608E-02  0.8872392E-01
         -2   -1    0    0    0  501 -0.00000000000E+00  0.00000000000E+00  0.10135585217E+04  0.10135585217E+04  0.00000000000E+00 0.  1.
          1   -1    0    0  501    0  0.00000000000E+00 -0.00000000000E+00 -0.56857887218E+03  0.56857887218E+03  0.00000000000E+00 0. -1.
        -24    2    1    2    0    0  0.34132853307E+03  0.29776916341E+03 -0.40906129801E+02  0.46178117565E+03  0.79980626136E+02 0.  0.
        254    2    1    2    0    0 -0.34132853307E+03 -0.29776916341E+03  0.48588577935E+03  0.11203562183E+04  0.90218702222E+03 0.  0.
         23    2    4    4    0    0 -0.22561323907E+03 -0.16685209331E+03  0.74168548646E+03  0.79811099332E+03  0.90237698078E+02 0.  0.
         23    2    4    4    0    0 -0.11571529400E+03 -0.13091707010E+03 -0.25579970711E+03  0.32224522494E+03  0.88764780893E+02 0.  0.
          3    1    3    3  502    0  0.17516585470E+03  0.19270925032E+03 -0.49142597521E+02  0.26501872896E+03  0.00000000000E+00 0. -1.
         -4    1    3    3    0  502  0.16616267838E+03  0.10505991310E+03  0.82364677197E+01  0.19676244669E+03  0.00000000000E+00 0.  1.
         11    1    5    5    0    0 -0.22845680832E+03 -0.17364288355E+03  0.71516655342E+03  0.77058910153E+03  0.00000000000E+00 0. -1.
        -11    1    5    5    0    0  0.28435692486E+01  0.67907902363E+01  0.26518933041E+02  0.27521891790E+02  0.00000000000E+00 0.  1.
          2    1    6    6  503    0 -0.10842857612E+03 -0.12819710612E+03 -0.26274940021E+03  0.31181485123E+03  0.00000000000E+00 0. -1.
         -2    1    6    6    0  503 -0.72867178844E+01 -0.27199639862E+01  0.69496930974E+01  0.10430373711E+02  0.00000000000E+00 0.  1.
<mgrwt>
<rscale>  0 0.15182727E+04</rscale>
<asrwt>0</asrwt>
<pdfrwt beam="1">  1        1 0.87473673E-01 0.15182727E+04</pdfrwt>
<pdfrwt beam="2">  1       -2 0.15593208E+00 0.15182727E+04</pdfrwt>
<totfact> 0.84406705E+00</totfact>
</mgrwt>
</event>
<event>
12    4  0.4413110E-008  0.1752402E+04  0.7818608E-02  0.8732029E-01
         -2   -1    0    0    0  501 -0.00000000000E+00  0.00000000000E+00  0.16911782993E+04  0.16911782993E+04  0.00000000000E+00 0.  1.
          1   -1    0    0  501    0  0.00000000000E+00 -0.00000000000E+00 -0.45396030686E+03  0.45396030686E+03  0.00000000000E+00 0. -1.
        -24    2    1    2    0    0  0.32440987557E+03  0.37712645654E+03  0.92073780889E+03  0.10499343149E+04  0.84485627907E+02 0.  0.
        254    2    1    2    0    0 -0.32440987557E+03 -0.37712645654E+03  0.31648018355E+03  0.10952042912E+04  0.92295536261E+03 0.  0.
         23    2    4    4    0    0 -0.39050815759E+01  0.46430074500E+02  0.51192829297E+03  0.52193847651E+03  0.90433371303E+02 0.  0.
         23    2    4    4    0    0 -0.32050479400E+03 -0.42355653104E+03 -0.19544810942E+03  0.57326581472E+03  0.91160698177E+02 0.  0.
          3    1    3    3  502    0  0.96557850201E+02  0.11813436363E+03  0.20643657438E+03  0.25670061462E+03  0.00000000000E+00 0. -1.
         -4    1    3    3    0  502  0.22785202537E+03  0.25899209291E+03  0.71430123451E+03  0.79323370029E+03  0.00000000000E+00 0.  1.
         11    1    5    5    0    0 -0.41197664210E+01  0.73873658635E+02  0.39048238173E+03  0.39743022073E+03  0.00000000000E+00 0. -1.
        -11    1    5    5    0    0  0.21468484514E+00 -0.27443584135E+02  0.12144591124E+03  0.12450825578E+03  0.00000000000E+00 0.  1.
          1    1    6    6  503    0 -0.21478263311E+03 -0.33270163389E+03 -0.17268762010E+03  0.43202195640E+03  0.00000000000E+00 0. -1.
         -1    1    6    6    0  503 -0.10572216089E+03 -0.90854897147E+02 -0.22760489324E+02  0.14124385832E+03  0.00000000000E+00 0.  1.
<mgrwt>
<rscale>  0 0.17524016E+04</rscale>
<asrwt>0</asrwt>
<pdfrwt beam="1">  1        1 0.69840048E-01 0.17524016E+04</pdfrwt>
<pdfrwt beam="2">  1       -2 0.26018127E+00 0.17524016E+04</pdfrwt>
<totfact> 0.23344940E+00</totfact>
</mgrwt>
</event>
<event>
12    4  0.4413110E-008  0.1295998E+04  0.7818608E-02  0.9032745E-01
          1   -1    0    0  501    0  0.00000000000E+00  0.00000000000E+00  0.49020855469E+03  0.49020855469E+03  0.00000000000E+00 0. -1.
         -2   -1    0    0    0  501 -0.00000000000E+00 -0.00000000000E+00 -0.85657937182E+03  0.85657937182E+03  0.00000000000E+00 0.  1.
        -24    2    1    2    0    0  0.24907899359E+03  0.65135382816E+01  0.11636657159E+03  0.28690333600E+03  0.81789815976E+02 0.  0.
        254    2    1    2    0    0 -0.24907899359E+03 -0.65135382816E+01 -0.48273738872E+03  0.10598845905E+04  0.91007537462E+03 0.  0.
         23    2    4    4    0    0 -0.43201846264E+03 -0.12904946295E+01  0.90403313477E+02  0.45140722892E+03  0.94626158061E+02 0.  0.
         23    2    4    4    0    0  0.18293946905E+03 -0.52230436521E+01 -0.57314070219E+03  0.60847736159E+03  0.90886223004E+02 0.  0.
          3    1    3    3  502    0  0.15156127199E+03  0.37709999310E+02  0.93378770545E+02  0.18196828846E+03  0.00000000000E+00 0. -1.
         -4    1    3    3    0  502  0.97517721595E+02 -0.31196461028E+02  0.22987801041E+02  0.10493504754E+03  0.00000000000E+00 0.  1.
         11    1    5    5    0    0 -0.35410892433E+03  0.25207825348E+02  0.46212755579E+02  0.35800025632E+03  0.00000000000E+00 0.  1.
        -11    1    5    5    0    0 -0.77909538312E+02 -0.26498319977E+02  0.44190557898E+02  0.93406972593E+02  0.00000000000E+00 0. -1.
          4    1    6    6  503    0  0.29274077817E+02  0.20378080348E+02 -0.42718188548E+02  0.55651427866E+02  0.00000000000E+00 0. -1.
         -4    1    6    6    0  503  0.15366539124E+03 -0.25601124000E+02 -0.53042251365E+03  0.55282593372E+03  0.00000000000E+00 0.  1.
<mgrwt>
<rscale>  0 0.12959977E+04</rscale>
<asrwt>0</asrwt>
<pdfrwt beam="1">  1        1 0.75416701E-01 0.12959977E+04</pdfrwt>
<pdfrwt beam="2">  1       -2 0.13178144E+00 0.12959977E+04</pdfrwt>
<totfact> 0.16413863E+01</totfact>
</mgrwt>
</event>
<event>
12    4  0.4413110E-008  0.2261306E+04  0.7818608E-02  0.8493336E-01
         -2   -1    0    0    0  501 -0.00000000000E+00  0.00000000000E+00  0.55842460113E+03  0.55842460113E+03  0.00000000000E+00 0.  1.
          1   -1    0    0  501    0  0.00000000000E+00 -0.00000000000E+00 -0.22892542133E+04  0.22892542133E+04  0.00000000000E+00 0. -1.
        -24    2    1    2    0    0  0.27653424339E+03 -0.66306238373E+03 -0.14877633736E+04  0.16540814284E+04  0.80141148722E+02 0.  0.
        254    2    1    2    0    0 -0.27653424339E+03  0.66306238373E+03 -0.24306623862E+03  0.11935973860E+04  0.92166729952E+03 0.  0.
         23    2    4    4    0    0  0.21684904273E+03  0.33789373957E+03 -0.40101466641E+03  0.57499447535E+03  0.92791149500E+02 0.  0.
         23    2    4    4    0    0 -0.49338328612E+03  0.32516864416E+03  0.15794842780E+03  0.61860291064E+03  0.92521030304E+02 0.  0.
          1    1    3    3  502    0  0.25933102281E+03 -0.64843604268E+03 -0.14160696997E+04  0.15789158544E+04  0.00000000000E+00 0. -1.
         -2    1    3    3    0  502  0.17203220580E+02 -0.14626341050E+02 -0.71693673833E+02  0.75165574025E+02  0.00000000000E+00 0.  1.
         11    1    5    5    0    0  0.19406530984E+03  0.24745024705E+03 -0.27192317987E+03  0.41573451264E+03  0.00000000000E+00 0. -1.
        -11    1    5    5    0    0  0.22783732892E+02  0.90443492523E+02 -0.12909148654E+03  0.15925996271E+03  0.00000000000E+00 0.  1.
          2    1    6    6  503    0 -0.38900830039E+03  0.25936536129E+03  0.84827501617E+02  0.47517739155E+03  0.00000000000E+00 0. -1.
         -2    1    6    6    0  503 -0.10437498573E+03  0.65803282873E+02  0.73120926180E+02  0.14342551910E+03  0.00000000000E+00 0.  1.
<mgrwt>
<rscale>  0 0.22613057E+04</rscale>
<asrwt>0</asrwt>
<pdfrwt beam="1">  1        1 0.35219295E+00 0.22613057E+04</pdfrwt>
<pdfrwt beam="2">  1       -2 0.85911479E-01 0.22613057E+04</pdfrwt>
<totfact> 0.17737554E+00</totfact>
</mgrwt>
</event>
<event>
12    4  0.4413110E-008  0.2798425E+04  0.7818608E-02  0.8303757E-01
          1   -1    0    0  501    0  0.00000000000E+00  0.00000000000E+00  0.22996431841E+04  0.22996431841E+04  0.00000000000E+00 0. -1.
         -2   -1    0    0    0  501 -0.00000000000E+00 -0.00000000000E+00 -0.85134761264E+03  0.85134761264E+03  0.00000000000E+00 0.  1.
        -24    2    1    2    0    0  0.73158004748E+03 -0.10080029922E+04  0.48351961637E+03  0.13383668142E+04  0.78454521434E+02 0.  0.
        254    2    1    2    0    0 -0.73158004748E+03  0.10080029922E+04  0.96477595503E+03  0.18126239824E+04  0.89640039057E+03 0.  0.
         23    2    4    4    0    0 -0.86854811779E+03  0.64975699164E+03  0.48532228576E+03  0.11917269277E+04  0.90085337613E+02 0.  0.
         23    2    4    4    0    0  0.13696807031E+03  0.35824600054E+03  0.47945366928E+03  0.62089705474E+03  0.92395251044E+02 0.  0.
          1    1    3    3  502    0  0.19989949843E+03 -0.28977927900E+03  0.10023588547E+03  0.36603151879E+03  0.00000000000E+00 0. -1.
         -2    1    3    3    0  502  0.53168054905E+03 -0.71822371318E+03  0.38328373090E+03  0.97233529546E+03  0.00000000000E+00 0.  1.
         11    1    5    5    0    0 -0.81763162453E+03  0.60178077019E+03  0.42994634741E+03  0.11025041635E+04  0.00000000000E+00 0.  1.
        -11    1    5    5    0    0 -0.50916493261E+02  0.47976221451E+02  0.55375938345E+02  0.89222764238E+02  0.00000000000E+00 0. -1.
          2    1    6    6  503    0  0.62816845840E+01 -0.51953699125E+01  0.12375023714E+02  0.14818658565E+02  0.00000000000E+00 0. -1.
         -2    1    6    6    0  503  0.13068638573E+03  0.36344137045E+03  0.46707864557E+03  0.60607839618E+03  0.00000000000E+00 0.  1.
<mgrwt>
<rscale>  0 0.27984251E+04</rscale>
<asrwt>0</asrwt>
<pdfrwt beam="1">  1        1 0.35379126E+00 0.27984251E+04</pdfrwt>
<pdfrwt beam="2">  1       -2 0.13097656E+00 0.27984251E+04</pdfrwt>
<totfact> 0.60408327E-01</totfact>
</mgrwt>
</event>
<event>
12    4  0.4413110E-008  0.2329462E+04  0.7818608E-02  0.8466394E-01
          1   -1    0    0  501    0  0.00000000000E+00  0.00000000000E+00  0.13645066757E+04  0.13645066757E+04  0.00000000000E+00 0. -1.
         -2   -1    0    0    0  501 -0.00000000000E+00 -0.00000000000E+00 -0.99420432840E+03  0.99420432840E+03  0.00000000000E+00 0.  1.
        -24    2    1    2    0    0  0.72481706310E+03 -0.37070491385E+03 -0.40705914475E+03  0.91387960527E+03  0.81834451666E+02 0.  0.
        254    2    1    2    0    0 -0.72481706310E+03  0.37070491385E+03  0.77736149209E+03  0.14448313989E+04  0.90579521618E+03 0.  0.
         23    2    4    4    0    0  0.84121658877E+02  0.35115990040E+03  0.10279416504E+03  0.38741954876E+03  0.95590466366E+02 0.  0.
         23    2    4    4    0    0 -0.80893872198E+03  0.19545013457E+02  0.67456732705E+03  0.10574118501E+04  0.91185955918E+02 0.  0.
          1    1    3    3  502    0  0.13236386050E+03 -0.10281470557E+03 -0.71886372359E+02  0.18236969534E+03  0.00000000000E+00 0. -1.
         -2    1    3    3    0  502  0.59245320260E+03 -0.26789020828E+03 -0.33517277239E+03  0.73150990992E+03  0.00000000000E+00 0.  1.
         11    1    5    5    0    0  0.62361013977E+01  0.10694163757E+03  0.72381712233E+02  0.12928462814E+03  0.00000000000E+00 0. -1.
        -11    1    5    5    0    0  0.77885557479E+02  0.24421826282E+03  0.30412452807E+02  0.25813492062E+03  0.00000000000E+00 0.  1.
          3    1    6    6  503    0 -0.42118773573E+03  0.48789973083E+02  0.38321718022E+03  0.57151988366E+03  0.00000000000E+00 0.  1.
         -3    1    6    6    0  503 -0.38775098625E+03 -0.29244959626E+02  0.29135014682E+03  0.48589196644E+03  0.00000000000E+00 0. -1.
<mgrwt>
<rscale>  0 0.23294621E+04</rscale>
<asrwt>0</asrwt>
<pdfrwt beam="1">  1        1 0.20992410E+00 0.23294621E+04</pdfrwt>
<pdfrwt beam="2">  1       -2 0.15295451E+00 0.23294621E+04</pdfrwt>
<totfact> 0.18321073E+00</totfact>
</mgrwt>
</event>
<event>
12    4  0.4413110E-008  0.1268477E+04  0.7818608E-02  0.9054943E-01
          1   -1    0    0  501    0  0.00000000000E+00  0.00000000000E+00  0.86953028655E+03  0.86953028655E+03  0.00000000000E+00 0. -1.
         -2   -1    0    0    0  501 -0.00000000000E+00 -0.00000000000E+00 -0.46261605432E+03  0.46261605432E+03  0.00000000000E+00 0.  1.
        -24    2    1    2    0    0 -0.17954933408E+03 -0.23323178395E+03 -0.11858047363E+03  0.32696674670E+03  0.78809239978E+02 0.  0.
        254    2    1    2    0    0  0.17954933408E+03  0.23323178395E+03  0.52549470587E+03  0.10051795942E+04  0.80473989726E+03 0.  0.
         23    2    4    4    0    0  0.15452017235E+03  0.47115693027E+03  0.55331093382E+03  0.74854718109E+03  0.91129337907E+02 0.  0.
         23    2    4    4    0    0  0.25029161723E+02 -0.23792514632E+03 -0.27816227952E+02  0.25663241309E+03  0.88609360248E+02 0.  0.
          3    1    3    3  502    0 -0.35580376486E+02 -0.66220979036E+02  0.28774512334E+01  0.75229389078E+02  0.00000000000E+00 0. -1.
         -4    1    3    3    0  502 -0.14396895759E+03 -0.16701080492E+03 -0.12145792487E+03  0.25173735762E+03  0.00000000000E+00 0.  1.
         11    1    5    5    0    0  0.37590538422E+01 -0.25311563511E+01  0.15673176712E+02  0.16315198635E+02  0.00000000000E+00 0.  1.
        -11    1    5    5    0    0  0.15076111851E+03  0.47368808662E+03  0.53763775711E+03  0.73223198245E+03  0.00000000000E+00 0. -1.
          4    1    6    6  503    0 -0.30245335882E+02 -0.11982421348E+03 -0.14147714905E+01  0.12359055003E+03  0.00000000000E+00 0. -1.
         -4    1    6    6    0  503  0.55274497605E+02 -0.11810093284E+03 -0.26401456461E+02  0.13304186306E+03  0.00000000000E+00 0.  1.
<mgrwt>
<rscale>  0 0.12684773E+04</rscale>
<asrwt>0</asrwt>
<pdfrwt beam="1">  1        1 0.13377389E+00 0.12684773E+04</pdfrwt>
<pdfrwt beam="2">  1       -2 0.71171701E-01 0.12684773E+04</pdfrwt>
<totfact> 0.29839642E+01</totfact>
</mgrwt>
</event>
<event>
12    4  0.4413110E-008  0.1895550E+04  0.7818608E-02  0.8657075E-01
         -2   -1    0    0    0  501 -0.00000000000E+00  0.00000000000E+00  0.40899742853E+03  0.40899742853E+03  0.00000000000E+00 0.  1.
          1   -1    0    0  501    0  0.00000000000E+00 -0.00000000000E+00 -0.21962902832E+04  0.21962902832E+04  0.00000000000E+00 0. -1.
        -24    2    1    2    0    0 -0.11179805940E+03 -0.45069023209E+03 -0.14664635487E+04  0.15403957074E+04  0.81750256636E+02 0.  0.
        254    2    1    2    0    0  0.11179805940E+03  0.45069023209E+03 -0.32082930601E+03  0.10648920043E+04  0.90301885135E+03 0.  0.
         23    2    4    4    0    0  0.27445572992E+03  0.64555700827E+03 -0.93682384037E+02  0.71329411938E+03  0.89119655772E+02 0.  0.
         23    2    4    4    0    0 -0.16265767052E+03 -0.19486677618E+03 -0.22714692197E+03  0.35159788495E+03  0.87147979321E+02 0.  0.
          1    1    3    3  502    0 -0.11309486620E+03 -0.43245428125E+03 -0.14430182212E+04  0.15106649995E+04  0.00000000000E+00 0. -1.
         -2    1    3    3    0  502  0.12968067961E+01 -0.18235950840E+02 -0.23445327522E+02  0.29730707921E+02  0.00000000000E+00 0.  1.
         11    1    5    5    0    0  0.26702416574E+03  0.62201576126E+03 -0.72527132310E+02  0.68078314996E+03  0.00000000000E+00 0. -1.
        -11    1    5    5    0    0  0.74315641821E+01  0.23541247014E+02 -0.21155251727E+02  0.32510969423E+02  0.00000000000E+00 0.  1.
          2    1    6    6  503    0 -0.15038916974E+03 -0.17411298527E+03 -0.15995139047E+03  0.28020828205E+03  0.00000000000E+00 0. -1.
         -2    1    6    6    0  503 -0.12268500777E+02 -0.20753790916E+02 -0.67195531499E+02  0.71389602899E+02  0.00000000000E+00 0.  1.
<mgrwt>
<rscale>  0 0.18955496E+04</rscale>
<asrwt>0</asrwt>
<pdfrwt beam="1">  1        1 0.33789082E+00 0.18955496E+04</pdfrwt>
<pdfrwt beam="2">  1       -2 0.62922681E-01 0.18955496E+04</pdfrwt>
<totfact> 0.42171336E+00</totfact>
</mgrwt>
</event>
<event>
12    4  0.4413110E-008  0.2348266E+04  0.7818608E-02  0.8459130E-01
         -2   -1    0    0    0  501 -0.00000000000E+00  0.00000000000E+00  0.10245584442E+04  0.10245584442E+04  0.00000000000E+00 0.  1.
          1   -1    0    0  501    0  0.00000000000E+00 -0.00000000000E+00 -0.13455437555E+04  0.13455437555E+04  0.00000000000E+00 0. -1.
        -24    2    1    2    0    0 -0.54513520330E+03 -0.68096449406E+03  0.35695723606E+03  0.94663253507E+03  0.88372258219E+02 0.  0.
        254    2    1    2    0    0  0.54513520330E+03  0.68096449406E+03 -0.67794254733E+03  0.14234696647E+04  0.89764957343E+03 0.  0.
         23    2    4    4    0    0  0.22522081007E+02  0.60857262892E+02 -0.59264979629E+03  0.60311193620E+03  0.91100910876E+02 0.  0.
         23    2    4    4    0    0  0.52261312230E+03  0.62010723117E+03 -0.85292751037E+02  0.82035772846E+03  0.89746841331E+02 0.  0.
          1    1    3    3  502    0 -0.14058761391E+03 -0.23674806656E+03  0.96199502638E+02  0.29166567935E+03  0.00000000000E+00 0. -1.
         -2    1    3    3    0  502 -0.40454758940E+03 -0.44421642750E+03  0.26075773342E+03  0.65496685571E+03  0.00000000000E+00 0.  1.
         11    1    5    5    0    0 -0.27156430913E+02 -0.57356859572E+01 -0.18624640810E+03  0.18830319796E+03  0.00000000000E+00 0.  1.
        -11    1    5    5    0    0  0.49678511920E+02  0.66592948849E+02 -0.40640338819E+03  0.41480873824E+03  0.00000000000E+00 0. -1.
          2    1    6    6  503    0  0.13195362932E+03  0.10469717692E+03 -0.31781589694E+02  0.17141566028E+03  0.00000000000E+00 0. -1.
         -2    1    6    6    0  503  0.39065949298E+03  0.51541005424E+03 -0.53511161343E+02  0.64894206818E+03  0.00000000000E+00 0.  1.
<mgrwt>
<rscale>  0 0.23482659E+04</rscale>
<asrwt>0</asrwt>
<pdfrwt beam="1">  1        1 0.20700673E+00 0.23482659E+04</pdfrwt>
<pdfrwt beam="2">  1       -2 0.15762438E+00 0.23482659E+04</pdfrwt>
<totfact> 0.17398782E+00</totfact>
</mgrwt>
</event>
<event>
12    4  0.4720637E-008  0.1782539E+04  0.7818608E-02  0.8715640E-01
          1   -1    0    0  501    0  0.00000000000E+00  0.00000000000E+00  0.17695606488E+04  0.17695606488E+04  0.00000000000E+00 0. -1.
         -2   -1    0    0    0  501 -0.00000000000E+00 -0.00000000000E+00 -0.44890324586E+03  0.44890324586E+03  0.00000000000E+00 0.  1.
        -24    2    1    2    0    0  0.20295384055E+03 -0.35609393411E+03  0.11527917487E+04  0.12260150485E+04  0.78682475623E+02 0.  0.
        254    2    1    2    0    0 -0.20295384055E+03  0.35609393411E+03  0.16786565418E+03  0.99244884610E+03  0.88813438339E+03 0.  0.
         23    2    4    4    0    0 -0.28282652579E+03  0.22708922406E+03 -0.30803939753E+03  0.48480536207E+03  0.92669354605E+02 0.  0.
         23    2    4    4    0    0  0.79872685240E+02  0.12900471006E+03  0.47590505171E+03  0.50764348403E+03  0.90523077538E+02 0.  0.
          1    1    3    3  502    0  0.16015236848E+03 -0.32498264858E+03  0.95990134656E+03  0.10259985858E+04  0.00000000000E+00 0. -1.
         -2    1    3    3    0  502  0.42801472068E+02 -0.31111285537E+02  0.19289040219E+03  0.20001646271E+03  0.00000000000E+00 0.  1.
         11    1    5    5    0    0 -0.28837622947E+03  0.22620150538E+03 -0.30864150204E+03  0.47915294796E+03  0.00000000000E+00 0.  1.
        -11    1    5    5    0    0  0.55497036774E+01  0.88771867644E+00  0.60210451035E+00  0.56524141034E+01  0.00000000000E+00 0. -1.
          3    1    6    6  503    0  0.56360357733E+02  0.28353675993E+02  0.10398274746E+03  0.12162578935E+03  0.00000000000E+00 0. -1.
         -3    1    6    6    0  503  0.23512327506E+02  0.10065103407E+03  0.37192230425E+03  0.38601769468E+03  0.00000000000E+00 0.  1.
<mgrwt>
<rscale>  0 0.17825392E+04</rscale>
<asrwt>0</asrwt>
<pdfrwt beam="1">  1        1 0.27224010E+00 0.17825392E+04</pdfrwt>
<pdfrwt beam="2">  1       -2 0.69062039E-01 0.17825392E+04</pdfrwt>
<totfact> 0.67865254E+00</totfact>
</mgrwt>
</event>
<event>
12    4  0.4413110E-008  0.1532673E+04  0.7818608E-02  0.8863012E-01
          1   -1    0    0  501    0  0.00000000000E+00  0.00000000000E+00  0.92294380415E+03  0.92294380415E+03  0.00000000000E+00 0. -1.
         -2   -1    0    0    0  501 -0.00000000000E+00 -0.00000000000E+00 -0.63630296314E+03  0.63630296314E+03  0.00000000000E+00 0.  1.
        -24    2    1    2    0    0  0.31186673886E+03 -0.27305001344E+03  0.44220862197E+02  0.42466140864E+03  0.81022556673E+02 0.  0.
        254    2    1    2    0    0 -0.31186673886E+03  0.27305001344E+03  0.24241997882E+03  0.11345853586E+04  0.10279588111E+04 0.  0.
         23    2    4    4    0    0  0.83538981520E+02 -0.12910462533E+03 -0.29817163557E+03  0.34816403641E+03  0.93086552627E+02 0.  0.
         23    2    4    4    0    0 -0.39540572038E+03  0.40215463877E+03  0.54059161439E+03  0.78642132224E+03  0.90250569711E+02 0.  0.
          3    1    3    3  502    0  0.32837681297E+02 -0.69737780173E+02  0.62186173982E+01  0.77332674199E+02  0.00000000000E+00 0. -1.
         -4    1    3    3    0  502  0.27902905756E+03 -0.20331223327E+03  0.38002244799E+02  0.34732873444E+03  0.00000000000E+00 0.  1.
         11    1    5    5    0    0  0.91234149513E+02 -0.72452962152E+02 -0.23900531380E+03  0.26588840100E+03  0.00000000000E+00 0. -1.
        -11    1    5    5    0    0 -0.76951679926E+01 -0.56651663175E+02 -0.59166321765E+02  0.82275635410E+02  0.00000000000E+00 0.  1.
          1    1    6    6  503    0 -0.39416035494E+03  0.37597463736E+03  0.52022747200E+03  0.75323033394E+03  0.00000000000E+00 0. -1.
         -1    1    6    6    0  503 -0.12453654364E+01  0.26180001412E+02  0.20364142384E+02  0.33190988296E+02  0.00000000000E+00 0.  1.
<mgrwt>
<rscale>  0 0.15326733E+04</rscale>
<asrwt>0</asrwt>
<pdfrwt beam="1">  1        1 0.14199135E+00 0.15326733E+04</pdfrwt>
<pdfrwt beam="2">  1       -2 0.97892764E-01 0.15326733E+04</pdfrwt>
<totfact> 0.12801665E+01</totfact>
</mgrwt>
</event>
<event>
12    4  0.4413110E-008  0.1402087E+04  0.7818608E-02  0.8952309E-01
         -2   -1    0    0    0  501 -0.00000000000E+00  0.00000000000E+00  0.29377542819E+03  0.29377542819E+03  0.00000000000E+00 0.  1.
          1   -1    0    0  501    0  0.00000000000E+00 -0.00000000000E+00 -0.16729180367E+04  0.16729180367E+04  0.00000000000E+00 0. -1.
        -24    2    1    2    0    0 -0.37282869999E+03 -0.15617959233E+03 -0.47194293601E+03  0.62669158888E+03  0.81356672263E+02 0.  0.
        254    2    1    2    0    0  0.37282869999E+03  0.15617959233E+03 -0.90719967252E+03  0.13400018760E+04  0.89955571109E+03 0.  0.
         23    2    4    4    0    0  0.30514982428E+03  0.34653007198E+03 -0.72736606628E+02  0.47654707906E+03  0.92773911067E+02 0.  0.
         23    2    4    4    0    0  0.67678875705E+02 -0.19035047965E+03 -0.83446306589E+03  0.86345479697E+03  0.91716098683E+02 0.  0.
          3    1    3    3  502    0 -0.37671654460E+03 -0.15686679555E+03 -0.46947126573E+03  0.62203361314E+03  0.00000000000E+00 0. -1.
         -4    1    3    3    0  502  0.38878446137E+01  0.68720322491E+00 -0.24716702784E+01  0.46579757382E+01  0.00000000000E+00 0.  1.
         11    1    5    5    0    0  0.10860276649E+03  0.16697853258E+03 -0.67389448450E+02  0.21028012030E+03  0.00000000000E+00 0.  1.
        -11    1    5    5    0    0  0.19654705779E+03  0.17955153939E+03 -0.53471581781E+01  0.26626695876E+03  0.00000000000E+00 0. -1.
          1    1    6    6  503    0  0.74608341311E+02 -0.77988469176E+02 -0.36075533107E+03  0.37655413264E+03  0.00000000000E+00 0. -1.
         -1    1    6    6    0  503 -0.69294656058E+01 -0.11236201047E+03 -0.47370773483E+03  0.48690066433E+03  0.00000000000E+00 0.  1.
<mgrwt>
<rscale>  0 0.14020873E+04</rscale>
<asrwt>0</asrwt>
<pdfrwt beam="1">  1        1 0.25737200E+00 0.14020873E+04</pdfrwt>
<pdfrwt beam="2">  1       -2 0.45196220E-01 0.14020873E+04</pdfrwt>
<totfact> 0.19758061E+01</totfact>
</mgrwt>
</event>
<event>
12    4  0.4413110E-008  0.1269155E+04  0.7818608E-02  0.9054389E-01
          1   -1    0    0  501    0  0.00000000000E+00  0.00000000000E+00  0.16605335851E+04  0.16605335851E+04  0.00000000000E+00 0. -1.
         -2   -1    0    0    0  501 -0.00000000000E+00 -0.00000000000E+00 -0.24250563906E+03  0.24250563906E+03  0.00000000000E+00 0.  1.
        -24    2    1    2    0    0  0.15531394074E+03  0.92460978062E+02  0.71772068468E+03  0.74446763170E+03  0.80234785297E+02 0.  0.
        254    2    1    2    0    0 -0.15531394074E+03 -0.92460978062E+02  0.70030726138E+03  0.11585715925E+04  0.90508917900E+03 0.  0.
         23    2    4    4    0    0  0.28567018351E+03 -0.30024013361E+03  0.27575966067E+03  0.50584294186E+03  0.89900499406E+02 0.  0.
         23    2    4    4    0    0 -0.44098412426E+03  0.20777915555E+03  0.42454760070E+03  0.65272865063E+03  0.90414881343E+02 0.  0.
          1    1    3    3  502    0  0.10923300832E+03  0.24449884019E+02  0.34131774953E+03  0.35920391574E+03  0.00000000000E+00 0. -1.
         -2    1    3    3    0  502  0.46080932420E+02  0.68011094043E+02  0.37640293515E+03  0.38526371596E+03  0.00000000000E+00 0.  1.
         11    1    5    5    0    0  0.98943422751E+02 -0.11572365932E+03  0.51952996104E+02  0.16087535559E+03  0.00000000000E+00 0. -1.
        -11    1    5    5    0    0  0.18672676076E+03 -0.18451647429E+03  0.22380666457E+03  0.34496758627E+03  0.00000000000E+00 0.  1.
          1    1    6    6  503    0 -0.74213244662E+02  0.18674058421E+02  0.10935144249E+03  0.13346933774E+03  0.00000000000E+00 0. -1.
         -1    1    6    6    0  503 -0.36677087959E+03  0.18910509713E+03  0.31519615821E+03  0.51925931290E+03  0.00000000000E+00 0.  1.
<mgrwt>
<rscale>  0 0.12691552E+04</rscale>
<asrwt>0</asrwt>
<pdfrwt beam="1">  1        1 0.25546670E+00 0.12691552E+04</pdfrwt>
<pdfrwt beam="2">  1       -2 0.37308561E-01 0.12691552E+04</pdfrwt>
<totfact> 0.29695722E+01</totfact>
</mgrwt>
</event>
<event>
12    4  0.4413110E-008  0.1548392E+04  0.7818608E-02  0.8852895E-01
          1   -1    0    0  501    0  0.00000000000E+00  0.00000000000E+00  0.78826444352E+03  0.78826444352E+03  0.00000000000E+00 0. -1.
         -2   -1    0    0    0  501 -0.00000000000E+00 -0.00000000000E+00 -0.76037899642E+03  0.76037899642E+03  0.00000000000E+00 0.  1.
        -24    2    1    2    0    0  0.39128696886E+03 -0.21882118243E+02  0.33448672328E+03  0.52167935186E+03  0.81753648309E+02 0.  0.
        254    2    1    2    0    0 -0.39128696886E+03  0.21882118243E+02 -0.30660127618E+03  0.10269640881E+04  0.89836884215E+03 0.  0.
         23    2    4    4    0    0 -0.48531900717E+03 -0.29809995937E+03 -0.18137014905E+02  0.57717544448E+03  0.91675612370E+02 0.  0.
         23    2    4    4    0    0  0.94032038317E+02  0.31998207762E+03 -0.28846426128E+03  0.44978864359E+03  0.88699716165E+02 0.  0.
          3    1    3    3  502    0  0.34605828971E+03 -0.10499601360E+02  0.25676996849E+03  0.43104222325E+03  0.00000000000E+00 0. -1.
         -4    1    3    3    0  502  0.45228679145E+02 -0.11382516883E+02  0.77716754785E+02  0.90637128607E+02  0.00000000000E+00 0.  1.
         11    1    5    5    0    0 -0.11151156410E+03 -0.30939660170E+02 -0.21475007304E+02  0.11769990415E+03  0.00000000000E+00 0.  1.
        -11    1    5    5    0    0 -0.37380744308E+03 -0.26716029920E+03  0.33379923987E+01  0.45947554033E+03  0.00000000000E+00 0. -1.
          1    1    6    6  503    0  0.86589748365E+02  0.26138510610E+03 -0.27509587115E+03  0.38922705011E+03  0.00000000000E+00 0. -1.
         -1    1    6    6    0  503  0.74422899516E+01  0.58596971520E+02 -0.13368390122E+02  0.60561593485E+02  0.00000000000E+00 0.  1.
<mgrwt>
<rscale>  0 0.15483924E+04</rscale>
<asrwt>0</asrwt>
<pdfrwt beam="1">  1        1 0.12127145E+00 0.15483924E+04</pdfrwt>
<pdfrwt beam="2">  1       -2 0.11698138E+00 0.15483924E+04</pdfrwt>
<totfact> 0.10804801E+01</totfact>
</mgrwt>
</event>
<event>
12    4  0.4413110E-008  0.1932590E+04  0.7818608E-02  0.8638802E-01
          1   -1    0    0  501    0  0.00000000000E+00  0.00000000000E+00  0.43742615594E+03  0.43742615594E+03  0.00000000000E+00 0. -1.
         -2   -1    0    0    0  501 -0.00000000000E+00 -0.00000000000E+00 -0.21345916239E+04  0.21345916239E+04  0.00000000000E+00 0.  1.
        -24    2    1    2    0    0 -0.64910326216E+03 -0.10650941919E+03 -0.11705950724E+04  0.13447918199E+04  0.74114195931E+02 0.  0.
        254    2    1    2    0    0  0.64910326216E+03  0.10650941919E+03 -0.52657039551E+03  0.12272259599E+04  0.89225998110E+03 0.  0.
         23    2    4    4    0    0  0.23011925486E+03 -0.71956367459E+02  0.22649669871E+03  0.34255585104E+03  0.88944737205E+02 0.  0.
         23    2    4    4    0    0  0.41898400730E+03  0.17846578665E+03 -0.75306709422E+03  0.88467010885E+03  0.90186017324E+02 0.  0.
          1    1    3    3  502    0 -0.75081836248E+02 -0.24095482258E+02 -0.10134238023E+03  0.12840620090E+03  0.00000000000E+00 0. -1.
         -2    1    3    3    0  502 -0.57402142591E+03 -0.82413936936E+02 -0.10692526922E+04  0.12163856190E+04  0.00000000000E+00 0.  1.
         11    1    5    5    0    0  0.16982377564E+03 -0.81789532495E+02  0.13232296752E+03  0.23030199767E+03  0.00000000000E+00 0. -1.
        -11    1    5    5    0    0  0.60295479228E+02  0.98331650360E+01  0.94173731187E+02  0.11225385337E+03  0.00000000000E+00 0.  1.
          3    1    6    6  503    0  0.26723645765E+03  0.14548904892E+03 -0.55554790109E+03  0.63341602289E+03  0.00000000000E+00 0. -1.
         -3    1    6    6    0  503  0.15174754965E+03  0.32976737731E+02 -0.19751919314E+03  0.25125408596E+03  0.00000000000E+00 0.  1.
<mgrwt>
<rscale>  0 0.19325902E+04</rscale>
<asrwt>0</asrwt>
<pdfrwt beam="1">  1        1 0.67296333E-01 0.19325902E+04</pdfrwt>
<pdfrwt beam="2">  1       -2 0.32839870E+00 0.19325902E+04</pdfrwt>
<totfact> 0.92460343E-01</totfact>
</mgrwt>
</event>
<event>
12    4  0.4413110E-008  0.1247357E+04  0.7818608E-02  0.9072386E-01
         -2   -1    0    0    0  501 -0.00000000000E+00  0.00000000000E+00  0.20968075860E+03  0.20968075860E+03  0.00000000000E+00 0.  1.
          1   -1    0    0  501    0  0.00000000000E+00 -0.00000000000E+00 -0.18550809528E+04  0.18550809528E+04  0.00000000000E+00 0. -1.
        -24    2    1    2    0    0  0.80967298000E+02  0.13086793088E+03 -0.80100303417E+03  0.81953320627E+03  0.79666158149E+02 0.  0.
        254    2    1    2    0    0 -0.80967298000E+02 -0.13086793088E+03 -0.84439716000E+03  0.12452285051E+04  0.90216702855E+03 0.  0.
         23    2    4    4    0    0  0.18752949406E+03 -0.34917462704E+03 -0.99633860711E+02  0.41881694787E+03  0.91599663302E+02 0.  0.
         23    2    4    4    0    0 -0.26849679206E+03  0.21830669616E+03 -0.74476329929E+03  0.82641155722E+03  0.92386952564E+02 0.  0.
          3    1    3    3  502    0  0.89442287227E+01  0.35069021533E+02 -0.38243799855E+03  0.38414666240E+03  0.00000000000E+00 0. -1.
         -4    1    3    3    0  502  0.72023069277E+02  0.95798909351E+02 -0.41856503562E+03  0.43538654388E+03  0.00000000000E+00 0.  1.
         11    1    5    5    0    0  0.99040494831E+02 -0.21938667279E+03 -0.10270895240E+03  0.26170338309E+03  0.00000000000E+00 0. -1.
        -11    1    5    5    0    0  0.88488999226E+02 -0.12978795425E+03  0.30750916897E+01  0.15711356479E+03  0.00000000000E+00 0.  1.
          2    1    6    6  503    0 -0.71933715773E+02  0.54890474791E+02 -0.11211825571E+03  0.14407611513E+03  0.00000000000E+00 0. -1.
         -2    1    6    6    0  503 -0.19656307628E+03  0.16341622137E+03 -0.63264504358E+03  0.68233544209E+03  0.00000000000E+00 0.  1.
<mgrwt>
<rscale>  0 0.12473569E+04</rscale>
<asrwt>0</asrwt>
<pdfrwt beam="1">  1        1 0.28539706E+00 0.12473569E+04</pdfrwt>
<pdfrwt beam="2">  1       -2 0.32258579E-01 0.12473569E+04</pdfrwt>
<totfact> 0.28976941E+01</totfact>
</mgrwt>
</event>
<event>
12    4  0.4413110E-008  0.1940920E+04  0.7818608E-02  0.8634752E-01
         -2   -1    0    0    0  501 -0.00000000000E+00  0.00000000000E+00  0.73350808232E+03  0.73350808232E+03  0.00000000000E+00 0.  1.
          1   -1    0    0  501    0  0.00000000000E+00 -0.00000000000E+00 -0.12839565223E+04  0.12839565223E+04  0.00000000000E+00 0. -1.
        -24    2    1    2    0    0  0.29627945407E+03  0.69352117978E+03 -0.31034106626E+03  0.81929211888E+03  0.78580257971E+02 0.  0.
        254    2    1    2    0    0 -0.29627945407E+03 -0.69352117978E+03 -0.24010737371E+03  0.11981724857E+04  0.89956245639E+03 0.  0.
         23    2    4    4    0    0 -0.83777912359E+02  0.11422220009E+03  0.19112594935E+03  0.25377318599E+03  0.88352995526E+02 0.  0.
         23    2    4    4    0    0 -0.21250154171E+03 -0.80774337987E+03 -0.43123332306E+03  0.94439929975E+03  0.91222724649E+02 0.  0.
          3    1    3    3  502    0  0.25336406366E+02  0.90222458519E+02 -0.64345378907E+02  0.11367652922E+03  0.00000000000E+00 0. -1.
         -4    1    3    3    0  502  0.27094304770E+03  0.60329872126E+03 -0.24599568735E+03  0.70561558966E+03  0.00000000000E+00 0.  1.
         11    1    5    5    0    0 -0.10441770168E+02  0.69857386474E+02  0.43162722171E+02  0.82777446170E+02  0.00000000000E+00 0. -1.
        -11    1    5    5    0    0 -0.73336142191E+02  0.44364813618E+02  0.14796322718E+03  0.17099573982E+03  0.00000000000E+00 0.  1.
          1    1    6    6  503    0 -0.12439957996E+03 -0.47746435634E+03 -0.30469524489E+03  0.57990228429E+03  0.00000000000E+00 0. -1.
         -1    1    6    6    0  503 -0.88101961750E+02 -0.33027902353E+03 -0.12653807817E+03  0.36449701546E+03  0.00000000000E+00 0.  1.
<mgrwt>
<rscale>  0 0.19409199E+04</rscale>
<asrwt>0</asrwt>
<pdfrwt beam="1">  1        1 0.19753177E+00 0.19409199E+04</pdfrwt>
<pdfrwt beam="2">  1       -2 0.11284740E+00 0.19409199E+04</pdfrwt>
<totfact> 0.46915614E+00</totfact>
</mgrwt>
</event>
<event>
12    4  0.4413110E-008  0.1362794E+04  0.7818608E-02  0.8981200E-01
          3   -1    0    0  501    0  0.00000000000E+00  0.00000000000E+00  0.18694572083E+04  0.18694572083E+04  0.00000000000E+00 0. -1.
         -4   -1    0    0    0  501 -0.00000000000E+00 -0.00000000000E+00 -0.24836171233E+03  0.24836171233E+03  0.00000000000E+00 0.  1.
        -24    2    1    2    0    0 -0.10259514277E+03  0.73142896399E+02  0.10088886987E+04  0.10197267130E+04  0.78169792080E+02 0.  0.
        254    2    1    2    0    0  0.10259514277E+03 -0.73142896399E+02  0.61220679737E+03  0.10980922076E+04  0.90284754367E+03 0.  0.
         23    2    4    4    0    0 -0.29267170099E+03 -0.12084579412E+03 -0.36617105650E+02  0.33146220418E+03  0.90917269324E+02 0.  0.
         23    2    4    4    0    0  0.39526684376E+03  0.47702897725E+02  0.64882390302E+03  0.76663000346E+03  0.90761560375E+02 0.  0.
          3    1    3    3  502    0 -0.51195925236E+02  0.22929182836E+02  0.71436878522E+03  0.71656788337E+03  0.00000000000E+00 0. -1.
         -4    1    3    3    0  502 -0.51399217535E+02  0.50213713563E+02  0.29451991343E+03  0.30315882966E+03  0.00000000000E+00 0.  1.
         11    1    5    5    0    0 -0.28256857313E+03 -0.92579302065E+02 -0.43905790638E+02  0.30057219456E+03  0.00000000000E+00 0. -1.
        -11    1    5    5    0    0 -0.10103127858E+02 -0.28266492058E+02  0.72886849881E+01  0.30890009625E+02  0.00000000000E+00 0.  1.
          1    1    6    6  503    0  0.39955117841E+03  0.47303480725E+02  0.64712545315E+03  0.76200401283E+03  0.00000000000E+00 0. -1.
         -1    1    6    6    0  503 -0.42843346494E+01  0.39941699953E+00  0.16984498771E+01  0.46259906304E+01  0.00000000000E+00 0.  1.
<mgrwt>
<rscale>  0 0.13627936E+04</rscale>
<asrwt>0</asrwt>
<pdfrwt beam="1">  1        3 0.28760879E+00 0.13627936E+04</pdfrwt>
<pdfrwt beam="2">  1       -4 0.38209495E-01 0.13627936E+04</pdfrwt>
<totfact> 0.68162932E-01</totfact>
</mgrwt>
</event>
<event>
12    4  0.4413110E-008  0.2667820E+04  0.7818608E-02  0.8345522E-01
         -2   -1    0    0    0  501 -0.00000000000E+00  0.00000000000E+00  0.96002993985E+03  0.96002993985E+03  0.00000000000E+00 0.  1.
          1   -1    0    0  501    0  0.00000000000E+00 -0.00000000000E+00 -0.18533967006E+04  0.18533967006E+04  0.00000000000E+00 0. -1.
        -24    2    1    2    0    0 -0.34112684132E+03  0.33341041096E+03  0.74650243036E+03  0.88892421236E+03  0.73419021946E+02 0.  0.
        254    2    1    2    0    0  0.34112684132E+03 -0.33341041096E+03 -0.16398691911E+04  0.19245024281E+04  0.88713505610E+03 0.  0.
         23    2    4    4    0    0  0.32369319083E+03 -0.20282149401E+03 -0.14170168756E+03  0.41779306024E+03  0.92508554758E+02 0.  0.
         23    2    4    4    0    0  0.17433650485E+02 -0.13058891696E+03 -0.14981675035E+04  0.15067093678E+04  0.91158395503E+02 0.  0.
          1    1    3    3  502    0 -0.23503223465E+03  0.21508234954E+03  0.43461225439E+03  0.53887696190E+03  0.00000000000E+00 0. -1.
         -2    1    3    3    0  502 -0.10609460667E+03  0.11832806142E+03  0.31189017598E+03  0.35004725046E+03  0.00000000000E+00 0.  1.
         11    1    5    5    0    0  0.78397591852E+02 -0.95077524928E+02 -0.63879430808E+02  0.13880381780E+03  0.00000000000E+00 0. -1.
        -11    1    5    5    0    0  0.24529559898E+03 -0.10774396908E+03 -0.77822256749E+02  0.27898924244E+03  0.00000000000E+00 0.  1.
          3    1    6    6  503    0  0.24483919821E+02 -0.76326681169E+01 -0.10411128879E+03  0.10722350678E+03  0.00000000000E+00 0. -1.
         -3    1    6    6    0  503 -0.70502693354E+01 -0.12295624884E+03 -0.13940562148E+04  0.13994858611E+04  0.00000000000E+00 0.  1.
<mgrwt>
<rscale>  0 0.26678203E+04</rscale>
<asrwt>0</asrwt>
<pdfrwt beam="1">  1        1 0.28513795E+00 0.26678203E+04</pdfrwt>
<pdfrwt beam="2">  1       -2 0.14769692E+00 0.26678203E+04</pdfrwt>
<totfact> 0.90003136E-01</totfact>
</mgrwt>
</event>
<event>
12    4  0.4413110E-008  0.1801328E+04  0.7818608E-02  0.8705594E-01
          1   -1    0    0  501    0  0.00000000000E+00  0.00000000000E+00  0.25801530478E+03  0.25801530478E+03  0.00000000000E+00 0. -1.
         -2   -1    0    0    0  501 -0.00000000000E+00 -0.00000000000E+00 -0.31439826349E+04  0.31439826349E+04  0.00000000000E+00 0.  1.
        -24    2    1    2    0    0 -0.50616925164E+03 -0.15097765116E+03 -0.29938519052E+03  0.61238679450E+03  0.79903262244E+02 0.  0.
        254    2    1    2    0    0  0.50616925164E+03  0.15097765116E+03 -0.25865821396E+04  0.27896111452E+04  0.90139980808E+03 0.  0.
         23    2    4    4    0    0  0.57069109297E+03  0.28547733577E+03 -0.25225293287E+04  0.26035651683E+04  0.90618645731E+02 0.  0.
         23    2    4    4    0    0 -0.64521841327E+02 -0.13449968461E+03 -0.64052810953E+02  0.18604597687E+03  0.90868640091E+02 0.  0.
          3    1    3    3  502    0 -0.35147998337E+03 -0.14255879231E+03 -0.21115784588E+03  0.43410692675E+03  0.00000000000E+00 0. -1.
         -4    1    3    3    0  502 -0.15468926827E+03 -0.84188588487E+01 -0.88227344642E+02  0.17827986775E+03  0.00000000000E+00 0.  1.
         11    1    5    5    0    0  0.25331767042E+02 -0.56532756405E+01 -0.85849436448E+02  0.89687143367E+02  0.00000000000E+00 0. -1.
        -11    1    5    5    0    0  0.54535932593E+03  0.29113061141E+03 -0.24366798922E+04  0.25138780250E+04  0.00000000000E+00 0.  1.
          4    1    6    6  503    0 -0.12149094252E+02  0.12538315096E+02 -0.35558941526E+00  0.17462424815E+02  0.00000000000E+00 0. -1.
         -4    1    6    6    0  503 -0.52372747076E+02 -0.14703799970E+03 -0.63697221537E+02  0.16858355206E+03  0.00000000000E+00 0.  1.
<mgrwt>
<rscale>  0 0.18013280E+04</rscale>
<asrwt>0</asrwt>
<pdfrwt beam="1">  1        1 0.39694665E-01 0.18013280E+04</pdfrwt>
<pdfrwt beam="2">  1       -2 0.48368961E+00 0.18013280E+04</pdfrwt>
<totfact> 0.18403265E-01</totfact>
</mgrwt>
</event>
<event>
12    4  0.4413110E-008  0.1140495E+04  0.7818608E-02  0.9166598E-01
         -2   -1    0    0    0  501 -0.00000000000E+00  0.00000000000E+00  0.18338743612E+03  0.18338743612E+03  0.00000000000E+00 0.  1.
          1   -1    0    0  501    0  0.00000000000E+00 -0.00000000000E+00 -0.17731963762E+04  0.17731963762E+04  0.00000000000E+00 0. -1.
        -24    2    1    2    0    0  0.57065668797E+02 -0.58086831820E+02 -0.59043076904E+03  0.60150949964E+03  0.81083996848E+02 0.  0.
        254    2    1    2    0    0 -0.57065668797E+02  0.58086831820E+02 -0.99937817102E+03  0.13550743127E+04  0.91150375400E+03 0.  0.
         23    2    4    4    0    0 -0.39429860282E+03  0.24534821122E+03 -0.33062590328E+03  0.57749753808E+03  0.92318934342E+02 0.  0.
         23    2    4    4    0    0  0.33723293403E+03 -0.18726137940E+03 -0.66875226774E+03  0.77757677459E+03  0.92753268185E+02 0.  0.
          3    1    3    3  502    0 -0.71977587585E+00 -0.50671802818E+02 -0.37227882096E+03  0.37571221728E+03  0.00000000000E+00 0. -1.
         -4    1    3    3    0  502  0.57785444673E+02 -0.74150290025E+01 -0.21815194808E+03  0.22579728236E+03  0.00000000000E+00 0.  1.
         11    1    5    5    0    0 -0.11736430137E+03  0.12153693335E+03 -0.13805431353E+03  0.21818478153E+03  0.00000000000E+00 0. -1.
        -11    1    5    5    0    0 -0.27693430145E+03  0.12381127786E+03 -0.19257158975E+03  0.35931275656E+03  0.00000000000E+00 0.  1.
          3    1    6    6  503    0  0.71237113028E+02 -0.85725091935E+02 -0.20704177711E+03  0.23513786409E+03  0.00000000000E+00 0. -1.
         -3    1    6    6    0  503  0.26599582100E+03 -0.10153628746E+03 -0.46171049063E+03  0.54243891049E+03  0.00000000000E+00 0.  1.
<mgrwt>
<rscale>  0 0.11404945E+04</rscale>
<asrwt>0</asrwt>
<pdfrwt beam="1">  1        1 0.27279944E+00 0.11404945E+04</pdfrwt>
<pdfrwt beam="2">  1       -2 0.28213452E-01 0.11404945E+04</pdfrwt>
<totfact> 0.42639830E+01</totfact>
</mgrwt>
</event>
<event>
12    4  0.4413110E-008  0.1646202E+04  0.7818608E-02  0.8792656E-01
          1   -1    0    0  501    0  0.00000000000E+00  0.00000000000E+00  0.52317685517E+03  0.52317685517E+03  0.00000000000E+00 0. -1.
         -2   -1    0    0    0  501 -0.00000000000E+00 -0.00000000000E+00 -0.12949647057E+04  0.12949647057E+04  0.00000000000E+00 0.  1.
        -24    2    1    2    0    0  0.52085910898E+03  0.16891479325E+03 -0.46944495308E+03  0.72556953014E+03  0.79032653382E+02 0.  0.
        254    2    1    2    0    0 -0.52085910898E+03 -0.16891479325E+03 -0.30234289744E+03  0.10925720307E+04  0.89581024549E+03 0.  0.
         23    2    4    4    0    0  0.23549340217E+03  0.36952868399E+02 -0.12763183121E+03  0.28432096263E+03  0.87896919764E+02 0.  0.
         23    2    4    4    0    0 -0.75635251115E+03 -0.20586766164E+03 -0.17471106623E+03  0.80825106810E+03  0.91078082934E+02 0.  0.
          1    1    3    3  502    0  0.85917797499E+01  0.62360016358E+01  0.17893657902E+01  0.10766068252E+02  0.00000000000E+00 0. -1.
         -2    1    3    3    0  502  0.51226732923E+03  0.16267879161E+03 -0.47123431887E+03  0.71480346188E+03  0.00000000000E+00 0.  1.
         11    1    5    5    0    0 -0.43914312988E+01 -0.79249578965E+01 -0.97011457714E+01  0.13274104708E+02  0.00000000000E+00 0. -1.
        -11    1    5    5    0    0  0.23988483347E+03  0.44877826296E+02 -0.11793068544E+03  0.27104685792E+03  0.00000000000E+00 0.  1.
          3    1    6    6  503    0 -0.24446334422E+03 -0.93712027632E+02 -0.93276656337E+02  0.27792949718E+03  0.00000000000E+00 0. -1.
         -3    1    6    6    0  503 -0.51188916693E+03 -0.11215563401E+03 -0.81434409894E+02  0.53032157092E+03  0.00000000000E+00 0.  1.
<mgrwt>
<rscale>  0 0.16462024E+04</rscale>
<asrwt>0</asrwt>
<pdfrwt beam="1">  1        1 0.80488747E-01 0.16462024E+04</pdfrwt>
<pdfrwt beam="2">  1       -2 0.19922534E+00 0.16462024E+04</pdfrwt>
<totfact> 0.46793182E+00</totfact>
</mgrwt>
</event>
<event>
12    4  0.4413110E-008  0.1689696E+04  0.7818608E-02  0.8767263E-01
         -2   -1    0    0    0  501 -0.00000000000E+00  0.00000000000E+00  0.70240706984E+03  0.70240706984E+03  0.00000000000E+00 0.  1.
          1   -1    0    0  501    0  0.00000000000E+00 -0.00000000000E+00 -0.10161747255E+04  0.10161747255E+04  0.00000000000E+00 0. -1.
        -24    2    1    2    0    0 -0.37917303939E+03 -0.25194858414E+03 -0.54319684158E+03  0.71310984937E+03  0.78819830698E+02 0.  0.
        254    2    1    2    0    0  0.37917303939E+03  0.25194858414E+03  0.22942918593E+03  0.10054719460E+04  0.86665206392E+03 0.  0.
         23    2    4    4    0    0 -0.22184196444E+03  0.36832015723E+02  0.26234698558E+03  0.35983081507E+03  0.10040826688E+03 0.  0.
         23    2    4    4    0    0  0.60101500383E+03  0.21511656842E+03 -0.32917799650E+02  0.64564113089E+03  0.90965463409E+02 0.  0.
          1    1    3    3  502    0 -0.32605368351E+03 -0.18542707902E+03 -0.46586999404E+03  0.59810455400E+03  0.00000000000E+00 0. -1.
         -4    1    3    3    0  502 -0.53119355871E+02 -0.66521505124E+02 -0.77326847546E+02  0.11500529537E+03  0.00000000000E+00 0.  1.
         11    1    5    5    0    0 -0.36653608818E+01 -0.20297663584E+02  0.25183909181E+02  0.32552408497E+02  0.00000000000E+00 0. -1.
        -11    1    5    5    0    0 -0.21817660356E+03  0.57129679307E+02  0.23716307640E+03  0.32727840657E+03  0.00000000000E+00 0.  1.
          1    1    6    6  503    0  0.18795643172E+03  0.53842785074E+02  0.29893924281E+02  0.19778855487E+03  0.00000000000E+00 0. -1.
         -1    1    6    6    0  503  0.41305857211E+03  0.16127378335E+03 -0.62811723930E+02  0.44785257602E+03  0.00000000000E+00 0.  1.
<mgrwt>
<rscale>  0 0.16896962E+04</rscale>
<asrwt>0</asrwt>
<pdfrwt beam="1">  1        1 0.15633457E+00 0.16896962E+04</pdfrwt>
<pdfrwt beam="2">  1       -2 0.10806263E+00 0.16896962E+04</pdfrwt>
<totfact> 0.84173589E+00</totfact>
</mgrwt>
</event>
<event>
12    4  0.4413110E-008  0.2399028E+04  0.7818608E-02  0.8439868E-01
          1   -1    0    0  501    0  0.00000000000E+00  0.00000000000E+00  0.15398073589E+04  0.15398073589E+04  0.00000000000E+00 0. -1.
         -2   -1    0    0    0  501 -0.00000000000E+00 -0.00000000000E+00 -0.93442423762E+03  0.93442423762E+03  0.00000000000E+00 0.  1.
        -24    2    1    2    0    0 -0.32946168811E+03 -0.64334518524E+03  0.10182975435E+04  0.12511859841E+04  0.78092564372E+02 0.  0.
        254    2    1    2    0    0  0.32946168811E+03  0.64334518524E+03 -0.41291442222E+03  0.12230456123E+04  0.89604922770E+03 0.  0.
         23    2    4    4    0    0 -0.25617593752E+02 -0.19696003031E+03  0.27186547571E+01  0.21637914013E+03  0.85808079738E+02 0.  0.
         23    2    4    4    0    0  0.35507928187E+03  0.84030521555E+03 -0.41563307697E+03  0.10066664722E+04  0.91827990796E+02 0.  0.
          3    1    3    3  502    0 -0.32809072777E+03 -0.60308263955E+03  0.95548195223E+03  0.11765619222E+04  0.00000000000E+00 0. -1.
         -4    1    3    3    0  502 -0.13709603424E+01 -0.40262545682E+02  0.62815591221E+02  0.74624061920E+02  0.00000000000E+00 0.  1.
         11    1    5    5    0    0 -0.45861302928E+01 -0.32745354359E+02  0.34515220121E+02  0.47797397870E+02  0.00000000000E+00 0. -1.
        -11    1    5    5    0    0 -0.21031463459E+02 -0.16421467595E+03 -0.31796565364E+02  0.16858174226E+03  0.00000000000E+00 0.  1.
          3    1    6    6  503    0  0.12889998347E+03  0.20722538581E+03 -0.95502827498E+02  0.26206555730E+03  0.00000000000E+00 0. -1.
         -3    1    6    6    0  503  0.22617929840E+03  0.63307982974E+03 -0.32013024948E+03  0.74460091490E+03  0.00000000000E+00 0.  1.
<mgrwt>
<rscale>  0 0.23990276E+04</rscale>
<asrwt>0</asrwt>
<pdfrwt beam="1">  1        1 0.23689344E+00 0.23990276E+04</pdfrwt>
<pdfrwt beam="2">  1       -2 0.14375758E+00 0.23990276E+04</pdfrwt>
<totfact> 0.16193258E+00</totfact>
</mgrwt>
</event>
<event>
12    4  0.4413110E-008  0.2301019E+04  0.7818608E-02  0.8477519E-01
          1   -1    0    0  501    0  0.00000000000E+00  0.00000000000E+00  0.85812714687E+03  0.85812714687E+03  0.00000000000E+00 0. -1.
         -2   -1    0    0    0  501 -0.00000000000E+00 -0.00000000000E+00 -0.15425133491E+04  0.15425133491E+04  0.00000000000E+00 0.  1.
        -24    2    1    2    0    0 -0.25771775028E+03  0.56936451276E+03  0.48439671148E+03  0.79485350596E+03  0.80978606065E+02 0.  0.
        254    2    1    2    0    0  0.25771775028E+03 -0.56936451276E+03 -0.11687829137E+04  0.16057869900E+04  0.90658919624E+03 0.  0.
         23    2    4    4    0    0  0.22651014118E+02  0.23445515978E+03 -0.20313307535E+03  0.32469523150E+03  0.93175408070E+02 0.  0.
         23    2    4    4    0    0  0.23506673616E+03 -0.80381967254E+03 -0.96564983839E+03  0.12810917585E+04  0.85639050830E+02 0.  0.
          1    1    3    3  502    0 -0.11621244364E+03  0.35262227129E+03  0.29147196381E+03  0.47202087237E+03  0.00000000000E+00 0. -1.
         -2    1    3    3    0  502 -0.14150530664E+03  0.21674224147E+03  0.19292474767E+03  0.32283263359E+03  0.00000000000E+00 0.  1.
         11    1    5    5    0    0 -0.29662586092E+02  0.15427107159E+03 -0.13570205340E+03  0.20759209966E+03  0.00000000000E+00 0.  1.
        -11    1    5    5    0    0  0.52313600210E+02  0.80184088190E+02 -0.67431021947E+02  0.11710313184E+03  0.00000000000E+00 0. -1.
          4    1    6    6  503    0  0.38295270806E+02 -0.27232054816E+03 -0.30631142742E+03  0.41164511328E+03  0.00000000000E+00 0. -1.
         -4    1    6    6    0  503  0.19677146536E+03 -0.53149912438E+03 -0.65933841096E+03  0.86944664527E+03  0.00000000000E+00 0.  1.
<mgrwt>
<rscale>  0 0.23010194E+04</rscale>
<asrwt>0</asrwt>
<pdfrwt beam="1">  1        1 0.13201956E+00 0.23010194E+04</pdfrwt>
<pdfrwt beam="2">  1       -2 0.23730975E+00 0.23010194E+04</pdfrwt>
<totfact> 0.12021273E+00</totfact>
</mgrwt>
</event>
<event>
12    4  0.4413110E-008  0.1942380E+04  0.7818608E-02  0.8634044E-01
         -2   -1    0    0    0  501 -0.00000000000E+00  0.00000000000E+00  0.57367467365E+03  0.57367467365E+03  0.00000000000E+00 0.  1.
          1   -1    0    0  501    0  0.00000000000E+00 -0.00000000000E+00 -0.16441542491E+04  0.16441542491E+04  0.00000000000E+00 0. -1.
        -24    2    1    2    0    0  0.22009441092E+03  0.50003231798E+01 -0.13253646006E+04  0.13459009398E+04  0.79946622017E+02 0.  0.
        254    2    1    2    0    0 -0.22009441092E+03 -0.50003231798E+01  0.25488502519E+03  0.87192798289E+03  0.80425461039E+03 0.  0.
         23    2    4    4    0    0  0.10572974247E+03  0.26066861290E+03  0.32040371507E+03  0.43629683299E+03  0.92571494789E+02 0.  0.
         23    2    4    4    0    0 -0.32582415339E+03 -0.26566893608E+03 -0.65518689883E+02  0.43563114990E+03  0.93490307054E+02 0.  0.
          1    1    3    3  502    0  0.10196850251E+02 -0.16326136556E+02 -0.20050607592E+03  0.20142791507E+03  0.00000000000E+00 0. -1.
         -2    1    3    3    0  502  0.20989756067E+03  0.21326459736E+02 -0.11248585247E+04  0.11444730248E+04  0.00000000000E+00 0.  1.
         11    1    5    5    0    0  0.94686405295E+01  0.12939091697E+03  0.17628867962E+03  0.21888207580E+03  0.00000000000E+00 0. -1.
        -11    1    5    5    0    0  0.96261101940E+02  0.13127769594E+03  0.14411503545E+03  0.21741475718E+03  0.00000000000E+00 0.  1.
          1    1    6    6  503    0 -0.15287944197E+03 -0.18246664003E+03 -0.23819935932E+02  0.23923542348E+03  0.00000000000E+00 0. -1.
         -1    1    6    6    0  503 -0.17294471142E+03 -0.83202296052E+02 -0.41698753952E+02  0.19639572642E+03  0.00000000000E+00 0.  1.
<mgrwt>
<rscale>  0 0.19423796E+04</rscale>
<asrwt>0</asrwt>
<pdfrwt beam="1">  1        1 0.25294681E+00 0.19423796E+04</pdfrwt>
<pdfrwt beam="2">  1       -2 0.88257642E-01 0.19423796E+04</pdfrwt>
<totfact> 0.47081214E+00</totfact>
</mgrwt>
</event>
<event>
12    4  0.4413110E-008  0.2132681E+04  0.7818608E-02  0.8546982E-01
          1   -1    0    0  501    0  0.00000000000E+00  0.00000000000E+00  0.44309942245E+03  0.44309942245E+03  0.00000000000E+00 0. -1.
         -2   -1    0    0    0  501 -0.00000000000E+00 -0.00000000000E+00 -0.25662007659E+04  0.25662007659E+04  0.00000000000E+00 0.  1.
        -24    2    1    2    0    0  0.78012509175E+03 -0.39904971525E+03 -0.66203675194E+03  0.11012704649E+04  0.81658692334E+02 0.  0.
        254    2    1    2    0    0 -0.78012509175E+03  0.39904971525E+03 -0.14610645915E+04  0.19080297234E+04  0.85908780157E+03 0.  0.
         23    2    4    4    0    0 -0.39037790085E+03  0.52746139112E+03 -0.12973832822E+04  0.14567471082E+04  0.91095180109E+02 0.  0.
         23    2    4    4    0    0 -0.38974719090E+03 -0.12841167587E+03 -0.16368130932E+03  0.45128261517E+03  0.92043448558E+02 0.  0.
          1    1    3    3  502    0  0.22381263166E+02 -0.18434488417E+02 -0.71613700503E+01  0.29866980515E+02  0.00000000000E+00 0. -1.
         -2    1    3    3    0  502  0.75774382858E+03 -0.38061522683E+03 -0.65487538189E+03  0.10714034844E+04  0.00000000000E+00 0.  1.
         11    1    5    5    0    0 -0.40084400123E+02  0.26132448371E+02 -0.13603349408E+03  0.14420393719E+03  0.00000000000E+00 0. -1.
        -11    1    5    5    0    0 -0.35029350073E+03  0.50132894275E+03 -0.11613497881E+04  0.13125431710E+04  0.00000000000E+00 0.  1.
          1    1    6    6  503    0 -0.51600179220E+02  0.75523511416E+01 -0.98577905763E+00  0.52159258657E+02  0.00000000000E+00 0. -1.
         -1    1    6    6    0  503 -0.33814701168E+03 -0.13596402701E+03 -0.16269553026E+03  0.39912335652E+03  0.00000000000E+00 0.  1.
<mgrwt>
<rscale>  0 0.21326810E+04</rscale>
<asrwt>0</asrwt>
<pdfrwt beam="1">  1        1 0.68169142E-01 0.21326810E+04</pdfrwt>
<pdfrwt beam="2">  1       -2 0.39480012E+00 0.21326810E+04</pdfrwt>
<totfact> 0.33759652E-01</totfact>
</mgrwt>
</event>
<event>
12    4  0.4413110E-008  0.1946122E+04  0.7818608E-02  0.8632233E-01
         -2   -1    0    0    0  501 -0.00000000000E+00  0.00000000000E+00  0.51925640570E+03  0.51925640570E+03  0.00000000000E+00 0.  1.
          1   -1    0    0  501    0  0.00000000000E+00 -0.00000000000E+00 -0.18234678962E+04  0.18234678962E+04  0.00000000000E+00 0. -1.
        -24    2    1    2    0    0  0.61218215282E+03 -0.21774438250E+03 -0.31860089543E+02  0.65542787686E+03  0.79943931124E+02 0.  0.
        254    2    1    2    0    0 -0.61218215282E+03  0.21774438250E+03 -0.12723514009E+04  0.16872964250E+04  0.89772575658E+03 0.  0.
         23    2    4    4    0    0 -0.38930263549E+03 -0.16858018621E+03 -0.12272077170E+03  0.45083914364E+03  0.90662696049E+02 0.  0.
         23    2    4    4    0    0 -0.22287951733E+03  0.38632456871E+03 -0.11496306292E+04  0.12364572813E+04  0.90851930763E+02 0.  0.
          3    1    3    3  502    0  0.30602713781E+03 -0.13762552153E+03 -0.45775617077E+02  0.33865734950E+03  0.00000000000E+00 0. -1.
         -4    1    3    3    0  502  0.30615501501E+03 -0.80118860967E+02  0.13915527534E+02  0.31677052736E+03  0.00000000000E+00 0.  1.
         11    1    5    5    0    0 -0.24468829719E+01 -0.35723675846E+01 -0.16496286181E+02  0.17055101999E+02  0.00000000000E+00 0. -1.
        -11    1    5    5    0    0 -0.38685575251E+03 -0.16500781863E+03 -0.10622448552E+03  0.43378404164E+03  0.00000000000E+00 0.  1.
          1    1    6    6  503    0 -0.43725773982E+02  0.22283082894E+02 -0.13987267180E+03  0.14823239662E+03  0.00000000000E+00 0. -1.
         -1    1    6    6    0  503 -0.17915374335E+03  0.36404148582E+03 -0.10097579574E+04  0.10882248847E+04  0.00000000000E+00 0.  1.
<mgrwt>
<rscale>  0 0.19461217E+04</rscale>
<asrwt>0</asrwt>
<pdfrwt beam="1">  1        1 0.28053352E+00 0.19461217E+04</pdfrwt>
<pdfrwt beam="2">  1       -2 0.79885601E-01 0.19461217E+04</pdfrwt>
<totfact> 0.44560945E+00</totfact>
</mgrwt>
</event>
<event>
12    4  0.4413110E-008  0.1577352E+04  0.7818608E-02  0.8834583E-01
          1   -1    0    0  501    0  0.00000000000E+00  0.00000000000E+00  0.82300907658E+03  0.82300907658E+03  0.00000000000E+00 0. -1.
         -2   -1    0    0    0  501 -0.00000000000E+00 -0.00000000000E+00 -0.75577532966E+03  0.75577532966E+03  0.00000000000E+00 0.  1.
        -24    2    1    2    0    0  0.32310749069E+03  0.20931708797E+03 -0.33693803310E+03  0.51758658147E+03  0.78463605004E+02 0.  0.
        254    2    1    2    0    0 -0.32310749069E+03 -0.20931708797E+03  0.40417178002E+03  0.10611978248E+04  0.90253747937E+03 0.  0.
         23    2    4    4    0    0 -0.58873857105E+03 -0.29137115893E+03  0.38683188049E+03  0.76735070008E+03  0.87623831624E+02 0.  0.
         23    2    4    4    0    0  0.26563108035E+03  0.82054070958E+02  0.17339899535E+02  0.29384712468E+03  0.93555968054E+02 0.  0.
          1    1    3    3  502    0  0.54160390373E+02  0.16172196865E+02 -0.82486657048E+02  0.99994681997E+02  0.00000000000E+00 0. -1.
         -4    1    3    3    0  502  0.26894710032E+03  0.19314489110E+03 -0.25445137605E+03  0.41759189947E+03  0.00000000000E+00 0.  1.
         11    1    5    5    0    0 -0.88882926901E+02 -0.11322376285E+02  0.57994123786E+02  0.10673185697E+03  0.00000000000E+00 0.  1.
        -11    1    5    5    0    0 -0.49985564415E+03 -0.28004878264E+03  0.32883775670E+03  0.66061884311E+03  0.00000000000E+00 0. -1.
          1    1    6    6  503    0  0.25340407762E+03  0.49025577022E+02  0.14355625463E+02  0.25850187183E+03  0.00000000000E+00 0. -1.
         -1    1    6    6    0  503  0.12227002731E+02  0.33028493936E+02  0.29842740722E+01  0.35345252853E+02  0.00000000000E+00 0.  1.
<mgrwt>
<rscale>  0 0.15773522E+04</rscale>
<asrwt>0</asrwt>
<pdfrwt beam="1">  1        1 0.12661678E+00 0.15773522E+04</pdfrwt>
<pdfrwt beam="2">  1       -2 0.11627313E+00 0.15773522E+04</pdfrwt>
<totfact> 0.10207035E+01</totfact>
</mgrwt>
</event>
<event>
12    4  0.4413110E-008  0.1693991E+04  0.7818608E-02  0.8764799E-01
         -2   -1    0    0    0  501 -0.00000000000E+00  0.00000000000E+00  0.89180220178E+03  0.89180220178E+03  0.00000000000E+00 0.  1.
          1   -1    0    0  501    0  0.00000000000E+00 -0.00000000000E+00 -0.80443999497E+03  0.80443999497E+03  0.00000000000E+00 0. -1.
        -24    2    1    2    0    0  0.53114340145E+03 -0.52715457728E+02  0.31270624147E+03  0.62395175374E+03  0.81476163052E+02 0.  0.
        254    2    1    2    0    0 -0.53114340145E+03  0.52715457728E+02 -0.22534403467E+03  0.10722904430E+04  0.90229409164E+03 0.  0.
         23    2    4    4    0    0 -0.38337393920E+02 -0.32323791963E+03 -0.28439607587E+03  0.44295400004E+03  0.96822568263E+02 0.  0.
         23    2    4    4    0    0 -0.49280600753E+03  0.37595337736E+03  0.59052041204E+02  0.62933644297E+03  0.91534211453E+02 0.  0.
          1    1    3    3  502    0  0.91131088402E+02  0.50966238637E+01  0.23530534504E+02  0.94257821438E+02  0.00000000000E+00 0. -1.
         -2    1    3    3    0  502  0.44001231305E+03 -0.57812081591E+02  0.28917570697E+03  0.52969393230E+03  0.00000000000E+00 0.  1.
         11    1    5    5    0    0  0.10494327198E+02 -0.14793305130E+03 -0.77221955005E+02  0.16720511028E+03  0.00000000000E+00 0.  1.
        -11    1    5    5    0    0 -0.48831721118E+02 -0.17530486833E+03 -0.20717412087E+03  0.27574888976E+03  0.00000000000E+00 0. -1.
          1    1    6    6  503    0 -0.59299694544E+02  0.48687753193E+02  0.38345297036E+02  0.85774780028E+02  0.00000000000E+00 0. -1.
         -1    1    6    6    0  503 -0.43350631299E+03  0.32726562416E+03  0.20706744168E+02  0.54356166294E+03  0.00000000000E+00 0.  1.
<mgrwt>
<rscale>  0 0.16939910E+04</rscale>
<asrwt>0</asrwt>
<pdfrwt beam="1">  1        1 0.12376000E+00 0.16939910E+04</pdfrwt>
<pdfrwt beam="2">  1       -2 0.13720034E+00 0.16939910E+04</pdfrwt>
<totfact> 0.69152614E+00</totfact>
</mgrwt>
</event>
<event>
12    4  0.4413110E-008  0.1336588E+04  0.7818608E-02  0.9001044E-01
         -2   -1    0    0    0  501 -0.00000000000E+00  0.00000000000E+00  0.11866717947E+04  0.11866717947E+04  0.00000000000E+00 0.  1.
          1   -1    0    0  501    0  0.00000000000E+00 -0.00000000000E+00 -0.37636069644E+03  0.37636069644E+03  0.00000000000E+00 0. -1.
        -24    2    1    2    0    0  0.25131988901E+03  0.16872720644E+03  0.45183463309E+03  0.55134962445E+03  0.90561117057E+02 0.  0.
        254    2    1    2    0    0 -0.25131988901E+03 -0.16872720644E+03  0.35847646515E+03  0.10116828667E+04  0.89630702877E+03 0.  0.
         23    2    4    4    0    0  0.20895579820E+03  0.21804830159E+03  0.25616225081E+02  0.31898099017E+03  0.99423808386E+02 0.  0.
         23    2    4    4    0    0 -0.46027568721E+03 -0.38677550803E+03  0.33286024007E+03  0.69270187649E+03  0.87126049076E+02 0.  0.
          3    1    3    3  502    0 -0.58320608955E+01 -0.21006610847E+01  0.38699763029E+01  0.73076964815E+01  0.00000000000E+00 0. -1.
         -4    1    3    3    0  502  0.25715194990E+03  0.17082786752E+03  0.44796465679E+03  0.54404192797E+03  0.00000000000E+00 0.  1.
         11    1    5    5    0    0  0.81438599759E+02  0.25319812813E+02  0.21039043003E+02  0.87840649941E+02  0.00000000000E+00 0.  1.
        -11    1    5    5    0    0  0.12751719844E+03  0.19272848878E+03  0.45771820789E+01  0.23114034023E+03  0.00000000000E+00 0. -1.
          1    1    6    6  503    0 -0.22962263570E+03 -0.13675204210E+03  0.14156493510E+03  0.30243727729E+03  0.00000000000E+00 0.  1.
         -1    1    6    6    0  503 -0.23065305150E+03 -0.25002346593E+03  0.19129530497E+03  0.39026459920E+03  0.00000000000E+00 0. -1.
<mgrwt>
<rscale>  0 0.13365876E+04</rscale>
<asrwt>0</asrwt>
<pdfrwt beam="1">  1        1 0.57901646E-01 0.13365876E+04</pdfrwt>
<pdfrwt beam="2">  1       -2 0.18256489E+00 0.13365876E+04</pdfrwt>
<totfact> 0.96852575E+00</totfact>
</mgrwt>
</event>
<event>
12    4  0.4413110E-008  0.2652823E+04  0.7818608E-02  0.8350477E-01
          1   -1    0    0  501    0  0.00000000000E+00  0.00000000000E+00  0.25050882814E+04  0.25050882814E+04  0.00000000000E+00 0. -1.
         -2   -1    0    0    0  501 -0.00000000000E+00 -0.00000000000E+00 -0.70231745233E+03  0.70231745233E+03  0.00000000000E+00 0.  1.
        -24    2    1    2    0    0  0.37890964371E+03 -0.91283240445E+03  0.15568511139E+04  0.18458157843E+04  0.80093707578E+02 0.  0.
        254    2    1    2    0    0 -0.37890964371E+03  0.91283240445E+03  0.24591971516E+03  0.13615899494E+04  0.90366761995E+03 0.  0.
         23    2    4    4    0    0 -0.56960820929E+03  0.56667492476E+03  0.43191850263E+03  0.91637568181E+03  0.87274365402E+02 0.  0.
         23    2    4    4    0    0  0.19069856558E+03  0.34615747969E+03 -0.18599878747E+03  0.44521426762E+03  0.86193105806E+02 0.  0.
          3    1    3    3  502    0  0.37603176277E+03 -0.88221096469E+03  0.15254727731E+04  0.18018777024E+04  0.00000000000E+00 0. -1.
         -4    1    3    3    0  502  0.28778809369E+01 -0.30621439763E+02  0.31378340788E+02  0.43938081916E+02  0.00000000000E+00 0.  1.
         11    1    5    5    0    0 -0.39243062060E+03  0.40035345069E+03  0.25555566332E+03  0.61611149520E+03  0.00000000000E+00 0. -1.
        -11    1    5    5    0    0 -0.17717758868E+03  0.16632147407E+03  0.17636283931E+03  0.30026418660E+03  0.00000000000E+00 0.  1.
          2    1    6    6  503    0  0.18877289784E+03  0.31213975800E+03 -0.18931248334E+03  0.41098132784E+03  0.00000000000E+00 0. -1.
         -2    1    6    6    0  503  0.19256677396E+01  0.34017721697E+02  0.33136958740E+01  0.34232939781E+02  0.00000000000E+00 0.  1.
<mgrwt>
<rscale>  0 0.26528228E+04</rscale>
<asrwt>0</asrwt>
<pdfrwt beam="1">  1        1 0.38539819E+00 0.26528228E+04</pdfrwt>
<pdfrwt beam="2">  1       -2 0.10804884E+00 0.26528228E+04</pdfrwt>
<totfact> 0.71055162E-01</totfact>
</mgrwt>
</event>
<event>
12    4  0.5471131E-008  0.1719403E+04  0.7818608E-02  0.8750375E-01
         -2   -1    0    0    0  501 -0.00000000000E+00  0.00000000000E+00  0.71985256812E+03  0.71985256812E+03  0.00000000000E+00 0.  1.
          1   -1    0    0  501    0  0.00000000000E+00 -0.00000000000E+00 -0.10267199723E+04  0.10267199723E+04  0.00000000000E+00 0. -1.
        -24    2    1    2    0    0  0.26025399227E+03 -0.32487893566E+03  0.34949566076E+03  0.54866681481E+03  0.74897219343E+02 0.  0.
        254    2    1    2    0    0 -0.26025399227E+03  0.32487893566E+03 -0.65636306497E+03  0.11979057256E+04  0.91153013725E+03 0.  0.
         23    2    4    4    0    0  0.28846508628E+03 -0.69449216263E+02 -0.12565127223E+03  0.33364809432E+03  0.86588157307E+02 0.  0.
         23    2    4    4    0    0 -0.54871907855E+03  0.39432815192E+03 -0.53071179274E+03  0.86425763131E+03  0.93268042607E+02 0.  0.
          1    1    3    3  502    0  0.60859857755E+02 -0.69862311868E+02  0.12115000950E+03  0.15251881755E+03  0.00000000000E+00 0. -1.
         -2    1    3    3    0  502  0.19939413451E+03 -0.25501662379E+03  0.22834565126E+03  0.39614799726E+03  0.00000000000E+00 0.  1.
         11    1    5    5    0    0  0.28776903154E+03 -0.57122208966E+02 -0.10912958699E+03  0.31302272925E+03  0.00000000000E+00 0.  1.
        -11    1    5    5    0    0  0.69605474173E+00 -0.12327007296E+02 -0.16521685235E+02  0.20625365066E+02  0.00000000000E+00 0. -1.
          3    1    6    6  503    0 -0.42598404662E+01  0.20303895995E+02 -0.94142707154E+01  0.22782074674E+02  0.00000000000E+00 0. -1.
         -3    1    6    6    0  503 -0.54445923808E+03  0.37402425593E+03 -0.52129752202E+03  0.84147555664E+03  0.00000000000E+00 0.  1.
<mgrwt>
<rscale>  0 0.17194034E+04</rscale>
<asrwt>0</asrwt>
<pdfrwt beam="1">  1        1 0.15795692E+00 0.17194034E+04</pdfrwt>
<pdfrwt beam="2">  1       -2 0.11074655E+00 0.17194034E+04</pdfrwt>
<totfact> 0.77646563E+00</totfact>
</mgrwt>
</event>
<event>
12    4  0.4413110E-008  0.2153273E+04  0.7818608E-02  0.8538133E-01
          1   -1    0    0  501    0  0.00000000000E+00  0.00000000000E+00  0.83630638298E+03  0.83630638298E+03  0.00000000000E+00 0. -1.
         -2   -1    0    0    0  501 -0.00000000000E+00 -0.00000000000E+00 -0.13860302312E+04  0.13860302312E+04  0.00000000000E+00 0.  1.
        -24    2    1    2    0    0  0.61107494695E+03  0.47510524409E+03 -0.68775830367E+03  0.10385210141E+04  0.79855047684E+02 0.  0.
        254    2    1    2    0    0 -0.61107494695E+03 -0.47510524409E+03  0.13803445546E+03  0.11838156001E+04  0.88500185332E+03 0.  0.
         23    2    4    4    0    0 -0.19297605017E+03 -0.66721179106E+03  0.14097983322E+03  0.71462380666E+03  0.91654468563E+02 0.  0.
         23    2    4    4    0    0 -0.41809889678E+03  0.19210654696E+03 -0.29453777509E+01  0.46919179344E+03  0.91764104647E+02 0.  0.
          1    1    3    3  502    0  0.24546361755E+03  0.18985209399E+03 -0.22421130678E+03  0.38284058721E+03  0.00000000000E+00 0. -1.
         -2    1    3    3    0  502  0.36561132940E+03  0.28525315011E+03 -0.46354699690E+03  0.65568042686E+03  0.00000000000E+00 0.  1.
         11    1    5    5    0    0 -0.15249198130E+03 -0.49121735471E+03  0.63994511712E+02  0.51830839416E+03  0.00000000000E+00 0.  1.
        -11    1    5    5    0    0 -0.40484068866E+02 -0.17599443634E+03  0.76985321503E+02  0.19631541249E+03  0.00000000000E+00 0. -1.
          1    1    6    6  503    0 -0.12517981437E+03  0.71728225080E+02 -0.41599905144E+02  0.15015151117E+03  0.00000000000E+00 0. -1.
         -1    1    6    6    0  503 -0.29291908241E+03  0.12037832188E+03  0.38654527393E+02  0.31904028226E+03  0.00000000000E+00 0.  1.
<mgrwt>
<rscale>  0 0.21532728E+04</rscale>
<asrwt>0</asrwt>
<pdfrwt beam="1">  1        1 0.12866252E+00 0.21532728E+04</pdfrwt>
<pdfrwt beam="2">  1       -2 0.21323542E+00 0.21532728E+04</pdfrwt>
<totfact> 0.18008729E+00</totfact>
</mgrwt>
</event>
<event>
12    4  0.4413110E-008  0.1463540E+04  0.7818608E-02  0.8909067E-01
         -2   -1    0    0    0  501 -0.00000000000E+00  0.00000000000E+00  0.47066453252E+03  0.47066453252E+03  0.00000000000E+00 0.  1.
          1   -1    0    0  501    0  0.00000000000E+00 -0.00000000000E+00 -0.11377255466E+04  0.11377255466E+04  0.00000000000E+00 0. -1.
        -24    2    1    2    0    0  0.83349314733E+02  0.43678184954E+03 -0.16797762226E+03  0.48374671908E+03  0.89827135612E+02 0.  0.
        254    2    1    2    0    0 -0.83349314733E+02 -0.43678184954E+03 -0.49908339182E+03  0.11246433600E+04  0.90444069066E+03 0.  0.
         23    2    4    4    0    0  0.15949769900E+03 -0.57228508639E+03 -0.70844478098E+02  0.60584073813E+03  0.95259245270E+02 0.  0.
         23    2    4    4    0    0 -0.24284701374E+03  0.13550323685E+03 -0.42823891372E+03  0.51880262191E+03  0.91824800571E+02 0.  0.
          1    1    3    3  502    0  0.67996420072E+02  0.41896567989E+03 -0.17513938933E+03  0.45916180129E+03  0.00000000000E+00 0. -1.
         -2    1    3    3    0  502  0.15352894661E+02  0.17816169654E+02  0.71617670722E+01  0.24584917799E+02  0.00000000000E+00 0.  1.
         11    1    5    5    0    0  0.99629126216E+02 -0.21490778130E+03 -0.13634050316E+01  0.23688219884E+03  0.00000000000E+00 0. -1.
        -11    1    5    5    0    0  0.59868572788E+02 -0.35737730509E+03 -0.69481073067E+02  0.36895853929E+03  0.00000000000E+00 0.  1.
          3    1    6    6  503    0 -0.28340415040E+02 -0.13290198445E+02 -0.37039176960E+02  0.48494423692E+02  0.00000000000E+00 0. -1.
         -3    1    6    6    0  503 -0.21450659870E+03  0.14879343529E+03 -0.39119973676E+03  0.47030819822E+03  0.00000000000E+00 0.  1.
<mgrwt>
<rscale>  0 0.14635396E+04</rscale>
<asrwt>0</asrwt>
<pdfrwt beam="1">  1        1 0.17503470E+00 0.14635396E+04</pdfrwt>
<pdfrwt beam="2">  1       -2 0.72409927E-01 0.14635396E+04</pdfrwt>
<totfact> 0.17443593E+01</totfact>
</mgrwt>
</event>
<event>
12    4  0.4413110E-008  0.1699404E+04  0.7818608E-02  0.8761704E-01
         -2   -1    0    0    0  501 -0.00000000000E+00  0.00000000000E+00  0.73336063387E+03  0.73336063387E+03  0.00000000000E+00 0.  1.
          1   -1    0    0  501    0  0.00000000000E+00 -0.00000000000E+00 -0.98449962316E+03  0.98449962316E+03  0.00000000000E+00 0. -1.
        -24    2    1    2    0    0 -0.12424977307E+03 -0.48922424605E+02 -0.63307354794E+03  0.65185988199E+03  0.79421526746E+02 0.  0.
        254    2    1    2    0    0  0.12424977307E+03  0.48922424605E+02  0.38193455864E+03  0.10660003750E+04  0.98623089728E+03 0.  0.
         23    2    4    4    0    0  0.29491410414E+03  0.70996984135E+02  0.65602160577E+03  0.72976310056E+03  0.10087088344E+03 0.  0.
         23    2    4    4    0    0 -0.17066433108E+03 -0.22074559530E+02 -0.27408704712E+03  0.33623727448E+03  0.91204140622E+02 0.  0.
          1    1    3    3  502    0 -0.10636022344E+03 -0.17149568024E+02 -0.55913210019E+03  0.56941664033E+03  0.00000000000E+00 0. -1.
         -2    1    3    3    0  502 -0.17889549628E+02 -0.31772856581E+02 -0.73941447743E+02  0.82443241661E+02  0.00000000000E+00 0.  1.
         11    1    5    5    0    0  0.13727668584E+03  0.45596291725E+02  0.20175367771E+03  0.24825079409E+03  0.00000000000E+00 0. -1.
        -11    1    5    5    0    0  0.15763741830E+03  0.25400692410E+02  0.45426792805E+03  0.48151230647E+03  0.00000000000E+00 0.  1.
          2    1    6    6  503    0 -0.22950732642E+02  0.26731864858E+01  0.88372864099E+00  0.23122781648E+02  0.00000000000E+00 0. -1.
         -2    1    6    6    0  503 -0.14771359843E+03 -0.24747746016E+02 -0.27497077577E+03  0.31311449283E+03  0.00000000000E+00 0.  1.
<mgrwt>
<rscale>  0 0.16994037E+04</rscale>
<asrwt>0</asrwt>
<pdfrwt beam="1">  1        1 0.15146148E+00 0.16994037E+04</pdfrwt>
<pdfrwt beam="2">  1       -2 0.11282471E+00 0.16994037E+04</pdfrwt>
<totfact> 0.80193389E+00</totfact>
</mgrwt>
</event>
<event>
12    4  0.4413110E-008  0.1380819E+04  0.7818608E-02  0.8967821E-01
         -2   -1    0    0    0  501 -0.00000000000E+00  0.00000000000E+00  0.11429489651E+04  0.11429489651E+04  0.00000000000E+00 0.  1.
          1   -1    0    0  501    0  0.00000000000E+00 -0.00000000000E+00 -0.41704864795E+03  0.41704864795E+03  0.00000000000E+00 0. -1.
        -24    2    1    2    0    0  0.32589005137E+03 -0.20160723546E+03  0.11594900279E+03  0.40800544963E+03  0.78577813069E+02 0.  0.
        254    2    1    2    0    0 -0.32589005137E+03  0.20160723546E+03  0.60995131437E+03  0.11519921634E+04  0.89899696091E+03 0.  0.
         23    2    4    4    0    0  0.41108200997E+02  0.86847787470E+02 -0.20619521031E+03  0.24524952707E+03  0.91643021537E+02 0.  0.
         23    2    4    4    0    0 -0.36699825237E+03  0.11475944799E+03  0.81614652468E+03  0.90674263635E+03  0.90717201699E+02 0.  0.
          3    1    3    3  502    0  0.20456956775E+03 -0.11462781261E+03  0.10893163688E+03  0.25856207183E+03  0.00000000000E+00 0. -1.
         -4    1    3    3    0  502  0.12132048362E+03 -0.86979422844E+02  0.70173659089E+01  0.14944337780E+03  0.00000000000E+00 0.  1.
         11    1    5    5    0    0  0.45428626793E+02  0.85711339492E+02 -0.10129011899E+03  0.14024935670E+03  0.00000000000E+00 0.  1.
        -11    1    5    5    0    0 -0.43204257961E+01  0.11364479775E+01 -0.10490509132E+03  0.10500017037E+03  0.00000000000E+00 0. -1.
          2    1    6    6  503    0 -0.39393804141E+01  0.18960932823E+02  0.33790465694E+02  0.38946517988E+02  0.00000000000E+00 0. -1.
         -2    1    6    6    0  503 -0.36305887196E+03  0.95798515166E+02  0.78235605899E+03  0.86779611837E+03  0.00000000000E+00 0.  1.
<mgrwt>
<rscale>  0 0.13808191E+04</rscale>
<asrwt>0</asrwt>
<pdfrwt beam="1">  1        1 0.64161331E-01 0.13808191E+04</pdfrwt>
<pdfrwt beam="2">  1       -2 0.17583830E+00 0.13808191E+04</pdfrwt>
<totfact> 0.93753593E+00</totfact>
</mgrwt>
</event>
<event>
12    4  0.4413110E-008  0.2580395E+04  0.7818608E-02  0.8374891E-01
          3   -1    0    0  501    0  0.00000000000E+00  0.00000000000E+00  0.84134393257E+03  0.84134393257E+03  0.00000000000E+00 0. -1.
         -4   -1    0    0    0  501 -0.00000000000E+00 -0.00000000000E+00 -0.19785126294E+04  0.19785126294E+04  0.00000000000E+00 0.  1.
        -24    2    1    2    0    0  0.83096606718E+03  0.59634856233E+03  0.30413359327E+02  0.10264001095E+04  0.80224683286E+02 0.  0.
        254    2    1    2    0    0 -0.83096606718E+03 -0.59634856233E+03 -0.11675820561E+04  0.17934564524E+04  0.89838854418E+03 0.  0.
         23    2    4    4    0    0 -0.88680256583E+03 -0.42466482667E+03 -0.52275926373E+03  0.11175477346E+04  0.94216163370E+02 0.  0.
         23    2    4    4    0    0  0.55836498647E+02 -0.17168373567E+03 -0.64482279242E+03  0.67590871787E+03  0.91995334628E+02 0.  0.
          3    1    3    3  502    0  0.55169748330E+03  0.39776278752E+03 -0.17674421971E+02  0.68036588201E+03  0.00000000000E+00 0. -1.
         -4    1    3    3    0  502  0.27926858388E+03  0.19858577481E+03  0.48087781298E+02  0.34603422751E+03  0.00000000000E+00 0.  1.
         11    1    5    5    0    0 -0.13792638386E+03 -0.35314248636E+02 -0.96304758405E+02  0.17188772502E+03  0.00000000000E+00 0. -1.
        -11    1    5    5    0    0 -0.74887618197E+03 -0.38935057803E+03 -0.42645450533E+03  0.94566000954E+03  0.00000000000E+00 0.  1.
          3    1    6    6  503    0 -0.11188777802E+02 -0.80411091530E+02 -0.36743394528E+03  0.37629620851E+03  0.00000000000E+00 0. -1.
         -3    1    6    6    0  503  0.67025276449E+02 -0.91272644136E+02 -0.27738884713E+03  0.29961250936E+03  0.00000000000E+00 0.  1.
<mgrwt>
<rscale>  0 0.25803950E+04</rscale>
<asrwt>0</asrwt>
<pdfrwt beam="1">  1        3 0.12943753E+00 0.25803950E+04</pdfrwt>
<pdfrwt beam="2">  1       -4 0.30438656E+00 0.25803950E+04</pdfrwt>
<totfact> 0.27468382E-02</totfact>
</mgrwt>
</event>
<event>
12    4  0.4413110E-008  0.1419421E+04  0.7818608E-02  0.8939879E-01
         -2   -1    0    0    0  501 -0.00000000000E+00  0.00000000000E+00  0.19667705937E+03  0.19667705937E+03  0.00000000000E+00 0.  1.
          1   -1    0    0  501    0  0.00000000000E+00 -0.00000000000E+00 -0.25609949359E+04  0.25609949359E+04  0.00000000000E+00 0. -1.
        -24    2    1    2    0    0  0.25422496742E+03 -0.14946701794E+03 -0.13584051178E+03  0.33456657996E+03  0.80693421504E+02 0.  0.
        254    2    1    2    0    0 -0.25422496742E+03  0.14946701794E+03 -0.22284773647E+04  0.24231054153E+04  0.90463128673E+03 0.  0.
         23    2    4    4    0    0 -0.40686039615E+03 -0.81712516603E+02 -0.44408794161E+03  0.61470073640E+03  0.91818179728E+02 0.  0.
         23    2    4    4    0    0  0.15263542872E+03  0.23117953455E+03 -0.17843894231E+04  0.18084046789E+04  0.97674551218E+02 0.  0.
          3    1    3    3  502    0  0.60061520782E+02 -0.35168321253E+02  0.34381448591E+01  0.69685134271E+02  0.00000000000E+00 0. -1.
         -4    1    3    3    0  502  0.19416344664E+03 -0.11429869669E+03 -0.13927865664E+03  0.26488144569E+03  0.00000000000E+00 0.  1.
         11    1    5    5    0    0 -0.23682222736E+02 -0.18954389429E+02 -0.91986899506E+01  0.31697514874E+02  0.00000000000E+00 0. -1.
        -11    1    5    5    0    0 -0.38317817341E+03 -0.62758127174E+02 -0.43488925166E+03  0.58300322153E+03  0.00000000000E+00 0.  1.
          3    1    6    6  503    0 -0.86090359970E+01  0.94049522773E+01 -0.20455476592E+03  0.20495175258E+03  0.00000000000E+00 0. -1.
         -3    1    6    6    0  503  0.16124446472E+03  0.22177458227E+03 -0.15798346572E+04  0.16034529263E+04  0.00000000000E+00 0.  1.
<mgrwt>
<rscale>  0 0.14194209E+04</rscale>
<asrwt>0</asrwt>
<pdfrwt beam="1">  1        1 0.39399921E+00 0.14194209E+04</pdfrwt>
<pdfrwt beam="2">  1       -2 0.30258010E-01 0.14194209E+04</pdfrwt>
<totfact> 0.10638625E+01</totfact>
</mgrwt>
</event>
<event>
12    4  0.4413110E-008  0.1319310E+04  0.7818608E-02  0.9014391E-01
         -2   -1    0    0    0  501 -0.00000000000E+00  0.00000000000E+00  0.83238527222E+03  0.83238527222E+03  0.00000000000E+00 0.  1.
          1   -1    0    0  501    0  0.00000000000E+00 -0.00000000000E+00 -0.52276865315E+03  0.52276865315E+03  0.00000000000E+00 0. -1.
        -24    2    1    2    0    0 -0.25206475830E+03  0.19009601064E+03 -0.66531477931E+02  0.33262751563E+03  0.80879484179E+02 0.  0.
        254    2    1    2    0    0  0.25206475830E+03 -0.19009601064E+03  0.37614809700E+03  0.10225264097E+04  0.89688334364E+03 0.  0.
         23    2    4    4    0    0  0.30690648123E+03 -0.13018443240E+03  0.64256263127E+03  0.72941615579E+03  0.89563489016E+02 0.  0.
         23    2    4    4    0    0 -0.54841722927E+02 -0.59911578240E+02 -0.26641453427E+03  0.29311025394E+03  0.91323080940E+02 0.  0.
          1    1    3    3  502    0 -0.15492675802E+03  0.96326848376E+02 -0.75231817525E+02  0.19733471169E+03  0.00000000000E+00 0. -1.
         -2    1    3    3    0  502 -0.97138000287E+02  0.93769162263E+02  0.87003395933E+01  0.13529280395E+03  0.00000000000E+00 0.  1.
         11    1    5    5    0    0  0.27160544994E+03 -0.14181281042E+03  0.59284070593E+03  0.66733836713E+03  0.00000000000E+00 0. -1.
        -11    1    5    5    0    0  0.35301031293E+02  0.11628378020E+02  0.49721925340E+02  0.62077788662E+02  0.00000000000E+00 0.  1.
          2    1    6    6  503    0 -0.56461187797E+02 -0.64730328339E+02 -0.27218702855E+03  0.28541839402E+03  0.00000000000E+00 0. -1.
         -2    1    6    6    0  503  0.16194648696E+01  0.48187500988E+01  0.57724942722E+01  0.76918599247E+01  0.00000000000E+00 0.  1.
<mgrwt>
<rscale>  0 0.13193103E+04</rscale>
<asrwt>0</asrwt>
<pdfrwt beam="1">  1        1 0.80425947E-01 0.13193103E+04</pdfrwt>
<pdfrwt beam="2">  1       -2 0.12805927E+00 0.13193103E+04</pdfrwt>
<totfact> 0.16121059E+01</totfact>
</mgrwt>
</event>
<event>
12    4  0.4413110E-008  0.2461120E+04  0.7818608E-02  0.8416969E-01
          1   -1    0    0  501    0  0.00000000000E+00  0.00000000000E+00  0.18799887572E+04  0.18799887572E+04  0.00000000000E+00 0. -1.
         -2   -1    0    0    0  501 -0.00000000000E+00 -0.00000000000E+00 -0.80547205186E+03  0.80547205186E+03  0.00000000000E+00 0.  1.
        -24    2    1    2    0    0  0.40265750932E+03 -0.53259772008E+03 -0.45845738556E+03  0.81416751289E+03  0.83019054499E+02 0.  0.
        254    2    1    2    0    0 -0.40265750932E+03  0.53259772008E+03  0.15329740909E+04  0.18712932962E+04  0.84019975937E+03 0.  0.
         23    2    4    4    0    0 -0.20781347333E+03  0.54253778325E+03  0.15465454072E+04  0.16544751071E+04  0.89171170412E+02 0.  0.
         23    2    4    4    0    0 -0.19484403599E+03 -0.99400631674E+01 -0.13571316254E+02  0.21681818907E+03  0.93610593796E+02 0.  0.
          3    1    3    3  502    0  0.24388428175E+03 -0.30024200868E+03 -0.31174320442E+03  0.49679838180E+03  0.00000000000E+00 0. -1.
         -4    1    3    3    0  502  0.15877322757E+03 -0.23235571140E+03 -0.14671418114E+03  0.31736913108E+03  0.00000000000E+00 0.  1.
         11    1    5    5    0    0 -0.69848314345E+02  0.28303691199E+03  0.84415102407E+03  0.89307313922E+03  0.00000000000E+00 0. -1.
        -11    1    5    5    0    0 -0.13796515899E+03  0.25950087126E+03  0.70239438310E+03  0.76140196788E+03  0.00000000000E+00 0.  1.
          4    1    6    6  503    0 -0.19071679178E+02  0.22599158486E+02  0.18954420668E+02  0.35124364390E+02  0.00000000000E+00 0. -1.
         -4    1    6    6    0  503 -0.17577235681E+03 -0.32539221653E+02 -0.32525736922E+02  0.18169382468E+03  0.00000000000E+00 0.  1.
<mgrwt>
<rscale>  0 0.24611204E+04</rscale>
<asrwt>0</asrwt>
<pdfrwt beam="1">  1        1 0.28922904E+00 0.24611204E+04</pdfrwt>
<pdfrwt beam="2">  1       -2 0.12391878E+00 0.24611204E+04</pdfrwt>
<totfact> 0.13796625E+00</totfact>
</mgrwt>
</event>
<event>
12    4  0.4413110E-008  0.1210560E+04  0.7818608E-02  0.9103664E-01
         -2   -1    0    0    0  501 -0.00000000000E+00  0.00000000000E+00  0.39673674722E+03  0.39673674722E+03  0.00000000000E+00 0.  1.
          1   -1    0    0  501    0  0.00000000000E+00 -0.00000000000E+00 -0.92344256317E+03  0.92344256317E+03  0.00000000000E+00 0. -1.
        -24    2    1    2    0    0 -0.24614024918E+03  0.17708114605E+02 -0.25841801921E+02  0.26197453612E+03  0.84049147873E+02 0.  0.
        254    2    1    2    0    0  0.24614024918E+03 -0.17708114605E+02 -0.50086401404E+03  0.10582047743E+04  0.89890710540E+03 0.  0.
         23    2    4    4    0    0  0.16939450196E+03 -0.14178472371E+03  0.21660136059E+03  0.32173523013E+03  0.88317629739E+02 0.  0.
         23    2    4    4    0    0  0.76745747215E+02  0.12407660911E+03 -0.71746537462E+03  0.73646954414E+03  0.79661226588E+02 0.  0.
          3    1    3    3  502    0 -0.67758839469E+02  0.20003423509E+02  0.27439909717E+02  0.75791463395E+02  0.00000000000E+00 0. -1.
         -4    1    3    3    0  502 -0.17838140971E+03 -0.22953089046E+01 -0.53281711637E+02  0.18618307272E+03  0.00000000000E+00 0.  1.
         11    1    5    5    0    0  0.44046582667E+00 -0.78333142624E+01  0.46351722986E+02  0.47011031113E+02  0.00000000000E+00 0. -1.
        -11    1    5    5    0    0  0.16895403614E+03 -0.13395140945E+03  0.17024963760E+03  0.27472419902E+03  0.00000000000E+00 0.  1.
          4    1    6    6  503    0  0.29429424948E+02  0.16630400515E+02 -0.32682032666E+03  0.32856382514E+03  0.00000000000E+00 0. -1.
         -4    1    6    6    0  503  0.47316322267E+02  0.10744620860E+03 -0.39064504797E+03  0.40790571900E+03  0.00000000000E+00 0.  1.
<mgrwt>
<rscale>  0 0.12105595E+04</rscale>
<asrwt>0</asrwt>
<pdfrwt beam="1">  1        1 0.14206809E+00 0.12105595E+04</pdfrwt>
<pdfrwt beam="2">  1       -2 0.61036423E-01 0.12105595E+04</pdfrwt>
<totfact> 0.37700355E+01</totfact>
</mgrwt>
</event>
<event>
12    4  0.4413110E-008  0.1542634E+04  0.7818608E-02  0.8856586E-01
          1   -1    0    0  501    0  0.00000000000E+00  0.00000000000E+00  0.34420034277E+04  0.34420034277E+04  0.00000000000E+00 0. -1.
         -2   -1    0    0    0  501 -0.00000000000E+00 -0.00000000000E+00 -0.17284410108E+03  0.17284410108E+03  0.00000000000E+00 0.  1.
        -24    2    1    2    0    0  0.13446124564E+03 -0.46276805766E+03  0.72607421437E+03  0.87522517545E+03  0.81248022816E+02 0.  0.
        254    2    1    2    0    0 -0.13446124564E+03  0.46276805766E+03  0.25430851123E+04  0.27396223533E+04  0.89778318592E+03 0.  0.
         23    2    4    4    0    0  0.36518076227E+03  0.93157908619E+02  0.86606510324E+03  0.94889877843E+03  0.91130365807E+02 0.  0.
         23    2    4    4    0    0 -0.49964200791E+03  0.36961014904E+03  0.16770200090E+04  0.17907235749E+04  0.89671694242E+02 0.  0.
          1    1    3    3  502    0  0.12396188753E+03 -0.45364041561E+03  0.72015896934E+03  0.86010761963E+03  0.00000000000E+00 0. -1.
         -2    1    3    3    0  502  0.10499358118E+02 -0.91276420440E+01  0.59152450289E+01  0.15117555818E+02  0.00000000000E+00 0.  1.
         11    1    5    5    0    0  0.71092767917E+02  0.56587225664E+02  0.22467498786E+03  0.24235334933E+03  0.00000000000E+00 0. -1.
        -11    1    5    5    0    0  0.29408799435E+03  0.36570682956E+02  0.64139011538E+03  0.70654542910E+03  0.00000000000E+00 0.  1.
          2    1    6    6  503    0 -0.12656519803E+03  0.75672679362E+02  0.30405572051E+03  0.33792748472E+03  0.00000000000E+00 0. -1.
         -2    1    6    6    0  503 -0.37307680988E+03  0.29393746968E+03  0.13729642885E+04  0.14527960902E+04  0.00000000000E+00 0.  1.
<mgrwt>
<rscale>  0 0.15426341E+04</rscale>
<asrwt>0</asrwt>
<pdfrwt beam="1">  1        1 0.52953894E+00 0.15426341E+04</pdfrwt>
<pdfrwt beam="2">  1       -2 0.26591403E-01 0.15426341E+04</pdfrwt>
<totfact> 0.30421327E+00</totfact>
</mgrwt>
</event>
<event>
12    4  0.4413110E-008  0.1532288E+04  0.7818608E-02  0.8863261E-01
          1   -1    0    0  501    0  0.00000000000E+00  0.00000000000E+00  0.17897404738E+04  0.17897404738E+04  0.00000000000E+00 0. -1.
         -2   -1    0    0    0  501 -0.00000000000E+00 -0.00000000000E+00 -0.32796748907E+03  0.32796748907E+03  0.00000000000E+00 0.  1.
        -24    2    1    2    0    0  0.43513047109E+03 -0.12764858598E+03  0.75307954654E+03  0.88270072857E+03  0.79994277454E+02 0.  0.
        254    2    1    2    0    0 -0.43513047109E+03  0.12764858598E+03  0.70869343818E+03  0.12350072343E+04  0.90408173916E+03 0.  0.
         23    2    4    4    0    0 -0.36529560477E+03  0.53776075594E+02 -0.11704320652E+03  0.39816334390E+03  0.92207326478E+02 0.  0.
         23    2    4    4    0    0 -0.69834866312E+02  0.73872510389E+02  0.82573664471E+03  0.83684389040E+03  0.90181118567E+02 0.  0.
          1    1    3    3  502    0  0.43172397704E+03 -0.12196045118E+03  0.75245480393E+03  0.87604119536E+03  0.00000000000E+00 0. -1.
         -2    1    3    3    0  502  0.34064940424E+01 -0.56881348059E+01  0.62474260841E+00  0.66595332087E+01  0.00000000000E+00 0.  1.
         11    1    5    5    0    0 -0.13604397422E+02  0.18782854864E+02  0.59549570878E+01  0.23944451967E+02  0.00000000000E+00 0.  1.
        -11    1    5    5    0    0 -0.35169120735E+03  0.34993220730E+02 -0.12299816361E+03  0.37421889193E+03  0.00000000000E+00 0. -1.
          3    1    6    6  503    0 -0.83664697951E+02  0.58175156527E+02  0.77902282151E+03  0.78565939627E+03  0.00000000000E+00 0. -1.
         -3    1    6    6    0  503  0.13829831639E+02  0.15697353861E+02  0.46713823200E+02  0.51184494130E+02  0.00000000000E+00 0.  1.
<mgrwt>
<rscale>  0 0.15322881E+04</rscale>
<asrwt>0</asrwt>
<pdfrwt beam="1">  1        1 0.27534468E+00 0.15322881E+04</pdfrwt>
<pdfrwt beam="2">  1       -2 0.50456538E-01 0.15322881E+04</pdfrwt>
<totfact> 0.13025920E+01</totfact>
</mgrwt>
</event>
<event>
12    4  0.4413110E-008  0.3093865E+04  0.7818608E-02  0.8217424E-01
          3   -1    0    0  501    0  0.00000000000E+00  0.00000000000E+00  0.98138352014E+03  0.98138352014E+03  0.00000000000E+00 0. -1.
         -4   -1    0    0    0  501 -0.00000000000E+00 -0.00000000000E+00 -0.24383945277E+04  0.24383945277E+04  0.00000000000E+00 0.  1.
        -24    2    1    2    0    0 -0.95763042860E+03 -0.64593971974E+03 -0.15711420082E+04  0.19517094922E+04  0.79928546233E+02 0.  0.
        254    2    1    2    0    0  0.95763042860E+03  0.64593971974E+03  0.11413100066E+03  0.14680685557E+04  0.89883549079E+03 0.  0.
         23    2    4    4    0    0  0.55193567840E+03  0.37707188065E+02  0.38826499055E+03  0.68195327276E+03  0.90861092983E+02 0.  0.
         23    2    4    4    0    0  0.40569475020E+03  0.60823253167E+03 -0.27413398990E+03  0.78611528290E+03  0.91064541249E+02 0.  0.
          3    1    3    3  502    0 -0.17429633786E+02 -0.22708719508E+02 -0.26281372511E+02  0.38861145334E+02  0.00000000000E+00 0. -1.
         -4    1    3    3    0  502 -0.94020079482E+03 -0.62323100023E+03 -0.15448606357E+04  0.19128483468E+04  0.00000000000E+00 0.  1.
         11    1    5    5    0    0  0.14136052142E+03  0.47352225460E+02  0.86938103193E+02  0.17257828386E+03  0.00000000000E+00 0. -1.
        -11    1    5    5    0    0  0.41057515698E+03 -0.96450373951E+01  0.30132688736E+03  0.50937498891E+03  0.00000000000E+00 0.  1.
          3    1    6    6  503    0  0.54230488470E+02  0.14170977968E+03 -0.40675554005E+02  0.15708949115E+03  0.00000000000E+00 0. -1.
         -3    1    6    6    0  503  0.35146426173E+03  0.46652275199E+03 -0.23345843589E+03  0.62902579175E+03  0.00000000000E+00 0.  1.
<mgrwt>
<rscale>  0 0.30938650E+04</rscale>
<asrwt>0</asrwt>
<pdfrwt beam="1">  1        3 0.15098208E+00 0.30938650E+04</pdfrwt>
<pdfrwt beam="2">  1       -4 0.37513762E+00 0.30938650E+04</pdfrwt>
<totfact> 0.61643744E-03</totfact>
</mgrwt>
</event>
<event>
12    4  0.4413110E-008  0.1192451E+04  0.7818608E-02  0.9119490E-01
          1   -1    0    0  501    0  0.00000000000E+00  0.00000000000E+00  0.83159675994E+03  0.83159675994E+03  0.00000000000E+00 0. -1.
         -2   -1    0    0    0  501 -0.00000000000E+00 -0.00000000000E+00 -0.42747239421E+03  0.42747239421E+03  0.00000000000E+00 0.  1.
        -24    2    1    2    0    0 -0.20656577060E+03  0.19753565859E+02  0.22581681940E+03  0.31685774369E+03  0.79661614755E+02 0.  0.
        254    2    1    2    0    0  0.20656577060E+03 -0.19753565859E+02  0.17830754633E+03  0.94221141046E+03  0.90161474033E+03 0.  0.
         23    2    4    4    0    0  0.25637858573E+03  0.58514115999E+02  0.51251186372E+03  0.58366281041E+03  0.94021193435E+02 0.  0.
         23    2    4    4    0    0 -0.49812815135E+02 -0.78267681859E+02 -0.33420431739E+03  0.35854860005E+03  0.90870381628E+02 0.  0.
          3    1    3    3  502    0 -0.18848603327E+03  0.36450188068E+02  0.17232302226E+03  0.25797446569E+03  0.00000000000E+00 0. -1.
         -4    1    3    3    0  502 -0.18079737323E+02 -0.16696622209E+02  0.53493797144E+02  0.58883277997E+02  0.00000000000E+00 0.  1.
         11    1    5    5    0    0  0.22947262552E+03  0.17463351602E+02  0.41794021997E+03  0.47711286084E+03  0.00000000000E+00 0.  1.
        -11    1    5    5    0    0  0.26905960212E+02  0.41050764397E+02  0.94571643753E+02  0.10654994958E+03  0.00000000000E+00 0. -1.
          1    1    6    6  503    0 -0.55634362213E+02 -0.83220400190E+01 -0.19029747644E+03  0.19843781935E+03  0.00000000000E+00 0.  1.
         -1    1    6    6    0  503  0.58215470782E+01 -0.69945641840E+02 -0.14390684095E+03  0.16011078070E+03  0.00000000000E+00 0. -1.
<mgrwt>
<rscale>  0 0.11924507E+04</rscale>
<asrwt>0</asrwt>
<pdfrwt beam="1">  1        1 0.12793796E+00 0.11924507E+04</pdfrwt>
<pdfrwt beam="2">  1       -2 0.65764984E-01 0.11924507E+04</pdfrwt>
<totfact> 0.38358200E+01</totfact>
</mgrwt>
</event>
<event>
12    4  0.4413110E-008  0.2221179E+04  0.7818608E-02  0.8509665E-01
         -2   -1    0    0    0  501 -0.00000000000E+00  0.00000000000E+00  0.28409675362E+04  0.28409675362E+04  0.00000000000E+00 0.  1.
          1   -1    0    0  501    0  0.00000000000E+00 -0.00000000000E+00 -0.43415086765E+03  0.43415086765E+03  0.00000000000E+00 0. -1.
        -24    2    1    2    0    0  0.57101316289E+03 -0.70728110428E+03  0.77888096475E+03  0.11995553936E+04  0.77298074662E+02 0.  0.
        254    2    1    2    0    0 -0.57101316289E+03  0.70728110428E+03  0.16279357038E+04  0.20755630103E+04  0.91185775278E+03 0.  0.
         23    2    4    4    0    0 -0.52270948941E+03  0.23320086318E+03  0.28344892706E+03  0.64598755445E+03  0.96689054966E+02 0.  0.
         23    2    4    4    0    0 -0.48303673484E+02  0.47408024110E+03  0.13444867768E+04  0.14295754559E+04  0.94635993205E+02 0.  0.
          3    1    3    3  502    0  0.71984839871E+02 -0.87066524798E+02  0.13253308224E+03  0.17414768100E+03  0.00000000000E+00 0. -1.
         -4    1    3    3    0  502  0.49902832302E+03 -0.62021457948E+03  0.64634788251E+03  0.10254077126E+04  0.00000000000E+00 0.  1.
         11    1    5    5    0    0 -0.28583740706E+02  0.46869421234E+01  0.40595042797E+02  0.49869380976E+02  0.00000000000E+00 0. -1.
        -11    1    5    5    0    0 -0.49412574870E+03  0.22851392106E+03  0.24285388427E+03  0.59611817348E+03  0.00000000000E+00 0.  1.
          4    1    6    6  503    0 -0.18224203404E+02  0.43605076527E+02  0.73997762537E+02  0.87802011076E+02  0.00000000000E+00 0. -1.
         -4    1    6    6    0  503 -0.30079470080E+02  0.43047516457E+03  0.12704890142E+04  0.13417734448E+04  0.00000000000E+00 0.  1.
<mgrwt>
<rscale>  0 0.22211785E+04</rscale>
<asrwt>0</asrwt>
<pdfrwt beam="1">  1        1 0.66792443E-01 0.22211785E+04</pdfrwt>
<pdfrwt beam="2">  1       -2 0.43707192E+00 0.22211785E+04</pdfrwt>
<totfact> 0.18114463E-01</totfact>
</mgrwt>
</event>
<event>
12    4  0.4413110E-008  0.1990540E+04  0.7818608E-02  0.8611057E-01
         -2   -1    0    0    0  501 -0.00000000000E+00  0.00000000000E+00  0.45852259634E+04  0.45852259634E+04  0.00000000000E+00 0.  1.
          1   -1    0    0  501    0  0.00000000000E+00 -0.00000000000E+00 -0.21603339370E+03  0.21603339370E+03  0.00000000000E+00 0. -1.
        -24    2    1    2    0    0 -0.33097163025E+03 -0.13032333504E+03  0.34362230674E+04  0.34555022433E+04  0.79626583334E+02 0.  0.
        254    2    1    2    0    0  0.33097163025E+03  0.13032333504E+03  0.93296950229E+03  0.13457571138E+04  0.90227696714E+03 0.  0.
         23    2    4    4    0    0  0.15407239942E+03  0.49654636764E+03  0.66414303045E+03  0.84887447135E+03  0.95944274135E+02 0.  0.
         23    2    4    4    0    0  0.17689923084E+03 -0.36622303260E+03  0.26882647184E+03  0.49688264244E+03  0.95979377549E+02 0.  0.
          1    1    3    3  502    0 -0.86095665327E+02 -0.91935674229E+01  0.10881598073E+04  0.10915991716E+04  0.00000000000E+00 0. -1.
         -2    1    3    3    0  502 -0.24487596493E+03 -0.12112976762E+03  0.23480632601E+04  0.23639030717E+04  0.00000000000E+00 0.  1.
         11    1    5    5    0    0  0.66692340158E+02  0.31962553105E+03  0.35686621712E+03  0.48369602568E+03  0.00000000000E+00 0.  1.
        -11    1    5    5    0    0  0.87380059257E+02  0.17692083660E+03  0.30727681333E+03  0.36517844568E+03  0.00000000000E+00 0. -1.
          2    1    6    6  503    0  0.69643748904E+02 -0.65698585334E+02  0.88414120785E+02  0.13032119026E+03  0.00000000000E+00 0. -1.
         -2    1    6    6    0  503  0.10725548193E+03 -0.30052444727E+03  0.18041235106E+03  0.36656145218E+03  0.00000000000E+00 0.  1.
<mgrwt>
<rscale>  0 0.19905396E+04</rscale>
<asrwt>0</asrwt>
<pdfrwt beam="1">  1        1 0.33235910E-01 0.19905396E+04</pdfrwt>
<pdfrwt beam="2">  1       -2 0.70541931E+00 0.19905396E+04</pdfrwt>
<totfact> 0.23587101E-02</totfact>
</mgrwt>
</event>
<event>
12    4  0.4413110E-008  0.1552445E+04  0.7818608E-02  0.8850308E-01
          1   -1    0    0  501    0  0.00000000000E+00  0.00000000000E+00  0.11309464217E+04  0.11309464217E+04  0.00000000000E+00 0. -1.
         -2   -1    0    0    0  501 -0.00000000000E+00 -0.00000000000E+00 -0.53275826384E+03  0.53275826384E+03  0.00000000000E+00 0.  1.
        -24    2    1    2    0    0 -0.12147205254E+03 -0.49646945721E+03  0.27340658635E+03  0.58526377781E+03  0.80902080682E+02 0.  0.
        254    2    1    2    0    0  0.12147205254E+03  0.49646945721E+03  0.32478157155E+03  0.10784409078E+04  0.89236446637E+03 0.  0.
         23    2    4    4    0    0 -0.14327396761E+03 -0.95951916879E+02 -0.16897711613E+03  0.25800768886E+03  0.90997261431E+02 0.  0.
         23    2    4    4    0    0  0.26474602016E+03  0.59242137409E+03  0.49375868769E+03  0.82043321891E+03  0.90881710745E+02 0.  0.
          1    1    3    3  502    0 -0.39924832721E+02 -0.22387995064E+03  0.79335785989E+02  0.24085346479E+03  0.00000000000E+00 0. -1.
         -2    1    3    3    0  502 -0.81547219823E+02 -0.27258950658E+03  0.19407080037E+03  0.34441031302E+03  0.00000000000E+00 0.  1.
         11    1    5    5    0    0 -0.12855172399E+03 -0.41511473694E+02 -0.95746983146E+02  0.16557847980E+03  0.00000000000E+00 0. -1.
        -11    1    5    5    0    0 -0.14722243617E+02 -0.54440443185E+02 -0.73230132988E+02  0.92429209067E+02  0.00000000000E+00 0.  1.
          1    1    6    6  503    0  0.20390657792E+03  0.48785950767E+03  0.44071302076E+03  0.68834058315E+03  0.00000000000E+00 0. -1.
         -1    1    6    6    0  503  0.60839442239E+02  0.10456186642E+03  0.53045666927E+02  0.13209263575E+03  0.00000000000E+00 0.  1.
<mgrwt>
<rscale>  0 0.15524446E+04</rscale>
<asrwt>0</asrwt>
<pdfrwt beam="1">  1        1 0.17399176E+00 0.15524446E+04</pdfrwt>
<pdfrwt beam="2">  1       -2 0.81962810E-01 0.15524446E+04</pdfrwt>
<totfact> 0.13286755E+01</totfact>
</mgrwt>
</event>
<event>
12    4  0.4413110E-008  0.1674601E+04  0.7818608E-02  0.8775984E-01
          1   -1    0    0  501    0  0.00000000000E+00  0.00000000000E+00  0.60150722304E+03  0.60150722304E+03  0.00000000000E+00 0. -1.
         -2   -1    0    0    0  501 -0.00000000000E+00 -0.00000000000E+00 -0.11655259950E+04  0.11655259950E+04  0.00000000000E+00 0.  1.
        -24    2    1    2    0    0  0.17205863183E+03  0.50045381658E+03  0.80755272135E+02  0.54124386625E+03  0.79782914611E+02 0.  0.
        254    2    1    2    0    0 -0.17205863183E+03 -0.50045381658E+03 -0.64477404409E+03  0.12257893518E+04  0.89820252265E+03 0.  0.
         23    2    4    4    0    0 -0.13605355645E+03 -0.62902290966E+03 -0.99622599259E+02  0.65723684486E+03  0.88629661293E+02 0.  0.
         23    2    4    4    0    0 -0.36005075376E+02  0.12856909308E+03 -0.54515144483E+03  0.56855250692E+03  0.90749535399E+02 0.  0.
          3    1    3    3  502    0  0.17041312314E+03  0.47430177035E+03  0.92707976612E+02  0.51244274882E+03  0.00000000000E+00 0. -1.
         -4    1    3    3    0  502  0.16455086882E+01  0.26152046231E+02 -0.11952704477E+02  0.28801117430E+02  0.00000000000E+00 0.  1.
         11    1    5    5    0    0 -0.94271394940E+02 -0.24974503891E+03 -0.60067422018E+02  0.27361976455E+03  0.00000000000E+00 0.  1.
        -11    1    5    5    0    0 -0.41782161510E+02 -0.37927787075E+03 -0.39555177241E+02  0.38361708031E+03  0.00000000000E+00 0. -1.
          3    1    6    6  503    0 -0.64613968076E+02  0.75286168342E+02 -0.29677214932E+03  0.31291641156E+03  0.00000000000E+00 0. -1.
         -3    1    6    6    0  503  0.28608892700E+02  0.53282924737E+02 -0.24837929551E+03  0.25563609535E+03  0.00000000000E+00 0.  1.
<mgrwt>
<rscale>  0 0.16746012E+04</rscale>
<asrwt>0</asrwt>
<pdfrwt beam="1">  1        1 0.92539573E-01 0.16746012E+04</pdfrwt>
<pdfrwt beam="2">  1       -2 0.17931169E+00 0.16746012E+04</pdfrwt>
<totfact> 0.52172057E+00</totfact>
</mgrwt>
</event>
<event>
12    4  0.4413110E-008  0.1429004E+04  0.7818608E-02  0.8933088E-01
         -2   -1    0    0    0  501 -0.00000000000E+00  0.00000000000E+00  0.22837885721E+03  0.22837885721E+03  0.00000000000E+00 0.  1.
          1   -1    0    0  501    0  0.00000000000E+00 -0.00000000000E+00 -0.22353780637E+04  0.22353780637E+04  0.00000000000E+00 0. -1.
        -24    2    1    2    0    0  0.51210918368E+02  0.41343375947E+03 -0.67647685791E+03  0.79829143629E+03  0.78091269310E+02 0.  0.
        254    2    1    2    0    0 -0.51210918368E+02 -0.41343375947E+03 -0.13305223486E+04  0.16654654846E+04  0.91100797401E+03 0.  0.
         23    2    4    4    0    0 -0.41623216161E+03 -0.22395795632E+03 -0.10618889761E+04  0.11658478828E+04  0.90480438824E+02 0.  0.
         23    2    4    4    0    0  0.36502124325E+03 -0.18947580315E+03 -0.26863337246E+03  0.49961760174E+03  0.91171657711E+02 0.  0.
          1    1    3    3  502    0  0.60126390515E+02  0.30445248342E+03 -0.44787147442E+03  0.54488104674E+03  0.00000000000E+00 0. -1.
         -2    1    3    3    0  502 -0.89154721473E+01  0.10898127605E+03 -0.22860538349E+03  0.25341038955E+03  0.00000000000E+00 0.  1.
         11    1    5    5    0    0 -0.29977672842E+03 -0.14212599587E+03 -0.64482172382E+03  0.72516269975E+03  0.00000000000E+00 0. -1.
        -11    1    5    5    0    0 -0.11645543320E+03 -0.81831960452E+02 -0.41706725228E+03  0.44068518309E+03  0.00000000000E+00 0.  1.
          2    1    6    6  503    0  0.34814856683E+03 -0.15241383868E+03 -0.24946387280E+03  0.45460931209E+03  0.00000000000E+00 0. -1.
         -2    1    6    6    0  503  0.16872676417E+02 -0.37061964478E+02 -0.19169499668E+02  0.45008289658E+02  0.00000000000E+00 0.  1.
<mgrwt>
<rscale>  0 0.14290040E+04</rscale>
<asrwt>0</asrwt>
<pdfrwt beam="1">  1        1 0.34390431E+00 0.14290040E+04</pdfrwt>
<pdfrwt beam="2">  1       -2 0.35135209E-01 0.14290040E+04</pdfrwt>
<totfact> 0.13408086E+01</totfact>
</mgrwt>
</event>
<event>
12    4  0.4413110E-008  0.1791363E+04  0.7818608E-02  0.8710906E-01
          1   -1    0    0  501    0  0.00000000000E+00  0.00000000000E+00  0.10290904037E+04  0.10290904037E+04  0.00000000000E+00 0. -1.
         -2   -1    0    0    0  501 -0.00000000000E+00 -0.00000000000E+00 -0.77956743517E+03  0.77956743517E+03  0.00000000000E+00 0.  1.
        -24    2    1    2    0    0 -0.15657735403E+03 -0.18577399664E+03  0.72178237756E+03  0.76574876799E+03  0.79830630117E+02 0.  0.
        254    2    1    2    0    0  0.15657735403E+03  0.18577399664E+03 -0.47225940900E+03  0.10429090709E+04  0.89755330492E+03 0.  0.
         23    2    4    4    0    0  0.97863723884E+02 -0.29592205123E+03  0.44901319275E+02  0.32785380616E+03  0.91240456402E+02 0.  0.
         23    2    4    4    0    0  0.58713630141E+02  0.48169604787E+03 -0.51716072828E+03  0.71505526475E+03  0.91490108100E+02 0.  0.
          1    1    3    3  502    0 -0.14635331351E+03 -0.12221189680E+03  0.51422946549E+03  0.54844050112E+03  0.00000000000E+00 0. -1.
         -2    1    3    3    0  502 -0.10224040512E+02 -0.63562099840E+02  0.20755291207E+03  0.21730826687E+03  0.00000000000E+00 0.  1.
         11    1    5    5    0    0 -0.10313536895E+02 -0.54214539641E+02 -0.13200789066E+02  0.56743688492E+02  0.00000000000E+00 0. -1.
        -11    1    5    5    0    0  0.10817726078E+03 -0.24170751159E+03  0.58102108341E+02  0.27111011767E+03  0.00000000000E+00 0.  1.
          3    1    6    6  503    0  0.46635827016E+02  0.14353586519E+03 -0.20593347360E+03  0.25531557044E+03  0.00000000000E+00 0. -1.
         -3    1    6    6    0  503  0.12077803126E+02  0.33816018268E+03 -0.31122725468E+03  0.45973969432E+03  0.00000000000E+00 0.  1.
<mgrwt>
<rscale>  0 0.17913630E+04</rscale>
<asrwt>0</asrwt>
<pdfrwt beam="1">  1        1 0.15832160E+00 0.17913630E+04</pdfrwt>
<pdfrwt beam="2">  1       -2 0.11993345E+00 0.17913630E+04</pdfrwt>
<totfact> 0.63223948E+00</totfact>
</mgrwt>
</event>
<event>
12    4  0.4413110E-008  0.1539592E+04  0.7818608E-02  0.8858543E-01
          1   -1    0    0  501    0  0.00000000000E+00  0.00000000000E+00  0.77810203793E+03  0.77810203793E+03  0.00000000000E+00 0. -1.
         -2   -1    0    0    0  501 -0.00000000000E+00 -0.00000000000E+00 -0.76157879576E+03  0.76157879576E+03  0.00000000000E+00 0.  1.
        -24    2    1    2    0    0 -0.40893559251E+02 -0.36769655353E+03 -0.32619311382E+03  0.49933048688E+03  0.77819977878E+02 0.  0.
        254    2    1    2    0    0  0.40893559251E+02  0.36769655353E+03  0.34271635599E+03  0.10403503468E+04  0.90994577024E+03 0.  0.
         23    2    4    4    0    0 -0.42534170612E+03  0.14781009858E+03  0.17950093317E+03  0.49185745197E+03  0.83305317034E+02 0.  0.
         23    2    4    4    0    0  0.46623526537E+03  0.21988645495E+03  0.16321542281E+03  0.54849289483E+03  0.92085860443E+02 0.  0.
          3    1    3    3  502    0 -0.91338657262E+01 -0.16851142382E+03 -0.99553060623E+02  0.19593452820E+03  0.00000000000E+00 0. -1.
         -4    1    3    3    0  502 -0.31759693525E+02 -0.19918512971E+03 -0.22664005320E+03  0.30339595869E+03  0.00000000000E+00 0.  1.
         11    1    5    5    0    0 -0.28739790781E+03  0.60934357194E+02  0.98799135239E+02  0.30995454897E+03  0.00000000000E+00 0. -1.
        -11    1    5    5    0    0 -0.13794379831E+03  0.86875741386E+02  0.80701797936E+02  0.18190290301E+03  0.00000000000E+00 0.  1.
          4    1    6    6  503    0  0.37069576355E+03  0.21314483434E+03  0.12656027129E+03  0.44594122011E+03  0.00000000000E+00 0. -1.
         -4    1    6    6    0  503  0.95539501819E+02  0.67416206109E+01  0.36655151524E+02  0.10255167473E+03  0.00000000000E+00 0.  1.
<mgrwt>
<rscale>  0 0.15395922E+04</rscale>
<asrwt>0</asrwt>
<pdfrwt beam="1">  1        1 0.11970801E+00 0.15395922E+04</pdfrwt>
<pdfrwt beam="2">  1       -2 0.11716597E+00 0.15395922E+04</pdfrwt>
<totfact> 0.10995319E+01</totfact>
</mgrwt>
</event>
<event>
12    4  0.4557361E-008  0.1908758E+04  0.7818608E-02  0.8650509E-01
          1   -1    0    0  501    0  0.00000000000E+00  0.00000000000E+00  0.16913718298E+04  0.16913718298E+04  0.00000000000E+00 0. -1.
         -2   -1    0    0    0  501 -0.00000000000E+00 -0.00000000000E+00 -0.53852109359E+03  0.53852109359E+03  0.00000000000E+00 0.  1.
        -24    2    1    2    0    0  0.62425932179E+03  0.34246591800E+03  0.21532013698E+03  0.74799246607E+03  0.78405115128E+02 0.  0.
        254    2    1    2    0    0 -0.62425932179E+03 -0.34246591800E+03  0.93753059923E+03  0.14819004573E+04  0.90004596276E+03 0.  0.
         23    2    4    4    0    0 -0.80818769536E+03 -0.39052490127E+03  0.88417541609E+03  0.12629739565E+04  0.87521419907E+02 0.  0.
         23    2    4    4    0    0  0.18392837357E+03  0.48058983272E+02  0.53355183141E+02  0.21892650082E+03  0.94565980744E+02 0.  0.
          1    1    3    3  502    0  0.96699849446E+02  0.66071366790E+02  0.64125772783E+02  0.13352303594E+03  0.00000000000E+00 0. -1.
         -2    1    3    3    0  502  0.52755947234E+03  0.27639455121E+03  0.15119436420E+03  0.61446943013E+03  0.00000000000E+00 0.  1.
         11    1    5    5    0    0 -0.73848527336E+03 -0.34499324418E+03  0.76696112254E+03  0.11192006974E+04  0.00000000000E+00 0. -1.
        -11    1    5    5    0    0 -0.69702421996E+02 -0.45531657092E+02  0.11721429354E+03  0.14377325913E+03  0.00000000000E+00 0.  1.
          4    1    6    6  503    0  0.19229768367E+03  0.50053342161E+02  0.60534014220E+02  0.20772121481E+03  0.00000000000E+00 0. -1.
         -4    1    6    6    0  503 -0.83693100939E+01 -0.19943588890E+01 -0.71788310794E+01  0.11205286007E+02  0.00000000000E+00 0.  1.
<mgrwt>
<rscale>  0 0.19087581E+04</rscale>
<asrwt>0</asrwt>
<pdfrwt beam="1">  1        1 0.26021105E+00 0.19087581E+04</pdfrwt>
<pdfrwt beam="2">  1       -2 0.82849400E-01 0.19087581E+04</pdfrwt>
<totfact> 0.50639849E+00</totfact>
</mgrwt>
</event>
<event>
12    4  0.4413110E-008  0.1333684E+04  0.7818608E-02  0.9003272E-01
          1   -1    0    0  501    0  0.00000000000E+00  0.00000000000E+00  0.50985893176E+03  0.50985893176E+03  0.00000000000E+00 0. -1.
         -2   -1    0    0    0  501 -0.00000000000E+00 -0.00000000000E+00 -0.87215906399E+03  0.87215906399E+03  0.00000000000E+00 0.  1.
        -24    2    1    2    0    0 -0.64272865884E+02  0.31231146794E+02 -0.46000413527E+03  0.47288330481E+03  0.83116963880E+02 0.  0.
        254    2    1    2    0    0  0.64272865884E+02 -0.31231146794E+02  0.97704003044E+02  0.90913469094E+03  0.90104019236E+03 0.  0.
         23    2    4    4    0    0  0.13718975223E+03 -0.44439410778E+03  0.28293695900E+02  0.47481675520E+03  0.91341483704E+02 0.  0.
         23    2    4    4    0    0 -0.72916886347E+02  0.41316296098E+03  0.69410307145E+02  0.43431793575E+03  0.88282353446E+02 0.  0.
          1    1    3    3  502    0 -0.20391663812E+02  0.23949505823E+02 -0.41762352589E+02  0.52282816259E+02  0.00000000000E+00 0. -1.
         -2    1    3    3    0  502 -0.43881202072E+02  0.72816409718E+01 -0.41824178268E+03  0.42060048855E+03  0.00000000000E+00 0.  1.
         11    1    5    5    0    0  0.83525080049E+02 -0.32653999757E+03 -0.17380595177E+02  0.33750095422E+03  0.00000000000E+00 0. -1.
        -11    1    5    5    0    0  0.53664672182E+02 -0.11785411020E+03  0.45674291076E+02  0.13731580098E+03  0.00000000000E+00 0.  1.
          2    1    6    6  503    0 -0.54369398167E+02  0.39576952111E+03  0.78852203017E+02  0.40719432120E+03  0.00000000000E+00 0. -1.
         -2    1    6    6    0  503 -0.18547488180E+02  0.17393439875E+02 -0.94418958727E+01  0.27123614548E+02  0.00000000000E+00 0.  1.
<mgrwt>
<rscale>  0 0.13336838E+04</rscale>
<asrwt>0</asrwt>
<pdfrwt beam="1">  1        1 0.78439836E-01 0.13336838E+04</pdfrwt>
<pdfrwt beam="2">  1       -2 0.13417832E+00 0.13336838E+04</pdfrwt>
<totfact> 0.14807220E+01</totfact>
</mgrwt>
</event>
<event>
12    4  0.4413110E-008  0.1532794E+04  0.7818608E-02  0.8862933E-01
         -2   -1    0    0    0  501 -0.00000000000E+00  0.00000000000E+00  0.93438003718E+03  0.93438003718E+03  0.00000000000E+00 0.  1.
          1   -1    0    0  501    0  0.00000000000E+00 -0.00000000000E+00 -0.62861429993E+03  0.62861429993E+03  0.00000000000E+00 0. -1.
        -24    2    1    2    0    0  0.12424304080E+03 -0.46417542005E+02 -0.38955109995E+03  0.41901636986E+03  0.78954020425E+02 0.  0.
        254    2    1    2    0    0 -0.12424304080E+03  0.46417542005E+02  0.69531683720E+03  0.11439779673E+04  0.89868190372E+03 0.  0.
         23    2    4    4    0    0 -0.15168130460E+03 -0.46465241002E+02  0.88943245931E+03  0.90808299583E+03  0.91424235534E+02 0.  0.
         23    2    4    4    0    0  0.27438263798E+02  0.92882783007E+02 -0.19411562212E+03  0.23589497143E+03  0.92657935956E+02 0.  0.
          3    1    3    3  502    0  0.12849203070E+03 -0.42725510010E+02 -0.39049737104E+03  0.41330844166E+03  0.00000000000E+00 0. -1.
         -4    1    3    3    0  502 -0.42489898951E+01 -0.36920319946E+01  0.94627108458E+00  0.57079282006E+01  0.00000000000E+00 0.  1.
         11    1    5    5    0    0 -0.42533353470E+02  0.11583240909E+02  0.10364084598E+03  0.11262629615E+03  0.00000000000E+00 0.  1.
        -11    1    5    5    0    0 -0.10914795113E+03 -0.58048481911E+02  0.78579161333E+03  0.79545669968E+03  0.00000000000E+00 0. -1.
          1    1    6    6  503    0 -0.34245473222E+02  0.31110756247E+02 -0.58034478204E+02  0.74220160677E+02  0.00000000000E+00 0. -1.
         -1    1    6    6    0  503  0.61683737020E+02  0.61772026760E+02 -0.13608114391E+03  0.16167481075E+03  0.00000000000E+00 0.  1.
<mgrwt>
<rscale>  0 0.15327944E+04</rscale>
<asrwt>0</asrwt>
<pdfrwt beam="1">  1        1 0.96709892E-01 0.15327944E+04</pdfrwt>
<pdfrwt beam="2">  1       -2 0.14375077E+00 0.15327944E+04</pdfrwt>
<totfact> 0.90524147E+00</totfact>
</mgrwt>
</event>
<event>
12    4  0.4413110E-008  0.1183881E+04  0.7818608E-02  0.9127083E-01
          1   -1    0    0  501    0  0.00000000000E+00  0.00000000000E+00  0.80469621789E+03  0.80469621789E+03  0.00000000000E+00 0. -1.
         -2   -1    0    0    0  501 -0.00000000000E+00 -0.00000000000E+00 -0.43543598234E+03  0.43543598234E+03  0.00000000000E+00 0.  1.
        -24    2    1    2    0    0 -0.56399690702E+02 -0.14384770347E+03 -0.12130600565E+03  0.21215141312E+03  0.80124828727E+02 0.  0.
        254    2    1    2    0    0  0.56399690702E+02  0.14384770347E+03  0.49056624119E+03  0.10279807871E+04  0.89006526433E+03 0.  0.
         23    2    4    4    0    0  0.42604258859E+03  0.10768088318E+03  0.60037408170E+02  0.45218196521E+03  0.88071444801E+02 0.  0.
         23    2    4    4    0    0 -0.36964289789E+03  0.36166820295E+02  0.43052883302E+03  0.57579882190E+03  0.90803614405E+02 0.  0.
          1    1    3    3  502    0 -0.11955400055E+02 -0.19722407317E+01 -0.41867490548E+02  0.43585640856E+02  0.00000000000E+00 0. -1.
         -2    1    3    3    0  502 -0.44444290648E+02 -0.14187546274E+03 -0.79438515097E+02  0.16856577227E+03  0.00000000000E+00 0.  1.
         11    1    5    5    0    0  0.89847466966E+02  0.41089610227E+02  0.46486476427E+02  0.10918752621E+03  0.00000000000E+00 0.  1.
        -11    1    5    5    0    0  0.33619512162E+03  0.66591272951E+02  0.13550931743E+02  0.34299443900E+03  0.00000000000E+00 0. -1.
          3    1    6    6  503    0 -0.32513876766E+03  0.60430740344E+02  0.35870545548E+03  0.48789004540E+03  0.00000000000E+00 0. -1.
         -3    1    6    6    0  503 -0.44504130231E+02 -0.24263920049E+02  0.71823377538E+02  0.87908776495E+02  0.00000000000E+00 0.  1.
<mgrwt>
<rscale>  0 0.11838812E+04</rscale>
<asrwt>0</asrwt>
<pdfrwt beam="1">  1        1 0.12379942E+00 0.11838812E+04</pdfrwt>
<pdfrwt beam="2">  1       -2 0.66990151E-01 0.11838812E+04</pdfrwt>
<totfact> 0.38901303E+01</totfact>
</mgrwt>
</event>
<event>
12    4  0.4413110E-008  0.2212471E+04  0.7818608E-02  0.8513255E-01
         -2   -1    0    0    0  501 -0.00000000000E+00  0.00000000000E+00  0.84216328577E+03  0.84216328577E+03  0.00000000000E+00 0.  1.
          1   -1    0    0  501    0  0.00000000000E+00 -0.00000000000E+00 -0.14531114300E+04  0.14531114300E+04  0.00000000000E+00 0. -1.
        -24    2    1    2    0    0 -0.18035851631E+03  0.39265996406E+03  0.59778389644E+03  0.74185085095E+03  0.79284654451E+02 0.  0.
        254    2    1    2    0    0  0.18035851631E+03 -0.39265996406E+03 -0.12087320406E+04  0.15534238648E+04  0.87486085515E+03 0.  0.
         23    2    4    4    0    0  0.22810085694E+03 -0.27705350182E+03 -0.37337381136E+02  0.37184498645E+03  0.89922022350E+02 0.  0.
         23    2    4    4    0    0 -0.47742340630E+02 -0.11560646224E+03 -0.11713946595E+04  0.11815788783E+04  0.91208619442E+02 0.  0.
          1    1    3    3  502    0 -0.11923485131E+03  0.20335660184E+03  0.27001678326E+03  0.35844095820E+03  0.00000000000E+00 0. -1.
         -2    1    3    3    0  502 -0.61123665006E+02  0.18930336222E+03  0.32776711318E+03  0.38340989274E+03  0.00000000000E+00 0.  1.
         11    1    5    5    0    0  0.21330763744E+01 -0.29522380460E+01 -0.15517301743E+02  0.15939020600E+02  0.00000000000E+00 0. -1.
        -11    1    5    5    0    0  0.22596778057E+03 -0.27410126378E+03 -0.21820079393E+02  0.35590596585E+03  0.00000000000E+00 0.  1.
          2    1    6    6  503    0 -0.12622904570E+01  0.15143183620E+02 -0.15770328191E+03  0.15843369121E+03  0.00000000000E+00 0. -1.
         -2    1    6    6    0  503 -0.46480050173E+02 -0.13074964586E+03 -0.10136913776E+04  0.10231451871E+04  0.00000000000E+00 0.  1.
<mgrwt>
<rscale>  0 0.22124711E+04</rscale>
<asrwt>0</asrwt>
<pdfrwt beam="1">  1        1 0.22355560E+00 0.22124711E+04</pdfrwt>
<pdfrwt beam="2">  1       -2 0.12956358E+00 0.22124711E+04</pdfrwt>
<totfact> 0.24695705E+00</totfact>
</mgrwt>
</event>
<event>
12    4  0.4413110E-008  0.2570967E+04  0.7818608E-02  0.8378130E-01
         -2   -1    0    0    0  501 -0.00000000000E+00  0.00000000000E+00  0.17105721102E+04  0.17105721102E+04  0.00000000000E+00 0.  1.
          1   -1    0    0  501    0  0.00000000000E+00 -0.00000000000E+00 -0.96603226504E+03  0.96603226504E+03  0.00000000000E+00 0. -1.
        -24    2    1    2    0    0  0.49526638011E+03  0.40041327671E+03  0.12923716963E+04  0.14429671887E+04  0.79436305932E+02 0.  0.
        254    2    1    2    0    0 -0.49526638011E+03 -0.40041327671E+03 -0.54783185121E+03  0.12336371865E+04  0.90339437200E+03 0.  0.
         23    2    4    4    0    0 -0.16422843069E+03  0.20976485285E+03  0.80667319469E+02  0.29280739389E+03  0.90866289404E+02 0.  0.
         23    2    4    4    0    0 -0.33103794942E+03 -0.61017812956E+03 -0.62849917068E+03  0.94082979264E+03  0.90807584635E+02 0.  0.
          3    1    3    3  502    0  0.18056854161E+02  0.14572094308E+02  0.21266291426E+02  0.31474609859E+02  0.00000000000E+00 0. -1.
         -4    1    3    3    0  502  0.47720952595E+03  0.38584118240E+03  0.12711054049E+04  0.14114925788E+04  0.00000000000E+00 0.  1.
         11    1    5    5    0    0 -0.14019261600E+03  0.13918931130E+03  0.91059545996E+02  0.21753039989E+03  0.00000000000E+00 0. -1.
        -11    1    5    5    0    0 -0.24035814684E+02  0.70575541552E+02 -0.10392226528E+02  0.75276993996E+02  0.00000000000E+00 0.  1.
          2    1    6    6  503    0 -0.19738438301E+03 -0.42780648492E+03 -0.46356021984E+03  0.66095919739E+03  0.00000000000E+00 0. -1.
         -2    1    6    6    0  503 -0.13365356641E+03 -0.18237164464E+03 -0.16493895084E+03  0.27987059525E+03  0.00000000000E+00 0.  1.
<mgrwt>
<rscale>  0 0.25709670E+04</rscale>
<asrwt>0</asrwt>
<pdfrwt beam="1">  1        1 0.14862035E+00 0.25709670E+04</pdfrwt>
<pdfrwt beam="2">  1       -2 0.26316494E+00 0.25709670E+04</pdfrwt>
<totfact> 0.66503373E-01</totfact>
</mgrwt>
</event>
<event>
12    4  0.4413110E-008  0.2395279E+04  0.7818608E-02  0.8441273E-01
          1   -1    0    0  501    0  0.00000000000E+00  0.00000000000E+00  0.30658185694E+04  0.30658185694E+04  0.00000000000E+00 0. -1.
         -2   -1    0    0    0  501 -0.00000000000E+00 -0.00000000000E+00 -0.46784889216E+03  0.46784889216E+03  0.00000000000E+00 0.  1.
        -24    2    1    2    0    0 -0.26680216335E+03 -0.90372498121E+03  0.51184445886E+03  0.10751575650E+04  0.77953855256E+02 0.  0.
        254    2    1    2    0    0  0.26680216335E+03  0.90372498121E+03  0.20861252184E+04  0.24585098965E+04  0.89691150542E+03 0.  0.
         23    2    4    4    0    0  0.30398964674E+03  0.20475135696E+03  0.16624639100E+03  0.41285493861E+03  0.92078848386E+02 0.  0.
         23    2    4    4    0    0 -0.37187483391E+02  0.69897362425E+03  0.19198788274E+04  0.20456549579E+04  0.93927944220E+02 0.  0.
          1    1    3    3  502    0 -0.18128397215E+02 -0.16402347695E+03  0.95309643855E+02  0.19056827645E+03  0.00000000000E+00 0. -1.
         -2    1    3    3    0  502 -0.24867376613E+03 -0.73970150426E+03  0.41653481501E+03  0.88458928859E+03  0.00000000000E+00 0.  1.
         11    1    5    5    0    0  0.72831560967E+02  0.59428492581E+02  0.88139350539E+02  0.12885933073E+03  0.00000000000E+00 0. -1.
        -11    1    5    5    0    0  0.23115808577E+03  0.14532286438E+03  0.78107040457E+02  0.28399560788E+03  0.00000000000E+00 0.  1.
          2    1    6    6  503    0 -0.66345854987E+02  0.50230780152E+03  0.14203570104E+04  0.15080215306E+04  0.00000000000E+00 0. -1.
         -2    1    6    6    0  503  0.29158371596E+02  0.19666582273E+03  0.49952181701E+03  0.53763342729E+03  0.00000000000E+00 0.  1.
<mgrwt>
<rscale>  0 0.23952785E+04</rscale>
<asrwt>0</asrwt>
<pdfrwt beam="1">  1        1 0.47166438E+00 0.23952785E+04</pdfrwt>
<pdfrwt beam="2">  1       -2 0.71976754E-01 0.23952785E+04</pdfrwt>
<totfact> 0.73747129E-01</totfact>
</mgrwt>
</event>
<event>
12    4  0.4413110E-008  0.3474053E+04  0.7818608E-02  0.8119967E-01
         -2   -1    0    0    0  501 -0.00000000000E+00  0.00000000000E+00  0.11396828822E+04  0.11396828822E+04  0.00000000000E+00 0.  1.
          1   -1    0    0  501    0  0.00000000000E+00 -0.00000000000E+00 -0.26474567580E+04  0.26474567580E+04  0.00000000000E+00 0. -1.
        -24    2    1    2    0    0 -0.38853160914E+03 -0.13627127439E+04 -0.15554693817E+04  0.21056746718E+04  0.80237100600E+02 0.  0.
        254    2    1    2    0    0  0.38853160914E+03  0.13627127439E+04  0.47695505908E+02  0.16814649684E+04  0.90393956928E+03 0.  0.
         23    2    4    4    0    0  0.34813558765E+02  0.83313350227E+03 -0.36724584660E+03  0.91565430380E+03  0.90718662615E+02 0.  0.
         23    2    4    4    0    0  0.35371805038E+03  0.52957924166E+03  0.41494135250E+03  0.76581066461E+03  0.93375669433E+02 0.  0.
          1    1    3    3  502    0 -0.36664568677E+03 -0.12740551417E+04 -0.14241603207E+04  0.19457333277E+04  0.00000000000E+00 0. -1.
         -2    1    3    3    0  502 -0.21885922368E+02 -0.88657602224E+02 -0.13130906107E+03  0.15994134409E+03  0.00000000000E+00 0.  1.
         11    1    5    5    0    0 -0.27596783148E+02  0.28947553292E+03 -0.14613970589E+03  0.32544504949E+03  0.00000000000E+00 0.  1.
        -11    1    5    5    0    0  0.62410341913E+02  0.54365796935E+03 -0.22110614070E+03  0.59020925431E+03  0.00000000000E+00 0. -1.
          2    1    6    6  503    0  0.95031759392E+02  0.79228789311E+02  0.92738503603E+02  0.15462427494E+03  0.00000000000E+00 0. -1.
         -2    1    6    6    0  503  0.25868629099E+03  0.45035045235E+03  0.32220284890E+03  0.61118638967E+03  0.00000000000E+00 0.  1.
<mgrwt>
<rscale>  0 0.34740530E+04</rscale>
<asrwt>0</asrwt>
<pdfrwt beam="1">  1        1 0.40730103E+00 0.34740530E+04</pdfrwt>
<pdfrwt beam="2">  1       -2 0.17533583E+00 0.34740530E+04</pdfrwt>
<totfact> 0.15024214E-01</totfact>
</mgrwt>
</event>
<event>
12    4  0.4413110E-008  0.1512950E+04  0.7818608E-02  0.8875887E-01
         -2   -1    0    0    0  501 -0.00000000000E+00  0.00000000000E+00  0.29066782599E+04  0.29066782599E+04  0.00000000000E+00 0.  1.
          1   -1    0    0  501    0  0.00000000000E+00 -0.00000000000E+00 -0.19687567148E+03  0.19687567148E+03  0.00000000000E+00 0. -1.
        -24    2    1    2    0    0  0.10484663515E+03  0.14010659396E+03 -0.22370478548E+02  0.19792906769E+03  0.89737411114E+02 0.  0.
        254    2    1    2    0    0 -0.10484663515E+03 -0.14010659396E+03  0.27321730669E+04  0.29056248637E+04  0.97327463035E+03 0.  0.
         23    2    4    4    0    0 -0.27047063522E+03  0.14116748567E+03  0.24308080682E+04  0.24515663789E+04  0.90924267362E+02 0.  0.
         23    2    4    4    0    0  0.16562400008E+03 -0.28127407963E+03  0.30136499875E+03  0.45405848474E+03  0.93818056990E+02 0.  0.
          1    1    3    3  502    0  0.58011097376E+01  0.61956475698E+02 -0.34554436367E+02  0.71177712999E+02  0.00000000000E+00 0. -1.
         -2    1    3    3    0  502  0.99045525408E+02  0.78150118264E+02  0.12183957819E+02  0.12675135469E+03  0.00000000000E+00 0.  1.
         11    1    5    5    0    0 -0.11648584953E+03  0.94775488058E+02  0.91373612190E+03  0.92599408570E+03  0.00000000000E+00 0.  1.
        -11    1    5    5    0    0 -0.15398478570E+03  0.46391997613E+02  0.15170719463E+04  0.15255722932E+04  0.00000000000E+00 0. -1.
          3    1    6    6  503    0  0.12090797134E+03 -0.25020817604E+03  0.21245024587E+03  0.34979704953E+03  0.00000000000E+00 0. -1.
         -3    1    6    6    0  503  0.44716028737E+02 -0.31065903597E+02  0.88914752884E+02  0.10426143521E+03  0.00000000000E+00 0.  1.
<mgrwt>
<rscale>  0 0.15129497E+04</rscale>
<asrwt>0</asrwt>
<pdfrwt beam="1">  1        1 0.30288567E-01 0.15129497E+04</pdfrwt>
<pdfrwt beam="2">  1       -2 0.44718124E+00 0.15129497E+04</pdfrwt>
<totfact> 0.46787750E-01</totfact>
</mgrwt>
</event>
<event>
12    4  0.4413110E-008  0.1487285E+04  0.7818608E-02  0.8892953E-01
         -2   -1    0    0    0  501 -0.00000000000E+00  0.00000000000E+00  0.43932305727E+03  0.43932305727E+03  0.00000000000E+00 0.  1.
          1   -1    0    0  501    0  0.00000000000E+00 -0.00000000000E+00 -0.12587641038E+04  0.12587641038E+04  0.00000000000E+00 0. -1.
        -24    2    1    2    0    0  0.65440350647E+02  0.24498198294E+03 -0.74438011977E+03  0.79044578416E+03  0.80026017861E+02 0.  0.
        254    2    1    2    0    0 -0.65440350647E+02 -0.24498198294E+03 -0.75060926792E+02  0.90764137694E+03  0.86826269927E+03 0.  0.
         23    2    4    4    0    0 -0.25277258571E+03 -0.32196856266E+03  0.26887406215E+03  0.49839500842E+03  0.92447756567E+02 0.  0.
         23    2    4    4    0    0  0.18733223506E+03  0.76986579718E+02 -0.34393498895E+03  0.40924636852E+03  0.90393660045E+02 0.  0.
          3    1    3    3  502    0  0.77844773428E+02  0.15556083367E+03 -0.44657832732E+03  0.47926108141E+03  0.00000000000E+00 0. -1.
         -4    1    3    3    0  502 -0.12404422781E+02  0.89421149267E+02 -0.29780179245E+03  0.31118470275E+03  0.00000000000E+00 0.  1.
         11    1    5    5    0    0 -0.15845180113E+03 -0.22120562279E+03  0.22644515277E+03  0.35400043510E+03  0.00000000000E+00 0. -1.
        -11    1    5    5    0    0 -0.94320784577E+02 -0.10076293987E+03  0.42428909384E+02  0.14439457332E+03  0.00000000000E+00 0.  1.
          4    1    6    6  503    0  0.22413631931E+00  0.43009427973E+01 -0.67405710561E+02  0.67543157775E+02  0.00000000000E+00 0.  1.
         -4    1    6    6    0  503  0.18710809874E+03  0.72685636921E+02 -0.27652927838E+03  0.34170321075E+03  0.00000000000E+00 0. -1.
<mgrwt>
<rscale>  0 0.14872849E+04</rscale>
<asrwt>0</asrwt>
<pdfrwt beam="1">  1        1 0.19365601E+00 0.14872849E+04</pdfrwt>
<pdfrwt beam="2">  1       -2 0.67588164E-01 0.14872849E+04</pdfrwt>
<totfact> 0.16504806E+01</totfact>
</mgrwt>
</event>
<event>
12    4  0.4413110E-008  0.1917633E+04  0.7818608E-02  0.8646129E-01
          1   -1    0    0  501    0  0.00000000000E+00  0.00000000000E+00  0.80580601626E+03  0.80580601626E+03  0.00000000000E+00 0. -1.
         -2   -1    0    0    0  501 -0.00000000000E+00 -0.00000000000E+00 -0.11408811075E+04  0.11408811075E+04  0.00000000000E+00 0.  1.
        -24    2    1    2    0    0 -0.30371033775E+03  0.53082373772E+03  0.15188393504E+03  0.63522090903E+03  0.80144018894E+02 0.  0.
        254    2    1    2    0    0  0.30371033775E+03 -0.53082373772E+03 -0.48695902630E+03  0.13114662148E+04  0.10529960728E+04 0.  0.
         23    2    4    4    0    0  0.56022691001E+03  0.40245317253E+02 -0.12721710121E+03  0.58325362162E+03  0.92340240612E+02 0.  0.
         23    2    4    4    0    0 -0.25651657226E+03 -0.57106905497E+03 -0.35974192509E+03  0.72821259313E+03  0.94650466116E+02 0.  0.
          1    1    3    3  502    0 -0.23488883553E+03  0.45489723297E+03  0.10541327374E+03  0.52270088569E+03  0.00000000000E+00 0. -1.
         -2    1    3    3    0  502 -0.68821502221E+02  0.75926504754E+02  0.46470661299E+02  0.11252002335E+03  0.00000000000E+00 0.  1.
         11    1    5    5    0    0  0.12042151516E+02  0.25912890748E+00  0.11204243111E+02  0.16450398919E+02  0.00000000000E+00 0. -1.
        -11    1    5    5    0    0  0.54818475849E+03  0.39986188346E+02 -0.13842134432E+03  0.56680322270E+03  0.00000000000E+00 0.  1.
          1    1    6    6  503    0 -0.70395219762E+02 -0.11204948413E+03 -0.11689863488E+03  0.17656688448E+03  0.00000000000E+00 0. -1.
         -1    1    6    6    0  503 -0.18612135250E+03 -0.45901957084E+03 -0.24284329022E+03  0.55164570865E+03  0.00000000000E+00 0.  1.
<mgrwt>
<rscale>  0 0.19176328E+04</rscale>
<asrwt>0</asrwt>
<pdfrwt beam="1">  1        1 0.12397016E+00 0.19176328E+04</pdfrwt>
<pdfrwt beam="2">  1       -2 0.17552017E+00 0.19176328E+04</pdfrwt>
<totfact> 0.34833183E+00</totfact>
</mgrwt>
</event>
<event>
12    4  0.4413110E-008  0.1546860E+04  0.7818608E-02  0.8853876E-01
         -2   -1    0    0    0  501 -0.00000000000E+00  0.00000000000E+00  0.25683393717E+03  0.25683393717E+03  0.00000000000E+00 0.  1.
          1   -1    0    0  501    0  0.00000000000E+00 -0.00000000000E+00 -0.23291079453E+04  0.23291079453E+04  0.00000000000E+00 0. -1.
        -24    2    1    2    0    0  0.29263639660E+03  0.72985334217E+02 -0.61110076502E+01  0.31252318376E+03  0.81672984172E+02 0.  0.
        254    2    1    2    0    0 -0.29263639660E+03 -0.72985334217E+02 -0.20661630005E+04  0.22734186988E+04  0.89913297989E+03 0.  0.
         23    2    4    4    0    0 -0.60444181461E+03 -0.95832133589E+02 -0.12889415649E+04  0.14297872171E+04  0.91582877937E+02 0.  0.
         23    2    4    4    0    0  0.31180541801E+03  0.22846799372E+02 -0.77722143563E+03  0.84363148161E+03  0.99480258481E+02 0.  0.
          3    1    3    3  502    0  0.86131075745E+02  0.52067526154E+02  0.22125966948E+02  0.10304924989E+03  0.00000000000E+00 0. -1.
         -4    1    3    3    0  502  0.20650532086E+03  0.20917808064E+02 -0.28236974598E+02  0.20947393387E+03  0.00000000000E+00 0.  1.
         11    1    5    5    0    0 -0.30038340635E+03 -0.22120253118E+01 -0.60489486405E+03  0.67537610294E+03  0.00000000000E+00 0. -1.
        -11    1    5    5    0    0 -0.30405840827E+03 -0.93620108277E+02 -0.68404670083E+03  0.75441111420E+03  0.00000000000E+00 0.  1.
          1    1    6    6  503    0  0.57783926423E+00  0.28369784364E+01 -0.77511610952E+02  0.77565663649E+02  0.00000000000E+00 0.  1.
         -1    1    6    6    0  503  0.31122757875E+03  0.20009820935E+02 -0.69970982468E+03  0.76606581797E+03  0.00000000000E+00 0. -1.
<mgrwt>
<rscale>  0 0.15468600E+04</rscale>
<asrwt>0</asrwt>
<pdfrwt beam="1">  1        1 0.35832429E+00 0.15468600E+04</pdfrwt>
<pdfrwt beam="2">  1       -2 0.39512914E-01 0.15468600E+04</pdfrwt>
<totfact> 0.91257334E+00</totfact>
</mgrwt>
</event>
<event>
12    4  0.4413110E-008  0.1582943E+04  0.7818608E-02  0.8831096E-01
         -2   -1    0    0    0  501 -0.00000000000E+00  0.00000000000E+00  0.47169988020E+03  0.47169988020E+03  0.00000000000E+00 0.  1.
          1   -1    0    0  501    0  0.00000000000E+00 -0.00000000000E+00 -0.13280206208E+04  0.13280206208E+04  0.00000000000E+00 0. -1.
        -24    2    1    2    0    0  0.21276879124E+03 -0.34538533734E+03 -0.59830918379E+03  0.72810925490E+03  0.87221659517E+02 0.  0.
        254    2    1    2    0    0 -0.21276879124E+03  0.34538533734E+03 -0.25801155676E+03  0.10716112461E+04  0.95771556815E+03 0.  0.
         23    2    4    4    0    0 -0.41932170980E+03 -0.11488882556E+03  0.88210387346E+02  0.45221138403E+03  0.87657999436E+02 0.  0.
         23    2    4    4    0    0  0.20655291856E+03  0.46027416290E+03 -0.34622194411E+03  0.61939986202E+03  0.96281572948E+02 0.  0.
          3    1    3    3  502    0  0.20617876055E+03 -0.30213534562E+03 -0.56523409309E+03  0.67326445649E+03  0.00000000000E+00 0. -1.
         -4    1    3    3    0  502  0.65900306866E+01 -0.43249991718E+02 -0.33075090695E+02  0.54844798409E+02  0.00000000000E+00 0.  1.
         11    1    5    5    0    0 -0.15851908734E+03 -0.45070032170E+00  0.25052342243E+02  0.16048714601E+03  0.00000000000E+00 0. -1.
        -11    1    5    5    0    0 -0.26080262246E+03 -0.11443812524E+03  0.63158045103E+02  0.29172423802E+03  0.00000000000E+00 0.  1.
          3    1    6    6  503    0  0.20386385492E+02  0.32977009540E+02 -0.63094662177E+02  0.74054198172E+02  0.00000000000E+00 0. -1.
         -3    1    6    6    0  503  0.18616653307E+03  0.42729715336E+03 -0.28312728193E+03  0.54534566385E+03  0.00000000000E+00 0.  1.
<mgrwt>
<rscale>  0 0.15829430E+04</rscale>
<asrwt>0</asrwt>
<pdfrwt beam="1">  1        1 0.20431086E+00 0.15829430E+04</pdfrwt>
<pdfrwt beam="2">  1       -2 0.72569213E-01 0.15829430E+04</pdfrwt>
<totfact> 0.12506286E+01</totfact>
</mgrwt>
</event>
<event>
12    4  0.4413110E-008  0.1751966E+04  0.7818608E-02  0.8732269E-01
         -2   -1    0    0    0  501 -0.00000000000E+00  0.00000000000E+00  0.14520539485E+04  0.14520539485E+04  0.00000000000E+00 0.  1.
          1   -1    0    0  501    0  0.00000000000E+00 -0.00000000000E+00 -0.52845557311E+03  0.52845557311E+03  0.00000000000E+00 0. -1.
        -24    2    1    2    0    0  0.16962126912E+01 -0.28760871852E+03 -0.30423188861E+03  0.42961698639E+03  0.96395336179E+02 0.  0.
        254    2    1    2    0    0 -0.16962126912E+01  0.28760871852E+03  0.12278302640E+04  0.15508925352E+04  0.90276178836E+03 0.  0.
         23    2    4    4    0    0  0.42357659082E+03  0.21648188240E+02  0.50021422152E+03  0.66238872933E+03  0.93052614054E+02 0.  0.
         23    2    4    4    0    0 -0.42527280352E+03  0.26596053028E+03  0.72761604250E+03  0.88850380591E+03  0.91771165076E+02 0.  0.
          3    1    3    3  502    0  0.23100377762E+02 -0.18231344322E+03 -0.13068623833E+03  0.22550102421E+03  0.00000000000E+00 0. -1.
         -4    1    3    3    0  502 -0.21404165071E+02 -0.10529527530E+03 -0.17354565029E+03  0.20411596218E+03  0.00000000000E+00 0.  1.
         11    1    5    5    0    0  0.40969144154E+03  0.29580312838E+01  0.48342084732E+03  0.63368094720E+03  0.00000000000E+00 0.  1.
        -11    1    5    5    0    0  0.13885149282E+02  0.18690156956E+02  0.16793374196E+02  0.28707782124E+02  0.00000000000E+00 0. -1.
          2    1    6    6  503    0  0.30551166488E+01  0.33463770236E+01  0.32222434225E+00  0.45426650161E+01  0.00000000000E+00 0. -1.
         -2    1    6    6    0  503 -0.42832792016E+03  0.26261415326E+03  0.72729381816E+03  0.88396114090E+03  0.00000000000E+00 0.  1.
<mgrwt>
<rscale>  0 0.17519658E+04</rscale>
<asrwt>0</asrwt>
<pdfrwt beam="1">  1        1 0.81300858E-01 0.17519658E+04</pdfrwt>
<pdfrwt beam="2">  1       -2 0.22339291E+00 0.17519658E+04</pdfrwt>
<totfact> 0.31986703E+00</totfact>
</mgrwt>
</event>
<event>
12    4  0.4413110E-008  0.1734314E+04  0.7818608E-02  0.8742032E-01
          1   -1    0    0  501    0  0.00000000000E+00  0.00000000000E+00  0.94488471300E+03  0.94488471300E+03  0.00000000000E+00 0. -1.
         -2   -1    0    0    0  501 -0.00000000000E+00 -0.00000000000E+00 -0.79582333559E+03  0.79582333559E+03  0.00000000000E+00 0.  1.
        -24    2    1    2    0    0  0.46967721319E+03  0.40101480482E+03 -0.94513571801E+02  0.62966079135E+03  0.78296479051E+02 0.  0.
        254    2    1    2    0    0 -0.46967721319E+03 -0.40101480482E+03  0.24357494921E+03  0.11110472572E+04  0.89089151622E+03 0.  0.
         23    2    4    4    0    0  0.31606614460E+02  0.21253152574E+03  0.20667075061E+03  0.31130071703E+03  0.89591906748E+02 0.  0.
         23    2    4    4    0    0 -0.50128382765E+03 -0.61354633056E+03  0.36904198604E+02  0.79974654021E+03  0.10250869770E+03 0.  0.
          1    1    3    3  502    0  0.29773177953E+02  0.32515842333E+02  0.12695789780E+02  0.45879245919E+02  0.00000000000E+00 0. -1.
         -2    1    3    3    0  502  0.43990403523E+03  0.36849896249E+03 -0.10720936158E+03  0.58378154543E+03  0.00000000000E+00 0.  1.
         11    1    5    5    0    0  0.96746640649E+01  0.19954224773E+02 -0.65776012566E+01  0.23130824658E+02  0.00000000000E+00 0.  1.
        -11    1    5    5    0    0  0.21931950395E+02  0.19257730096E+03  0.21324835187E+03  0.28816989237E+03  0.00000000000E+00 0. -1.
          1    1    6    6  503    0 -0.33401455425E+03 -0.34582825841E+03 -0.81973890798E+01  0.48086391418E+03  0.00000000000E+00 0. -1.
         -1    1    6    6    0  503 -0.16726927339E+03 -0.26771807215E+03  0.45101587684E+02  0.31888262604E+03  0.00000000000E+00 0.  1.
<mgrwt>
<rscale>  0 0.17343140E+04</rscale>
<asrwt>0</asrwt>
<pdfrwt beam="1">  1        1 0.14536688E+00 0.17343140E+04</pdfrwt>
<pdfrwt beam="2">  1       -2 0.12243436E+00 0.17343140E+04</pdfrwt>
<totfact> 0.70275640E+00</totfact>
</mgrwt>
</event>
<event>
12    4  0.4413110E-008  0.1462436E+04  0.7818608E-02  0.8909824E-01
          1   -1    0    0  501    0  0.00000000000E+00  0.00000000000E+00  0.41989394839E+03  0.41989394839E+03  0.00000000000E+00 0. -1.
         -2   -1    0    0    0  501 -0.00000000000E+00 -0.00000000000E+00 -0.12733694507E+04  0.12733694507E+04  0.00000000000E+00 0.  1.
        -24    2    1    2    0    0  0.14884907560E+03  0.19527055714E+03  0.16750349272E+03  0.30767734775E+03  0.79506556051E+02 0.  0.
        254    2    1    2    0    0 -0.14884907560E+03 -0.19527055714E+03 -0.10209789951E+04  0.13855860514E+04  0.90397121612E+03 0.  0.
         23    2    4    4    0    0 -0.96283281291E+02 -0.51032541241E+03 -0.87745336824E+03  0.10236118035E+04  0.90300686637E+02 0.  0.
         23    2    4    4    0    0 -0.52565794309E+02  0.31505485527E+03 -0.14352562681E+03  0.36197424786E+03  0.91668020598E+02 0.  0.
          1    1    3    3  502    0  0.49810876480E+02  0.62037217044E+02  0.10164674778E+03  0.12908059904E+03  0.00000000000E+00 0. -1.
         -2    1    3    3    0  502  0.99038199120E+02  0.13323334009E+03  0.65856744944E+02  0.17859674872E+03  0.00000000000E+00 0.  1.
         11    1    5    5    0    0 -0.52960663546E+02 -0.44266127122E+03 -0.72013194606E+03  0.84696154143E+03  0.00000000000E+00 0. -1.
        -11    1    5    5    0    0 -0.43322617745E+02 -0.67664141193E+02 -0.15732142218E+03  0.17665026206E+03  0.00000000000E+00 0.  1.
          1    1    6    6  503    0  0.25720362024E+02  0.10400130655E+03 -0.49612650392E+02  0.11806449028E+03  0.00000000000E+00 0. -1.
         -1    1    6    6    0  503 -0.78286156332E+02  0.21105354872E+03 -0.93912976419E+02  0.24390975758E+03  0.00000000000E+00 0.  1.
<mgrwt>
<rscale>  0 0.14624365E+04</rscale>
<asrwt>0</asrwt>
<pdfrwt beam="1">  1        1 0.64599070E-01 0.14624365E+04</pdfrwt>
<pdfrwt beam="2">  1       -2 0.19590299E+00 0.14624365E+04</pdfrwt>
<totfact> 0.67426749E+00</totfact>
</mgrwt>
</event>
<event>
12    4  0.4413110E-008  0.1470031E+04  0.7818608E-02  0.8904630E-01
         -2   -1    0    0    0  501 -0.00000000000E+00  0.00000000000E+00  0.10660874983E+04  0.10660874983E+04  0.00000000000E+00 0.  1.
          1   -1    0    0  501    0  0.00000000000E+00 -0.00000000000E+00 -0.50675714493E+03  0.50675714493E+03  0.00000000000E+00 0. -1.
        -24    2    1    2    0    0  0.48098912245E+02 -0.15445827235E+03  0.63134936941E+03  0.65670878441E+03  0.80582491933E+02 0.  0.
        254    2    1    2    0    0 -0.48098912245E+02  0.15445827235E+03 -0.72019016053E+02  0.91613585881E+03  0.89885889319E+03 0.  0.
         23    2    4    4    0    0  0.13373717657E+03 -0.21170354578E+03 -0.32885063963E+03  0.42294502562E+03  0.89642221190E+02 0.  0.
         23    2    4    4    0    0 -0.18183608882E+03  0.36616181813E+03  0.25683162357E+03  0.49319083319E+03  0.10067708188E+03 0.  0.
          3    1    3    3  502    0 -0.91656206835E+01 -0.25011106036E+02  0.22168793093E+03  0.22328256257E+03  0.00000000000E+00 0. -1.
         -4    1    3    3    0  502  0.57264532928E+02 -0.12944716632E+03  0.40966143848E+03  0.43342622183E+03  0.00000000000E+00 0.  1.
         11    1    5    5    0    0  0.10556176267E+03 -0.20027258906E+03 -0.31862936307E+03  0.39086707034E+03  0.00000000000E+00 0. -1.
        -11    1    5    5    0    0  0.28175413909E+02 -0.11430956717E+02 -0.10221276557E+02  0.32077955278E+02  0.00000000000E+00 0.  1.
          1    1    6    6  503    0 -0.17379046704E+03  0.25185794987E+03  0.19693113683E+03  0.36389205267E+03  0.00000000000E+00 0. -1.
         -1    1    6    6    0  503 -0.80456217808E+01  0.11430386826E+03  0.59900486743E+02  0.12929878051E+03  0.00000000000E+00 0.  1.
<mgrwt>
<rscale>  0 0.14700306E+04</rscale>
<asrwt>0</asrwt>
<pdfrwt beam="1">  1        1 0.77962638E-01 0.14700306E+04</pdfrwt>
<pdfrwt beam="2">  1       -2 0.16401346E+00 0.14700306E+04</pdfrwt>
<totfact> 0.86762020E+00</totfact>
</mgrwt>
</event>
<event>
12    4  0.4413110E-008  0.1568288E+04  0.7818608E-02  0.8840270E-01
          1   -1    0    0  501    0  0.00000000000E+00  0.00000000000E+00  0.16392269842E+04  0.16392269842E+04  0.00000000000E+00 0. -1.
         -2   -1    0    0    0  501 -0.00000000000E+00 -0.00000000000E+00 -0.37510461310E+03  0.37510461310E+03  0.00000000000E+00 0.  1.
        -24    2    1    2    0    0  0.26451691723E+03  0.36013207556E+03  0.78628493032E+02  0.46059869289E+03  0.79400281050E+02 0.  0.
        254    2    1    2    0    0 -0.26451691723E+03 -0.36013207556E+03  0.11854938781E+04  0.15537329044E+04  0.89945866609E+03 0.  0.
         23    2    4    4    0    0 -0.35132016999E+03  0.87340860331E+02  0.12292313343E+03  0.39354723156E+03  0.93354373290E+02 0.  0.
         23    2    4    4    0    0  0.86803252761E+02 -0.44747293589E+03  0.10625707447E+04  0.11601856729E+04  0.95955068172E+02 0.  0.
          3    1    3    3  502    0  0.21927437118E+03  0.24233414720E+03  0.69201156750E+02  0.33405970851E+03  0.00000000000E+00 0. -1.
         -4    1    3    3    0  502  0.45242546049E+02  0.11779792836E+03  0.94273362819E+01  0.12653898438E+03  0.00000000000E+00 0.  1.
         11    1    5    5    0    0 -0.43930053728E+02  0.44825264177E+02  0.30358543902E+02  0.69719402730E+02  0.00000000000E+00 0.  1.
        -11    1    5    5    0    0 -0.30739011626E+03  0.42515596154E+02  0.92564589528E+02  0.32382782883E+03  0.00000000000E+00 0. -1.
          3    1    6    6  503    0  0.27363706765E+02 -0.29153714019E+03  0.76317690285E+03  0.81742379560E+03  0.00000000000E+00 0. -1.
         -3    1    6    6    0  503  0.59439545996E+02 -0.15593579569E+03  0.29939384181E+03  0.34276187729E+03  0.00000000000E+00 0.  1.
<mgrwt>
<rscale>  0 0.15682877E+04</rscale>
<asrwt>0</asrwt>
<pdfrwt beam="1">  1        1 0.25218876E+00 0.15682877E+04</pdfrwt>
<pdfrwt beam="2">  1       -2 0.57708403E-01 0.15682877E+04</pdfrwt>
<totfact> 0.12450404E+01</totfact>
</mgrwt>
</event>
<event>
12    4  0.4413110E-008  0.1255049E+04  0.7818608E-02  0.9065992E-01
         -2   -1    0    0    0  501 -0.00000000000E+00  0.00000000000E+00  0.11084290140E+04  0.11084290140E+04  0.00000000000E+00 0.  1.
          1   -1    0    0  501    0  0.00000000000E+00 -0.00000000000E+00 -0.35526562580E+03  0.35526562580E+03  0.00000000000E+00 0. -1.
        -24    2    1    2    0    0 -0.36810264515E+02 -0.84900819035E+02 -0.14007500023E+03  0.18685058631E+03  0.82030428931E+02 0.  0.
        254    2    1    2    0    0  0.36810264515E+02  0.84900819035E+02  0.89323838838E+03  0.12768440534E+04  0.90768539357E+03 0.  0.
         23    2    4    4    0    0 -0.19200573166E+03  0.37272319102E+03  0.17281058087E+03  0.46197013759E+03  0.88114318057E+02 0.  0.
         23    2    4    4    0    0  0.22881599618E+03 -0.28782237199E+03  0.72042780750E+03  0.81487391585E+03  0.99019164727E+02 0.  0.
          1    1    3    3  502    0  0.38615696044E+01 -0.23960925120E+02 -0.10088227725E+03  0.10376064532E+03  0.00000000000E+00 0. -1.
         -2    1    3    3    0  502 -0.40671834120E+02 -0.60939893914E+02 -0.39192722974E+02  0.83089940998E+02  0.00000000000E+00 0.  1.
         11    1    5    5    0    0 -0.24469094059E+02  0.13722785669E+03  0.53724132981E+02  0.14938709342E+03  0.00000000000E+00 0.  1.
        -11    1    5    5    0    0 -0.16753663760E+03  0.23549533433E+03  0.11908644789E+03  0.31258304417E+03  0.00000000000E+00 0. -1.
          2    1    6    6  503    0  0.19579616359E+03 -0.17296900439E+03  0.49918084911E+03  0.56341453148E+03  0.00000000000E+00 0. -1.
         -2    1    6    6    0  503  0.33019832588E+02 -0.11485336760E+03  0.22124695839E+03  0.25145938438E+03  0.00000000000E+00 0.  1.
<mgrwt>
<rscale>  0 0.12550486E+04</rscale>
<asrwt>0</asrwt>
<pdfrwt beam="1">  1        1 0.54656251E-01 0.12550486E+04</pdfrwt>
<pdfrwt beam="2">  1       -2 0.17052754E+00 0.12550486E+04</pdfrwt>
<totfact> 0.12759636E+01</totfact>
</mgrwt>
</event>
<event>
12    4  0.4413110E-008  0.1352674E+04  0.7818608E-02  0.8988806E-01
          1   -1    0    0  501    0  0.00000000000E+00  0.00000000000E+00  0.79772700359E+03  0.79772700359E+03  0.00000000000E+00 0. -1.
         -2   -1    0    0    0  501 -0.00000000000E+00 -0.00000000000E+00 -0.57341917697E+03  0.57341917697E+03  0.00000000000E+00 0.  1.
        -24    2    1    2    0    0  0.73074128259E+02 -0.35399736893E+03  0.14144274278E+03  0.39608895258E+03  0.78907816059E+02 0.  0.
        254    2    1    2    0    0 -0.73074128259E+02  0.35399736893E+03  0.82865083846E+02  0.97505722798E+03  0.90178490245E+03 0.  0.
         23    2    4    4    0    0 -0.79942805783E+02 -0.26191866411E+03  0.18689135811E+03  0.34377067756E+03  0.90871668911E+02 0.  0.
         23    2    4    4    0    0  0.68686775243E+01  0.61591603304E+03 -0.10402627426E+03  0.63128655043E+03  0.91112592588E+02 0.  0.
          3    1    3    3  502    0  0.39560860721E+02 -0.23884695340E+03  0.13210405608E+03  0.27579777099E+03  0.00000000000E+00 0. -1.
         -4    1    3    3    0  502  0.33513267538E+02 -0.11515041553E+03  0.93386867019E+01  0.12029118159E+03  0.00000000000E+00 0.  1.
         11    1    5    5    0    0 -0.45766240316E+02 -0.48105646008E+02  0.16975772066E+02  0.68533778297E+02  0.00000000000E+00 0. -1.
        -11    1    5    5    0    0 -0.34176565467E+02 -0.21381301810E+03  0.16991558604E+03  0.27523689926E+03  0.00000000000E+00 0.  1.
          4    1    6    6  503    0  0.20706873651E+02  0.21876135443E+03  0.28952387179E+01  0.21975824721E+03  0.00000000000E+00 0. -1.
         -4    1    6    6    0  503 -0.13838196127E+02  0.39715467860E+03 -0.10692151298E+03  0.41152830322E+03  0.00000000000E+00 0.  1.
<mgrwt>
<rscale>  0 0.13526743E+04</rscale>
<asrwt>0</asrwt>
<pdfrwt beam="1">  1        1 0.12272723E+00 0.13526743E+04</pdfrwt>
<pdfrwt beam="2">  1       -2 0.88218335E-01 0.13526743E+04</pdfrwt>
<totfact> 0.21075648E+01</totfact>
</mgrwt>
</event>
<event>
12    4  0.4413110E-008  0.3193788E+04  0.7818608E-02  0.8190460E-01
         -2   -1    0    0    0  501 -0.00000000000E+00  0.00000000000E+00  0.10553495654E+04  0.10553495654E+04  0.00000000000E+00 0.  1.
          1   -1    0    0  501    0  0.00000000000E+00 -0.00000000000E+00 -0.24163275522E+04  0.24163275522E+04  0.00000000000E+00 0. -1.
        -24    2    1    2    0    0 -0.25642023450E+03  0.76457102850E+03  0.71837376591E+03  0.10828235904E+04  0.78267911794E+02 0.  0.
        254    2    1    2    0    0  0.25642023450E+03 -0.76457102850E+03 -0.20793517527E+04  0.23888535272E+04  0.85591896155E+03 0.  0.
         23    2    4    4    0    0  0.51663125347E+03 -0.37171873123E+03 -0.15278409778E+04  0.16577292440E+04  0.93196168057E+02 0.  0.
         23    2    4    4    0    0 -0.26021101898E+03 -0.39285229728E+03 -0.55151077489E+03  0.73112428321E+03  0.91301044932E+02 0.  0.
          3    1    3    3  502    0 -0.74226178997E+02  0.12777181558E+03  0.12464832955E+03  0.19331934348E+03  0.00000000000E+00 0. -1.
         -4    1    3    3    0  502 -0.18219405550E+03  0.63679921293E+03  0.59372543636E+03  0.88950424689E+03  0.00000000000E+00 0.  1.
         11    1    5    5    0    0  0.24404943385E+03 -0.23179596150E+03 -0.77595147692E+03  0.84580741807E+03  0.00000000000E+00 0.  1.
        -11    1    5    5    0    0  0.27258181962E+03 -0.13992276972E+03 -0.75188950086E+03  0.81192182590E+03  0.00000000000E+00 0. -1.
          2    1    6    6  503    0  0.37339504181E+01 -0.27344848700E+02 -0.19602783085E+02  0.33851916354E+02  0.00000000000E+00 0. -1.
         -2    1    6    6    0  503 -0.26394496940E+03 -0.36550744858E+03 -0.53190799180E+03  0.69727236686E+03  0.00000000000E+00 0.  1.
<mgrwt>
<rscale>  0 0.31937879E+04</rscale>
<asrwt>0</asrwt>
<pdfrwt beam="1">  1        1 0.37174270E+00 0.31937879E+04</pdfrwt>
<pdfrwt beam="2">  1       -2 0.16236147E+00 0.31937879E+04</pdfrwt>
<totfact> 0.27584581E-01</totfact>
</mgrwt>
</event>
<event>
12    4  0.4413110E-008  0.2356198E+04  0.7818608E-02  0.8456087E-01
          1   -1    0    0  501    0  0.00000000000E+00  0.00000000000E+00  0.15815857854E+04  0.15815857854E+04  0.00000000000E+00 0. -1.
         -2   -1    0    0    0  501 -0.00000000000E+00 -0.00000000000E+00 -0.87754763562E+03  0.87754763562E+03  0.00000000000E+00 0.  1.
        -24    2    1    2    0    0  0.67818861654E+03 -0.66451023839E+03  0.64589781058E+03  0.11511673571E+04  0.80552131694E+02 0.  0.
        254    2    1    2    0    0 -0.67818861654E+03  0.66451023839E+03  0.58140339178E+02  0.13079660639E+04  0.89770889972E+03 0.  0.
         23    2    4    4    0    0 -0.78621605389E+03  0.19457499172E+03  0.42016046702E+02  0.81626837272E+03  0.92377472023E+02 0.  0.
         23    2    4    4    0    0  0.10802743735E+03  0.46993524667E+03  0.16124292476E+02  0.49169769113E+03  0.94855486822E+02 0.  0.
          3    1    3    3  502    0  0.20853537702E+03 -0.16056522042E+03  0.20040257803E+03  0.33080112872E+03  0.00000000000E+00 0. -1.
         -4    1    3    3    0  502  0.46965323952E+03 -0.50394501797E+03  0.44549523254E+03  0.82036622843E+03  0.00000000000E+00 0.  1.
         11    1    5    5    0    0 -0.59811631424E+03  0.18674079710E+03  0.42138846771E+02  0.62800551994E+03  0.00000000000E+00 0.  1.
        -11    1    5    5    0    0 -0.18809973965E+03  0.78341946209E+01 -0.12280006862E+00  0.18826285279E+03  0.00000000000E+00 0. -1.
          4    1    6    6  503    0  0.74664269123E+02  0.43548965319E+03  0.25195512439E+01  0.44185103740E+03  0.00000000000E+00 0. -1.
         -4    1    6    6    0  503  0.33363168226E+02  0.34445593480E+02  0.13604741232E+02  0.49846653732E+02  0.00000000000E+00 0.  1.
<mgrwt>
<rscale>  0 0.23561977E+04</rscale>
<asrwt>0</asrwt>
<pdfrwt beam="1">  1        1 0.24332089E+00 0.23561977E+04</pdfrwt>
<pdfrwt beam="2">  1       -2 0.13500733E+00 0.23561977E+04</pdfrwt>
<totfact> 0.17901621E+00</totfact>
</mgrwt>
</event>
<event>
12    4  0.4413110E-008  0.1275467E+04  0.7818608E-02  0.9049250E-01
         -2   -1    0    0    0  501 -0.00000000000E+00  0.00000000000E+00  0.28730145507E+03  0.28730145507E+03  0.00000000000E+00 0.  1.
          1   -1    0    0  501    0  0.00000000000E+00 -0.00000000000E+00 -0.14156000823E+04  0.14156000823E+04  0.00000000000E+00 0. -1.
        -24    2    1    2    0    0 -0.31165519823E+03 -0.40384186511E+02 -0.32010253415E+03  0.45697420125E+03  0.87177652761E+02 0.  0.
        254    2    1    2    0    0  0.31165519823E+03  0.40384186511E+02 -0.80819609305E+03  0.12459273361E+04  0.89464750427E+03 0.  0.
         23    2    4    4    0    0  0.32888564436E+03 -0.86973570652E+02  0.65672897125E+02  0.35795915026E+03  0.89953625712E+02 0.  0.
         23    2    4    4    0    0 -0.17230446133E+02  0.12735775716E+03 -0.87386899017E+03  0.88796818583E+03  0.91233768258E+02 0.  0.
          3    1    3    3  502    0 -0.95529059521E+02 -0.30778675243E+02 -0.15574629916E+03  0.18528366837E+03  0.00000000000E+00 0. -1.
         -4    1    3    3    0  502 -0.21612613871E+03 -0.96055112682E+01 -0.16435623499E+03  0.27169053288E+03  0.00000000000E+00 0.  1.
         11    1    5    5    0    0  0.25857077849E+02 -0.10080921850E+02 -0.19516831447E+02  0.33928161901E+02  0.00000000000E+00 0. -1.
        -11    1    5    5    0    0  0.30302856651E+03 -0.76892648802E+02  0.85189728572E+02  0.32403098836E+03  0.00000000000E+00 0.  1.
          4    1    6    6  503    0 -0.19242555175E+02  0.32805402130E+02 -0.81065590800E+02  0.89543845965E+02  0.00000000000E+00 0. -1.
         -4    1    6    6    0  503  0.20121090419E+01  0.94552355034E+02 -0.79280339937E+03  0.79842433986E+03  0.00000000000E+00 0.  1.
<mgrwt>
<rscale>  0 0.12754669E+04</rscale>
<asrwt>0</asrwt>
<pdfrwt beam="1">  1        1 0.21778463E+00 0.12754669E+04</pdfrwt>
<pdfrwt beam="2">  1       -2 0.44200224E-01 0.12754669E+04</pdfrwt>
<totfact> 0.31399944E+01</totfact>
</mgrwt>
</event>
<event>
12    4  0.4413110E-008  0.1544909E+04  0.7818608E-02  0.8855126E-01
         -2   -1    0    0    0  501 -0.00000000000E+00  0.00000000000E+00  0.34951886718E+03  0.34951886718E+03  0.00000000000E+00 0.  1.
          1   -1    0    0  501    0  0.00000000000E+00 -0.00000000000E+00 -0.17071642533E+04  0.17071642533E+04  0.00000000000E+00 0. -1.
        -24    2    1    2    0    0  0.37054339398E+03 -0.34555831437E+03 -0.47441872024E+03  0.69853949667E+03  0.78557945734E+02 0.  0.
        254    2    1    2    0    0 -0.37054339398E+03  0.34555831437E+03 -0.88322666587E+03  0.13581436238E+04  0.89875013441E+03 0.  0.
         23    2    4    4    0    0 -0.29938016389E+03  0.61956901579E+03 -0.78114140130E+03  0.10449252119E+04  0.90512771753E+02 0.  0.
         23    2    4    4    0    0 -0.71163230086E+02 -0.27401070142E+03 -0.10208526457E+03  0.31321841187E+03  0.86823398247E+02 0.  0.
          1    1    3    3  502    0  0.85880999817E+02 -0.56692517592E+02 -0.62084382892E+02  0.12018343596E+03  0.00000000000E+00 0. -1.
         -2    1    3    3    0  502  0.28466239416E+03 -0.28886579678E+03 -0.41233433735E+03  0.57835606071E+03  0.00000000000E+00 0.  1.
         11    1    5    5    0    0 -0.22073785894E+03  0.49000927230E+03 -0.55388339722E+03  0.77176492990E+03  0.00000000000E+00 0. -1.
        -11    1    5    5    0    0 -0.78642304949E+02  0.12955974349E+03 -0.22725800408E+03  0.27316028203E+03  0.00000000000E+00 0.  1.
          1    1    6    6  503    0 -0.60881617782E+02 -0.24571387212E+03 -0.57784246866E+02  0.25965534372E+03  0.00000000000E+00 0. -1.
         -1    1    6    6    0  503 -0.10281612304E+02 -0.28296829297E+02 -0.44301017705E+02  0.53563068149E+02  0.00000000000E+00 0.  1.
<mgrwt>
<rscale>  0 0.15449092E+04</rscale>
<asrwt>0</asrwt>
<pdfrwt beam="1">  1        1 0.26264065E+00 0.15449092E+04</pdfrwt>
<pdfrwt beam="2">  1       -2 0.53772134E-01 0.15449092E+04</pdfrwt>
<totfact> 0.12990544E+01</totfact>
</mgrwt>
</event>
<event>
12    4  0.4413110E-008  0.1322724E+04  0.7818608E-02  0.9011737E-01
          1   -1    0    0  501    0  0.00000000000E+00  0.00000000000E+00  0.91701876871E+03  0.91701876871E+03  0.00000000000E+00 0. -1.
         -2   -1    0    0    0  501 -0.00000000000E+00 -0.00000000000E+00 -0.47697981984E+03  0.47697981984E+03  0.00000000000E+00 0.  1.
        -24    2    1    2    0    0  0.31286842585E+02 -0.27283433111E+03  0.34327427622E+03  0.44693198265E+03  0.80582440059E+02 0.  0.
        254    2    1    2    0    0 -0.31286842585E+02  0.27283433111E+03  0.96764672643E+02  0.94706660589E+03  0.90119604714E+03 0.  0.
         23    2    4    4    0    0  0.15836892604E+03  0.50744720560E+03  0.25199883606E+03  0.59569970496E+03  0.93655442491E+02 0.  0.
         23    2    4    4    0    0 -0.18965576862E+03 -0.23461287448E+03 -0.15523416342E+03  0.35136690094E+03  0.91370356987E+02 0.  0.
          1    1    3    3  502    0  0.18136800212E+02 -0.25125320234E+03  0.33726228448E+03  0.42095482387E+03  0.00000000000E+00 0. -1.
         -2    1    3    3    0  502  0.13150042373E+02 -0.21581128770E+02  0.60119917441E+01  0.25977158777E+02  0.00000000000E+00 0.  1.
         11    1    5    5    0    0  0.69228464052E+02  0.10823636059E+03  0.37579035352E+02  0.13386513320E+03  0.00000000000E+00 0.  1.
        -11    1    5    5    0    0  0.89140461984E+02  0.39921084501E+03  0.21441980071E+03  0.46183457176E+03  0.00000000000E+00 0. -1.
          1    1    6    6  503    0 -0.18518480732E+03 -0.24230857808E+03 -0.14464369251E+03  0.33753319489E+03  0.00000000000E+00 0. -1.
         -1    1    6    6    0  503 -0.44709613053E+01  0.76957035941E+01 -0.10590470914E+02  0.13833706046E+02  0.00000000000E+00 0.  1.
<mgrwt>
<rscale>  0 0.13227236E+04</rscale>
<asrwt>0</asrwt>
<pdfrwt beam="1">  1        1 0.14107981E+00 0.13227236E+04</pdfrwt>
<pdfrwt beam="2">  1       -2 0.73381511E-01 0.13227236E+04</pdfrwt>
<totfact> 0.25392022E+01</totfact>
</mgrwt>
</event>
<event>
12    4  0.4413110E-008  0.2029419E+04  0.7818608E-02  0.8592989E-01
         -2   -1    0    0    0  501 -0.00000000000E+00  0.00000000000E+00  0.12751303979E+04  0.12751303979E+04  0.00000000000E+00 0.  1.
          1   -1    0    0  501    0  0.00000000000E+00 -0.00000000000E+00 -0.80747434712E+03  0.80747434712E+03  0.00000000000E+00 0. -1.
        -24    2    1    2    0    0  0.57069536655E+03 -0.38387195542E+03 -0.25843047095E+03  0.73906527894E+03  0.79876771691E+02 0.  0.
        254    2    1    2    0    0 -0.57069536655E+03  0.38387195542E+03  0.72608652172E+03  0.13435394661E+04  0.89713197485E+03 0.  0.
         23    2    4    4    0    0 -0.40104075792E+03  0.37366680987E+03 -0.35755664878E+02  0.55744590758E+03  0.94904678491E+02 0.  0.
         23    2    4    4    0    0 -0.16965460863E+03  0.10205145549E+02  0.76184218659E+03  0.78609355848E+03  0.93020074091E+02 0.  0.
          3    1    3    3  502    0  0.27956061931E+03 -0.22309229282E+03 -0.16305870998E+03  0.39308072184E+03  0.00000000000E+00 0. -1.
         -4    1    3    3    0  502  0.29113474724E+03 -0.16077966260E+03 -0.95371760964E+02  0.34598455710E+03  0.00000000000E+00 0.  1.
         11    1    5    5    0    0 -0.22173120948E+03  0.26873172523E+03 -0.16307797186E+02  0.34877989284E+03  0.00000000000E+00 0. -1.
        -11    1    5    5    0    0 -0.17930954844E+03  0.10493508464E+03 -0.19447867692E+02  0.20866601474E+03  0.00000000000E+00 0.  1.
          4    1    6    6  503    0 -0.86564828371E+02  0.11570515367E+02  0.20135492493E+03  0.21947927494E+03  0.00000000000E+00 0. -1.
         -4    1    6    6    0  503 -0.83089780262E+02 -0.13653698184E+01  0.56048726166E+03  0.56661428354E+03  0.00000000000E+00 0.  1.
<mgrwt>
<rscale>  0 0.20294187E+04</rscale>
<asrwt>0</asrwt>
<pdfrwt beam="1">  1        1 0.12422682E+00 0.20294187E+04</pdfrwt>
<pdfrwt beam="2">  1       -2 0.19617391E+00 0.20294187E+04</pdfrwt>
<totfact> 0.24881738E+00</totfact>
</mgrwt>
</event>
<event>
12    4  0.4413110E-008  0.1636863E+04  0.7818608E-02  0.8798216E-01
         -2   -1    0    0    0  501 -0.00000000000E+00  0.00000000000E+00  0.36142940812E+03  0.36142940812E+03  0.00000000000E+00 0.  1.
          1   -1    0    0  501    0  0.00000000000E+00 -0.00000000000E+00 -0.18532809576E+04  0.18532809576E+04  0.00000000000E+00 0. -1.
        -24    2    1    2    0    0 -0.30502011418E+03 -0.39765776555E+03 -0.20513896174E+03  0.54742039385E+03  0.80113203824E+02 0.  0.
        254    2    1    2    0    0  0.30502011418E+03  0.39765776555E+03 -0.12867125877E+04  0.16672899718E+04  0.93437551245E+03 0.  0.
         23    2    4    4    0    0 -0.15069953126E+03  0.22113296997E+03  0.54834456025E+01  0.28253393280E+03  0.90472182902E+02 0.  0.
         23    2    4    4    0    0  0.45571964544E+03  0.17652479558E+03 -0.12921960333E+04  0.13847560390E+04  0.94537296569E+02 0.  0.
          1    1    3    3  502    0  0.28850936576E+01 -0.17780574987E+02 -0.12128766441E+02  0.21715883304E+02  0.00000000000E+00 0. -1.
         -2    1    3    3    0  502 -0.30790520784E+03 -0.37987719056E+03 -0.19301019530E+03  0.52570451055E+03  0.00000000000E+00 0.  1.
         11    1    5    5    0    0 -0.43219188953E+02  0.49239135913E+02 -0.37226265652E+02  0.75353736826E+02  0.00000000000E+00 0.  1.
        -11    1    5    5    0    0 -0.10748034231E+03  0.17189383405E+03  0.42709711255E+02  0.20718019597E+03  0.00000000000E+00 0. -1.
          3    1    6    6  503    0  0.38741399749E+03  0.18383162156E+03 -0.11287811651E+04  0.12074893744E+04  0.00000000000E+00 0. -1.
         -3    1    6    6    0  503  0.68305647955E+02 -0.73068259839E+01 -0.16341486822E+03  0.17726666467E+03  0.00000000000E+00 0.  1.
<mgrwt>
<rscale>  0 0.16368631E+04</rscale>
<asrwt>0</asrwt>
<pdfrwt beam="1">  1        1 0.28512014E+00 0.16368631E+04</pdfrwt>
<pdfrwt beam="2">  1       -2 0.55604526E-01 0.16368631E+04</pdfrwt>
<totfact> 0.95668471E+00</totfact>
</mgrwt>
</event>
<event>
12    4  0.4413110E-008  0.2078686E+04  0.7818608E-02  0.8570691E-01
         -2   -1    0    0    0  501 -0.00000000000E+00  0.00000000000E+00  0.76825947715E+03  0.76825947715E+03  0.00000000000E+00 0.  1.
          1   -1    0    0  501    0  0.00000000000E+00 -0.00000000000E+00 -0.14060788596E+04  0.14060788596E+04  0.00000000000E+00 0. -1.
        -24    2    1    2    0    0 -0.18449884861E+03 -0.56001301142E+03 -0.89234428701E+03  0.10726096026E+04  0.80985400021E+02 0.  0.
        254    2    1    2    0    0  0.18449884861E+03  0.56001301142E+03  0.25452490456E+03  0.11017287341E+04  0.89519209022E+03 0.  0.
         23    2    4    4    0    0 -0.25222761157E+03 -0.37421453834E+02  0.22698249951E+03  0.35560406820E+03  0.99569397843E+02 0.  0.
         23    2    4    4    0    0  0.43672646018E+03  0.59743446526E+03  0.27542405049E+02  0.74612466590E+03  0.91024676270E+02 0.  0.
          1    1    3    3  502    0 -0.17917525205E+03 -0.50793047460E+03 -0.84479292056E+03  0.10018843329E+04  0.00000000000E+00 0. -1.
         -2    1    3    3    0  502 -0.53235965532E+01 -0.52082536819E+02 -0.47551366454E+02  0.70725269695E+02  0.00000000000E+00 0.  1.
         11    1    5    5    0    0  0.65120050021E+00 -0.14823085151E+02  0.32705320903E+02  0.35913589780E+02  0.00000000000E+00 0.  1.
        -11    1    5    5    0    0 -0.25287881207E+03 -0.22598368683E+02  0.19427717861E+03  0.31969047842E+03  0.00000000000E+00 0. -1.
          1    1    6    6  503    0  0.26491118299E+03  0.43396784143E+03  0.21775423804E+02  0.50890096419E+03  0.00000000000E+00 0. -1.
         -1    1    6    6    0  503  0.17181527719E+03  0.16346662383E+03  0.57669812450E+01  0.23722370171E+03  0.00000000000E+00 0.  1.
<mgrwt>
<rscale>  0 0.20786856E+04</rscale>
<asrwt>0</asrwt>
<pdfrwt beam="1">  1        1 0.21631982E+00 0.20786856E+04</pdfrwt>
<pdfrwt beam="2">  1       -2 0.11819377E+00 0.20786856E+04</pdfrwt>
<totfact> 0.33920087E+00</totfact>
</mgrwt>
</event>
<event>
12    4  0.4413110E-008  0.1574649E+04  0.7818608E-02  0.8836275E-01
         -2   -1    0    0    0  501 -0.00000000000E+00  0.00000000000E+00  0.56684751530E+03  0.56684751530E+03  0.00000000000E+00 0.  1.
          1   -1    0    0  501    0  0.00000000000E+00 -0.00000000000E+00 -0.10935573154E+04  0.10935573154E+04  0.00000000000E+00 0. -1.
        -24    2    1    2    0    0 -0.51943462268E+03  0.70772465614E+02 -0.27498622004E+03  0.59640921100E+03  0.72563466273E+02 0.  0.
        254    2    1    2    0    0  0.51943462268E+03 -0.70772465614E+02 -0.25172358002E+03  0.10639956196E+04  0.89101113840E+03 0.  0.
         23    2    4    4    0    0 -0.21783344741E+03 -0.13222692070E+03 -0.15662178254E+03  0.31263160420E+03  0.90954756934E+02 0.  0.
         23    2    4    4    0    0  0.73726807009E+03  0.61454455087E+02 -0.95101797476E+02  0.75136401544E+03  0.90347521255E+02 0.  0.
          3    1    3    3  502    0 -0.43973671652E+03  0.32942126424E+02 -0.23194376038E+03  0.49824840344E+03  0.00000000000E+00 0. -1.
         -4    1    3    3    0  502 -0.79697906159E+02  0.37830339190E+02 -0.43042459652E+02  0.98160807567E+02  0.00000000000E+00 0.  1.
         11    1    5    5    0    0 -0.36439728630E+02 -0.56268608619E+01 -0.61794081277E+02  0.71958487106E+02  0.00000000000E+00 0.  1.
        -11    1    5    5    0    0 -0.18139371878E+03 -0.12660005984E+03 -0.94827701268E+02  0.24067311710E+03  0.00000000000E+00 0. -1.
          3    1    6    6  503    0  0.66532028675E+03  0.35790662097E+02 -0.65702324928E+02  0.66951389153E+03  0.00000000000E+00 0.  1.
         -3    1    6    6    0  503  0.71947783337E+02  0.25663792990E+02 -0.29399472548E+02  0.81850123909E+02  0.00000000000E+00 0. -1.
<mgrwt>
<rscale>  0 0.15746495E+04</rscale>
<asrwt>0</asrwt>
<pdfrwt beam="1">  1        1 0.16823959E+00 0.15746495E+04</pdfrwt>
<pdfrwt beam="2">  1       -2 0.87207310E-01 0.15746495E+04</pdfrwt>
<totfact> 0.12284171E+01</totfact>
</mgrwt>
</event>
<event>
12    4  0.4413110E-008  0.1143567E+04  0.7818608E-02  0.9163739E-01
          1   -1    0    0  501    0  0.00000000000E+00  0.00000000000E+00  0.55287895694E+03  0.55287895694E+03  0.00000000000E+00 0. -1.
         -2   -1    0    0    0  501 -0.00000000000E+00 -0.00000000000E+00 -0.59133405184E+03  0.59133405184E+03  0.00000000000E+00 0.  1.
        -24    2    1    2    0    0 -0.30200324521E+02  0.19021030564E+03  0.24552063917E+02  0.21070452045E+03  0.81863124323E+02 0.  0.
        254    2    1    2    0    0  0.30200324521E+02 -0.19021030564E+03 -0.63007158813E+02  0.93350848832E+03  0.91124978779E+03 0.  0.
         23    2    4    4    0    0  0.19164556505E+03  0.15945685711E+03 -0.35515359047E+03  0.44122619112E+03  0.79949778117E+02 0.  0.
         23    2    4    4    0    0 -0.16144524053E+03 -0.34966716275E+03  0.29214643166E+03  0.49228229721E+03  0.93062517801E+02 0.  0.
          1    1    3    3  502    0 -0.27614105133E+02  0.77072955178E+02  0.48323236758E+02  0.95067946401E+02  0.00000000000E+00 0. -1.
         -2    1    3    3    0  502 -0.25862193875E+01  0.11313735046E+03 -0.23771172841E+02  0.11563657405E+03  0.00000000000E+00 0.  1.
         11    1    5    5    0    0  0.16471621019E+03  0.90893913981E+02 -0.25774350060E+03  0.31910005578E+03  0.00000000000E+00 0.  1.
        -11    1    5    5    0    0  0.26929354863E+02  0.68562943129E+02 -0.97410089874E+02  0.12212613534E+03  0.00000000000E+00 0. -1.
          2    1    6    6  503    0 -0.70277759927E+02 -0.96160586086E+02  0.13647256925E+03  0.18113692063E+03  0.00000000000E+00 0. -1.
         -2    1    6    6    0  503 -0.91167480602E+02 -0.25350657666E+03  0.15567386241E+03  0.31114537658E+03  0.00000000000E+00 0.  1.
<mgrwt>
<rscale>  0 0.11435666E+04</rscale>
<asrwt>0</asrwt>
<pdfrwt beam="1">  1        1 0.85058301E-01 0.11435666E+04</pdfrwt>
<pdfrwt beam="2">  1       -2 0.90974469E-01 0.11435666E+04</pdfrwt>
<totfact> 0.34513596E+01</totfact>
</mgrwt>
</event>
<event>
12    4  0.4413110E-008  0.1427661E+04  0.7818608E-02  0.8934036E-01
          1   -1    0    0  501    0  0.00000000000E+00  0.00000000000E+00  0.20964310335E+04  0.20964310335E+04  0.00000000000E+00 0. -1.
         -2   -1    0    0    0  501 -0.00000000000E+00 -0.00000000000E+00 -0.24305786376E+03  0.24305786376E+03  0.00000000000E+00 0.  1.
        -24    2    1    2    0    0 -0.18414680786E+03  0.24518622782E+03  0.10606181647E+04  0.11070127558E+04  0.80870372419E+02 0.  0.
        254    2    1    2    0    0  0.18414680786E+03 -0.24518622782E+03  0.79275500504E+03  0.12324761414E+04  0.89247442989E+03 0.  0.
         23    2    4    4    0    0  0.46599995041E+03  0.53288834862E+02  0.22939624925E+03  0.52980003139E+03  0.89831956402E+02 0.  0.
         23    2    4    4    0    0 -0.28185314255E+03 -0.29847506269E+03  0.56335875579E+03  0.70267611003E+03  0.88611911571E+02 0.  0.
          3    1    3    3  502    0 -0.94197234804E+02  0.18364814725E+03  0.74740507923E+03  0.77537998007E+03  0.00000000000E+00 0. -1.
         -4    1    3    3    0  502 -0.89949573057E+02  0.61538080577E+02  0.31321308542E+03  0.33163277572E+03  0.00000000000E+00 0.  1.
         11    1    5    5    0    0  0.44291480980E+02  0.31159951972E+02  0.38034072432E+02  0.66176042191E+02  0.00000000000E+00 0.  1.
        -11    1    5    5    0    0  0.42170846943E+03  0.22128882890E+02  0.19136217682E+03  0.46362398920E+03  0.00000000000E+00 0. -1.
          2    1    6    6  503    0 -0.14217415093E+03 -0.16470572402E+03  0.36974883207E+03  0.42901709003E+03  0.00000000000E+00 0. -1.
         -2    1    6    6    0  503 -0.13967899162E+03 -0.13376933866E+03  0.19360992372E+03  0.27365902000E+03  0.00000000000E+00 0.  1.
<mgrwt>
<rscale>  0 0.14276611E+04</rscale>
<asrwt>0</asrwt>
<pdfrwt beam="1">  1        1 0.32252784E+00 0.14276611E+04</pdfrwt>
<pdfrwt beam="2">  1       -2 0.37393519E-01 0.14276611E+04</pdfrwt>
<totfact> 0.14780564E+01</totfact>
</mgrwt>
</event>
<event>
12    4  0.4413110E-008  0.1925089E+04  0.7818608E-02  0.8642468E-01
         -2   -1    0    0    0  501 -0.00000000000E+00  0.00000000000E+00  0.84894437963E+03  0.84894437963E+03  0.00000000000E+00 0.  1.
          1   -1    0    0  501    0  0.00000000000E+00 -0.00000000000E+00 -0.10913457693E+04  0.10913457693E+04  0.00000000000E+00 0. -1.
        -24    2    1    2    0    0  0.67457737769E+03  0.98305830356E+02  0.22006329149E+03  0.72082479259E+03  0.80261164769E+02 0.  0.
        254    2    1    2    0    0 -0.67457737769E+03 -0.98305830356E+02 -0.46246468115E+03  0.12194653563E+04  0.89916822631E+03 0.  0.
         23    2    4    4    0    0 -0.84851180572E+03 -0.10922610468E+03 -0.53386376658E+03  0.10125375320E+04  0.91209133460E+02 0.  0.
         23    2    4    4    0    0  0.17393442803E+03  0.10920274323E+02  0.71399085427E+02  0.20692782435E+03  0.85725477221E+02 0.  0.
          1    1    3    3  502    0  0.43530048456E+02 -0.11187109298E+02  0.50799046951E+01  0.45230763477E+02  0.00000000000E+00 0. -1.
         -2    1    3    3    0  502  0.63104732924E+03  0.10949293965E+03  0.21498338680E+03  0.67559402911E+03  0.00000000000E+00 0.  1.
         11    1    5    5    0    0 -0.16607237453E+03 -0.27316102581E+02 -0.64546580013E+02  0.18025666155E+03  0.00000000000E+00 0.  1.
        -11    1    5    5    0    0 -0.68243943119E+03 -0.81910002098E+02 -0.46931718657E+03  0.83228087043E+03  0.00000000000E+00 0. -1.
          1    1    6    6  503    0  0.14104360310E+03  0.43487857827E+02  0.49088241875E+02  0.15554467925E+03  0.00000000000E+00 0. -1.
         -1    1    6    6    0  503  0.32890824927E+02 -0.32567583504E+02  0.22310843552E+02  0.51383145093E+02  0.00000000000E+00 0.  1.
<mgrwt>
<rscale>  0 0.19250889E+04</rscale>
<asrwt>0</asrwt>
<pdfrwt beam="1">  1        1 0.16789935E+00 0.19250889E+04</pdfrwt>
<pdfrwt beam="2">  1       -2 0.13060683E+00 0.19250889E+04</pdfrwt>
<totfact> 0.45225769E+00</totfact>
</mgrwt>
</event>
<event>
12    4  0.4413110E-008  0.1244725E+04  0.7818608E-02  0.9074585E-01
         -2   -1    0    0    0  501 -0.00000000000E+00  0.00000000000E+00  0.26593903622E+03  0.26593903622E+03  0.00000000000E+00 0.  1.
          1   -1    0    0  501    0  0.00000000000E+00 -0.00000000000E+00 -0.14564796052E+04  0.14564796052E+04  0.00000000000E+00 0. -1.
        -24    2    1    2    0    0  0.15426718437E+02 -0.19867875928E+03 -0.56403596494E+03  0.60370889921E+03  0.81342683807E+02 0.  0.
        254    2    1    2    0    0 -0.15426718437E+02  0.19867875928E+03 -0.62650460405E+03  0.11187097422E+04  0.90514763183E+03 0.  0.
         23    2    4    4    0    0  0.36895627476E+03  0.62344501653E+02 -0.58161054481E+03  0.69798750667E+03  0.94340680865E+02 0.  0.
         23    2    4    4    0    0 -0.38438299319E+03  0.13633425762E+03 -0.44894059242E+02  0.42072223555E+03  0.93029068968E+02 0.  0.
          1    1    3    3  502    0  0.64827365609E+01 -0.20373709539E+03 -0.52084244277E+03  0.55931000358E+03  0.00000000000E+00 0. -1.
         -2    1    3    3    0  502  0.89439818758E+01  0.50583361094E+01 -0.43193522165E+02  0.44398895628E+02  0.00000000000E+00 0.  1.
         11    1    5    5    0    0  0.16056892645E+03 -0.14130389715E+02 -0.28624067832E+03  0.32850536370E+03  0.00000000000E+00 0. -1.
        -11    1    5    5    0    0  0.20838734830E+03  0.76474891368E+02 -0.29536986649E+03  0.36948214297E+03  0.00000000000E+00 0.  1.
          2    1    6    6  503    0 -0.31583707799E+02  0.38993156129E+02  0.84086467567E+01  0.50879290124E+02  0.00000000000E+00 0. -1.
         -2    1    6    6    0  503 -0.35279928539E+03  0.97341101495E+02 -0.53302705999E+02  0.36984294543E+03  0.00000000000E+00 0.  1.
<mgrwt>
<rscale>  0 0.12447245E+04</rscale>
<asrwt>0</asrwt>
<pdfrwt beam="1">  1        1 0.22407379E+00 0.12447245E+04</pdfrwt>
<pdfrwt beam="2">  1       -2 0.40913698E-01 0.12447245E+04</pdfrwt>
<totfact> 0.34344337E+01</totfact>
</mgrwt>
</event>
<event>
12    4  0.4413110E-008  0.1928894E+04  0.7818608E-02  0.8640606E-01
         -2   -1    0    0    0  501 -0.00000000000E+00  0.00000000000E+00  0.51413384244E+03  0.51413384244E+03  0.00000000000E+00 0.  1.
          1   -1    0    0  501    0  0.00000000000E+00 -0.00000000000E+00 -0.18091755154E+04  0.18091755154E+04  0.00000000000E+00 0. -1.
        -24    2    1    2    0    0 -0.28452347744E+03  0.31894690931E+03  0.23482380839E+03  0.49419422196E+03  0.80031043071E+02 0.  0.
        254    2    1    2    0    0  0.28452347744E+03 -0.31894690931E+03 -0.15298654814E+04  0.18291151359E+04  0.90691402522E+03 0.  0.
         23    2    4    4    0    0  0.44252108822E+03 -0.31162857111E+03 -0.15528707272E+04  0.16470903743E+04  0.92530673757E+02 0.  0.
         23    2    4    4    0    0 -0.15799761077E+03 -0.73183382024E+01  0.23005245864E+02  0.18202476166E+03  0.87103211402E+02 0.  0.
          1    1    3    3  502    0 -0.10288210074E+03  0.65961881120E+02  0.82891104174E+02  0.14767068621E+03  0.00000000000E+00 0. -1.
         -2    1    3    3    0  502 -0.18164137670E+03  0.25298502819E+03  0.15193270421E+03  0.34652353575E+03  0.00000000000E+00 0.  1.
         11    1    5    5    0    0  0.69575217039E+02 -0.57036299305E+02 -0.37468866172E+03  0.38533808985E+03  0.00000000000E+00 0.  1.
        -11    1    5    5    0    0  0.37294587118E+03 -0.25459227180E+03 -0.11781820655E+04  0.12617522844E+04  0.00000000000E+00 0. -1.
          3    1    6    6  503    0 -0.14470635969E+03 -0.26963782615E+02 -0.24687805243E+01  0.14721776722E+03  0.00000000000E+00 0. -1.
         -3    1    6    6    0  503 -0.13291251079E+02  0.19645444412E+02  0.25474026388E+02  0.34806994438E+02  0.00000000000E+00 0.  1.
<mgrwt>
<rscale>  0 0.19288944E+04</rscale>
<asrwt>0</asrwt>
<pdfrwt beam="1">  1        1 0.27833469E+00 0.19288944E+04</pdfrwt>
<pdfrwt beam="2">  1       -2 0.79097516E-01 0.19288944E+04</pdfrwt>
<totfact> 0.46663236E+00</totfact>
</mgrwt>
</event>
<event>
12    4  0.4413110E-008  0.1614524E+04  0.7818608E-02  0.8811675E-01
         -2   -1    0    0    0  501 -0.00000000000E+00  0.00000000000E+00  0.42791621909E+03  0.42791621909E+03  0.00000000000E+00 0.  1.
          1   -1    0    0  501    0  0.00000000000E+00 -0.00000000000E+00 -0.15228959740E+04  0.15228959740E+04  0.00000000000E+00 0. -1.
        -24    2    1    2    0    0 -0.28512846079E+03  0.60430642167E+01  0.19088828926E+03  0.35254154708E+03  0.80699725288E+02 0.  0.
        254    2    1    2    0    0  0.28512846079E+03 -0.60430642167E+01 -0.12858680442E+04  0.15982706460E+04  0.90536052108E+03 0.  0.
         23    2    4    4    0    0  0.20663409419E+03  0.37237565954E+03 -0.28268712770E+03  0.51935837162E+03  0.91977308614E+02 0.  0.
         23    2    4    4    0    0  0.78494366605E+02 -0.37841872376E+03 -0.10031809165E+04  0.10789122744E+04  0.91201143675E+02 0.  0.
          1    1    3    3  502    0 -0.15258032675E+02  0.20955633279E+02  0.20340014542E+02  0.32949390264E+02  0.00000000000E+00 0. -1.
         -2    1    3    3    0  502 -0.26987042812E+03 -0.14912569062E+02  0.17054827472E+03  0.31959215682E+03  0.00000000000E+00 0.  1.
         11    1    5    5    0    0  0.38532254124E+02  0.21510707771E+02 -0.13118327140E+02  0.46038415086E+02  0.00000000000E+00 0. -1.
        -11    1    5    5    0    0  0.16810184006E+03  0.35086495177E+03 -0.26956880056E+03  0.47331995653E+03  0.00000000000E+00 0.  1.
          2    1    6    6  503    0 -0.79333957243E+01 -0.15101832784E+03 -0.44593908710E+03  0.47088336509E+03  0.00000000000E+00 0. -1.
         -2    1    6    6    0  503  0.86427762329E+02 -0.22740039592E+03 -0.55724182938E+03  0.60802890933E+03  0.00000000000E+00 0.  1.
<mgrwt>
<rscale>  0 0.16145239E+04</rscale>
<asrwt>0</asrwt>
<pdfrwt beam="1">  1        1 0.23429169E+00 0.16145239E+04</pdfrwt>
<pdfrwt beam="2">  1       -2 0.65833264E-01 0.16145239E+04</pdfrwt>
<totfact> 0.11266007E+01</totfact>
</mgrwt>
</event>
<event>
12    4  0.4413110E-008  0.1651783E+04  0.7818608E-02  0.8789352E-01
         -2   -1    0    0    0  501 -0.00000000000E+00  0.00000000000E+00  0.68486443355E+03  0.68486443355E+03  0.00000000000E+00 0.  1.
          1   -1    0    0  501    0  0.00000000000E+00 -0.00000000000E+00 -0.99595896901E+03  0.99595896901E+03  0.00000000000E+00 0. -1.
        -24    2    1    2    0    0 -0.22152280044E+03  0.11978944478E+03 -0.63220448530E+03  0.68583939844E+03  0.85271959208E+02 0.  0.
        254    2    1    2    0    0  0.22152280044E+03 -0.11978944478E+03  0.32110994983E+03  0.99498400412E+03  0.90744680636E+03 0.  0.
         23    2    4    4    0    0 -0.40334557865E+02  0.19137633755E+03  0.49783246451E+03  0.54241473908E+03  0.90137713110E+02 0.  0.
         23    2    4    4    0    0  0.26185735830E+03 -0.31116578233E+03 -0.17672251468E+03  0.45256926503E+03  0.90524429136E+02 0.  0.
          3    1    3    3  502    0 -0.16107735283E+03  0.10184057018E+03 -0.55102415417E+03  0.58304805446E+03  0.00000000000E+00 0. -1.
         -4    1    3    3    0  502 -0.60445447603E+02  0.17948874609E+02 -0.81180331133E+02  0.10279134399E+03  0.00000000000E+00 0.  1.
         11    1    5    5    0    0 -0.80998746626E+01  0.15012814646E+03  0.27395952953E+03  0.31250262743E+03  0.00000000000E+00 0. -1.
        -11    1    5    5    0    0 -0.32234683202E+02  0.41248191083E+02  0.22387293498E+03  0.22991211165E+03  0.00000000000E+00 0.  1.
          4    1    6    6  503    0  0.22710047938E+03 -0.30090341797E+03 -0.17667006137E+03  0.41632896280E+03  0.00000000000E+00 0. -1.
         -4    1    6    6    0  503  0.34756878923E+02 -0.10262364360E+02 -0.52453302863E-01  0.36240302234E+02  0.00000000000E+00 0.  1.
<mgrwt>
<rscale>  0 0.16517831E+04</rscale>
<asrwt>0</asrwt>
<pdfrwt beam="1">  1        1 0.15322446E+00 0.16517831E+04</pdfrwt>
<pdfrwt beam="2">  1       -2 0.10536376E+00 0.16517831E+04</pdfrwt>
<totfact> 0.93064462E+00</totfact>
</mgrwt>
</event>
<event>
12    4  0.4413110E-008  0.1150144E+04  0.7818608E-02  0.9157651E-01
         -2   -1    0    0    0  501 -0.00000000000E+00  0.00000000000E+00  0.36323939211E+03  0.36323939211E+03  0.00000000000E+00 0.  1.
          1   -1    0    0  501    0  0.00000000000E+00 -0.00000000000E+00 -0.91044033323E+03  0.91044033323E+03  0.00000000000E+00 0. -1.
        -24    2    1    2    0    0 -0.10297751362E+03  0.17920719961E+03 -0.76683487403E+02  0.23451737907E+03  0.79990344076E+02 0.  0.
        254    2    1    2    0    0  0.10297751362E+03 -0.17920719961E+03 -0.47051745372E+03  0.10391623463E+04  0.90318996837E+03 0.  0.
         23    2    4    4    0    0 -0.22563444459E+03 -0.11064770414E+03 -0.60928305554E+03  0.66488113082E+03  0.87677017090E+02 0.  0.
         23    2    4    4    0    0  0.32861195821E+03 -0.68559495464E+02  0.13876560183E+03  0.37428121546E+03  0.90245844744E+02 0.  0.
          3    1    3    3  502    0  0.90453832387E+01  0.48346454434E+02 -0.20997376000E+02  0.53479794438E+02  0.00000000000E+00 0. -1.
         -4    1    3    3    0  502 -0.11202289686E+03  0.13086074517E+03 -0.55686111403E+02  0.18103758464E+03  0.00000000000E+00 0.  1.
         11    1    5    5    0    0 -0.14766268116E+03 -0.30895195166E+02 -0.29391075472E+03  0.33036693574E+03  0.00000000000E+00 0. -1.
        -11    1    5    5    0    0 -0.77971763439E+02 -0.79752508976E+02 -0.31537230082E+03  0.33451419507E+03  0.00000000000E+00 0.  1.
          4    1    6    6  503    0  0.23672355260E+03 -0.86318735494E+02  0.82753696321E+02  0.26521149807E+03  0.00000000000E+00 0. -1.
         -4    1    6    6    0  503  0.91888405610E+02  0.17759240030E+02  0.56011905504E+02  0.10906971738E+03  0.00000000000E+00 0.  1.
<mgrwt>
<rscale>  0 0.11501440E+04</rscale>
<asrwt>0</asrwt>
<pdfrwt beam="1">  1        1 0.14006774E+00 0.11501440E+04</pdfrwt>
<pdfrwt beam="2">  1       -2 0.55882983E-01 0.11501440E+04</pdfrwt>
<totfact> 0.46709842E+01</totfact>
</mgrwt>
</event>
<event>
12    4  0.5717285E-008  0.1746871E+04  0.7818608E-02  0.8735075E-01
         -2   -1    0    0    0  501 -0.00000000000E+00  0.00000000000E+00  0.67391568451E+03  0.67391568451E+03  0.00000000000E+00 0.  1.
          1   -1    0    0  501    0  0.00000000000E+00 -0.00000000000E+00 -0.11320248963E+04  0.11320248963E+04  0.00000000000E+00 0. -1.
        -24    2    1    2    0    0 -0.76858686425E+01  0.97323693693E+02 -0.80786090015E+03  0.81771395511E+03  0.80535113218E+02 0.  0.
        254    2    1    2    0    0  0.76858686425E+01 -0.97323693693E+02  0.34975168833E+03  0.98822662572E+03  0.91909447085E+03 0.  0.
         23    2    4    4    0    0 -0.39861798254E+03  0.13709836048E+03  0.25456004783E+03  0.50098545604E+03  0.92159387856E+02 0.  0.
         23    2    4    4    0    0  0.40630385118E+03 -0.23442205417E+03  0.95191640505E+02  0.48724116967E+03  0.91137204466E+02 0.  0.
          3    1    3    3  502    0 -0.32757142010E+02  0.66600664412E+02 -0.67481236855E+03  0.67888173609E+03  0.00000000000E+00 0. -1.
         -4    1    3    3    0  502  0.25071273368E+02  0.30723029280E+02 -0.13304853160E+03  0.13883221902E+03  0.00000000000E+00 0.  1.
         11    1    5    5    0    0 -0.46189915920E+01  0.59483056062E+01  0.25827396759E+02  0.26903008127E+02  0.00000000000E+00 0. -1.
        -11    1    5    5    0    0 -0.39399899094E+03  0.13115005487E+03  0.22873265107E+03  0.47408244792E+03  0.00000000000E+00 0.  1.
          2    1    6    6  503    0 -0.13532255013E+01 -0.79437829046E+01 -0.59976366301E+01  0.10045225296E+02  0.00000000000E+00 0. -1.
         -2    1    6    6    0  503  0.40765707668E+03 -0.22647827127E+03  0.10118927714E+03  0.47719594438E+03  0.00000000000E+00 0.  1.
<mgrwt>
<rscale>  0 0.17468707E+04</rscale>
<asrwt>0</asrwt>
<pdfrwt beam="1">  1        1 0.17415768E+00 0.17468707E+04</pdfrwt>
<pdfrwt beam="2">  1       -2 0.10367934E+00 0.17468707E+04</pdfrwt>
<totfact> 0.75564829E+00</totfact>
</mgrwt>
</event>
<event>
12    4  0.4413110E-008  0.2628899E+04  0.7818608E-02  0.8358451E-01
         -2   -1    0    0    0  501 -0.00000000000E+00  0.00000000000E+00  0.96129603484E+03  0.96129603484E+03  0.00000000000E+00 0.  1.
          1   -1    0    0  501    0  0.00000000000E+00 -0.00000000000E+00 -0.17973411276E+04  0.17973411276E+04  0.00000000000E+00 0. -1.
        -24    2    1    2    0    0 -0.51715995632E+03  0.40966765529E+03  0.62910938502E+03  0.91519955527E+03  0.80805936926E+02 0.  0.
        254    2    1    2    0    0  0.51715995632E+03 -0.40966765529E+03 -0.14651544778E+04  0.18434376072E+04  0.90349463727E+03 0.  0.
         23    2    4    4    0    0  0.56138668422E+02  0.11925992564E+03 -0.96124258392E+03  0.97459140820E+03  0.92014280686E+02 0.  0.
         23    2    4    4    0    0  0.46102128790E+03 -0.52892758093E+03 -0.50391189388E+03  0.86884619899E+03  0.93067217285E+02 0.  0.
          1    1    3    3  502    0 -0.17235300900E+03  0.10080168996E+03  0.15693100175E+03  0.25395645241E+03  0.00000000000E+00 0. -1.
         -2    1    3    3    0  502 -0.34480694732E+03  0.30886596533E+03  0.47217838327E+03  0.66124310287E+03  0.00000000000E+00 0.  1.
         11    1    5    5    0    0 -0.23077112309E+02  0.39312472319E+02 -0.36333370152E+03  0.36618219817E+03  0.00000000000E+00 0.  1.
        -11    1    5    5    0    0  0.79215780731E+02  0.79947453321E+02 -0.59790888239E+03  0.60840921003E+03  0.00000000000E+00 0. -1.
          2    1    6    6  503    0  0.16359520685E+03 -0.25593649449E+03 -0.20346765719E+03  0.36560356732E+03  0.00000000000E+00 0. -1.
         -2    1    6    6    0  503  0.29742608105E+03 -0.27299108645E+03 -0.30044423669E+03  0.50324263167E+03  0.00000000000E+00 0.  1.
<mgrwt>
<rscale>  0 0.26288986E+04</rscale>
<asrwt>0</asrwt>
<pdfrwt beam="1">  1        1 0.27651402E+00 0.26288986E+04</pdfrwt>
<pdfrwt beam="2">  1       -2 0.14789170E+00 0.26288986E+04</pdfrwt>
<totfact> 0.98233781E-01</totfact>
</mgrwt>
</event>
<event>
12    4  0.4413110E-008  0.1793533E+04  0.7818608E-02  0.8709746E-01
         -2   -1    0    0    0  501 -0.00000000000E+00  0.00000000000E+00  0.87188397482E+03  0.87188397482E+03  0.00000000000E+00 0.  1.
          1   -1    0    0  501    0  0.00000000000E+00 -0.00000000000E+00 -0.92235879421E+03  0.92235879421E+03  0.00000000000E+00 0. -1.
        -24    2    1    2    0    0 -0.23255535428E+01 -0.35152038057E+03  0.57136507823E+03  0.67570967937E+03  0.80953888153E+02 0.  0.
        254    2    1    2    0    0  0.23255535428E+01  0.35152038057E+03 -0.62183989763E+03  0.11185330897E+04  0.86073191426E+03 0.  0.
         23    2    4    4    0    0  0.10232758507E+03  0.48311027190E+03 -0.73896198352E+03  0.89333465806E+03  0.90086229354E+02 0.  0.
         23    2    4    4    0    0 -0.10000203152E+03 -0.13158989133E+03  0.11712208589E+03  0.22519843160E+03  0.98389251361E+02 0.  0.
          1    1    3    3  502    0  0.37960375545E+01 -0.25558365041E+03  0.34162115302E+03  0.42666429948E+03  0.00000000000E+00 0. -1.
         -2    1    3    3    0  502 -0.61215910973E+01 -0.95936730165E+02  0.22974392521E+03  0.24904537989E+03  0.00000000000E+00 0.  1.
         11    1    5    5    0    0  0.89217430167E+02  0.25306370749E+03 -0.34677413374E+03  0.43846697678E+03  0.00000000000E+00 0.  1.
        -11    1    5    5    0    0  0.13110154900E+02  0.23004656442E+03 -0.39218784977E+03  0.45486768128E+03  0.00000000000E+00 0. -1.
          2    1    6    6  503    0  0.17491147437E+02 -0.32991888681E+02  0.11895056386E+02  0.39190525944E+02  0.00000000000E+00 0. -1.
         -2    1    6    6    0  503 -0.11749317896E+03 -0.98598002651E+02  0.10522702950E+03  0.18600790566E+03  0.00000000000E+00 0.  1.
<mgrwt>
<rscale>  0 0.17935327E+04</rscale>
<asrwt>0</asrwt>
<pdfrwt beam="1">  1        1 0.14190135E+00 0.17935327E+04</pdfrwt>
<pdfrwt beam="2">  1       -2 0.13413599E+00 0.17935327E+04</pdfrwt>
<totfact> 0.57889100E+00</totfact>
</mgrwt>
</event>
<event>
12    4  0.4413110E-008  0.2450822E+04  0.7818608E-02  0.8420718E-01
         -2   -1    0    0    0  501 -0.00000000000E+00  0.00000000000E+00  0.90662976997E+03  0.90662976997E+03  0.00000000000E+00 0.  1.
          1   -1    0    0  501    0  0.00000000000E+00 -0.00000000000E+00 -0.16562799392E+04  0.16562799392E+04  0.00000000000E+00 0. -1.
        -24    2    1    2    0    0 -0.40347241652E+03 -0.36288094227E+03 -0.12580194844E+04  0.13723655250E+04  0.79382252583E+02 0.  0.
        254    2    1    2    0    0  0.40347241652E+03  0.36288094227E+03  0.50836931514E+03  0.11905441842E+04  0.92977606160E+03 0.  0.
         23    2    4    4    0    0  0.44442076111E+03  0.36185002551E+03  0.74056555521E+03  0.94076641683E+03  0.90326383680E+02 0.  0.
         23    2    4    4    0    0 -0.40948344595E+02  0.10309167573E+01 -0.23219624008E+03  0.24977776733E+03  0.82437912601E+02 0.  0.
          3    1    3    3  502    0 -0.36295170930E+03 -0.29179265201E+03 -0.10966651421E+04  0.11914492557E+04  0.00000000000E+00 0. -1.
         -4    1    3    3    0  502 -0.40520707216E+02 -0.71088290257E+02 -0.16135434229E+03  0.18091626931E+03  0.00000000000E+00 0.  1.
         11    1    5    5    0    0  0.44343459995E+03  0.35515751633E+03  0.74129287911E+03  0.93396265368E+03  0.00000000000E+00 0. -1.
        -11    1    5    5    0    0  0.98616116085E+00  0.66925091803E+01 -0.72732389642E+00  0.68037631510E+01  0.00000000000E+00 0.  1.
          2    1    6    6  503    0 -0.56490033725E+02  0.21867734611E+02 -0.19646482355E+03  0.20559121727E+03  0.00000000000E+00 0. -1.
         -2    1    6    6    0  503  0.15541689130E+02 -0.20836817853E+02 -0.35731416527E+02  0.44186550061E+02  0.00000000000E+00 0.  1.
<mgrwt>
<rscale>  0 0.24508225E+04</rscale>
<asrwt>0</asrwt>
<pdfrwt beam="1">  1        1 0.25481230E+00 0.24508225E+04</pdfrwt>
<pdfrwt beam="2">  1       -2 0.13948150E+00 0.24508225E+04</pdfrwt>
<totfact> 0.14509056E+00</totfact>
</mgrwt>
</event>
<event>
12    4  0.4413110E-008  0.2494318E+04  0.7818608E-02  0.8405013E-01
          1   -1    0    0  501    0  0.00000000000E+00  0.00000000000E+00  0.12681482171E+04  0.12681482171E+04  0.00000000000E+00 0. -1.
         -2   -1    0    0    0  501 -0.00000000000E+00 -0.00000000000E+00 -0.12265170001E+04  0.12265170001E+04  0.00000000000E+00 0.  1.
        -24    2    1    2    0    0  0.95252888771E+03 -0.41583036853E+03  0.39880946213E+03  0.11159250009E+04  0.77546394770E+02 0.  0.
        254    2    1    2    0    0 -0.95252888771E+03  0.41583036853E+03 -0.35717824506E+03  0.13787402162E+04  0.83253955332E+03 0.  0.
         23    2    4    4    0    0 -0.98490281407E+03  0.10359717270E+03 -0.34187444744E+03  0.10514985842E+04  0.89471824790E+02 0.  0.
         23    2    4    4    0    0  0.32373926364E+02  0.31223319583E+03 -0.15303797627E+02  0.32724163203E+03  0.91187936845E+02 0.  0.
          3    1    3    3  502    0  0.79549753797E+03 -0.34431663170E+03  0.30104505854E+03  0.91760470958E+03  0.00000000000E+00 0. -1.
         -4    1    3    3    0  502  0.15703134974E+03 -0.71513736831E+02  0.97764403596E+02  0.19832029137E+03  0.00000000000E+00 0.  1.
         11    1    5    5    0    0 -0.77217421143E+03  0.70814900265E+02 -0.30439011002E+03  0.83301926868E+03  0.00000000000E+00 0. -1.
        -11    1    5    5    0    0 -0.21272860264E+03  0.32782272434E+02 -0.37484337413E+02  0.21847931554E+03  0.00000000000E+00 0.  1.
          3    1    6    6  503    0 -0.12282846723E+02  0.88423140652E+01 -0.13943866171E+02  0.20578781437E+02  0.00000000000E+00 0. -1.
         -3    1    6    6    0  503  0.44656773087E+02  0.30339088177E+03 -0.13599314557E+01  0.30666285060E+03  0.00000000000E+00 0.  1.
<mgrwt>
<rscale>  0 0.24943178E+04</rscale>
<asrwt>0</asrwt>
<pdfrwt beam="1">  1        1 0.19509973E+00 0.24943178E+04</pdfrwt>
<pdfrwt beam="2">  1       -2 0.18869492E+00 0.24943178E+04</pdfrwt>
<totfact> 0.11763652E+00</totfact>
</mgrwt>
</event>
<event>
12    4  0.4413110E-008  0.1312241E+04  0.7818608E-02  0.9019914E-01
         -2   -1    0    0    0  501 -0.00000000000E+00  0.00000000000E+00  0.62952670471E+03  0.62952670471E+03  0.00000000000E+00 0.  1.
          1   -1    0    0  501    0  0.00000000000E+00 -0.00000000000E+00 -0.68383812475E+03  0.68383812475E+03  0.00000000000E+00 0. -1.
        -24    2    1    2    0    0 -0.12239157878E+03 -0.10830252744E+03 -0.31305272659E+03  0.36274476162E+03  0.82901245164E+02 0.  0.
        254    2    1    2    0    0  0.12239157878E+03  0.10830252744E+03  0.25874130656E+03  0.95062006784E+03  0.90001239639E+03 0.  0.
         23    2    4    4    0    0  0.46413074058E+03  0.24722914440E+03  0.14069494537E+03  0.55216557035E+03  0.92477863477E+02 0.  0.
         23    2    4    4    0    0 -0.34173916180E+03 -0.13892661696E+03  0.11804636119E+03  0.39845449749E+03  0.93513547535E+02 0.  0.
          1    1    3    3  502    0  0.20162294001E+00 -0.43792143174E+02 -0.60393296448E+02  0.74599884125E+02  0.00000000000E+00 0. -1.
         -2    1    3    3    0  502 -0.12259320172E+03 -0.64510384270E+02 -0.25265943014E+03  0.28814487750E+03  0.00000000000E+00 0.  1.
         11    1    5    5    0    0  0.10162152620E+03  0.55278050511E+02  0.72002897054E+02  0.13626083311E+03  0.00000000000E+00 0. -1.
        -11    1    5    5    0    0  0.36250921438E+03  0.19195109389E+03  0.68692048316E+02  0.41590473724E+03  0.00000000000E+00 0.  1.
          4    1    6    6  503    0 -0.23992090599E+02 -0.19609823181E+02  0.39267712798E+02  0.50021183961E+02  0.00000000000E+00 0. -1.
         -4    1    6    6    0  503 -0.31774707120E+03 -0.11931679378E+03  0.78778648388E+02  0.34843331353E+03  0.00000000000E+00 0.  1.
<mgrwt>
<rscale>  0 0.13122414E+04</rscale>
<asrwt>0</asrwt>
<pdfrwt beam="1">  1        1 0.10520586E+00 0.13122414E+04</pdfrwt>
<pdfrwt beam="2">  1       -2 0.96850263E-01 0.13122414E+04</pdfrwt>
<totfact> 0.21613839E+01</totfact>
</mgrwt>
</event>
<event>
12    4  0.4413110E-008  0.1351087E+04  0.7818608E-02  0.8990006E-01
         -2   -1    0    0    0  501 -0.00000000000E+00  0.00000000000E+00  0.17496112794E+04  0.17496112794E+04  0.00000000000E+00 0.  1.
          1   -1    0    0  501    0  0.00000000000E+00 -0.00000000000E+00 -0.26083450276E+03  0.26083450276E+03  0.00000000000E+00 0. -1.
        -24    2    1    2    0    0 -0.93663631178E+02  0.24271576380E+03  0.73606644867E+03  0.78491612606E+03  0.81336893735E+02 0.  0.
        254    2    1    2    0    0  0.93663631178E+02 -0.24271576380E+03  0.75271032799E+03  0.12255296561E+04  0.93148606130E+03 0.  0.
         23    2    4    4    0    0  0.62062812107E+02 -0.37231564491E+02 -0.20785509937E+03  0.23860204375E+03  0.92136913918E+02 0.  0.
         23    2    4    4    0    0  0.31600819072E+02 -0.20548419931E+03  0.96056542737E+03  0.98692761238E+03  0.90098856253E+02 0.  0.
          3    1    3    3  502    0 -0.90863213535E+02  0.18524253307E+03  0.48003585839E+03  0.52249913394E+03  0.00000000000E+00 0. -1.
         -4    1    3    3    0  502 -0.28004176431E+01  0.57473230726E+02  0.25603059028E+03  0.26241699211E+03  0.00000000000E+00 0.  1.
         11    1    5    5    0    0  0.39725380328E+02  0.52251729935E+01 -0.17719180631E+03  0.18166547415E+03  0.00000000000E+00 0. -1.
        -11    1    5    5    0    0  0.22337431778E+02 -0.42456737485E+02 -0.30663293058E+02  0.56936569597E+02  0.00000000000E+00 0.  1.
          2    1    6    6  503    0  0.16869775367E+02 -0.20075234852E+03  0.77633826284E+03  0.80205186435E+03  0.00000000000E+00 0. -1.
         -2    1    6    6    0  503  0.14731043704E+02 -0.47318507834E+01  0.18422716453E+03  0.18487574803E+03  0.00000000000E+00 0.  1.
<mgrwt>
<rscale>  0 0.13510870E+04</rscale>
<asrwt>0</asrwt>
<pdfrwt beam="1">  1        1 0.40128386E-01 0.13510870E+04</pdfrwt>
<pdfrwt beam="2">  1       -2 0.26917096E+00 0.13510870E+04</pdfrwt>
<totfact> 0.44194952E+00</totfact>
</mgrwt>
</event>
<event>
12    4  0.4413110E-008  0.2744067E+04  0.7818608E-02  0.8320847E-01
          1   -1    0    0  501    0  0.00000000000E+00  0.00000000000E+00  0.18768949164E+04  0.18768949164E+04  0.00000000000E+00 0. -1.
         -2   -1    0    0    0  501 -0.00000000000E+00 -0.00000000000E+00 -0.10029733136E+04  0.10029733136E+04  0.00000000000E+00 0.  1.
        -24    2    1    2    0    0  0.94807703413E+03 -0.23832682299E+03 -0.38613153609E+03  0.10540165883E+04  0.78763368115E+02 0.  0.
        254    2    1    2    0    0 -0.94807703413E+03  0.23832682299E+03  0.12600531390E+04  0.18258516416E+04  0.88901662925E+03 0.  0.
         23    2    4    4    0    0 -0.90365204079E+03  0.21409386127E+03  0.13792730265E+04  0.16655454427E+04  0.96043467382E+02 0.  0.
         23    2    4    4    0    0 -0.44424993335E+02  0.24232961718E+02 -0.11921988754E+03  0.16030619899E+03  0.94466287019E+02 0.  0.
          1    1    3    3  502    0  0.36604792471E+03 -0.13164845732E+03 -0.15033364254E+03  0.41704029011E+03  0.00000000000E+00 0. -1.
         -2    1    3    3    0  502  0.58202910942E+03 -0.10667836567E+03 -0.23579789355E+03  0.63697629824E+03  0.00000000000E+00 0.  1.
         11    1    5    5    0    0 -0.82775053398E+03  0.16784462372E+03  0.12563122140E+04  0.15138240133E+04  0.00000000000E+00 0. -1.
        -11    1    5    5    0    0 -0.75901506816E+02  0.46249237553E+02  0.12296081252E+03  0.15172142936E+03  0.00000000000E+00 0.  1.
          2    1    6    6  503    0 -0.54108592933E+02  0.45272701870E+02 -0.11753557635E+03  0.13708380310E+03  0.00000000000E+00 0. -1.
         -2    1    6    6    0  503  0.96835995976E+01 -0.21039740152E+02 -0.16843111913E+01  0.23222395893E+02  0.00000000000E+00 0.  1.
<mgrwt>
<rscale>  0 0.27440667E+04</rscale>
<asrwt>0</asrwt>
<pdfrwt beam="1">  1        1 0.28875306E+00 0.27440667E+04</pdfrwt>
<pdfrwt beam="2">  1       -2 0.15430359E+00 0.27440667E+04</pdfrwt>
<totfact> 0.76730014E-01</totfact>
</mgrwt>
</event>
<event>
12    4  0.4413110E-008  0.1185391E+04  0.7818608E-02  0.9125740E-01
         -2   -1    0    0    0  501 -0.00000000000E+00  0.00000000000E+00  0.52908092310E+03  0.52908092310E+03  0.00000000000E+00 0.  1.
          1   -1    0    0  501    0  0.00000000000E+00 -0.00000000000E+00 -0.66395927634E+03  0.66395927634E+03  0.00000000000E+00 0. -1.
        -24    2    1    2    0    0 -0.21900148831E+03  0.90954236397E+02 -0.87962557507E+01  0.25001756003E+03  0.78721542217E+02 0.  0.
        254    2    1    2    0    0  0.21900148831E+03 -0.90954236397E+02 -0.12608209749E+03  0.94302263942E+03  0.90396940111E+03 0.  0.
         23    2    4    4    0    0 -0.11301643833E+03  0.28225613411E+03 -0.26777867307E+03  0.41580735690E+03  0.93536622368E+02 0.  0.
         23    2    4    4    0    0  0.33201792663E+03 -0.37321037050E+03  0.14169657559E+03  0.52721528252E+03  0.91411981334E+02 0.  0.
          3    1    3    3  502    0 -0.13256278952E+03  0.44361166708E+02 -0.42648650130E+02  0.14614962756E+03  0.00000000000E+00 0. -1.
         -4    1    3    3    0  502 -0.86438698783E+02  0.46593069689E+02  0.33852394380E+02  0.10386793247E+03  0.00000000000E+00 0.  1.
         11    1    5    5    0    0 -0.10989535184E+03  0.27910129238E+03 -0.23056894183E+03  0.37833392222E+03  0.00000000000E+00 0. -1.
        -11    1    5    5    0    0 -0.31210864821E+01  0.31548417221E+01 -0.37209731243E+02  0.37473434674E+02  0.00000000000E+00 0.  1.
          3    1    6    6  503    0  0.20428425895E+03 -0.28453759211E+03  0.11974049293E+03  0.37017764036E+03  0.00000000000E+00 0. -1.
         -3    1    6    6    0  503  0.12773366769E+03 -0.88672778395E+02  0.21956082659E+02  0.15703764216E+03  0.00000000000E+00 0.  1.
<mgrwt>
<rscale>  0 0.11853914E+04</rscale>
<asrwt>0</asrwt>
<pdfrwt beam="1">  1        1 0.10214758E+00 0.11853914E+04</pdfrwt>
<pdfrwt beam="2">  1       -2 0.81397065E-01 0.11853914E+04</pdfrwt>
<totfact> 0.34035897E+01</totfact>
</mgrwt>
</event>
<event>
12    4  0.4413110E-008  0.1243500E+04  0.7818608E-02  0.9075611E-01
          1   -1    0    0  501    0  0.00000000000E+00  0.00000000000E+00  0.71787596350E+03  0.71787596350E+03  0.00000000000E+00 0. -1.
         -2   -1    0    0    0  501 -0.00000000000E+00 -0.00000000000E+00 -0.53849548949E+03  0.53849548949E+03  0.00000000000E+00 0.  1.
        -24    2    1    2    0    0  0.11334188300E+03  0.22169383359E+03 -0.73638282623E+02  0.27382606856E+03  0.86968849967E+02 0.  0.
        254    2    1    2    0    0 -0.11334188300E+03 -0.22169383359E+03  0.25301875663E+03  0.98254538443E+03  0.91617815023E+03 0.  0.
         23    2    4    4    0    0  0.72841461673E+02 -0.53214264540E+03  0.25046400450E+02  0.54510012574E+03  0.89583208897E+02 0.  0.
         23    2    4    4    0    0 -0.18618334467E+03  0.31044881182E+03  0.22797235618E+03  0.43744525869E+03  0.91346902368E+02 0.  0.
          1    1    3    3  502    0 -0.25931027145E+01  0.53622892632E+01 -0.22291680929E+02  0.23073737592E+02  0.00000000000E+00 0. -1.
         -2    1    3    3    0  502  0.11593498571E+03  0.21633154432E+03 -0.51346601695E+02  0.25075233097E+03  0.00000000000E+00 0.  1.
         11    1    5    5    0    0 -0.18706362862E+02 -0.71140835638E+02  0.14519106005E+02  0.74978336511E+02  0.00000000000E+00 0.  1.
        -11    1    5    5    0    0  0.91547824535E+02 -0.46100180976E+03  0.10527294445E+02  0.47012178923E+03  0.00000000000E+00 0. -1.
          3    1    6    6  503    0 -0.11129890985E+03  0.22770453357E+03  0.19874864313E+03  0.32208356849E+03  0.00000000000E+00 0. -1.
         -3    1    6    6    0  503 -0.74884434823E+02  0.82744278248E+02  0.29223713050E+02  0.11536169020E+03  0.00000000000E+00 0.  1.
<mgrwt>
<rscale>  0 0.12434998E+04</rscale>
<asrwt>0</asrwt>
<pdfrwt beam="1">  1        1 0.11044246E+00 0.12434998E+04</pdfrwt>
<pdfrwt beam="2">  1       -2 0.82845459E-01 0.12434998E+04</pdfrwt>
<totfact> 0.28937566E+01</totfact>
</mgrwt>
</event>
<event>
12    4  0.4413110E-008  0.2039815E+04  0.7818608E-02  0.8588229E-01
         -2   -1    0    0    0  501 -0.00000000000E+00  0.00000000000E+00  0.90794659971E+03  0.90794659971E+03  0.00000000000E+00 0.  1.
          1   -1    0    0  501    0  0.00000000000E+00 -0.00000000000E+00 -0.11456746906E+04  0.11456746906E+04  0.00000000000E+00 0. -1.
        -24    2    1    2    0    0  0.74223409771E+03 -0.16310140065E+03 -0.37743600894E+03  0.85215832095E+03  0.78754939109E+02 0.  0.
        254    2    1    2    0    0 -0.74223409771E+03  0.16310140065E+03  0.13970791801E+03  0.12014629694E+04  0.92004426079E+03 0.  0.
         23    2    4    4    0    0  0.12080306028E+03 -0.50835457391E+02  0.25443753939E+03  0.30024368542E+03  0.90720373027E+02 0.  0.
         23    2    4    4    0    0 -0.86303715799E+03  0.21393685804E+03 -0.11472962138E+03  0.90121928399E+03  0.91821547101E+02 0.  0.
          3    1    3    3  502    0  0.28919021394E+02  0.87214754133E+01 -0.12415803633E+02  0.32657711365E+02  0.00000000000E+00 0. -1.
         -4    1    3    3    0  502  0.71331507631E+03 -0.17182287607E+03 -0.36502020531E+03  0.81950060959E+03  0.00000000000E+00 0.  1.
         11    1    5    5    0    0 -0.11304652101E+01 -0.24216789356E+02  0.93456483469E+02  0.96549702955E+02  0.00000000000E+00 0. -1.
        -11    1    5    5    0    0  0.12193352549E+03 -0.26618668036E+02  0.16098105592E+03  0.20369398246E+03  0.00000000000E+00 0.  1.
          1    1    6    6  503    0 -0.53890388108E+03  0.17107846967E+03 -0.97998300838E+02  0.57383700020E+03  0.00000000000E+00 0. -1.
         -1    1    6    6    0  503 -0.32413327691E+03  0.42858388372E+02 -0.16731320545E+02  0.32738228379E+03  0.00000000000E+00 0.  1.
<mgrwt>
<rscale>  0 0.20398151E+04</rscale>
<asrwt>0</asrwt>
<pdfrwt beam="1">  1        1 0.17625764E+00 0.20398151E+04</pdfrwt>
<pdfrwt beam="2">  1       -2 0.13968409E+00 0.20398151E+04</pdfrwt>
<totfact> 0.34327801E+00</totfact>
</mgrwt>
</event>
<event>
12    4  0.4413110E-008  0.1416279E+04  0.7818608E-02  0.8942118E-01
         -2   -1    0    0    0  501 -0.00000000000E+00  0.00000000000E+00  0.88476046571E+03  0.88476046571E+03  0.00000000000E+00 0.  1.
          1   -1    0    0  501    0  0.00000000000E+00 -0.00000000000E+00 -0.56677679463E+03  0.56677679463E+03  0.00000000000E+00 0. -1.
        -24    2    1    2    0    0  0.98667939411E+02 -0.97362686745E+02  0.50075890288E+03  0.52571210251E+03  0.79993005160E+02 0.  0.
        254    2    1    2    0    0 -0.98667939411E+02  0.97362686745E+02 -0.18277523180E+03  0.92582515782E+03  0.89695628793E+03 0.  0.
         23    2    4    4    0    0  0.17532330172E+03  0.36650148912E+02 -0.47172648014E+03  0.51290986373E+03  0.92028053901E+02 0.  0.
         23    2    4    4    0    0 -0.27399124114E+03  0.60712537833E+02  0.28895124834E+03  0.41291529409E+03  0.90824026082E+02 0.  0.
          3    1    3    3  502    0  0.37191555244E+02 -0.19689359449E+02  0.55964250854E+02  0.70020568625E+02  0.00000000000E+00 0. -1.
         -4    1    3    3    0  502  0.61476384168E+02 -0.77673327295E+02  0.44479465203E+03  0.45569153389E+03  0.00000000000E+00 0.  1.
         11    1    5    5    0    0  0.68246366196E+02  0.60482957056E+02 -0.23193371987E+03  0.24921678315E+03  0.00000000000E+00 0.  1.
        -11    1    5    5    0    0  0.10707693553E+03 -0.23832808144E+02 -0.23979276027E+03  0.26369308058E+03  0.00000000000E+00 0. -1.
          1    1    6    6  503    0 -0.17118143219E+03  0.79501180881E+02  0.20678874281E+03  0.27997339988E+03  0.00000000000E+00 0. -1.
         -1    1    6    6    0  503 -0.10280980894E+03 -0.18788643049E+02  0.82162505530E+02  0.13294189422E+03  0.00000000000E+00 0.  1.
<mgrwt>
<rscale>  0 0.14162792E+04</rscale>
<asrwt>0</asrwt>
<pdfrwt beam="1">  1        1 0.87196430E-01 0.14162792E+04</pdfrwt>
<pdfrwt beam="2">  1       -2 0.13611700E+00 0.14162792E+04</pdfrwt>
<totfact> 0.12226143E+01</totfact>
</mgrwt>
</event>
<event>
12    4  0.4413110E-008  0.1883162E+04  0.7818608E-02  0.8663283E-01
         -2   -1    0    0    0  501 -0.00000000000E+00  0.00000000000E+00  0.25023186818E+03  0.25023186818E+03  0.00000000000E+00 0.  1.
          1   -1    0    0  501    0  0.00000000000E+00 -0.00000000000E+00 -0.35430138401E+04  0.35430138401E+04  0.00000000000E+00 0. -1.
        -24    2    1    2    0    0  0.35101508631E+03 -0.12443796987E+03 -0.25323995168E+04  0.25608598505E+04  0.79116760531E+02 0.  0.
        254    2    1    2    0    0 -0.35101508631E+03  0.12443796987E+03 -0.76038245508E+03  0.12323858578E+04  0.89548703246E+03 0.  0.
         23    2    4    4    0    0 -0.54412977362E+03  0.22680082809E+03 -0.20852170333E+03  0.63194977180E+03  0.91451556272E+02 0.  0.
         23    2    4    4    0    0  0.19311468731E+03 -0.10236285822E+03 -0.55186075175E+03  0.60043608599E+03  0.90563606609E+02 0.  0.
          1    1    3    3  502    0  0.32458031919E+03 -0.89137024476E+02 -0.22282993411E+04  0.22535784314E+04  0.00000000000E+00 0. -1.
         -2    1    3    3    0  502  0.26434767122E+02 -0.35300945391E+02 -0.30410017569E+03  0.30728141909E+03  0.00000000000E+00 0.  1.
         11    1    5    5    0    0 -0.41975081736E+03  0.19775968247E+03 -0.12942070374E+03  0.48171501870E+03  0.00000000000E+00 0. -1.
        -11    1    5    5    0    0 -0.12437895627E+03  0.29041145615E+02 -0.79100999597E+02  0.15023475309E+03  0.00000000000E+00 0.  1.
          3    1    6    6  503    0  0.18376694016E+03 -0.11752700248E+03 -0.52065507194E+03  0.56450384281E+03  0.00000000000E+00 0. -1.
         -3    1    6    6    0  503  0.93477471558E+01  0.15164144259E+02 -0.31205679804E+02  0.35932243182E+02  0.00000000000E+00 0.  1.
<mgrwt>
<rscale>  0 0.18831622E+04</rscale>
<asrwt>0</asrwt>
<pdfrwt beam="1">  1        1 0.54507903E+00 0.18831622E+04</pdfrwt>
<pdfrwt beam="2">  1       -2 0.38497212E-01 0.18831622E+04</pdfrwt>
<totfact> 0.12192367E+00</totfact>
</mgrwt>
</event>
<event>
12    4  0.4413110E-008  0.1299608E+04  0.7818608E-02  0.9029876E-01
          1   -1    0    0  501    0  0.00000000000E+00  0.00000000000E+00  0.14181263075E+04  0.14181263075E+04  0.00000000000E+00 0. -1.
         -2   -1    0    0    0  501 -0.00000000000E+00 -0.00000000000E+00 -0.29774875336E+03  0.29774875336E+03  0.00000000000E+00 0.  1.
        -24    2    1    2    0    0 -0.22366426561E+03 -0.22039925258E+03  0.26399994631E+03  0.41820115382E+03  0.81207753099E+02 0.  0.
        254    2    1    2    0    0  0.22366426561E+03  0.22039925258E+03  0.85637760782E+03  0.12976739070E+04  0.92302406661E+03 0.  0.
         23    2    4    4    0    0 -0.60183146946E+02  0.50846998533E+03  0.28861402005E+03  0.59447413353E+03  0.89093802906E+02 0.  0.
         23    2    4    4    0    0  0.28384741255E+03 -0.28807073275E+03  0.56776358777E+03  0.70319977349E+03  0.92630066099E+02 0.  0.
          3    1    3    3  502    0 -0.99053292729E+01 -0.85077326035E+01  0.42606251908E+02  0.44562201065E+02  0.00000000000E+00 0. -1.
         -4    1    3    3    0  502 -0.21375893633E+03 -0.21189151997E+03  0.22139369440E+03  0.37363895276E+03  0.00000000000E+00 0.  1.
         11    1    5    5    0    0  0.16279858810E+02  0.14406617960E+03  0.10707324790E+03  0.18023534150E+03  0.00000000000E+00 0. -1.
        -11    1    5    5    0    0 -0.76463005755E+02  0.36440380573E+03  0.18154077214E+03  0.41423879204E+03  0.00000000000E+00 0.  1.
          3    1    6    6  503    0  0.69732815830E+02 -0.79712926594E+02  0.86504608382E+02  0.13674744437E+03  0.00000000000E+00 0. -1.
         -3    1    6    6    0  503  0.21411459672E+03 -0.20835780616E+03  0.48125897939E+03  0.56645232912E+03  0.00000000000E+00 0.  1.
<mgrwt>
<rscale>  0 0.12996082E+04</rscale>
<asrwt>0</asrwt>
<pdfrwt beam="1">  1        1 0.21817327E+00 0.12996082E+04</pdfrwt>
<pdfrwt beam="2">  1       -2 0.45807501E-01 0.12996082E+04</pdfrwt>
<totfact> 0.29061839E+01</totfact>
</mgrwt>
</event>
<event>
12    4  0.6778184E-008  0.1224655E+04  0.7818608E-02  0.9091546E-01
          1   -1    0    0  501    0  0.00000000000E+00  0.00000000000E+00  0.90472650257E+03  0.90472650257E+03  0.00000000000E+00 0. -1.
         -2   -1    0    0    0  501 -0.00000000000E+00 -0.00000000000E+00 -0.41442892666E+03  0.41442892666E+03  0.00000000000E+00 0.  1.
        -24    2    1    2    0    0  0.22096889322E+03 -0.14921846423E+03  0.11975496875E+03  0.30927022018E+03  0.10106144029E+03 0.  0.
        254    2    1    2    0    0 -0.22096889322E+03  0.14921846423E+03  0.37054260716E+03  0.10098852091E+04  0.90081791163E+03 0.  0.
         23    2    4    4    0    0 -0.84274405115E+02 -0.53927539129E+02  0.62809052354E+03  0.64286260369E+03  0.93617661959E+02 0.  0.
         23    2    4    4    0    0 -0.13669448810E+03  0.20314600336E+03 -0.25754791637E+03  0.36702260537E+03  0.91765907986E+02 0.  0.
          1    1    3    3  502    0  0.20288432748E+03 -0.12660667302E+03  0.13696090463E+03  0.27558953062E+03  0.00000000000E+00 0. -1.
         -2    1    3    3    0  502  0.18084565733E+02 -0.22611791208E+02 -0.17205935882E+02  0.33680689556E+02  0.00000000000E+00 0.  1.
         11    1    5    5    0    0 -0.92728730176E+02 -0.52564050316E+02  0.62457555487E+03  0.63360572955E+03  0.00000000000E+00 0. -1.
        -11    1    5    5    0    0  0.84543250613E+01 -0.13634888132E+01  0.35149686682E+01  0.92568741336E+01  0.00000000000E+00 0.  1.
          4    1    6    6  503    0 -0.13966536288E+03  0.18856984073E+03 -0.26177747070E+03  0.35155716831E+03  0.00000000000E+00 0. -1.
         -4    1    6    6    0  503  0.29708747804E+01  0.14576162627E+02  0.42295543241E+01  0.15465437067E+02  0.00000000000E+00 0.  1.
<mgrwt>
<rscale>  0 0.12246548E+04</rscale>
<asrwt>0</asrwt>
<pdfrwt beam="1">  1        1 0.13918869E+00 0.12246548E+04</pdfrwt>
<pdfrwt beam="2">  1       -2 0.63758296E-01 0.12246548E+04</pdfrwt>
<totfact> 0.35539936E+01</totfact>
</mgrwt>
</event>
<event>
12    4  0.4413110E-008  0.1407166E+04  0.7818608E-02  0.8948647E-01
         -2   -1    0    0    0  501 -0.00000000000E+00  0.00000000000E+00  0.37736228231E+03  0.37736228231E+03  0.00000000000E+00 0.  1.
          1   -1    0    0  501    0  0.00000000000E+00 -0.00000000000E+00 -0.13118144791E+04  0.13118144791E+04  0.00000000000E+00 0. -1.
        -24    2    1    2    0    0  0.36050968309E+03  0.18543858926E+03 -0.21534106153E+03  0.46587108480E+03  0.79431686943E+02 0.  0.
        254    2    1    2    0    0 -0.36050968309E+03 -0.18543858926E+03 -0.71911113527E+03  0.12233056766E+04  0.90277419745E+03 0.  0.
         23    2    4    4    0    0 -0.42101637986E+03 -0.49073468367E+03 -0.57019000623E+03  0.86663245449E+03  0.88655773116E+02 0.  0.
         23    2    4    4    0    0  0.60506696771E+02  0.30529609441E+03 -0.14892112905E+03  0.35667322213E+03  0.90396455107E+02 0.  0.
          3    1    3    3  502    0  0.54056680931E+02  0.25521197177E+02 -0.22953294728E+01  0.59822443915E+02  0.00000000000E+00 0. -1.
         -2    1    3    3    0  502  0.30645300216E+03  0.15991739209E+03 -0.21304573205E+03  0.40604864089E+03  0.00000000000E+00 0.  1.
         11    1    5    5    0    0 -0.93766335832E+02 -0.12722750889E+03 -0.18997102901E+03  0.24711931656E+03  0.00000000000E+00 0.  1.
        -11    1    5    5    0    0 -0.32725004403E+03 -0.36350717477E+03 -0.38021897722E+03  0.61951313793E+03  0.00000000000E+00 0. -1.
          1    1    6    6  503    0  0.41905792661E+02  0.18375973390E+03 -0.13727810823E+03  0.23317164120E+03  0.00000000000E+00 0. -1.
         -1    1    6    6    0  503  0.18600904110E+02  0.12153636051E+03 -0.11643020818E+02  0.12350158093E+03  0.00000000000E+00 0.  1.
<mgrwt>
<rscale>  0 0.14071664E+04</rscale>
<asrwt>0</asrwt>
<pdfrwt beam="1">  1        1 0.20181761E+00 0.14071664E+04</pdfrwt>
<pdfrwt beam="2">  1       -2 0.58055735E-01 0.14071664E+04</pdfrwt>
<totfact> 0.21054692E+01</totfact>
</mgrwt>
</event>
<event>
12    4  0.4413110E-008  0.1109353E+04  0.7818608E-02  0.9196124E-01
         -2   -1    0    0    0  501 -0.00000000000E+00  0.00000000000E+00  0.44314437953E+03  0.44314437953E+03  0.00000000000E+00 0.  1.
          1   -1    0    0  501    0  0.00000000000E+00 -0.00000000000E+00 -0.69427923623E+03  0.69427923623E+03  0.00000000000E+00 0. -1.
        -24    2    1    2    0    0 -0.23127260626E+03  0.96244303751E+01 -0.27552343680E+02  0.24610228078E+03  0.78914845835E+02 0.  0.
        254    2    1    2    0    0  0.23127260626E+03 -0.96244303751E+01 -0.22358251302E+03  0.89132133498E+03  0.83119488328E+03 0.  0.
         23    2    4    4    0    0 -0.29295212281E+03 -0.96104461456E+02 -0.63448337054E+02  0.32908062175E+03  0.95975780094E+02 0.  0.
         23    2    4    4    0    0  0.52422472907E+03  0.86480031081E+02 -0.16013417597E+03  0.56224071323E+03  0.90450555284E+02 0.  0.
          3    1    3    3  502    0 -0.70025411330E+02  0.26470995823E+02 -0.37389190746E+02  0.83679289172E+02  0.00000000000E+00 0. -1.
         -4    1    3    3    0  502 -0.16124719493E+03 -0.16846565448E+02  0.98368470663E+01  0.16242299160E+03  0.00000000000E+00 0.  1.
         11    1    5    5    0    0 -0.15913216032E+03 -0.73543531606E+02  0.84396977868E+01  0.17550761804E+03  0.00000000000E+00 0. -1.
        -11    1    5    5    0    0 -0.13381996249E+03 -0.22560929850E+02 -0.71888034841E+02  0.15357300371E+03  0.00000000000E+00 0.  1.
          3    1    6    6  503    0  0.20717943409E+03  0.28665321140E+02 -0.10927425760E+03  0.23597856242E+03  0.00000000000E+00 0. -1.
         -3    1    6    6    0  503  0.31704529498E+03  0.57814709941E+02 -0.50859918369E+02  0.32626215081E+03  0.00000000000E+00 0.  1.
<mgrwt>
<rscale>  0 0.11093529E+04</rscale>
<asrwt>0</asrwt>
<pdfrwt beam="1">  1        1 0.10681219E+00 0.11093529E+04</pdfrwt>
<pdfrwt beam="2">  1       -2 0.68176059E-01 0.11093529E+04</pdfrwt>
<totfact> 0.47390265E+01</totfact>
</mgrwt>
</event>
<event>
12    4  0.4413110E-008  0.1214227E+04  0.7818608E-02  0.9100494E-01
         -2   -1    0    0    0  501 -0.00000000000E+00  0.00000000000E+00  0.88377164266E+03  0.88377164266E+03  0.00000000000E+00 0.  1.
          1   -1    0    0  501    0  0.00000000000E+00 -0.00000000000E+00 -0.41706088673E+03  0.41706088673E+03  0.00000000000E+00 0. -1.
        -24    2    1    2    0    0 -0.12425743656E+03  0.21369290651E+03  0.11091703426E+02  0.26017025419E+03  0.80380137126E+02 0.  0.
        254    2    1    2    0    0  0.12425743656E+03 -0.21369290651E+03  0.45561905250E+03  0.10406622752E+04  0.90237723886E+03 0.  0.
         23    2    4    4    0    0  0.49983516394E+03 -0.11174786233E+03  0.34863563431E+03  0.62674212102E+03  0.94530973307E+02 0.  0.
         23    2    4    4    0    0 -0.37557772738E+03 -0.10194504419E+03  0.10698341820E+03  0.41392015419E+03  0.91831481197E+02 0.  0.
          1    1    3    3  502    0 -0.80170795750E+01  0.16552370641E+02  0.24830238076E+02  0.30899761515E+02  0.00000000000E+00 0. -1.
         -2    1    3    3    0  502 -0.11624035698E+03  0.19714053587E+03 -0.13738534650E+02  0.22927049267E+03  0.00000000000E+00 0.  1.
         11    1    5    5    0    0  0.44713600981E+03 -0.12829434051E+03  0.31910196211E+03  0.56410647160E+03  0.00000000000E+00 0. -1.
        -11    1    5    5    0    0  0.52699154122E+02  0.16546478178E+02  0.29533672197E+02  0.62635649424E+02  0.00000000000E+00 0.  1.
          4    1    6    6  503    0 -0.14775487428E+03  0.13293788156E+01  0.59632243843E+02  0.15934012247E+03  0.00000000000E+00 0. -1.
         -4    1    6    6    0  503 -0.22782285309E+03 -0.10327442300E+03  0.47351174356E+02  0.25458003172E+03  0.00000000000E+00 0.  1.
<mgrwt>
<rscale>  0 0.12142266E+04</rscale>
<asrwt>0</asrwt>
<pdfrwt beam="1">  1        1 0.64163213E-01 0.12142266E+04</pdfrwt>
<pdfrwt beam="2">  1       -2 0.13596487E+00 0.12142266E+04</pdfrwt>
<totfact> 0.18974229E+01</totfact>
</mgrwt>
</event>
<event>
12    4  0.4594233E-008  0.1927917E+04  0.7818608E-02  0.8641084E-01
          1   -1    0    0  501    0  0.00000000000E+00  0.00000000000E+00  0.15180146410E+04  0.15180146410E+04  0.00000000000E+00 0. -1.
         -2   -1    0    0    0  501 -0.00000000000E+00 -0.00000000000E+00 -0.61212560784E+03  0.61212560784E+03  0.00000000000E+00 0.  1.
        -24    2    1    2    0    0  0.12511451697E+03  0.21415952152E+03 -0.42791101359E+03  0.50116877433E+03  0.80897229853E+02 0.  0.
        254    2    1    2    0    0 -0.12511451697E+03 -0.21415952152E+03  0.13338000467E+04  0.16289714745E+04  0.90166931690E+03 0.  0.
         23    2    4    4    0    0  0.11803589799E+03  0.14132519119E+03 -0.20694185020E+02  0.20483723119E+03  0.87319866642E+02 0.  0.
         23    2    4    4    0    0 -0.24315041496E+03 -0.35548471271E+03  0.13544942318E+04  0.14241342433E+04  0.89510970454E+02 0.  0.
          1    1    3    3  502    0  0.34579862176E+01  0.57263174195E+02 -0.59401762965E+02  0.82580858744E+02  0.00000000000E+00 0. -1.
         -2    1    3    3    0  502  0.12165653076E+03  0.15689634733E+03 -0.36850925062E+03  0.41858791558E+03  0.00000000000E+00 0.  1.
         11    1    5    5    0    0  0.98829441259E+02  0.72590601837E+02  0.17541633167E+02  0.12387236507E+03  0.00000000000E+00 0. -1.
        -11    1    5    5    0    0  0.19206456731E+02  0.68734589350E+02 -0.38235818186E+02  0.80964866119E+02  0.00000000000E+00 0.  1.
          3    1    6    6  503    0 -0.82679899005E+02 -0.95971236480E+02  0.28327669698E+03  0.31030973395E+03  0.00000000000E+00 0. -1.
         -3    1    6    6    0  503 -0.16047051596E+03 -0.25951347623E+03  0.10712175348E+04  0.11138245094E+04  0.00000000000E+00 0.  1.
<mgrwt>
<rscale>  0 0.19279166E+04</rscale>
<asrwt>0</asrwt>
<pdfrwt beam="1">  1        1 0.23354071E+00 0.19279166E+04</pdfrwt>
<pdfrwt beam="2">  1       -2 0.94173171E-01 0.19279166E+04</pdfrwt>
<totfact> 0.49533342E+00</totfact>
</mgrwt>
</event>
<event>
12    4  0.4413110E-008  0.1429359E+04  0.7818608E-02  0.8932837E-01
          1   -1    0    0  501    0  0.00000000000E+00  0.00000000000E+00  0.15158518912E+04  0.15158518912E+04  0.00000000000E+00 0. -1.
         -2   -1    0    0    0  501 -0.00000000000E+00 -0.00000000000E+00 -0.33695052353E+03  0.33695052353E+03  0.00000000000E+00 0.  1.
        -24    2    1    2    0    0 -0.45218237029E+02 -0.85803646717E+02  0.90861200829E+03  0.91719427904E+03  0.79136648556E+02 0.  0.
        254    2    1    2    0    0  0.45218237029E+02  0.85803646717E+02  0.27028935934E+03  0.93560813565E+03  0.89044892665E+03 0.  0.
         23    2    4    4    0    0 -0.49091715237E+02  0.39683273671E+03  0.40140691514E+03  0.57352234387E+03  0.88961508346E+02 0.  0.
         23    2    4    4    0    0  0.94309952267E+02 -0.31102908999E+03 -0.13111755580E+03  0.36208579178E+03  0.90999149722E+02 0.  0.
          1    1    3    3  502    0 -0.30778095613E+02 -0.48110754670E+02  0.78677043005E+03  0.78884069716E+03  0.00000000000E+00 0. -1.
         -2    1    3    3    0  502 -0.14440141416E+02 -0.37692892047E+02  0.12184157824E+03  0.12835358188E+03  0.00000000000E+00 0.  1.
         11    1    5    5    0    0 -0.47746169755E+02  0.12679175438E+03  0.17368961785E+03  0.22028147688E+03  0.00000000000E+00 0.  1.
        -11    1    5    5    0    0 -0.13455454824E+01  0.27004098234E+03  0.22771729729E+03  0.35324086700E+03  0.00000000000E+00 0. -1.
          3    1    6    6  503    0  0.51382744045E+01 -0.16332093477E+03 -0.46343509692E+02  0.16984654982E+03  0.00000000000E+00 0. -1.
         -3    1    6    6    0  503  0.89171677862E+02 -0.14770815523E+03 -0.84774046112E+02  0.19223924196E+03  0.00000000000E+00 0.  1.
<mgrwt>
<rscale>  0 0.14293594E+04</rscale>
<asrwt>0</asrwt>
<pdfrwt beam="1">  1        1 0.23320798E+00 0.14293594E+04</pdfrwt>
<pdfrwt beam="2">  1       -2 0.51838543E-01 0.14293594E+04</pdfrwt>
<totfact> 0.19133005E+01</totfact>
</mgrwt>
</event>
<event>
12    4  0.6040418E-008  0.1776332E+04  0.7818608E-02  0.8718988E-01
          1   -1    0    0  501    0  0.00000000000E+00  0.00000000000E+00  0.21357401097E+04  0.21357401097E+04  0.00000000000E+00 0. -1.
         -2   -1    0    0    0  501 -0.00000000000E+00 -0.00000000000E+00 -0.36935144701E+03  0.36935144701E+03  0.00000000000E+00 0.  1.
        -24    2    1    2    0    0  0.37141829687E+03 -0.41077217077E+03  0.11584036976E+04  0.12863542737E+04  0.78248727314E+02 0.  0.
        254    2    1    2    0    0 -0.37141829687E+03  0.41077217077E+03  0.60798496506E+03  0.12187372830E+04  0.89943844684E+03 0.  0.
         23    2    4    4    0    0  0.26335274564E+03  0.28905593634E+03  0.19502867968E+03  0.44644493792E+03  0.91481657870E+02 0.  0.
         23    2    4    4    0    0 -0.63477104251E+03  0.12171623444E+03  0.41295628538E+03  0.77229234506E+03  0.90296480895E+02 0.  0.
          1    1    3    3  502    0  0.21006818372E+03 -0.24383876502E+03  0.58417432992E+03  0.66696749012E+03  0.00000000000E+00 0. -1.
         -2    1    3    3    0  502  0.16135011315E+03 -0.16693340575E+03  0.57422936771E+03  0.61938678361E+03  0.00000000000E+00 0.  1.
         11    1    5    5    0    0  0.26409921790E+03  0.28691594343E+03  0.20195830521E+03  0.43915408746E+03  0.00000000000E+00 0. -1.
        -11    1    5    5    0    0 -0.74647225719E+00  0.21399929085E+01 -0.69296255283E+01  0.72908504608E+01  0.00000000000E+00 0.  1.
          1    1    6    6  503    0 -0.60889080027E+03  0.97535019384E+02  0.39736149175E+03  0.73359201317E+03  0.00000000000E+00 0. -1.
         -1    1    6    6    0  503 -0.25880242242E+02  0.24181215053E+02  0.15594793632E+02  0.38700331890E+02  0.00000000000E+00 0.  1.
<mgrwt>
<rscale>  0 0.17763318E+04</rscale>
<asrwt>0</asrwt>
<pdfrwt beam="1">  1        1 0.32857540E+00 0.17763318E+04</pdfrwt>
<pdfrwt beam="2">  1       -2 0.56823301E-01 0.17763318E+04</pdfrwt>
<totfact> 0.58125278E+00</totfact>
</mgrwt>
</event>
<event>
12    4  0.4413110E-008  0.1506581E+04  0.7818608E-02  0.8880088E-01
          1   -1    0    0  501    0  0.00000000000E+00  0.00000000000E+00  0.28925383335E+04  0.28925383335E+04  0.00000000000E+00 0. -1.
         -2   -1    0    0    0  501 -0.00000000000E+00 -0.00000000000E+00 -0.19617604600E+03  0.19617604600E+03  0.00000000000E+00 0.  1.
        -24    2    1    2    0    0 -0.29107114562E+03  0.19620492418E+03  0.15397984839E+04  0.15814943997E+04  0.83224883383E+02 0.  0.
        254    2    1    2    0    0  0.29107114562E+03 -0.19620492418E+03  0.11565638036E+04  0.15072199798E+04  0.90047401495E+03 0.  0.
         23    2    4    4    0    0  0.18755362752E+03 -0.24329526826E+03  0.12777536589E+04  0.13173569582E+04  0.91684196602E+02 0.  0.
         23    2    4    4    0    0  0.10351751810E+03  0.47090344079E+02 -0.12118985526E+03  0.18986302156E+03  0.91802009128E+02 0.  0.
          3    1    3    3  502    0 -0.28989484305E+03  0.20266960567E+03  0.14987887414E+04  0.15399615840E+04  0.00000000000E+00 0. -1.
         -4    1    3    3    0  502 -0.11763025693E+01 -0.64646814883E+01  0.41009742552E+02  0.41532815684E+02  0.00000000000E+00 0.  1.
         11    1    5    5    0    0  0.76740868508E+02 -0.15997639077E+03  0.60576424929E+03  0.63121464830E+03  0.00000000000E+00 0.  1.
        -11    1    5    5    0    0  0.11081275901E+03 -0.83318877489E+02  0.67198940959E+03  0.68614230995E+03  0.00000000000E+00 0. -1.
          1    1    6    6  503    0  0.26543162504E+02  0.60035321659E+02 -0.38262195810E+02  0.75978779607E+02  0.00000000000E+00 0.  1.
         -1    1    6    6    0  503  0.76974355598E+02 -0.12944977580E+02 -0.82927659447E+02  0.11388424195E+03  0.00000000000E+00 0. -1.
<mgrwt>
<rscale>  0 0.15065812E+04</rscale>
<asrwt>0</asrwt>
<pdfrwt beam="1">  1        1 0.44500587E+00 0.15065812E+04</pdfrwt>
<pdfrwt beam="2">  1       -2 0.30180932E-01 0.15065812E+04</pdfrwt>
<totfact> 0.61902258E+00</totfact>
</mgrwt>
</event>
<event>
12    4  0.4413110E-008  0.1973483E+04  0.7818608E-02  0.8619119E-01
         -2   -1    0    0    0  501 -0.00000000000E+00  0.00000000000E+00  0.30483381523E+04  0.30483381523E+04  0.00000000000E+00 0.  1.
          1   -1    0    0  501    0  0.00000000000E+00 -0.00000000000E+00 -0.31940655198E+03  0.31940655198E+03  0.00000000000E+00 0. -1.
        -24    2    1    2    0    0  0.26780707517E+03 -0.43516579890E+03  0.20809785405E+04  0.21442795021E+04  0.79831039893E+02 0.  0.
        254    2    1    2    0    0 -0.26780707517E+03  0.43516579890E+03  0.64795305980E+03  0.12234652022E+04  0.90329066819E+03 0.  0.
         23    2    4    4    0    0 -0.27177596331E+03  0.26749973827E+03 -0.13777377535E+03  0.41447593008E+03  0.85967431246E+02 0.  0.
         23    2    4    4    0    0  0.39688881340E+01  0.16766606062E+03  0.78572683514E+03  0.80898927211E+03  0.94706509673E+02 0.  0.
          1    1    3    3  502    0 -0.48725731042E-01 -0.31434410672E+02  0.16672659414E+03  0.16966402606E+03  0.00000000000E+00 0. -1.
         -2    1    3    3    0  502  0.26785580090E+03 -0.40373138823E+03  0.19142519464E+04  0.19746154760E+04  0.00000000000E+00 0.  1.
         11    1    5    5    0    0 -0.90480491284E+02  0.37312356389E+02 -0.36592063400E+02  0.10448880488E+03  0.00000000000E+00 0.  1.
        -11    1    5    5    0    0 -0.18129547202E+03  0.23018738189E+03 -0.10118171195E+03  0.30998712520E+03  0.00000000000E+00 0. -1.
          1    1    6    6  503    0  0.60989802359E+00  0.32257818339E+02  0.37753481590E+03  0.37891090778E+03  0.00000000000E+00 0. -1.
         -1    1    6    6    0  503  0.33589901104E+01  0.13540824228E+03  0.40819201924E+03  0.43007836433E+03  0.00000000000E+00 0.  1.
<mgrwt>
<rscale>  0 0.19734834E+04</rscale>
<asrwt>0</asrwt>
<pdfrwt beam="1">  1        1 0.49139472E-01 0.19734834E+04</pdfrwt>
<pdfrwt beam="2">  1       -2 0.46897508E+00 0.19734834E+04</pdfrwt>
<totfact> 0.17107204E-01</totfact>
</mgrwt>
</event>
<event>
12    4  0.4413110E-008  0.2402892E+04  0.7818608E-02  0.8438422E-01
         -2   -1    0    0    0  501 -0.00000000000E+00  0.00000000000E+00  0.15976120141E+04  0.15976120141E+04  0.00000000000E+00 0.  1.
          1   -1    0    0  501    0  0.00000000000E+00 -0.00000000000E+00 -0.90351896384E+03  0.90351896384E+03  0.00000000000E+00 0. -1.
        -24    2    1    2    0    0  0.56386200488E+03 -0.39100187909E+03  0.10992983913E+04  0.12983769445E+04  0.80640604111E+02 0.  0.
        254    2    1    2    0    0 -0.56386200488E+03  0.39100187909E+03 -0.40520534105E+03  0.12027540334E+04  0.90089015222E+03 0.  0.
         23    2    4    4    0    0  0.11525547088E+03  0.96364514823E+02 -0.41898958108E+03  0.45682303886E+03  0.10278655794E+03 0.  0.
         23    2    4    4    0    0 -0.67911747577E+03  0.29463736427E+03  0.13784240023E+02  0.74593099452E+03  0.90616339532E+02 0.  0.
          3    1    3    3  502    0  0.24348100152E+02 -0.28398774306E+02  0.34782733452E+02  0.51079926678E+02  0.00000000000E+00 0. -1.
         -4    1    3    3    0  502  0.53951390473E+03 -0.36260310478E+03  0.10645156578E+04  0.12472970179E+04  0.00000000000E+00 0.  1.
         11    1    5    5    0    0  0.11145308005E+03  0.10408903075E+03 -0.29094593852E+03  0.32849026548E+03  0.00000000000E+00 0. -1.
        -11    1    5    5    0    0  0.38023908354E+01 -0.77245159309E+01 -0.12804364256E+03  0.12833277338E+03  0.00000000000E+00 0.  1.
          1    1    6    6  503    0 -0.67551946960E+03  0.28390043732E+03  0.19976770330E+02  0.73302461314E+03  0.00000000000E+00 0. -1.
         -1    1    6    6    0  503 -0.35980061698E+01  0.10736926942E+02 -0.61925303061E+01  0.12906381373E+02  0.00000000000E+00 0.  1.
<mgrwt>
<rscale>  0 0.24028922E+04</rscale>
<asrwt>0</asrwt>
<pdfrwt beam="1">  1        1 0.13900292E+00 0.24028922E+04</pdfrwt>
<pdfrwt beam="2">  1       -2 0.24578646E+00 0.24028922E+04</pdfrwt>
<totfact> 0.96856641E-01</totfact>
</mgrwt>
</event>
<event>
12    4  0.4413110E-008  0.1588831E+04  0.7818608E-02  0.8827439E-01
          1   -1    0    0  501    0  0.00000000000E+00  0.00000000000E+00  0.43006302208E+03  0.43006302208E+03  0.00000000000E+00 0. -1.
         -2   -1    0    0    0  501 -0.00000000000E+00 -0.00000000000E+00 -0.14674493921E+04  0.14674493921E+04  0.00000000000E+00 0.  1.
        -24    2    1    2    0    0 -0.47904480285E+03 -0.85317022544E+02 -0.93054262948E+02  0.50153313834E+03  0.78188717350E+02 0.  0.
        254    2    1    2    0    0  0.47904480285E+03  0.85317022544E+02 -0.94433210710E+03  0.13959792759E+04  0.90566665650E+03 0.  0.
         23    2    4    4    0    0  0.63708159735E+03 -0.21040779310E+03 -0.68805002384E+03  0.96533918584E+03  0.91227777167E+02 0.  0.
         23    2    4    4    0    0 -0.15803679449E+03  0.29572481565E+03 -0.25628208326E+03  0.43064009004E+03  0.85683055196E+02 0.  0.
          1    1    3    3  502    0 -0.92882632487E+02 -0.26203790235E+02 -0.49470940827E+02  0.10844904807E+03  0.00000000000E+00 0. -1.
         -2    1    3    3    0  502 -0.38616217037E+03 -0.59113232309E+02 -0.43583322121E+02  0.39308409027E+03  0.00000000000E+00 0.  1.
         11    1    5    5    0    0 -0.22844393468E+01  0.24712633857E+00  0.54415505936E+00  0.23613215124E+01  0.00000000000E+00 0. -1.
        -11    1    5    5    0    0  0.63936603669E+03 -0.21065491944E+03 -0.68859417890E+03  0.96297786432E+03  0.00000000000E+00 0.  1.
          3    1    6    6  503    0 -0.77032918045E+01  0.75566382666E+02 -0.32670579697E+02  0.82686066974E+02  0.00000000000E+00 0. -1.
         -3    1    6    6    0  503 -0.15033350269E+03  0.22015843298E+03 -0.22361150356E+03  0.34795402307E+03  0.00000000000E+00 0.  1.
<mgrwt>
<rscale>  0 0.15888307E+04</rscale>
<asrwt>0</asrwt>
<pdfrwt beam="1">  1        1 0.66163541E-01 0.15888307E+04</pdfrwt>
<pdfrwt beam="2">  1       -2 0.22576145E+00 0.15888307E+04</pdfrwt>
<totfact> 0.41534016E+00</totfact>
</mgrwt>
</event>
<event>
12    4  0.4413110E-008  0.1325512E+04  0.7818608E-02  0.9009575E-01
         -4   -1    0    0    0  501 -0.00000000000E+00  0.00000000000E+00  0.45034271281E+03  0.45034271281E+03  0.00000000000E+00 0.  1.
          3   -1    0    0  501    0  0.00000000000E+00 -0.00000000000E+00 -0.97535769383E+03  0.97535769383E+03  0.00000000000E+00 0. -1.
        -24    2    1    2    0    0 -0.41750934387E+02  0.28335416607E+03 -0.36667914769E+03  0.47468740456E+03  0.94030903158E+02 0.  0.
        254    2    1    2    0    0  0.41750934387E+02 -0.28335416607E+03 -0.15833583332E+03  0.95101300208E+03  0.89292931974E+03 0.  0.
         23    2    4    4    0    0 -0.31585922697E+03 -0.25849483415E+03 -0.34030206079E+03  0.53876713983E+03  0.88757579041E+02 0.  0.
         23    2    4    4    0    0  0.35761016136E+03 -0.24859331917E+02  0.18196622746E+03  0.41224586225E+03  0.91279401377E+02 0.  0.
          1    1    3    3  502    0 -0.67005923042E+02  0.14987367813E+03 -0.22351096095E+03  0.27732483262E+03  0.00000000000E+00 0. -1.
         -2    1    3    3    0  502  0.25254988655E+02  0.13348048793E+03 -0.14316818674E+03  0.19736257194E+03  0.00000000000E+00 0.  1.
         11    1    5    5    0    0 -0.11432718647E+03 -0.80122312643E+02 -0.65785631635E+02  0.15433094271E+03  0.00000000000E+00 0. -1.
        -11    1    5    5    0    0 -0.20153204050E+03 -0.17837252151E+03 -0.27451642915E+03  0.38443619712E+03  0.00000000000E+00 0.  1.
          4    1    6    6  503    0  0.82425115973E+02  0.19082401774E+01  0.22333807767E+01  0.82477446089E+02  0.00000000000E+00 0. -1.
         -4    1    6    6    0  503  0.27518504539E+03 -0.26767572094E+02  0.17973284669E+03  0.32976841616E+03  0.00000000000E+00 0.  1.
<mgrwt>
<rscale>  0 0.13255116E+04</rscale>
<asrwt>0</asrwt>
<pdfrwt beam="1">  1        3 0.15005503E+00 0.13255116E+04</pdfrwt>
<pdfrwt beam="2">  1       -4 0.69283495E-01 0.13255116E+04</pdfrwt>
<totfact> 0.13873249E+00</totfact>
</mgrwt>
</event>
<event>
12    4  0.4413110E-008  0.1167151E+04  0.7818608E-02  0.9142105E-01
          1   -1    0    0  501    0  0.00000000000E+00  0.00000000000E+00  0.13414502961E+04  0.13414502961E+04  0.00000000000E+00 0. -1.
         -2   -1    0    0    0  501 -0.00000000000E+00 -0.00000000000E+00 -0.25387484612E+03  0.25387484612E+03  0.00000000000E+00 0.  1.
        -24    2    1    2    0    0  0.70425146453E+02  0.99729155990E+02  0.47651196938E+03  0.49827655394E+03  0.79437153948E+02 0.  0.
        254    2    1    2    0    0 -0.70425146453E+02 -0.99729155990E+02  0.61106348063E+03  0.10970485883E+04  0.90289059246E+03 0.  0.
         23    2    4    4    0    0 -0.28552552332E+01 -0.43742187215E+03  0.58984382691E+03  0.73970219786E+03  0.88868186988E+02 0.  0.
         23    2    4    4    0    0 -0.67569891220E+02  0.33769271616E+03  0.21219653712E+02  0.35734639044E+03  0.92973696885E+02 0.  0.
          1    1    3    3  502    0  0.87978220404E+02  0.76893708494E+02  0.38449451471E+03  0.40185674252E+03  0.00000000000E+00 0. -1.
         -2    1    3    3    0  502 -0.17553073951E+02  0.22835447496E+02  0.92017454676E+02  0.96419811411E+02  0.00000000000E+00 0.  1.
         11    1    5    5    0    0  0.20919012000E+02 -0.36789321640E+02  0.83328883131E+02  0.93459948714E+02  0.00000000000E+00 0. -1.
        -11    1    5    5    0    0 -0.23774267233E+02 -0.40063255051E+03  0.50651494378E+03  0.64624224915E+03  0.00000000000E+00 0.  1.
          4    1    6    6  503    0  0.23443230719E+02  0.67368027681E+02  0.95170729032E-01  0.71330535380E+02  0.00000000000E+00 0. -1.
         -4    1    6    6    0  503 -0.91013121939E+02  0.27032468848E+03  0.21124482983E+02  0.28601585506E+03  0.00000000000E+00 0.  1.
<mgrwt>
<rscale>  0 0.11671512E+04</rscale>
<asrwt>0</asrwt>
<pdfrwt beam="1">  1        1 0.20637696E+00 0.11671512E+04</pdfrwt>
<pdfrwt beam="2">  1       -2 0.39057670E-01 0.11671512E+04</pdfrwt>
<totfact> 0.45557671E+01</totfact>
</mgrwt>
</event>
<event>
12    4  0.4413110E-008  0.1436452E+04  0.7818608E-02  0.8927847E-01
          1   -1    0    0  501    0  0.00000000000E+00  0.00000000000E+00  0.19760226524E+04  0.19760226524E+04  0.00000000000E+00 0. -1.
         -2   -1    0    0    0  501 -0.00000000000E+00 -0.00000000000E+00 -0.26105411939E+03  0.26105411939E+03  0.00000000000E+00 0.  1.
        -24    2    1    2    0    0  0.35264685700E+03  0.22434177403E+03  0.25273251484E+03  0.49648723439E+03  0.89088790127E+02 0.  0.
        254    2    1    2    0    0 -0.35264685700E+03 -0.22434177403E+03  0.14622360181E+04  0.17405895374E+04  0.84665738499E+03 0.  0.
         23    2    4    4    0    0 -0.37601267629E+03  0.23191607778E+03  0.50786045391E+03  0.67871896998E+03  0.86986204053E+02 0.  0.
         23    2    4    4    0    0  0.23365819286E+02 -0.45625785181E+03  0.95437556423E+03  0.10618705674E+04  0.89549960800E+02 0.  0.
          1    1    3    3  502    0  0.33327246125E+03  0.19426251499E+03  0.25186095347E+03  0.46069772958E+03  0.00000000000E+00 0. -1.
         -2    1    3    3    0  502  0.19374395751E+02  0.30079259045E+02  0.87156137103E+00  0.35789504811E+02  0.00000000000E+00 0.  1.
         11    1    5    5    0    0 -0.10063634611E+03  0.71157668498E+02  0.20348522485E+03  0.23790192239E+03  0.00000000000E+00 0. -1.
        -11    1    5    5    0    0 -0.27537633017E+03  0.16075840928E+03  0.30437522906E+03  0.44081704759E+03  0.00000000000E+00 0.  1.
          1    1    6    6  503    0 -0.29518779746E+02 -0.11383367952E+03  0.20664682083E+03  0.23776537492E+03  0.00000000000E+00 0. -1.
         -1    1    6    6    0  503  0.52884599032E+02 -0.34242417229E+03  0.74772874340E+03  0.82410519249E+03  0.00000000000E+00 0.  1.
<mgrwt>
<rscale>  0 0.14364524E+04</rscale>
<asrwt>0</asrwt>
<pdfrwt beam="1">  1        1 0.30400348E+00 0.14364524E+04</pdfrwt>
<pdfrwt beam="2">  1       -2 0.40162173E-01 0.14364524E+04</pdfrwt>
<totfact> 0.15505359E+01</totfact>
</mgrwt>
</event>
<event>
12    4  0.4413110E-008  0.2804425E+04  0.7818608E-02  0.8301896E-01
         -2   -1    0    0    0  501 -0.00000000000E+00  0.00000000000E+00  0.97162580910E+03  0.97162580910E+03  0.00000000000E+00 0.  1.
          1   -1    0    0  501    0  0.00000000000E+00 -0.00000000000E+00 -0.20236182688E+04  0.20236182688E+04  0.00000000000E+00 0. -1.
        -24    2    1    2    0    0  0.15332620420E+03  0.46829120297E+03  0.76136328703E+03  0.91062708540E+03  0.82231734486E+02 0.  0.
        254    2    1    2    0    0 -0.15332620420E+03 -0.46829120297E+03 -0.18133557467E+04  0.20846169925E+04  0.90253164239E+03 0.  0.
         23    2    4    4    0    0 -0.19977125981E+03 -0.22818616665E+02 -0.15318657765E+04  0.15477801726E+04  0.92636170921E+02 0.  0.
         23    2    4    4    0    0  0.46445055611E+02 -0.44547258630E+03 -0.28148997023E+03  0.53683681984E+03  0.91401309906E+02 0.  0.
          1    1    3    3  502    0 -0.55074795206E+01  0.12420155327E+02  0.77182458618E+01  0.15625745045E+02  0.00000000000E+00 0. -1.
         -2    1    3    3    0  502  0.15883368372E+03  0.45587104764E+03  0.75364504117E+03  0.89500134036E+03  0.00000000000E+00 0.  1.
         11    1    5    5    0    0 -0.11990991025E+03 -0.19901358687E+02 -0.12121136357E+04  0.12181928897E+04  0.00000000000E+00 0.  1.
        -11    1    5    5    0    0 -0.79861349561E+02 -0.29172579778E+01 -0.31975214079E+03  0.32958728296E+03  0.00000000000E+00 0. -1.
          1    1    6    6  503    0  0.64563906526E+02 -0.36591030825E+03 -0.25649238762E+03  0.45149440375E+03  0.00000000000E+00 0. -1.
         -1    1    6    6    0  503 -0.18118850915E+02 -0.79562278051E+02 -0.24997582617E+02  0.85342416089E+02  0.00000000000E+00 0.  1.
<mgrwt>
<rscale>  0 0.28044249E+04</rscale>
<asrwt>0</asrwt>
<pdfrwt beam="1">  1        1 0.31132589E+00 0.28044249E+04</pdfrwt>
<pdfrwt beam="2">  1       -2 0.14948089E+00 0.28044249E+04</pdfrwt>
<totfact> 0.66063812E-01</totfact>
</mgrwt>
</event>
<event>
12    4  0.4413110E-008  0.1407986E+04  0.7818608E-02  0.8948058E-01
          1   -1    0    0  501    0  0.00000000000E+00  0.00000000000E+00  0.75762633442E+03  0.75762633442E+03  0.00000000000E+00 0. -1.
         -2   -1    0    0    0  501 -0.00000000000E+00 -0.00000000000E+00 -0.65415638963E+03  0.65415638963E+03  0.00000000000E+00 0.  1.
        -24    2    1    2    0    0 -0.22512844765E+03  0.30561325012E+03  0.19279099565E+03  0.43315376055E+03  0.79821899800E+02 0.  0.
        254    2    1    2    0    0  0.22512844765E+03 -0.30561325012E+03 -0.89321050862E+02  0.97862896350E+03  0.89758237587E+03 0.  0.
         23    2    4    4    0    0 -0.29272425816E+03 -0.18651308511E+03 -0.22072867395E+03  0.42392561258E+03  0.10255318262E+03 0.  0.
         23    2    4    4    0    0  0.51785270581E+03 -0.11910016501E+03  0.13140762309E+03  0.55470335091E+03  0.89841916107E+02 0.  0.
          1    1    3    3  502    0 -0.21508092478E+03  0.27993600573E+03  0.19849187325E+03  0.40499752500E+03  0.00000000000E+00 0. -1.
         -2    1    3    3    0  502 -0.10047522870E+02  0.25677244392E+02 -0.57008775982E+01  0.28156235558E+02  0.00000000000E+00 0.  1.
         11    1    5    5    0    0 -0.21680804359E+02 -0.13936546862E+02  0.10732158693E+02  0.27918879747E+02  0.00000000000E+00 0.  1.
        -11    1    5    5    0    0 -0.27104345380E+03 -0.17257653825E+03 -0.23146083264E+03  0.39600673284E+03  0.00000000000E+00 0. -1.
          2    1    6    6  503    0  0.29027640719E+03 -0.43594799917E+02  0.11189427338E+03  0.31413568337E+03  0.00000000000E+00 0. -1.
         -2    1    6    6    0  503  0.22757629862E+03 -0.75505365091E+02  0.19513349709E+02  0.24056766754E+03  0.00000000000E+00 0.  1.
<mgrwt>
<rscale>  0 0.14079859E+04</rscale>
<asrwt>0</asrwt>
<pdfrwt beam="1">  1        1 0.11655790E+00 0.14079859E+04</pdfrwt>
<pdfrwt beam="2">  1       -2 0.10063944E+00 0.14079859E+04</pdfrwt>
<totfact> 0.16740601E+01</totfact>
</mgrwt>
</event>
<event>
12    4  0.4413110E-008  0.1839960E+04  0.7818608E-02  0.8685333E-01
         -2   -1    0    0    0  501 -0.00000000000E+00  0.00000000000E+00  0.37290530712E+03  0.37290530712E+03  0.00000000000E+00 0.  1.
          1   -1    0    0  501    0  0.00000000000E+00 -0.00000000000E+00 -0.22696464650E+04  0.22696464650E+04  0.00000000000E+00 0. -1.
        -24    2    1    2    0    0  0.70174551331E+03 -0.65166840986E+02 -0.51867422924E+03  0.87858062108E+03  0.78660466861E+02 0.  0.
        254    2    1    2    0    0 -0.70174551331E+03  0.65166840986E+02 -0.13780669287E+04  0.17639711511E+04  0.84606872021E+03 0.  0.
         23    2    4    4    0    0  0.70585038993E+01 -0.16763060153E+03  0.47308828150E+01  0.19006099977E+03  0.89168163255E+02 0.  0.
         23    2    4    4    0    0 -0.70880401721E+03  0.23279744251E+03 -0.13827978115E+04  0.15739101513E+04  0.92008656489E+02 0.  0.
          3    1    3    3  502    0  0.45079537581E+02 -0.88018024069E+01 -0.12627211834E+02  0.47634891758E+02  0.00000000000E+00 0. -1.
         -4    1    3    3    0  502  0.65666597573E+03 -0.56365038579E+02 -0.50604701741E+03  0.83094572932E+03  0.00000000000E+00 0.  1.
         11    1    5    5    0    0 -0.31820800667E+02 -0.20880286598E+02  0.37553722297E+01  0.38244640723E+02  0.00000000000E+00 0.  1.
        -11    1    5    5    0    0  0.38879304566E+02 -0.14675031493E+03  0.97551058528E+00  0.15181635905E+03  0.00000000000E+00 0. -1.
          1    1    6    6  503    0 -0.51673584649E+03  0.12586301403E+03 -0.98514835774E+03  0.11195421922E+04  0.00000000000E+00 0. -1.
         -1    1    6    6    0  503 -0.19206817071E+03  0.10693442848E+03 -0.39764945376E+03  0.45436795911E+03  0.00000000000E+00 0.  1.
<mgrwt>
<rscale>  0 0.18399600E+04</rscale>
<asrwt>0</asrwt>
<pdfrwt beam="1">  1        1 0.34917638E+00 0.18399600E+04</pdfrwt>
<pdfrwt beam="2">  1       -2 0.57370047E-01 0.18399600E+04</pdfrwt>
<totfact> 0.45919309E+00</totfact>
</mgrwt>
</event>
<event>
12    4  0.4413110E-008  0.2061477E+04  0.7818608E-02  0.8578406E-01
         -2   -1    0    0    0  501 -0.00000000000E+00  0.00000000000E+00  0.15228914941E+04  0.15228914941E+04  0.00000000000E+00 0.  1.
          1   -1    0    0  501    0  0.00000000000E+00 -0.00000000000E+00 -0.69763437882E+03  0.69763437882E+03  0.00000000000E+00 0. -1.
        -24    2    1    2    0    0 -0.50519178450E+03 -0.61643255759E+03  0.86535821761E+02  0.80571245523E+03  0.80475305966E+02 0.  0.
        254    2    1    2    0    0  0.50519178450E+03  0.61643255759E+03  0.73872129353E+03  0.14148134177E+04  0.90596910556E+03 0.  0.
         23    2    4    4    0    0 -0.39982511183E+02  0.61525269511E+03  0.54905792938E+03  0.83051955000E+03  0.90352825518E+02 0.  0.
         23    2    4    4    0    0  0.54517429568E+03  0.11798624898E+01  0.18966336416E+03  0.58429386772E+03  0.90613064180E+02 0.  0.
          1    1    3    3  502    0 -0.35857038773E+03 -0.49112207822E+03  0.70778881257E+02  0.61219544976E+03  0.00000000000E+00 0. -1.
         -2    1    3    3    0  502 -0.14662139677E+03 -0.12531047938E+03  0.15756940504E+02  0.19351700547E+03  0.00000000000E+00 0.  1.
         11    1    5    5    0    0 -0.19344879976E+02  0.58964244948E+03  0.52546986980E+03  0.79004495232E+03  0.00000000000E+00 0. -1.
        -11    1    5    5    0    0 -0.20637631207E+02  0.25610245623E+02  0.23588059572E+02  0.40474597676E+02  0.00000000000E+00 0.  1.
          2    1    6    6  503    0  0.53766095179E+03 -0.34860113237E+01  0.17195499902E+03  0.56449975469E+03  0.00000000000E+00 0. -1.
         -2    1    6    6    0  503  0.75133438948E+01  0.46658738135E+01  0.17708365135E+02  0.19794113031E+02  0.00000000000E+00 0.  1.
<mgrwt>
<rscale>  0 0.20614766E+04</rscale>
<asrwt>0</asrwt>
<pdfrwt beam="1">  1        1 0.10732837E+00 0.20614766E+04</pdfrwt>
<pdfrwt beam="2">  1       -2 0.23429100E+00 0.20614766E+04</pdfrwt>
<totfact> 0.17786823E+00</totfact>
</mgrwt>
</event>
<event>
12    4  0.4413110E-008  0.1760059E+04  0.7818608E-02  0.8727833E-01
          1   -1    0    0  501    0  0.00000000000E+00  0.00000000000E+00  0.26529069728E+04  0.26529069728E+04  0.00000000000E+00 0. -1.
         -2   -1    0    0    0  501 -0.00000000000E+00 -0.00000000000E+00 -0.29192567532E+03  0.29192567532E+03  0.00000000000E+00 0.  1.
        -24    2    1    2    0    0  0.62350248789E+03 -0.15165196685E+03  0.76518036466E+03  0.10014339608E+04  0.74935411105E+02 0.  0.
        254    2    1    2    0    0 -0.62350248789E+03  0.15165196685E+03  0.15958009328E+04  0.19433986873E+04  0.90469009579E+03 0.  0.
         23    2    4    4    0    0 -0.15710161959E+03  0.32430760960E+03  0.13110052594E+04  0.13626500787E+04  0.90686837384E+02 0.  0.
         23    2    4    4    0    0 -0.46640086831E+03 -0.17265564275E+03  0.28479567344E+03  0.58074860862E+03  0.93918208454E+02 0.  0.
          3    1    3    3  502    0  0.11311407508E+03 -0.54997733985E+01  0.16518702828E+03  0.20027929449E+03  0.00000000000E+00 0. -1.
         -4    1    3    3    0  502  0.51038841281E+03 -0.14615219345E+03  0.59999333639E+03  0.80115466627E+03  0.00000000000E+00 0.  1.
         11    1    5    5    0    0 -0.11544235349E+03  0.25117995753E+03  0.84389891811E+03  0.88802234883E+03  0.00000000000E+00 0. -1.
        -11    1    5    5    0    0 -0.41659266097E+02  0.73127652062E+02  0.46710634125E+03  0.47462772989E+03  0.00000000000E+00 0.  1.
          1    1    6    6  503    0 -0.48893278658E+02 -0.42131209200E+02  0.63424805111E+02  0.90489211457E+02  0.00000000000E+00 0. -1.
         -1    1    6    6    0  503 -0.41750758965E+03 -0.13052443355E+03  0.22137086833E+03  0.49025939717E+03  0.00000000000E+00 0.  1.
<mgrwt>
<rscale>  0 0.17600587E+04</rscale>
<asrwt>0</asrwt>
<pdfrwt beam="1">  1        1 0.40813952E+00 0.17600587E+04</pdfrwt>
<pdfrwt beam="2">  1       -2 0.44911644E-01 0.17600587E+04</pdfrwt>
<totfact> 0.41491481E+00</totfact>
</mgrwt>
</event>
<event>
12    4  0.4413110E-008  0.1925393E+04  0.7818608E-02  0.8642319E-01
         -2   -1    0    0    0  501 -0.00000000000E+00  0.00000000000E+00  0.69451828829E+03  0.69451828829E+03  0.00000000000E+00 0.  1.
          1   -1    0    0  501    0  0.00000000000E+00 -0.00000000000E+00 -0.13344284122E+04  0.13344284122E+04  0.00000000000E+00 0. -1.
        -24    2    1    2    0    0  0.37149069256E+03  0.58167945507E+03 -0.55559480827E+03  0.88972135502E+03  0.81007255862E+02 0.  0.
        254    2    1    2    0    0 -0.37149069256E+03 -0.58167945507E+03 -0.84315315639E+02  0.11392253455E+04  0.90242395370E+03 0.  0.
         23    2    4    4    0    0  0.26667953052E+03 -0.79714795352E+02 -0.12432807715E+03  0.32126410388E+03  0.10139394992E+03 0.  0.
         23    2    4    4    0    0 -0.63817022308E+03 -0.50196465972E+03  0.40012761510E+02  0.81796124159E+03  0.90718346743E+02 0.  0.
          3    1    3    3  502    0  0.22832325684E+03  0.32848811468E+03 -0.27404421143E+03  0.48490842529E+03  0.00000000000E+00 0. -1.
         -4    1    3    3    0  502  0.14316743572E+03  0.25319134039E+03 -0.28155059684E+03  0.40481292973E+03  0.00000000000E+00 0.  1.
         11    1    5    5    0    0  0.19704668016E+03 -0.83023470053E+02 -0.13175740371E+03  0.25115792676E+03  0.00000000000E+00 0.  1.
        -11    1    5    5    0    0  0.69632850360E+02  0.33086747011E+01  0.74293265638E+01  0.70106177122E+02  0.00000000000E+00 0. -1.
          3    1    6    6  503    0 -0.60775351968E+02 -0.54003189989E+02 -0.22907389787E+02  0.84467369100E+02  0.00000000000E+00 0. -1.
         -3    1    6    6    0  503 -0.57739487111E+03 -0.44796146973E+03  0.62920151296E+02  0.73349387249E+03  0.00000000000E+00 0.  1.
<mgrwt>
<rscale>  0 0.19253934E+04</rscale>
<asrwt>0</asrwt>
<pdfrwt beam="1">  1        1 0.20529668E+00 0.19253934E+04</pdfrwt>
<pdfrwt beam="2">  1       -2 0.10684897E+00 0.19253934E+04</pdfrwt>
<totfact> 0.49357352E+00</totfact>
</mgrwt>
</event>
<event>
12    4  0.4413110E-008  0.1341808E+04  0.7818608E-02  0.8997053E-01
         -2   -1    0    0    0  501 -0.00000000000E+00  0.00000000000E+00  0.61896537990E+03  0.61896537990E+03  0.00000000000E+00 0.  1.
          1   -1    0    0  501    0  0.00000000000E+00 -0.00000000000E+00 -0.72720035847E+03  0.72720035847E+03  0.00000000000E+00 0. -1.
        -24    2    1    2    0    0  0.29619542726E+02  0.36400724439E+03  0.12747223601E+01  0.37359889557E+03  0.78714157402E+02 0.  0.
        254    2    1    2    0    0 -0.29619542726E+02 -0.36400724439E+03 -0.10950970093E+03  0.97256684280E+03  0.89471520487E+03 0.  0.
         23    2    4    4    0    0 -0.21086915148E+03 -0.60540335225E+03 -0.37031889003E+02  0.64868404079E+03  0.91872770776E+02 0.  0.
         23    2    4    4    0    0  0.18124960875E+03  0.24139610786E+03 -0.72477811925E+02  0.32388280201E+03  0.92322990915E+02 0.  0.
          1    1    3    3  502    0 -0.12038863026E+02  0.13185451235E+02 -0.93458332273E+01  0.20152790028E+02  0.00000000000E+00 0. -1.
         -2    1    3    3    0  502  0.41658405752E+02  0.35082179316E+03  0.10620555587E+02  0.35344610554E+03  0.00000000000E+00 0.  1.
         11    1    5    5    0    0 -0.13965526925E+03 -0.26577376852E+03 -0.28240540328E+02  0.30155732188E+03  0.00000000000E+00 0. -1.
        -11    1    5    5    0    0 -0.71213882223E+02 -0.33962958373E+03 -0.87913486757E+01  0.34712671891E+03  0.00000000000E+00 0.  1.
          3    1    6    6  503    0  0.88645018506E+02  0.84470777149E+02  0.12013241847E+02  0.12303483034E+03  0.00000000000E+00 0. -1.
         -3    1    6    6    0  503  0.92604590243E+02  0.15692533071E+03 -0.84491053771E+02  0.20084797166E+03  0.00000000000E+00 0.  1.
<mgrwt>
<rscale>  0 0.13418075E+04</rscale>
<asrwt>0</asrwt>
<pdfrwt beam="1">  1        1 0.11187698E+00 0.13418075E+04</pdfrwt>
<pdfrwt beam="2">  1       -2 0.95225443E-01 0.13418075E+04</pdfrwt>
<totfact> 0.20431406E+01</totfact>
</mgrwt>
</event>
<event>
12    4  0.4413110E-008  0.1990475E+04  0.7818608E-02  0.8611087E-01
         -2   -1    0    0    0  501 -0.00000000000E+00  0.00000000000E+00  0.54143501948E+03  0.54143501948E+03  0.00000000000E+00 0.  1.
          1   -1    0    0  501    0  0.00000000000E+00 -0.00000000000E+00 -0.18293930952E+04  0.18293930952E+04  0.00000000000E+00 0. -1.
        -24    2    1    2    0    0  0.83501728023E+02  0.14238330820E+03 -0.14367448225E+04  0.14482255263E+04  0.76654712850E+02 0.  0.
        254    2    1    2    0    0 -0.83501728023E+02 -0.14238330820E+03  0.14878674675E+03  0.92260258843E+03  0.89543983334E+03 0.  0.
         23    2    4    4    0    0  0.34934951402E+03  0.11893248914E+03  0.15112314657E+03  0.40887025939E+03  0.90258870303E+02 0.  0.
         23    2    4    4    0    0 -0.43285124204E+03 -0.26131579734E+03 -0.23363998220E+01  0.51373232903E+03  0.90935710547E+02 0.  0.
          1    1    3    3  502    0  0.72993912135E+02  0.12816517112E+03 -0.13965157911E+04  0.14042830118E+04  0.00000000000E+00 0. -1.
         -2    1    3    3    0  502  0.10507815888E+02  0.14218137083E+02 -0.40229031313E+02  0.43942514462E+02  0.00000000000E+00 0.  1.
         11    1    5    5    0    0  0.10452603121E+03 -0.55309165506E+01  0.31539588287E+02  0.10932075680E+03  0.00000000000E+00 0. -1.
        -11    1    5    5    0    0  0.24482348281E+03  0.12446340569E+03  0.11958355828E+03  0.29954950259E+03  0.00000000000E+00 0.  1.
          3    1    6    6  503    0 -0.31292143959E+03 -0.14119618438E+03 -0.14038486570E+02  0.34358880795E+03  0.00000000000E+00 0. -1.
         -3    1    6    6    0  503 -0.11992980245E+03 -0.12011961297E+03  0.11702086748E+02  0.17014352109E+03  0.00000000000E+00 0.  1.
<mgrwt>
<rscale>  0 0.19904748E+04</rscale>
<asrwt>0</asrwt>
<pdfrwt beam="1">  1        1 0.28144510E+00 0.19904748E+04</pdfrwt>
<pdfrwt beam="2">  1       -2 0.83297694E-01 0.19904748E+04</pdfrwt>
<totfact> 0.40016022E+00</totfact>
</mgrwt>
</event>
<event>
12    4  0.4413110E-008  0.1504959E+04  0.7818608E-02  0.8881162E-01
          1   -1    0    0  501    0  0.00000000000E+00  0.00000000000E+00  0.10256431669E+04  0.10256431669E+04  0.00000000000E+00 0. -1.
         -2   -1    0    0    0  501 -0.00000000000E+00 -0.00000000000E+00 -0.55206886670E+03  0.55206886670E+03  0.00000000000E+00 0.  1.
        -24    2    1    2    0    0 -0.41491234912E+03  0.73989245035E+02  0.42684630069E+03  0.60522682502E+03  0.80467878537E+02 0.  0.
        254    2    1    2    0    0  0.41491234912E+03 -0.73989245035E+02  0.46727999549E+02  0.97248520862E+03  0.87516701789E+03 0.  0.
         23    2    4    4    0    0  0.17849544663E+03 -0.34544952199E+03 -0.27179420540E+03  0.48250738455E+03  0.88007325548E+02 0.  0.
         23    2    4    4    0    0  0.23641690250E+03  0.27146027695E+03  0.31852220495E+03  0.48997782407E+03  0.95069654884E+02 0.  0.
          3    1    3    3  502    0 -0.33584571888E+03  0.56900065317E+02  0.29537024414E+03  0.45085867569E+03  0.00000000000E+00 0. -1.
         -4    1    3    3    0  502 -0.79066630240E+02  0.17089179717E+02  0.13147605654E+03  0.15436814932E+03  0.00000000000E+00 0.  1.
         11    1    5    5    0    0 -0.83542834126E+01 -0.24606949106E+02 -0.28714925565E+02  0.38727805848E+02  0.00000000000E+00 0. -1.
        -11    1    5    5    0    0  0.18684973004E+03 -0.32084257288E+03 -0.24307927984E+03  0.44377957870E+03  0.00000000000E+00 0.  1.
          2    1    6    6  503    0  0.50369310762E+02  0.45265564862E+02  0.17409451292E+02  0.69922298469E+02  0.00000000000E+00 0. -1.
         -2    1    6    6    0  503  0.18604759174E+03  0.22619471209E+03  0.30111275366E+03  0.42005552560E+03  0.00000000000E+00 0.  1.
<mgrwt>
<rscale>  0 0.15049593E+04</rscale>
<asrwt>0</asrwt>
<pdfrwt beam="1">  1        1 0.15779126E+00 0.15049593E+04</pdfrwt>
<pdfrwt beam="2">  1       -2 0.84933672E-01 0.15049593E+04</pdfrwt>
<totfact> 0.14788133E+01</totfact>
</mgrwt>
</event>
<event>
12    4  0.4413110E-008  0.3342470E+04  0.7818608E-02  0.8152172E-01
         -2   -1    0    0    0  501 -0.00000000000E+00  0.00000000000E+00  0.18240206707E+04  0.18240206707E+04  0.00000000000E+00 0.  1.
          1   -1    0    0  501    0  0.00000000000E+00 -0.00000000000E+00 -0.15312468233E+04  0.15312468233E+04  0.00000000000E+00 0. -1.
        -24    2    1    2    0    0  0.41836088841E+03 -0.67992037382E+03 -0.12024132636E+04  0.14455640653E+04  0.80871890639E+02 0.  0.
        254    2    1    2    0    0 -0.41836088841E+03  0.67992037382E+03  0.14951871110E+04  0.19097034288E+04  0.87980971870E+03 0.  0.
         23    2    4    4    0    0 -0.45164824368E+03  0.86475849990E+03  0.12521182561E+04  0.15897555124E+04  0.87915088852E+02 0.  0.
         23    2    4    4    0    0  0.33287355275E+02 -0.18483812608E+03  0.24306885494E+03  0.31994791634E+03  0.89504301880E+02 0.  0.
          3    1    3    3  502    0  0.18296577944E+03 -0.36798354078E+03 -0.64558573657E+03  0.76529034098E+03  0.00000000000E+00 0. -1.
         -4    1    3    3    0  502  0.23539510897E+03 -0.31193683304E+03 -0.55682752700E+03  0.68027372429E+03  0.00000000000E+00 0.  1.
         11    1    5    5    0    0 -0.75841991223E+02  0.15946202314E+03  0.28370875100E+03  0.33417181187E+03  0.00000000000E+00 0. -1.
        -11    1    5    5    0    0 -0.37580625246E+03  0.70529647675E+03  0.96840950509E+03  0.12555837005E+04  0.00000000000E+00 0.  1.
          4    1    6    6  503    0 -0.19588150593E+02 -0.27856910019E+02  0.82492790676E+02  0.89245524218E+02  0.00000000000E+00 0. -1.
         -4    1    6    6    0  503  0.52875505867E+02 -0.15698121606E+03  0.16057606426E+03  0.23070239212E+03  0.00000000000E+00 0.  1.
<mgrwt>
<rscale>  0 0.33424697E+04</rscale>
<asrwt>0</asrwt>
<pdfrwt beam="1">  1        1 0.23557643E+00 0.33424697E+04</pdfrwt>
<pdfrwt beam="2">  1       -2 0.28061857E+00 0.33424697E+04</pdfrwt>
<totfact> 0.18865870E-01</totfact>
</mgrwt>
</event>
<event>
12    4  0.4413110E-008  0.1444368E+04  0.7818608E-02  0.8922314E-01
         -2   -1    0    0    0  501 -0.00000000000E+00  0.00000000000E+00  0.55923575625E+03  0.55923575625E+03  0.00000000000E+00 0.  1.
          1   -1    0    0  501    0  0.00000000000E+00 -0.00000000000E+00 -0.93261144870E+03  0.93261144870E+03  0.00000000000E+00 0. -1.
        -24    2    1    2    0    0  0.29180631404E+03  0.11740130358E+02 -0.44361378088E+03  0.53755133207E+03  0.82942705798E+02 0.  0.
        254    2    1    2    0    0 -0.29180631404E+03 -0.11740130358E+02  0.70238088424E+02  0.95429587289E+03  0.90579162525E+03 0.  0.
         23    2    4    4    0    0  0.35671862178E+02 -0.37745698403E+03 -0.13731203060E+03  0.41393153056E+03  0.93479739527E+02 0.  0.
         23    2    4    4    0    0 -0.32747817622E+03  0.36571685368E+03  0.20755011902E+03  0.54036434233E+03  0.89026948676E+02 0.  0.
          3    1    3    3  502    0  0.18343825629E+03 -0.13470838292E+02 -0.33438700471E+03  0.38163559356E+03  0.00000000000E+00 0. -1.
         -4    1    3    3    0  502  0.10836805775E+03  0.25210968650E+02 -0.10922677617E+03  0.15591573850E+03  0.00000000000E+00 0.  1.
         11    1    5    5    0    0  0.30599568064E+01 -0.29354986817E+03 -0.70740968495E+02  0.30196882796E+03  0.00000000000E+00 0. -1.
        -11    1    5    5    0    0  0.32611905372E+02 -0.83907115865E+02 -0.66571062100E+02  0.11196270260E+03  0.00000000000E+00 0.  1.
          2    1    6    6  503    0 -0.62643385616E+02  0.13028620878E+03  0.60171347076E+02  0.15658633711E+03  0.00000000000E+00 0. -1.
         -2    1    6    6    0  503 -0.26483479061E+03  0.23543064489E+03  0.14737877194E+03  0.38377800522E+03  0.00000000000E+00 0.  1.
<mgrwt>
<rscale>  0 0.14443679E+04</rscale>
<asrwt>0</asrwt>
<pdfrwt beam="1">  1        1 0.14347868E+00 0.14443679E+04</pdfrwt>
<pdfrwt beam="2">  1       -2 0.86036270E-01 0.14443679E+04</pdfrwt>
<totfact> 0.17086948E+01</totfact>
</mgrwt>
</event>
<event>
12    4  0.4413110E-008  0.2230690E+04  0.7818608E-02  0.8505762E-01
         -2   -1    0    0    0  501 -0.00000000000E+00  0.00000000000E+00  0.84997590969E+03  0.84997590969E+03  0.00000000000E+00 0.  1.
          1   -1    0    0  501    0  0.00000000000E+00 -0.00000000000E+00 -0.14635643026E+04  0.14635643026E+04  0.00000000000E+00 0. -1.
        -24    2    1    2    0    0  0.81480793801E+03 -0.27660952173E+03 -0.61686265415E+03  0.10618274301E+04  0.80827928197E+02 0.  0.
        254    2    1    2    0    0 -0.81480793801E+03  0.27660952173E+03  0.32742612611E+01  0.12517127821E+04  0.90903760360E+03 0.  0.
         23    2    4    4    0    0 -0.36807432553E+03  0.58680269248E+03  0.33381783009E+02  0.69936353373E+03  0.90437270354E+02 0.  0.
         23    2    4    4    0    0 -0.44673361248E+03 -0.31019317074E+03 -0.30107521748E+02  0.55234924838E+03  0.91610619616E+02 0.  0.
          1    1    3    3  502    0  0.63952291413E+03 -0.19187711417E+03 -0.50622621485E+03  0.83789698964E+03  0.00000000000E+00 0. -1.
         -2    1    3    3    0  502  0.17528502388E+03 -0.84732407560E+02 -0.11063643930E+03  0.22393044051E+03  0.00000000000E+00 0.  1.
         11    1    5    5    0    0 -0.12040516236E+03  0.11993893856E+03  0.13849019940E+02  0.17051260206E+03  0.00000000000E+00 0. -1.
        -11    1    5    5    0    0 -0.24766916316E+03  0.46686375391E+03  0.19532763069E+02  0.52885093167E+03  0.00000000000E+00 0.  1.
          3    1    6    6  503    0 -0.81825947679E+02 -0.10377545028E+03 -0.21176473571E+01  0.13217153333E+03  0.00000000000E+00 0. -1.
         -3    1    6    6    0  503 -0.36490766480E+03 -0.20641772046E+03 -0.27989874391E+02  0.42017771505E+03  0.00000000000E+00 0.  1.
<mgrwt>
<rscale>  0 0.22306899E+04</rscale>
<asrwt>0</asrwt>
<pdfrwt beam="1">  1        1 0.22516374E+00 0.22306899E+04</pdfrwt>
<pdfrwt beam="2">  1       -2 0.13076553E+00 0.22306899E+04</pdfrwt>
<totfact> 0.23686066E+00</totfact>
</mgrwt>
</event>
<event>
12    4  0.4413110E-008  0.1184269E+04  0.7818608E-02  0.9126739E-01
         -2   -1    0    0    0  501 -0.00000000000E+00  0.00000000000E+00  0.17971925037E+03  0.17971925037E+03  0.00000000000E+00 0.  1.
          1   -1    0    0  501    0  0.00000000000E+00 -0.00000000000E+00 -0.19509487269E+04  0.19509487269E+04  0.00000000000E+00 0. -1.
        -24    2    1    2    0    0  0.87932430995E+02 -0.21363268132E+03 -0.40329538845E+03  0.47148269495E+03  0.79232104216E+02 0.  0.
        254    2    1    2    0    0 -0.87932430995E+02  0.21363268132E+03 -0.13679340880E+04  0.16591852823E+04  0.91009949828E+03 0.  0.
         23    2    4    4    0    0  0.91496571796E+02 -0.11932127886E+03  0.55312034266E+02  0.18360147405E+03  0.89671009254E+02 0.  0.
         23    2    4    4    0    0 -0.17942900279E+03  0.33295396018E+03 -0.14232461223E+04  0.14755838082E+04  0.93085679934E+02 0.  0.
          1    1    3    3  502    0 -0.79653491849E+01  0.19349036390E+01 -0.11279435789E+02  0.13943324978E+02  0.00000000000E+00 0. -1.
         -2    1    3    3    0  502  0.95897780180E+02 -0.21556758496E+03 -0.39201595266E+03  0.45753936997E+03  0.00000000000E+00 0.  1.
         11    1    5    5    0    0  0.96272530079E+02 -0.65301478820E+02  0.56571871659E+02  0.12935632898E+03  0.00000000000E+00 0.  1.
        -11    1    5    5    0    0 -0.47759582833E+01 -0.54019800040E+02 -0.12598373925E+01  0.54245145074E+02  0.00000000000E+00 0. -1.
          3    1    6    6  503    0 -0.99041647433E+02  0.26941658209E+03 -0.10496195453E+04  0.10881616298E+04  0.00000000000E+00 0. -1.
         -3    1    6    6    0  503 -0.80387355358E+02  0.63537378089E+02 -0.37362657702E+03  0.38742217847E+03  0.00000000000E+00 0.  1.
<mgrwt>
<rscale>  0 0.11842686E+04</rscale>
<asrwt>0</asrwt>
<pdfrwt beam="1">  1        1 0.30014594E+00 0.11842686E+04</pdfrwt>
<pdfrwt beam="2">  1       -2 0.27649117E-01 0.11842686E+04</pdfrwt>
<totfact> 0.33446820E+01</totfact>
</mgrwt>
</event>
<event>
12    4  0.4413110E-008  0.3616398E+04  0.7818608E-02  0.8086746E-01
         -2   -1    0    0    0  501 -0.00000000000E+00  0.00000000000E+00  0.12128554278E+04  0.12128554278E+04  0.00000000000E+00 0.  1.
          1   -1    0    0  501    0  0.00000000000E+00 -0.00000000000E+00 -0.26957739353E+04  0.26957739353E+04  0.00000000000E+00 0. -1.
        -24    2    1    2    0    0  0.15054141783E+04  0.70416847359E+03 -0.33237135717E+03  0.16968235250E+04  0.81328152538E+02 0.  0.
        254    2    1    2    0    0 -0.15054141783E+04 -0.70416847359E+03 -0.11505471503E+04  0.22118058382E+04  0.89788709395E+03 0.  0.
         23    2    4    4    0    0 -0.15507899315E+04 -0.72866042668E+03 -0.89562825616E+03  0.19358439513E+04  0.97192600200E+02 0.  0.
         23    2    4    4    0    0  0.45375753226E+02  0.24491953086E+02 -0.25491889414E+03  0.27596188689E+03  0.92263241222E+02 0.  0.
          1    1    3    3  502    0  0.91253997313E+03  0.39516967889E+03 -0.22694933004E+03  0.10199971942E+04  0.00000000000E+00 0. -1.
         -2    1    3    3    0  502  0.59287420515E+03  0.30899879470E+03 -0.10542202714E+03  0.67682633080E+03  0.00000000000E+00 0.  1.
         11    1    5    5    0    0 -0.79201108810E+03 -0.33224771074E+03 -0.48523369891E+03  0.98646938499E+03  0.00000000000E+00 0. -1.
        -11    1    5    5    0    0 -0.75877884342E+03 -0.39641271594E+03 -0.41039455724E+03  0.94937456633E+03  0.00000000000E+00 0.  1.
          4    1    6    6  503    0  0.70271228997E+02  0.35191558240E+02 -0.18822018367E+03  0.20396894111E+03  0.00000000000E+00 0. -1.
         -4    1    6    6    0  503 -0.24895475771E+02 -0.10699605154E+02 -0.66698710465E+02  0.71992945779E+02  0.00000000000E+00 0.  1.
<mgrwt>
<rscale>  0 0.36163982E+04</rscale>
<asrwt>0</asrwt>
<pdfrwt beam="1">  1        1 0.41473444E+00 0.36163982E+04</pdfrwt>
<pdfrwt beam="2">  1       -2 0.18659315E+00 0.36163982E+04</pdfrwt>
<totfact> 0.11481371E-01</totfact>
</mgrwt>
</event>
<event>
12    4  0.4413110E-008  0.1344940E+04  0.7818608E-02  0.8994667E-01
          1   -1    0    0  501    0  0.00000000000E+00  0.00000000000E+00  0.20237252281E+04  0.20237252281E+04  0.00000000000E+00 0. -1.
         -2   -1    0    0    0  501 -0.00000000000E+00 -0.00000000000E+00 -0.22345728039E+03  0.22345728039E+03  0.00000000000E+00 0.  1.
        -24    2    1    2    0    0  0.19120737130E+03  0.91201123464E+02  0.87627278967E+03  0.90490978314E+03  0.78293102827E+02 0.  0.
        254    2    1    2    0    0 -0.19120737130E+03 -0.91201123464E+02  0.92399515800E+03  0.13422727253E+04  0.95029001540E+03 0.  0.
         23    2    4    4    0    0 -0.13043170995E+03  0.31441436137E+03  0.84466995995E+03  0.91523991382E+03  0.91257531168E+02 0.  0.
         23    2    4    4    0    0 -0.60775661341E+02 -0.40561548484E+03  0.79325198048E+02  0.42703281150E+03  0.88582913141E+02 0.  0.
          1    1    3    3  502    0  0.18825106701E+03  0.10067515584E+03  0.85750891594E+03  0.88368291381E+03  0.00000000000E+00 0. -1.
         -2    1    3    3    0  502  0.29563042844E+01 -0.94740323755E+01  0.18763873729E+02  0.21226869336E+02  0.00000000000E+00 0.  1.
         11    1    5    5    0    0 -0.12556102231E+03  0.25771884118E+03  0.61359846724E+03  0.67726483035E+03  0.00000000000E+00 0.  1.
        -11    1    5    5    0    0 -0.48706876394E+01  0.56695520194E+02  0.23107149271E+03  0.23797508347E+03  0.00000000000E+00 0. -1.
          1    1    6    6  503    0 -0.64544345562E+02 -0.14253042546E+03  0.27342628946E+02  0.15883486419E+03  0.00000000000E+00 0. -1.
         -1    1    6    6    0  503  0.37686842207E+01 -0.26308505938E+03  0.51982569101E+02  0.26819794731E+03  0.00000000000E+00 0.  1.
<mgrwt>
<rscale>  0 0.13449403E+04</rscale>
<asrwt>0</asrwt>
<pdfrwt beam="1">  1        1 0.31134233E+00 0.13449403E+04</pdfrwt>
<pdfrwt beam="2">  1       -2 0.34378045E-01 0.13449403E+04</pdfrwt>
<totfact> 0.19593387E+01</totfact>
</mgrwt>
</event>
<event>
12    4  0.4413110E-008  0.2164628E+04  0.7818608E-02  0.8533297E-01
          1   -1    0    0  501    0  0.00000000000E+00  0.00000000000E+00  0.14883465710E+04  0.14883465710E+04  0.00000000000E+00 0. -1.
         -2   -1    0    0    0  501 -0.00000000000E+00 -0.00000000000E+00 -0.78704997216E+03  0.78704997216E+03  0.00000000000E+00 0.  1.
        -24    2    1    2    0    0  0.15098120579E+03  0.69725210401E+03 -0.29684457198E+03  0.77675831261E+03  0.79252477797E+02 0.  0.
        254    2    1    2    0    0 -0.15098120579E+03 -0.69725210401E+03  0.99814117080E+03  0.14986382305E+04  0.86062473128E+03 0.  0.
         23    2    4    4    0    0 -0.42687292661E+03 -0.26781381659E+03  0.20334876048E+03  0.54971086922E+03  0.82985453640E+02 0.  0.
         23    2    4    4    0    0  0.27589172082E+03 -0.42943828742E+03  0.79479241033E+03  0.94892736131E+03  0.90745122251E+02 0.  0.
          1    1    3    3  502    0  0.62235516753E+02  0.24954409395E+03 -0.67195071045E+02  0.26582078915E+03  0.00000000000E+00 0. -1.
         -2    1    3    3    0  502  0.88745689041E+02  0.44770801006E+03 -0.22964950094E+03  0.51093752345E+03  0.00000000000E+00 0.  1.
         11    1    5    5    0    0 -0.33262187487E+03 -0.24433991052E+03  0.15182899776E+03  0.43976283162E+03  0.00000000000E+00 0.  1.
        -11    1    5    5    0    0 -0.94251051744E+02 -0.23473906074E+02  0.51519762716E+02  0.10994803760E+03  0.00000000000E+00 0. -1.
          3    1    6    6  503    0  0.98066009910E+02 -0.20721194580E+03  0.41779982576E+03  0.47656104246E+03  0.00000000000E+00 0. -1.
         -3    1    6    6    0  503  0.17782571091E+03 -0.22222634162E+03  0.37699258457E+03  0.47236631885E+03  0.00000000000E+00 0.  1.
<mgrwt>
<rscale>  0 0.21646276E+04</rscale>
<asrwt>0</asrwt>
<pdfrwt beam="1">  1        1 0.22897640E+00 0.21646276E+04</pdfrwt>
<pdfrwt beam="2">  1       -2 0.12108461E+00 0.21646276E+04</pdfrwt>
<totfact> 0.27782555E+00</totfact>
</mgrwt>
</event>
<event>
12    4  0.4413110E-008  0.1484249E+04  0.7818608E-02  0.8894996E-01
          1   -1    0    0  501    0  0.00000000000E+00  0.00000000000E+00  0.10345031482E+04  0.10345031482E+04  0.00000000000E+00 0. -1.
         -2   -1    0    0    0  501 -0.00000000000E+00 -0.00000000000E+00 -0.53237965846E+03  0.53237965846E+03  0.00000000000E+00 0.  1.
        -24    2    1    2    0    0  0.96021797058E+02  0.44758832604E+03  0.23945497385E+03  0.52266584688E+03  0.79280564273E+02 0.  0.
        254    2    1    2    0    0 -0.96021797058E+02 -0.44758832604E+03  0.26266851585E+03  0.10442169598E+04  0.90102098460E+03 0.  0.
         23    2    4    4    0    0  0.68492668428E+02  0.27211883860E+02  0.47576946905E+03  0.49104913743E+03  0.96648514940E+02 0.  0.
         23    2    4    4    0    0 -0.16451446549E+03 -0.47480020990E+03 -0.21310095319E+03  0.55316782233E+03  0.89902028491E+02 0.  0.
          1    1    3    3  502    0  0.10257150614E+03  0.43688110554E+03  0.22069013374E+03  0.50009014126E+03  0.00000000000E+00 0. -1.
         -2    1    3    3    0  502 -0.65497090839E+01  0.10707220499E+02  0.18764840110E+02  0.22575705621E+02  0.00000000000E+00 0.  1.
         11    1    5    5    0    0  0.36611410749E+02  0.36618320657E+02  0.43667196411E+03  0.43973139647E+03  0.00000000000E+00 0. -1.
        -11    1    5    5    0    0  0.31881257678E+02 -0.94064367974E+01  0.39097504936E+02  0.51317740954E+02  0.00000000000E+00 0.  1.
          2    1    6    6  503    0 -0.54751435069E+02 -0.20777075376E+03 -0.13619250198E+03  0.25439104417E+03  0.00000000000E+00 0. -1.
         -2    1    6    6    0  503 -0.10976303042E+03 -0.26702945615E+03 -0.76908451210E+02  0.29877677815E+03  0.00000000000E+00 0.  1.
<mgrwt>
<rscale>  0 0.14842485E+04</rscale>
<asrwt>0</asrwt>
<pdfrwt beam="1">  1        1 0.15915433E+00 0.14842485E+04</pdfrwt>
<pdfrwt beam="2">  1       -2 0.81904563E-01 0.14842485E+04</pdfrwt>
<totfact> 0.15834643E+01</totfact>
</mgrwt>
</event>
<event>
12    4  0.4413110E-008  0.1087329E+04  0.7818608E-02  0.9217631E-01
          1   -1    0    0  501    0  0.00000000000E+00  0.00000000000E+00  0.18006028357E+03  0.18006028357E+03  0.00000000000E+00 0. -1.
         -2   -1    0    0    0  501 -0.00000000000E+00 -0.00000000000E+00 -0.16415117982E+04  0.16415117982E+04  0.00000000000E+00 0.  1.
        -24    2    1    2    0    0 -0.13381987267E+03  0.17272310908E+02 -0.39674433955E+03  0.42637287511E+03  0.78623575458E+02 0.  0.
        254    2    1    2    0    0  0.13381987267E+03 -0.17272310908E+02 -0.10647071751E+04  0.13951992067E+04  0.89150062622E+03 0.  0.
         23    2    4    4    0    0 -0.94957490844E+02  0.21601236043E+03 -0.10229736340E+04  0.10536012241E+04  0.89006845801E+02 0.  0.
         23    2    4    4    0    0  0.22877736352E+03 -0.23328467134E+03 -0.41733541065E+02  0.34159798256E+03  0.90480237071E+02 0.  0.
          3    1    3    3  502    0 -0.25926278332E+02  0.38180590212E+02 -0.12488222174E+03  0.13313714239E+03  0.00000000000E+00 0. -1.
         -4    1    3    3    0  502 -0.10789359434E+03 -0.20908279305E+02 -0.27186211781E+03  0.29323573272E+03  0.00000000000E+00 0.  1.
         11    1    5    5    0    0 -0.94138081166E+02  0.22257659242E+03 -0.94732991939E+03  0.97766880587E+03  0.00000000000E+00 0.  1.
        -11    1    5    5    0    0 -0.81940967784E+00 -0.65642319872E+01 -0.75643714646E+02  0.75932418237E+02  0.00000000000E+00 0. -1.
          1    1    6    6  503    0  0.10784894695E+03 -0.50483112895E+02 -0.25775943261E+02  0.12183734771E+03  0.00000000000E+00 0. -1.
         -1    1    6    6    0  503  0.12092841657E+03 -0.18280155845E+03 -0.15957597804E+02  0.21976063485E+03  0.00000000000E+00 0.  1.
<mgrwt>
<rscale>  0 0.10873290E+04</rscale>
<asrwt>0</asrwt>
<pdfrwt beam="1">  1        1 0.27701582E-01 0.10873290E+04</pdfrwt>
<pdfrwt beam="2">  1       -2 0.25254027E+00 0.10873290E+04</pdfrwt>
<totfact> 0.92370707E+00</totfact>
</mgrwt>
</event>
<event>
12    4  0.4413110E-008  0.3736556E+04  0.7818608E-02  0.8059909E-01
          1   -1    0    0  501    0  0.00000000000E+00  0.00000000000E+00  0.20966276753E+04  0.20966276753E+04  0.00000000000E+00 0. -1.
         -2   -1    0    0    0  501 -0.00000000000E+00 -0.00000000000E+00 -0.16647984900E+04  0.16647984900E+04  0.00000000000E+00 0.  1.
        -24    2    1    2    0    0 -0.28310948319E+03 -0.87354661352E+03 -0.12994790114E+04  0.15932957754E+04  0.81921068556E+02 0.  0.
        254    2    1    2    0    0  0.28310948319E+03  0.87354661352E+03  0.17313081967E+04  0.21681303899E+04  0.92743013219E+03 0.  0.
         23    2    4    4    0    0 -0.67622309897E+02  0.67651312034E+03  0.44595065768E+03  0.81813282789E+03  0.90700364969E+02 0.  0.
         23    2    4    4    0    0  0.35073179309E+03  0.19703349318E+03  0.12853575390E+04  0.13499975620E+04  0.92273648086E+02 0.  0.
          1    1    3    3  502    0 -0.12555165793E+03 -0.26538831092E+03 -0.40297574146E+03  0.49858161076E+03  0.00000000000E+00 0. -1.
         -2    1    3    3    0  502 -0.15755782527E+03 -0.60815830260E+03 -0.89650326990E+03  0.10947141646E+04  0.00000000000E+00 0.  1.
         11    1    5    5    0    0 -0.33880532962E+02  0.36010836232E+03  0.18306714607E+03  0.40538808949E+03  0.00000000000E+00 0. -1.
        -11    1    5    5    0    0 -0.33741776935E+02  0.31640475802E+03  0.26288351161E+03  0.41274473841E+03  0.00000000000E+00 0.  1.
          4    1    6    6  503    0  0.77491608859E+02  0.45964195585E+01  0.20908739258E+03  0.22303276497E+03  0.00000000000E+00 0.  1.
         -4    1    6    6    0  503  0.27324018423E+03  0.19243707362E+03  0.10762701464E+04  0.11269647970E+04  0.00000000000E+00 0. -1.
<mgrwt>
<rscale>  0 0.37365559E+04</rscale>
<asrwt>0</asrwt>
<pdfrwt beam="1">  1        1 0.32255811E+00 0.37365559E+04</pdfrwt>
<pdfrwt beam="2">  1       -2 0.25612284E+00 0.37365559E+04</pdfrwt>
<totfact> 0.10619154E-01</totfact>
</mgrwt>
</event>
<event>
12    4  0.4413110E-008  0.1370441E+04  0.7818608E-02  0.8975497E-01
          1   -1    0    0  501    0  0.00000000000E+00  0.00000000000E+00  0.15577957373E+04  0.15577957373E+04  0.00000000000E+00 0. -1.
         -2   -1    0    0    0  501 -0.00000000000E+00 -0.00000000000E+00 -0.30140494241E+03  0.30140494241E+03  0.00000000000E+00 0.  1.
        -24    2    1    2    0    0  0.33739251938E+02 -0.20806237370E+03 -0.75740626525E+02  0.23796315830E+03  0.80383665838E+02 0.  0.
        254    2    1    2    0    0 -0.33739251938E+02  0.20806237370E+03  0.13321314215E+04  0.16212375215E+04  0.89967143360E+03 0.  0.
         23    2    4    4    0    0  0.20159103457E+03 -0.24818973575E+03  0.24044765705E+03  0.41054742078E+03  0.92179275218E+02 0.  0.
         23    2    4    4    0    0 -0.23533028650E+03  0.45625210945E+03  0.10916837644E+04  0.12106901007E+04  0.10222889641E+03 0.  0.
          1    1    3    3  502    0  0.36785997478E+02 -0.64486871761E+02  0.27748358072E+01  0.74293108387E+02  0.00000000000E+00 0. -1.
         -2    1    3    3    0  502 -0.30467455396E+01 -0.14357550194E+03 -0.78515462332E+02  0.16367004992E+03  0.00000000000E+00 0.  1.
         11    1    5    5    0    0  0.35397708616E+02 -0.88121439069E+02  0.33811879742E+02  0.10080490569E+03  0.00000000000E+00 0.  1.
        -11    1    5    5    0    0  0.16619332595E+03 -0.16006829668E+03  0.20663577731E+03  0.30974251509E+03  0.00000000000E+00 0. -1.
          2    1    6    6  503    0 -0.17793147713E+03  0.23540673541E+03  0.59991221189E+03  0.66855860147E+03  0.00000000000E+00 0. -1.
         -2    1    6    6    0  503 -0.57398809371E+02  0.22084537404E+03  0.49177155253E+03  0.54213149920E+03  0.00000000000E+00 0.  1.
<mgrwt>
<rscale>  0 0.13704413E+04</rscale>
<asrwt>0</asrwt>
<pdfrwt beam="1">  1        1 0.23966088E+00 0.13704413E+04</pdfrwt>
<pdfrwt beam="2">  1       -2 0.46369992E-01 0.13704413E+04</pdfrwt>
<totfact> 0.22561604E+01</totfact>
</mgrwt>
</event>
<event>
12    4  0.4413110E-008  0.1150982E+04  0.7818608E-02  0.9156878E-01
          3   -1    0    0  501    0  0.00000000000E+00  0.00000000000E+00  0.12078323239E+03  0.12078323239E+03  0.00000000000E+00 0. -1.
         -4   -1    0    0    0  501 -0.00000000000E+00 -0.00000000000E+00 -0.27420196912E+04  0.27420196912E+04  0.00000000000E+00 0.  1.
        -24    2    1    2    0    0 -0.20957091045E+03  0.20680766331E+03 -0.70379226432E+03  0.76699702146E+03  0.79192824755E+02 0.  0.
        254    2    1    2    0    0  0.20957091045E+03 -0.20680766331E+03 -0.19174441945E+04  0.20958059021E+04  0.79317133351E+03 0.  0.
         23    2    4    4    0    0  0.34453233264E+03 -0.22548202968E+03 -0.44162381606E+03  0.61109389022E+03  0.94124777865E+02 0.  0.
         23    2    4    4    0    0 -0.13496142219E+03  0.18674366368E+02 -0.14758203784E+04  0.14847120119E+04  0.88094559928E+02 0.  0.
          3    1    3    3  502    0 -0.14019013986E+03  0.13599537426E+03 -0.36466981253E+03  0.41368114449E+03  0.00000000000E+00 0. -1.
         -4    1    3    3    0  502 -0.69380770592E+02  0.70812289044E+02 -0.33912245179E+03  0.35331587697E+03  0.00000000000E+00 0.  1.
         11    1    5    5    0    0  0.20356377588E+03 -0.18643126641E+03 -0.29383674032E+03  0.40315612101E+03  0.00000000000E+00 0. -1.
        -11    1    5    5    0    0  0.14096855676E+03 -0.39050763264E+02 -0.14778707574E+03  0.20793776921E+03  0.00000000000E+00 0.  1.
          3    1    6    6  503    0 -0.12366623688E+03  0.46015887467E+02 -0.11474671125E+04  0.11550288197E+04  0.00000000000E+00 0. -1.
         -3    1    6    6    0  503 -0.11295185302E+02 -0.27341521099E+02 -0.32835326594E+03  0.32968319223E+03  0.00000000000E+00 0.  1.
<mgrwt>
<rscale>  0 0.11509822E+04</rscale>
<asrwt>0</asrwt>
<pdfrwt beam="1">  1        3 0.18582036E-01 0.11509822E+04</pdfrwt>
<pdfrwt beam="2">  1       -4 0.42184918E+00 0.11509822E+04</pdfrwt>
<totfact> 0.29243463E-01</totfact>
</mgrwt>
</event>
<event>
12    4  0.4413110E-008  0.2446581E+04  0.7818608E-02  0.8422267E-01
          1   -1    0    0  501    0  0.00000000000E+00  0.00000000000E+00  0.10283106737E+04  0.10283106737E+04  0.00000000000E+00 0. -1.
         -2   -1    0    0    0  501 -0.00000000000E+00 -0.00000000000E+00 -0.14552412894E+04  0.14552412894E+04  0.00000000000E+00 0.  1.
        -24    2    1    2    0    0 -0.67673377760E+03 -0.68351117393E+03  0.16131417765E+03  0.97889933870E+03  0.84056652210E+02 0.  0.
        254    2    1    2    0    0  0.67673377760E+03  0.68351117393E+03 -0.58824479337E+03  0.15046526244E+04  0.99638920737E+03 0.  0.
         23    2    4    4    0    0  0.54521519562E+03  0.13517431107E+03 -0.72049074004E+03  0.91828449839E+03  0.92778281955E+02 0.  0.
         23    2    4    4    0    0  0.13151858198E+03  0.54833686286E+03  0.13224594667E+03  0.58636812600E+03  0.91477517529E+02 0.  0.
          1    1    3    3  502    0 -0.62253431770E+03 -0.59353824266E+03  0.13559644738E+03  0.87076002364E+03  0.00000000000E+00 0. -1.
         -2    1    3    3    0  502 -0.54199459894E+02 -0.89972931264E+02  0.25717730270E+02  0.10813931507E+03  0.00000000000E+00 0.  1.
         11    1    5    5    0    0  0.25094497992E+03  0.93467276321E+02 -0.39824532270E+03  0.47990504451E+03  0.00000000000E+00 0. -1.
        -11    1    5    5    0    0  0.29427021570E+03  0.41707034749E+02 -0.32224541734E+03  0.43837945389E+03  0.00000000000E+00 0.  1.
          3    1    6    6  503    0  0.62147652459E+02  0.30675520922E+03  0.11843015430E+03  0.33464427462E+03  0.00000000000E+00 0. -1.
         -3    1    6    6    0  503  0.69370929518E+02  0.24158165364E+03  0.13815792361E+02  0.25172385139E+03  0.00000000000E+00 0.  1.
<mgrwt>
<rscale>  0 0.24465814E+04</rscale>
<asrwt>0</asrwt>
<pdfrwt beam="1">  1        1 0.15820164E+00 0.24465814E+04</pdfrwt>
<pdfrwt beam="2">  1       -2 0.22388328E+00 0.24465814E+04</pdfrwt>
<totfact> 0.10514700E+00</totfact>
</mgrwt>
</event>
<event>
12    4  0.4413110E-008  0.2493771E+04  0.7818608E-02  0.8405208E-01
          1   -1    0    0  501    0  0.00000000000E+00  0.00000000000E+00  0.73026241368E+03  0.73026241368E+03  0.00000000000E+00 0. -1.
         -2   -1    0    0    0  501 -0.00000000000E+00 -0.00000000000E+00 -0.21289925837E+04  0.21289925837E+04  0.00000000000E+00 0.  1.
        -24    2    1    2    0    0  0.89985884551E+03  0.57245186898E+03 -0.78049942087E+03  0.13240385910E+04  0.80322851519E+02 0.  0.
        254    2    1    2    0    0 -0.89985884551E+03 -0.57245186898E+03 -0.61823074913E+03  0.15352164063E+04  0.91500441031E+03 0.  0.
         23    2    4    4    0    0 -0.33840478724E+03 -0.61463470678E+03 -0.65380606854E+03  0.96328126406E+03  0.90303907038E+02 0.  0.
         23    2    4    4    0    0 -0.56145405827E+03  0.42182837800E+02  0.35575319406E+02  0.57193514225E+03  0.93990170948E+02 0.  0.
          3    1    3    3  502    0  0.60111130122E+03  0.39899283854E+03 -0.57031415466E+03  0.91966750332E+03  0.00000000000E+00 0. -1.
         -4    1    3    3    0  502  0.29874754429E+03  0.17345903044E+03 -0.21018526620E+03  0.40437108773E+03  0.00000000000E+00 0.  1.
         11    1    5    5    0    0 -0.21274642345E+03 -0.42438844105E+03 -0.49208862823E+03  0.68375273865E+03  0.00000000000E+00 0. -1.
        -11    1    5    5    0    0 -0.12565836379E+03 -0.19024626573E+03 -0.16171744031E+03  0.27952852540E+03  0.00000000000E+00 0.  1.
          1    1    6    6  503    0 -0.53538529299E+03  0.20563836793E+02  0.42152039412E+02  0.53743564988E+03  0.00000000000E+00 0. -1.
         -1    1    6    6    0  503 -0.26068765282E+02  0.21619001007E+02 -0.65767200057E+01  0.34499492372E+02  0.00000000000E+00 0.  1.
<mgrwt>
<rscale>  0 0.24937708E+04</rscale>
<asrwt>0</asrwt>
<pdfrwt beam="1">  1        1 0.11234806E+00 0.24937708E+04</pdfrwt>
<pdfrwt beam="2">  1       -2 0.32753732E+00 0.24937708E+04</pdfrwt>
<totfact> 0.42794428E-01</totfact>
</mgrwt>
</event>
<event>
12    4  0.4413110E-008  0.1193028E+04  0.7818608E-02  0.9118981E-01
          1   -1    0    0  501    0  0.00000000000E+00  0.00000000000E+00  0.64580586682E+03  0.64580586682E+03  0.00000000000E+00 0. -1.
         -2   -1    0    0    0  501 -0.00000000000E+00 -0.00000000000E+00 -0.55098460844E+03  0.55098460844E+03  0.00000000000E+00 0.  1.
        -24    2    1    2    0    0 -0.52088002453E+02 -0.14046488416E+03 -0.16895998558E+03  0.23949805062E+03  0.79801603007E+02 0.  0.
        254    2    1    2    0    0  0.52088002453E+02  0.14046488416E+03  0.26378124395E+03  0.95729242464E+03  0.90795633041E+03 0.  0.
         23    2    4    4    0    0  0.42806261606E+03  0.26139210280E+03  0.92139284129E+02  0.51801423245E+03  0.91025615454E+02 0.  0.
         23    2    4    4    0    0 -0.37597461360E+03 -0.12092721864E+03  0.17164195982E+03  0.43927819219E+03  0.86741371235E+02 0.  0.
          1    1    3    3  502    0 -0.47589831651E+02 -0.96890315893E+02 -0.63349116021E+02  0.12516243802E+03  0.00000000000E+00 0. -1.
         -2    1    3    3    0  502 -0.44981708016E+01 -0.43574568270E+02 -0.10561086955E+03  0.11433561260E+03  0.00000000000E+00 0.  1.
         11    1    5    5    0    0  0.39890905163E+03  0.24881424183E+03  0.10819486077E+03  0.48243454096E+03  0.00000000000E+00 0. -1.
        -11    1    5    5    0    0  0.29153564425E+02  0.12577860972E+02 -0.16055576645E+02  0.35579691492E+02  0.00000000000E+00 0.  1.
          3    1    6    6  503    0 -0.30345579647E+03 -0.11350945738E+03  0.10519172409E+03  0.34063927569E+03  0.00000000000E+00 0. -1.
         -3    1    6    6    0  503 -0.72518817132E+02 -0.74177612577E+01  0.66450235725E+02  0.98638916500E+02  0.00000000000E+00 0.  1.
<mgrwt>
<rscale>  0 0.11930282E+04</rscale>
<asrwt>0</asrwt>
<pdfrwt beam="1">  1        1 0.99354749E-01 0.11930282E+04</pdfrwt>
<pdfrwt beam="2">  1       -2 0.84766863E-01 0.11930282E+04</pdfrwt>
<totfact> 0.32329505E+01</totfact>
</mgrwt>
</event>
<event>
12    4  0.4413110E-008  0.3238125E+04  0.7818608E-02  0.8178820E-01
         -2   -1    0    0    0  501 -0.00000000000E+00  0.00000000000E+00  0.11145241308E+04  0.11145241308E+04  0.00000000000E+00 0.  1.
          1   -1    0    0  501    0  0.00000000000E+00 -0.00000000000E+00 -0.23520024639E+04  0.23520024639E+04  0.00000000000E+00 0. -1.
        -24    2    1    2    0    0  0.95791755440E+03 -0.71578468959E+02 -0.17950627287E+04  0.20374866318E+04  0.79825161379E+02 0.  0.
        254    2    1    2    0    0 -0.95791755440E+03  0.71578468959E+02  0.55758439562E+03  0.14290399629E+04  0.89918037064E+03 0.  0.
         23    2    4    4    0    0  0.89770678909E+02  0.80826830091E+02 -0.10256267952E+03  0.18721457345E+03  0.99691734997E+02 0.  0.
         23    2    4    4    0    0 -0.10476882333E+04 -0.92483611317E+01  0.66014707514E+03  0.12418253894E+04  0.92736026244E+02 0.  0.
          1    1    3    3  502    0  0.90812999874E+03 -0.70318341446E+02 -0.17341437693E+04  0.19588004942E+04  0.00000000000E+00 0. -1.
         -2    1    3    3    0  502  0.49787555664E+02 -0.12601275133E+01 -0.60918959483E+02  0.78686137565E+02  0.00000000000E+00 0.  1.
         11    1    5    5    0    0  0.35426421960E+02  0.70324727259E+02 -0.10566386298E+03  0.13177803526E+03  0.00000000000E+00 0. -1.
        -11    1    5    5    0    0  0.54344256948E+02  0.10502102831E+02  0.31011834636E+01  0.55436538186E+02  0.00000000000E+00 0.  1.
          3    1    6    6  503    0 -0.14956728670E+03  0.23120614957E+02  0.12132892807E+03  0.19397330970E+03  0.00000000000E+00 0. -1.
         -3    1    6    6    0  503 -0.89812094660E+03 -0.32368976089E+02  0.53881814708E+03  0.10478520797E+04  0.00000000000E+00 0.  1.
<mgrwt>
<rscale>  0 0.32381251E+04</rscale>
<asrwt>0</asrwt>
<pdfrwt beam="1">  1        1 0.36184653E+00 0.32381251E+04</pdfrwt>
<pdfrwt beam="2">  1       -2 0.17146525E+00 0.32381251E+04</pdfrwt>
<totfact> 0.26166882E-01</totfact>
</mgrwt>
</event>
<event>
12    4  0.4413110E-008  0.1166996E+04  0.7818608E-02  0.9142246E-01
          1   -1    0    0  501    0  0.00000000000E+00  0.00000000000E+00  0.10579248402E+04  0.10579248402E+04  0.00000000000E+00 0. -1.
         -2   -1    0    0    0  501 -0.00000000000E+00 -0.00000000000E+00 -0.32182815212E+03  0.32182815212E+03  0.00000000000E+00 0.  1.
        -24    2    1    2    0    0  0.10423192795E+01  0.88203223442E+02 -0.85312116402E+02  0.14601691207E+03  0.79132081678E+02 0.  0.
        254    2    1    2    0    0 -0.10423192795E+01 -0.88203223442E+02  0.82140880451E+03  0.12337360803E+04  0.91630311393E+03 0.  0.
         23    2    4    4    0    0 -0.37171775302E+03  0.50702547615E+02  0.71660963327E+03  0.81416256055E+03  0.92663219507E+02 0.  0.
         23    2    4    4    0    0  0.37067543374E+03 -0.13890577106E+03  0.10479917124E+03  0.41957351974E+03  0.91454807209E+02 0.  0.
          3    1    3    3  502    0 -0.21876550080E+02  0.90892387485E+02 -0.57009872685E+02  0.10949947548E+03  0.00000000000E+00 0. -1.
         -4    1    3    3    0  502  0.22918869360E+02 -0.26891640428E+01 -0.28302243717E+02  0.36517436594E+02  0.00000000000E+00 0.  1.
         11    1    5    5    0    0 -0.29582204590E+02 -0.46792436003E+01  0.12470226692E+03  0.12824842114E+03  0.00000000000E+00 0. -1.
        -11    1    5    5    0    0 -0.34213554843E+03  0.55381791215E+02  0.59190736635E+03  0.68591413941E+03  0.00000000000E+00 0.  1.
          4    1    6    6  503    0  0.86614150706E+02 -0.12202082048E+02 -0.99721562279E+01  0.88036048348E+02  0.00000000000E+00 0. -1.
         -4    1    6    6    0  503  0.28406128303E+03 -0.12670368901E+03  0.11477132747E+03  0.33153747139E+03  0.00000000000E+00 0.  1.
<mgrwt>
<rscale>  0 0.11669961E+04</rscale>
<asrwt>0</asrwt>
<pdfrwt beam="1">  1        1 0.16275767E+00 0.11669961E+04</pdfrwt>
<pdfrwt beam="2">  1       -2 0.49512024E-01 0.11669961E+04</pdfrwt>
<totfact> 0.45821061E+01</totfact>
</mgrwt>
</event>
<event>
12    4  0.4413110E-008  0.2322356E+04  0.7818608E-02  0.8469158E-01
         -2   -1    0    0    0  501 -0.00000000000E+00  0.00000000000E+00  0.54384464265E+03  0.54384464265E+03  0.00000000000E+00 0.  1.
          1   -1    0    0  501    0  0.00000000000E+00 -0.00000000000E+00 -0.24792636183E+04  0.24792636183E+04  0.00000000000E+00 0. -1.
        -24    2    1    2    0    0  0.39139648693E+03  0.61226405063E+03  0.26877283183E+02  0.73154132200E+03  0.79823804432E+02 0.  0.
        254    2    1    2    0    0 -0.39139648693E+03 -0.61226405063E+03 -0.19622962589E+04  0.22915669390E+04  0.93413807896E+03 0.  0.
         23    2    4    4    0    0 -0.17725415639E+03 -0.31263592997E+03 -0.18627210698E+04  0.18992579787E+04  0.91053968314E+02 0.  0.
         23    2    4    4    0    0 -0.21414233054E+03 -0.29962812066E+03 -0.99575189044E+02  0.39230896025E+03  0.91417468760E+02 0.  0.
          1    1    3    3  502    0  0.20411525395E+03  0.38592053799E+03  0.43146939447E+00  0.43657517646E+03  0.00000000000E+00 0. -1.
         -2    1    3    3    0  502  0.18728123298E+03  0.22634351264E+03  0.26445813789E+02  0.29496614553E+03  0.00000000000E+00 0.  1.
         11    1    5    5    0    0 -0.83658770704E+02 -0.21850159628E+03 -0.13172000834E+04  0.13378182975E+04  0.00000000000E+00 0.  1.
        -11    1    5    5    0    0 -0.93595385688E+02 -0.94134333691E+02 -0.54552098641E+03  0.56143968119E+03  0.00000000000E+00 0. -1.
          2    1    6    6  503    0 -0.27266222297E+02 -0.99967805164E+02 -0.80671638736E+01  0.10393309425E+03  0.00000000000E+00 0. -1.
         -2    1    6    6    0  503 -0.18687610825E+03 -0.19966031550E+03 -0.91508025171E+02  0.28837586600E+03  0.00000000000E+00 0.  1.
<mgrwt>
<rscale>  0 0.23223559E+04</rscale>
<asrwt>0</asrwt>
<pdfrwt beam="1">  1        1 0.38142516E+00 0.23223559E+04</pdfrwt>
<pdfrwt beam="2">  1       -2 0.83668408E-01 0.23223559E+04</pdfrwt>
<totfact> 0.13866651E+00</totfact>
</mgrwt>
</event>
<event>
12    4  0.4413110E-008  0.1471762E+04  0.7818608E-02  0.8903451E-01
         -2   -1    0    0    0  501 -0.00000000000E+00  0.00000000000E+00  0.17342386436E+03  0.17342386436E+03  0.00000000000E+00 0.  1.
          1   -1    0    0  501    0  0.00000000000E+00 -0.00000000000E+00 -0.31225291369E+04  0.31225291369E+04  0.00000000000E+00 0. -1.
        -24    2    1    2    0    0  0.15600765798E+03  0.17203711414E+02  0.26279469875E+02  0.17803046233E+03  0.79811515111E+02 0.  0.
        254    2    1    2    0    0 -0.15600765798E+03 -0.17203711414E+02 -0.29753847424E+04  0.31179225390E+04  0.91863607395E+03 0.  0.
         23    2    4    4    0    0 -0.19131303252E+03  0.37436393779E+03 -0.22219813337E+04  0.22632697827E+04  0.91869624445E+02 0.  0.
         23    2    4    4    0    0  0.35305374539E+02 -0.39156764920E+03 -0.75340340878E+03  0.85465275624E+03  0.90790660408E+02 0.  0.
          1    1    3    3  502    0  0.73463583845E+01  0.25481032270E+02 -0.15345139249E+01  0.26563258837E+02  0.00000000000E+00 0. -1.
         -2    1    3    3    0  502  0.14866129960E+03 -0.82773208560E+01  0.27813983800E+02  0.15146720349E+03  0.00000000000E+00 0.  1.
         11    1    5    5    0    0 -0.70766524486E+02  0.59730822724E+02 -0.42475163730E+03  0.43472937048E+03  0.00000000000E+00 0.  1.
        -11    1    5    5    0    0 -0.12054650803E+03  0.31463311506E+03 -0.17972296964E+04  0.18285404122E+04  0.00000000000E+00 0. -1.
          3    1    6    6  503    0  0.38517118064E+02 -0.34586949298E+03 -0.59038822290E+03  0.68532293723E+03  0.00000000000E+00 0. -1.
         -3    1    6    6    0  503 -0.32117435258E+01 -0.45698156226E+02 -0.16301518588E+03  0.16932981901E+03  0.00000000000E+00 0.  1.
<mgrwt>
<rscale>  0 0.14717623E+04</rscale>
<asrwt>0</asrwt>
<pdfrwt beam="1">  1        1 0.48038905E+00 0.14717623E+04</pdfrwt>
<pdfrwt beam="2">  1       -2 0.26680597E-01 0.14717623E+04</pdfrwt>
<totfact> 0.53093707E+00</totfact>
</mgrwt>
</event>
<event>
12    4  0.4413110E-008  0.1939601E+04  0.7818608E-02  0.8635392E-01
          1   -1    0    0  501    0  0.00000000000E+00  0.00000000000E+00  0.22370645639E+04  0.22370645639E+04  0.00000000000E+00 0. -1.
         -2   -1    0    0    0  501 -0.00000000000E+00 -0.00000000000E+00 -0.42042269841E+03  0.42042269841E+03  0.00000000000E+00 0.  1.
        -24    2    1    2    0    0  0.43701551478E+03 -0.59227533324E+03  0.47527272053E+03  0.87984655487E+03  0.80456017307E+02 0.  0.
        254    2    1    2    0    0 -0.43701551478E+03  0.59227533324E+03  0.13413691450E+04  0.17776407074E+04  0.90496556352E+03 0.  0.
         23    2    4    4    0    0  0.89743943854E+02  0.30645870845E+03  0.29845696007E+02  0.33280726906E+03  0.88876303538E+02 0.  0.
         23    2    4    4    0    0 -0.52675945864E+03  0.28581662479E+03  0.13115234490E+04  0.14448334384E+04  0.91012291499E+02 0.  0.
          3    1    3    3  502    0  0.10908228986E+03 -0.17372298823E+03  0.17213486815E+03  0.26778542797E+03  0.00000000000E+00 0. -1.
         -4    1    3    3    0  502  0.32793322492E+03 -0.41855234501E+03  0.30313785238E+03  0.61206112690E+03  0.00000000000E+00 0.  1.
         11    1    5    5    0    0  0.20573751557E+01  0.16199003652E+03  0.23424921004E+02  0.16368790929E+03  0.00000000000E+00 0.  1.
        -11    1    5    5    0    0  0.87686568699E+02  0.14446867193E+03  0.64207750030E+01  0.16911935978E+03  0.00000000000E+00 0. -1.
          2    1    6    6  503    0 -0.23265600315E+03  0.16402746948E+03  0.54564888222E+03  0.61544011018E+03  0.00000000000E+00 0. -1.
         -2    1    6    6    0  503 -0.29410345549E+03  0.12178915531E+03  0.76587456675E+03  0.82939332820E+03  0.00000000000E+00 0.  1.
<mgrwt>
<rscale>  0 0.19396007E+04</rscale>
<asrwt>0</asrwt>
<pdfrwt beam="1">  1        1 0.34416377E+00 0.19396007E+04</pdfrwt>
<pdfrwt beam="2">  1       -2 0.64680417E-01 0.19396007E+04</pdfrwt>
<totfact> 0.37146302E+00</totfact>
</mgrwt>
</event>
<event>
12    4  0.4413110E-008  0.1238055E+04  0.7818608E-02  0.9080184E-01
          1   -1    0    0  501    0  0.00000000000E+00  0.00000000000E+00  0.95976636325E+03  0.95976636325E+03  0.00000000000E+00 0. -1.
         -2   -1    0    0    0  501 -0.00000000000E+00 -0.00000000000E+00 -0.39925887547E+03  0.39925887547E+03  0.00000000000E+00 0.  1.
        -24    2    1    2    0    0 -0.17750575390E+03 -0.15353761488E+03  0.11954910101E+03  0.27666428897E+03  0.84670239079E+02 0.  0.
        254    2    1    2    0    0  0.17750575390E+03  0.15353761488E+03  0.44095838677E+03  0.10823609498E+04  0.96019728954E+03 0.  0.
         23    2    4    4    0    0  0.47745304528E+03  0.35525237622E+03  0.18327458138E+03  0.62897278323E+03  0.88608851701E+02 0.  0.
         23    2    4    4    0    0 -0.29994729138E+03 -0.20171476134E+03  0.25768380540E+03  0.45338816653E+03  0.92209887940E+02 0.  0.
          1    1    3    3  502    0 -0.73676375444E+01 -0.44692725600E+02  0.36935125790E+02  0.58445917922E+02  0.00000000000E+00 0. -1.
         -4    1    3    3    0  502 -0.17013811635E+03 -0.10884488928E+03  0.82613975222E+02  0.21821837104E+03  0.00000000000E+00 0.  1.
         11    1    5    5    0    0  0.45718700595E+03  0.35532630941E+03  0.18676959303E+03  0.60840745019E+03  0.00000000000E+00 0. -1.
        -11    1    5    5    0    0  0.20266039333E+02 -0.73933185756E-01 -0.34950116567E+01  0.20565333035E+02  0.00000000000E+00 0.  1.
          3    1    6    6  503    0 -0.25078649271E+03 -0.14012318455E+03  0.16336093293E+03  0.33047717952E+03  0.00000000000E+00 0. -1.
         -3    1    6    6    0  503 -0.49160798675E+02 -0.61591576793E+02  0.94322872467E+02  0.12291098701E+03  0.00000000000E+00 0.  1.
<mgrwt>
<rscale>  0 0.12380553E+04</rscale>
<asrwt>0</asrwt>
<pdfrwt beam="1">  1        1 0.14765636E+00 0.12380553E+04</pdfrwt>
<pdfrwt beam="2">  1       -2 0.61424443E-01 0.12380553E+04</pdfrwt>
<totfact> 0.34710498E+01</totfact>
</mgrwt>
</event>
<event>
12    4  0.4413110E-008  0.1969800E+04  0.7818608E-02  0.8620872E-01
         -2   -1    0    0    0  501 -0.00000000000E+00  0.00000000000E+00  0.10349022375E+04  0.10349022375E+04  0.00000000000E+00 0.  1.
          1   -1    0    0  501    0  0.00000000000E+00 -0.00000000000E+00 -0.93731347511E+03  0.93731347511E+03  0.00000000000E+00 0. -1.
        -24    2    1    2    0    0  0.22612912162E+03 -0.28458451861E+02 -0.70212004271E+03  0.74248766489E+03  0.79819264620E+02 0.  0.
        254    2    1    2    0    0 -0.22612912162E+03  0.28458451861E+02  0.79970880506E+03  0.12297280477E+04  0.90595399179E+03 0.  0.
         23    2    4    4    0    0  0.23812718119E+02 -0.12245922934E+03  0.89658353586E+03  0.90898846974E+03  0.82672201772E+02 0.  0.
         23    2    4    4    0    0 -0.24994183974E+03  0.15091768120E+03 -0.96874730800E+02  0.32073957795E+03  0.90785977130E+02 0.  0.
          3    1    3    3  502    0  0.17366003293E+03 -0.45430276845E+02 -0.60191131899E+03  0.62810743749E+03  0.00000000000E+00 0. -1.
         -4    1    3    3    0  502  0.52469088690E+02  0.16971824984E+02 -0.10020872372E+03  0.11438022740E+03  0.00000000000E+00 0.  1.
         11    1    5    5    0    0 -0.31885885246E+01 -0.16362331919E+02  0.22118437190E+02  0.27696899940E+02  0.00000000000E+00 0. -1.
        -11    1    5    5    0    0  0.27001306643E+02 -0.10609689742E+03  0.87446509867E+03  0.88129156980E+03  0.00000000000E+00 0.  1.
          4    1    6    6  503    0 -0.80433158236E+02  0.11189326801E+02 -0.14158825311E+01  0.81220063417E+02  0.00000000000E+00 0. -1.
         -4    1    6    6    0  503 -0.16950868150E+03  0.13972835440E+03 -0.95458848269E+02  0.23951951453E+03  0.00000000000E+00 0.  1.
<mgrwt>
<rscale>  0 0.19697998E+04</rscale>
<asrwt>0</asrwt>
<pdfrwt beam="1">  1        1 0.14420207E+00 0.19697998E+04</pdfrwt>
<pdfrwt beam="2">  1       -2 0.15921573E+00 0.19697998E+04</pdfrwt>
<totfact> 0.35304559E+00</totfact>
</mgrwt>
</event>
<event>
12    4  0.4413110E-008  0.1588754E+04  0.7818608E-02  0.8827487E-01
         -2   -1    0    0    0  501 -0.00000000000E+00  0.00000000000E+00  0.94674271998E+03  0.94674271998E+03  0.00000000000E+00 0.  1.
          1   -1    0    0  501    0  0.00000000000E+00 -0.00000000000E+00 -0.66653285883E+03  0.66653285883E+03  0.00000000000E+00 0. -1.
        -24    2    1    2    0    0 -0.18188587869E+03  0.42839950746E+03 -0.16158888598E+03  0.49890217968E+03  0.78637179237E+02 0.  0.
        254    2    1    2    0    0  0.18188587869E+03 -0.42839950746E+03  0.44179874713E+03  0.11143733991E+04  0.91106164933E+03 0.  0.
         23    2    4    4    0    0  0.39239409351E+03 -0.25521996421E+03  0.61420871493E+03  0.77640480751E+03  0.80260356838E+02 0.  0.
         23    2    4    4    0    0 -0.21050821481E+03 -0.17317954325E+03 -0.17240996780E+03  0.33796859162E+03  0.10095894822E+03 0.  0.
          1    1    3    3  502    0 -0.14337117698E+03  0.38709586205E+03 -0.12382695682E+03  0.43096591053E+03  0.00000000000E+00 0. -1.
         -2    1    3    3    0  502 -0.38514701718E+02  0.41303645412E+02 -0.37761929154E+02  0.67936269151E+02  0.00000000000E+00 0.  1.
         11    1    5    5    0    0  0.77258308349E+02 -0.64006773484E+02  0.18650618304E+03  0.21177882230E+03  0.00000000000E+00 0.  1.
        -11    1    5    5    0    0  0.31513578516E+03 -0.19121319073E+03  0.42770253189E+03  0.56462598521E+03  0.00000000000E+00 0. -1.
          1    1    6    6  503    0 -0.19152510390E+03 -0.14492130980E+03 -0.10433940606E+03  0.26186019765E+03  0.00000000000E+00 0. -1.
         -1    1    6    6    0  503 -0.18983110913E+02 -0.28258233447E+02 -0.68070561737E+02  0.76108393969E+02  0.00000000000E+00 0.  1.
<mgrwt>
<rscale>  0 0.15887544E+04</rscale>
<asrwt>0</asrwt>
<pdfrwt beam="1">  1        1 0.10254352E+00 0.15887544E+04</pdfrwt>
<pdfrwt beam="2">  1       -2 0.14565273E+00 0.15887544E+04</pdfrwt>
<totfact> 0.79833534E+00</totfact>
</mgrwt>
</event>
<event>
12    4  0.4413110E-008  0.2197570E+04  0.7818608E-02  0.8519440E-01
          1   -1    0    0  501    0  0.00000000000E+00  0.00000000000E+00  0.22698967918E+04  0.22698967918E+04  0.00000000000E+00 0. -1.
         -2   -1    0    0    0  501 -0.00000000000E+00 -0.00000000000E+00 -0.53188707878E+03  0.53188707878E+03  0.00000000000E+00 0.  1.
        -24    2    1    2    0    0 -0.10544442008E+03 -0.11762256915E+03 -0.43562558412E+03  0.47043550943E+03  0.81156173480E+02 0.  0.
        254    2    1    2    0    0  0.10544442008E+03  0.11762256915E+03  0.21736352972E+04  0.23313483612E+04  0.82797414308E+03 0.  0.
         23    2    4    4    0    0  0.37408516448E+03 -0.17232769514E+03  0.88105136491E+03  0.97670870114E+03  0.89843388663E+02 0.  0.
         23    2    4    4    0    0 -0.26864074440E+03  0.28995026429E+03  0.12925839323E+04  0.13546396601E+04  0.89645866076E+02 0.  0.
          3    1    3    3  502    0 -0.68892120960E+02 -0.17695909504E+02 -0.16837019828E+03  0.18277798886E+03  0.00000000000E+00 0. -1.
         -4    1    3    3    0  502 -0.36552299118E+02 -0.99926659650E+02 -0.26725538584E+03  0.28765752057E+03  0.00000000000E+00 0.  1.
         11    1    5    5    0    0  0.33722538573E+03 -0.16248112750E+03  0.84507688647E+03  0.92427053486E+03  0.00000000000E+00 0. -1.
        -11    1    5    5    0    0  0.36859778749E+02 -0.98465676381E+01  0.35974478439E+02  0.52438166278E+02  0.00000000000E+00 0.  1.
          3    1    6    6  503    0 -0.12042175690E+03  0.17605347898E+03  0.58109528167E+03  0.61900561659E+03  0.00000000000E+00 0. -1.
         -3    1    6    6    0  503 -0.14821898751E+03  0.11389678532E+03  0.71148865062E+03  0.73563404347E+03  0.00000000000E+00 0.  1.
<mgrwt>
<rscale>  0 0.21975703E+04</rscale>
<asrwt>0</asrwt>
<pdfrwt beam="1">  1        1 0.34921488E+00 0.21975703E+04</pdfrwt>
<pdfrwt beam="2">  1       -2 0.81828783E-01 0.21975703E+04</pdfrwt>
<totfact> 0.20539050E+00</totfact>
</mgrwt>
</event>
<event>
12    4  0.4413110E-008  0.1134735E+04  0.7818608E-02  0.9171983E-01
         -2   -1    0    0    0  501 -0.00000000000E+00  0.00000000000E+00  0.83191939638E+03  0.83191939638E+03  0.00000000000E+00 0.  1.
          1   -1    0    0  501    0  0.00000000000E+00 -0.00000000000E+00 -0.38694341980E+03  0.38694341980E+03  0.00000000000E+00 0. -1.
        -24    2    1    2    0    0 -0.18219938772E+03 -0.19052689492E+02  0.16774014954E+03  0.26066969214E+03  0.79071542083E+02 0.  0.
        254    2    1    2    0    0  0.18219938772E+03  0.19052689492E+02  0.27723582703E+03  0.95819312405E+03  0.89872951288E+03 0.  0.
         23    2    4    4    0    0  0.98715655902E+02 -0.28061313472E+03  0.48278150738E+03  0.57453349768E+03  0.92316000773E+02 0.  0.
         23    2    4    4    0    0  0.83483731818E+02  0.29966582421E+03 -0.20554568035E+03  0.38365962636E+03  0.90424236317E+02 0.  0.
          1    1    3    3  502    0  0.35062939888E+01 -0.13219785898E+02  0.99912527930E+01  0.16937590416E+02  0.00000000000E+00 0. -1.
         -2    1    3    3    0  502 -0.18570568171E+03 -0.58329035944E+01  0.15774889675E+03  0.24373210172E+03  0.00000000000E+00 0.  1.
         11    1    5    5    0    0 -0.36140650135E+01 -0.23373791284E+02  0.80647179788E+01  0.24988702667E+02  0.00000000000E+00 0. -1.
        -11    1    5    5    0    0  0.10232972092E+03 -0.25723934343E+03  0.47471678940E+03  0.54954479502E+03  0.00000000000E+00 0.  1.
          1    1    6    6  503    0  0.29708645122E+02  0.21292756164E+03 -0.10090566305E+03  0.23749253238E+03  0.00000000000E+00 0. -1.
         -1    1    6    6    0  503  0.53775086696E+02  0.86738262568E+02 -0.10464001730E+03  0.14616709398E+03  0.00000000000E+00 0.  1.
<mgrwt>
<rscale>  0 0.11347347E+04</rscale>
<asrwt>0</asrwt>
<pdfrwt beam="1">  1        1 0.59529757E-01 0.11347347E+04</pdfrwt>
<pdfrwt beam="2">  1       -2 0.12798760E+00 0.11347347E+04</pdfrwt>
<totfact> 0.24589549E+01</totfact>
</mgrwt>
</event>
<event>
12    4  0.4413110E-008  0.1376916E+04  0.7818608E-02  0.8970699E-01
         -2   -1    0    0    0  501 -0.00000000000E+00  0.00000000000E+00  0.66755317263E+03  0.66755317263E+03  0.00000000000E+00 0.  1.
          1   -1    0    0  501    0  0.00000000000E+00 -0.00000000000E+00 -0.71001751925E+03  0.71001751925E+03  0.00000000000E+00 0. -1.
        -24    2    1    2    0    0  0.29213095620E+02 -0.57204102614E+01  0.37789243761E+03  0.38602633096E+03  0.72989764640E+02 0.  0.
        254    2    1    2    0    0 -0.29213095620E+02  0.57204102614E+01 -0.42035678424E+03  0.99154436092E+03  0.89753789088E+03 0.  0.
         23    2    4    4    0    0 -0.31088364996E+03 -0.28155954113E+03 -0.41677740181E+02  0.43141754309E+03  0.91976320040E+02 0.  0.
         23    2    4    4    0    0  0.28167055434E+03  0.28727995139E+03 -0.37867904406E+03  0.56012681783E+03  0.92066074018E+02 0.  0.
          3    1    3    3  502    0 -0.22612612519E+02 -0.11154812221E+02  0.90452375239E+02  0.93900970532E+02  0.00000000000E+00 0. -1.
         -4    1    3    3    0  502  0.51825708139E+02  0.54344019600E+01  0.28744006237E+03  0.29212536043E+03  0.00000000000E+00 0.  1.
         11    1    5    5    0    0 -0.86861976562E+02 -0.12793310041E+03  0.98027025675E+01  0.15494506810E+03  0.00000000000E+00 0. -1.
        -11    1    5    5    0    0 -0.22402167339E+03 -0.15362644072E+03 -0.51480442748E+02  0.27647247499E+03  0.00000000000E+00 0.  1.
          1    1    6    6  503    0  0.44586213362E+01  0.40255288579E+02 -0.26739258294E+02  0.48532004872E+02  0.00000000000E+00 0. -1.
         -1    1    6    6    0  503  0.27721193300E+03  0.24702466281E+03 -0.35193978577E+03  0.51159481295E+03  0.00000000000E+00 0.  1.
<mgrwt>
<rscale>  0 0.13769160E+04</rscale>
<asrwt>0</asrwt>
<pdfrwt beam="1">  1        1 0.10923346E+00 0.13769160E+04</pdfrwt>
<pdfrwt beam="2">  1       -2 0.10270049E+00 0.13769160E+04</pdfrwt>
<totfact> 0.17676698E+01</totfact>
</mgrwt>
</event>
<event>
12    4  0.4413110E-008  0.1173028E+04  0.7818608E-02  0.9136798E-01
          3   -1    0    0  501    0  0.00000000000E+00  0.00000000000E+00  0.16245430360E+03  0.16245430360E+03  0.00000000000E+00 0. -1.
         -4   -1    0    0    0  501 -0.00000000000E+00 -0.00000000000E+00 -0.21175120160E+04  0.21175120160E+04  0.00000000000E+00 0.  1.
        -24    2    1    2    0    0  0.35924682486E+02  0.10979839061E+03 -0.78944031945E+03  0.80156465672E+03  0.77094821700E+02 0.  0.
        254    2    1    2    0    0 -0.35924682486E+02 -0.10979839061E+03 -0.11656173929E+04  0.14784016628E+04  0.90203176254E+03 0.  0.
         23    2    4    4    0    0 -0.62058626717E+02  0.37745688372E+03 -0.67318018298E+03  0.77874280991E+03  0.83329664617E+02 0.  0.
         23    2    4    4    0    0  0.26133944231E+02 -0.48725527433E+03 -0.49243720993E+03  0.69965885293E+03  0.94485021871E+02 0.  0.
          1    1    3    3  502    0 -0.23316070309E+02  0.19215865661E+02 -0.14732600923E+03  0.15039229243E+03  0.00000000000E+00 0. -1.
         -2    1    3    3    0  502  0.59240752795E+02  0.90582524948E+02 -0.64211431022E+03  0.65117236429E+03  0.00000000000E+00 0.  1.
         11    1    5    5    0    0 -0.12028050964E+01 -0.12112037740E+01 -0.28894249984E+02  0.28944627080E+02  0.00000000000E+00 0.  1.
        -11    1    5    5    0    0 -0.60855821620E+02  0.37866808750E+03 -0.64428593299E+03  0.74979818283E+03  0.00000000000E+00 0. -1.
          3    1    6    6  503    0  0.41150060867E+02 -0.93304743360E+02 -0.85556334213E+02  0.13311269273E+03  0.00000000000E+00 0. -1.
         -3    1    6    6    0  503 -0.15016116636E+02 -0.39395053097E+03 -0.40688087572E+03  0.56654616020E+03  0.00000000000E+00 0.  1.
<mgrwt>
<rscale>  0 0.11730285E+04</rscale>
<asrwt>0</asrwt>
<pdfrwt beam="1">  1        3 0.24992970E-01 0.11730285E+04</pdfrwt>
<pdfrwt beam="2">  1       -4 0.32577107E+00 0.11730285E+04</pdfrwt>
<totfact> 0.74566300E-01</totfact>
</mgrwt>
</event>
<event>
12    4  0.4413110E-008  0.1327436E+04  0.7818608E-02  0.9008087E-01
          1   -1    0    0  501    0  0.00000000000E+00  0.00000000000E+00  0.13085846571E+04  0.13085846571E+04  0.00000000000E+00 0. -1.
         -2   -1    0    0    0  501 -0.00000000000E+00 -0.00000000000E+00 -0.33663950159E+03  0.33663950159E+03  0.00000000000E+00 0.  1.
        -24    2    1    2    0    0 -0.18416429188E+03 -0.29036543443E+03  0.17507704129E+03  0.39367927925E+03  0.78120628585E+02 0.  0.
        254    2    1    2    0    0  0.18416429188E+03  0.29036543443E+03  0.79686811421E+03  0.12515448794E+04  0.90174121668E+03 0.  0.
         23    2    4    4    0    0 -0.61873867919E+02  0.55120295718E+03  0.31880833854E+03  0.64697968835E+03  0.96389236355E+02 0.  0.
         23    2    4    4    0    0  0.24603815980E+03 -0.26083752275E+03  0.47805977568E+03  0.60456519108E+03  0.91580193240E+02 0.  0.
          3    1    3    3  502    0 -0.29900007716E+01 -0.44169764278E+02  0.69302703509E+01  0.44810008125E+02  0.00000000000E+00 0. -1.
         -4    1    3    3    0  502 -0.18117429110E+03 -0.24619567015E+03  0.16814677094E+03  0.34886927113E+03  0.00000000000E+00 0.  1.
         11    1    5    5    0    0 -0.31630278620E+02  0.48244468573E+03  0.24640272763E+03  0.54264873859E+03  0.00000000000E+00 0. -1.
        -11    1    5    5    0    0 -0.30243589299E+02  0.68758271449E+02  0.72405610909E+02  0.10433094976E+03  0.00000000000E+00 0.  1.
          1    1    6    6  503    0  0.22949866742E+03 -0.22975526845E+03  0.37717452492E+03  0.49771251137E+03  0.00000000000E+00 0. -1.
         -1    1    6    6    0  503  0.16539492379E+02 -0.31082254303E+02  0.10088525076E+03  0.10685267971E+03  0.00000000000E+00 0.  1.
<mgrwt>
<rscale>  0 0.13274356E+04</rscale>
<asrwt>0</asrwt>
<pdfrwt beam="1">  1        1 0.20132071E+00 0.13274356E+04</pdfrwt>
<pdfrwt beam="2">  1       -2 0.51790693E-01 0.13274356E+04</pdfrwt>
<totfact> 0.27006333E+01</totfact>
</mgrwt>
</event>
<event>
12    4  0.4413110E-008  0.1924760E+04  0.7818608E-02  0.8642629E-01
         -2   -1    0    0    0  501 -0.00000000000E+00  0.00000000000E+00  0.46209258937E+03  0.46209258937E+03  0.00000000000E+00 0.  1.
          1   -1    0    0  501    0  0.00000000000E+00 -0.00000000000E+00 -0.20043061499E+04  0.20043061499E+04  0.00000000000E+00 0. -1.
        -24    2    1    2    0    0 -0.25933921267E+02  0.61871641069E+03 -0.70812168952E+02  0.62866060682E+03  0.81958710143E+02 0.  0.
        254    2    1    2    0    0  0.25933921267E+02 -0.61871641069E+03 -0.14714013916E+04  0.18377381324E+04  0.91037180490E+03 0.  0.
         23    2    4    4    0    0  0.19072787568E+03  0.55251303609E+02 -0.10865433223E+02  0.21808826710E+03  0.89524329065E+02 0.  0.
         23    2    4    4    0    0 -0.16479395441E+03 -0.67396771430E+03 -0.14605359584E+04  0.16196498654E+04  0.93332059436E+02 0.  0.
          3    1    3    3  502    0 -0.41610508389E+02  0.14976912132E+03 -0.16206365035E+02  0.15628458138E+03  0.00000000000E+00 0. -1.
         -4    1    3    3    0  502  0.15676587122E+02  0.46894728937E+03 -0.54605803917E+02  0.47237602544E+03  0.00000000000E+00 0.  1.
         11    1    5    5    0    0  0.14577793894E+03  0.69626319925E+02 -0.34672478302E+02  0.16523078605E+03  0.00000000000E+00 0.  1.
        -11    1    5    5    0    0  0.44949936740E+02 -0.14375016316E+02  0.23807045079E+02  0.52857481045E+02  0.00000000000E+00 0. -1.
          2    1    6    6  503    0 -0.58119104277E+02 -0.98207714724E+02 -0.21862644224E+03  0.24661732859E+03  0.00000000000E+00 0. -1.
         -2    1    6    6    0  503 -0.10667485014E+03 -0.57575999958E+03 -0.12419095161E+04  0.13730325368E+04  0.00000000000E+00 0.  1.
<mgrwt>
<rscale>  0 0.19247597E+04</rscale>
<asrwt>0</asrwt>
<pdfrwt beam="1">  1        1 0.30835479E+00 0.19247597E+04</pdfrwt>
<pdfrwt beam="2">  1       -2 0.71091167E-01 0.19247597E+04</pdfrwt>
<totfact> 0.43611997E+00</totfact>
</mgrwt>
</event>
<event>
12    4  0.4413110E-008  0.2792041E+04  0.7818608E-02  0.8305744E-01
         -2   -1    0    0    0  501 -0.00000000000E+00  0.00000000000E+00  0.26774122460E+04  0.26774122460E+04  0.00000000000E+00 0.  1.
          1   -1    0    0  501    0  0.00000000000E+00 -0.00000000000E+00 -0.72789411434E+03  0.72789411434E+03  0.00000000000E+00 0. -1.
        -24    2    1    2    0    0 -0.61472508515E+03  0.47568575020E+03 -0.31951108767E+03  0.84417174607E+03  0.79841959224E+02 0.  0.
        254    2    1    2    0    0  0.61472508515E+03 -0.47568575020E+03  0.22690292193E+04  0.25611346142E+04  0.89819432808E+03 0.  0.
         23    2    4    4    0    0  0.30844385201E+03  0.95556775334E+02  0.20170579818E+03  0.39247507362E+03  0.95303448197E+02 0.  0.
         23    2    4    4    0    0  0.30628123315E+03 -0.57124252554E+03  0.20673234211E+04  0.21686595406E+04  0.95560760268E+02 0.  0.
          1    1    3    3  502    0 -0.28305404096E+03  0.21973677272E+03 -0.19042357135E+03  0.40578932455E+03  0.00000000000E+00 0. -1.
         -2    1    3    3    0  502 -0.33167104419E+03  0.25594897748E+03 -0.12908751632E+03  0.43838242152E+03  0.00000000000E+00 0.  1.
         11    1    5    5    0    0  0.13176857525E+02  0.27625654187E+02  0.44210819816E+01  0.30924946393E+02  0.00000000000E+00 0. -1.
        -11    1    5    5    0    0  0.29526699448E+03  0.67931121147E+02  0.19728471620E+03  0.36155012722E+03  0.00000000000E+00 0.  1.
          2    1    6    6  503    0 -0.11116227358E+01 -0.50201761706E+02  0.16095224772E+03  0.16860331737E+03  0.00000000000E+00 0. -1.
         -2    1    6    6    0  503  0.30739285588E+03 -0.52104076383E+03  0.19063711734E+04  0.20000562233E+04  0.00000000000E+00 0.  1.
<mgrwt>
<rscale>  0 0.27920406E+04</rscale>
<asrwt>0</asrwt>
<pdfrwt beam="1">  1        1 0.11198371E+00 0.27920406E+04</pdfrwt>
<pdfrwt beam="2">  1       -2 0.41190957E+00 0.27920406E+04</pdfrwt>
<totfact> 0.12078259E-01</totfact>
</mgrwt>
</event>
<event>
12    4  0.4413110E-008  0.2321550E+04  0.7818608E-02  0.8469472E-01
         -2   -1    0    0    0  501 -0.00000000000E+00  0.00000000000E+00  0.95946110231E+03  0.95946110231E+03  0.00000000000E+00 0.  1.
          1   -1    0    0  501    0  0.00000000000E+00 -0.00000000000E+00 -0.14043283155E+04  0.14043283155E+04  0.00000000000E+00 0. -1.
        -24    2    1    2    0    0 -0.79667292475E+03 -0.58871024955E+02 -0.74221954200E+03  0.10934637684E+04  0.81361032359E+02 0.  0.
        254    2    1    2    0    0  0.79667292475E+03  0.58871024955E+02  0.29735232885E+03  0.12703256494E+04  0.94188921931E+03 0.  0.
         23    2    4    4    0    0  0.22670916990E+02  0.27891156156E+03  0.35213406239E+03  0.45886097683E+03  0.90826034349E+02 0.  0.
         23    2    4    4    0    0  0.77400200776E+03 -0.22004053660E+03 -0.54781733540E+02  0.81146467257E+03  0.89313664912E+02 0.  0.
          1    1    3    3  502    0 -0.70320333709E+03 -0.54472978444E+02 -0.68811284327E+03  0.98537379900E+03  0.00000000000E+00 0. -1.
         -2    1    3    3    0  502 -0.93469587658E+02 -0.43980465107E+01 -0.54106698734E+02  0.10808996937E+03  0.00000000000E+00 0.  1.
         11    1    5    5    0    0 -0.10172008428E+02  0.20180584300E+03  0.19519145928E+03  0.28094265216E+03  0.00000000000E+00 0.  1.
        -11    1    5    5    0    0  0.32842925418E+02  0.77105718553E+02  0.15694260310E+03  0.17791832467E+03  0.00000000000E+00 0. -1.
          2    1    6    6  503    0  0.27808955195E+03 -0.91998471327E+02 -0.61252853911E+02  0.29924810733E+03  0.00000000000E+00 0. -1.
         -2    1    6    6    0  503  0.49591245581E+03 -0.12804206527E+03  0.64711203705E+01  0.51221656524E+03  0.00000000000E+00 0.  1.
<mgrwt>
<rscale>  0 0.23215498E+04</rscale>
<asrwt>0</asrwt>
<pdfrwt beam="1">  1        1 0.21605051E+00 0.23215498E+04</pdfrwt>
<pdfrwt beam="2">  1       -2 0.14760940E+00 0.23215498E+04</pdfrwt>
<totfact> 0.18890173E+00</totfact>
</mgrwt>
</event>
<event>
12    4  0.4413110E-008  0.1465895E+04  0.7818608E-02  0.8907455E-01
         -2   -1    0    0    0  501 -0.00000000000E+00  0.00000000000E+00  0.37070259223E+03  0.37070259223E+03  0.00000000000E+00 0.  1.
          1   -1    0    0  501    0  0.00000000000E+00 -0.00000000000E+00 -0.14491726060E+04  0.14491726060E+04  0.00000000000E+00 0. -1.
        -24    2    1    2    0    0  0.13857107994E+03 -0.27407860124E+03 -0.78826605469E+03  0.84969346610E+03  0.79338448998E+02 0.  0.
        254    2    1    2    0    0 -0.13857107994E+03  0.27407860124E+03 -0.29020395911E+03  0.97018173218E+03  0.87333454742E+03 0.  0.
         23    2    4    4    0    0 -0.10194344287E+03 -0.26398723829E+03 -0.29775651858E+03  0.42108051364E+03  0.92564178172E+02 0.  0.
         23    2    4    4    0    0 -0.36627637073E+02  0.53806583953E+03  0.75525594711E+01  0.54910121854E+03  0.10294986925E+03 0.  0.
          1    1    3    3  502    0  0.13590098153E+03 -0.21967423892E+03 -0.58976240655E+03  0.64385211362E+03  0.00000000000E+00 0. -1.
         -2    1    3    3    0  502  0.26700984100E+01 -0.54404362323E+02 -0.19850364814E+03  0.20584135248E+03  0.00000000000E+00 0.  1.
         11    1    5    5    0    0 -0.11877537114E+03 -0.21422951952E+03 -0.23828721255E+03  0.34173479701E+03  0.00000000000E+00 0.  1.
        -11    1    5    5    0    0  0.16831928271E+02 -0.49757718768E+02 -0.59469306034E+02  0.79345716623E+02  0.00000000000E+00 0. -1.
          3    1    6    6  503    0  0.29442714621E+02  0.69552544682E+02 -0.59302312381E+01  0.75760131722E+02  0.00000000000E+00 0. -1.
         -3    1    6    6    0  503 -0.66070351694E+02  0.46851329485E+03  0.13482790709E+02  0.47334108682E+03  0.00000000000E+00 0.  1.
<mgrwt>
<rscale>  0 0.14658950E+04</rscale>
<asrwt>0</asrwt>
<pdfrwt beam="1">  1        1 0.22294963E+00 0.14658950E+04</pdfrwt>
<pdfrwt beam="2">  1       -2 0.57031168E-01 0.14658950E+04</pdfrwt>
<totfact> 0.17407633E+01</totfact>
</mgrwt>
</event>
<event>
12    4  0.4413110E-008  0.1879005E+04  0.7818608E-02  0.8665378E-01
          1   -1    0    0  501    0  0.00000000000E+00  0.00000000000E+00  0.12321289214E+04  0.12321289214E+04  0.00000000000E+00 0. -1.
         -2   -1    0    0    0  501 -0.00000000000E+00 -0.00000000000E+00 -0.71637411202E+03  0.71637411202E+03  0.00000000000E+00 0.  1.
        -24    2    1    2    0    0  0.37033014697E+02 -0.50365404884E+03  0.73670292108E+03  0.89679289732E+03  0.80420530154E+02 0.  0.
        254    2    1    2    0    0 -0.37033014697E+02  0.50365404884E+03 -0.22094811172E+03  0.10517101361E+04  0.89567700494E+03 0.  0.
         23    2    4    4    0    0  0.29042294721E+03  0.56256997014E+03  0.30301517545E+01  0.63966229274E+03  0.91259012535E+02 0.  0.
         23    2    4    4    0    0 -0.32745596191E+03 -0.58915921293E+02 -0.22397826347E+03  0.41204784334E+03  0.94438709873E+02 0.  0.
          3    1    3    3  502    0  0.43025525307E+02 -0.50160398157E+03  0.71700302210E+03  0.87609992801E+03  0.00000000000E+00 0. -1.
         -4    1    3    3    0  502 -0.59925106097E+01 -0.20500672693E+01  0.19699898982E+02  0.20692969316E+02  0.00000000000E+00 0.  1.
         11    1    5    5    0    0  0.27468851480E+03  0.45918893967E+03  0.35379570921E+01  0.53508950617E+03  0.00000000000E+00 0. -1.
        -11    1    5    5    0    0  0.15734432409E+02  0.10338103047E+03 -0.50780533754E+00  0.10457278657E+03  0.00000000000E+00 0.  1.
          3    1    6    6  503    0 -0.30951417680E+03 -0.58534928735E+02 -0.23314598498E+03  0.39189592220E+03  0.00000000000E+00 0. -1.
         -3    1    6    6    0  503 -0.17941785106E+02 -0.38099255764E+00  0.91677215066E+01  0.20151921143E+02  0.00000000000E+00 0.  1.
<mgrwt>
<rscale>  0 0.18790053E+04</rscale>
<asrwt>0</asrwt>
<pdfrwt beam="1">  1        1 0.18955830E+00 0.18790053E+04</pdfrwt>
<pdfrwt beam="2">  1       -2 0.11021140E+00 0.18790053E+04</pdfrwt>
<totfact> 0.54439927E+00</totfact>
</mgrwt>
</event>
<event>
12    4  0.4413110E-008  0.2164971E+04  0.7818608E-02  0.8533151E-01
         -2   -1    0    0    0  501 -0.00000000000E+00  0.00000000000E+00  0.13829317877E+04  0.13829317877E+04  0.00000000000E+00 0.  1.
          1   -1    0    0  501    0  0.00000000000E+00 -0.00000000000E+00 -0.84731187602E+03  0.84731187602E+03  0.00000000000E+00 0. -1.
        -24    2    1    2    0    0  0.56182425462E+03  0.25958890805E+03 -0.43776412357E+03  0.76241972554E+03  0.81323525166E+02 0.  0.
        254    2    1    2    0    0 -0.56182425462E+03 -0.25958890805E+03  0.97338403526E+03  0.14678239382E+04  0.90774321215E+03 0.  0.
         23    2    4    4    0    0 -0.66891229594E+03 -0.45238202302E+03  0.54771544422E+03  0.97991329860E+03  0.90248049964E+02 0.  0.
         23    2    4    4    0    0  0.10708804133E+03  0.19279311497E+03  0.42566859104E+03  0.48791063960E+03  0.90697348711E+02 0.  0.
          3    1    3    3  502    0  0.15662429716E+03  0.85952614995E+02 -0.17011484108E+03  0.24669430809E+03  0.00000000000E+00 0. -1.
         -2    1    3    3    0  502  0.40519995746E+03  0.17363629305E+03 -0.26764928248E+03  0.51572541745E+03  0.00000000000E+00 0.  1.
         11    1    5    5    0    0 -0.59238233471E+03 -0.38321492283E+03  0.50795428335E+03  0.86936072003E+03  0.00000000000E+00 0. -1.
        -11    1    5    5    0    0 -0.76529961231E+02 -0.69167100187E+02  0.39761160866E+02  0.11055257857E+03  0.00000000000E+00 0.  1.
          3    1    6    6  503    0  0.91135980189E+02  0.19069397024E+03  0.42113439592E+03  0.47119437242E+03  0.00000000000E+00 0. -1.
         -3    1    6    6    0  503  0.15952061137E+02  0.20991447279E+01  0.45341951179E+01  0.16716267181E+02  0.00000000000E+00 0.  1.
<mgrwt>
<rscale>  0 0.21649707E+04</rscale>
<asrwt>0</asrwt>
<pdfrwt beam="1">  1        1 0.13035567E+00 0.21649707E+04</pdfrwt>
<pdfrwt beam="2">  1       -2 0.21275874E+00 0.21649707E+04</pdfrwt>
<totfact> 0.17732657E+00</totfact>
</mgrwt>
</event>
<event>
12    4  0.4413110E-008  0.1646379E+04  0.7818608E-02  0.8792551E-01
         -2   -1    0    0    0  501 -0.00000000000E+00  0.00000000000E+00  0.55324194849E+03  0.55324194849E+03  0.00000000000E+00 0.  1.
          1   -1    0    0  501    0  0.00000000000E+00 -0.00000000000E+00 -0.12248548028E+04  0.12248548028E+04  0.00000000000E+00 0. -1.
        -24    2    1    2    0    0  0.29593685356E+03 -0.59109098164E+02  0.28327057346E+03  0.42112514484E+03  0.77663782077E+02 0.  0.
        254    2    1    2    0    0 -0.29593685356E+03  0.59109098164E+02 -0.95488342779E+03  0.13569716065E+04  0.91569485818E+03 0.  0.
         23    2    4    4    0    0 -0.54792491686E+03  0.95163785100E+02 -0.27823601730E+03  0.62821095606E+03  0.89195647224E+02 0.  0.
         23    2    4    4    0    0  0.25198806330E+03 -0.36054686935E+02 -0.67664741049E+03  0.72876065040E+03  0.91882767462E+02 0.  0.
          3    1    3    3  502    0  0.38950154333E+02  0.17118397218E+02  0.51195688971E+02  0.66566903301E+02  0.00000000000E+00 0. -1.
         -4    1    3    3    0  502  0.25698669923E+03 -0.76227495382E+02  0.23207488449E+03  0.35455824154E+03  0.00000000000E+00 0.  1.
         11    1    5    5    0    0 -0.21932697673E+02 -0.11893755368E+02 -0.22625002385E+02  0.33680786465E+02  0.00000000000E+00 0. -1.
        -11    1    5    5    0    0 -0.52599221919E+03  0.10705754047E+03 -0.25561101491E+03  0.59453016959E+03  0.00000000000E+00 0.  1.
          2    1    6    6  503    0  0.20908058872E+03 -0.55870832527E+02 -0.60840666087E+03  0.64575142857E+03  0.00000000000E+00 0.  1.
         -2    1    6    6    0  503  0.42907474577E+02  0.19816145592E+02 -0.68240749621E+02  0.83009221834E+02  0.00000000000E+00 0. -1.
<mgrwt>
<rscale>  0 0.16463791E+04</rscale>
<asrwt>0</asrwt>
<pdfrwt beam="1">  1        1 0.18843920E+00 0.16463791E+04</pdfrwt>
<pdfrwt beam="2">  1       -2 0.85114146E-01 0.16463791E+04</pdfrwt>
<totfact> 0.10321669E+01</totfact>
</mgrwt>
</event>
<event>
12    4  0.4413110E-008  0.1693105E+04  0.7818608E-02  0.8765307E-01
          1   -1    0    0  501    0  0.00000000000E+00  0.00000000000E+00  0.54821416710E+03  0.54821416710E+03  0.00000000000E+00 0. -1.
         -2   -1    0    0    0  501 -0.00000000000E+00 -0.00000000000E+00 -0.13072463324E+04  0.13072463324E+04  0.00000000000E+00 0.  1.
        -24    2    1    2    0    0  0.12754274880E+03  0.35672447135E+03  0.24158235196E+03  0.45631651670E+03  0.79644393443E+02 0.  0.
        254    2    1    2    0    0 -0.12754274880E+03 -0.35672447135E+03 -0.10006145173E+04  0.13991439828E+04  0.90158469999E+03 0.  0.
         23    2    4    4    0    0  0.22358022681E+03 -0.10432836218E+03  0.42021949958E+02  0.26651617552E+03  0.91610602866E+02 0.  0.
         23    2    4    4    0    0 -0.35112297561E+03 -0.25239610916E+03 -0.10426364673E+04  0.11326278073E+04  0.93615207913E+02 0.  0.
          3    1    3    3  502    0  0.12628663695E+03  0.31071061470E+03  0.23565446847E+03  0.40990539063E+03  0.00000000000E+00 0. -1.
         -4    1    3    3    0  502  0.12561118486E+01  0.46013856647E+02  0.59278834946E+01  0.46411126072E+02  0.00000000000E+00 0.  1.
         11    1    5    5    0    0  0.14563143540E+03 -0.35069450465E+02  0.58762601503E+02  0.16090812493E+03  0.00000000000E+00 0.  1.
        -11    1    5    5    0    0  0.77948791406E+02 -0.69258911719E+02 -0.16740651545E+02  0.10560805058E+03  0.00000000000E+00 0. -1.
          1    1    6    6  503    0 -0.20998659108E+03 -0.12421301785E+03 -0.68819720633E+03  0.73016343173E+03  0.00000000000E+00 0. -1.
         -1    1    6    6    0  503 -0.14113638452E+03 -0.12818309132E+03 -0.35443926093E+03  0.40246437560E+03  0.00000000000E+00 0.  1.
<mgrwt>
<rscale>  0 0.16931048E+04</rscale>
<asrwt>0</asrwt>
<pdfrwt beam="1">  1        1 0.84340641E-01 0.16931048E+04</pdfrwt>
<pdfrwt beam="2">  1       -2 0.20111482E+00 0.16931048E+04</pdfrwt>
<totfact> 0.42427109E+00</totfact>
</mgrwt>
</event>
<event>
12    4  0.4413110E-008  0.2956261E+04  0.7818608E-02  0.8256332E-01
          1   -1    0    0  501    0  0.00000000000E+00  0.00000000000E+00  0.17092583272E+04  0.17092583272E+04  0.00000000000E+00 0. -1.
         -2   -1    0    0    0  501 -0.00000000000E+00 -0.00000000000E+00 -0.12782559346E+04  0.12782559346E+04  0.00000000000E+00 0.  1.
        -24    2    1    2    0    0 -0.21446520536E+03 -0.94794256759E+03  0.11234028141E+04  0.14876342467E+04  0.80195594774E+02 0.  0.
        254    2    1    2    0    0  0.21446520536E+03  0.94794256759E+03 -0.69240042144E+03  0.14998800151E+04  0.90864254816E+03 0.  0.
         23    2    4    4    0    0  0.53447840371E+03  0.79588147659E+03 -0.47088796746E+03  0.10719819289E+04  0.91188207696E+02 0.  0.
         23    2    4    4    0    0 -0.32001319836E+03  0.15206109100E+03 -0.22151245398E+03  0.42789808618E+03  0.92184501783E+02 0.  0.
          1    1    3    3  502    0 -0.20456360992E+03 -0.90158965351E+03  0.10384691800E+04  0.13903698830E+04  0.00000000000E+00 0. -1.
         -2    1    3    3    0  502 -0.99015954331E+01 -0.46352914076E+02  0.84933634102E+02  0.97264363655E+02  0.00000000000E+00 0.  1.
         11    1    5    5    0    0  0.34208469912E+02  0.19380601540E+02 -0.19766422473E+02  0.44006119882E+02  0.00000000000E+00 0.  1.
        -11    1    5    5    0    0  0.50026993380E+03  0.77650087505E+03 -0.45112154499E+03  0.10279758090E+04  0.00000000000E+00 0. -1.
          2    1    6    6  503    0 -0.17286662512E+03  0.98428903443E+02 -0.72515505515E+02  0.21173005846E+03  0.00000000000E+00 0. -1.
         -2    1    6    6    0  503 -0.14714657323E+03  0.53632187554E+02 -0.14899694847E+03  0.21616802772E+03  0.00000000000E+00 0.  1.
<mgrwt>
<rscale>  0 0.29562609E+04</rscale>
<asrwt>0</asrwt>
<pdfrwt beam="1">  1        1 0.26296282E+00 0.29562609E+04</pdfrwt>
<pdfrwt beam="2">  1       -2 0.19665476E+00 0.29562609E+04</pdfrwt>
<totfact> 0.49337516E-01</totfact>
</mgrwt>
</event>
<event>
12    4  0.4413110E-008  0.1404537E+04  0.7818608E-02  0.8950541E-01
         -2   -1    0    0    0  501 -0.00000000000E+00  0.00000000000E+00  0.56967897539E+03  0.56967897539E+03  0.00000000000E+00 0.  1.
          1   -1    0    0  501    0  0.00000000000E+00 -0.00000000000E+00 -0.86571709747E+03  0.86571709747E+03  0.00000000000E+00 0. -1.
        -24    2    1    2    0    0  0.39948204684E+03  0.81632566411E+02 -0.16674813734E+03  0.44706874926E+03  0.76261022881E+02 0.  0.
        254    2    1    2    0    0 -0.39948204684E+03 -0.81632566411E+02 -0.12928998474E+03  0.98832732360E+03  0.89096869573E+03 0.  0.
         23    2    4    4    0    0 -0.55431865539E+03  0.17878276242E+03 -0.26135474936E+03  0.64508009042E+03  0.92679934110E+02 0.  0.
         23    2    4    4    0    0  0.15483660855E+03 -0.26041532883E+03  0.13206476462E+03  0.34324723318E+03  0.92666294820E+02 0.  0.
          3    1    3    3  502    0  0.30413753445E+03  0.32292676288E+02 -0.14037152690E+03  0.33652135500E+03  0.00000000000E+00 0. -1.
         -4    1    3    3    0  502  0.95344512390E+02  0.49339890124E+02 -0.26376610441E+02  0.11054739426E+03  0.00000000000E+00 0.  1.
         11    1    5    5    0    0 -0.55462209800E+03  0.18240243360E+03 -0.25365530406E+03  0.63656683282E+03  0.00000000000E+00 0. -1.
        -11    1    5    5    0    0  0.30344260592E+00 -0.36196711863E+01 -0.76994453038E+01  0.85132575962E+01  0.00000000000E+00 0.  1.
          3    1    6    6  503    0  0.28755988780E+02 -0.11194210229E+03  0.83256988735E+02  0.14244180330E+03  0.00000000000E+00 0. -1.
         -3    1    6    6    0  503  0.12608061977E+03 -0.14847322654E+03  0.48807775888E+02  0.20080542988E+03  0.00000000000E+00 0.  1.
<mgrwt>
<rscale>  0 0.14045367E+04</rscale>
<asrwt>0</asrwt>
<pdfrwt beam="1">  1        1 0.13318725E+00 0.14045367E+04</pdfrwt>
<pdfrwt beam="2">  1       -2 0.87642920E-01 0.14045367E+04</pdfrwt>
<totfact> 0.18642956E+01</totfact>
</mgrwt>
</event>
<event>
12    4  0.4413110E-008  0.1386229E+04  0.7818608E-02  0.8963847E-01
          1   -1    0    0  501    0  0.00000000000E+00  0.00000000000E+00  0.26134365403E+03  0.26134365403E+03  0.00000000000E+00 0. -1.
         -2   -1    0    0    0  501 -0.00000000000E+00 -0.00000000000E+00 -0.18382224107E+04  0.18382224107E+04  0.00000000000E+00 0.  1.
        -24    2    1    2    0    0 -0.57040835677E+02 -0.38443180067E+03 -0.71665690847E+03  0.81924885688E+03  0.80809026299E+02 0.  0.
        254    2    1    2    0    0  0.57040835677E+02  0.38443180067E+03 -0.86022184821E+03  0.12803172079E+04  0.86497922420E+03 0.  0.
         23    2    4    4    0    0  0.30313245992E+03  0.37129381422E+02 -0.27145355649E+01  0.31866163730E+03  0.90939491731E+02 0.  0.
         23    2    4    4    0    0 -0.24609162425E+03  0.34730241924E+03 -0.85750731265E+03  0.96165557056E+03  0.91008720567E+02 0.  0.
          1    1    3    3  502    0 -0.48204141414E+02 -0.91421405475E+02 -0.16992682989E+03  0.19888851185E+03  0.00000000000E+00 0. -1.
         -2    1    3    3    0  502 -0.88366942630E+01 -0.29301039519E+03 -0.54673007859E+03  0.62036034503E+03  0.00000000000E+00 0.  1.
         11    1    5    5    0    0  0.13340708547E+03  0.33713964375E+02  0.40594925033E+02  0.14346438508E+03  0.00000000000E+00 0.  1.
        -11    1    5    5    0    0  0.16972537445E+03  0.34154170471E+01 -0.43309460598E+02  0.17519725222E+03  0.00000000000E+00 0. -1.
          4    1    6    6  503    0 -0.70340051028E+02  0.12172407292E+03 -0.19813647091E+03  0.24294553672E+03  0.00000000000E+00 0. -1.
         -4    1    6    6    0  503 -0.17575157322E+03  0.22557834632E+03 -0.65937084173E+03  0.71871003384E+03  0.00000000000E+00 0.  1.
<mgrwt>
<rscale>  0 0.13862291E+04</rscale>
<asrwt>0</asrwt>
<pdfrwt beam="1">  1        1 0.40206718E-01 0.13862291E+04</pdfrwt>
<pdfrwt beam="2">  1       -2 0.28280344E+00 0.13862291E+04</pdfrwt>
<totfact> 0.36329497E+00</totfact>
</mgrwt>
</event>
<event>
12    4  0.4413110E-008  0.1385716E+04  0.7818608E-02  0.8964224E-01
         -2   -1    0    0    0  501 -0.00000000000E+00  0.00000000000E+00  0.65541802307E+03  0.65541802307E+03  0.00000000000E+00 0.  1.
          1   -1    0    0  501    0  0.00000000000E+00 -0.00000000000E+00 -0.73243633403E+03  0.73243633403E+03  0.00000000000E+00 0. -1.
        -24    2    1    2    0    0 -0.38919199663E+03  0.45913180410E+02 -0.25384727786E+02  0.40097880167E+03  0.81001139515E+02 0.  0.
        254    2    1    2    0    0  0.38919199663E+03 -0.45913180410E+02 -0.51633583175E+02  0.98687555543E+03  0.90425599507E+03 0.  0.
         23    2    4    4    0    0  0.31545690709E+03  0.17517584327E+03 -0.40780928717E+03  0.55217388789E+03  0.91585760157E+02 0.  0.
         23    2    4    4    0    0  0.73735089537E+02 -0.22108902368E+03  0.35617570399E+03  0.43470166754E+03  0.88245044215E+02 0.  0.
          1    1    3    3  502    0 -0.29814605900E+03  0.65337673194E+02 -0.35752937481E+02  0.30730824358E+03  0.00000000000E+00 0. -1.
         -2    1    3    3    0  502 -0.91045937634E+02 -0.19424492784E+02  0.10368209695E+02  0.93670558085E+02  0.00000000000E+00 0.  1.
         11    1    5    5    0    0  0.21873023795E+03  0.12608329531E+03 -0.21802915104E+03  0.33358151186E+03  0.00000000000E+00 0.  1.
        -11    1    5    5    0    0  0.96726669142E+02  0.49092547961E+02 -0.18978013613E+03  0.21859237603E+03  0.00000000000E+00 0. -1.
          1    1    6    6  503    0  0.92212230675E+02 -0.15829280762E+03  0.24924243554E+03  0.30932426369E+03  0.00000000000E+00 0. -1.
         -1    1    6    6    0  503 -0.18477141138E+02 -0.62796216064E+02  0.10693326845E+03  0.12537740386E+03  0.00000000000E+00 0.  1.
<mgrwt>
<rscale>  0 0.13857157E+04</rscale>
<asrwt>0</asrwt>
<pdfrwt beam="1">  1        1 0.11268251E+00 0.13857157E+04</pdfrwt>
<pdfrwt beam="2">  1       -2 0.10083354E+00 0.13857157E+04</pdfrwt>
<totfact> 0.17594859E+01</totfact>
</mgrwt>
</event>
<event>
12    4  0.4413110E-008  0.1482641E+04  0.7818608E-02  0.8896079E-01
         -2   -1    0    0    0  501 -0.00000000000E+00  0.00000000000E+00  0.21607612900E+03  0.21607612900E+03  0.00000000000E+00 0.  1.
          1   -1    0    0  501    0  0.00000000000E+00 -0.00000000000E+00 -0.25433459682E+04  0.25433459682E+04  0.00000000000E+00 0. -1.
        -24    2    1    2    0    0  0.24238608381E+03  0.33084747574E+03 -0.33842935809E+03  0.53773821922E+03  0.80105531409E+02 0.  0.
        254    2    1    2    0    0 -0.24238608381E+03 -0.33084747574E+03 -0.19888404811E+04  0.22216838780E+04  0.90121125636E+03 0.  0.
         23    2    4    4    0    0 -0.20100257368E+03  0.24395453654E+03 -0.33926293012E+03  0.47248170838E+03  0.90685051013E+02 0.  0.
         23    2    4    4    0    0 -0.41383510127E+02 -0.57480201228E+03 -0.16495775510E+04  0.17492021696E+04  0.80574097585E+02 0.  0.
          3    1    3    3  502    0  0.57437657070E+02  0.14321569243E+03 -0.11880788056E+03  0.19474375854E+03  0.00000000000E+00 0. -1.
         -4    1    3    3    0  502  0.18494842674E+03  0.18763178331E+03 -0.21962147753E+03  0.34299446067E+03  0.00000000000E+00 0.  1.
         11    1    5    5    0    0 -0.55588998332E+02  0.45943816558E+02 -0.31516634686E+02  0.78703680203E+02  0.00000000000E+00 0. -1.
        -11    1    5    5    0    0 -0.14541357535E+03  0.19801071998E+03 -0.30774629543E+03  0.39377802818E+03  0.00000000000E+00 0.  1.
          1    1    6    6  503    0 -0.52228070392E+02 -0.20589446262E+03 -0.57117671934E+03  0.60939572183E+03  0.00000000000E+00 0. -1.
         -1    1    6    6    0  503  0.10844560265E+02 -0.36890754966E+03 -0.10784008317E+04  0.11398064478E+04  0.00000000000E+00 0.  1.
<mgrwt>
<rscale>  0 0.14826414E+04</rscale>
<asrwt>0</asrwt>
<pdfrwt beam="1">  1        1 0.39128397E+00 0.14826414E+04</pdfrwt>
<pdfrwt beam="2">  1       -2 0.33242483E-01 0.14826414E+04</pdfrwt>
<totfact> 0.91139315E+00</totfact>
</mgrwt>
</event>
<event>
12    4  0.4413110E-008  0.1722045E+04  0.7818608E-02  0.8748890E-01
          1   -1    0    0  501    0  0.00000000000E+00  0.00000000000E+00  0.12964824772E+04  0.12964824772E+04  0.00000000000E+00 0. -1.
         -2   -1    0    0    0  501 -0.00000000000E+00 -0.00000000000E+00 -0.57182394380E+03  0.57182394380E+03  0.00000000000E+00 0.  1.
        -24    2    1    2    0    0 -0.13005019682E+03 -0.11669716308E+03 -0.37880033902E+03  0.42484202993E+03  0.80434892874E+02 0.  0.
        254    2    1    2    0    0  0.13005019682E+03  0.11669716308E+03  0.11034588724E+04  0.14434643911E+04  0.91402225553E+03 0.  0.
         23    2    4    4    0    0  0.12618336707E+03 -0.35365692186E+03  0.76303190514E+03  0.85528354661E+03  0.91086751719E+02 0.  0.
         23    2    4    4    0    0  0.38668297556E+01  0.47035408494E+03  0.34042696726E+03  0.58818084444E+03  0.93905634202E+02 0.  0.
          1    1    3    3  502    0 -0.64160824982E+01  0.46409158466E+01  0.41934817271E+00  0.79296952910E+01  0.00000000000E+00 0. -1.
         -2    1    3    3    0  502 -0.12363411432E+03 -0.12133807892E+03 -0.37921968719E+03  0.41691233464E+03  0.00000000000E+00 0.  1.
         11    1    5    5    0    0  0.52382285769E+02 -0.24546585889E+03  0.43732851391E+03  0.50423567984E+03  0.00000000000E+00 0.  1.
        -11    1    5    5    0    0  0.73801081297E+02 -0.10819106297E+03  0.32570339123E+03  0.35104786678E+03  0.00000000000E+00 0. -1.
          3    1    6    6  503    0  0.14975773218E+01  0.24097894937E+02  0.50592499675E+02  0.56058472166E+02  0.00000000000E+00 0. -1.
         -3    1    6    6    0  503  0.23692524337E+01  0.44625619000E+03  0.28983446759E+03  0.53212237227E+03  0.00000000000E+00 0.  1.
<mgrwt>
<rscale>  0 0.17220450E+04</rscale>
<asrwt>0</asrwt>
<pdfrwt beam="1">  1        1 0.19945884E+00 0.17220450E+04</pdfrwt>
<pdfrwt beam="2">  1       -2 0.87972915E-01 0.17220450E+04</pdfrwt>
<totfact> 0.84437847E+00</totfact>
</mgrwt>
</event>
<event>
12    4  0.4413110E-008  0.1446325E+04  0.7818608E-02  0.8920952E-01
         -2   -1    0    0    0  501 -0.00000000000E+00  0.00000000000E+00  0.84052446086E+03  0.84052446086E+03  0.00000000000E+00 0.  1.
          1   -1    0    0  501    0  0.00000000000E+00 -0.00000000000E+00 -0.62218777349E+03  0.62218777349E+03  0.00000000000E+00 0. -1.
        -24    2    1    2    0    0 -0.27606246292E+03  0.23400106441E+03  0.32570946738E+03  0.49336224082E+03  0.79703588050E+02 0.  0.
        254    2    1    2    0    0  0.27606246292E+03 -0.23400106441E+03 -0.10737278000E+03  0.96934999353E+03  0.89282893910E+03 0.  0.
         23    2    4    4    0    0 -0.13442917819E+03  0.26529860283E+03 -0.40225423738E+02  0.31308178180E+03  0.89149115346E+02 0.  0.
         23    2    4    4    0    0  0.41049164111E+03 -0.49929966724E+03 -0.67147356264E+02  0.65626821173E+03  0.91518594539E+02 0.  0.
          3    1    3    3  502    0 -0.15347112561E+03  0.10387937829E+03  0.11979397333E+03  0.22066922684E+03  0.00000000000E+00 0. -1.
         -4    1    3    3    0  502 -0.12259133731E+03  0.13012168612E+03  0.20591549404E+03  0.27269301397E+03  0.00000000000E+00 0.  1.
         11    1    5    5    0    0 -0.11613424700E+03  0.26652484140E+03 -0.44861784978E+02  0.29416871717E+03  0.00000000000E+00 0.  1.
        -11    1    5    5    0    0 -0.18294931193E+02 -0.12262385642E+01  0.46363612395E+01  0.18913064636E+02  0.00000000000E+00 0. -1.
          3    1    6    6  503    0  0.26264315258E+03 -0.36426075881E+03 -0.14870363341E+02  0.44931999033E+03  0.00000000000E+00 0. -1.
         -3    1    6    6    0  503  0.14784848853E+03 -0.13503890843E+03 -0.52276992923E+02  0.20694822140E+03  0.00000000000E+00 0.  1.
<mgrwt>
<rscale>  0 0.14463251E+04</rscale>
<asrwt>0</asrwt>
<pdfrwt beam="1">  1        1 0.95721196E-01 0.14463251E+04</pdfrwt>
<pdfrwt beam="2">  1       -2 0.12931146E+00 0.14463251E+04</pdfrwt>
<totfact> 0.12153584E+01</totfact>
</mgrwt>
</event>
<event>
12    4  0.4413110E-008  0.1277171E+04  0.7818608E-02  0.9047867E-01
         -2   -1    0    0    0  501 -0.00000000000E+00  0.00000000000E+00  0.98621734510E+03  0.98621734510E+03  0.00000000000E+00 0.  1.
          1   -1    0    0  501    0  0.00000000000E+00 -0.00000000000E+00 -0.41349045324E+03  0.41349045324E+03  0.00000000000E+00 0. -1.
        -24    2    1    2    0    0  0.22338590503E+02  0.30561834848E+03  0.20638837404E+03  0.37800447192E+03  0.79935175630E+02 0.  0.
        254    2    1    2    0    0 -0.22338590503E+02 -0.30561834848E+03  0.36633851782E+03  0.10217033264E+04  0.90320107951E+03 0.  0.
         23    2    4    4    0    0  0.37095104155E+03 -0.23654973059E+03  0.41110868157E+03  0.60948448512E+03  0.94342669395E+02 0.  0.
         23    2    4    4    0    0 -0.39328963205E+03 -0.69068617890E+02 -0.44770163745E+02  0.41221884130E+03  0.92047796855E+02 0.  0.
          1    1    3    3  502    0 -0.20161102737E+02  0.32870470557E+02  0.40655348846E+02  0.56033876253E+02  0.00000000000E+00 0. -1.
         -2    1    3    3    0  502  0.42499693240E+02  0.27274787792E+03  0.16573302519E+03  0.32197059567E+03  0.00000000000E+00 0.  1.
         11    1    5    5    0    0  0.17090805906E+03 -0.12151342735E+03  0.25833801883E+03  0.33273654691E+03  0.00000000000E+00 0. -1.
        -11    1    5    5    0    0  0.20004298249E+03 -0.11503630324E+03  0.15277066274E+03  0.27674793821E+03  0.00000000000E+00 0.  1.
          4    1    6    6  503    0 -0.89872761548E+02 -0.34704712485E+02 -0.46230447612E+02  0.10685871337E+03  0.00000000000E+00 0. -1.
         -4    1    6    6    0  503 -0.30341687050E+03 -0.34363905405E+02  0.14602838668E+01  0.30536012793E+03  0.00000000000E+00 0.  1.
<mgrwt>
<rscale>  0 0.12771710E+04</rscale>
<asrwt>0</asrwt>
<pdfrwt beam="1">  1        1 0.63613916E-01 0.12771710E+04</pdfrwt>
<pdfrwt beam="2">  1       -2 0.15172574E+00 0.12771710E+04</pdfrwt>
<totfact> 0.14331695E+01</totfact>
</mgrwt>
</event>
<event>
12    4  0.4413110E-008  0.3346212E+04  0.7818608E-02  0.8151235E-01
          1   -1    0    0  501    0  0.00000000000E+00  0.00000000000E+00  0.20122348114E+04  0.20122348114E+04  0.00000000000E+00 0. -1.
         -2   -1    0    0    0  501 -0.00000000000E+00 -0.00000000000E+00 -0.13911319396E+04  0.13911319396E+04  0.00000000000E+00 0.  1.
        -24    2    1    2    0    0  0.13438212669E+04 -0.73917901159E+03  0.53175925419E+03  0.16250829716E+04  0.76717349228E+02 0.  0.
        254    2    1    2    0    0 -0.13438212669E+04  0.73917901159E+03  0.89343617583E+02  0.17782837794E+04  0.89558344639E+03 0.  0.
         23    2    4    4    0    0 -0.66286295499E+03  0.25802934600E+03 -0.38580956943E+03  0.81442000926E+03  0.92002647340E+02 0.  0.
         23    2    4    4    0    0 -0.68095831193E+03  0.48114966559E+03  0.47515318701E+03  0.96386377014E+03  0.89741812863E+02 0.  0.
          1    1    3    3  502    0  0.12804579683E+04 -0.71702428504E+03  0.51990619444E+03  0.15569196783E+04  0.00000000000E+00 0. -1.
         -2    1    3    3    0  502  0.63363298662E+02 -0.22154726554E+02  0.11853059744E+02  0.68163293284E+02  0.00000000000E+00 0.  1.
         11    1    5    5    0    0 -0.37244190561E+03  0.14820146660E+03 -0.16529945713E+03  0.43359031156E+03  0.00000000000E+00 0. -1.
        -11    1    5    5    0    0 -0.29042104938E+03  0.10982787940E+03 -0.22051011230E+03  0.38082969769E+03  0.00000000000E+00 0.  1.
          3    1    6    6  503    0 -0.84234569298E+02  0.87746114084E+02  0.94880903290E+02  0.15426350512E+03  0.00000000000E+00 0. -1.
         -3    1    6    6    0  503 -0.59672374263E+03  0.39340355150E+03  0.38027228372E+03  0.80960026502E+03  0.00000000000E+00 0.  1.
<mgrwt>
<rscale>  0 0.33462123E+04</rscale>
<asrwt>0</asrwt>
<pdfrwt beam="1">  1        1 0.30957459E+00 0.33462123E+04</pdfrwt>
<pdfrwt beam="2">  1       -2 0.21402030E+00 0.33462123E+04</pdfrwt>
<totfact> 0.22921359E-01</totfact>
</mgrwt>
</event>
<event>
12    4  0.4413110E-008  0.2914258E+04  0.7818608E-02  0.8268648E-01
         -2   -1    0    0    0  501 -0.00000000000E+00  0.00000000000E+00  0.80867815756E+03  0.80867815756E+03  0.00000000000E+00 0.  1.
          1   -1    0    0  501    0  0.00000000000E+00 -0.00000000000E+00 -0.26255501864E+04  0.26255501864E+04  0.00000000000E+00 0. -1.
        -24    2    1    2    0    0 -0.47094449104E+03 -0.84265595267E+03 -0.18720033899E+04  0.21077969630E+04  0.80954166983E+02 0.  0.
        254    2    1    2    0    0  0.47094449104E+03  0.84265595267E+03  0.55131361034E+02  0.13264313810E+04  0.90803247371E+03 0.  0.
         23    2    4    4    0    0  0.64449634001E+03  0.86498345856E+03  0.17287271615E+03  0.10963273555E+04  0.92069422264E+02 0.  0.
         23    2    4    4    0    0 -0.17355184898E+03 -0.22327505886E+02 -0.11774135512E+03  0.23010402551E+03  0.92011271319E+02 0.  0.
          1    1    3    3  502    0 -0.76207615707E+02 -0.14248105667E+03 -0.25202516783E+03  0.29937457711E+03  0.00000000000E+00 0. -1.
         -2    1    3    3    0  502 -0.39473687533E+03 -0.70017489601E+03 -0.16199782221E+04  0.18084223859E+04  0.00000000000E+00 0.  1.
         11    1    5    5    0    0  0.49953103189E+03  0.68420404511E+03  0.97970435255E+02  0.85279811993E+03  0.00000000000E+00 0.  1.
        -11    1    5    5    0    0  0.14496530812E+03  0.18077941345E+03  0.74902280899E+02  0.24352923555E+03  0.00000000000E+00 0. -1.
          4    1    6    6  503    0 -0.16378507163E+03 -0.17540719421E+01 -0.12517337137E+03  0.20614800353E+03  0.00000000000E+00 0.  1.
         -4    1    6    6    0  503 -0.97667773426E+01 -0.20573433944E+02  0.74320162481E+01  0.23956021987E+02  0.00000000000E+00 0. -1.
<mgrwt>
<rscale>  0 0.29142581E+04</rscale>
<asrwt>0</asrwt>
<pdfrwt beam="1">  1        1 0.40393080E+00 0.29142581E+04</pdfrwt>
<pdfrwt beam="2">  1       -2 0.12441202E+00 0.29142581E+04</pdfrwt>
<totfact> 0.40502305E-01</totfact>
</mgrwt>
</event>
<event>
12    4  0.4413110E-008  0.2000498E+04  0.7818608E-02  0.8606388E-01
          1   -1    0    0  501    0  0.00000000000E+00  0.00000000000E+00  0.27833352265E+04  0.27833352265E+04  0.00000000000E+00 0. -1.
         -2   -1    0    0    0  501 -0.00000000000E+00 -0.00000000000E+00 -0.35946005364E+03  0.35946005364E+03  0.00000000000E+00 0.  1.
        -24    2    1    2    0    0 -0.66477176465E+03 -0.43043573279E+03  0.95769257449E+03  0.12453861435E+04  0.81333634733E+02 0.  0.
        254    2    1    2    0    0  0.66477176465E+03  0.43043573279E+03  0.14661825983E+04  0.18974091366E+04  0.90734425701E+03 0.  0.
         23    2    4    4    0    0  0.55087935908E+03  0.99702446624E+02  0.14209426789E+04  0.15299980912E+04  0.91691964803E+02 0.  0.
         23    2    4    4    0    0  0.11389240557E+03  0.33073328616E+03  0.45239919458E+02  0.36741104533E+03  0.10289917052E+03 0.  0.
          1    1    3    3  502    0 -0.92731933243E+02 -0.61594544321E+02  0.18262580306E+03  0.21388147016E+03  0.00000000000E+00 0. -1.
         -2    1    3    3    0  502 -0.57203983141E+03 -0.36884118847E+03  0.77506677143E+03  0.10315046734E+04  0.00000000000E+00 0.  1.
         11    1    5    5    0    0  0.11322616960E+03 -0.15214076538E+02  0.26008988597E+03  0.28407460708E+03  0.00000000000E+00 0.  1.
        -11    1    5    5    0    0  0.43765318948E+03  0.11491652316E+03  0.11608527929E+04  0.12459234842E+04  0.00000000000E+00 0. -1.
          1    1    6    6  503    0  0.10437596842E+03  0.33714087336E+03  0.45999904710E+02  0.35591333567E+03  0.00000000000E+00 0. -1.
         -1    1    6    6    0  503  0.95164371481E+01 -0.64075872003E+01 -0.75998525225E+00  0.11497709655E+02  0.00000000000E+00 0.  1.
<mgrwt>
<rscale>  0 0.20004978E+04</rscale>
<asrwt>0</asrwt>
<pdfrwt beam="1">  1        1 0.42820540E+00 0.20004978E+04</pdfrwt>
<pdfrwt beam="2">  1       -2 0.55301549E-01 0.20004978E+04</pdfrwt>
<totfact> 0.21480028E+00</totfact>
</mgrwt>
</event>
<event>
12    4  0.4413110E-008  0.1524960E+04  0.7818608E-02  0.8868022E-01
          1   -1    0    0  501    0  0.00000000000E+00  0.00000000000E+00  0.16011300266E+04  0.16011300266E+04  0.00000000000E+00 0. -1.
         -2   -1    0    0    0  501 -0.00000000000E+00 -0.00000000000E+00 -0.36310334285E+03  0.36310334285E+03  0.00000000000E+00 0.  1.
        -24    2    1    2    0    0 -0.13523837922E+02 -0.34325255652E+01  0.10339128348E+04  0.10370668930E+04  0.79607250057E+02 0.  0.
        254    2    1    2    0    0  0.13523837922E+02  0.34325255652E+01  0.20411384901E+03  0.92716647646E+03  0.90431218906E+03 0.  0.
         23    2    4    4    0    0  0.81556554130E+02  0.11883618281E+03  0.53361566186E+03  0.55975611948E+03  0.88361353817E+02 0.  0.
         23    2    4    4    0    0 -0.68032716208E+02 -0.11540365724E+03 -0.32950181285E+03  0.36741035698E+03  0.92046027405E+02 0.  0.
          3    1    3    3  502    0 -0.21315614774E+02 -0.17383605167E+02  0.98923665504E+03  0.98961896952E+03  0.00000000000E+00 0. -1.
         -4    1    3    3    0  502  0.77917768518E+01  0.13951079602E+02  0.44676179726E+02  0.47447923490E+02  0.00000000000E+00 0.  1.
         11    1    5    5    0    0 -0.18528802436E+02  0.21151866690E+02  0.11536589479E+03  0.11874345315E+03  0.00000000000E+00 0. -1.
        -11    1    5    5    0    0  0.10008535657E+03  0.97684316117E+02  0.41824976707E+03  0.44101266633E+03  0.00000000000E+00 0.  1.
          3    1    6    6  503    0 -0.95979471601E+01 -0.69854682187E+01  0.34884645230E+01  0.12372822663E+02  0.00000000000E+00 0. -1.
         -3    1    6    6    0  503 -0.58434769048E+02 -0.10841818902E+03 -0.33299027737E+03  0.35503753431E+03  0.00000000000E+00 0.  1.
<mgrwt>
<rscale>  0 0.15249599E+04</rscale>
<asrwt>0</asrwt>
<pdfrwt beam="1">  1        1 0.24632769E+00 0.15249599E+04</pdfrwt>
<pdfrwt beam="2">  1       -2 0.55862054E-01 0.15249599E+04</pdfrwt>
<totfact> 0.14203648E+01</totfact>
</mgrwt>
</event>
<event>
12    4  0.4413110E-008  0.2330583E+04  0.7818608E-02  0.8465959E-01
          1   -1    0    0  501    0  0.00000000000E+00  0.00000000000E+00  0.10022503611E+04  0.10022503611E+04  0.00000000000E+00 0. -1.
         -2   -1    0    0    0  501 -0.00000000000E+00 -0.00000000000E+00 -0.13548559321E+04  0.13548559321E+04  0.00000000000E+00 0.  1.
        -24    2    1    2    0    0  0.14726684421E+02 -0.78425012708E+03 -0.76530503593E+03  0.10987661098E+04  0.79561479027E+02 0.  0.
        254    2    1    2    0    0 -0.14726684421E+02  0.78425012708E+03  0.41269946497E+03  0.12583401834E+04  0.89321555725E+03 0.  0.
         23    2    4    4    0    0 -0.38572487185E+03  0.67142555996E+03  0.19123507937E+03  0.80276300576E+03  0.90893500847E+02 0.  0.
         23    2    4    4    0    0  0.37099818743E+03  0.11282456712E+03  0.22146438559E+03  0.45557717765E+03  0.90194526914E+02 0.  0.
          1    1    3    3  502    0 -0.10227622398E+02 -0.38132838122E+03 -0.42174972602E+03  0.56867281453E+03  0.00000000000E+00 0. -1.
         -2    1    3    3    0  502  0.24954306819E+02 -0.40292174586E+03 -0.34355530991E+03  0.53009329526E+03  0.00000000000E+00 0.  1.
         11    1    5    5    0    0 -0.49099782489E+02  0.14730870955E+03  0.58072254849E+02  0.16578006916E+03  0.00000000000E+00 0. -1.
        -11    1    5    5    0    0 -0.33662508936E+03  0.52411685042E+03  0.13316282453E+03  0.63698293659E+03  0.00000000000E+00 0.  1.
          4    1    6    6  503    0  0.94659628713E+02  0.11502347825E+02  0.16151070965E+02  0.96714044517E+02  0.00000000000E+00 0. -1.
         -4    1    6    6    0  503  0.27633855871E+03  0.10132221930E+03  0.20531331463E+03  0.35886313313E+03  0.00000000000E+00 0.  1.
<mgrwt>
<rscale>  0 0.23305835E+04</rscale>
<asrwt>0</asrwt>
<pdfrwt beam="1">  1        1 0.15419236E+00 0.23305835E+04</pdfrwt>
<pdfrwt beam="2">  1       -2 0.20843937E+00 0.23305835E+04</pdfrwt>
<totfact> 0.13959266E+00</totfact>
</mgrwt>
</event>
<event>
12    4  0.4413110E-008  0.1088743E+04  0.7818608E-02  0.9216234E-01
         -2   -1    0    0    0  501 -0.00000000000E+00  0.00000000000E+00  0.25586618104E+03  0.25586618104E+03  0.00000000000E+00 0.  1.
          1   -1    0    0  501    0  0.00000000000E+00 -0.00000000000E+00 -0.11581846766E+04  0.11581846766E+04  0.00000000000E+00 0. -1.
        -24    2    1    2    0    0 -0.11682391708E+02  0.15405738871E+03 -0.13491939324E+03  0.22473586157E+03  0.91830319108E+02 0.  0.
        254    2    1    2    0    0  0.11682391708E+02 -0.15405738871E+03 -0.76739910228E+03  0.11893149960E+04  0.89537624512E+03 0.  0.
         23    2    4    4    0    0  0.37022087781E+03  0.98132544623E+02 -0.58642318350E+03  0.70633840390E+03  0.91259498097E+02 0.  0.
         23    2    4    4    0    0 -0.35853848610E+03 -0.25218993334E+03 -0.18097591878E+03  0.48297659214E+03  0.91457623430E+02 0.  0.
          1    1    3    3  502    0  0.10977700640E+02  0.14003318728E+03 -0.13919068975E+03  0.19774693819E+03  0.00000000000E+00 0. -1.
         -2    1    3    3    0  502 -0.22660092348E+02  0.14024201437E+02  0.42712965075E+01  0.26988923376E+02  0.00000000000E+00 0.  1.
         11    1    5    5    0    0  0.51866057499E+02  0.63570236694E+01 -0.14696676179E+03  0.15597989852E+03  0.00000000000E+00 0. -1.
        -11    1    5    5    0    0  0.31835482031E+03  0.91775520954E+02 -0.43945642171E+03  0.55035850538E+03  0.00000000000E+00 0.  1.
          2    1    6    6  503    0 -0.19224191046E+03 -0.11298669931E+03 -0.46452735657E+02  0.22777357838E+03  0.00000000000E+00 0. -1.
         -2    1    6    6    0  503 -0.16629657564E+03 -0.13920323402E+03 -0.13452318313E+03  0.25520301376E+03  0.00000000000E+00 0.  1.
<mgrwt>
<rscale>  0 0.10887429E+04</rscale>
<asrwt>0</asrwt>
<pdfrwt beam="1">  1        1 0.17818226E+00 0.10887429E+04</pdfrwt>
<pdfrwt beam="2">  1       -2 0.39364027E-01 0.10887429E+04</pdfrwt>
<totfact> 0.61193414E+01</totfact>
</mgrwt>
</event>
<event>
12    4  0.4413110E-008  0.1618757E+04  0.7818608E-02  0.8809107E-01
          1   -1    0    0  501    0  0.00000000000E+00  0.00000000000E+00  0.42635430641E+03  0.42635430641E+03  0.00000000000E+00 0. -1.
         -2   -1    0    0    0  501 -0.00000000000E+00 -0.00000000000E+00 -0.15365010559E+04  0.15365010559E+04  0.00000000000E+00 0.  1.
        -24    2    1    2    0    0 -0.22474382200E+03 -0.51138668438E+03 -0.40402537644E+03  0.69393564490E+03  0.79271987283E+02 0.  0.
        254    2    1    2    0    0  0.22474382200E+03  0.51138668438E+03 -0.70612137304E+03  0.12689197174E+04  0.89416090792E+03 0.  0.
         23    2    4    4    0    0  0.44679097406E+03  0.38124178633E+03 -0.78225341367E+03  0.98256325776E+03  0.92426609612E+02 0.  0.
         23    2    4    4    0    0 -0.22204715206E+03  0.13014489805E+03  0.76132040631E+02  0.28635645964E+03  0.99806323140E+02 0.  0.
          3    1    3    3  502    0 -0.18157212292E+03 -0.35696474851E+03 -0.32168494745E+03  0.51368616189E+03  0.00000000000E+00 0. -1.
         -4    1    3    3    0  502 -0.43171699078E+02 -0.15442193587E+03 -0.82340428983E+02  0.18024948301E+03  0.00000000000E+00 0.  1.
         11    1    5    5    0    0  0.51674344880E+02  0.39917167807E+02 -0.45628634996E+02  0.79659215011E+02  0.00000000000E+00 0. -1.
        -11    1    5    5    0    0  0.39511662918E+03  0.34132461852E+03 -0.73662477867E+03  0.90290404275E+03  0.00000000000E+00 0.  1.
          4    1    6    6  503    0 -0.10084282125E+03  0.67050047278E+02 -0.15127769646E+02  0.12204029192E+03  0.00000000000E+00 0.  1.
         -4    1    6    6    0  503 -0.12120433081E+03  0.63094850776E+02  0.91259810278E+02  0.16431616772E+03  0.00000000000E+00 0. -1.
<mgrwt>
<rscale>  0 0.16187574E+04</rscale>
<asrwt>0</asrwt>
<pdfrwt beam="1">  1        1 0.65592971E-01 0.16187574E+04</pdfrwt>
<pdfrwt beam="2">  1       -2 0.23638478E+00 0.16187574E+04</pdfrwt>
<totfact> 0.35983856E+00</totfact>
</mgrwt>
</event>
<event>
12    4  0.4413110E-008  0.1634733E+04  0.7818608E-02  0.8799490E-01
          1   -1    0    0  501    0  0.00000000000E+00  0.00000000000E+00  0.15211835970E+04  0.15211835970E+04  0.00000000000E+00 0. -1.
         -2   -1    0    0    0  501 -0.00000000000E+00 -0.00000000000E+00 -0.43918966279E+03  0.43918966279E+03  0.00000000000E+00 0.  1.
        -24    2    1    2    0    0 -0.39688711374E+02  0.49383626052E+03  0.47669218160E+02  0.50381318043E+03  0.78140389029E+02 0.  0.
        254    2    1    2    0    0  0.39688711374E+02 -0.49383626052E+03  0.10343247161E+04  0.14565600794E+04  0.89793663504E+03 0.  0.
         23    2    4    4    0    0  0.13670445135E+03 -0.52645149027E+03  0.16433864093E+03  0.57565814700E+03  0.92389581038E+02 0.  0.
         23    2    4    4    0    0 -0.97015739976E+02  0.32615229747E+02  0.86998607514E+03  0.88090193237E+03  0.92933505813E+02 0.  0.
          3    1    3    3  502    0 -0.27983594421E+02  0.55038971105E+02  0.15630652262E+02  0.63692128141E+02  0.00000000000E+00 0. -1.
         -4    1    3    3    0  502 -0.11705116953E+02  0.43879728942E+03  0.32038565898E+02  0.44012105229E+03  0.00000000000E+00 0.  1.
         11    1    5    5    0    0  0.14201910019E+03 -0.47570968270E+03  0.16898335811E+03  0.52442778564E+03  0.00000000000E+00 0. -1.
        -11    1    5    5    0    0 -0.53146488394E+01 -0.50741807574E+02 -0.46447171835E+01  0.51230361368E+02  0.00000000000E+00 0.  1.
          3    1    6    6  503    0 -0.18117488746E+02  0.95971702000E+01  0.26915562363E+02  0.33834842568E+02  0.00000000000E+00 0.  1.
         -3    1    6    6    0  503 -0.78898251230E+02  0.23018059547E+02  0.84307051277E+03  0.84706708980E+03  0.00000000000E+00 0. -1.
<mgrwt>
<rscale>  0 0.16347331E+04</rscale>
<asrwt>0</asrwt>
<pdfrwt beam="1">  1        1 0.23402824E+00 0.16347331E+04</pdfrwt>
<pdfrwt beam="2">  1       -2 0.67567641E-01 0.16347331E+04</pdfrwt>
<totfact> 0.10660883E+01</totfact>
</mgrwt>
</event>
<event>
12    4  0.4413110E-008  0.2131146E+04  0.7818608E-02  0.8547646E-01
          1   -1    0    0  501    0  0.00000000000E+00  0.00000000000E+00  0.13095161154E+04  0.13095161154E+04  0.00000000000E+00 0. -1.
         -2   -1    0    0    0  501 -0.00000000000E+00 -0.00000000000E+00 -0.86707297787E+03  0.86707297787E+03  0.00000000000E+00 0.  1.
        -24    2    1    2    0    0 -0.75374856025E+03 -0.41289903163E+03  0.58311716438E+02  0.86506183131E+03  0.79430556491E+02 0.  0.
        254    2    1    2    0    0  0.75374856025E+03  0.41289903163E+03  0.38413142113E+03  0.13115272620E+04  0.91319456189E+03 0.  0.
         23    2    4    4    0    0  0.68657317124E+03  0.19447553411E+02  0.53449552672E+03  0.87483952085E+03  0.88869524316E+02 0.  0.
         23    2    4    4    0    0  0.67175389010E+02  0.39345147822E+03 -0.15036410559E+03  0.43668774115E+03  0.93649454983E+02 0.  0.
          3    1    3    3  502    0 -0.23464650634E+03 -0.11115926764E+03  0.50906936520E+02  0.26458813636E+03  0.00000000000E+00 0. -1.
         -4    1    3    3    0  502 -0.51910205392E+03 -0.30173976399E+03  0.74047799182E+01  0.60047369494E+03  0.00000000000E+00 0.  1.
         11    1    5    5    0    0  0.28171084915E+03  0.51685664365E+02  0.22408071590E+03  0.36365447566E+03  0.00000000000E+00 0. -1.
        -11    1    5    5    0    0  0.40486232209E+03 -0.32238110954E+02  0.31041481081E+03  0.51118504519E+03  0.00000000000E+00 0.  1.
          3    1    6    6  503    0  0.53896301224E+02  0.21688261736E+03 -0.12977602147E+03  0.25842735293E+03  0.00000000000E+00 0. -1.
         -3    1    6    6    0  503  0.13279087786E+02  0.17656886086E+03 -0.20588084124E+02  0.17826038821E+03  0.00000000000E+00 0.  1.
<mgrwt>
<rscale>  0 0.21311462E+04</rscale>
<asrwt>0</asrwt>
<pdfrwt beam="1">  1        1 0.20146402E+00 0.21311462E+04</pdfrwt>
<pdfrwt beam="2">  1       -2 0.13339584E+00 0.21311462E+04</pdfrwt>
<totfact> 0.29152507E+00</totfact>
</mgrwt>
</event>
<event>
12    4  0.4413110E-008  0.2542395E+04  0.7818608E-02  0.8388036E-01
          1   -1    0    0  501    0  0.00000000000E+00  0.00000000000E+00  0.12633117385E+04  0.12633117385E+04  0.00000000000E+00 0. -1.
         -2   -1    0    0    0  501 -0.00000000000E+00 -0.00000000000E+00 -0.12791329752E+04  0.12791329752E+04  0.00000000000E+00 0.  1.
        -24    2    1    2    0    0  0.71600338703E+03  0.74173592613E+03  0.39323872501E+03  0.11062236426E+04  0.79126596169E+02 0.  0.
        254    2    1    2    0    0 -0.71600338703E+03 -0.74173592613E+03 -0.40905996173E+03  0.14362210711E+04  0.91245157597E+03 0.  0.
         23    2    4    4    0    0  0.64917384934E+01  0.17805011940E+03 -0.26888838745E+02  0.20208825682E+03  0.91502274324E+02 0.  0.
         23    2    4    4    0    0 -0.72249512552E+03 -0.91978604554E+03 -0.38217112299E+03  0.12341328143E+04  0.94991895140E+02 0.  0.
          1    1    3    3  502    0  0.44926149546E+03  0.49201701981E+03  0.21836849594E+03  0.70114295198E+03  0.00000000000E+00 0. -1.
         -2    1    3    3    0  502  0.26674189157E+03  0.24971890633E+03  0.17487022907E+03  0.40508069062E+03  0.00000000000E+00 0.  1.
         11    1    5    5    0    0  0.18191050058E+01  0.18616925210E+03 -0.35304013723E+02  0.18949583888E+03  0.00000000000E+00 0.  1.
        -11    1    5    5    0    0  0.46726334876E+01 -0.81191326965E+01  0.84151749777E+01  0.12592417931E+02  0.00000000000E+00 0. -1.
          1    1    6    6  503    0 -0.44902059968E+02 -0.43500958779E+02 -0.42214257838E+02  0.75435879851E+02  0.00000000000E+00 0. -1.
         -1    1    6    6    0  503 -0.67759306556E+03 -0.87628508676E+03 -0.33995686515E+03  0.11586969345E+04  0.00000000000E+00 0.  1.
<mgrwt>
<rscale>  0 0.25423955E+04</rscale>
<asrwt>0</asrwt>
<pdfrwt beam="1">  1        1 0.19435565E+00 0.25423955E+04</pdfrwt>
<pdfrwt beam="2">  1       -2 0.19678969E+00 0.25423955E+04</pdfrwt>
<totfact> 0.10426594E+00</totfact>
</mgrwt>
</event>
<event>
12    4  0.4413110E-008  0.1472485E+04  0.7818608E-02  0.8902959E-01
         -2   -1    0    0    0  501 -0.00000000000E+00  0.00000000000E+00  0.52198695362E+03  0.52198695362E+03  0.00000000000E+00 0.  1.
          1   -1    0    0  501    0  0.00000000000E+00 -0.00000000000E+00 -0.10384418508E+04  0.10384418508E+04  0.00000000000E+00 0. -1.
        -24    2    1    2    0    0  0.27174590760E+03 -0.23941005481E+03  0.14962752017E+03  0.39815409543E+03  0.70535638340E+02 0.  0.
        254    2    1    2    0    0 -0.27174590760E+03  0.23941005481E+03 -0.66608241734E+03  0.11622747090E+04  0.88093910106E+03 0.  0.
         23    2    4    4    0    0 -0.22434479904E+03 -0.51133257880E+02 -0.79190402099E+03  0.82969109395E+03  0.91269567844E+02 0.  0.
         23    2    4    4    0    0 -0.47401108560E+02  0.29054331269E+03  0.12582160364E+03  0.33258361502E+03  0.90102737985E+02 0.  0.
          1    1    3    3  502    0  0.52044779202E+02 -0.39446073729E+02  0.57800379220E+02  0.87209722008E+02  0.00000000000E+00 0. -1.
         -2    1    3    3    0  502  0.21970112840E+03 -0.19996398108E+03  0.91827140952E+02  0.31094437342E+03  0.00000000000E+00 0.  1.
         11    1    5    5    0    0 -0.11139491593E+03  0.11891460893E+02 -0.46074183087E+03  0.47416586639E+03  0.00000000000E+00 0. -1.
        -11    1    5    5    0    0 -0.11294988311E+03 -0.63024718773E+02 -0.33116219011E+03  0.35552522756E+03  0.00000000000E+00 0.  1.
          3    1    6    6  503    0  0.17534689448E+01  0.15480606397E+03  0.10418495957E+03  0.18660787201E+03  0.00000000000E+00 0. -1.
         -3    1    6    6    0  503 -0.49154577504E+02  0.13573724872E+03  0.21636644074E+02  0.14597574301E+03  0.00000000000E+00 0.  1.
<mgrwt>
<rscale>  0 0.14724851E+04</rscale>
<asrwt>0</asrwt>
<pdfrwt beam="1">  1        1 0.15976029E+00 0.14724851E+04</pdfrwt>
<pdfrwt beam="2">  1       -2 0.80305685E-01 0.14724851E+04</pdfrwt>
<totfact> 0.16455678E+01</totfact>
</mgrwt>
</event>
<event>
12    4  0.4413110E-008  0.1275415E+04  0.7818608E-02  0.9049291E-01
          1   -1    0    0  501    0  0.00000000000E+00  0.00000000000E+00  0.11468296978E+04  0.11468296978E+04  0.00000000000E+00 0. -1.
         -2   -1    0    0    0  501 -0.00000000000E+00 -0.00000000000E+00 -0.35460461045E+03  0.35460461045E+03  0.00000000000E+00 0.  1.
        -24    2    1    2    0    0 -0.15724219615E+03 -0.16527592260E+03  0.46107117762E+03  0.52066684792E+03  0.80412044143E+02 0.  0.
        254    2    1    2    0    0  0.15724219615E+03  0.16527592260E+03  0.33115390973E+03  0.98076746034E+03  0.89453935659E+03 0.  0.
         23    2    4    4    0    0 -0.21883693322E+03 -0.16452051779E+03  0.37138309082E+03  0.47026255537E+03  0.90911312403E+02 0.  0.
         23    2    4    4    0    0  0.37607912936E+03  0.32979644040E+03 -0.40229181095E+02  0.51050490497E+03  0.93785219216E+02 0.  0.
          1    1    3    3  502    0 -0.16344939569E+03 -0.16442189452E+03  0.45871198359E+03  0.51397173876E+03  0.00000000000E+00 0. -1.
         -2    1    3    3    0  502  0.62071995455E+01 -0.85402807809E+00  0.23591940299E+01  0.66951091572E+01  0.00000000000E+00 0.  1.
         11    1    5    5    0    0 -0.62075073529E+02 -0.57370339697E+02  0.53651973973E+02  0.10011595748E+03  0.00000000000E+00 0.  1.
        -11    1    5    5    0    0 -0.15676185969E+03 -0.10715017810E+03  0.31773111685E+03  0.37014659789E+03  0.00000000000E+00 0. -1.
          1    1    6    6  503    0  0.26462608848E+03  0.24074502452E+03 -0.70594738235E+02  0.36464880447E+03  0.00000000000E+00 0. -1.
         -1    1    6    6    0  503  0.11145304088E+03  0.89051415872E+02  0.30365557139E+02  0.14585610049E+03  0.00000000000E+00 0.  1.
<mgrwt>
<rscale>  0 0.12754154E+04</rscale>
<asrwt>0</asrwt>
<pdfrwt beam="1">  1        1 0.17643534E+00 0.12754154E+04</pdfrwt>
<pdfrwt beam="2">  1       -2 0.54554556E-01 0.12754154E+04</pdfrwt>
<totfact> 0.31920664E+01</totfact>
</mgrwt>
</event>
<event>
12    4  0.4413110E-008  0.1701854E+04  0.7818608E-02  0.8760308E-01
         -2   -1    0    0    0  501 -0.00000000000E+00  0.00000000000E+00  0.42196228100E+03  0.42196228100E+03  0.00000000000E+00 0.  1.
          1   -1    0    0  501    0  0.00000000000E+00 -0.00000000000E+00 -0.17159743991E+04  0.17159743991E+04  0.00000000000E+00 0. -1.
        -24    2    1    2    0    0  0.48290781056E+03  0.27232101620E+02 -0.72638890949E+01  0.49014306579E+03  0.79031133081E+02 0.  0.
        254    2    1    2    0    0 -0.48290781056E+03 -0.27232101620E+02 -0.12867482291E+04  0.16477936144E+04  0.90860401149E+03 0.  0.
         23    2    4    4    0    0 -0.16421241893E+03 -0.44790385451E+03 -0.71307704814E+03  0.86310512692E+03  0.94276201191E+02 0.  0.
         23    2    4    4    0    0 -0.31869539164E+03  0.42067175289E+03 -0.57367118091E+03  0.78468848744E+03  0.90032894997E+02 0.  0.
          3    1    3    3  502    0  0.10422733541E+03  0.19804341983E+02  0.28076904819E+02  0.10974453058E+03  0.00000000000E+00 0. -1.
         -4    1    3    3    0  502  0.37868047516E+03  0.74277596369E+01 -0.35340793914E+02  0.38039853521E+03  0.00000000000E+00 0.  1.
         11    1    5    5    0    0 -0.85635537807E+02 -0.14645330330E+03 -0.31328178418E+03  0.35626884748E+03  0.00000000000E+00 0.  1.
        -11    1    5    5    0    0 -0.78576881120E+02 -0.30145055121E+03 -0.39979526396E+03  0.50683627944E+03  0.00000000000E+00 0. -1.
          3    1    6    6  503    0 -0.20128651016E+03  0.28071451597E+03 -0.43426940350E+03  0.55489351544E+03  0.00000000000E+00 0. -1.
         -3    1    6    6    0  503 -0.11740888147E+03  0.13995723692E+03 -0.13940177741E+03  0.22979497200E+03  0.00000000000E+00 0.  1.
<mgrwt>
<rscale>  0 0.17018537E+04</rscale>
<asrwt>0</asrwt>
<pdfrwt beam="1">  1        1 0.26399607E+00 0.17018537E+04</pdfrwt>
<pdfrwt beam="2">  1       -2 0.64917272E-01 0.17018537E+04</pdfrwt>
<totfact> 0.84976539E+00</totfact>
</mgrwt>
</event>
<event>
12    4  0.4413110E-008  0.1721538E+04  0.7818608E-02  0.8749175E-01
         -2   -1    0    0    0  501 -0.00000000000E+00  0.00000000000E+00  0.36835848021E+03  0.36835848021E+03  0.00000000000E+00 0.  1.
          1   -1    0    0  501    0  0.00000000000E+00 -0.00000000000E+00 -0.20114197464E+04  0.20114197464E+04  0.00000000000E+00 0. -1.
        -24    2    1    2    0    0  0.10188938908E+03 -0.54637636315E+03 -0.22732901120E+03  0.60576188790E+03  0.79752164152E+02 0.  0.
        254    2    1    2    0    0 -0.10188938908E+03  0.54637636315E+03 -0.14157322549E+04  0.17740163387E+04  0.91319635038E+03 0.  0.
         23    2    4    4    0    0  0.21972541627E+03  0.64018008685E+03 -0.11464318200E+04  0.13344472766E+04  0.91289725092E+02 0.  0.
         23    2    4    4    0    0 -0.32161480535E+03 -0.93803723702E+02 -0.26930043490E+03  0.43956906205E+03  0.91994643722E+02 0.  0.
          3    1    3    3  502    0  0.48856281348E+02 -0.15044006497E+03 -0.33215175434E+02  0.16162424711E+03  0.00000000000E+00 0. -1.
         -4    1    3    3    0  502  0.53033107734E+02 -0.39593629818E+03 -0.19411383577E+03  0.44413764079E+03  0.00000000000E+00 0.  1.
         11    1    5    5    0    0  0.20235844231E+03  0.62508939511E+03 -0.10801102100E+04  0.12642482971E+04  0.00000000000E+00 0. -1.
        -11    1    5    5    0    0  0.17366973955E+02  0.15090691735E+02 -0.66321610058E+02  0.70198979495E+02  0.00000000000E+00 0.  1.
          2    1    6    6  503    0 -0.26025520940E+03 -0.11209617642E+03 -0.21788882722E+03  0.35745470736E+03  0.00000000000E+00 0. -1.
         -2    1    6    6    0  503 -0.61359595951E+02  0.18292452718E+02 -0.51411607680E+02  0.82114354689E+02  0.00000000000E+00 0.  1.
<mgrwt>
<rscale>  0 0.17215383E+04</rscale>
<asrwt>0</asrwt>
<pdfrwt beam="1">  1        1 0.30944920E+00 0.17215383E+04</pdfrwt>
<pdfrwt beam="2">  1       -2 0.56670534E-01 0.17215383E+04</pdfrwt>
<totfact> 0.71323880E+00</totfact>
</mgrwt>
</event>
<event>
12    4  0.4413110E-008  0.1293563E+04  0.7818608E-02  0.9034685E-01
          1   -1    0    0  501    0  0.00000000000E+00  0.00000000000E+00  0.17513293061E+04  0.17513293061E+04  0.00000000000E+00 0. -1.
         -2   -1    0    0    0  501 -0.00000000000E+00 -0.00000000000E+00 -0.23886228277E+03  0.23886228277E+03  0.00000000000E+00 0.  1.
        -24    2    1    2    0    0 -0.15739518294E+02  0.29313793399E+03  0.19565761422E+03  0.36220770879E+03  0.82066689484E+02 0.  0.
        254    2    1    2    0    0  0.15739518294E+02 -0.29313793399E+03  0.13168094091E+04  0.16279838801E+04  0.91113495878E+03 0.  0.
         23    2    4    4    0    0 -0.39931166593E+03 -0.31897301037E+03  0.59380650477E+03  0.78874492665E+03  0.91207490449E+02 0.  0.
         23    2    4    4    0    0  0.41505118423E+03  0.25835076376E+02  0.72300290432E+03  0.83923895342E+03  0.93026257479E+02 0.  0.
          1    1    3    3  502    0 -0.41703465172E+02  0.83443700566E+02  0.53422549251E+02  0.10749883227E+03  0.00000000000E+00 0. -1.
         -4    1    3    3    0  502  0.25963946878E+02  0.20969423342E+03  0.14223506497E+03  0.25470887652E+03  0.00000000000E+00 0.  1.
         11    1    5    5    0    0 -0.32003650614E+03 -0.21967912625E+03  0.40336355314E+03  0.55980750243E+03  0.00000000000E+00 0.  1.
        -11    1    5    5    0    0 -0.79275159790E+02 -0.99293884119E+02  0.19044295163E+03  0.22893742422E+03  0.00000000000E+00 0. -1.
          1    1    6    6  503    0  0.18952442617E+03 -0.34364145748E+02  0.31807927799E+03  0.37185323680E+03  0.00000000000E+00 0. -1.
         -1    1    6    6    0  503  0.22552675806E+03  0.60199222124E+02  0.40492362633E+03  0.46738571662E+03  0.00000000000E+00 0.  1.
<mgrwt>
<rscale>  0 0.12935633E+04</rscale>
<asrwt>0</asrwt>
<pdfrwt beam="1">  1        1 0.26943527E+00 0.12935633E+04</pdfrwt>
<pdfrwt beam="2">  1       -2 0.36748045E-01 0.12935633E+04</pdfrwt>
<totfact> 0.26471065E+01</totfact>
</mgrwt>
</event>
<event>
12    4  0.4413110E-008  0.2100678E+04  0.7818608E-02  0.8560945E-01
          1   -1    0    0  501    0  0.00000000000E+00  0.00000000000E+00  0.10823308686E+04  0.10823308686E+04  0.00000000000E+00 0. -1.
         -2   -1    0    0    0  501 -0.00000000000E+00 -0.00000000000E+00 -0.10192929972E+04  0.10192929972E+04  0.00000000000E+00 0.  1.
        -24    2    1    2    0    0  0.42858293986E+02  0.26588098435E+01 -0.84025936123E+03  0.84512701455E+03  0.79749444851E+02 0.  0.
        254    2    1    2    0    0 -0.42858293986E+02 -0.26588098435E+01  0.90329723268E+03  0.12564968513E+04  0.87235001236E+03 0.  0.
         23    2    4    4    0    0  0.86111516268E+02 -0.65491647882E+02  0.10322992920E+04  0.10426864779E+04  0.99241693178E+02 0.  0.
         23    2    4    4    0    0 -0.12896981025E+03  0.62832838038E+02 -0.12900205935E+03  0.21381037339E+03  0.92152954165E+02 0.  0.
          1    1    3    3  502    0 -0.12491480084E+02  0.27267871178E+02 -0.28371297894E+03  0.28529393315E+03  0.00000000000E+00 0. -1.
         -2    1    3    3    0  502  0.55349774070E+02 -0.24609061335E+02 -0.55654638228E+03  0.55983308139E+03  0.00000000000E+00 0.  1.
         11    1    5    5    0    0  0.81235646493E+02 -0.90319861684E+02  0.86215053526E+03  0.87066667165E+03  0.00000000000E+00 0.  1.
        -11    1    5    5    0    0  0.48758697754E+01  0.24828213802E+02  0.17014875677E+03  0.17201980623E+03  0.00000000000E+00 0. -1.
          3    1    6    6  503    0  0.34759793669E+00 -0.10974620509E+02  0.62673675165E+01  0.12642903750E+02  0.00000000000E+00 0. -1.
         -3    1    6    6    0  503 -0.12931740819E+03  0.73807458547E+02 -0.13526942686E+03  0.20116746964E+03  0.00000000000E+00 0.  1.
<mgrwt>
<rscale>  0 0.21006782E+04</rscale>
<asrwt>0</asrwt>
<pdfrwt beam="1">  1        1 0.16651244E+00 0.21006782E+04</pdfrwt>
<pdfrwt beam="2">  1       -2 0.15681431E+00 0.21006782E+04</pdfrwt>
<totfact> 0.28049687E+00</totfact>
</mgrwt>
</event>
<event>
12    4  0.4413110E-008  0.1293969E+04  0.7818608E-02  0.9034362E-01
         -2   -1    0    0    0  501 -0.00000000000E+00  0.00000000000E+00  0.38769955253E+03  0.38769955253E+03  0.00000000000E+00 0.  1.
          1   -1    0    0  501    0  0.00000000000E+00 -0.00000000000E+00 -0.10796728961E+04  0.10796728961E+04  0.00000000000E+00 0. -1.
        -24    2    1    2    0    0 -0.61844141787E+02 -0.11770897397E+03 -0.52659060784E+03  0.54875394694E+03  0.78441861165E+02 0.  0.
        254    2    1    2    0    0  0.61844141787E+02  0.11770897397E+03 -0.16538273574E+03  0.91861850172E+03  0.89377200784E+03 0.  0.
         23    2    4    4    0    0  0.38899199120E+03 -0.17371370299E+03  0.15776028345E+02  0.43604103565E+03  0.91606123571E+02 0.  0.
         23    2    4    4    0    0 -0.32714784941E+03  0.29142267696E+03 -0.18115876409E+03  0.48257746607E+03  0.90053433762E+02 0.  0.
          1    1    3    3  502    0 -0.37596684767E+02 -0.12250043117E+03 -0.40939342344E+03  0.42897883572E+03  0.00000000000E+00 0. -1.
         -2    1    3    3    0  502 -0.24247457020E+02  0.47914572004E+01 -0.11719718441E+03  0.11977511122E+03  0.00000000000E+00 0.  1.
         11    1    5    5    0    0  0.23846216490E+03 -0.60427573523E+02 -0.81354095906E+01  0.24613386728E+03  0.00000000000E+00 0. -1.
        -11    1    5    5    0    0  0.15052982629E+03 -0.11328612947E+03  0.23911437936E+02  0.18990716837E+03  0.00000000000E+00 0.  1.
          2    1    6    6  503    0 -0.25635134099E+03  0.17618278063E+03 -0.14076293898E+03  0.34142435063E+03  0.00000000000E+00 0. -1.
         -2    1    6    6    0  503 -0.70796508425E+02  0.11523989633E+03 -0.40395825111E+02  0.14115311544E+03  0.00000000000E+00 0.  1.
<mgrwt>
<rscale>  0 0.12939686E+04</rscale>
<asrwt>0</asrwt>
<pdfrwt beam="1">  1        1 0.16610352E+00 0.12939686E+04</pdfrwt>
<pdfrwt beam="2">  1       -2 0.59646085E-01 0.12939686E+04</pdfrwt>
<totfact> 0.29692410E+01</totfact>
</mgrwt>
</event>
<event>
12    4  0.4413110E-008  0.1507973E+04  0.7818608E-02  0.8879168E-01
          1   -1    0    0  501    0  0.00000000000E+00  0.00000000000E+00  0.15313836728E+04  0.15313836728E+04  0.00000000000E+00 0. -1.
         -2   -1    0    0    0  501 -0.00000000000E+00 -0.00000000000E+00 -0.37123006107E+03  0.37123006107E+03  0.00000000000E+00 0.  1.
        -24    2    1    2    0    0 -0.20034190436E+03 -0.26051485004E+03  0.81104903149E+03  0.87909795466E+03  0.83712703165E+02 0.  0.
        254    2    1    2    0    0  0.20034190436E+03  0.26051485004E+03  0.34910458020E+03  0.10235157792E+04  0.90427079824E+03 0.  0.
         23    2    4    4    0    0  0.51488846655E+03  0.19236254979E+03  0.23978276196E+02  0.55732261853E+03  0.88994718142E+02 0.  0.
         23    2    4    4    0    0 -0.31454656218E+03  0.68152300257E+02  0.32512630400E+03  0.46619316064E+03  0.89692104757E+02 0.  0.
          1    1    3    3  502    0 -0.31675516777E+02 -0.99957391827E+02  0.29019573566E+03  0.30855855772E+03  0.00000000000E+00 0. -1.
         -4    1    3    3    0  502 -0.16866638758E+03 -0.16055745822E+03  0.52085329582E+03  0.57053939694E+03  0.00000000000E+00 0.  1.
         11    1    5    5    0    0  0.45914885805E+03  0.17043017352E+03  0.49415438096E+02  0.49224587699E+03  0.00000000000E+00 0.  1.
        -11    1    5    5    0    0  0.55739608497E+02  0.21932376266E+02 -0.25437161900E+02  0.65076741541E+02  0.00000000000E+00 0. -1.
          3    1    6    6  503    0 -0.11324608176E+03 -0.13111662583E+02  0.14261584161E+03  0.18258112993E+03  0.00000000000E+00 0. -1.
         -3    1    6    6    0  503 -0.20130048043E+03  0.81263962840E+02  0.18251046240E+03  0.28361203071E+03  0.00000000000E+00 0.  1.
<mgrwt>
<rscale>  0 0.15079730E+04</rscale>
<asrwt>0</asrwt>
<pdfrwt beam="1">  1        1 0.23559748E+00 0.15079730E+04</pdfrwt>
<pdfrwt beam="2">  1       -2 0.57112318E-01 0.15079730E+04</pdfrwt>
<totfact> 0.15167434E+01</totfact>
</mgrwt>
</event>
<event>
12    4  0.4413110E-008  0.2709384E+04  0.7818608E-02  0.8331967E-01
         -2   -1    0    0    0  501 -0.00000000000E+00  0.00000000000E+00  0.72267267555E+03  0.72267267555E+03  0.00000000000E+00 0.  1.
          1   -1    0    0  501    0  0.00000000000E+00 -0.00000000000E+00 -0.25394492704E+04  0.25394492704E+04  0.00000000000E+00 0. -1.
        -24    2    1    2    0    0  0.53716182779E+03 -0.43827390838E+03 -0.20057394917E+04  0.21236945067E+04  0.80377865987E+02 0.  0.
        254    2    1    2    0    0 -0.53716182779E+03  0.43827390838E+03  0.18896289688E+03  0.11384274392E+04  0.88299672136E+03 0.  0.
         23    2    4    4    0    0 -0.13652650201E+03 -0.26216819802E+03  0.47809369881E+02  0.31427512697E+03  0.95454019178E+02 0.  0.
         23    2    4    4    0    0 -0.40063532578E+03  0.70044210640E+03  0.14115352700E+03  0.82415231224E+03  0.90415191745E+02 0.  0.
          3    1    3    3  502    0  0.52247225943E+03 -0.40736621134E+03 -0.19310590074E+04  0.20415468112E+04  0.00000000000E+00 0. -1.
         -4    1    3    3    0  502  0.14689568359E+02 -0.30907697042E+02 -0.74680484277E+02  0.82147695566E+02  0.00000000000E+00 0.  1.
         11    1    5    5    0    0 -0.80217544037E+01 -0.99010383969E+02 -0.66793541338E+01  0.99559120371E+02  0.00000000000E+00 0.  1.
        -11    1    5    5    0    0 -0.12850474761E+03 -0.16315781405E+03  0.54488724015E+02  0.21471600660E+03  0.00000000000E+00 0. -1.
          3    1    6    6  503    0 -0.72905312754E+01  0.36919211131E+02 -0.80993138712E+01  0.38493881098E+02  0.00000000000E+00 0. -1.
         -3    1    6    6    0  503 -0.39334479450E+03  0.66352289527E+03  0.14925284087E+03  0.78565843114E+03  0.00000000000E+00 0.  1.
<mgrwt>
<rscale>  0 0.27093841E+04</rscale>
<asrwt>0</asrwt>
<pdfrwt beam="1">  1        1 0.39068449E+00 0.27093841E+04</pdfrwt>
<pdfrwt beam="2">  1       -2 0.11118041E+00 0.27093841E+04</pdfrwt>
<totfact> 0.62453748E-01</totfact>
</mgrwt>
</event>
<event>
12    4  0.4413110E-008  0.1470577E+04  0.7818608E-02  0.8904258E-01
          1   -1    0    0  501    0  0.00000000000E+00  0.00000000000E+00  0.43909987304E+03  0.43909987304E+03  0.00000000000E+00 0. -1.
         -2   -1    0    0    0  501 -0.00000000000E+00 -0.00000000000E+00 -0.12312675073E+04  0.12312675073E+04  0.00000000000E+00 0.  1.
        -24    2    1    2    0    0  0.34768331413E+03  0.66305005652E+02 -0.57097746767E+03  0.67543731806E+03  0.70144574491E+02 0.  0.
        254    2    1    2    0    0 -0.34768331413E+03 -0.66305005652E+02 -0.22119016657E+03  0.99493006226E+03  0.90315042950E+03 0.  0.
         23    2    4    4    0    0  0.26049049945E+03  0.88760543184E+02  0.67836571065E+02  0.29797150519E+03  0.91931948764E+02 0.  0.
         23    2    4    4    0    0 -0.60817381358E+03 -0.15506554884E+03 -0.28902673763E+03  0.69695855707E+03  0.91071747824E+02 0.  0.
          1    1    3    3  502    0  0.16634818785E+03 -0.38326017118E+01 -0.26036082163E+03  0.30898894135E+03  0.00000000000E+00 0. -1.
         -2    1    3    3    0  502  0.18133512628E+03  0.70137607364E+02 -0.31061664605E+03  0.36644837671E+03  0.00000000000E+00 0.  1.
         11    1    5    5    0    0  0.23945378374E+03  0.86537943499E+02  0.32349905733E+02  0.25665822920E+03  0.00000000000E+00 0.  1.
        -11    1    5    5    0    0  0.21036715705E+02  0.22225996856E+01  0.35486665332E+02  0.41313275995E+02  0.00000000000E+00 0. -1.
          1    1    6    6  503    0 -0.30580520379E+02 -0.75852911464E+01 -0.39978442644E+02  0.50901677229E+02  0.00000000000E+00 0. -1.
         -1    1    6    6    0  503 -0.57759329320E+03 -0.14748025769E+03 -0.24904829499E+03  0.64605687984E+03  0.00000000000E+00 0.  1.
<mgrwt>
<rscale>  0 0.14705773E+04</rscale>
<asrwt>0</asrwt>
<pdfrwt beam="1">  1        1 0.67553827E-01 0.14705773E+04</pdfrwt>
<pdfrwt beam="2">  1       -2 0.18942577E+00 0.14705773E+04</pdfrwt>
<totfact> 0.70097674E+00</totfact>
</mgrwt>
</event>
<event>
12    4  0.4413110E-008  0.2176599E+04  0.7818608E-02  0.8528232E-01
         -2   -1    0    0    0  501 -0.00000000000E+00  0.00000000000E+00  0.59122441728E+03  0.59122441728E+03  0.00000000000E+00 0.  1.
          1   -1    0    0  501    0  0.00000000000E+00 -0.00000000000E+00 -0.20032931881E+04  0.20032931881E+04  0.00000000000E+00 0. -1.
        -24    2    1    2    0    0  0.21091316983E+03 -0.60864328575E+03 -0.14791731191E+04  0.16153561987E+04  0.80569956369E+02 0.  0.
        254    2    1    2    0    0 -0.21091316983E+03  0.60864328575E+03  0.67104348307E+02  0.97916140666E+03  0.73438617378E+03 0.  0.
         23    2    4    4    0    0  0.36939744196E+02  0.10949926166E+02 -0.23830513882E+03  0.25791669901E+03  0.90814309748E+02 0.  0.
         23    2    4    4    0    0 -0.24785291402E+03  0.59769335959E+03  0.30540948713E+03  0.72124470765E+03  0.90832562467E+02 0.  0.
          3    1    3    3  502    0  0.10674947711E+03 -0.19511791472E+03 -0.53122783382E+03  0.57590751248E+03  0.00000000000E+00 0. -1.
         -4    1    3    3    0  502  0.10416369272E+03 -0.41352537103E+03 -0.94794528528E+03  0.10394486862E+04  0.00000000000E+00 0.  1.
         11    1    5    5    0    0  0.60801304099E+01  0.41483942418E+01  0.72530210266E+01  0.10333608982E+02  0.00000000000E+00 0. -1.
        -11    1    5    5    0    0  0.30859613786E+02  0.68015319238E+01 -0.24555815985E+03  0.24758309003E+03  0.00000000000E+00 0.  1.
          3    1    6    6  503    0 -0.47412279251E+02  0.21663372025E+03  0.84456852103E+02  0.23729950030E+03  0.00000000000E+00 0. -1.
         -3    1    6    6    0  503 -0.20044063477E+03  0.38105963933E+03  0.22095263503E+03  0.48394520735E+03  0.00000000000E+00 0.  1.
<mgrwt>
<rscale>  0 0.21765990E+04</rscale>
<asrwt>0</asrwt>
<pdfrwt beam="1">  1        1 0.30819895E+00 0.21765990E+04</pdfrwt>
<pdfrwt beam="2">  1       -2 0.90957603E-01 0.21765990E+04</pdfrwt>
<totfact> 0.24533922E+00</totfact>
</mgrwt>
</event>
<event>
12    4  0.4413110E-008  0.1242050E+04  0.7818608E-02  0.9076826E-01
          1   -1    0    0  501    0  0.00000000000E+00  0.00000000000E+00  0.14506461061E+04  0.14506461061E+04  0.00000000000E+00 0. -1.
         -2   -1    0    0    0  501 -0.00000000000E+00 -0.00000000000E+00 -0.26586209945E+03  0.26586209945E+03  0.00000000000E+00 0.  1.
        -24    2    1    2    0    0 -0.12855846425E+03 -0.24404896361E+03  0.39830030429E+03  0.49111937538E+03  0.80423461134E+02 0.  0.
        254    2    1    2    0    0  0.12855846425E+03  0.24404896361E+03  0.78648370239E+03  0.12253888302E+04  0.89829504936E+03 0.  0.
         23    2    4    4    0    0 -0.13898113476E+03  0.63570039206E+02 -0.14841231747E+03  0.23246728638E+03  0.93047931499E+02 0.  0.
         23    2    4    4    0    0  0.26753959901E+03  0.18047892440E+03  0.93489601986E+03  0.99292154383E+03  0.87821096889E+02 0.  0.
          3    1    3    3  502    0  0.59807381603E+01 -0.30275400204E+02  0.73110600988E+02  0.79356972367E+02  0.00000000000E+00 0. -1.
         -4    1    3    3    0  502 -0.13453920241E+03 -0.21377356340E+03  0.32518970331E+03  0.41176240301E+03  0.00000000000E+00 0.  1.
         11    1    5    5    0    0 -0.56581631342E+01 -0.15722959247E+01  0.12359686236E+02  0.13683887181E+02  0.00000000000E+00 0. -1.
        -11    1    5    5    0    0 -0.13332297163E+03  0.65142335131E+02 -0.16077200370E+03  0.21878339920E+03  0.00000000000E+00 0.  1.
          1    1    6    6  503    0  0.20559904380E+02  0.14653208698E+02  0.17600143156E+03  0.17780306551E+03  0.00000000000E+00 0. -1.
         -1    1    6    6    0  503  0.24697969463E+03  0.16582571570E+03  0.75889458830E+03  0.81511847832E+03  0.00000000000E+00 0.  1.
<mgrwt>
<rscale>  0 0.12420496E+04</rscale>
<asrwt>0</asrwt>
<pdfrwt beam="1">  1        1 0.22317632E+00 0.12420496E+04</pdfrwt>
<pdfrwt beam="2">  1       -2 0.40901862E-01 0.12420496E+04</pdfrwt>
<totfact> 0.34693833E+01</totfact>
</mgrwt>
</event>
<event>
12    4  0.4413110E-008  0.3018851E+04  0.7818608E-02  0.8238368E-01
         -2   -1    0    0    0  501 -0.00000000000E+00  0.00000000000E+00  0.19856098389E+04  0.19856098389E+04  0.00000000000E+00 0.  1.
          1   -1    0    0  501    0  0.00000000000E+00 -0.00000000000E+00 -0.11474384575E+04  0.11474384575E+04  0.00000000000E+00 0. -1.
        -24    2    1    2    0    0 -0.27538732410E+03 -0.13404635455E+04  0.48225155986E+03  0.14529601367E+04  0.76458464971E+02 0.  0.
        254    2    1    2    0    0  0.27538732410E+03  0.13404635455E+04  0.35591982157E+03  0.16800881596E+04  0.90737897791E+03 0.  0.
         23    2    4    4    0    0  0.32894360186E+03  0.57122495113E+03  0.56903505026E+03  0.87552130419E+03  0.90745951189E+02 0.  0.
         23    2    4    4    0    0 -0.53556277764E+02  0.76923859438E+03 -0.21311522869E+03  0.80456685542E+03  0.85518618859E+02 0.  0.
          3    1    3    3  502    0  0.32964340274E+01 -0.41522305812E+01  0.36179883340E+01  0.64185150682E+01  0.00000000000E+00 0. -1.
         -4    1    3    3    0  502 -0.27868375813E+03 -0.13363113149E+04  0.47863357152E+03  0.14465416217E+04  0.00000000000E+00 0.  1.
         11    1    5    5    0    0  0.28707197134E+03  0.47905289480E+03  0.51978343918E+03  0.76293958895E+03  0.00000000000E+00 0. -1.
        -11    1    5    5    0    0  0.41871630519E+02  0.92172056333E+02  0.49251611084E+02  0.11258171524E+03  0.00000000000E+00 0.  1.
          3    1    6    6  503    0 -0.38242752290E+02  0.69338950832E+03 -0.21561790056E+03  0.72714688846E+03  0.00000000000E+00 0. -1.
         -3    1    6    6    0  503 -0.15313525474E+02  0.75849086063E+02  0.25026718634E+01  0.77419966969E+02  0.00000000000E+00 0.  1.
<mgrwt>
<rscale>  0 0.30188508E+04</rscale>
<asrwt>0</asrwt>
<pdfrwt beam="1">  1        1 0.17652899E+00 0.30188508E+04</pdfrwt>
<pdfrwt beam="2">  1       -2 0.30547844E+00 0.30188508E+04</pdfrwt>
<totfact> 0.25629571E-01</totfact>
</mgrwt>
</event>
<event>
12    4  0.4413110E-008  0.1579610E+04  0.7818608E-02  0.8833173E-01
          3   -1    0    0  501    0  0.00000000000E+00  0.00000000000E+00  0.24016226737E+04  0.24016226737E+04  0.00000000000E+00 0. -1.
         -4   -1    0    0    0  501 -0.00000000000E+00 -0.00000000000E+00 -0.25973766261E+03  0.25973766261E+03  0.00000000000E+00 0.  1.
        -24    2    1    2    0    0  0.17343551763E+03  0.12390460695E+03 -0.92770455795E+02  0.24552548783E+03  0.79020106958E+02 0.  0.
        254    2    1    2    0    0 -0.17343551763E+03 -0.12390460695E+03  0.22346554668E+04  0.24158348484E+04  0.89282737920E+03 0.  0.
         23    2    4    4    0    0 -0.72520780234E+02 -0.18649131223E+03  0.22522803675E+04  0.22630350602E+04  0.92317694719E+02 0.  0.
         23    2    4    4    0    0 -0.10091473740E+03  0.62586705282E+02 -0.17624900646E+02  0.15279978825E+03  0.94531784423E+02 0.  0.
          1    1    3    3  502    0  0.39283911618E+01  0.32567308510E+02 -0.25551390320E+02  0.41580468828E+02  0.00000000000E+00 0. -1.
         -2    1    3    3    0  502  0.16950712647E+03  0.91337298444E+02 -0.67219065476E+02  0.20394501900E+03  0.00000000000E+00 0.  1.
         11    1    5    5    0    0 -0.27001954351E+02 -0.15247932965E+03  0.13255487051E+04  0.13345630075E+04  0.00000000000E+00 0.  1.
        -11    1    5    5    0    0 -0.45518825883E+02 -0.34011982589E+02  0.92673166241E+03  0.92847205267E+03  0.00000000000E+00 0. -1.
          2    1    6    6  503    0 -0.62475505996E+02 -0.15614681313E+02 -0.11781275997E+02  0.65466064385E+02  0.00000000000E+00 0. -1.
         -2    1    6    6    0  503 -0.38439231399E+02  0.78201386594E+02 -0.58436246487E+01  0.87333723869E+02  0.00000000000E+00 0.  1.
<mgrwt>
<rscale>  0 0.15796099E+04</rscale>
<asrwt>0</asrwt>
<pdfrwt beam="1">  1        3 0.36948040E+00 0.15796099E+04</pdfrwt>
<pdfrwt beam="2">  1       -4 0.39959642E-01 0.15796099E+04</pdfrwt>
<totfact> 0.21965921E-01</totfact>
</mgrwt>
</event>
<event>
12    4  0.4413110E-008  0.1644599E+04  0.7818608E-02  0.8793608E-01
          3   -1    0    0  501    0  0.00000000000E+00  0.00000000000E+00  0.30324440004E+04  0.30324440004E+04  0.00000000000E+00 0. -1.
         -4   -1    0    0    0  501 -0.00000000000E+00 -0.00000000000E+00 -0.22298077648E+03  0.22298077648E+03  0.00000000000E+00 0.  1.
        -24    2    1    2    0    0 -0.55291346099E+03 -0.27649198319E+02  0.12256175071E+04  0.13473457383E+04  0.82002995831E+02 0.  0.
        254    2    1    2    0    0  0.55291346099E+03  0.27649198319E+02  0.15838457168E+04  0.19080790386E+04  0.90869169097E+03 0.  0.
         23    2    4    4    0    0  0.64255890527E+03 -0.26083611119E+03  0.13305254377E+04  0.15030876910E+04  0.89762145365E+02 0.  0.
         23    2    4    4    0    0 -0.89645444276E+02  0.28848530951E+03  0.25332027914E+03  0.40499134762E+03  0.92664709262E+02 0.  0.
          3    1    3    3  502    0 -0.52272350783E+03 -0.33173389297E+02  0.11909847274E+04  0.13010706977E+04  0.00000000000E+00 0. -1.
         -2    1    3    3    0  502 -0.30189953164E+02  0.55241909782E+01  0.34632779687E+02  0.46275040647E+02  0.00000000000E+00 0.  1.
         11    1    5    5    0    0  0.59366775173E+03 -0.23528610390E+03  0.12678495074E+04  0.14195926612E+04  0.00000000000E+00 0.  1.
        -11    1    5    5    0    0  0.48891153537E+02 -0.25550007289E+02  0.62675930231E+02  0.83495029774E+02  0.00000000000E+00 0. -1.
          4    1    6    6  503    0  0.14079594359E+02  0.12312127232E+02  0.49404289442E+01  0.19345058605E+02  0.00000000000E+00 0. -1.
         -4    1    6    6    0  503 -0.10372503863E+03  0.27617318228E+03  0.24837985019E+03  0.38564628901E+03  0.00000000000E+00 0.  1.
<mgrwt>
<rscale>  0 0.16445993E+04</rscale>
<asrwt>0</asrwt>
<pdfrwt beam="1">  1        3 0.46652982E+00 0.16445993E+04</pdfrwt>
<pdfrwt beam="2">  1       -4 0.34304737E-01 0.16445993E+04</pdfrwt>
<totfact> 0.92194780E-02</totfact>
</mgrwt>
</event>
<event>
12    4  0.4413110E-008  0.1680606E+04  0.7818608E-02  0.8772504E-01
          3   -1    0    0  501    0  0.00000000000E+00  0.00000000000E+00  0.70542217526E+03  0.70542217526E+03  0.00000000000E+00 0. -1.
         -4   -1    0    0    0  501 -0.00000000000E+00 -0.00000000000E+00 -0.10009732668E+04  0.10009732668E+04  0.00000000000E+00 0.  1.
        -24    2    1    2    0    0  0.11946164468E+03 -0.31346631885E+03  0.39631637356E+03  0.52547702037E+03  0.80791171479E+02 0.  0.
        254    2    1    2    0    0 -0.11946164468E+03  0.31346631885E+03 -0.69186746514E+03  0.11809184217E+04  0.89630101632E+03 0.  0.
         23    2    4    4    0    0 -0.25922493645E+02  0.44250209928E+03  0.12720822022E+02  0.45270151055E+03  0.91086523720E+02 0.  0.
         23    2    4    4    0    0 -0.93539151035E+02 -0.12903578043E+03 -0.70458828716E+03  0.72821691118E+03  0.91953302846E+02 0.  0.
          1    1    3    3  502    0  0.65283073786E+02 -0.14207245493E+03  0.24436232925E+03  0.29010241318E+03  0.00000000000E+00 0. -1.
         -2    1    3    3    0  502  0.54178570894E+02 -0.17139386391E+03  0.15195404430E+03  0.23537460719E+03  0.00000000000E+00 0.  1.
         11    1    5    5    0    0 -0.45008060060E+02  0.42063371984E+03  0.68616696026E+01  0.42309045634E+03  0.00000000000E+00 0. -1.
        -11    1    5    5    0    0  0.19085566414E+02  0.21868379438E+02  0.58591524197E+01  0.29611054214E+02  0.00000000000E+00 0.  1.
          3    1    6    6  503    0 -0.73926603230E+02 -0.14143039076E+03 -0.58371218622E+03  0.60513437717E+03  0.00000000000E+00 0. -1.
         -3    1    6    6    0  503 -0.19612547805E+02  0.12394610330E+02 -0.12087610095E+03  0.12308253400E+03  0.00000000000E+00 0.  1.
<mgrwt>
<rscale>  0 0.16806055E+04</rscale>
<asrwt>0</asrwt>
<pdfrwt beam="1">  1        3 0.10852649E+00 0.16806055E+04</pdfrwt>
<pdfrwt beam="2">  1       -4 0.15399589E+00 0.16806055E+04</pdfrwt>
<totfact> 0.43656745E-01</totfact>
</mgrwt>
</event>
<event>
12    4  0.4413110E-008  0.1266292E+04  0.7818608E-02  0.9056731E-01
          1   -1    0    0  501    0  0.00000000000E+00  0.00000000000E+00  0.35195655815E+04  0.35195655815E+04  0.00000000000E+00 0. -1.
         -2   -1    0    0    0  501 -0.00000000000E+00 -0.00000000000E+00 -0.11389872824E+03  0.11389872824E+03  0.00000000000E+00 0.  1.
        -24    2    1    2    0    0 -0.17220116809E+03 -0.11252236045E+03  0.15140616696E+04  0.15300771523E+04  0.80242311563E+02 0.  0.
        254    2    1    2    0    0  0.17220116809E+03  0.11252236045E+03  0.18916051837E+04  0.21033871575E+04  0.89652263753E+03 0.  0.
         23    2    4    4    0    0  0.48028783472E+03 -0.13993245321E+03  0.96896518727E+03  0.10943168788E+04  0.91533608725E+02 0.  0.
         23    2    4    4    0    0 -0.30808666663E+03  0.25245481366E+03  0.92263999639E+03  0.10090702787E+04  0.91145143853E+02 0.  0.
          1    1    3    3  502    0 -0.15471458350E+03 -0.93075657700E+02  0.14448783403E+04  0.14561157573E+04  0.00000000000E+00 0. -1.
         -2    1    3    3    0  502 -0.17486584592E+02 -0.19446702750E+02  0.69183329381E+02  0.73961395016E+02  0.00000000000E+00 0.  1.
         11    1    5    5    0    0  0.57018295951E+02  0.13738458086E+01  0.66885778003E+02  0.87901540513E+02  0.00000000000E+00 0.  1.
        -11    1    5    5    0    0  0.42326953877E+03 -0.14130629902E+03  0.90207940927E+03  0.10064153383E+04  0.00000000000E+00 0. -1.
          1    1    6    6  503    0 -0.30950558335E+03  0.24604380389E+03  0.92102784571E+03  0.10023091101E+04  0.00000000000E+00 0. -1.
         -1    1    6    6    0  503  0.14189167267E+01  0.64110097648E+01  0.16121506804E+01  0.67611685897E+01  0.00000000000E+00 0.  1.
<mgrwt>
<rscale>  0 0.12662923E+04</rscale>
<asrwt>0</asrwt>
<pdfrwt beam="1">  1        1 0.54147154E+00 0.12662923E+04</pdfrwt>
<pdfrwt beam="2">  1       -2 0.17522884E-01 0.12662923E+04</pdfrwt>
<totfact> 0.57246995E+00</totfact>
</mgrwt>
</event>
<event>
12    4  0.4413110E-008  0.2106990E+04  0.7818608E-02  0.8558170E-01
         -2   -1    0    0    0  501 -0.00000000000E+00  0.00000000000E+00  0.68553949919E+03  0.68553949919E+03  0.00000000000E+00 0.  1.
          1   -1    0    0  501    0  0.00000000000E+00 -0.00000000000E+00 -0.16189466105E+04  0.16189466105E+04  0.00000000000E+00 0. -1.
        -24    2    1    2    0    0 -0.39819510464E+03 -0.56191132778E+03  0.17923122070E+03  0.71608782516E+03  0.79713620034E+02 0.  0.
        254    2    1    2    0    0  0.39819510464E+03  0.56191132778E+03 -0.11126383320E+04  0.15883982845E+04  0.90041177846E+03 0.  0.
         23    2    4    4    0    0  0.13418919627E+03  0.22461438153E+03 -0.11173472122E+04  0.11512068837E+04  0.91400960888E+02 0.  0.
         23    2    4    4    0    0  0.26400590837E+03  0.33729694625E+03  0.47088801510E+01  0.43719140088E+03  0.87440252990E+02 0.  0.
          3    1    3    3  502    0 -0.22848801409E+02 -0.34501169700E+02 -0.81484394853E+01  0.42175769139E+02  0.00000000000E+00 0. -1.
         -4    1    3    3    0  502 -0.37534630323E+03 -0.52741015808E+03  0.18737966019E+03  0.67391205602E+03  0.00000000000E+00 0.  1.
         11    1    5    5    0    0  0.94193066832E+02  0.17816413399E+03 -0.98428450468E+03  0.10047043240E+04  0.00000000000E+00 0. -1.
        -11    1    5    5    0    0  0.39996129435E+02  0.46450247537E+02 -0.13306270749E+03  0.14650255967E+03  0.00000000000E+00 0.  1.
          3    1    6    6  503    0  0.22580761730E+03  0.29561848765E+03 -0.25914346112E+02  0.37289532527E+03  0.00000000000E+00 0. -1.
         -3    1    6    6    0  503  0.38198291074E+02  0.41678458601E+02  0.30623226263E+02  0.64296075612E+02  0.00000000000E+00 0.  1.
<mgrwt>
<rscale>  0 0.21069901E+04</rscale>
<asrwt>0</asrwt>
<pdfrwt beam="1">  1        1 0.24906871E+00 0.21069901E+04</pdfrwt>
<pdfrwt beam="2">  1       -2 0.10546762E+00 0.21069901E+04</pdfrwt>
<totfact> 0.31782017E+00</totfact>
</mgrwt>
</event>
<event>
12    4  0.4413110E-008  0.1257981E+04  0.7818608E-02  0.9063567E-01
          1   -1    0    0  501    0  0.00000000000E+00  0.00000000000E+00  0.66097514988E+03  0.66097514988E+03  0.00000000000E+00 0. -1.
         -2   -1    0    0    0  501 -0.00000000000E+00 -0.00000000000E+00 -0.59855359636E+03  0.59855359636E+03  0.00000000000E+00 0.  1.
        -24    2    1    2    0    0  0.21501485050E+03  0.15228606023E+03 -0.14049715101E+03  0.30907193961E+03  0.79772077409E+02 0.  0.
        254    2    1    2    0    0 -0.21501485050E+03 -0.15228606023E+03  0.20291870453E+03  0.95045680664E+03  0.89037616239E+03 0.  0.
         23    2    4    4    0    0 -0.80344338357E+02  0.15616442703E+03  0.47088996580E+03  0.51076844844E+03  0.91129068156E+02 0.  0.
         23    2    4    4    0    0 -0.13467051215E+03 -0.30845048726E+03 -0.26797126127E+03  0.43968835819E+03  0.90771171274E+02 0.  0.
          1    1    3    3  502    0  0.73106708168E+02  0.22653635505E+02 -0.11021882389E+02  0.77325674082E+02  0.00000000000E+00 0. -1.
         -2    1    3    3    0  502  0.14190814233E+03  0.12963242472E+03 -0.12947526862E+03  0.23174626553E+03  0.00000000000E+00 0.  1.
         11    1    5    5    0    0 -0.80164054720E+02  0.15139669134E+03  0.34892844415E+03  0.38871363875E+03  0.00000000000E+00 0.  1.
        -11    1    5    5    0    0 -0.18028363691E+00  0.47677356892E+01  0.12196152165E+03  0.12205480969E+03  0.00000000000E+00 0. -1.
          1    1    6    6  503    0  0.50127429688E+01  0.10909654020E+01  0.23441321541E+01  0.56402795263E+01  0.00000000000E+00 0. -1.
         -1    1    6    6    0  503 -0.13968325512E+03 -0.30954145266E+03 -0.27031539342E+03  0.43404807867E+03  0.00000000000E+00 0.  1.
<mgrwt>
<rscale>  0 0.12579810E+04</rscale>
<asrwt>0</asrwt>
<pdfrwt beam="1">  1        1 0.10168848E+00 0.12579810E+04</pdfrwt>
<pdfrwt beam="2">  1       -2 0.92085168E-01 0.12579810E+04</pdfrwt>
<totfact> 0.25694176E+01</totfact>
</mgrwt>
</event>
<event>
12    4  0.4413110E-008  0.2039898E+04  0.7818608E-02  0.8588191E-01
         -2   -1    0    0    0  501 -0.00000000000E+00  0.00000000000E+00  0.21801558545E+04  0.21801558545E+04  0.00000000000E+00 0.  1.
          1   -1    0    0  501    0  0.00000000000E+00 -0.00000000000E+00 -0.47716590883E+03  0.47716590883E+03  0.00000000000E+00 0. -1.
        -24    2    1    2    0    0 -0.59947106598E+03 -0.14047508199E+03  0.13916335261E+04  0.15238345485E+04  0.79555343547E+02 0.  0.
        254    2    1    2    0    0  0.59947106598E+03  0.14047508199E+03  0.31135641961E+03  0.11334872149E+04  0.89930619846E+03 0.  0.
         23    2    4    4    0    0  0.58557746962E+02  0.27033086601E+03  0.46655810765E+03  0.54991046662E+03  0.90649140299E+02 0.  0.
         23    2    4    4    0    0  0.54091331902E+03 -0.12985578401E+03 -0.15520168804E+03  0.58357674824E+03  0.83812372462E+02 0.  0.
          3    1    3    3  502    0 -0.66528865127E+02 -0.11799529047E+02  0.22251393102E+03  0.23254627126E+03  0.00000000000E+00 0. -1.
         -4    1    3    3    0  502 -0.53294220086E+03 -0.12867555295E+03  0.11691195951E+04  0.12912882772E+04  0.00000000000E+00 0.  1.
         11    1    5    5    0    0 -0.16899315871E+02  0.78067275372E+02  0.17750752489E+03  0.19465098960E+03  0.00000000000E+00 0. -1.
        -11    1    5    5    0    0  0.75457062832E+02  0.19226359063E+03  0.28905058276E+03  0.35525947701E+03  0.00000000000E+00 0.  1.
          1    1    6    6  503    0  0.53656947394E+03 -0.13400015454E+03 -0.14500248395E+03  0.57174169179E+03  0.00000000000E+00 0. -1.
         -1    1    6    6    0  503  0.43438450831E+01  0.41443705230E+01 -0.10199204087E+02  0.11835056449E+02  0.00000000000E+00 0.  1.
<mgrwt>
<rscale>  0 0.20398981E+04</rscale>
<asrwt>0</asrwt>
<pdfrwt beam="1">  1        1 0.73410141E-01 0.20398981E+04</pdfrwt>
<pdfrwt beam="2">  1       -2 0.33540859E+00 0.20398981E+04</pdfrwt>
<totfact> 0.73614472E-01</totfact>
</mgrwt>
</event>
<event>
12    4  0.4413110E-008  0.1204937E+04  0.7818608E-02  0.9108546E-01
         -2   -1    0    0    0  501 -0.00000000000E+00  0.00000000000E+00  0.16131218868E+04  0.16131218868E+04  0.00000000000E+00 0.  1.
          1   -1    0    0  501    0  0.00000000000E+00 -0.00000000000E+00 -0.22500976086E+03  0.22500976086E+03  0.00000000000E+00 0. -1.
        -24    2    1    2    0    0 -0.21017347775E+00 -0.22866338124E+03  0.48703600796E+03  0.54407953810E+03  0.80817601044E+02 0.  0.
        254    2    1    2    0    0  0.21017347775E+00  0.22866338124E+03  0.90107611794E+03  0.12940521095E+04  0.90019203825E+03 0.  0.
         23    2    4    4    0    0  0.11850814050E+03 -0.31551411230E+03  0.46284585363E+03  0.57955706954E+03  0.89815244838E+02 0.  0.
         23    2    4    4    0    0 -0.11829796702E+03  0.54417749354E+03  0.43823026431E+03  0.71449503997E+03  0.91289890495E+02 0.  0.
          1    1    3    3  502    0 -0.56341823506E+01 -0.15121982120E+03  0.22790091386E+03  0.27356535759E+03  0.00000000000E+00 0. -1.
         -2    1    3    3    0  502  0.54240088728E+01 -0.77443560037E+02  0.25913509410E+03  0.27051418051E+03  0.00000000000E+00 0.  1.
         11    1    5    5    0    0  0.98917366178E+01 -0.12138881675E+02  0.68664852192E+02  0.70427699296E+02  0.00000000000E+00 0. -1.
        -11    1    5    5    0    0  0.10861640388E+03 -0.30337523063E+03  0.39418100144E+03  0.50912937025E+03  0.00000000000E+00 0.  1.
          3    1    6    6  503    0 -0.51271423277E+02  0.91434950429E+02  0.60213358171E+02  0.12089151131E+03  0.00000000000E+00 0. -1.
         -3    1    6    6    0  503 -0.67026543747E+02  0.45274254312E+03  0.37801690614E+03  0.59360352866E+03  0.00000000000E+00 0.  1.
<mgrwt>
<rscale>  0 0.12049368E+04</rscale>
<asrwt>0</asrwt>
<pdfrwt beam="1">  1        1 0.34616887E-01 0.12049368E+04</pdfrwt>
<pdfrwt beam="2">  1       -2 0.24817259E+00 0.12049368E+04</pdfrwt>
<totfact> 0.72764616E+00</totfact>
</mgrwt>
</event>
<event>
12    4  0.4413110E-008  0.1851576E+04  0.7818608E-02  0.8679343E-01
          1   -1    0    0  501    0  0.00000000000E+00  0.00000000000E+00  0.77708137772E+03  0.77708137772E+03  0.00000000000E+00 0. -1.
         -2   -1    0    0    0  501 -0.00000000000E+00 -0.00000000000E+00 -0.11029520255E+04  0.11029520255E+04  0.00000000000E+00 0.  1.
        -24    2    1    2    0    0  0.40687691916E+03 -0.13958529007E+03 -0.68923900853E+03  0.81639758003E+03  0.80135617829E+02 0.  0.
        254    2    1    2    0    0 -0.40687691916E+03  0.13958529007E+03  0.36336836073E+03  0.10636358232E+04  0.90235897418E+03 0.  0.
         23    2    4    4    0    0 -0.52195240166E+03 -0.15544965953E+03 -0.26826783667E+02  0.55256842187E+03  0.89516916170E+02 0.  0.
         23    2    4    4    0    0  0.11507548250E+03  0.29503494960E+03  0.39019514440E+03  0.51106740134E+03  0.93003493703E+02 0.  0.
          1    1    3    3  502    0  0.18773040994E+03 -0.22667110578E+02 -0.29036968905E+03  0.34651271411E+03  0.00000000000E+00 0. -1.
         -2    1    3    3    0  502  0.21914650923E+03 -0.11691817949E+03 -0.39886931948E+03  0.46988486592E+03  0.00000000000E+00 0.  1.
         11    1    5    5    0    0 -0.36210489545E+03 -0.12785213177E+03 -0.54986610873E+02  0.38792995538E+03  0.00000000000E+00 0.  1.
        -11    1    5    5    0    0 -0.15984750621E+03 -0.27597527766E+02  0.28159827206E+02  0.16463846649E+03  0.00000000000E+00 0. -1.
          3    1    6    6  503    0  0.45037486626E+02  0.13719919746E+03  0.10835193368E+03  0.18053292364E+03  0.00000000000E+00 0. -1.
         -3    1    6    6    0  503  0.70037995871E+02  0.15783575214E+03  0.28184321072E+03  0.33053447770E+03  0.00000000000E+00 0.  1.
<mgrwt>
<rscale>  0 0.18515761E+04</rscale>
<asrwt>0</asrwt>
<pdfrwt beam="1">  1        1 0.11955098E+00 0.18515761E+04</pdfrwt>
<pdfrwt beam="2">  1       -2 0.16968493E+00 0.18515761E+04</pdfrwt>
<totfact> 0.40815708E+00</totfact>
</mgrwt>
</event>
<event>
12    4  0.4413110E-008  0.2424484E+04  0.7818608E-02  0.8430394E-01
          1   -1    0    0  501    0  0.00000000000E+00  0.00000000000E+00  0.21710242372E+04  0.21710242372E+04  0.00000000000E+00 0. -1.
         -2   -1    0    0    0  501 -0.00000000000E+00 -0.00000000000E+00 -0.67688360272E+03  0.67688360272E+03  0.00000000000E+00 0.  1.
        -24    2    1    2    0    0  0.72600235622E+03  0.46765353658E+03  0.13391862360E+04  0.15958946917E+04  0.87640407665E+02 0.  0.
        254    2    1    2    0    0 -0.72600235622E+03 -0.46765353658E+03  0.15495439854E+03  0.12520131482E+04  0.89316672918E+03 0.  0.
         23    2    4    4    0    0 -0.19429442352E+03 -0.61027310299E+02 -0.34548239335E+03  0.41112335565E+03  0.90496816678E+02 0.  0.
         23    2    4    4    0    0 -0.53170793270E+03 -0.40662622628E+03  0.50043679189E+03  0.84088979255E+03  0.92738594656E+02 0.  0.
          1    1    3    3  502    0  0.61041905052E+03  0.35283642757E+03  0.10941572709E+04  0.13016470702E+04  0.00000000000E+00 0. -1.
         -2    1    3    3    0  502  0.11558330570E+03  0.11481710901E+03  0.24502896504E+03  0.29424762155E+03  0.00000000000E+00 0.  1.
         11    1    5    5    0    0 -0.21294083336E+02  0.22198685923E+02 -0.52418858825E+02  0.60777926934E+02  0.00000000000E+00 0.  1.
        -11    1    5    5    0    0 -0.17300034019E+03 -0.83225996222E+02 -0.29306353453E+03  0.35034542872E+03  0.00000000000E+00 0. -1.
          2    1    6    6  503    0 -0.43737974957E+03 -0.30162854626E+03  0.42794884816E+03  0.68221773789E+03  0.00000000000E+00 0. -1.
         -2    1    6    6    0  503 -0.94328183122E+02 -0.10499768002E+03  0.72487943730E+02  0.15867205465E+03  0.00000000000E+00 0.  1.
<mgrwt>
<rscale>  0 0.24244840E+04</rscale>
<asrwt>0</asrwt>
<pdfrwt beam="1">  1        1 0.33400373E+00 0.24244840E+04</pdfrwt>
<pdfrwt beam="2">  1       -2 0.10413594E+00 0.24244840E+04</pdfrwt>
<totfact> 0.13433102E+00</totfact>
</mgrwt>
</event>
<event>
12    4  0.4413110E-008  0.1555923E+04  0.7818608E-02  0.8848093E-01
          1   -1    0    0  501    0  0.00000000000E+00  0.00000000000E+00  0.19036867868E+04  0.19036867868E+04  0.00000000000E+00 0. -1.
         -2   -1    0    0    0  501 -0.00000000000E+00 -0.00000000000E+00 -0.31792215693E+03  0.31792215693E+03  0.00000000000E+00 0.  1.
        -24    2    1    2    0    0  0.47448109482E+03 -0.91818140010E+02  0.77256888010E+03  0.91470783278E+03  0.79150898194E+02 0.  0.
        254    2    1    2    0    0 -0.47448109482E+03  0.91818140010E+02  0.81319574975E+03  0.13069011109E+04  0.90174292686E+03 0.  0.
         23    2    4    4    0    0 -0.14758478017E+03 -0.10885220707E+03 -0.15830478384E+03  0.25862388638E+03  0.90530877039E+02 0.  0.
         23    2    4    4    0    0 -0.32689631465E+03  0.20067034708E+03  0.97150053359E+03  0.10482772245E+04  0.89118258523E+02 0.  0.
          1    1    3    3  502    0  0.16016881194E+02  0.10991345646E+02  0.23658276921E+02  0.30611504850E+02  0.00000000000E+00 0. -1.
         -2    1    3    3    0  502  0.45846421363E+03 -0.10280948566E+03  0.74891060317E+03  0.88409632793E+03  0.00000000000E+00 0.  1.
         11    1    5    5    0    0 -0.15071108573E+03 -0.71128568133E+02 -0.12990046082E+03  0.21129892164E+03  0.00000000000E+00 0.  1.
        -11    1    5    5    0    0  0.31263055589E+01 -0.37723638936E+02 -0.28404323022E+02  0.47324964737E+02  0.00000000000E+00 0. -1.
          1    1    6    6  503    0 -0.68999626982E+01  0.12222057507E+02  0.91370791732E+01  0.16747369667E+02  0.00000000000E+00 0. -1.
         -1    1    6    6    0  503 -0.31999635196E+03  0.18844828957E+03  0.96236345442E+03  0.10315298549E+04  0.00000000000E+00 0.  1.
<mgrwt>
<rscale>  0 0.15559231E+04</rscale>
<asrwt>0</asrwt>
<pdfrwt beam="1">  1        1 0.29287488E+00 0.15559231E+04</pdfrwt>
<pdfrwt beam="2">  1       -2 0.48911102E-01 0.15559231E+04</pdfrwt>
<totfact> 0.11594334E+01</totfact>
</mgrwt>
</event>
<event>
12    4  0.4413110E-008  0.1549090E+04  0.7818608E-02  0.8852449E-01
         -2   -1    0    0    0  501 -0.00000000000E+00  0.00000000000E+00  0.28080980570E+03  0.28080980570E+03  0.00000000000E+00 0.  1.
          1   -1    0    0  501    0  0.00000000000E+00 -0.00000000000E+00 -0.21363912470E+04  0.21363912470E+04  0.00000000000E+00 0. -1.
        -24    2    1    2    0    0  0.24285241227E+03 -0.31352373186E+03 -0.12205497506E+03  0.42272174648E+03  0.80757869144E+02 0.  0.
        254    2    1    2    0    0 -0.24285241227E+03  0.31352373186E+03 -0.17335264662E+04  0.19944793062E+04  0.90308320168E+03 0.  0.
         23    2    4    4    0    0 -0.61067708798E+02  0.56669443292E+03 -0.68589516818E+03  0.89764665327E+03  0.10220316550E+03 0.  0.
         23    2    4    4    0    0 -0.18178470347E+03 -0.25317070107E+03 -0.10476312980E+04  0.10968326529E+04  0.91484695887E+02 0.  0.
          3    1    3    3  502    0  0.11647341709E+03 -0.11108812280E+03 -0.82339182385E+02  0.18079371912E+03  0.00000000000E+00 0. -1.
         -4    1    3    3    0  502  0.12637899518E+03 -0.20243560906E+03 -0.39715792673E+02  0.24192802737E+03  0.00000000000E+00 0.  1.
         11    1    5    5    0    0  0.17440935492E+02  0.57266580913E+02 -0.43364402870E+02  0.73919679088E+02  0.00000000000E+00 0. -1.
        -11    1    5    5    0    0 -0.78508644290E+02  0.50942785201E+03 -0.64253076531E+03  0.82372697419E+03  0.00000000000E+00 0.  1.
          3    1    6    6  503    0 -0.31734189570E+02 -0.51463183652E+01 -0.15544892832E+03  0.15873850414E+03  0.00000000000E+00 0. -1.
         -3    1    6    6    0  503 -0.15005051390E+03 -0.24802438270E+03 -0.89218236970E+03  0.93809414876E+03  0.00000000000E+00 0.  1.
<mgrwt>
<rscale>  0 0.15490896E+04</rscale>
<asrwt>0</asrwt>
<pdfrwt beam="1">  1        1 0.32867559E+00 0.15490896E+04</pdfrwt>
<pdfrwt beam="2">  1       -2 0.43201507E-01 0.15490896E+04</pdfrwt>
<totfact> 0.10354443E+01</totfact>
</mgrwt>
</event>
<event>
12    4  0.4413110E-008  0.1690677E+04  0.7818608E-02  0.8766700E-01
         -2   -1    0    0    0  501 -0.00000000000E+00  0.00000000000E+00  0.72688826482E+03  0.72688826482E+03  0.00000000000E+00 0.  1.
          1   -1    0    0  501    0  0.00000000000E+00 -0.00000000000E+00 -0.98309049310E+03  0.98309049310E+03  0.00000000000E+00 0. -1.
        -24    2    1    2    0    0 -0.24034171303E+03 -0.21099698139E+03  0.33018719581E+03  0.46731454080E+03  0.84115578732E+02 0.  0.
        254    2    1    2    0    0  0.24034171303E+03  0.21099698139E+03 -0.58638942409E+03  0.12426642171E+04  0.10478921388E+04 0.  0.
         23    2    4    4    0    0  0.52546270902E+03 -0.20649328928E+03 -0.38370906536E+03  0.68868977091E+03  0.91161486534E+02 0.  0.
         23    2    4    4    0    0 -0.28512099599E+03  0.41749027067E+03 -0.20268035873E+03  0.55397444622E+03  0.10107547077E+03 0.  0.
          1    1    3    3  502    0 -0.53403865710E+02 -0.87865790817E+02  0.71578425512E+02  0.12528304381E+03  0.00000000000E+00 0. -1.
         -2    1    3    3    0  502 -0.18693784732E+03 -0.12313119057E+03  0.25860877030E+03  0.34203149698E+03  0.00000000000E+00 0.  1.
         11    1    5    5    0    0  0.48529493474E+03 -0.18781046539E+03 -0.37977563668E+03  0.64421539784E+03  0.00000000000E+00 0. -1.
        -11    1    5    5    0    0  0.40167774273E+02 -0.18682823889E+02 -0.39334286804E+01  0.44474373067E+02  0.00000000000E+00 0.  1.
          1    1    6    6  503    0 -0.19390422702E+03  0.20893859981E+03 -0.83473136836E+02  0.29702180445E+03  0.00000000000E+00 0.  1.
         -1    1    6    6    0  503 -0.91216768970E+02  0.20855167085E+03 -0.11920722189E+03  0.25695264176E+03  0.00000000000E+00 0. -1.
<mgrwt>
<rscale>  0 0.16906767E+04</rscale>
<asrwt>0</asrwt>
<pdfrwt beam="1">  1        1 0.15124469E+00 0.16906767E+04</pdfrwt>
<pdfrwt beam="2">  1       -2 0.11182896E+00 0.16906767E+04</pdfrwt>
<totfact> 0.82211710E+00</totfact>
</mgrwt>
</event>
<event>
12    4  0.4413110E-008  0.3424904E+04  0.7818608E-02  0.8131821E-01
         -2   -1    0    0    0  501 -0.00000000000E+00  0.00000000000E+00  0.26468398346E+04  0.26468398346E+04  0.00000000000E+00 0.  1.
          1   -1    0    0  501    0  0.00000000000E+00 -0.00000000000E+00 -0.11079222061E+04  0.11079222061E+04  0.00000000000E+00 0. -1.
        -24    2    1    2    0    0 -0.98874262272E+03 -0.12317879360E+04  0.94658144258E+03  0.18431402355E+04  0.78968394040E+02 0.  0.
        254    2    1    2    0    0  0.98874262272E+03  0.12317879360E+04  0.59233618590E+03  0.19116218052E+04  0.89917866723E+03 0.  0.
         23    2    4    4    0    0  0.53826234162E+03  0.18046787892E+03 -0.81645103339E+02  0.58084909336E+03  0.91786396801E+02 0.  0.
         23    2    4    4    0    0  0.45048028110E+03  0.10513200571E+04  0.67398128924E+03  0.13307727118E+04  0.92189403741E+02 0.  0.
          3    1    3    3  502    0 -0.79226589128E+03 -0.10132380617E+04  0.73971027845E+03  0.14837479261E+04  0.00000000000E+00 0. -1.
         -4    1    3    3    0  502 -0.19647673144E+03 -0.21854987432E+03  0.20687116413E+03  0.35939230948E+03  0.00000000000E+00 0.  1.
         11    1    5    5    0    0  0.22964770182E+03  0.10106819037E+03 -0.75898270838E+02  0.26213239703E+03  0.00000000000E+00 0. -1.
        -11    1    5    5    0    0  0.30861463980E+03  0.79399688546E+02 -0.57468325011E+01  0.31871669633E+03  0.00000000000E+00 0.  1.
          1    1    6    6  503    0  0.32863034149E+03  0.74265288174E+03  0.52486627789E+03  0.96696215737E+03  0.00000000000E+00 0. -1.
         -1    1    6    6    0  503  0.12184993961E+03  0.30866717531E+03  0.14911501135E+03  0.36381055442E+03  0.00000000000E+00 0.  1.
<mgrwt>
<rscale>  0 0.34249045E+04</rscale>
<asrwt>0</asrwt>
<pdfrwt beam="1">  1        1 0.17044957E+00 0.34249045E+04</pdfrwt>
<pdfrwt beam="2">  1       -2 0.40720613E+00 0.34249045E+04</pdfrwt>
<totfact> 0.59935325E-02</totfact>
</mgrwt>
</event>
<event>
12    4  0.4413110E-008  0.1495773E+04  0.7818608E-02  0.8887269E-01
         -2   -1    0    0    0  501 -0.00000000000E+00  0.00000000000E+00  0.69682405846E+03  0.69682405846E+03  0.00000000000E+00 0.  1.
          1   -1    0    0  501    0  0.00000000000E+00 -0.00000000000E+00 -0.80269089000E+03  0.80269089000E+03  0.00000000000E+00 0. -1.
        -24    2    1    2    0    0  0.16876927098E+03  0.21306682633E+03  0.35480378991E+03  0.45412244285E+03  0.80379875929E+02 0.  0.
        254    2    1    2    0    0 -0.16876927098E+03 -0.21306682633E+03 -0.46067062145E+03  0.10453925056E+04  0.89819125470E+03 0.  0.
         23    2    4    4    0    0  0.14944808487E+03 -0.45546812184E+03 -0.39880028699E+03  0.63022740215E+03  0.91427399764E+02 0.  0.
         23    2    4    4    0    0 -0.31821735585E+03  0.24240129551E+03 -0.61870334455E+02  0.41516510347E+03  0.92268365234E+02 0.  0.
          1    1    3    3  502    0  0.58238721882E+02  0.40914965454E+02  0.49820094606E+02  0.86878219083E+02  0.00000000000E+00 0. -1.
         -2    1    3    3    0  502  0.11053054909E+03  0.17215186088E+03  0.30498369530E+03  0.36724422376E+03  0.00000000000E+00 0.  1.
         11    1    5    5    0    0  0.14804140352E+03 -0.42180490096E+03 -0.33694968742E+03  0.55979525139E+03  0.00000000000E+00 0.  1.
        -11    1    5    5    0    0  0.14066813554E+01 -0.33663220881E+02 -0.61850599574E+02  0.70432150756E+02  0.00000000000E+00 0. -1.
          4    1    6    6  503    0 -0.84988634147E+02  0.35585925642E+02  0.16836995936E+02  0.93663816226E+02  0.00000000000E+00 0. -1.
         -4    1    6    6    0  503 -0.23322872170E+03  0.20681536987E+03 -0.78707330390E+02  0.32150128724E+03  0.00000000000E+00 0.  1.
<mgrwt>
<rscale>  0 0.14957731E+04</rscale>
<asrwt>0</asrwt>
<pdfrwt beam="1">  1        1 0.12349091E+00 0.14957731E+04</pdfrwt>
<pdfrwt beam="2">  1       -2 0.10720370E+00 0.14957731E+04</pdfrwt>
<totfact> 0.13034426E+01</totfact>
</mgrwt>
</event>
<event>
12    4  0.4413110E-008  0.1616889E+04  0.7818608E-02  0.8810239E-01
          1   -1    0    0  501    0  0.00000000000E+00  0.00000000000E+00  0.10941586154E+04  0.10941586154E+04  0.00000000000E+00 0. -1.
         -2   -1    0    0    0  501 -0.00000000000E+00 -0.00000000000E+00 -0.59733805607E+03  0.59733805607E+03  0.00000000000E+00 0.  1.
        -24    2    1    2    0    0 -0.45036351496E+03  0.25883140926E+03  0.34416528250E+03  0.63205535728E+03  0.10593978933E+03 0.  0.
        254    2    1    2    0    0  0.45036351496E+03 -0.25883140926E+03  0.15265527681E+03  0.10594413142E+04  0.91065430906E+03 0.  0.
         23    2    4    4    0    0  0.18921432617E+03  0.24809662812E+03 -0.20175995679E+03  0.38234815184E+03  0.90161138751E+02 0.  0.
         23    2    4    4    0    0  0.26114918880E+03 -0.50692803738E+03  0.35441523359E+03  0.67709316233E+03  0.87578871745E+02 0.  0.
          3    1    3    3  502    0 -0.18273033826E+02 -0.78528769515E+01  0.26418048793E+02  0.33067880846E+02  0.00000000000E+00 0. -1.
         -4    1    3    3    0  502 -0.43209048114E+03  0.26668428621E+03  0.31774723370E+03  0.59898747644E+03  0.00000000000E+00 0.  1.
         11    1    5    5    0    0  0.67612283151E+02  0.27819354106E+02 -0.48427993918E+02  0.87696111035E+02  0.00000000000E+00 0.  1.
        -11    1    5    5    0    0  0.12160204302E+03  0.22027727402E+03 -0.15333196287E+03  0.29465204081E+03  0.00000000000E+00 0. -1.
          3    1    6    6  503    0  0.25417739311E+03 -0.50883349124E+03  0.34505505906E+03  0.66526736186E+03  0.00000000000E+00 0. -1.
         -3    1    6    6    0  503  0.69717956854E+01  0.19054538540E+01  0.93601745301E+01  0.11825800468E+02  0.00000000000E+00 0.  1.
<mgrwt>
<rscale>  0 0.16168891E+04</rscale>
<asrwt>0</asrwt>
<pdfrwt beam="1">  1        1 0.16833209E+00 0.16168891E+04</pdfrwt>
<pdfrwt beam="2">  1       -2 0.91898162E-01 0.16168891E+04</pdfrwt>
<totfact> 0.10836788E+01</totfact>
</mgrwt>
</event>
<event>
12    4  0.4413110E-008  0.2753996E+04  0.7818608E-02  0.8317695E-01
         -2   -1    0    0    0  501 -0.00000000000E+00  0.00000000000E+00  0.23054310495E+04  0.23054310495E+04  0.00000000000E+00 0.  1.
          1   -1    0    0  501    0  0.00000000000E+00 -0.00000000000E+00 -0.82245925072E+03  0.82245925072E+03  0.00000000000E+00 0. -1.
        -24    2    1    2    0    0  0.44458457263E+03  0.11113310898E+04  0.43412063009E+03  0.12763537084E+04  0.88914756598E+02 0.  0.
        254    2    1    2    0    0 -0.44458457263E+03 -0.11113310898E+04  0.10488511687E+04  0.18515365918E+04  0.94624877459E+03 0.  0.
         23    2    4    4    0    0  0.49682443749E+02 -0.10075019687E+04  0.70621053667E+03  0.12347766878E+04  0.91714689807E+02 0.  0.
         23    2    4    4    0    0 -0.49426701638E+03 -0.10382912110E+03  0.34264063198E+03  0.61675990406E+03  0.88937094027E+02 0.  0.
          3    1    3    3  502    0  0.36400296789E+03  0.88575643956E+03  0.38324807067E+03  0.10314755036E+04  0.00000000000E+00 0. -1.
         -2    1    3    3    0  502  0.80581604744E+02  0.22557465028E+03  0.50872559429E+02  0.24487820477E+03  0.00000000000E+00 0.  1.
         11    1    5    5    0    0 -0.17167865116E+02 -0.44697373524E+03  0.34064555559E+03  0.56224518685E+03  0.00000000000E+00 0.  1.
        -11    1    5    5    0    0  0.66850308866E+02 -0.56052823349E+03  0.36556498108E+03  0.67253150092E+03  0.00000000000E+00 0. -1.
          1    1    6    6  503    0 -0.22536522121E+03 -0.88703114794E+02  0.14032191400E+03  0.27990706503E+03  0.00000000000E+00 0. -1.
         -1    1    6    6    0  503 -0.26890179517E+03 -0.15126006309E+02  0.20231871799E+03  0.33685283902E+03  0.00000000000E+00 0.  1.
<mgrwt>
<rscale>  0 0.27539957E+04</rscale>
<asrwt>0</asrwt>
<pdfrwt beam="1">  1        1 0.12653219E+00 0.27539957E+04</pdfrwt>
<pdfrwt beam="2">  1       -2 0.35468170E+00 0.27539957E+04</pdfrwt>
<totfact> 0.23420651E-01</totfact>
</mgrwt>
</event>
<event>
12    4  0.4413110E-008  0.3292918E+04  0.7818608E-02  0.8164700E-01
         -2   -1    0    0    0  501 -0.00000000000E+00  0.00000000000E+00  0.11079996026E+04  0.11079996026E+04  0.00000000000E+00 0.  1.
          1   -1    0    0  501    0  0.00000000000E+00 -0.00000000000E+00 -0.24465956425E+04  0.24465956425E+04  0.00000000000E+00 0. -1.
        -24    2    1    2    0    0  0.34347938853E+03  0.90839406767E+03  0.64104203710E+03  0.11664725480E+04  0.81027398827E+02 0.  0.
        254    2    1    2    0    0 -0.34347938853E+03 -0.90839406767E+03 -0.19796380769E+04  0.23881226971E+04  0.91706337208E+03 0.  0.
         23    2    4    4    0    0 -0.34597827591E+03 -0.88969472893E+03 -0.93568573235E+03  0.13400368574E+04  0.94516196474E+02 0.  0.
         23    2    4    4    0    0  0.24988873826E+01 -0.18699338741E+02 -0.10439523446E+04  0.10480858397E+04  0.91057783724E+02 0.  0.
          3    1    3    3  502    0  0.70778549471E+02  0.13260390837E+03  0.73547787093E+02  0.16734000289E+03  0.00000000000E+00 0. -1.
         -4    1    3    3    0  502  0.27270083906E+03  0.77579015930E+03  0.56749425000E+03  0.99913254510E+03  0.00000000000E+00 0.  1.
         11    1    5    5    0    0 -0.57990756347E+01 -0.88483410110E+02 -0.93613089307E+02  0.12894321864E+03  0.00000000000E+00 0. -1.
        -11    1    5    5    0    0 -0.34017920027E+03 -0.80121131882E+03 -0.84207264304E+03  0.12110936388E+04  0.00000000000E+00 0.  1.
          3    1    6    6  503    0  0.37419420558E+02  0.13907793281E+02 -0.30671695358E+03  0.30930394334E+03  0.00000000000E+00 0. -1.
         -3    1    6    6    0  503 -0.34920533176E+02 -0.32607132022E+02 -0.73723539100E+03  0.73878189639E+03  0.00000000000E+00 0.  1.
<mgrwt>
<rscale>  0 0.32929179E+04</rscale>
<asrwt>0</asrwt>
<pdfrwt beam="1">  1        1 0.37639933E+00 0.32929179E+04</pdfrwt>
<pdfrwt beam="2">  1       -2 0.17046148E+00 0.32929179E+04</pdfrwt>
<totfact> 0.22787667E-01</totfact>
</mgrwt>
</event>
<event>
12    4  0.4413110E-008  0.2518143E+04  0.7818608E-02  0.8396550E-01
          1   -1    0    0  501    0  0.00000000000E+00  0.00000000000E+00  0.10509615720E+04  0.10509615720E+04  0.00000000000E+00 0. -1.
         -2   -1    0    0    0  501 -0.00000000000E+00 -0.00000000000E+00 -0.15083914831E+04  0.15083914831E+04  0.00000000000E+00 0.  1.
        -24    2    1    2    0    0  0.61363863532E+03  0.55723520390E+03  0.52668070852E+03  0.98527087236E+03  0.79389394543E+02 0.  0.
        254    2    1    2    0    0 -0.61363863532E+03 -0.55723520390E+03 -0.98411061968E+03  0.15740821827E+04  0.90675110086E+03 0.  0.
         23    2    4    4    0    0 -0.29887298804E+03  0.59206785521E+02 -0.78738688536E+03  0.84871813157E+03  0.86682484868E+02 0.  0.
         23    2    4    4    0    0 -0.31476564729E+03 -0.61644198943E+03 -0.19672373432E+03  0.72536405114E+03  0.91513059191E+02 0.  0.
          1    1    3    3  502    0  0.18274138231E+03  0.17279841506E+03  0.20351501523E+03  0.32353062681E+03  0.00000000000E+00 0. -1.
         -2    1    3    3    0  502  0.43089725301E+03  0.38443678884E+03  0.32316569328E+03  0.66174024555E+03  0.00000000000E+00 0.  1.
         11    1    5    5    0    0 -0.82770985630E+02  0.20315194135E+02 -0.33768126457E+03  0.34827055520E+03  0.00000000000E+00 0.  1.
        -11    1    5    5    0    0 -0.21610200241E+03  0.38891591386E+02 -0.44970562079E+03  0.50044757637E+03  0.00000000000E+00 0. -1.
          4    1    6    6  503    0 -0.12475335333E+03 -0.33192698066E+03 -0.76751226814E+02  0.36280803530E+03  0.00000000000E+00 0. -1.
         -4    1    6    6    0  503 -0.19001229396E+03 -0.28451500876E+03 -0.11997250751E+03  0.36255601584E+03  0.00000000000E+00 0.  1.
<mgrwt>
<rscale>  0 0.25181434E+04</rscale>
<asrwt>0</asrwt>
<pdfrwt beam="1">  1        1 0.16168640E+00 0.25181434E+04</pdfrwt>
<pdfrwt beam="2">  1       -2 0.23206023E+00 0.25181434E+04</pdfrwt>
<totfact> 0.89211552E-01</totfact>
</mgrwt>
</event>
<event>
12    4  0.4413110E-008  0.2867026E+04  0.7818608E-02  0.8282756E-01
         -2   -1    0    0    0  501 -0.00000000000E+00  0.00000000000E+00  0.21207555961E+04  0.21207555961E+04  0.00000000000E+00 0.  1.
          1   -1    0    0  501    0  0.00000000000E+00 -0.00000000000E+00 -0.96897533425E+03  0.96897533425E+03  0.00000000000E+00 0. -1.
        -24    2    1    2    0    0  0.58021009274E+03 -0.27973640013E+02  0.17596904105E+04  0.18555223029E+04  0.95007366041E+02 0.  0.
        254    2    1    2    0    0 -0.58021009274E+03  0.27973640013E+02 -0.60791014863E+03  0.12342086274E+04  0.90348763744E+03 0.  0.
         23    2    4    4    0    0 -0.21021970182E+02 -0.36923095159E+03 -0.18814116362E+03  0.42480584017E+03  0.91046611971E+02 0.  0.
         23    2    4    4    0    0 -0.55918812256E+03  0.39720459161E+03 -0.41976898501E+03  0.80940278728E+03  0.92000148176E+02 0.  0.
          1    1    3    3  502    0  0.57130902883E+02  0.23863434220E+02  0.15384120037E+03  0.16583280281E+03  0.00000000000E+00 0. -1.
         -2    1    3    3    0  502  0.52307918986E+03 -0.51837074234E+02  0.16058492101E+04  0.16896895001E+04  0.00000000000E+00 0.  1.
         11    1    5    5    0    0  0.21526679161E+02 -0.25952474461E+02 -0.27056675853E+02  0.43231846532E+02  0.00000000000E+00 0.  1.
        -11    1    5    5    0    0 -0.42548649343E+02 -0.34327847713E+03 -0.16108448776E+03  0.38157399364E+03  0.00000000000E+00 0. -1.
          2    1    6    6  503    0 -0.53901542619E+03  0.40060174167E+03 -0.40665952375E+03  0.78510595040E+03  0.00000000000E+00 0. -1.
         -2    1    6    6    0  503 -0.20172696369E+02 -0.33971500653E+01 -0.13109461267E+02  0.24296836873E+02  0.00000000000E+00 0.  1.
<mgrwt>
<rscale>  0 0.28670262E+04</rscale>
<asrwt>0</asrwt>
<pdfrwt beam="1">  1        1 0.14907313E+00 0.28670262E+04</pdfrwt>
<pdfrwt beam="2">  1       -2 0.32627009E+00 0.28670262E+04</pdfrwt>
<totfact> 0.26467966E-01</totfact>
</mgrwt>
</event>
<event>
12    4  0.4413110E-008  0.2285267E+04  0.7818608E-02  0.8483753E-01
         -2   -1    0    0    0  501 -0.00000000000E+00  0.00000000000E+00  0.89783040202E+03  0.89783040202E+03  0.00000000000E+00 0.  1.
          1   -1    0    0  501    0  0.00000000000E+00 -0.00000000000E+00 -0.14541849098E+04  0.14541849098E+04  0.00000000000E+00 0. -1.
        -24    2    1    2    0    0  0.79202912372E+03  0.35803464426E+03 -0.68306367483E+03  0.11084114260E+04  0.80628568918E+02 0.  0.
        254    2    1    2    0    0 -0.79202912372E+03 -0.35803464426E+03  0.12670916709E+03  0.12436038858E+04  0.88033883953E+03 0.  0.
         23    2    4    4    0    0 -0.71964901583E+03 -0.22024477096E+03  0.44402992524E+03  0.87842221183E+03  0.89780524646E+02 0.  0.
         23    2    4    4    0    0 -0.72380107886E+02 -0.13778987331E+03 -0.31732075815E+03  0.36518167395E+03  0.91870899824E+02 0.  0.
          1    1    3    3  502    0  0.59885258293E+03  0.28854736455E+03 -0.55899910348E+03  0.86854130320E+03  0.00000000000E+00 0. -1.
         -2    1    3    3    0  502  0.19317654079E+03  0.69487279715E+02 -0.12406457134E+03  0.23987012281E+03  0.00000000000E+00 0.  1.
         11    1    5    5    0    0 -0.17691127325E+02 -0.14140287456E+02  0.30684818856E+02  0.38137669352E+02  0.00000000000E+00 0. -1.
        -11    1    5    5    0    0 -0.70195788851E+03 -0.20610448350E+03  0.41334510638E+03  0.84028454248E+03  0.00000000000E+00 0.  1.
          4    1    6    6  503    0 -0.48068957299E+02 -0.42613430915E+02 -0.21039354597E+03  0.21998175683E+03  0.00000000000E+00 0.  1.
         -4    1    6    6    0  503 -0.24311150587E+02 -0.95176442390E+02 -0.10692721218E+03  0.14519991712E+03  0.00000000000E+00 0. -1.
<mgrwt>
<rscale>  0 0.22852671E+04</rscale>
<asrwt>0</asrwt>
<pdfrwt beam="1">  1        1 0.22372075E+00 0.22852671E+04</pdfrwt>
<pdfrwt beam="2">  1       -2 0.13812776E+00 0.22852671E+04</pdfrwt>
<totfact> 0.20804028E+00</totfact>
</mgrwt>
</event>
<event>
12    4  0.4413110E-008  0.1784323E+04  0.7818608E-02  0.8714681E-01
         -4   -1    0    0    0  501 -0.00000000000E+00  0.00000000000E+00  0.29005868249E+03  0.29005868249E+03  0.00000000000E+00 0.  1.
          3   -1    0    0  501    0  0.00000000000E+00 -0.00000000000E+00 -0.27441078859E+04  0.27441078859E+04  0.00000000000E+00 0. -1.
        -24    2    1    2    0    0  0.10366726059E+03  0.34930300004E+03 -0.18588315276E+04  0.18958953388E+04  0.80031248637E+02 0.  0.
        254    2    1    2    0    0 -0.10366726059E+03 -0.34930300004E+03 -0.59521767582E+03  0.11382712296E+04  0.89923179652E+03 0.  0.
         23    2    4    4    0    0 -0.19962768147E+03 -0.17671956123E+03  0.17830155720E+03  0.33469464572E+03  0.95645418310E+02 0.  0.
         23    2    4    4    0    0  0.95960420881E+02 -0.17258343881E+03 -0.77351923301E+03  0.80357658392E+03  0.91705379696E+02 0.  0.
          3    1    3    3  502    0  0.59047671656E+02  0.29724967012E+03 -0.14469179771E+04  0.14783151309E+04  0.00000000000E+00 0. -1.
         -4    1    3    3    0  502  0.44619588937E+02  0.52053329923E+02 -0.41191355051E+03  0.41758020782E+03  0.00000000000E+00 0.  1.
         11    1    5    5    0    0 -0.13310280706E+03 -0.16628680315E+03  0.11399555200E+03  0.24158361705E+03  0.00000000000E+00 0. -1.
        -11    1    5    5    0    0 -0.66524874415E+02 -0.10432758082E+02  0.64306005191E+02  0.93111028674E+02  0.00000000000E+00 0.  1.
          1    1    6    6  503    0  0.33438561806E+02  0.73615635366E+00 -0.11453377529E+03  0.11931749672E+03  0.00000000000E+00 0. -1.
         -1    1    6    6    0  503  0.62521859075E+02 -0.17331959517E+03 -0.65898545772E+03  0.68425908721E+03  0.00000000000E+00 0.  1.
<mgrwt>
<rscale>  0 0.17843232E+04</rscale>
<asrwt>0</asrwt>
<pdfrwt beam="1">  1        3 0.42217042E+00 0.17843232E+04</pdfrwt>
<pdfrwt beam="2">  1       -4 0.44624415E-01 0.17843232E+04</pdfrwt>
<totfact> 0.90583623E-02</totfact>
</mgrwt>
</event>
<event>
12    4  0.4413110E-008  0.1858379E+04  0.7818608E-02  0.8675856E-01
         -2   -1    0    0    0  501 -0.00000000000E+00  0.00000000000E+00  0.18390448158E+04  0.18390448158E+04  0.00000000000E+00 0.  1.
          1   -1    0    0  501    0  0.00000000000E+00 -0.00000000000E+00 -0.46947886064E+03  0.46947886064E+03  0.00000000000E+00 0. -1.
        -24    2    1    2    0    0 -0.61608858443E+03 -0.23366063645E+03  0.85786939876E+03  0.10845860951E+04  0.78896486356E+02 0.  0.
        254    2    1    2    0    0  0.61608858443E+03  0.23366063645E+03  0.51169655644E+03  0.12239375813E+04  0.89555982506E+03 0.  0.
         23    2    4    4    0    0  0.11880494044E+03 -0.84874679877E+02 -0.21978614115E+03  0.27949529622E+03  0.92159359849E+02 0.  0.
         23    2    4    4    0    0  0.49728364399E+03  0.31853531633E+03  0.73148269760E+03  0.94444228513E+03  0.90269168193E+02 0.  0.
          3    1    3    3  502    0 -0.38850886930E+02  0.95630997964E+00  0.34083599950E+02  0.51691369972E+02  0.00000000000E+00 0. -1.
         -4    1    3    3    0  502 -0.57723769750E+03 -0.23461694643E+03  0.82378579881E+03  0.10328947252E+04  0.00000000000E+00 0.  1.
         11    1    5    5    0    0  0.91861459285E+02 -0.95712807522E+02 -0.13247513175E+03  0.18748101173E+03  0.00000000000E+00 0.  1.
        -11    1    5    5    0    0  0.26943481155E+02  0.10838127644E+02 -0.87311009403E+02  0.92014284492E+02  0.00000000000E+00 0. -1.
          3    1    6    6  503    0  0.11107431198E+02 -0.46543835352E+01  0.66986365624E+01  0.13780785381E+02  0.00000000000E+00 0. -1.
         -3    1    6    6    0  503  0.48617621279E+03  0.32318969986E+03  0.72478406103E+03  0.93066149975E+03  0.00000000000E+00 0.  1.
<mgrwt>
<rscale>  0 0.18583785E+04</rscale>
<asrwt>0</asrwt>
<pdfrwt beam="1">  1        1 0.72227518E-01 0.18583785E+04</pdfrwt>
<pdfrwt beam="2">  1       -2 0.28292997E+00 0.18583785E+04</pdfrwt>
<totfact> 0.16062141E+00</totfact>
</mgrwt>
</event>
<event>
12    4  0.4413110E-008  0.1213709E+04  0.7818608E-02  0.9100941E-01
         -2   -1    0    0    0  501 -0.00000000000E+00  0.00000000000E+00  0.34446266659E+03  0.34446266659E+03  0.00000000000E+00 0.  1.
          1   -1    0    0  501    0  0.00000000000E+00 -0.00000000000E+00 -0.10691215381E+04  0.10691215381E+04  0.00000000000E+00 0. -1.
        -24    2    1    2    0    0 -0.15423578910E+03 -0.61406491091E+01 -0.40782188010E+03  0.44296620656E+03  0.77935794446E+02 0.  0.
        254    2    1    2    0    0  0.15423578910E+03  0.61406491091E+01 -0.31683699140E+03  0.97061799812E+03  0.90437118095E+03 0.  0.
         23    2    4    4    0    0  0.20374147790E+03  0.34372118824E+03  0.10173618582E+03  0.42234422841E+03  0.91485248591E+02 0.  0.
         23    2    4    4    0    0 -0.49505688795E+02 -0.33758053913E+03 -0.41857317722E+03  0.54827376970E+03  0.94811329692E+02 0.  0.
          1    1    3    3  502    0 -0.14845371889E+03 -0.86025702871E+01 -0.29874153851E+03  0.33370498602E+03  0.00000000000E+00 0. -1.
         -2    1    3    3    0  502 -0.57820702182E+01  0.24619211780E+01 -0.10908034159E+03  0.10926122054E+03  0.00000000000E+00 0.  1.
         11    1    5    5    0    0  0.12218419111E+03  0.23681327807E+03  0.10847852441E+03  0.28771008930E+03  0.00000000000E+00 0.  1.
        -11    1    5    5    0    0  0.81557286792E+02  0.10690791017E+03 -0.67423385913E+01  0.13463413911E+03  0.00000000000E+00 0. -1.
          1    1    6    6  503    0  0.24478836153E+02 -0.60084364023E+02 -0.55730892521E+02  0.85529390274E+02  0.00000000000E+00 0. -1.
         -1    1    6    6    0  503 -0.73984524948E+02 -0.27749617510E+03 -0.36284228470E+03  0.46274437943E+03  0.00000000000E+00 0.  1.
<mgrwt>
<rscale>  0 0.12137091E+04</rscale>
<asrwt>0</asrwt>
<pdfrwt beam="1">  1        1 0.16448023E+00 0.12137091E+04</pdfrwt>
<pdfrwt beam="2">  1       -2 0.52994258E-01 0.12137091E+04</pdfrwt>
<totfact> 0.38952159E+01</totfact>
</mgrwt>
</event>
<event>
12    4  0.4413110E-008  0.1228920E+04  0.7818608E-02  0.9087913E-01
         -2   -1    0    0    0  501 -0.00000000000E+00  0.00000000000E+00  0.40023396338E+03  0.40023396338E+03  0.00000000000E+00 0.  1.
          1   -1    0    0  501    0  0.00000000000E+00 -0.00000000000E+00 -0.94335155640E+03  0.94335155640E+03  0.00000000000E+00 0. -1.
        -24    2    1    2    0    0 -0.13038189821E+03 -0.19835063240E+03 -0.19802812444E+03  0.31894802619E+03  0.78551209966E+02 0.  0.
        254    2    1    2    0    0  0.13038189821E+03  0.19835063240E+03 -0.34508946858E+03  0.10246374936E+04  0.93512183120E+03 0.  0.
         23    2    4    4    0    0 -0.66233137618E+02  0.49478760593E+03 -0.40985142238E+03  0.65230364738E+03  0.91215439758E+02 0.  0.
         23    2    4    4    0    0  0.19661503583E+03 -0.29643697353E+03  0.64761953804E+02  0.37233384621E+03  0.88915863511E+02 0.  0.
          1    1    3    3  502    0 -0.11721268556E+03 -0.17376861508E+03 -0.20161435865E+03  0.29083104177E+03  0.00000000000E+00 0. -1.
         -2    1    3    3    0  502 -0.13169212646E+02 -0.24582017319E+02  0.35862342054E+01  0.28116984421E+02  0.00000000000E+00 0.  1.
         11    1    5    5    0    0 -0.27870913744E+02  0.40587530886E+03 -0.36071231373E+03  0.54371401256E+03  0.00000000000E+00 0.  1.
        -11    1    5    5    0    0 -0.38362223874E+02  0.88912297072E+02 -0.49139108655E+02  0.10858963482E+03  0.00000000000E+00 0. -1.
          3    1    6    6  503    0  0.12739432682E+03 -0.15317673460E+03 -0.33577142492E+01  0.19925787506E+03  0.00000000000E+00 0. -1.
         -3    1    6    6    0  503  0.69220709009E+02 -0.14326023893E+03  0.68119668054E+02  0.17307597115E+03  0.00000000000E+00 0.  1.
<mgrwt>
<rscale>  0 0.12289204E+04</rscale>
<asrwt>0</asrwt>
<pdfrwt beam="1">  1        1 0.14513101E+00 0.12289204E+04</pdfrwt>
<pdfrwt beam="2">  1       -2 0.61574456E-01 0.12289204E+04</pdfrwt>
<totfact> 0.35613478E+01</totfact>
</mgrwt>
</event>
<event>
12    4  0.4413110E-008  0.2421540E+04  0.7818608E-02  0.8431483E-01
          1   -1    0    0  501    0  0.00000000000E+00  0.00000000000E+00  0.10016830100E+04  0.10016830100E+04  0.00000000000E+00 0. -1.
         -2   -1    0    0    0  501 -0.00000000000E+00 -0.00000000000E+00 -0.14635012959E+04  0.14635012959E+04  0.00000000000E+00 0.  1.
        -24    2    1    2    0    0  0.74874634932E+03  0.54215745693E+03  0.29472193579E+03  0.97351189945E+03  0.79426665558E+02 0.  0.
        254    2    1    2    0    0 -0.74874634932E+03 -0.54215745693E+03 -0.75654022166E+03  0.14916724065E+04  0.89340788974E+03 0.  0.
         23    2    4    4    0    0 -0.37816414111E+03 -0.72915575840E+03 -0.65723447327E+03  0.10551339391E+04  0.81696015785E+02 0.  0.
         23    2    4    4    0    0 -0.37058220821E+03  0.18699830147E+03 -0.99305748396E+02  0.43653846734E+03  0.91676954630E+02 0.  0.
          1    1    3    3  502    0  0.71762990053E+03  0.52815928514E+03  0.29722098810E+03  0.93930038880E+03  0.00000000000E+00 0. -1.
         -4    1    3    3    0  502  0.31116448792E+02  0.13998171789E+02 -0.24990523132E+01  0.34211510656E+02  0.00000000000E+00 0.  1.
         11    1    5    5    0    0 -0.25319976381E+03 -0.56436648781E+03 -0.49822240671E+03  0.79425765309E+03  0.00000000000E+00 0. -1.
        -11    1    5    5    0    0 -0.12496437731E+03 -0.16478927059E+03 -0.15901206656E+03  0.26087628602E+03  0.00000000000E+00 0.  1.
          2    1    6    6  503    0 -0.34686962725E+03  0.18311026532E+03 -0.69651535758E+02  0.39837073689E+03  0.00000000000E+00 0. -1.
         -2    1    6    6    0  503 -0.23712580960E+02  0.38880361474E+01 -0.29654212638E+02  0.38167730454E+02  0.00000000000E+00 0.  1.
<mgrwt>
<rscale>  0 0.24215403E+04</rscale>
<asrwt>0</asrwt>
<pdfrwt beam="1">  1        1 0.15410508E+00 0.24215403E+04</pdfrwt>
<pdfrwt beam="2">  1       -2 0.22515404E+00 0.24215403E+04</pdfrwt>
<totfact> 0.10849614E+00</totfact>
</mgrwt>
</event>
<event>
12    4  0.4413110E-008  0.2541845E+04  0.7818608E-02  0.8388228E-01
         -2   -1    0    0    0  501 -0.00000000000E+00  0.00000000000E+00  0.88901502607E+03  0.88901502607E+03  0.00000000000E+00 0.  1.
          1   -1    0    0  501    0  0.00000000000E+00 -0.00000000000E+00 -0.18168910514E+04  0.18168910514E+04  0.00000000000E+00 0. -1.
        -24    2    1    2    0    0 -0.24885980127E+03 -0.76568468689E+02 -0.15536989565E+04  0.15773943519E+04  0.79991016847E+02 0.  0.
        254    2    1    2    0    0  0.24885980127E+03  0.76568468689E+02  0.62582293117E+03  0.11285117256E+04  0.90226960637E+03 0.  0.
         23    2    4    4    0    0 -0.26517805605E+03  0.22668070817E+03  0.40232359401E+03  0.54107430467E+03  0.95883178973E+02 0.  0.
         23    2    4    4    0    0  0.51403785733E+03 -0.15011223948E+03  0.22349933716E+03  0.58743742094E+03  0.91444882904E+02 0.  0.
          3    1    3    3  502    0 -0.15089238891E+03 -0.74567171415E+01 -0.94507773958E+03  0.95707682529E+03  0.00000000000E+00 0. -1.
         -4    1    3    3    0  502 -0.97967412366E+02 -0.69111751548E+02 -0.60862121691E+03  0.62031752656E+03  0.00000000000E+00 0.  1.
         11    1    5    5    0    0 -0.21572467246E+03  0.20038200821E+03  0.27898785603E+03  0.40561596040E+03  0.00000000000E+00 0. -1.
        -11    1    5    5    0    0 -0.49453383591E+02  0.26298699960E+02  0.12333573798E+03  0.13545834427E+03  0.00000000000E+00 0.  1.
          3    1    6    6  503    0  0.24271226219E+03 -0.10471949816E+03  0.14433116756E+03  0.30117586463E+03  0.00000000000E+00 0. -1.
         -3    1    6    6    0  503  0.27132559514E+03 -0.45392741321E+02  0.79168169601E+02  0.28626155631E+03  0.00000000000E+00 0.  1.
<mgrwt>
<rscale>  0 0.25418446E+04</rscale>
<asrwt>0</asrwt>
<pdfrwt beam="1">  1        1 0.27952170E+00 0.25418446E+04</pdfrwt>
<pdfrwt beam="2">  1       -2 0.13677154E+00 0.25418446E+04</pdfrwt>
<totfact> 0.11774037E+00</totfact>
</mgrwt>
</event>
<event>
12    4  0.4413110E-008  0.1572642E+04  0.7818608E-02  0.8837533E-01
          1   -1    0    0  501    0  0.00000000000E+00  0.00000000000E+00  0.12310501124E+04  0.12310501124E+04  0.00000000000E+00 0. -1.
         -2   -1    0    0    0  501 -0.00000000000E+00 -0.00000000000E+00 -0.50225502472E+03  0.50225502472E+03  0.00000000000E+00 0.  1.
        -24    2    1    2    0    0 -0.50850786799E+03 -0.58362599159E+02  0.13032973989E+03  0.53401033948E+03  0.78706777243E+02 0.  0.
        254    2    1    2    0    0  0.50850786799E+03  0.58362599159E+02  0.59846534775E+03  0.11992947976E+04  0.90452241227E+03 0.  0.
         23    2    4    4    0    0  0.74260343729E+03 -0.81341536400E+02  0.43146902034E+03  0.86721567139E+03  0.88437517855E+02 0.  0.
         23    2    4    4    0    0 -0.23409556930E+03  0.13970413556E+03  0.16699632741E+03  0.33207912622E+03  0.89837584813E+02 0.  0.
          3    1    3    3  502    0 -0.16714486176E+02 -0.16146900778E+02  0.13102163340E+02  0.26678889351E+02  0.00000000000E+00 0. -1.
         -4    1    3    3    0  502 -0.49179338182E+03 -0.42215698381E+02  0.11722757655E+03  0.50733145013E+03  0.00000000000E+00 0.  1.
         11    1    5    5    0    0  0.44416470711E+02  0.81772015837E+01  0.83417152528E+01  0.45926829953E+02  0.00000000000E+00 0.  1.
        -11    1    5    5    0    0  0.69818696658E+03 -0.89518737983E+02  0.42312730509E+03  0.82128884143E+03  0.00000000000E+00 0. -1.
          1    1    6    6  503    0 -0.20060784987E+03  0.11182089966E+03  0.96318667742E+02  0.24904760345E+03  0.00000000000E+00 0. -1.
         -1    1    6    6    0  503 -0.33487719428E+02  0.27883235894E+02  0.70677659667E+02  0.83031522763E+02  0.00000000000E+00 0.  1.
<mgrwt>
<rscale>  0 0.15726425E+04</rscale>
<asrwt>0</asrwt>
<pdfrwt beam="1">  1        1 0.18939232E+00 0.15726425E+04</pdfrwt>
<pdfrwt beam="2">  1       -2 0.77270004E-01 0.15726425E+04</pdfrwt>
<totfact> 0.12783826E+01</totfact>
</mgrwt>
</event>
<event>
12    4  0.4413110E-008  0.2359912E+04  0.7818608E-02  0.8454666E-01
          1   -1    0    0  501    0  0.00000000000E+00  0.00000000000E+00  0.20253557145E+04  0.20253557145E+04  0.00000000000E+00 0. -1.
         -2   -1    0    0    0  501 -0.00000000000E+00 -0.00000000000E+00 -0.68743302816E+03  0.68743302816E+03  0.00000000000E+00 0.  1.
        -24    2    1    2    0    0 -0.50057411045E+03 -0.88965093850E+03  0.68014321250E+03  0.12292249916E+04  0.79662149089E+02 0.  0.
        254    2    1    2    0    0  0.50057411045E+03  0.88965093850E+03  0.65777947383E+03  0.14835637511E+04  0.85219383641E+03 0.  0.
         23    2    4    4    0    0 -0.20675561854E+03  0.35468770532E+03  0.99458717393E+02  0.43090356485E+03  0.85056402616E+02 0.  0.
         23    2    4    4    0    0  0.70732972899E+03  0.53496323318E+03  0.55832075643E+03  0.10526601862E+04  0.99349857586E+02 0.  0.
          1    1    3    3  502    0 -0.26117872559E+03 -0.41092054491E+03  0.36007182225E+03  0.60557554286E+03  0.00000000000E+00 0. -1.
         -2    1    3    3    0  502 -0.23939538486E+03 -0.47873039359E+03  0.32007139025E+03  0.62364944872E+03  0.00000000000E+00 0.  1.
         11    1    5    5    0    0 -0.20734610524E+03  0.32103109591E+03  0.75421434375E+02  0.38954045318E+03  0.00000000000E+00 0.  1.
        -11    1    5    5    0    0  0.59048670459E+00  0.33656609419E+02  0.24037283018E+02  0.41363111670E+02  0.00000000000E+00 0. -1.
          3    1    6    6  503    0  0.30991378497E+03  0.19182476063E+03  0.27053562384E+03  0.45390837916E+03  0.00000000000E+00 0. -1.
         -3    1    6    6    0  503  0.39741594402E+03  0.34313847255E+03  0.28778513259E+03  0.59875180705E+03  0.00000000000E+00 0.  1.
<mgrwt>
<rscale>  0 0.23599122E+04</rscale>
<asrwt>0</asrwt>
<pdfrwt beam="1">  1        1 0.31159318E+00 0.23599122E+04</pdfrwt>
<pdfrwt beam="2">  1       -2 0.10575893E+00 0.23599122E+04</pdfrwt>
<totfact> 0.16347973E+00</totfact>
</mgrwt>
</event>
<event>
12    4  0.4413110E-008  0.1462912E+04  0.7818608E-02  0.8909498E-01
          1   -1    0    0  501    0  0.00000000000E+00  0.00000000000E+00  0.32434594059E+03  0.32434594059E+03  0.00000000000E+00 0. -1.
         -2   -1    0    0    0  501 -0.00000000000E+00 -0.00000000000E+00 -0.16495587140E+04  0.16495587140E+04  0.00000000000E+00 0.  1.
        -24    2    1    2    0    0  0.16634985791E+03  0.22207086794E+03 -0.87847981107E+03  0.92471495482E+03  0.79895078613E+02 0.  0.
        254    2    1    2    0    0 -0.16634985791E+03 -0.22207086794E+03 -0.44673296232E+03  0.10491896998E+04  0.90787716175E+03 0.  0.
         23    2    4    4    0    0 -0.10372361671E+03 -0.56851265808E+03 -0.27622482302E+03  0.64701531872E+03  0.91451838380E+02 0.  0.
         23    2    4    4    0    0 -0.62626241202E+02  0.34644179014E+03 -0.17050813931E+03  0.40217438104E+03  0.93419736395E+02 0.  0.
          3    1    3    3  502    0  0.13707970327E+02  0.78757005621E+01 -0.13814384965E+03  0.13904552602E+03  0.00000000000E+00 0. -1.
         -4    1    3    3    0  502  0.15264188758E+03  0.21419516737E+03 -0.74033596142E+03  0.78566942880E+03  0.00000000000E+00 0.  1.
         11    1    5    5    0    0 -0.86801505280E+02 -0.25039428211E+03 -0.14861464667E+03  0.30383895576E+03  0.00000000000E+00 0.  1.
        -11    1    5    5    0    0 -0.16922111427E+02 -0.31811837597E+03 -0.12761017634E+03  0.34317636295E+03  0.00000000000E+00 0. -1.
          1    1    6    6  503    0 -0.59750160285E+02  0.91498509131E+02 -0.51659857548E+02  0.12087514099E+03  0.00000000000E+00 0. -1.
         -1    1    6    6    0  503 -0.28760809171E+01  0.25494328101E+03 -0.11884828176E+03  0.28129924005E+03  0.00000000000E+00 0.  1.
<mgrwt>
<rscale>  0 0.14629117E+04</rscale>
<asrwt>0</asrwt>
<pdfrwt beam="1">  1        1 0.49899376E-01 0.14629117E+04</pdfrwt>
<pdfrwt beam="2">  1       -2 0.25377826E+00 0.14629117E+04</pdfrwt>
<totfact> 0.40904859E+00</totfact>
</mgrwt>
</event>
<event>
12    4  0.4413110E-008  0.1239442E+04  0.7818608E-02  0.9079017E-01
          1   -1    0    0  501    0  0.00000000000E+00  0.00000000000E+00  0.34436929495E+03  0.34436929495E+03  0.00000000000E+00 0. -1.
         -2   -1    0    0    0  501 -0.00000000000E+00 -0.00000000000E+00 -0.11152390441E+04  0.11152390441E+04  0.00000000000E+00 0.  1.
        -24    2    1    2    0    0 -0.92646271670E+02  0.71450039821E+02 -0.48987323785E+03  0.50997526757E+03  0.80065876126E+02 0.  0.
        254    2    1    2    0    0  0.92646271670E+02 -0.71450039821E+02 -0.28099651134E+03  0.94963307152E+03  0.89953070615E+03 0.  0.
         23    2    4    4    0    0  0.45704465239E+03 -0.17150348816E+03 -0.25491047971E+03  0.55814311327E+03  0.90780622887E+02 0.  0.
         23    2    4    4    0    0 -0.36439838072E+03  0.10005344834E+03 -0.26086031629E+02  0.39148995826E+03  0.98929439361E+02 0.  0.
          3    1    3    3  502    0 -0.43262154612E+02  0.40783057378E+02 -0.10439275041E+03  0.12013624819E+03  0.00000000000E+00 0. -1.
         -4    1    3    3    0  502 -0.49384117058E+02  0.30666982443E+02 -0.38548048744E+03  0.38983901938E+03  0.00000000000E+00 0.  1.
         11    1    5    5    0    0  0.40003920089E+03 -0.14567395838E+03 -0.25359955487E+03  0.49554515297E+03  0.00000000000E+00 0. -1.
        -11    1    5    5    0    0  0.57005451504E+02 -0.25829529782E+02 -0.13109248352E+01  0.62597960301E+02  0.00000000000E+00 0.  1.
          2    1    6    6  503    0 -0.32605974784E+03  0.11904671050E+03 -0.15728370887E+02  0.34746864620E+03  0.00000000000E+00 0. -1.
         -2    1    6    6    0  503 -0.38338632885E+02 -0.18993262165E+02 -0.10357660742E+02  0.44021312056E+02  0.00000000000E+00 0.  1.
<mgrwt>
<rscale>  0 0.12394419E+04</rscale>
<asrwt>0</asrwt>
<pdfrwt beam="1">  1        1 0.52979891E-01 0.12394419E+04</pdfrwt>
<pdfrwt beam="2">  1       -2 0.17157524E+00 0.12394419E+04</pdfrwt>
<totfact> 0.13082172E+01</totfact>
</mgrwt>
</event>
<event>
12    4  0.4413110E-008  0.1265003E+04  0.7818608E-02  0.9057788E-01
          1   -1    0    0  501    0  0.00000000000E+00  0.00000000000E+00  0.10359168537E+04  0.10359168537E+04  0.00000000000E+00 0. -1.
         -2   -1    0    0    0  501 -0.00000000000E+00 -0.00000000000E+00 -0.38618774515E+03  0.38618774515E+03  0.00000000000E+00 0.  1.
        -24    2    1    2    0    0  0.21858746752E+03  0.20938672583E+03 -0.33661373340E+02  0.31476706933E+03  0.79510615457E+02 0.  0.
        254    2    1    2    0    0 -0.21858746752E+03 -0.20938672583E+03  0.68339048185E+03  0.11073375295E+04  0.81703768064E+03 0.  0.
         23    2    4    4    0    0 -0.45152050421E+03 -0.11218527186E+03  0.12875886033E+03  0.49113373697E+03  0.90427885799E+02 0.  0.
         23    2    4    4    0    0  0.23293303669E+03 -0.97201453962E+02  0.55463162152E+03  0.61620379250E+03  0.91569405738E+02 0.  0.
          1    1    3    3  502    0  0.15796557152E+03  0.10043760305E+03 -0.73169775320E+01  0.18733491947E+03  0.00000000000E+00 0. -1.
         -2    1    3    3    0  502  0.60621896005E+02  0.10894912277E+03 -0.26344395808E+02  0.12743214986E+03  0.00000000000E+00 0.  1.
         11    1    5    5    0    0 -0.21523516101E+02 -0.17471119706E+02  0.28093441118E+02  0.39468255636E+02  0.00000000000E+00 0. -1.
        -11    1    5    5    0    0 -0.42999698811E+03 -0.94714152158E+02  0.10066541921E+03  0.45166548134E+03  0.00000000000E+00 0.  1.
          4    1    6    6  503    0  0.19270456020E+03 -0.84964737526E+02  0.35996600902E+03  0.41704865638E+03  0.00000000000E+00 0.  1.
         -4    1    6    6    0  503  0.40228476492E+02 -0.12236716435E+02  0.19466561251E+03  0.19915513612E+03  0.00000000000E+00 0. -1.
<mgrwt>
<rscale>  0 0.12650034E+04</rscale>
<asrwt>0</asrwt>
<pdfrwt beam="1">  1        1 0.15937182E+00 0.12650034E+04</pdfrwt>
<pdfrwt beam="2">  1       -2 0.59413500E-01 0.12650034E+04</pdfrwt>
<totfact> 0.32405341E+01</totfact>
</mgrwt>
</event>
<event>
12    4  0.4413110E-008  0.2345471E+04  0.7818608E-02  0.8460205E-01
         -2   -1    0    0    0  501 -0.00000000000E+00  0.00000000000E+00  0.78877479584E+03  0.78877479584E+03  0.00000000000E+00 0.  1.
          1   -1    0    0  501    0  0.00000000000E+00 -0.00000000000E+00 -0.17436015022E+04  0.17436015022E+04  0.00000000000E+00 0. -1.
        -24    2    1    2    0    0 -0.45693835997E+03 -0.51686313184E+03 -0.11995064422E+04  0.13863900536E+04  0.85565845751E+02 0.  0.
        254    2    1    2    0    0  0.45693835997E+03  0.51686313184E+03  0.24467973582E+03  0.11459862445E+04  0.88174607316E+03 0.  0.
         23    2    4    4    0    0 -0.39366082403E+02 -0.12428282681E+03  0.28977799312E+03  0.32895151425E+03  0.85099376893E+02 0.  0.
         23    2    4    4    0    0  0.49630444237E+03  0.64114595865E+03 -0.45098257305E+02  0.81703473022E+03  0.90142430464E+02 0.  0.
          3    1    3    3  502    0 -0.19447787569E+03 -0.15802647004E+03 -0.43499148297E+03  0.50200756929E+03  0.00000000000E+00 0. -1.
         -4    1    3    3    0  502 -0.26246048427E+03 -0.35883666180E+03 -0.76451495922E+03  0.88438248429E+03  0.00000000000E+00 0.  1.
         11    1    5    5    0    0  0.10691076634E+02 -0.79588247753E+02  0.20923607394E+03  0.22411676184E+03  0.00000000000E+00 0.  1.
        -11    1    5    5    0    0 -0.50057159037E+02 -0.44694579054E+02  0.80541919185E+02  0.10483475241E+03  0.00000000000E+00 0. -1.
          2    1    6    6  503    0  0.37518421961E+02  0.92336604569E+02 -0.17458636120E+02  0.10118539670E+03  0.00000000000E+00 0. -1.
         -2    1    6    6    0  503  0.45878602041E+03  0.54880935408E+03 -0.27639621185E+02  0.71584933352E+03  0.00000000000E+00 0.  1.
<mgrwt>
<rscale>  0 0.23454713E+04</rscale>
<asrwt>0</asrwt>
<pdfrwt beam="1">  1        1 0.26824638E+00 0.23454713E+04</pdfrwt>
<pdfrwt beam="2">  1       -2 0.12134997E+00 0.23454713E+04</pdfrwt>
<totfact> 0.18175283E+00</totfact>
</mgrwt>
</event>
<event>
12    4  0.4413110E-008  0.1703434E+04  0.7818608E-02  0.8759408E-01
          1   -1    0    0  501    0  0.00000000000E+00  0.00000000000E+00  0.24235484054E+04  0.24235484054E+04  0.00000000000E+00 0. -1.
         -2   -1    0    0    0  501 -0.00000000000E+00 -0.00000000000E+00 -0.29932237551E+03  0.29932237551E+03  0.00000000000E+00 0.  1.
        -24    2    1    2    0    0 -0.52616054785E+03  0.53899746445E+02  0.13081197465E+04  0.14132547462E+04  0.79759650469E+02 0.  0.
        254    2    1    2    0    0  0.52616054785E+03 -0.53899746445E+02  0.81610628335E+03  0.13096160346E+04  0.87710580184E+03 0.  0.
         23    2    4    4    0    0  0.11359714091E+02 -0.12504940280E+03 -0.14559434307E+03  0.21295548380E+03  0.91574718682E+02 0.  0.
         23    2    4    4    0    0  0.51480083376E+03  0.71149656359E+02  0.96170062642E+03  0.10966605508E+04  0.87829931202E+02 0.  0.
          3    1    3    3  502    0 -0.19730657992E+03  0.29638392379E+02  0.59563838519E+03  0.62816670295E+03  0.00000000000E+00 0. -1.
         -4    1    3    3    0  502 -0.32885396793E+03  0.24261354066E+02  0.71248136130E+03  0.78508804330E+03  0.00000000000E+00 0.  1.
         11    1    5    5    0    0  0.86472643658E+01 -0.79758106585E+00  0.10372324374E+02  0.13527617288E+02  0.00000000000E+00 0.  1.
        -11    1    5    5    0    0  0.27124497248E+01 -0.12425182174E+03 -0.15596666744E+03  0.19942786651E+03  0.00000000000E+00 0. -1.
          3    1    6    6  503    0  0.50026415055E+03  0.61383677580E+02  0.88954497408E+03  0.10224101120E+04  0.00000000000E+00 0. -1.
         -3    1    6    6    0  503  0.14536683212E+02  0.97659787788E+01  0.72155652341E+02  0.74250438821E+02  0.00000000000E+00 0.  1.
<mgrwt>
<rscale>  0 0.17034345E+04</rscale>
<asrwt>0</asrwt>
<pdfrwt beam="1">  1        1 0.37285359E+00 0.17034345E+04</pdfrwt>
<pdfrwt beam="2">  1       -2 0.46049598E-01 0.17034345E+04</pdfrwt>
<totfact> 0.57239060E+00</totfact>
</mgrwt>
</event>
<event>
12    4  0.4413110E-008  0.2047982E+04  0.7818608E-02  0.8584510E-01
          1   -1    0    0  501    0  0.00000000000E+00  0.00000000000E+00  0.13747400640E+04  0.13747400640E+04  0.00000000000E+00 0. -1.
         -2   -1    0    0    0  501 -0.00000000000E+00 -0.00000000000E+00 -0.76273141573E+03  0.76273141573E+03  0.00000000000E+00 0.  1.
        -24    2    1    2    0    0 -0.67682021649E+03 -0.44782232825E+03  0.77156600128E+02  0.81882012385E+03  0.76699485975E+02 0.  0.
        254    2    1    2    0    0  0.67682021649E+03  0.44782232825E+03  0.53485204811E+03  0.13186513558E+04  0.89114771041E+03 0.  0.
         23    2    4    4    0    0  0.11441523161E+03 -0.29212477608E+02  0.55617387703E+03  0.57569575587E+03  0.90288469724E+02 0.  0.
         23    2    4    4    0    0  0.56240498488E+03  0.47703480586E+03 -0.21321828918E+02  0.74295559997E+03  0.87560436976E+02 0.  0.
          3    1    3    3  502    0 -0.25212645858E+03 -0.18375935274E+03 -0.49805627448E+01  0.31202573105E+03  0.00000000000E+00 0. -1.
         -4    1    3    3    0  502 -0.42469375791E+03 -0.26406297551E+03  0.82137162873E+02  0.50679439280E+03  0.00000000000E+00 0.  1.
         11    1    5    5    0    0  0.50565966458E+02 -0.58291311440E+02  0.25282648383E+03  0.26434073632E+03  0.00000000000E+00 0.  1.
        -11    1    5    5    0    0  0.63849265154E+02  0.29078833832E+02  0.30334739321E+03  0.31135501956E+03  0.00000000000E+00 0. -1.
          1    1    6    6  503    0  0.40659054957E+03  0.36813034633E+03  0.18212917828E+02  0.54878733336E+03  0.00000000000E+00 0. -1.
         -1    1    6    6    0  503  0.15581443531E+03  0.10890445953E+03 -0.39534746746E+02  0.19416826661E+03  0.00000000000E+00 0.  1.
<mgrwt>
<rscale>  0 0.20479819E+04</rscale>
<asrwt>0</asrwt>
<pdfrwt beam="1">  1        1 0.21149847E+00 0.20479819E+04</pdfrwt>
<pdfrwt beam="2">  1       -2 0.11734329E+00 0.20479819E+04</pdfrwt>
<totfact> 0.36420396E+00</totfact>
</mgrwt>
</event>
<event>
12    4  0.4413110E-008  0.1536170E+04  0.7818608E-02  0.8860750E-01
          1   -1    0    0  501    0  0.00000000000E+00  0.00000000000E+00  0.99961175488E+03  0.99961175488E+03  0.00000000000E+00 0. -1.
         -2   -1    0    0    0  501 -0.00000000000E+00 -0.00000000000E+00 -0.59018403487E+03  0.59018403487E+03  0.00000000000E+00 0.  1.
        -24    2    1    2    0    0  0.35453485240E+02 -0.42784927152E+03  0.39388600776E+03  0.58834903618E+03  0.81831855096E+02 0.  0.
        254    2    1    2    0    0 -0.35453485240E+02  0.42784927152E+03  0.15541712255E+02  0.10014467536E+04  0.90462263219E+03 0.  0.
         23    2    4    4    0    0 -0.41148279053E+02  0.23198015710E+03 -0.43447452973E+03  0.50263273557E+03  0.91452587272E+02 0.  0.
         23    2    4    4    0    0  0.56947938129E+01  0.19586911442E+03  0.45001624199E+03  0.49881401801E+03  0.88902563759E+02 0.  0.
          1    1    3    3  502    0  0.58883883255E+02 -0.29300961056E+03  0.24853213474E+03  0.38870318443E+03  0.00000000000E+00 0. -1.
         -2    1    3    3    0  502 -0.23430398014E+02 -0.13483966096E+03  0.14535387302E+03  0.19964585175E+03  0.00000000000E+00 0.  1.
         11    1    5    5    0    0 -0.10276028558E+01  0.20229666809E+03 -0.33508836110E+03  0.39141947785E+03  0.00000000000E+00 0. -1.
        -11    1    5    5    0    0 -0.40120676198E+02  0.29683489007E+02 -0.99386168629E+02  0.11121325772E+03  0.00000000000E+00 0.  1.
          3    1    6    6  503    0 -0.33210385048E+02  0.14916213273E+03  0.34775401940E+03  0.37984882457E+03  0.00000000000E+00 0. -1.
         -3    1    6    6    0  503  0.38905178861E+02  0.46706981696E+02  0.10226222259E+03  0.11896519344E+03  0.00000000000E+00 0.  1.
<mgrwt>
<rscale>  0 0.15361704E+04</rscale>
<asrwt>0</asrwt>
<pdfrwt beam="1">  1        1 0.15378642E+00 0.15361704E+04</pdfrwt>
<pdfrwt beam="2">  1       -2 0.90797544E-01 0.15361704E+04</pdfrwt>
<totfact> 0.13257742E+01</totfact>
</mgrwt>
</event>
<event>
12    4  0.4413110E-008  0.9882982E+03  0.7818608E-02  0.9321473E-01
          1   -1    0    0  501    0  0.00000000000E+00  0.00000000000E+00  0.18294542706E+03  0.18294542706E+03  0.00000000000E+00 0. -1.
         -2   -1    0    0    0  501 -0.00000000000E+00 -0.00000000000E+00 -0.13347332775E+04  0.13347332775E+04  0.00000000000E+00 0.  1.
        -24    2    1    2    0    0 -0.44785443469E+01  0.21043822525E+02 -0.34894841277E+02  0.92689559267E+02  0.83131249380E+02 0.  0.
        254    2    1    2    0    0  0.44785443469E+01 -0.21043822525E+02 -0.11168930092E+04  0.14249891453E+04  0.88469269832E+03 0.  0.
         23    2    4    4    0    0 -0.17154262929E+03 -0.39503435569E+03 -0.41275959119E+03  0.60351912314E+03  0.91574210556E+02 0.  0.
         23    2    4    4    0    0  0.17602117364E+03  0.37399053316E+03 -0.70413341798E+03  0.82147002216E+03  0.90314752515E+02 0.  0.
          1    1    3    3  502    0  0.15802711268E+02  0.44417817850E+01  0.23509823055E+02  0.28673452686E+02  0.00000000000E+00 0. -1.
         -2    1    3    3    0  502 -0.20281255615E+02  0.16602040740E+02 -0.58404664333E+02  0.64016106581E+02  0.00000000000E+00 0.  1.
         11    1    5    5    0    0 -0.11983548433E+03 -0.33206382510E+03 -0.29356952305E+03  0.45914049278E+03  0.00000000000E+00 0. -1.
        -11    1    5    5    0    0 -0.51707144956E+02 -0.62970530592E+02 -0.11919006814E+03  0.14437863036E+03  0.00000000000E+00 0.  1.
          3    1    6    6  503    0  0.11127018163E+03  0.23209702131E+03 -0.51956510007E+03  0.57982581335E+03  0.00000000000E+00 0. -1.
         -3    1    6    6    0  503  0.64750992003E+02  0.14189351186E+03 -0.18456831791E+03  0.24164420881E+03  0.00000000000E+00 0.  1.
<mgrwt>
<rscale>  0 0.98829823E+03</rscale>
<asrwt>0</asrwt>
<pdfrwt beam="1">  1        1 0.28145450E-01 0.98829823E+03</pdfrwt>
<pdfrwt beam="2">  1       -2 0.20534358E+00 0.98829823E+03</pdfrwt>
<totfact> 0.17954432E+01</totfact>
</mgrwt>
</event>
<event>
12    4  0.4413110E-008  0.1401255E+04  0.7818608E-02  0.8952910E-01
          1   -1    0    0  501    0  0.00000000000E+00  0.00000000000E+00  0.11385621388E+04  0.11385621388E+04  0.00000000000E+00 0. -1.
         -2   -1    0    0    0  501 -0.00000000000E+00 -0.00000000000E+00 -0.43113958781E+03  0.43113958781E+03  0.00000000000E+00 0.  1.
        -24    2    1    2    0    0 -0.25800075678E+03  0.29434994369E+03  0.31382177378E+03  0.50784512931E+03  0.78843451317E+02 0.  0.
        254    2    1    2    0    0  0.25800075678E+03 -0.29434994369E+03  0.39360077722E+03  0.10618565973E+04  0.90521355577E+03 0.  0.
         23    2    4    4    0    0  0.29137275324E+03 -0.37000422594E+03 -0.15148433418E+03  0.50326848727E+03  0.92360479785E+02 0.  0.
         23    2    4    4    0    0 -0.33371996455E+02  0.75654282258E+02  0.54508511140E+03  0.55858811003E+03  0.89808893926E+02 0.  0.
          1    1    3    3  502    0 -0.21455962299E+03  0.26308695673E+03  0.23624303921E+03  0.41359563851E+03  0.00000000000E+00 0. -1.
         -2    1    3    3    0  502 -0.43441133796E+02  0.31262986959E+02  0.77578734570E+02  0.94249490802E+02  0.00000000000E+00 0.  1.
         11    1    5    5    0    0  0.26925905864E+03 -0.36408888284E+03 -0.12824033247E+03  0.47064502350E+03  0.00000000000E+00 0.  1.
        -11    1    5    5    0    0  0.22113694600E+02 -0.59153431010E+01 -0.23244001710E+02  0.32623463770E+02  0.00000000000E+00 0. -1.
          1    1    6    6  503    0  0.10919723521E+02  0.36839808438E+02  0.40235255645E+03  0.40418311634E+03  0.00000000000E+00 0. -1.
         -1    1    6    6    0  503 -0.44291719977E+02  0.38814473820E+02  0.14273255495E+03  0.15440499370E+03  0.00000000000E+00 0.  1.
<mgrwt>
<rscale>  0 0.14012555E+04</rscale>
<asrwt>0</asrwt>
<pdfrwt beam="1">  1        1 0.17516340E+00 0.14012555E+04</pdfrwt>
<pdfrwt beam="2">  1       -2 0.66329168E-01 0.14012555E+04</pdfrwt>
<totfact> 0.21196416E+01</totfact>
</mgrwt>
</event>
<event>
12    4  0.4413110E-008  0.1306159E+04  0.7818608E-02  0.9024696E-01
          1   -1    0    0  501    0  0.00000000000E+00  0.00000000000E+00  0.18244737502E+04  0.18244737502E+04  0.00000000000E+00 0. -1.
         -2   -1    0    0    0  501 -0.00000000000E+00 -0.00000000000E+00 -0.23377292313E+03  0.23377292313E+03  0.00000000000E+00 0.  1.
        -24    2    1    2    0    0  0.14650912936E+03  0.21725789710E+03  0.90866188164E+02  0.28811533695E+03  0.78024767825E+02 0.  0.
        254    2    1    2    0    0 -0.14650912936E+03 -0.21725789710E+03  0.14998346389E+04  0.17701313364E+04  0.90288154548E+03 0.  0.
         23    2    4    4    0    0 -0.27247109622E+03  0.65160771102E+02  0.14029177489E+04  0.14335582943E+04  0.91786429890E+02 0.  0.
         23    2    4    4    0    0  0.12596196687E+03 -0.28241866820E+03  0.96916890052E+02  0.33657304210E+03  0.90894487427E+02 0.  0.
          1    1    3    3  502    0  0.57756100981E+02  0.44230680422E+02  0.52986384246E+02  0.89998206686E+02  0.00000000000E+00 0. -1.
         -2    1    3    3    0  502  0.88753028376E+02  0.17302721668E+03  0.37879803918E+02  0.19811713026E+03  0.00000000000E+00 0.  1.
         11    1    5    5    0    0 -0.91486545004E+02  0.35472868071E+02  0.30406588239E+03  0.31950613940E+03  0.00000000000E+00 0. -1.
        -11    1    5    5    0    0 -0.18098455122E+03  0.29687903031E+02  0.10988518665E+04  0.11140521549E+04  0.00000000000E+00 0.  1.
          3    1    6    6  503    0  0.78321965432E+01 -0.10866337348E+03  0.56084051250E+02  0.12253363964E+03  0.00000000000E+00 0. -1.
         -3    1    6    6    0  503  0.11812977032E+03 -0.17375529473E+03  0.40832838802E+02  0.21403940246E+03  0.00000000000E+00 0.  1.
<mgrwt>
<rscale>  0 0.13061586E+04</rscale>
<asrwt>0</asrwt>
<pdfrwt beam="1">  1        1 0.28068826E+00 0.13061586E+04</pdfrwt>
<pdfrwt beam="2">  1       -2 0.35965066E-01 0.13061586E+04</pdfrwt>
<totfact> 0.24589349E+01</totfact>
</mgrwt>
</event>
<event>
12    4  0.4413110E-008  0.1732578E+04  0.7818608E-02  0.8742999E-01
          1   -1    0    0  501    0  0.00000000000E+00  0.00000000000E+00  0.32336224499E+04  0.32336224499E+04  0.00000000000E+00 0. -1.
         -2   -1    0    0    0  501 -0.00000000000E+00 -0.00000000000E+00 -0.23207933339E+03  0.23207933339E+03  0.00000000000E+00 0.  1.
        -24    2    1    2    0    0  0.32721991108E+03 -0.24395525685E+02  0.26068714243E+02  0.33944670851E+03  0.82924533002E+02 0.  0.
        254    2    1    2    0    0 -0.32721991108E+03  0.24395525685E+02  0.29754744023E+04  0.31262550748E+04  0.90130730732E+03 0.  0.
         23    2    4    4    0    0  0.25637192677E+02  0.35936434689E+03  0.19798306884E+04  0.20144764977E+04  0.92660701110E+02 0.  0.
         23    2    4    4    0    0 -0.35285710375E+03 -0.33496882121E+03  0.99564371392E+03  0.11117785772E+04  0.89626741013E+02 0.  0.
          1    1    3    3  502    0  0.56556896650E+01 -0.11491016604E+02  0.11630007035E+02  0.17299923463E+02  0.00000000000E+00 0. -1.
         -2    1    3    3    0  502  0.32156422141E+03 -0.12904509081E+02  0.14438707208E+02  0.32214678504E+03  0.00000000000E+00 0.  1.
         11    1    5    5    0    0  0.20861711625E+02  0.19405920957E+03  0.13139737724E+04  0.13283904781E+04  0.00000000000E+00 0.  1.
        -11    1    5    5    0    0  0.47754810519E+01  0.16530513732E+03  0.66585691597E+03  0.68608601953E+03  0.00000000000E+00 0. -1.
          1    1    6    6  503    0 -0.30165358258E+03 -0.27257878145E+03  0.89306460786E+03  0.98125351963E+03  0.00000000000E+00 0. -1.
         -1    1    6    6    0  503 -0.51203521176E+02 -0.62390039756E+02  0.10257910606E+03  0.13052505753E+03  0.00000000000E+00 0.  1.
<mgrwt>
<rscale>  0 0.17325784E+04</rscale>
<asrwt>0</asrwt>
<pdfrwt beam="1">  1        1 0.49748035E+00 0.17325784E+04</pdfrwt>
<pdfrwt beam="2">  1       -2 0.35704515E-01 0.17325784E+04</pdfrwt>
<totfact> 0.24777348E+00</totfact>
</mgrwt>
</event>
<event>
12    4  0.4413110E-008  0.1539420E+04  0.7818608E-02  0.8858654E-01
         -2   -1    0    0    0  501 -0.00000000000E+00  0.00000000000E+00  0.25490059430E+03  0.25490059430E+03  0.00000000000E+00 0.  1.
          1   -1    0    0  501    0  0.00000000000E+00 -0.00000000000E+00 -0.23242527013E+04  0.23242527013E+04  0.00000000000E+00 0. -1.
        -24    2    1    2    0    0  0.47918070379E+02  0.32977526276E+03 -0.13267274036E+04  0.13702295226E+04  0.79217900416E+02 0.  0.
        254    2    1    2    0    0 -0.47918070379E+02 -0.32977526276E+03 -0.74262470341E+03  0.12089237730E+04  0.89384415501E+03 0.  0.
         23    2    4    4    0    0 -0.24870659399E+03  0.20098507033E+03 -0.46181055221E+03  0.56915013888E+03  0.91722004247E+02 0.  0.
         23    2    4    4    0    0  0.20078852361E+03 -0.53076033309E+03 -0.28081415120E+03  0.63977363413E+03  0.91821310251E+02 0.  0.
          1    1    3    3  502    0  0.38925529468E+02  0.33096379764E+03 -0.12830731895E+04  0.13256428787E+04  0.00000000000E+00 0. -1.
         -2    1    3    3    0  502  0.89925409111E+01 -0.11885348743E+01 -0.43654214088E+02  0.44586643907E+02  0.00000000000E+00 0.  1.
         11    1    5    5    0    0 -0.17340297116E+03  0.18839439940E+03 -0.34602804728E+03  0.43046074111E+03  0.00000000000E+00 0.  1.
        -11    1    5    5    0    0 -0.75303622831E+02  0.12590670934E+02 -0.11578250493E+03  0.13868939777E+03  0.00000000000E+00 0. -1.
          2    1    6    6  503    0  0.25997097483E+02 -0.11200131442E+03 -0.20993171191E+02  0.11687966781E+03  0.00000000000E+00 0. -1.
         -2    1    6    6    0  503  0.17479142613E+03 -0.41875901867E+03 -0.25982098001E+03  0.52289396632E+03  0.00000000000E+00 0.  1.
<mgrwt>
<rscale>  0 0.15394199E+04</rscale>
<asrwt>0</asrwt>
<pdfrwt beam="1">  1        1 0.35757734E+00 0.15394199E+04</pdfrwt>
<pdfrwt beam="2">  1       -2 0.39215475E-01 0.15394199E+04</pdfrwt>
<totfact> 0.93385497E+00</totfact>
</mgrwt>
</event>
<event>
12    4  0.4413110E-008  0.1427534E+04  0.7818608E-02  0.8934126E-01
          1   -1    0    0  501    0  0.00000000000E+00  0.00000000000E+00  0.28869856096E+04  0.28869856096E+04  0.00000000000E+00 0. -1.
         -2   -1    0    0    0  501 -0.00000000000E+00 -0.00000000000E+00 -0.17646886069E+03  0.17646886069E+03  0.00000000000E+00 0.  1.
        -24    2    1    2    0    0 -0.24678126587E+03 -0.17147072776E+03  0.17624018773E+03  0.35774396449E+03  0.81344555416E+02 0.  0.
        254    2    1    2    0    0  0.24678126587E+03  0.17147072776E+03  0.25342765611E+04  0.27057105058E+04  0.89889290182E+03 0.  0.
         23    2    4    4    0    0  0.23748532625E+03  0.92256642026E+02  0.25654645138E+04  0.25797624817E+04  0.93036133884E+02 0.  0.
         23    2    4    4    0    0  0.92959396123E+01  0.79214085734E+02 -0.31187952698E+02  0.12594802402E+03  0.92352208904E+02 0.  0.
          3    1    3    3  502    0 -0.72006342846E+01 -0.34026991522E+02  0.14630143276E+02  0.37732298875E+02  0.00000000000E+00 0. -1.
         -4    1    3    3    0  502 -0.23958063158E+03 -0.13744373624E+03  0.16161004445E+03  0.32001166561E+03  0.00000000000E+00 0.  1.
         11    1    5    5    0    0  0.10865510280E+01 -0.11011583933E+02  0.56699243026E+02  0.57768847432E+02  0.00000000000E+00 0. -1.
        -11    1    5    5    0    0  0.23639877523E+03  0.10326822596E+03  0.25087652708E+04  0.25219936343E+04  0.00000000000E+00 0.  1.
          3    1    6    6  503    0  0.16694380318E+02  0.91946398678E+02 -0.22477089443E+01  0.93476707043E+02  0.00000000000E+00 0. -1.
         -3    1    6    6    0  503 -0.73984407060E+01 -0.12732312944E+02 -0.28940243754E+02  0.32471316979E+02  0.00000000000E+00 0.  1.
<mgrwt>
<rscale>  0 0.14275336E+04</rscale>
<asrwt>0</asrwt>
<pdfrwt beam="1">  1        1 0.44415160E+00 0.14275336E+04</pdfrwt>
<pdfrwt beam="2">  1       -2 0.27149058E-01 0.14275336E+04</pdfrwt>
<totfact> 0.76589053E+00</totfact>
</mgrwt>
</event>
<event>
12    4  0.4413110E-008  0.1805854E+04  0.7818608E-02  0.8703192E-01
         -2   -1    0    0    0  501 -0.00000000000E+00  0.00000000000E+00  0.95509510547E+03  0.95509510547E+03  0.00000000000E+00 0.  1.
          1   -1    0    0  501    0  0.00000000000E+00 -0.00000000000E+00 -0.85360870850E+03  0.85360870850E+03  0.00000000000E+00 0. -1.
        -24    2    1    2    0    0 -0.97299805651E+02  0.36328748328E+03 -0.52640499884E+03  0.65189945042E+03  0.80159983538E+02 0.  0.
        254    2    1    2    0    0  0.97299805651E+02 -0.36328748328E+03  0.62789139582E+03  0.11568043636E+04  0.89582569895E+03 0.  0.
         23    2    4    4    0    0  0.48150707110E+03 -0.22349307346E+03  0.25421819039E+03  0.59552425107E+03  0.90686448202E+02 0.  0.
         23    2    4    4    0    0 -0.38420726545E+03 -0.13979440982E+03  0.37367320542E+03  0.56128011248E+03  0.90807490744E+02 0.  0.
          3    1    3    3  502    0 -0.51051809528E+02  0.21187573317E+03 -0.23665945006E+03  0.32172240964E+03  0.00000000000E+00 0. -1.
         -4    1    3    3    0  502 -0.46247996123E+02  0.15141175011E+03 -0.28974554879E+03  0.33017704078E+03  0.00000000000E+00 0.  1.
         11    1    5    5    0    0  0.17213153471E+03 -0.52220156287E+02  0.48023564080E+02  0.18617860423E+03  0.00000000000E+00 0.  1.
        -11    1    5    5    0    0  0.30937553638E+03 -0.17127291718E+03  0.20619462631E+03  0.40934564684E+03  0.00000000000E+00 0. -1.
          1    1    6    6  503    0 -0.28695631781E+03 -0.66839017661E+02  0.23512778824E+03  0.37695684026E+03  0.00000000000E+00 0. -1.
         -1    1    6    6    0  503 -0.97250947637E+02 -0.72955392156E+02  0.13854541718E+03  0.18432327222E+03  0.00000000000E+00 0.  1.
<mgrwt>
<rscale>  0 0.18058544E+04</rscale>
<asrwt>0</asrwt>
<pdfrwt beam="1">  1        1 0.13132442E+00 0.18058544E+04</pdfrwt>
<pdfrwt beam="2">  1       -2 0.14693771E+00 0.18058544E+04</pdfrwt>
<totfact> 0.51989264E+00</totfact>
</mgrwt>
</event>
<event>
12    4  0.4413110E-008  0.1423009E+04  0.7818608E-02  0.8937330E-01
         -2   -1    0    0    0  501 -0.00000000000E+00  0.00000000000E+00  0.36540890269E+03  0.36540890269E+03  0.00000000000E+00 0.  1.
          1   -1    0    0  501    0  0.00000000000E+00 -0.00000000000E+00 -0.13854024447E+04  0.13854024447E+04  0.00000000000E+00 0. -1.
        -24    2    1    2    0    0  0.35562304031E+03  0.58616680840E+02 -0.29239465536E+03  0.47097226285E+03  0.80103531873E+02 0.  0.
        254    2    1    2    0    0 -0.35562304031E+03 -0.58616680840E+02 -0.72759888667E+03  0.12798390846E+04  0.98928473173E+03 0.  0.
         23    2    4    4    0    0  0.30476944110E+03  0.56411204260E+02 -0.43832561702E+03  0.54383480409E+03  0.86950051231E+02 0.  0.
         23    2    4    4    0    0 -0.66039248141E+03 -0.11502788510E+03 -0.28927326965E+03  0.73600428048E+03  0.93132338611E+02 0.  0.
          1    1    3    3  502    0  0.13188373876E+03  0.28488255160E+02 -0.15984474844E+03  0.20917754381E+03  0.00000000000E+00 0. -1.
         -2    1    3    3    0  502  0.22373930155E+03  0.30128425680E+02 -0.13254990692E+03  0.26179471904E+03  0.00000000000E+00 0.  1.
         11    1    5    5    0    0  0.19728126062E+03  0.77629318705E+02 -0.27692247884E+03  0.34875817726E+03  0.00000000000E+00 0. -1.
        -11    1    5    5    0    0  0.10748818048E+03 -0.21218114445E+02 -0.16140313818E+03  0.19507662684E+03  0.00000000000E+00 0.  1.
          3    1    6    6  503    0 -0.36658353645E+03 -0.22812683634E+02 -0.13256794464E+03  0.39048452937E+03  0.00000000000E+00 0. -1.
         -3    1    6    6    0  503 -0.29380894496E+03 -0.92215201466E+02 -0.15670532501E+03  0.34551975111E+03  0.00000000000E+00 0.  1.
<mgrwt>
<rscale>  0 0.14230086E+04</rscale>
<asrwt>0</asrwt>
<pdfrwt beam="1">  1        1 0.21313883E+00 0.14230086E+04</pdfrwt>
<pdfrwt beam="2">  1       -2 0.56216755E-01 0.14230086E+04</pdfrwt>
<totfact> 0.19951662E+01</totfact>
</mgrwt>
</event>
<event>
12    4  0.4413110E-008  0.1364288E+04  0.7818608E-02  0.8980082E-01
         -2   -1    0    0    0  501 -0.00000000000E+00  0.00000000000E+00  0.37045999386E+03  0.37045999386E+03  0.00000000000E+00 0.  1.
          1   -1    0    0  501    0  0.00000000000E+00 -0.00000000000E+00 -0.12560620716E+04  0.12560620716E+04  0.00000000000E+00 0. -1.
        -24    2    1    2    0    0  0.32453172665E+02  0.36601622012E+03 -0.10462201505E+03  0.39027981615E+03  0.79696217312E+02 0.  0.
        254    2    1    2    0    0 -0.32453172665E+02 -0.36601622012E+03 -0.78098006274E+03  0.12362422494E+04  0.88506720588E+03 0.  0.
         23    2    4    4    0    0 -0.74163275443E+02  0.20496555781E+03 -0.57477526719E+03  0.62132729658E+03  0.90387667263E+02 0.  0.
         23    2    4    4    0    0  0.41710102779E+02 -0.57098177792E+03 -0.20620479554E+03  0.61491495278E+03  0.88544102312E+02 0.  0.
          3    1    3    3  502    0  0.34363910081E+02  0.72951826561E+02 -0.52135095066E+01  0.80808588628E+02  0.00000000000E+00 0. -1.
         -4    1    3    3    0  502 -0.19107374158E+01  0.29306439356E+03 -0.99408505546E+02  0.30947122752E+03  0.00000000000E+00 0.  1.
         11    1    5    5    0    0 -0.93631290630E+02  0.16903693657E+03 -0.50128127846E+03  0.53723665609E+03  0.00000000000E+00 0. -1.
        -11    1    5    5    0    0  0.19468015187E+02  0.35928621238E+02 -0.73493988732E+02  0.84090640496E+02  0.00000000000E+00 0.  1.
          3    1    6    6  503    0  0.29213461356E+02 -0.54436480653E+03 -0.17622978550E+03  0.57292530596E+03  0.00000000000E+00 0. -1.
         -3    1    6    6    0  503  0.12496641423E+02 -0.26616971395E+02 -0.29975010044E+02  0.41989646822E+02  0.00000000000E+00 0.  1.
<mgrwt>
<rscale>  0 0.13642885E+04</rscale>
<asrwt>0</asrwt>
<pdfrwt beam="1">  1        1 0.19324032E+00 0.13642885E+04</pdfrwt>
<pdfrwt beam="2">  1       -2 0.56993846E-01 0.13642885E+04</pdfrwt>
<totfact> 0.24077851E+01</totfact>
</mgrwt>
</event>
<event>
12    4  0.4413110E-008  0.1498895E+04  0.7818608E-02  0.8885188E-01
          1   -1    0    0  501    0  0.00000000000E+00  0.00000000000E+00  0.92786907321E+03  0.92786907321E+03  0.00000000000E+00 0. -1.
         -2   -1    0    0    0  501 -0.00000000000E+00 -0.00000000000E+00 -0.60533480787E+03  0.60533480787E+03  0.00000000000E+00 0.  1.
        -24    2    1    2    0    0 -0.23402791085E+03  0.18455076930E+03 -0.28941045656E+03  0.42371873582E+03  0.83373288335E+02 0.  0.
        254    2    1    2    0    0  0.23402791085E+03 -0.18455076930E+03  0.61194472191E+03  0.11094851453E+04  0.87615803106E+03 0.  0.
         23    2    4    4    0    0  0.30474738525E+03  0.11265010548E+02  0.76997100418E+03  0.83315106365E+03  0.91035588115E+02 0.  0.
         23    2    4    4    0    0 -0.70719474402E+02 -0.19581577985E+03 -0.15802628227E+03  0.27633408162E+03  0.89683638853E+02 0.  0.
          3    1    3    3  502    0  0.30220082533E+01 -0.38487440961E+01 -0.12383636714E+02  0.13315397976E+02  0.00000000000E+00 0. -1.
         -4    1    3    3    0  502 -0.23704991910E+03  0.18839951340E+03 -0.27702681985E+03  0.41040333784E+03  0.00000000000E+00 0.  1.
         11    1    5    5    0    0  0.20231663802E+03 -0.31553334359E+02  0.44799104407E+03  0.49256838154E+03  0.00000000000E+00 0. -1.
        -11    1    5    5    0    0  0.10243074723E+03  0.42818344906E+02  0.32197996011E+03  0.34058268211E+03  0.00000000000E+00 0.  1.
          3    1    6    6  503    0 -0.82831167404E+02 -0.12055147622E+03 -0.77819361540E+02  0.16567894779E+03  0.00000000000E+00 0. -1.
         -3    1    6    6    0  503  0.12111693002E+02 -0.75264303637E+02 -0.80206920731E+02  0.11065513383E+03  0.00000000000E+00 0.  1.
<mgrwt>
<rscale>  0 0.14988949E+04</rscale>
<asrwt>0</asrwt>
<pdfrwt beam="1">  1        1 0.14274909E+00 0.14988949E+04</pdfrwt>
<pdfrwt beam="2">  1       -2 0.93128432E-01 0.14988949E+04</pdfrwt>
<totfact> 0.14296434E+01</totfact>
</mgrwt>
</event>
<event>
12    4  0.4413110E-008  0.1584090E+04  0.7818608E-02  0.8830382E-01
          1   -1    0    0  501    0  0.00000000000E+00  0.00000000000E+00  0.15604897550E+04  0.15604897550E+04  0.00000000000E+00 0. -1.
         -2   -1    0    0    0  501 -0.00000000000E+00 -0.00000000000E+00 -0.40201175483E+03  0.40201175483E+03  0.00000000000E+00 0.  1.
        -24    2    1    2    0    0 -0.33668510144E+03 -0.31049608848E+03  0.42456537535E+02  0.46680344726E+03  0.79612953115E+02 0.  0.
        254    2    1    2    0    0  0.33668510144E+03  0.31049608848E+03  0.11160214626E+04  0.14956980625E+04  0.88421949244E+03 0.  0.
         23    2    4    4    0    0 -0.13116612141E+03 -0.15308132774E+03  0.32291839129E+02  0.22423282480E+03  0.92731615621E+02 0.  0.
         23    2    4    4    0    0  0.46785122284E+03  0.46357741621E+03  0.10837296235E+04  0.12714652377E+04  0.91461283916E+02 0.  0.
          1    1    3    3  502    0 -0.23334161564E+03 -0.17667106736E+03  0.52804422076E+02  0.29740424110E+03  0.00000000000E+00 0. -1.
         -2    1    3    3    0  502 -0.10334348579E+03 -0.13382502111E+03 -0.10347884541E+02  0.16939920616E+03  0.00000000000E+00 0.  1.
         11    1    5    5    0    0 -0.19577376530E+02 -0.48840431441E+02  0.47353868876E+02  0.70788772505E+02  0.00000000000E+00 0.  1.
        -11    1    5    5    0    0 -0.11158874488E+03 -0.10424089629E+03 -0.15062029748E+02  0.15344405229E+03  0.00000000000E+00 0. -1.
          1    1    6    6  503    0  0.36534333672E+03  0.31821072962E+03  0.84039183601E+03  0.97004755561E+03  0.00000000000E+00 0. -1.
         -1    1    6    6    0  503  0.10250788613E+03  0.14536668660E+03  0.24333778745E+03  0.30141768212E+03  0.00000000000E+00 0.  1.
<mgrwt>
<rscale>  0 0.15840899E+04</rscale>
<asrwt>0</asrwt>
<pdfrwt beam="1">  1        1 0.24007534E+00 0.15840899E+04</pdfrwt>
<pdfrwt beam="2">  1       -2 0.61847963E-01 0.15840899E+04</pdfrwt>
<totfact> 0.12163265E+01</totfact>
</mgrwt>
</event>
<event>
12    4  0.4413110E-008  0.2664236E+04  0.7818608E-02  0.8346703E-01
          1   -1    0    0  501    0  0.00000000000E+00  0.00000000000E+00  0.29512748763E+04  0.29512748763E+04  0.00000000000E+00 0. -1.
         -2   -1    0    0    0  501 -0.00000000000E+00 -0.00000000000E+00 -0.60127874469E+03  0.60127874469E+03  0.00000000000E+00 0.  1.
        -24    2    1    2    0    0 -0.13925873277E+03 -0.26184094273E+03 -0.47693412783E+03  0.56697583633E+03  0.77728776794E+02 0.  0.
        254    2    1    2    0    0  0.13925873277E+03  0.26184094273E+03  0.28269302594E+04  0.29855777846E+04  0.91333802206E+03 0.  0.
         23    2    4    4    0    0 -0.99296116553E+01  0.77756521715E+02 -0.28517608416E+02  0.11891038946E+03  0.84745223314E+02 0.  0.
         23    2    4    4    0    0  0.14918834443E+03  0.18408442101E+03  0.28554478678E+04  0.28666673952E+04  0.89750724077E+02 0.  0.
          3    1    3    3  502    0 -0.25616950852E+01  0.34870283314E+01  0.23725667852E-01  0.43269170550E+01  0.00000000000E+00 0. -1.
         -4    1    3    3    0  502 -0.13669703769E+03 -0.26532797106E+03 -0.47695785350E+03  0.56264891927E+03  0.00000000000E+00 0.  1.
         11    1    5    5    0    0 -0.33249501498E+02  0.81766092084E+02 -0.34054102904E+02  0.94609223066E+02  0.00000000000E+00 0.  1.
        -11    1    5    5    0    0  0.23319889843E+02 -0.40095703693E+01  0.55364944877E+01  0.24301166392E+02  0.00000000000E+00 0. -1.
          3    1    6    6  503    0 -0.72331098749E+01  0.40053308479E+02  0.47831559204E+03  0.48004415524E+03  0.00000000000E+00 0. -1.
         -3    1    6    6    0  503  0.15642145430E+03  0.14403111254E+03  0.23771322758E+04  0.23866232399E+04  0.00000000000E+00 0.  1.
<mgrwt>
<rscale>  0 0.26642364E+04</rscale>
<asrwt>0</asrwt>
<pdfrwt beam="1">  1        1 0.45404228E+00 0.26642364E+04</pdfrwt>
<pdfrwt beam="2">  1       -2 0.92504424E-01 0.26642364E+04</pdfrwt>
<totfact> 0.49534667E-01</totfact>
</mgrwt>
</event>
<event>
12    4  0.4413110E-008  0.2234870E+04  0.7818608E-02  0.8504053E-01
         -2   -1    0    0    0  501 -0.00000000000E+00  0.00000000000E+00  0.60099563690E+03  0.60099563690E+03  0.00000000000E+00 0.  1.
          1   -1    0    0  501    0  0.00000000000E+00 -0.00000000000E+00 -0.20776533276E+04  0.20776533276E+04  0.00000000000E+00 0. -1.
        -24    2    1    2    0    0 -0.52947427992E+03  0.24559804473E+03  0.25755915046E+03  0.64284717666E+03  0.79084536354E+02 0.  0.
        254    2    1    2    0    0  0.52947427992E+03 -0.24559804473E+03 -0.17342168412E+04  0.20358017879E+04  0.89236733162E+03 0.  0.
         23    2    4    4    0    0 -0.21757839917E+03 -0.13027371077E+03 -0.24940818190E+03  0.36727640878E+03  0.91520051027E+02 0.  0.
         23    2    4    4    0    0  0.74705267909E+03 -0.11532433396E+03 -0.14848086593E+04  0.16685253791E+04  0.89066147586E+02 0.  0.
          1    1    3    3  502    0 -0.21404126185E+03  0.10505508411E+03  0.14767008647E+03  0.28045799492E+03  0.00000000000E+00 0. -1.
         -2    1    3    3    0  502 -0.31543301806E+03  0.14054296062E+03  0.10988906399E+03  0.36238918175E+03  0.00000000000E+00 0.  1.
         11    1    5    5    0    0 -0.22606537463E+03 -0.12149703179E+03 -0.23167073396E+03  0.34574327370E+03  0.00000000000E+00 0. -1.
        -11    1    5    5    0    0  0.84869754588E+01 -0.87766789878E+01 -0.17737447944E+02  0.21533135073E+02  0.00000000000E+00 0.  1.
          4    1    6    6  503    0  0.34891926403E+03 -0.10518055394E+02 -0.65593059600E+03  0.74303447367E+03  0.00000000000E+00 0. -1.
         -4    1    6    6    0  503  0.39813341506E+03 -0.10480627856E+03 -0.82887806327E+03  0.92549090541E+03  0.00000000000E+00 0.  1.
<mgrwt>
<rscale>  0 0.22348696E+04</rscale>
<asrwt>0</asrwt>
<pdfrwt beam="1">  1        1 0.31963897E+00 0.22348696E+04</pdfrwt>
<pdfrwt beam="2">  1       -2 0.92460868E-01 0.22348696E+04</pdfrwt>
<totfact> 0.20921678E+00</totfact>
</mgrwt>
</event>
<event>
12    4  0.4413110E-008  0.1335932E+04  0.7818608E-02  0.9001546E-01
          1   -1    0    0  501    0  0.00000000000E+00  0.00000000000E+00  0.33831338104E+03  0.33831338104E+03  0.00000000000E+00 0. -1.
         -2   -1    0    0    0  501 -0.00000000000E+00 -0.00000000000E+00 -0.13188322389E+04  0.13188322389E+04  0.00000000000E+00 0.  1.
        -24    2    1    2    0    0  0.25766897626E+03 -0.19634182785E+03 -0.45826253277E+03  0.56684363807E+03  0.79773093192E+02 0.  0.
        254    2    1    2    0    0 -0.25766897626E+03  0.19634182785E+03 -0.52225632508E+03  0.10903019818E+04  0.90059054395E+03 0.  0.
         23    2    4    4    0    0  0.22599598752E+02  0.50273128555E+03 -0.39405141560E+03  0.64560931420E+03  0.91024068858E+02 0.  0.
         23    2    4    4    0    0 -0.28026857501E+03 -0.30638945770E+03 -0.12820490948E+03  0.44469266765E+03  0.94287305216E+02 0.  0.
          1    1    3    3  502    0  0.92571455978E+02 -0.73932599145E+02 -0.10580932773E+03  0.15884305938E+03  0.00000000000E+00 0. -1.
         -2    1    3    3    0  502  0.16509752028E+03 -0.12240922871E+03 -0.35245320503E+03  0.40800057869E+03  0.00000000000E+00 0.  1.
         11    1    5    5    0    0 -0.53414243482E+01  0.39501641747E+03 -0.34299863562E+03  0.52317737425E+03  0.00000000000E+00 0. -1.
        -11    1    5    5    0    0  0.27941023100E+02  0.10771486808E+03 -0.51052779975E+02  0.12243193995E+03  0.00000000000E+00 0.  1.
          2    1    6    6  503    0 -0.37003568906E+02 -0.84402142861E+02 -0.25031916625E+01  0.92191386798E+02  0.00000000000E+00 0. -1.
         -2    1    6    6    0  503 -0.24326500610E+03 -0.22198731483E+03 -0.12570171782E+03  0.35250128085E+03  0.00000000000E+00 0.  1.
<mgrwt>
<rscale>  0 0.13359320E+04</rscale>
<asrwt>0</asrwt>
<pdfrwt beam="1">  1        1 0.52048213E-01 0.13359320E+04</pdfrwt>
<pdfrwt beam="2">  1       -2 0.20289726E+00 0.13359320E+04</pdfrwt>
<totfact> 0.81531831E+00</totfact>
</mgrwt>
</event>
<event>
12    4  0.4413110E-008  0.2412958E+04  0.7818608E-02  0.8434668E-01
         -2   -1    0    0    0  501 -0.00000000000E+00  0.00000000000E+00  0.89783326017E+03  0.89783326017E+03  0.00000000000E+00 0.  1.
          1   -1    0    0  501    0  0.00000000000E+00 -0.00000000000E+00 -0.16212265398E+04  0.16212265398E+04  0.00000000000E+00 0. -1.
        -24    2    1    2    0    0 -0.14049009330E+03  0.26644373363E+03  0.72441828516E+03  0.78810037326E+03  0.74770428329E+02 0.  0.
        254    2    1    2    0    0  0.14049009330E+03 -0.26644373363E+03 -0.14478115648E+04  0.17309594267E+04  0.89962907926E+03 0.  0.
         23    2    4    4    0    0  0.35757810656E+02 -0.99610466714E+02 -0.14997309316E+04  0.15066020720E+04  0.97242326446E+02 0.  0.
         23    2    4    4    0    0  0.10473228264E+03 -0.16683326691E+03  0.51919366852E+02  0.22435735466E+03  0.94012828707E+02 0.  0.
          3    1    3    3  502    0 -0.34874302474E+02  0.58939171931E+02  0.95914726687E+02  0.11785447703E+03  0.00000000000E+00 0. -1.
         -4    1    3    3    0  502 -0.10561579082E+03  0.20750456170E+03  0.62850355848E+03  0.67024589623E+03  0.00000000000E+00 0.  1.
         11    1    5    5    0    0  0.19365199494E+02 -0.58340602864E+02 -0.13212757296E+04  0.13227048766E+04  0.00000000000E+00 0. -1.
        -11    1    5    5    0    0  0.16392611162E+02 -0.41269863850E+02 -0.17845520201E+03  0.18389719543E+03  0.00000000000E+00 0.  1.
          4    1    6    6  503    0 -0.15782424669E+02 -0.25798003296E+02 -0.42227528426E+01  0.30536102307E+02  0.00000000000E+00 0.  1.
         -4    1    6    6    0  503  0.12051470731E+03 -0.14103526362E+03  0.56142119695E+02  0.19382125236E+03  0.00000000000E+00 0. -1.
<mgrwt>
<rscale>  0 0.24129576E+04</rscale>
<asrwt>0</asrwt>
<pdfrwt beam="1">  1        1 0.24941947E+00 0.24129576E+04</pdfrwt>
<pdfrwt beam="2">  1       -2 0.13812819E+00 0.24129576E+04</pdfrwt>
<totfact> 0.15777270E+00</totfact>
</mgrwt>
</event>
<event>
12    4  0.4413110E-008  0.1769116E+04  0.7818608E-02  0.8722898E-01
         -2   -1    0    0    0  501 -0.00000000000E+00  0.00000000000E+00  0.45402816621E+03  0.45402816621E+03  0.00000000000E+00 0.  1.
          1   -1    0    0  501    0  0.00000000000E+00 -0.00000000000E+00 -0.17233359336E+04  0.17233359336E+04  0.00000000000E+00 0. -1.
        -24    2    1    2    0    0 -0.12288704132E+03 -0.32576346533E+03 -0.11335588515E+04  0.11885624715E+04  0.80635094348E+02 0.  0.
        254    2    1    2    0    0  0.12288704132E+03  0.32576346533E+03 -0.13574891583E+03  0.98880162831E+03  0.91546590965E+03 0.  0.
         23    2    4    4    0    0  0.44791918383E+03  0.40724164373E+03 -0.18169294457E+03  0.63872499737E+03  0.92086614304E+02 0.  0.
         23    2    4    4    0    0 -0.32503214251E+03 -0.81478178402E+02  0.45944028746E+02  0.35007663094E+03  0.90322790769E+02 0.  0.
          3    1    3    3  502    0 -0.11695232087E+03 -0.32310795661E+03 -0.10509898348E+04  0.11057378667E+04  0.00000000000E+00 0. -1.
         -4    1    3    3    0  502 -0.59347204453E+01 -0.26555087168E+01 -0.82569016696E+02  0.82824604747E+02  0.00000000000E+00 0.  1.
         11    1    5    5    0    0  0.13951952851E+03  0.11772584496E+03 -0.99171175224E+02  0.20774983851E+03  0.00000000000E+00 0. -1.
        -11    1    5    5    0    0  0.30839965532E+03  0.28951579878E+03 -0.82521769349E+02  0.43097515886E+03  0.00000000000E+00 0.  1.
          3    1    6    6  503    0 -0.17719354043E+03 -0.78056685880E+02  0.56847499629E+02  0.20179701483E+03  0.00000000000E+00 0. -1.
         -3    1    6    6    0  503 -0.14783860208E+03 -0.34214925224E+01 -0.10903470883E+02  0.14827961611E+03  0.00000000000E+00 0.  1.
<mgrwt>
<rscale>  0 0.17691162E+04</rscale>
<asrwt>0</asrwt>
<pdfrwt beam="1">  1        1 0.26512861E+00 0.17691162E+04</pdfrwt>
<pdfrwt beam="2">  1       -2 0.69850486E-01 0.17691162E+04</pdfrwt>
<totfact> 0.71259867E+00</totfact>
</mgrwt>
</event>
<event>
12    4  0.4413110E-008  0.1970571E+04  0.7818608E-02  0.8620505E-01
         -2   -1    0    0    0  501 -0.00000000000E+00  0.00000000000E+00  0.12852063897E+04  0.12852063897E+04  0.00000000000E+00 0.  1.
          1   -1    0    0  501    0  0.00000000000E+00 -0.00000000000E+00 -0.75535538073E+03  0.75535538073E+03  0.00000000000E+00 0. -1.
        -24    2    1    2    0    0 -0.35936726401E+03  0.47202806721E+02  0.92042662249E+03  0.99496800941E+03  0.10678593982E+03 0.  0.
        254    2    1    2    0    0  0.35936726401E+03 -0.47202806721E+02 -0.39057561351E+03  0.10455937610E+04  0.89963551946E+03 0.  0.
         23    2    4    4    0    0  0.23327308192E+03  0.15384815675E+03  0.22957887081E+03  0.37500491280E+03  0.99179839785E+02 0.  0.
         23    2    4    4    0    0  0.12609418208E+03 -0.20105096347E+03 -0.62015448432E+03  0.67058884825E+03  0.93683436660E+02 0.  0.
          1    1    3    3  502    0 -0.10707769300E+03  0.48637935850E+02  0.20473817087E+03  0.23611226091E+03  0.00000000000E+00 0. -1.
         -2    1    3    3    0  502 -0.25228957101E+03 -0.14351291290E+01  0.71568845162E+03  0.75885574849E+03  0.00000000000E+00 0.  1.
         11    1    5    5    0    0  0.20283492388E+03  0.12915609882E+03  0.14251171367E+03  0.27952261579E+03  0.00000000000E+00 0. -1.
        -11    1    5    5    0    0  0.30438158045E+02  0.24692057927E+02  0.87067157139E+02  0.95482297009E+02  0.00000000000E+00 0.  1.
          3    1    6    6  503    0  0.99726979126E+02 -0.18431679705E+03 -0.43535034366E+03  0.48316464457E+03  0.00000000000E+00 0. -1.
         -3    1    6    6    0  503  0.26367202957E+02 -0.16734166415E+02 -0.18480414066E+03  0.18742420367E+03  0.00000000000E+00 0.  1.
<mgrwt>
<rscale>  0 0.19705710E+04</rscale>
<asrwt>0</asrwt>
<pdfrwt beam="1">  1        1 0.11620852E+00 0.19705710E+04</pdfrwt>
<pdfrwt beam="2">  1       -2 0.19772406E+00 0.19705710E+04</pdfrwt>
<totfact> 0.27152791E+00</totfact>
</mgrwt>
</event>
<event>
12    4  0.4413110E-008  0.1381976E+04  0.7818608E-02  0.8966969E-01
         -2   -1    0    0    0  501 -0.00000000000E+00  0.00000000000E+00  0.28894016662E+03  0.28894016662E+03  0.00000000000E+00 0.  1.
          1   -1    0    0  501    0  0.00000000000E+00 -0.00000000000E+00 -0.16524688238E+04  0.16524688238E+04  0.00000000000E+00 0. -1.
        -24    2    1    2    0    0  0.43823162794E+02  0.35042064824E+03 -0.64682570947E+03  0.74120434680E+03  0.79279789179E+02 0.  0.
        254    2    1    2    0    0 -0.43823162794E+02 -0.35042064824E+03 -0.71670294772E+03  0.12002046436E+04  0.89560759880E+03 0.  0.
         23    2    4    4    0    0  0.28687705371E+03 -0.45324876378E+03 -0.21959464718E+03  0.58711090890E+03  0.93512162133E+02 0.  0.
         23    2    4    4    0    0 -0.33070021651E+03  0.10282811554E+03 -0.49710830053E+03  0.61309373473E+03  0.93973456671E+02 0.  0.
          1    1    3    3  502    0  0.33523895991E+02  0.20746856074E+03 -0.46001795217E+03  0.50575050333E+03  0.00000000000E+00 0. -1.
         -2    1    3    3    0  502  0.10299266803E+02  0.14295208750E+03 -0.18680775729E+03  0.23545384347E+03  0.00000000000E+00 0.  1.
         11    1    5    5    0    0  0.28058833005E+03 -0.45006089041E+03 -0.20091206863E+03  0.56714220030E+03  0.00000000000E+00 0. -1.
        -11    1    5    5    0    0  0.62887236607E+01 -0.31878733665E+01 -0.18682578552E+02  0.19968708602E+02  0.00000000000E+00 0.  1.
          3    1    6    6  503    0 -0.33374552274E+03  0.94173603253E+02 -0.49367213697E+03  0.60329671002E+03  0.00000000000E+00 0. -1.
         -3    1    6    6    0  503  0.30453062360E+01  0.86545122906E+01 -0.34361635612E+01  0.97970247054E+01  0.00000000000E+00 0.  1.
<mgrwt>
<rscale>  0 0.13819763E+04</rscale>
<asrwt>0</asrwt>
<pdfrwt beam="1">  1        1 0.25422598E+00 0.13819763E+04</pdfrwt>
<pdfrwt beam="2">  1       -2 0.44452332E-01 0.13819763E+04</pdfrwt>
<totfact> 0.21126285E+01</totfact>
</mgrwt>
</event>
<event>
12    4  0.4413110E-008  0.1503304E+04  0.7818608E-02  0.8882259E-01
         -2   -1    0    0    0  501 -0.00000000000E+00  0.00000000000E+00  0.30226303663E+03  0.30226303663E+03  0.00000000000E+00 0.  1.
          1   -1    0    0  501    0  0.00000000000E+00 -0.00000000000E+00 -0.18691695335E+04  0.18691695335E+04  0.00000000000E+00 0. -1.
        -24    2    1    2    0    0  0.68942906202E+02  0.43582755227E+03 -0.24310401303E+03  0.51065931391E+03  0.83514035379E+02 0.  0.
        254    2    1    2    0    0 -0.68942906202E+02 -0.43582755227E+03 -0.13238024839E+04  0.16607732562E+04  0.90056427462E+03 0.  0.
         23    2    4    4    0    0  0.84252941450E+02  0.24214752702E+03 -0.56864089469E+03  0.63047934321E+03  0.91748308524E+02 0.  0.
         23    2    4    4    0    0 -0.15319584765E+03 -0.67797507929E+03 -0.75516158917E+03  0.10302939130E+04  0.90096312804E+02 0.  0.
          3    1    3    3  502    0  0.73028730468E+02  0.37501071517E+03 -0.23654182388E+03  0.44935316447E+03  0.00000000000E+00 0. -1.
         -4    1    3    3    0  502 -0.40858242666E+01  0.60816837091E+02 -0.65621891488E+01  0.61306149448E+02  0.00000000000E+00 0.  1.
         11    1    5    5    0    0 -0.62805526304E+01  0.88664882567E+02 -0.25093125011E+03  0.26620931431E+03  0.00000000000E+00 0. -1.
        -11    1    5    5    0    0  0.90533494080E+02  0.15348264445E+03 -0.31770964458E+03  0.36427002891E+03  0.00000000000E+00 0.  1.
          3    1    6    6  503    0 -0.13897863013E+01 -0.17124952413E+03 -0.16595481288E+03  0.23847291447E+03  0.00000000000E+00 0. -1.
         -3    1    6    6    0  503 -0.15180606135E+03 -0.50672555515E+03 -0.58920677629E+03  0.79182099854E+03  0.00000000000E+00 0.  1.
<mgrwt>
<rscale>  0 0.15033042E+04</rscale>
<asrwt>0</asrwt>
<pdfrwt beam="1">  1        1 0.28756454E+00 0.15033042E+04</pdfrwt>
<pdfrwt beam="2">  1       -2 0.46502006E-01 0.15033042E+04</pdfrwt>
<totfact> 0.13612280E+01</totfact>
</mgrwt>
</event>
<event>
12    4  0.4413110E-008  0.1626786E+04  0.7818608E-02  0.8804259E-01
         -2   -1    0    0    0  501 -0.00000000000E+00  0.00000000000E+00  0.12180269196E+04  0.12180269196E+04  0.00000000000E+00 0.  1.
          1   -1    0    0  501    0  0.00000000000E+00 -0.00000000000E+00 -0.54318012117E+03  0.54318012117E+03  0.00000000000E+00 0. -1.
        -24    2    1    2    0    0 -0.31676183880E+03  0.76711163433E+02  0.75992215586E+03  0.83075465238E+03  0.80305319723E+02 0.  0.
        254    2    1    2    0    0  0.31676183880E+03 -0.76711163433E+02 -0.85075357444E+02  0.93045238837E+03  0.86734143535E+03 0.  0.
         23    2    4    4    0    0 -0.28951944011E+03 -0.52116393534E+02  0.17861853550E+02  0.30829430862E+03  0.90491492613E+02 0.  0.
         23    2    4    4    0    0  0.60628127891E+03 -0.24594769899E+02 -0.10293721099E+03  0.62215807976E+03  0.91119234712E+02 0.  0.
          1    1    3    3  502    0 -0.48061294433E+01  0.30892635044E-01 -0.90340884513E+00  0.48903969289E+01  0.00000000000E+00 0. -1.
         -2    1    3    3    0  502 -0.31195570935E+03  0.76680270798E+02  0.76082556470E+03  0.82586425545E+03  0.00000000000E+00 0.  1.
         11    1    5    5    0    0 -0.97380571710E+02 -0.14038287759E+02  0.49074980917E+02  0.10994727383E+03  0.00000000000E+00 0.  1.
        -11    1    5    5    0    0 -0.19213886840E+03 -0.38078105775E+02 -0.31213127367E+02  0.19834703479E+03  0.00000000000E+00 0. -1.
          1    1    6    6  503    0  0.51701916087E+03 -0.14093820019E+02 -0.11932790214E+03  0.53079807526E+03  0.00000000000E+00 0. -1.
         -1    1    6    6    0  503  0.89262118042E+02 -0.10500949880E+02  0.16390691145E+02  0.91360004498E+02  0.00000000000E+00 0.  1.
<mgrwt>
<rscale>  0 0.16267858E+04</rscale>
<asrwt>0</asrwt>
<pdfrwt beam="1">  1        1 0.83566173E-01 0.16267858E+04</pdfrwt>
<pdfrwt beam="2">  1       -2 0.18738876E+00 0.16267858E+04</pdfrwt>
<totfact> 0.53334268E+00</totfact>
</mgrwt>
</event>
<event>
12    4  0.4413110E-008  0.1172723E+04  0.7818608E-02  0.9137073E-01
         -2   -1    0    0    0  501 -0.00000000000E+00  0.00000000000E+00  0.55855112534E+03  0.55855112534E+03  0.00000000000E+00 0.  1.
          1   -1    0    0  501    0  0.00000000000E+00 -0.00000000000E+00 -0.61555624099E+03  0.61555624099E+03  0.00000000000E+00 0. -1.
        -24    2    1    2    0    0 -0.98800433063E+02  0.66012378312E+02 -0.20432394570E+03  0.24937213420E+03  0.79492306960E+02 0.  0.
        254    2    1    2    0    0  0.98800433063E+02 -0.66012378312E+02  0.14731883005E+03  0.92473523212E+03  0.90515924134E+03 0.  0.
         23    2    4    4    0    0  0.11068072822E+03 -0.21192942845E+03  0.48292681967E+03  0.54654051082E+03  0.91235467713E+02 0.  0.
         23    2    4    4    0    0 -0.11880295161E+02  0.14591705014E+03 -0.33560798962E+03  0.37819472131E+03  0.94686839592E+02 0.  0.
          1    1    3    3  502    0 -0.42418114265E+02  0.59043257435E+02 -0.16491970113E+03  0.18023293397E+03  0.00000000000E+00 0. -1.
         -2    1    3    3    0  502 -0.56382318798E+02  0.69691208773E+01 -0.39404244574E+02  0.69139200236E+02  0.00000000000E+00 0.  1.
         11    1    5    5    0    0  0.77327984133E+02 -0.57750142333E+02  0.21412630590E+03  0.23487181812E+03  0.00000000000E+00 0.  1.
        -11    1    5    5    0    0  0.33352744092E+02 -0.15417928612E+03  0.26880051377E+03  0.31166869270E+03  0.00000000000E+00 0. -1.
          2    1    6    6  503    0  0.12392185792E+02 -0.55456360661E+01 -0.64125687554E+01  0.15014705662E+02  0.00000000000E+00 0. -1.
         -2    1    6    6    0  503 -0.24272480954E+02  0.15146268620E+03 -0.32919542087E+03  0.36318001564E+03  0.00000000000E+00 0.  1.
<mgrwt>
<rscale>  0 0.11727227E+04</rscale>
<asrwt>0</asrwt>
<pdfrwt beam="1">  1        1 0.94700960E-01 0.11727227E+04</pdfrwt>
<pdfrwt beam="2">  1       -2 0.85930943E-01 0.11727227E+04</pdfrwt>
<totfact> 0.33671102E+01</totfact>
</mgrwt>
</event>
<event>
12    4  0.4413110E-008  0.1438854E+04  0.7818608E-02  0.8926164E-01
          1   -1    0    0  501    0  0.00000000000E+00  0.00000000000E+00  0.18997874426E+04  0.18997874426E+04  0.00000000000E+00 0. -1.
         -2   -1    0    0    0  501 -0.00000000000E+00 -0.00000000000E+00 -0.27243863604E+03  0.27243863604E+03  0.00000000000E+00 0.  1.
        -24    2    1    2    0    0  0.24588918547E+03  0.11759425723E+03  0.10003151282E+04  0.10398942318E+04  0.80372612175E+02 0.  0.
        254    2    1    2    0    0 -0.24588918547E+03 -0.11759425723E+03  0.62703367843E+03  0.11323318469E+04  0.90261524291E+03 0.  0.
         23    2    4    4    0    0 -0.14503609451E+03  0.12460896830E+03  0.78578735904E+03  0.81402516914E+03  0.92802686780E+02 0.  0.
         23    2    4    4    0    0 -0.10085309096E+03 -0.24220322553E+03 -0.15875368061E+03  0.31830667775E+03  0.85338511693E+02 0.  0.
          1    1    3    3  502    0  0.22886060343E+03  0.11696864381E+03  0.98112159971E+03  0.10142279985E+04  0.00000000000E+00 0. -1.
         -2    1    3    3    0  502  0.17028582040E+02  0.62561341824E+00  0.19193528459E+02  0.25666233326E+02  0.00000000000E+00 0.  1.
         11    1    5    5    0    0 -0.28961398756E+02  0.69547209274E+02  0.18688579436E+03  0.20149907461E+03  0.00000000000E+00 0. -1.
        -11    1    5    5    0    0 -0.11607469575E+03  0.55061759024E+02  0.59890156468E+03  0.61252609453E+03  0.00000000000E+00 0.  1.
          1    1    6    6  503    0 -0.34169346780E+02 -0.93132999450E+02 -0.14200920418E+02  0.10021459967E+03  0.00000000000E+00 0. -1.
         -1    1    6    6    0  503 -0.66683744184E+02 -0.14907022608E+03 -0.14455276020E+03  0.21809207808E+03  0.00000000000E+00 0.  1.
<mgrwt>
<rscale>  0 0.14388544E+04</rscale>
<asrwt>0</asrwt>
<pdfrwt beam="1">  1        1 0.29227498E+00 0.14388544E+04</pdfrwt>
<pdfrwt beam="2">  1       -2 0.41913637E-01 0.14388544E+04</pdfrwt>
<totfact> 0.16051518E+01</totfact>
</mgrwt>
</event>
<event>
12    4  0.4413110E-008  0.2250274E+04  0.7818608E-02  0.8497789E-01
         -2   -1    0    0    0  501 -0.00000000000E+00  0.00000000000E+00  0.58136778323E+03  0.58136778323E+03  0.00000000000E+00 0.  1.
          1   -1    0    0  501    0  0.00000000000E+00 -0.00000000000E+00 -0.21775087110E+04  0.21775087110E+04  0.00000000000E+00 0. -1.
        -24    2    1    2    0    0  0.99758162137E+02  0.83538830618E+03 -0.89719889059E+03  0.12325594819E+04  0.80073179419E+02 0.  0.
        254    2    1    2    0    0 -0.99758162137E+02 -0.83538830618E+03 -0.69894203716E+03  0.15263170123E+04  0.10645648584E+04 0.  0.
         23    2    4    4    0    0 -0.37874635134E+03  0.77902721330E+02 -0.20233354782E+03  0.44598622722E+03  0.91908746339E+02 0.  0.
         23    2    4    4    0    0  0.27898818920E+03 -0.91329102751E+03 -0.49660848934E+03  0.10803307851E+04  0.92518662597E+02 0.  0.
          1    1    3    3  502    0  0.90493962310E+02  0.79701209967E+03 -0.82755080633E+03  0.11525006643E+04  0.00000000000E+00 0. -1.
         -2    1    3    3    0  502  0.92641998275E+01  0.38376206515E+02 -0.69648084262E+02  0.80058817543E+02  0.00000000000E+00 0.  1.
         11    1    5    5    0    0 -0.23455392771E+03  0.15587176529E+02 -0.85181153315E+02  0.25002866627E+03  0.00000000000E+00 0. -1.
        -11    1    5    5    0    0 -0.14419242363E+03  0.62315544801E+02 -0.11715239451E+03  0.19595756095E+03  0.00000000000E+00 0.  1.
          2    1    6    6  503    0  0.27816329023E+03 -0.89864820849E+03 -0.49991397720E+03  0.10652968616E+04  0.00000000000E+00 0. -1.
         -2    1    6    6    0  503  0.82489896936E+00 -0.14642819020E+02  0.33054878645E+01  0.15033923546E+02  0.00000000000E+00 0.  1.
<mgrwt>
<rscale>  0 0.22502741E+04</rscale>
<asrwt>0</asrwt>
<pdfrwt beam="1">  1        1 0.33500133E+00 0.22502741E+04</pdfrwt>
<pdfrwt beam="2">  1       -2 0.89441199E-01 0.22502741E+04</pdfrwt>
<totfact> 0.19296577E+00</totfact>
</mgrwt>
</event>
<event>
12    4  0.4413110E-008  0.1254064E+04  0.7818608E-02  0.9066808E-01
          1   -1    0    0  501    0  0.00000000000E+00  0.00000000000E+00  0.60695165645E+03  0.60695165645E+03  0.00000000000E+00 0. -1.
         -2   -1    0    0    0  501 -0.00000000000E+00 -0.00000000000E+00 -0.64777667407E+03  0.64777667407E+03  0.00000000000E+00 0.  1.
        -24    2    1    2    0    0 -0.17732527370E+03 -0.71471684512E+02  0.21471462222E+03  0.29927160006E+03  0.83118392830E+02 0.  0.
        254    2    1    2    0    0  0.17732527370E+03  0.71471684512E+02 -0.25553963984E+03  0.95545673045E+03  0.90058014738E+03 0.  0.
         23    2    4    4    0    0  0.62276237970E+02 -0.40353533117E+03 -0.62831247413E+02  0.42340105354E+03  0.92744774349E+02 0.  0.
         23    2    4    4    0    0  0.11504903573E+03  0.47500701569E+03 -0.19270839243E+03  0.53205567691E+03  0.84135445854E+02 0.  0.
          1    1    3    3  502    0 -0.55889295160E+02 -0.49834613492E+01  0.11717155308E+03  0.12991389861E+03  0.00000000000E+00 0. -1.
         -2    1    3    3    0  502 -0.12143597854E+03 -0.66488223163E+02  0.97543069144E+02  0.16935770145E+03  0.00000000000E+00 0.  1.
         11    1    5    5    0    0  0.10663934779E+01 -0.14263213742E+03 -0.61706390196E+02  0.15541152599E+03  0.00000000000E+00 0.  1.
        -11    1    5    5    0    0  0.61209844492E+02 -0.26090319375E+03 -0.11248572167E+01  0.26798952755E+03  0.00000000000E+00 0. -1.
          2    1    6    6  503    0  0.54526170216E+02  0.35034925220E+03 -0.16344870240E+03  0.39042692028E+03  0.00000000000E+00 0. -1.
         -2    1    6    6    0  503  0.60522865513E+02  0.12465776348E+03 -0.29259690027E+02  0.14162875664E+03  0.00000000000E+00 0.  1.
<mgrwt>
<rscale>  0 0.12540640E+04</rscale>
<asrwt>0</asrwt>
<pdfrwt beam="1">  1        1 0.93377178E-01 0.12540640E+04</pdfrwt>
<pdfrwt beam="2">  1       -2 0.99657949E-01 0.12540640E+04</pdfrwt>
<totfact> 0.24202261E+01</totfact>
</mgrwt>
</event>
<event>
12    4  0.4413110E-008  0.3268295E+04  0.7818608E-02  0.8171010E-01
          1   -1    0    0  501    0  0.00000000000E+00  0.00000000000E+00  0.22562476093E+04  0.22562476093E+04  0.00000000000E+00 0. -1.
         -2   -1    0    0    0  501 -0.00000000000E+00 -0.00000000000E+00 -0.11835749848E+04  0.11835749848E+04  0.00000000000E+00 0.  1.
        -24    2    1    2    0    0  0.84375400008E+03 -0.12165411781E+04  0.78526435718E+03  0.16779133054E+04  0.82823301898E+02 0.  0.
        254    2    1    2    0    0 -0.84375400008E+03  0.12165411781E+04  0.28740826730E+03  0.17619092886E+04  0.91094872451E+03 0.  0.
         23    2    4    4    0    0 -0.57494229321E+03  0.10643060520E+03  0.11690770515E+03  0.60337780759E+03  0.92256451967E+02 0.  0.
         23    2    4    4    0    0 -0.26881170688E+03  0.11101105729E+04  0.17050056215E+03  0.11585314810E+04  0.92301317207E+02 0.  0.
          3    1    3    3  502    0  0.61024015867E+03 -0.89144620877E+03  0.53146168715E+03  0.12039605140E+04  0.00000000000E+00 0. -1.
         -4    1    3    3    0  502  0.23351384141E+03 -0.32509496928E+03  0.25380267003E+03  0.47395279143E+03  0.00000000000E+00 0.  1.
         11    1    5    5    0    0 -0.41495874296E+03  0.85494605161E+02  0.42818557520E+02  0.42583273094E+03  0.00000000000E+00 0.  1.
        -11    1    5    5    0    0 -0.15998355024E+03  0.20936000043E+02  0.74089147629E+02  0.17754507665E+03  0.00000000000E+00 0. -1.
          1    1    6    6  503    0 -0.13703516280E+03  0.49274833138E+03  0.33347776749E+02  0.51253451409E+03  0.00000000000E+00 0. -1.
         -1    1    6    6    0  503 -0.13177654407E+03  0.61736224148E+03  0.13715278540E+03  0.64599696695E+03  0.00000000000E+00 0.  1.
<mgrwt>
<rscale>  0 0.32682951E+04</rscale>
<asrwt>0</asrwt>
<pdfrwt beam="1">  1        1 0.34711502E+00 0.32682951E+04</pdfrwt>
<pdfrwt beam="2">  1       -2 0.18208846E+00 0.32682951E+04</pdfrwt>
<totfact> 0.25591940E-01</totfact>
</mgrwt>
</event>
<event>
12    4  0.4413110E-008  0.1490352E+04  0.7818608E-02  0.8890894E-01
         -2   -1    0    0    0  501 -0.00000000000E+00  0.00000000000E+00  0.35379659917E+03  0.35379659917E+03  0.00000000000E+00 0.  1.
          1   -1    0    0  501    0  0.00000000000E+00 -0.00000000000E+00 -0.15695101849E+04  0.15695101849E+04  0.00000000000E+00 0. -1.
        -24    2    1    2    0    0  0.43619325550E+03  0.10437710990E+03 -0.26556563833E+03  0.52844625384E+03  0.87012629640E+02 0.  0.
        254    2    1    2    0    0 -0.43619325550E+03 -0.10437710990E+03 -0.95014794738E+03  0.13948605302E+04  0.91743971988E+03 0.  0.
         23    2    4    4    0    0 -0.61533720422E+03 -0.33731992740E+03 -0.59552443247E+03  0.92495369948E+03  0.92007544156E+02 0.  0.
         23    2    4    4    0    0  0.17914394872E+03  0.23294281750E+03 -0.35462351490E+03  0.46990683073E+03  0.93272084039E+02 0.  0.
          3    1    3    3  502    0  0.38990281316E+03  0.80550998032E+02 -0.20252485447E+03  0.44668667282E+03  0.00000000000E+00 0. -1.
         -4    1    3    3    0  502  0.46290442340E+02  0.23826111868E+02 -0.63040783859E+02  0.81759581018E+02  0.00000000000E+00 0.  1.
         11    1    5    5    0    0 -0.53418384277E+03 -0.30460167186E+03 -0.48029816442E+03  0.78026975023E+03  0.00000000000E+00 0.  1.
        -11    1    5    5    0    0 -0.81153361452E+02 -0.32718255541E+02 -0.11522626805E+03  0.14468394925E+03  0.00000000000E+00 0. -1.
          3    1    6    6  503    0  0.25130379113E+02  0.29973245977E+02 -0.10979657815E+03  0.11655565195E+03  0.00000000000E+00 0. -1.
         -3    1    6    6    0  503  0.15401356961E+03  0.20296957152E+03 -0.24482693676E+03  0.35335117878E+03  0.00000000000E+00 0.  1.
<mgrwt>
<rscale>  0 0.14903521E+04</rscale>
<asrwt>0</asrwt>
<pdfrwt beam="1">  1        1 0.24146311E+00 0.14903521E+04</pdfrwt>
<pdfrwt beam="2">  1       -2 0.54430245E-01 0.14903521E+04</pdfrwt>
<totfact> 0.15806665E+01</totfact>
</mgrwt>
</event>
<event>
12    4  0.4413110E-008  0.1870419E+04  0.7818608E-02  0.8669722E-01
         -2   -1    0    0    0  501 -0.00000000000E+00  0.00000000000E+00  0.93996996383E+03  0.93996996383E+03  0.00000000000E+00 0.  1.
          1   -1    0    0  501    0  0.00000000000E+00 -0.00000000000E+00 -0.93047364273E+03  0.93047364273E+03  0.00000000000E+00 0. -1.
        -24    2    1    2    0    0 -0.60667793764E+03 -0.35110052182E+03 -0.75928961286E+02  0.70937575749E+03  0.78224431715E+02 0.  0.
        254    2    1    2    0    0  0.60667793764E+03  0.35110052182E+03  0.85425282383E+02  0.11610678491E+04  0.92165686393E+03 0.  0.
         23    2    4    4    0    0  0.81303257518E+03  0.20961741293E+03 -0.78551547161E+02  0.84818257163E+03  0.91004951201E+02 0.  0.
         23    2    4    4    0    0 -0.20635463754E+03  0.14148310889E+03  0.16397682954E+03  0.31288527744E+03  0.91701088741E+02 0.  0.
          3    1    3    3  502    0 -0.18902442844E+03 -0.10155094406E+03 -0.59060174903E+02  0.22255546061E+03  0.00000000000E+00 0. -1.
         -4    1    3    3    0  502 -0.41765350920E+03 -0.24954957775E+03 -0.16868786383E+02  0.48682029689E+03  0.00000000000E+00 0.  1.
         11    1    5    5    0    0  0.77189236203E+03  0.20544597926E+03 -0.55145177121E+02  0.80066650955E+03  0.00000000000E+00 0.  1.
        -11    1    5    5    0    0  0.41140213152E+02  0.41714336666E+01 -0.23406370039E+02  0.47516062078E+02  0.00000000000E+00 0. -1.
          1    1    6    6  503    0 -0.75618356101E+02  0.13406566643E+02  0.81998310406E+02  0.11234587094E+03  0.00000000000E+00 0. -1.
         -1    1    6    6    0  503 -0.13073628144E+03  0.12807654224E+03  0.81978519137E+02  0.20053940650E+03  0.00000000000E+00 0.  1.
<mgrwt>
<rscale>  0 0.18704195E+04</rscale>
<asrwt>0</asrwt>
<pdfrwt beam="1">  1        1 0.14314979E+00 0.18704195E+04</pdfrwt>
<pdfrwt beam="2">  1       -2 0.14461076E+00 0.18704195E+04</pdfrwt>
<totfact> 0.46613327E+00</totfact>
</mgrwt>
</event>
<event>
12    4  0.4413110E-008  0.1925599E+04  0.7818608E-02  0.8642218E-01
          1   -1    0    0  501    0  0.00000000000E+00  0.00000000000E+00  0.30445756399E+04  0.30445756399E+04  0.00000000000E+00 0. -1.
         -2   -1    0    0    0  501 -0.00000000000E+00 -0.00000000000E+00 -0.30447018614E+03  0.30447018614E+03  0.00000000000E+00 0.  1.
        -24    2    1    2    0    0 -0.38624839050E+03  0.42203642862E+03  0.19031615364E+04  0.19888997989E+04  0.79975060006E+02 0.  0.
        254    2    1    2    0    0  0.38624839050E+03 -0.42203642862E+03  0.83694391742E+03  0.13601460272E+04  0.90676321502E+03 0.  0.
         23    2    4    4    0    0  0.61137479308E+03 -0.36512145740E+03  0.32307105693E+03  0.78727172817E+03  0.91263628462E+02 0.  0.
         23    2    4    4    0    0 -0.22512640258E+03 -0.56914971228E+02  0.51387286048E+03  0.57287429902E+03  0.10098729941E+03 0.  0.
          3    1    3    3  502    0 -0.28418297524E+03  0.34691110776E+03  0.14027479268E+04  0.14726876879E+04  0.00000000000E+00 0. -1.
         -4    1    3    3    0  502 -0.10206541526E+03  0.75125320870E+02  0.50041360962E+03  0.51621211098E+03  0.00000000000E+00 0.  1.
         11    1    5    5    0    0  0.57484429713E+03 -0.34956327791E+03  0.32570561239E+03  0.74747882722E+03  0.00000000000E+00 0. -1.
        -11    1    5    5    0    0  0.36530495954E+02 -0.15558179485E+02 -0.26345554504E+01  0.39792900949E+02  0.00000000000E+00 0.  1.
          3    1    6    6  503    0 -0.10429062463E+03 -0.36668863108E+02  0.35760297149E+03  0.37430071484E+03  0.00000000000E+00 0. -1.
         -3    1    6    6    0  503 -0.12083577796E+03 -0.20246108120E+02  0.15626988899E+03  0.19857358418E+03  0.00000000000E+00 0.  1.
<mgrwt>
<rscale>  0 0.19255986E+04</rscale>
<asrwt>0</asrwt>
<pdfrwt beam="1">  1        1 0.46839623E+00 0.19255986E+04</pdfrwt>
<pdfrwt beam="2">  1       -2 0.46841569E-01 0.19255986E+04</pdfrwt>
<totfact> 0.19695403E+00</totfact>
</mgrwt>
</event>
<event>
12    4  0.4413110E-008  0.1514008E+04  0.7818608E-02  0.8875191E-01
          1   -1    0    0  501    0  0.00000000000E+00  0.00000000000E+00  0.32075255897E+04  0.32075255897E+04  0.00000000000E+00 0. -1.
         -2   -1    0    0    0  501 -0.00000000000E+00 -0.00000000000E+00 -0.17865960910E+03  0.17865960910E+03  0.00000000000E+00 0.  1.
        -24    2    1    2    0    0 -0.41114226899E+02  0.44769009159E+03  0.14697344975E+04  0.15389948183E+04  0.79175499839E+02 0.  0.
        254    2    1    2    0    0  0.41114226899E+02 -0.44769009159E+03  0.15591314831E+04  0.18471903805E+04  0.88266897678E+03 0.  0.
         23    2    4    4    0    0 -0.34557216090E+03 -0.21765227683E+03  0.11786536426E+04  0.12507312138E+04  0.91167581041E+02 0.  0.
         23    2    4    4    0    0  0.38668638780E+03 -0.23003781476E+03  0.38047784048E+03  0.59645916677E+03  0.92500766458E+02 0.  0.
          1    1    3    3  502    0 -0.24814395368E+02  0.26565154334E+03  0.73693219718E+03  0.78374457570E+03  0.00000000000E+00 0. -1.
         -4    1    3    3    0  502 -0.16299831531E+02  0.18203854825E+03  0.73280230034E+03  0.75525024259E+03  0.00000000000E+00 0.  1.
         11    1    5    5    0    0 -0.30356883238E+03 -0.21465688993E+03  0.99195234910E+03  0.10593399262E+04  0.00000000000E+00 0.  1.
        -11    1    5    5    0    0 -0.42003328521E+02 -0.29953868998E+01  0.18670129351E+03  0.19139128754E+03  0.00000000000E+00 0. -1.
          2    1    6    6  503    0  0.30964769166E+03 -0.22379773791E+03  0.31659492575E+03  0.49618491256E+03  0.00000000000E+00 0.  1.
         -2    1    6    6    0  503  0.77038696139E+02 -0.62400768495E+01  0.63882914735E+02  0.10027425421E+03  0.00000000000E+00 0. -1.
<mgrwt>
<rscale>  0 0.15140083E+04</rscale>
<asrwt>0</asrwt>
<pdfrwt beam="1">  1        1 0.49346543E+00 0.15140083E+04</pdfrwt>
<pdfrwt beam="2">  1       -2 0.27486096E-01 0.15140083E+04</pdfrwt>
<totfact> 0.43291238E+00</totfact>
</mgrwt>
</event>
<event>
12    4  0.4413110E-008  0.1452995E+04  0.7818608E-02  0.8916327E-01
          1   -1    0    0  501    0  0.00000000000E+00  0.00000000000E+00  0.25856950214E+04  0.25856950214E+04  0.00000000000E+00 0. -1.
         -2   -1    0    0    0  501 -0.00000000000E+00 -0.00000000000E+00 -0.20412242364E+03  0.20412242364E+03  0.00000000000E+00 0.  1.
        -24    2    1    2    0    0  0.80449497778E+02 -0.15552929428E+03  0.14374016965E+04  0.14501894476E+04  0.79147417989E+02 0.  0.
        254    2    1    2    0    0 -0.80449497778E+02  0.15552929428E+03  0.94417090129E+03  0.13396279975E+04  0.93406798343E+03 0.  0.
         23    2    4    4    0    0 -0.47302753922E+03 -0.65720973357E+02  0.41808212057E+03  0.64092508143E+03  0.88983151517E+02 0.  0.
         23    2    4    4    0    0  0.39257804145E+03  0.22125026764E+03  0.52608878071E+03  0.69870291603E+03  0.91362793991E+02 0.  0.
          1    1    3    3  502    0  0.76077915696E+02 -0.16009235700E+03  0.12314547149E+04  0.12441455409E+04  0.00000000000E+00 0. -1.
         -2    1    3    3    0  502  0.43715820816E+01  0.45630627223E+01  0.20594698157E+03  0.20604390670E+03  0.00000000000E+00 0.  1.
         11    1    5    5    0    0 -0.12060644411E+02 -0.23562393194E+01  0.38567144681E+02  0.40477594496E+02  0.00000000000E+00 0. -1.
        -11    1    5    5    0    0 -0.46096689481E+03 -0.63364734038E+02  0.37951497589E+03  0.60044748693E+03  0.00000000000E+00 0.  1.
          3    1    6    6  503    0  0.42817993014E+01  0.14688133053E+02  0.41754961494E+02  0.44469673568E+02  0.00000000000E+00 0. -1.
         -3    1    6    6    0  503  0.38829624214E+03  0.20656213459E+03  0.48433381922E+03  0.65423324247E+03  0.00000000000E+00 0.  1.
<mgrwt>
<rscale>  0 0.14529946E+04</rscale>
<asrwt>0</asrwt>
<pdfrwt beam="1">  1        1 0.39779921E+00 0.14529946E+04</pdfrwt>
<pdfrwt beam="2">  1       -2 0.31403452E-01 0.14529946E+04</pdfrwt>
<totfact> 0.95091510E+00</totfact>
</mgrwt>
</event>
<event>
12    4  0.4413110E-008  0.1486279E+04  0.7818608E-02  0.8893629E-01
         -2   -1    0    0    0  501 -0.00000000000E+00  0.00000000000E+00  0.41265521768E+03  0.41265521768E+03  0.00000000000E+00 0.  1.
          1   -1    0    0  501    0  0.00000000000E+00 -0.00000000000E+00 -0.13383001307E+04  0.13383001307E+04  0.00000000000E+00 0. -1.
        -24    2    1    2    0    0  0.16538967865E+03 -0.14009487515E+03 -0.72471707541E+03  0.76067787798E+03  0.80222657758E+02 0.  0.
        254    2    1    2    0    0 -0.16538967865E+03  0.14009487515E+03 -0.20092783764E+03  0.99027747043E+03  0.94514398514E+03 0.  0.
         23    2    4    4    0    0  0.31126229395E+02  0.31419084652E+03  0.28228512444E+03  0.43294405148E+03  0.89838355057E+02 0.  0.
         23    2    4    4    0    0 -0.19651590804E+03 -0.17409597137E+03 -0.48321296207E+03  0.55733341894E+03  0.90542055396E+02 0.  0.
          3    1    3    3  502    0  0.31451614082E+02 -0.71508434721E+02 -0.19693427050E+03  0.21186261388E+03  0.00000000000E+00 0. -1.
         -4    1    3    3    0  502  0.13393806456E+03 -0.68586440428E+02 -0.52778280491E+03  0.54881526410E+03  0.00000000000E+00 0.  1.
         11    1    5    5    0    0  0.10379248934E+02 -0.16043586016E+01  0.31719593249E+01  0.10971057420E+02  0.00000000000E+00 0.  1.
        -11    1    5    5    0    0  0.20746980461E+02  0.31579520512E+03  0.27911316511E+03  0.42197299406E+03  0.00000000000E+00 0. -1.
          2    1    6    6  503    0 -0.20236241892E+03 -0.16357228690E+03 -0.42854349718E+03  0.50135413692E+03  0.00000000000E+00 0. -1.
         -2    1    6    6    0  503  0.58465108754E+01 -0.10523684472E+02 -0.54669464890E+02  0.55979282022E+02  0.00000000000E+00 0.  1.
<mgrwt>
<rscale>  0 0.14862793E+04</rscale>
<asrwt>0</asrwt>
<pdfrwt beam="1">  1        1 0.20589233E+00 0.14862793E+04</pdfrwt>
<pdfrwt beam="2">  1       -2 0.63485419E-01 0.14862793E+04</pdfrwt>
<totfact> 0.16572220E+01</totfact>
</mgrwt>
</event>
<event>
12    4  0.4413110E-008  0.1235217E+04  0.7818608E-02  0.9082578E-01
         -2   -1    0    0    0  501 -0.00000000000E+00  0.00000000000E+00  0.10646291282E+04  0.10646291282E+04  0.00000000000E+00 0.  1.
          1   -1    0    0  501    0  0.00000000000E+00 -0.00000000000E+00 -0.35828463468E+03  0.35828463468E+03  0.00000000000E+00 0. -1.
        -24    2    1    2    0    0  0.51629066538E+02  0.26843723939E+03  0.17496708111E+03  0.33115350182E+03  0.65765114579E+02 0.  0.
        254    2    1    2    0    0 -0.51629066538E+02 -0.26843723939E+03  0.53137741242E+03  0.10917602611E+04  0.91370367254E+03 0.  0.
         23    2    4    4    0    0 -0.67955646783E+02  0.20866351121E+03 -0.12946956729E+03  0.27139896153E+03  0.93469763155E+02 0.  0.
         23    2    4    4    0    0  0.16326580244E+02 -0.47710075059E+03  0.66084697972E+03  0.82036129954E+03  0.91554616231E+02 0.  0.
          3    1    3    3  502    0  0.13252889479E+02  0.55360451696E+02  0.74537069633E+01  0.57410595181E+02  0.00000000000E+00 0. -1.
         -4    1    3    3    0  502  0.38376177059E+02  0.21307678769E+03  0.16751337415E+03  0.27374290664E+03  0.00000000000E+00 0.  1.
         11    1    5    5    0    0 -0.21003700397E+02  0.20519338803E+01  0.32965626003E+01  0.21359615820E+02  0.00000000000E+00 0. -1.
        -11    1    5    5    0    0 -0.46951946386E+02  0.20661157733E+03 -0.13276612989E+03  0.25003934571E+03  0.00000000000E+00 0.  1.
          3    1    6    6  503    0 -0.28373287605E+02 -0.59170511455E+02  0.82542629394E+02  0.10544893808E+03  0.00000000000E+00 0. -1.
         -3    1    6    6    0  503  0.44699867849E+02 -0.41793023914E+03  0.57830435032E+03  0.71491236146E+03  0.00000000000E+00 0.  1.
<mgrwt>
<rscale>  0 0.12352170E+04</rscale>
<asrwt>0</asrwt>
<pdfrwt beam="1">  1        1 0.55120713E-01 0.12352170E+04</pdfrwt>
<pdfrwt beam="2">  1       -2 0.16378910E+00 0.12352170E+04</pdfrwt>
<totfact> 0.14129022E+01</totfact>
</mgrwt>
</event>
<event>
12    4  0.4413110E-008  0.1387449E+04  0.7818608E-02  0.8962954E-01
          1   -1    0    0  501    0  0.00000000000E+00  0.00000000000E+00  0.55836299055E+03  0.55836299055E+03  0.00000000000E+00 0. -1.
         -2   -1    0    0    0  501 -0.00000000000E+00 -0.00000000000E+00 -0.86190144148E+03  0.86190144148E+03  0.00000000000E+00 0.  1.
        -24    2    1    2    0    0 -0.37978594589E+03  0.24513406606E+02 -0.25346513993E+03  0.46334880402E+03  0.74895028096E+02 0.  0.
        254    2    1    2    0    0  0.37978594589E+03 -0.24513406606E+02 -0.50073311002E+02  0.95691562800E+03  0.87655114560E+03 0.  0.
         23    2    4    4    0    0  0.63759199188E+03 -0.17232297566E+02  0.90526370651E+02  0.65058198686E+03  0.90782143951E+02 0.  0.
         23    2    4    4    0    0 -0.25780604599E+03 -0.72811090405E+01 -0.14059968165E+03  0.30633364114E+03  0.86919832693E+02 0.  0.
          3    1    3    3  502    0 -0.55630404535E+01  0.10688625513E+02 -0.18515827831E+01  0.12191082530E+02  0.00000000000E+00 0. -1.
         -4    1    3    3    0  502 -0.37422290543E+03  0.13824781093E+02 -0.25161355715E+03  0.45115772149E+03  0.00000000000E+00 0.  1.
         11    1    5    5    0    0  0.45263503762E+03 -0.24839313376E+01  0.23322491782E+02  0.45324230365E+03  0.00000000000E+00 0. -1.
        -11    1    5    5    0    0  0.18495695426E+03 -0.14748366228E+02  0.67203878869E+02  0.19733968321E+03  0.00000000000E+00 0.  1.
          4    1    6    6  503    0  0.11190383510E+01  0.35891294081E+01  0.71087003004E+01  0.80416240089E+01  0.00000000000E+00 0. -1.
         -4    1    6    6    0  503 -0.25892508434E+03 -0.10870238449E+02 -0.14770838195E+03  0.29829201713E+03  0.00000000000E+00 0.  1.
<mgrwt>
<rscale>  0 0.13874493E+04</rscale>
<asrwt>0</asrwt>
<pdfrwt beam="1">  1        1 0.85901999E-01 0.13874493E+04</pdfrwt>
<pdfrwt beam="2">  1       -2 0.13260022E+00 0.13874493E+04</pdfrwt>
<totfact> 0.13382831E+01</totfact>
</mgrwt>
</event>
<event>
12    4  0.4413110E-008  0.1952212E+04  0.7818608E-02  0.8629295E-01
          3   -1    0    0  501    0  0.00000000000E+00  0.00000000000E+00  0.98595284541E+03  0.98595284541E+03  0.00000000000E+00 0. -1.
         -4   -1    0    0    0  501 -0.00000000000E+00 -0.00000000000E+00 -0.96635735411E+03  0.96635735411E+03  0.00000000000E+00 0.  1.
        -24    2    1    2    0    0  0.31435672553E+03  0.29622602881E+03 -0.62705963251E+03  0.76562319806E+03  0.80031791528E+02 0.  0.
        254    2    1    2    0    0 -0.31435672553E+03 -0.29622602881E+03  0.64665512381E+03  0.11866870015E+04  0.89637781056E+03 0.  0.
         23    2    4    4    0    0 -0.17624758241E+03  0.17472115528E+03 -0.10459979019E+03  0.28478359450E+03  0.92573685140E+02 0.  0.
         23    2    4    4    0    0 -0.13810914311E+03 -0.47094718410E+03  0.75125491400E+03  0.90190340696E+03  0.90445696717E+02 0.  0.
          1    1    3    3  502    0  0.14149491480E+03  0.18702669821E+03 -0.32074812541E+03  0.39734010207E+03  0.00000000000E+00 0. -1.
         -2    1    3    3    0  502  0.17286181073E+03  0.10919933060E+03 -0.30631150709E+03  0.36828309599E+03  0.00000000000E+00 0.  1.
         11    1    5    5    0    0 -0.13984024952E+03  0.15840054205E+03 -0.11883670459E+03  0.24242151197E+03  0.00000000000E+00 0. -1.
        -11    1    5    5    0    0 -0.36407332894E+02  0.16320613232E+02  0.14236914404E+02  0.42362082532E+02  0.00000000000E+00 0.  1.
          1    1    6    6  503    0 -0.70297853528E+02 -0.36817860777E+03  0.59039541440E+03  0.69933112384E+03  0.00000000000E+00 0. -1.
         -1    1    6    6    0  503 -0.67811289585E+02 -0.10276857632E+03  0.16085949960E+03  0.20257228311E+03  0.00000000000E+00 0.  1.
<mgrwt>
<rscale>  0 0.19522119E+04</rscale>
<asrwt>0</asrwt>
<pdfrwt beam="1">  1        3 0.15168505E+00 0.19522119E+04</pdfrwt>
<pdfrwt beam="2">  1       -4 0.14867036E+00 0.19522119E+04</pdfrwt>
<totfact> 0.20456015E-01</totfact>
</mgrwt>
</event>
<event>
12    4  0.4413110E-008  0.1330331E+04  0.7818608E-02  0.9005852E-01
          1   -1    0    0  501    0  0.00000000000E+00  0.00000000000E+00  0.32491617001E+03  0.32491617001E+03  0.00000000000E+00 0. -1.
         -2   -1    0    0    0  501 -0.00000000000E+00 -0.00000000000E+00 -0.13617213370E+04  0.13617213370E+04  0.00000000000E+00 0.  1.
        -24    2    1    2    0    0  0.87201776663E+02 -0.14116878923E+03 -0.65620468737E+03  0.68175033716E+03  0.81523944834E+02 0.  0.
        254    2    1    2    0    0 -0.87201776663E+02  0.14116878923E+03 -0.38060047961E+03  0.10048871698E+04  0.91510038910E+03 0.  0.
         23    2    4    4    0    0  0.33696510609E+03 -0.13339355711E+03 -0.31223087487E+03  0.48704469437E+03  0.91570144057E+02 0.  0.
         23    2    4    4    0    0 -0.42416688275E+03  0.27456234635E+03 -0.68369604737E+02  0.51784247548E+03  0.90467674362E+02 0.  0.
          3    1    3    3  502    0  0.93060277981E+02 -0.10865562152E+03 -0.43068197692E+03  0.45382069660E+03  0.00000000000E+00 0. -1.
         -4    1    3    3    0  502 -0.58585013182E+01 -0.32513167716E+02 -0.22552271045E+03  0.22792964055E+03  0.00000000000E+00 0.  1.
         11    1    5    5    0    0  0.25534116652E+03 -0.13776018260E+03 -0.22221652047E+03  0.36545473208E+03  0.00000000000E+00 0. -1.
        -11    1    5    5    0    0  0.81623939571E+02  0.43666254914E+01 -0.90014354407E+02  0.12158996229E+03  0.00000000000E+00 0.  1.
          1    1    6    6  503    0 -0.24873757951E+03  0.19160658814E+03 -0.78088543366E+02  0.32354487893E+03  0.00000000000E+00 0. -1.
         -1    1    6    6    0  503 -0.17542930325E+03  0.82955758211E+02  0.97189386294E+01  0.19429759655E+03  0.00000000000E+00 0.  1.
<mgrwt>
<rscale>  0 0.13303312E+04</rscale>
<asrwt>0</asrwt>
<pdfrwt beam="1">  1        1 0.49987104E-01 0.13303312E+04</pdfrwt>
<pdfrwt beam="2">  1       -2 0.20949559E+00 0.13303312E+04</pdfrwt>
<totfact> 0.77948307E+00</totfact>
</mgrwt>
</event>
<event>
12    4  0.4413110E-008  0.1459936E+04  0.7818608E-02  0.8911541E-01
         -2   -1    0    0    0  501 -0.00000000000E+00  0.00000000000E+00  0.11345436218E+04  0.11345436218E+04  0.00000000000E+00 0.  1.
          1   -1    0    0  501    0  0.00000000000E+00 -0.00000000000E+00 -0.46966302331E+03  0.46966302331E+03  0.00000000000E+00 0. -1.
        -24    2    1    2    0    0 -0.58530715602E+02  0.44463938041E+03  0.20353192626E+03  0.49902237216E+03  0.80424247783E+02 0.  0.
        254    2    1    2    0    0  0.58530715602E+02 -0.44463938041E+03  0.46134867226E+03  0.11051842730E+04  0.89858758981E+03 0.  0.
         23    2    4    4    0    0  0.38873947697E+03 -0.30123803365E+03 -0.16429920427E+02  0.50019131251E+03  0.89770111716E+02 0.  0.
         23    2    4    4    0    0 -0.33020876136E+03 -0.14340134676E+03  0.47777859269E+03  0.60499296047E+03  0.90234839469E+02 0.  0.
          1    1    3    3  502    0 -0.72284620847E+01  0.29762721204E+03  0.15664180567E+03  0.33640877410E+03  0.00000000000E+00 0. -1.
         -2    1    3    3    0  502 -0.51302253517E+02  0.14701216837E+03  0.46890120596E+02  0.16261359806E+03  0.00000000000E+00 0.  1.
         11    1    5    5    0    0  0.62856197854E+02 -0.47489370813E+02  0.30569819285E+02  0.84502401149E+02  0.00000000000E+00 0.  1.
        -11    1    5    5    0    0  0.32588327911E+03 -0.25374866284E+03 -0.46999739712E+02  0.41568891136E+03  0.00000000000E+00 0. -1.
          2    1    6    6  503    0 -0.33185577258E+03 -0.14758099981E+03  0.45705158256E+03  0.58378468156E+03  0.00000000000E+00 0. -1.
         -2    1    6    6    0  503  0.16470112212E+01  0.41796530475E+01  0.20727010127E+02  0.21208278911E+02  0.00000000000E+00 0.  1.
<mgrwt>
<rscale>  0 0.14599359E+04</rscale>
<asrwt>0</asrwt>
<pdfrwt beam="1">  1        1 0.72255850E-01 0.14599359E+04</pdfrwt>
<pdfrwt beam="2">  1       -2 0.17454517E+00 0.14599359E+04</pdfrwt>
<totfact> 0.81048869E+00</totfact>
</mgrwt>
</event>
<event>
12    4  0.4413110E-008  0.1615417E+04  0.7818608E-02  0.8811132E-01
          1   -1    0    0  501    0  0.00000000000E+00  0.00000000000E+00  0.11856432088E+04  0.11856432088E+04  0.00000000000E+00 0. -1.
         -2   -1    0    0    0  501 -0.00000000000E+00 -0.00000000000E+00 -0.55024427219E+03  0.55024427219E+03  0.00000000000E+00 0.  1.
        -24    2    1    2    0    0 -0.45532785946E+03  0.20541230117E+03  0.48881802089E+03  0.70318478880E+03  0.77512041538E+02 0.  0.
        254    2    1    2    0    0  0.45532785946E+03 -0.20541230117E+03  0.14658091574E+03  0.10327026922E+04  0.89189192874E+03 0.  0.
         23    2    4    4    0    0  0.17667987427E+03 -0.66519724899E+02  0.50619111919E+03  0.54811560648E+03  0.92523603205E+02 0.  0.
         23    2    4    4    0    0  0.27864798519E+03 -0.13889257627E+03 -0.35961020345E+03  0.48458708572E+03  0.92570501960E+02 0.  0.
          1    1    3    3  502    0 -0.43352097277E+03  0.19832779327E+03  0.48475579101E+03  0.67989890744E+03  0.00000000000E+00 0. -1.
         -2    1    3    3    0  502 -0.21806886687E+02  0.70845078964E+01  0.40622298741E+01  0.23285881359E+02  0.00000000000E+00 0.  1.
         11    1    5    5    0    0  0.72425551845E+02 -0.76434795459E+02  0.26625959455E+03  0.28632483337E+03  0.00000000000E+00 0.  1.
        -11    1    5    5    0    0  0.10425432242E+03  0.99150705596E+01  0.23993152464E+03  0.26179077311E+03  0.00000000000E+00 0. -1.
          3    1    6    6  503    0  0.52463864090E+02 -0.68421667595E+02 -0.74975965480E+02  0.11426012879E+03  0.00000000000E+00 0. -1.
         -3    1    6    6    0  503  0.22618412110E+03 -0.70470908672E+02 -0.28463423797E+03  0.37032695693E+03  0.00000000000E+00 0.  1.
<mgrwt>
<rscale>  0 0.16154175E+04</rscale>
<asrwt>0</asrwt>
<pdfrwt beam="1">  1        1 0.18240665E+00 0.16154175E+04</pdfrwt>
<pdfrwt beam="2">  1       -2 0.84652965E-01 0.16154175E+04</pdfrwt>
<totfact> 0.11191266E+01</totfact>
</mgrwt>
</event>
<event>
12    4  0.4413110E-008  0.1766433E+04  0.7818608E-02  0.8724357E-01
         -4   -1    0    0    0  501 -0.00000000000E+00  0.00000000000E+00  0.84820365906E+03  0.84820365906E+03  0.00000000000E+00 0.  1.
          1   -1    0    0  501    0  0.00000000000E+00 -0.00000000000E+00 -0.91967456393E+03  0.91967456393E+03  0.00000000000E+00 0. -1.
        -24    2    1    2    0    0 -0.48119180358E+03 -0.64035168252E+02  0.40806255733E+03  0.63936927880E+03  0.81436904268E+02 0.  0.
        254    2    1    2    0    0  0.48119180358E+03  0.64035168252E+02 -0.47953346220E+03  0.11285089442E+04  0.89885151228E+03 0.  0.
         23    2    4    4    0    0  0.67204918091E+03 -0.90169027739E+02 -0.52565070262E+03  0.86248415703E+03  0.88259304606E+02 0.  0.
         23    2    4    4    0    0 -0.19085737733E+03  0.15420419599E+03  0.46117240417E+02  0.26602478715E+03  0.91852680807E+02 0.  0.
          3    1    3    3  502    0 -0.23780858182E+03 -0.72129344721E+02  0.21504967424E+03  0.32863646534E+03  0.00000000000E+00 0. -1.
         -4    1    3    3    0  502 -0.24338322176E+03  0.80941764693E+01  0.19301288308E+03  0.31073281346E+03  0.00000000000E+00 0.  1.
         11    1    5    5    0    0  0.55127083015E+03 -0.76020812328E+02 -0.38570994883E+03  0.67708999158E+03  0.00000000000E+00 0.  1.
        -11    1    5    5    0    0  0.12077835076E+03 -0.14148215411E+02 -0.13994075379E+03  0.18539416545E+03  0.00000000000E+00 0. -1.
          3    1    6    6  503    0 -0.12723454470E+03  0.45932318718E+02  0.36315767509E+02  0.14006156589E+03  0.00000000000E+00 0. -1.
         -3    1    6    6    0  503 -0.63622832625E+02  0.10827187727E+03  0.98014729080E+01  0.12596322126E+03  0.00000000000E+00 0.  1.
<mgrwt>
<rscale>  0 0.17664329E+04</rscale>
<asrwt>0</asrwt>
<pdfrwt beam="1">  1        1 0.14148839E+00 0.17664329E+04</pdfrwt>
<pdfrwt beam="2">  1       -4 0.13049287E+00 0.17664329E+04</pdfrwt>
<totfact> 0.34446191E+00</totfact>
</mgrwt>
</event>
<event>
12    4  0.4413110E-008  0.1606451E+04  0.7818608E-02  0.8816595E-01
         -2   -1    0    0    0  501 -0.00000000000E+00  0.00000000000E+00  0.13940063290E+04  0.13940063290E+04  0.00000000000E+00 0.  1.
          1   -1    0    0  501    0  0.00000000000E+00 -0.00000000000E+00 -0.46281784957E+03  0.46281784957E+03  0.00000000000E+00 0. -1.
        -24    2    1    2    0    0  0.18825019666E+03  0.45174205512E+03  0.60660215184E+03  0.78373855544E+03  0.82285671601E+02 0.  0.
        254    2    1    2    0    0 -0.18825019666E+03 -0.45174205512E+03  0.32458632762E+03  0.10730856232E+04  0.89813554081E+03 0.  0.
         23    2    4    4    0    0 -0.50140288952E+03 -0.12599350246E+03  0.31428425045E+03  0.61181512378E+03  0.90906189682E+02 0.  0.
         23    2    4    4    0    0  0.31315269286E+03 -0.32574855266E+03  0.10302077177E+02  0.46127049939E+03  0.92128237822E+02 0.  0.
          1    1    3    3  502    0  0.11531013289E+03  0.20572102261E+03  0.33922919776E+03  0.41315132155E+03  0.00000000000E+00 0. -1.
         -2    1    3    3    0  502  0.72940063772E+02  0.24602103251E+03  0.26737295409E+03  0.37058723388E+03  0.00000000000E+00 0.  1.
         11    1    5    5    0    0 -0.19125974149E+03 -0.50997444713E+02  0.69983119480E+02  0.20994919646E+03  0.00000000000E+00 0. -1.
        -11    1    5    5    0    0 -0.31014314804E+03 -0.74996057752E+02  0.24430113097E+03  0.40186592733E+03  0.00000000000E+00 0.  1.
          4    1    6    6  503    0  0.13392140501E+03 -0.11078609266E+03  0.44219899113E+02  0.17934296899E+03  0.00000000000E+00 0. -1.
         -4    1    6    6    0  503  0.17923128785E+03 -0.21496245999E+03 -0.33917821937E+02  0.28192753040E+03  0.00000000000E+00 0.  1.
<mgrwt>
<rscale>  0 0.16064508E+04</rscale>
<asrwt>0</asrwt>
<pdfrwt beam="1">  1        1 0.71202746E-01 0.16064508E+04</pdfrwt>
<pdfrwt beam="2">  1       -2 0.21446251E+00 0.16064508E+04</pdfrwt>
<totfact> 0.44278086E+00</totfact>
</mgrwt>
</event>
<event>
12    4  0.4413110E-008  0.2581539E+04  0.7818608E-02  0.8374499E-01
          1   -1    0    0  501    0  0.00000000000E+00  0.00000000000E+00  0.14429196638E+04  0.14429196638E+04  0.00000000000E+00 0. -1.
         -2   -1    0    0    0  501 -0.00000000000E+00 -0.00000000000E+00 -0.11546626221E+04  0.11546626221E+04  0.00000000000E+00 0.  1.
        -24    2    1    2    0    0  0.71709009395E+03  0.36616439524E+03  0.92626049720E+03  0.12299260869E+04  0.80405866856E+02 0.  0.
        254    2    1    2    0    0 -0.71709009395E+03 -0.36616439524E+03 -0.63800345549E+03  0.13676561989E+04  0.90285131784E+03 0.  0.
         23    2    4    4    0    0 -0.51401624583E+03 -0.29912784770E+03  0.85700958060E+02  0.60769766200E+03  0.90893475813E+02 0.  0.
         23    2    4    4    0    0 -0.20307384812E+03 -0.67036547542E+02 -0.72370441355E+03  0.75995853694E+03  0.89755296180E+02 0.  0.
          3    1    3    3  502    0  0.28510472891E+03  0.14046171750E+03  0.42589975941E+03  0.53141773173E+03  0.00000000000E+00 0. -1.
         -4    1    3    3    0  502  0.43198536504E+03  0.22570267774E+03  0.50036073779E+03  0.69850835519E+03  0.00000000000E+00 0.  1.
         11    1    5    5    0    0 -0.18335079901E+03 -0.13304704258E+03  0.70894632424E+02  0.23737118600E+03  0.00000000000E+00 0. -1.
        -11    1    5    5    0    0 -0.33066544682E+03 -0.16608080512E+03  0.14806325636E+02  0.37032647600E+03  0.00000000000E+00 0.  1.
          1    1    6    6  503    0 -0.53964286062E+01 -0.27149944582E+02 -0.56039227817E+02  0.62503087819E+02  0.00000000000E+00 0. -1.
         -1    1    6    6    0  503 -0.19767741952E+03 -0.39886602960E+02 -0.66766518573E+03  0.69745544913E+03  0.00000000000E+00 0.  1.
<mgrwt>
<rscale>  0 0.25815386E+04</rscale>
<asrwt>0</asrwt>
<pdfrwt beam="1">  1        1 0.22198764E+00 0.25815386E+04</pdfrwt>
<pdfrwt beam="2">  1       -2 0.17764040E+00 0.25815386E+04</pdfrwt>
<totfact> 0.10455295E+00</totfact>
</mgrwt>
</event>
<event>
12    4  0.4413110E-008  0.1700926E+04  0.7818608E-02  0.8760836E-01
         -2   -1    0    0    0  501 -0.00000000000E+00  0.00000000000E+00  0.42693390622E+03  0.42693390622E+03  0.00000000000E+00 0.  1.
          1   -1    0    0  501    0  0.00000000000E+00 -0.00000000000E+00 -0.16941434750E+04  0.16941434750E+04  0.00000000000E+00 0. -1.
        -24    2    1    2    0    0  0.51159051983E+03 -0.21564797046E+03 -0.14301051286E+03  0.57884898276E+03  0.79907639857E+02 0.  0.
        254    2    1    2    0    0 -0.51159051983E+03  0.21564797046E+03 -0.11241990559E+04  0.15422283985E+04  0.89800668625E+03 0.  0.
         23    2    4    4    0    0 -0.44910606531E+03  0.82878892264E+02 -0.68996809604E+02  0.47284019465E+03  0.10125275925E+03 0.  0.
         23    2    4    4    0    0 -0.62484454515E+02  0.13276907820E+03 -0.10552022463E+04  0.10693882038E+04  0.92776153416E+02 0.  0.
          1    1    3    3  502    0  0.37711169612E+03 -0.17320062054E+03 -0.13944157484E+03  0.43778492333E+03  0.00000000000E+00 0. -1.
         -2    1    3    3    0  502  0.13447882371E+03 -0.42447349927E+02 -0.35689380136E+01  0.14106405942E+03  0.00000000000E+00 0.  1.
         11    1    5    5    0    0 -0.43324178592E+03  0.81079845069E+02 -0.43697522346E+02  0.44292421452E+03  0.00000000000E+00 0. -1.
        -11    1    5    5    0    0 -0.15864279387E+02  0.17990471946E+01 -0.25299287258E+02  0.29915980128E+02  0.00000000000E+00 0.  1.
          2    1    6    6  503    0 -0.20011082898E+02  0.12937874277E+03 -0.80993355507E+03  0.82044601659E+03  0.00000000000E+00 0. -1.
         -2    1    6    6    0  503 -0.42473371617E+02  0.33903354250E+01 -0.24526869125E+03  0.24894218722E+03  0.00000000000E+00 0.  1.
<mgrwt>
<rscale>  0 0.17009260E+04</rscale>
<asrwt>0</asrwt>
<pdfrwt beam="1">  1        1 0.26063746E+00 0.17009260E+04</pdfrwt>
<pdfrwt beam="2">  1       -2 0.65682139E-01 0.17009260E+04</pdfrwt>
<totfact> 0.85755287E+00</totfact>
</mgrwt>
</event>
<event>
12    4  0.4413110E-008  0.1355448E+04  0.7818608E-02  0.8986714E-01
         -2   -1    0    0    0  501 -0.00000000000E+00  0.00000000000E+00  0.44129483373E+03  0.44129483373E+03  0.00000000000E+00 0.  1.
          1   -1    0    0  501    0  0.00000000000E+00 -0.00000000000E+00 -0.10408235334E+04  0.10408235334E+04  0.00000000000E+00 0. -1.
        -24    2    1    2    0    0  0.17572867813E+03  0.20892816647E+03 -0.47413622874E+03  0.55291096667E+03  0.79836248699E+02 0.  0.
        254    2    1    2    0    0 -0.17572867813E+03 -0.20892816647E+03 -0.12539247089E+03  0.92920740041E+03  0.87930175376E+03 0.  0.
         23    2    4    4    0    0 -0.19174193217E+02 -0.50584436190E+03 -0.23352907930E+03  0.56504761681E+03  0.92178143991E+02 0.  0.
         23    2    4    4    0    0 -0.15655448492E+03  0.29691619543E+03  0.10813660841E+03  0.36415978360E+03  0.90831096308E+02 0.  0.
          1    1    3    3  502    0 -0.42267015509E+01  0.22871145933E+02 -0.62133642030E+02  0.66344131573E+02  0.00000000000E+00 0. -1.
         -2    1    3    3    0  502  0.17995537969E+03  0.18605702053E+03 -0.41200258671E+03  0.48656683510E+03  0.00000000000E+00 0.  1.
         11    1    5    5    0    0 -0.37585138138E+02 -0.44504058147E+03 -0.17841397901E+03  0.48094210636E+03  0.00000000000E+00 0. -1.
        -11    1    5    5    0    0  0.18410944921E+02 -0.60803780425E+02 -0.55115100291E+02  0.84105510444E+02  0.00000000000E+00 0.  1.
          4    1    6    6  503    0  0.39715964574E+01  0.53832571982E+02  0.33198588822E+02  0.63370858321E+02  0.00000000000E+00 0. -1.
         -4    1    6    6    0  503 -0.16052608138E+03  0.24308362345E+03  0.74938019587E+02  0.30078892528E+03  0.00000000000E+00 0.  1.
<mgrwt>
<rscale>  0 0.13554483E+04</rscale>
<asrwt>0</asrwt>
<pdfrwt beam="1">  1        1 0.16012670E+00 0.13554483E+04</pdfrwt>
<pdfrwt beam="2">  1       -2 0.67891512E-01 0.13554483E+04</pdfrwt>
<totfact> 0.23977638E+01</totfact>
</mgrwt>
</event>
<event>
12    4  0.4413110E-008  0.1557309E+04  0.7818608E-02  0.8847213E-01
          1   -1    0    0  501    0  0.00000000000E+00  0.00000000000E+00  0.81018500288E+03  0.81018500288E+03  0.00000000000E+00 0. -1.
         -2   -1    0    0    0  501 -0.00000000000E+00 -0.00000000000E+00 -0.74835061462E+03  0.74835061462E+03  0.00000000000E+00 0.  1.
        -24    2    1    2    0    0 -0.46606373315E+03 -0.60411032851E+02  0.22577260607E+03  0.52767679154E+03  0.81268877414E+02 0.  0.
        254    2    1    2    0    0  0.46606373315E+03  0.60411032851E+02 -0.16393821781E+03  0.10308588260E+04  0.90273433719E+03 0.  0.
         23    2    4    4    0    0 -0.13630201382E+03  0.86427125056E+02 -0.34650629031E+03  0.39245067743E+03  0.88899033044E+02 0.  0.
         23    2    4    4    0    0  0.60236574697E+03 -0.26016092205E+02  0.18256807250E+03  0.63840814852E+03  0.10350136628E+03 0.  0.
          3    1    3    3  502    0 -0.23343298705E+03 -0.53127889358E+02  0.15174347664E+03  0.28344243644E+03  0.00000000000E+00 0. -1.
         -4    1    3    3    0  502 -0.23263074610E+03 -0.72831434924E+01  0.74029129422E+02  0.24423435510E+03  0.00000000000E+00 0.  1.
         11    1    5    5    0    0 -0.35218482867E+02 -0.15597130289E+02 -0.51188013397E+02  0.64061101491E+02  0.00000000000E+00 0. -1.
        -11    1    5    5    0    0 -0.10108353096E+03  0.10202425534E+03 -0.29531827691E+03  0.32838957594E+03  0.00000000000E+00 0.  1.
          1    1    6    6  503    0  0.18343829144E+03  0.35680417428E+02  0.76140700773E+02  0.20179223292E+03  0.00000000000E+00 0. -1.
         -1    1    6    6    0  503  0.41892745554E+03 -0.61696509634E+02  0.10642737173E+03  0.43661591560E+03  0.00000000000E+00 0.  1.
<mgrwt>
<rscale>  0 0.15573085E+04</rscale>
<asrwt>0</asrwt>
<pdfrwt beam="1">  1        1 0.12464385E+00 0.15573085E+04</pdfrwt>
<pdfrwt beam="2">  1       -2 0.11513086E+00 0.15573085E+04</pdfrwt>
<totfact> 0.10743709E+01</totfact>
</mgrwt>
</event>
<event>
12    4  0.4413110E-008  0.1385507E+04  0.7818608E-02  0.8964376E-01
         -2   -1    0    0    0  501 -0.00000000000E+00  0.00000000000E+00  0.69743734378E+03  0.69743734378E+03  0.00000000000E+00 0.  1.
          1   -1    0    0  501    0  0.00000000000E+00 -0.00000000000E+00 -0.68810157028E+03  0.68810157028E+03  0.00000000000E+00 0. -1.
        -24    2    1    2    0    0 -0.32477321879E+02  0.12810807271E+03  0.37245487569E+03  0.40292393625E+03  0.78476807102E+02 0.  0.
        254    2    1    2    0    0  0.32477321879E+02 -0.12810807271E+03 -0.36311910219E+03  0.98261497781E+03  0.90344355524E+03 0.  0.
         23    2    4    4    0    0 -0.69113949878E+02  0.35210582745E+03 -0.30758931409E+03  0.48127971741E+03  0.90905051861E+02 0.  0.
         23    2    4    4    0    0  0.10159127176E+03 -0.48021390016E+03 -0.55529788092E+02  0.50133526040E+03  0.85599705338E+02 0.  0.
          1    1    3    3  502    0  0.18548436966E+02  0.44423548170E+02  0.18776018226E+03  0.19383338770E+03  0.00000000000E+00 0. -1.
         -2    1    3    3    0  502 -0.51025758845E+02  0.83684524538E+02  0.18469469342E+03  0.20909054855E+03  0.00000000000E+00 0.  1.
         11    1    5    5    0    0 -0.77191496133E+02  0.35319319500E+03 -0.29677850489E+03  0.46774078402E+03  0.00000000000E+00 0. -1.
        -11    1    5    5    0    0  0.80775462546E+01 -0.10873675527E+01 -0.10810809204E+02  0.13538933390E+02  0.00000000000E+00 0.  1.
          1    1    6    6  503    0  0.27433028281E+02 -0.26570730826E+03 -0.62229892141E+02  0.27427268216E+03  0.00000000000E+00 0. -1.
         -1    1    6    6    0  503  0.74158243476E+02 -0.21450659189E+03  0.67001040490E+01  0.22706257824E+03  0.00000000000E+00 0.  1.
<mgrwt>
<rscale>  0 0.13855075E+04</rscale>
<asrwt>0</asrwt>
<pdfrwt beam="1">  1        1 0.10586178E+00 0.13855075E+04</pdfrwt>
<pdfrwt beam="2">  1       -2 0.10729805E+00 0.13855075E+04</pdfrwt>
<totfact> 0.16675363E+01</totfact>
</mgrwt>
</event>
<event>
12    4  0.4413110E-008  0.1249146E+04  0.7818608E-02  0.9070894E-01
          1   -1    0    0  501    0  0.00000000000E+00  0.00000000000E+00  0.54371790106E+03  0.54371790106E+03  0.00000000000E+00 0. -1.
         -2   -1    0    0    0  501 -0.00000000000E+00 -0.00000000000E+00 -0.71745207599E+03  0.71745207599E+03  0.00000000000E+00 0.  1.
        -24    2    1    2    0    0  0.15686024610E+03  0.22399621969E+03  0.80116544311E+02  0.29629892361E+03  0.81209286517E+02 0.  0.
        254    2    1    2    0    0 -0.15686024610E+03 -0.22399621969E+03 -0.25385071924E+03  0.96487105344E+03  0.88980701215E+03 0.  0.
         23    2    4    4    0    0 -0.76139958022E+02 -0.53766324309E+03 -0.11042213908E+02  0.55005540330E+03  0.86948030624E+02 0.  0.
         23    2    4    4    0    0 -0.80720288079E+02  0.31366702340E+03 -0.24280850533E+03  0.41481565014E+03  0.90627186129E+02 0.  0.
          3    1    3    3  502    0  0.35062298499E+02  0.10496124158E+03  0.56849886815E+02  0.12441115963E+03  0.00000000000E+00 0. -1.
         -4    1    3    3    0  502  0.12179794760E+03  0.11903497811E+03  0.23266657497E+02  0.17188776398E+03  0.00000000000E+00 0.  1.
         11    1    5    5    0    0 -0.86076219842E+02 -0.32326981480E+03 -0.21084589885E+02  0.33519702969E+03  0.00000000000E+00 0.  1.
        -11    1    5    5    0    0  0.99362618191E+01 -0.21439342829E+03  0.10042375977E+02  0.21485837361E+03  0.00000000000E+00 0. -1.
          3    1    6    6  503    0  0.29962505086E+00  0.81899940543E+02 -0.22480243287E+02  0.84929684883E+02  0.00000000000E+00 0. -1.
         -3    1    6    6    0  503 -0.81019913130E+02  0.23176708286E+03 -0.22032826204E+03  0.32988596526E+03  0.00000000000E+00 0.  1.
<mgrwt>
<rscale>  0 0.12491462E+04</rscale>
<asrwt>0</asrwt>
<pdfrwt beam="1">  1        1 0.83648909E-01 0.12491462E+04</pdfrwt>
<pdfrwt beam="2">  1       -2 0.11037724E+00 0.12491462E+04</pdfrwt>
<totfact> 0.22161030E+01</totfact>
</mgrwt>
</event>
<event>
12    4  0.4413110E-008  0.1270526E+04  0.7818608E-02  0.9053270E-01
          1   -1    0    0  501    0  0.00000000000E+00  0.00000000000E+00  0.41250842901E+04  0.41250842901E+04  0.00000000000E+00 0. -1.
         -2   -1    0    0    0  501 -0.00000000000E+00 -0.00000000000E+00 -0.97830513978E+02  0.97830513978E+02  0.00000000000E+00 0.  1.
        -24    2    1    2    0    0 -0.12971472212E+03  0.53671359322E+02  0.19123737704E+04  0.19191815871E+04  0.79862398735E+02 0.  0.
        254    2    1    2    0    0  0.12971472212E+03 -0.53671359322E+02  0.21148800058E+04  0.23037332170E+04  0.90264210644E+03 0.  0.
         23    2    4    4    0    0 -0.88727343574E+02  0.38661012662E+03  0.82885061556E+03  0.92333194818E+03  0.90601391368E+02 0.  0.
         23    2    4    4    0    0  0.21844206570E+03 -0.44028148594E+03  0.12860293902E+04  0.13804012688E+04  0.10035610354E+03 0.  0.
          3    1    3    3  502    0 -0.43079997186E+02  0.56872868696E+02  0.10641174999E+04  0.10665066633E+04  0.00000000000E+00 0. -1.
         -4    1    3    3    0  502 -0.86634724935E+02 -0.32015093734E+01  0.84825627049E+03  0.85267492379E+03  0.00000000000E+00 0.  1.
         11    1    5    5    0    0  0.33587800420E+01  0.18694500701E+03  0.37590418067E+03  0.41983767112E+03  0.00000000000E+00 0. -1.
        -11    1    5    5    0    0 -0.92086123616E+02  0.19966511961E+03  0.45294643489E+03  0.50349427706E+03  0.00000000000E+00 0.  1.
          1    1    6    6  503    0  0.60986521129E+02 -0.21476087337E+03  0.49806132484E+03  0.54580827384E+03  0.00000000000E+00 0. -1.
         -1    1    6    6    0  503  0.15745554457E+03 -0.22552061257E+03  0.78796806538E+03  0.83459299498E+03  0.00000000000E+00 0.  1.
<mgrwt>
<rscale>  0 0.12705261E+04</rscale>
<asrwt>0</asrwt>
<pdfrwt beam="1">  1        1 0.63462822E+00 0.12705261E+04</pdfrwt>
<pdfrwt beam="2">  1       -2 0.15050851E-01 0.12705261E+04</pdfrwt>
<totfact> 0.23134465E+00</totfact>
</mgrwt>
</event>
<event>
12    4  0.4413110E-008  0.1851259E+04  0.7818608E-02  0.8679506E-01
          1   -1    0    0  501    0  0.00000000000E+00  0.00000000000E+00  0.13887152093E+04  0.13887152093E+04  0.00000000000E+00 0. -1.
         -2   -1    0    0    0  501 -0.00000000000E+00 -0.00000000000E+00 -0.61696589587E+03  0.61696589587E+03  0.00000000000E+00 0.  1.
        -24    2    1    2    0    0 -0.32297274392E+03  0.20955376677E+03 -0.33989111253E+03  0.51945098886E+03  0.77969141148E+02 0.  0.
        254    2    1    2    0    0  0.32297274392E+03 -0.20955376677E+03  0.11116404260E+04  0.14862301164E+04  0.90824630335E+03 0.  0.
         23    2    4    4    0    0  0.43061302800E+03  0.11197914033E+02  0.11363887422E+03  0.45444720454E+03  0.89752408445E+02 0.  0.
         23    2    4    4    0    0 -0.10764028408E+03 -0.22075168080E+03  0.99800155179E+03  0.10317829118E+04  0.90835810170E+02 0.  0.
          1    1    3    3  502    0 -0.41675931845E+02  0.60974598317E+02 -0.77729051281E+02  0.10722215419E+03  0.00000000000E+00 0. -1.
         -2    1    3    3    0  502 -0.28129681207E+03  0.14857916845E+03 -0.26216206124E+03  0.41222883467E+03  0.00000000000E+00 0.  1.
         11    1    5    5    0    0  0.14718291094E+03 -0.37296562603E+02  0.27795161900E+02  0.15435807034E+03  0.00000000000E+00 0. -1.
        -11    1    5    5    0    0  0.28343011706E+03  0.48494476636E+02  0.85843712318E+02  0.30008913420E+03  0.00000000000E+00 0.  1.
          1    1    6    6  503    0 -0.27209746688E+02 -0.53702536921E+01  0.61356003142E+02  0.67333268606E+02  0.00000000000E+00 0. -1.
         -1    1    6    6    0  503 -0.80430537391E+02 -0.21538142711E+03  0.93664554864E+03  0.96444964321E+03  0.00000000000E+00 0.  1.
<mgrwt>
<rscale>  0 0.18512589E+04</rscale>
<asrwt>0</asrwt>
<pdfrwt beam="1">  1        1 0.21364849E+00 0.18512589E+04</pdfrwt>
<pdfrwt beam="2">  1       -2 0.94917830E-01 0.18512589E+04</pdfrwt>
<totfact> 0.60241565E+00</totfact>
</mgrwt>
</event>
<event>
12    4  0.4413110E-008  0.2990930E+04  0.7818608E-02  0.8246326E-01
         -2   -1    0    0    0  501 -0.00000000000E+00  0.00000000000E+00  0.14287323898E+04  0.14287323898E+04  0.00000000000E+00 0.  1.
          1   -1    0    0  501    0  0.00000000000E+00 -0.00000000000E+00 -0.15653145484E+04  0.15653145484E+04  0.00000000000E+00 0. -1.
        -24    2    1    2    0    0  0.29029473605E+03 -0.10774473785E+04 -0.81475598875E+03  0.13835762170E+04  0.72745720573E+02 0.  0.
        254    2    1    2    0    0 -0.29029473605E+03  0.10774473785E+04  0.67817383017E+03  0.16104707211E+04  0.94261991939E+03 0.  0.
         23    2    4    4    0    0 -0.48269191960E+03  0.16810787761E+03  0.32136931192E+03  0.61097525356E+03  0.93599028084E+02 0.  0.
         23    2    4    4    0    0  0.19239718355E+03  0.90933950094E+03  0.35680451825E+03  0.99949546759E+03  0.88129003653E+02 0.  0.
          1    1    3    3  502    0  0.24025328960E+03 -0.88617660616E+03 -0.70366096483E+03  0.11567927100E+04  0.00000000000E+00 0. -1.
         -2    1    3    3    0  502  0.50041446450E+02 -0.19127077238E+03 -0.11109502392E+03  0.22678350705E+03  0.00000000000E+00 0.  1.
         11    1    5    5    0    0 -0.45110794375E+03  0.16380201273E+03  0.32389857427E+03  0.57899893152E+03  0.00000000000E+00 0. -1.
        -11    1    5    5    0    0 -0.31583975851E+02  0.43058648752E+01 -0.25292623556E+01  0.31976322036E+02  0.00000000000E+00 0.  1.
          1    1    6    6  503    0  0.13191771347E+03  0.59051151939E+03  0.18738366465E+03  0.63341832578E+03  0.00000000000E+00 0. -1.
         -1    1    6    6    0  503  0.60479470073E+02  0.31882798155E+03  0.16942085360E+03  0.36607714181E+03  0.00000000000E+00 0.  1.
<mgrwt>
<rscale>  0 0.29909300E+04</rscale>
<asrwt>0</asrwt>
<pdfrwt beam="1">  1        1 0.24081762E+00 0.29909300E+04</pdfrwt>
<pdfrwt beam="2">  1       -2 0.21980498E+00 0.29909300E+04</pdfrwt>
<totfact> 0.43718935E-01</totfact>
</mgrwt>
</event>
<event>
12    4  0.4413110E-008  0.1558287E+04  0.7818608E-02  0.8846592E-01
         -2   -1    0    0    0  501 -0.00000000000E+00  0.00000000000E+00  0.29793034743E+03  0.29793034743E+03  0.00000000000E+00 0.  1.
          1   -1    0    0  501    0  0.00000000000E+00 -0.00000000000E+00 -0.20376053004E+04  0.20376053004E+04  0.00000000000E+00 0. -1.
        -24    2    1    2    0    0  0.14650588410E+03  0.45507778838E+03 -0.85954210492E+03  0.98676561560E+03  0.79586320763E+02 0.  0.
        254    2    1    2    0    0 -0.14650588410E+03 -0.45507778838E+03 -0.88013284809E+03  0.13487700323E+04  0.90331998876E+03 0.  0.
         23    2    4    4    0    0 -0.39478829362E+03 -0.58801425985E+03 -0.52604352749E+03  0.88694519420E+03  0.91276602327E+02 0.  0.
         23    2    4    4    0    0  0.24828240952E+03  0.13293647147E+03 -0.35408932059E+03  0.46182483806E+03  0.92664306884E+02 0.  0.
          3    1    3    3  502    0  0.11470073329E+03  0.42722748819E+03 -0.78163087457E+03  0.89812382719E+03  0.00000000000E+00 0. -1.
         -4    1    3    3    0  502  0.31805150810E+02  0.27850300193E+02 -0.77911230348E+02  0.88641788414E+02  0.00000000000E+00 0.  1.
         11    1    5    5    0    0 -0.15064588753E+03 -0.30617025614E+03 -0.25168692145E+03  0.42400556081E+03  0.00000000000E+00 0. -1.
        -11    1    5    5    0    0 -0.24414240609E+03 -0.28184400371E+03 -0.27435660605E+03  0.46293963339E+03  0.00000000000E+00 0.  1.
          2    1    6    6  503    0  0.29906297665E+02  0.34565177947E+02 -0.11343087844E+03  0.12229350903E+03  0.00000000000E+00 0. -1.
         -2    1    6    6    0  503  0.21837611185E+03  0.98371293523E+02 -0.24065844216E+03  0.33953132904E+03  0.00000000000E+00 0.  1.
<mgrwt>
<rscale>  0 0.15582868E+04</rscale>
<asrwt>0</asrwt>
<pdfrwt beam="1">  1        1 0.31347775E+00 0.15582868E+04</pdfrwt>
<pdfrwt beam="2">  1       -2 0.45835436E-01 0.15582868E+04</pdfrwt>
<totfact> 0.10726281E+01</totfact>
</mgrwt>
</event>
<event>
12    4  0.4413110E-008  0.1265223E+04  0.7818608E-02  0.9057608E-01
         -2   -1    0    0    0  501 -0.00000000000E+00  0.00000000000E+00  0.29206725197E+03  0.29206725197E+03  0.00000000000E+00 0.  1.
          1   -1    0    0  501    0  0.00000000000E+00 -0.00000000000E+00 -0.13702230423E+04  0.13702230423E+04  0.00000000000E+00 0. -1.
        -24    2    1    2    0    0  0.86290757662E+02 -0.26343081810E+03 -0.45815145400E+03  0.54178822735E+03  0.82400471545E+02 0.  0.
        254    2    1    2    0    0 -0.86290757662E+02  0.26343081810E+03 -0.62000433630E+03  0.11205020669E+04  0.89122253904E+03 0.  0.
         23    2    4    4    0    0  0.38164258091E+03  0.18545547848E+03 -0.19117279507E+03  0.47437236330E+03  0.91854817151E+02 0.  0.
         23    2    4    4    0    0 -0.46793333857E+03  0.77975339625E+02 -0.42883154123E+03  0.64612970359E+03  0.92441009134E+02 0.  0.
          1    1    3    3  502    0  0.10000276792E+03 -0.19992494617E+03 -0.36992881422E+03  0.43222432287E+03  0.00000000000E+00 0. -1.
         -2    1    3    3    0  502 -0.13712010256E+02 -0.63505871930E+02 -0.88222639785E+02  0.10956390448E+03  0.00000000000E+00 0.  1.
         11    1    5    5    0    0  0.27082094098E+03  0.13128680410E+03 -0.17959671228E+03  0.35047851013E+03  0.00000000000E+00 0. -1.
        -11    1    5    5    0    0  0.11082163993E+03  0.54168674380E+02 -0.11576082782E+02  0.12389385317E+03  0.00000000000E+00 0.  1.
          2    1    6    6  503    0 -0.12306801298E+03 -0.14684392750E+02 -0.84063330408E+02  0.14975984352E+03  0.00000000000E+00 0. -1.
         -2    1    6    6    0  503 -0.34486532558E+03  0.92659732374E+02 -0.34476821082E+03  0.49636986007E+03  0.00000000000E+00 0.  1.
<mgrwt>
<rscale>  0 0.12652230E+04</rscale>
<asrwt>0</asrwt>
<pdfrwt beam="1">  1        1 0.21080354E+00 0.12652230E+04</pdfrwt>
<pdfrwt beam="2">  1       -2 0.44933423E-01 0.12652230E+04</pdfrwt>
<totfact> 0.32724750E+01</totfact>
</mgrwt>
</event>
<event>
12    4  0.4413110E-008  0.1760228E+04  0.7818608E-02  0.8727741E-01
         -2   -1    0    0    0  501 -0.00000000000E+00  0.00000000000E+00  0.42093451929E+03  0.42093451929E+03  0.00000000000E+00 0.  1.
          1   -1    0    0  501    0  0.00000000000E+00 -0.00000000000E+00 -0.18401920729E+04  0.18401920729E+04  0.00000000000E+00 0. -1.
        -24    2    1    2    0    0 -0.27663786866E+03  0.57215610852E+03 -0.40545884780E+03  0.75813990084E+03  0.80548799418E+02 0.  0.
        254    2    1    2    0    0  0.27663786866E+03 -0.57215610852E+03 -0.10137987058E+04  0.15029866914E+04  0.90955486673E+03 0.  0.
         23    2    4    4    0    0 -0.23682722477E+03  0.16324741786E+02 -0.49304669970E+02  0.25866379407E+03  0.90124227017E+02 0.  0.
         23    2    4    4    0    0  0.51346509343E+03 -0.58848085031E+03 -0.96449403584E+03  0.12443228973E+04  0.90192096020E+02 0.  0.
          3    1    3    3  502    0 -0.10049188557E+03  0.16314597460E+03 -0.16009552803E+03  0.24969142194E+03  0.00000000000E+00 0. -1.
         -4    1    3    3    0  502 -0.17614598309E+03  0.40901013392E+03 -0.24536331977E+03  0.50844847890E+03  0.00000000000E+00 0.  1.
         11    1    5    5    0    0 -0.38976772941E+02  0.13087316253E+02  0.24044315273E+02  0.47629778212E+02  0.00000000000E+00 0. -1.
        -11    1    5    5    0    0 -0.19785045183E+03  0.32374255332E+01 -0.73348985243E+02  0.21103401586E+03  0.00000000000E+00 0.  1.
          3    1    6    6  503    0  0.33492397575E+02 -0.80110540152E+02 -0.11565872634E+03  0.14462496437E+03  0.00000000000E+00 0. -1.
         -3    1    6    6    0  503  0.47997269585E+03 -0.50837031016E+03 -0.84883530950E+03  0.10996979329E+04  0.00000000000E+00 0.  1.
<mgrwt>
<rscale>  0 0.17602277E+04</rscale>
<asrwt>0</asrwt>
<pdfrwt beam="1">  1        1 0.28310647E+00 0.17602277E+04</pdfrwt>
<pdfrwt beam="2">  1       -2 0.64759157E-01 0.17602277E+04</pdfrwt>
<totfact> 0.69981414E+00</totfact>
</mgrwt>
</event>
<event>
12    4  0.4413110E-008  0.2450357E+04  0.7818608E-02  0.8420888E-01
         -2   -1    0    0    0  501 -0.00000000000E+00  0.00000000000E+00  0.13579667821E+04  0.13579667821E+04  0.00000000000E+00 0.  1.
          1   -1    0    0  501    0  0.00000000000E+00 -0.00000000000E+00 -0.11053747166E+04  0.11053747166E+04  0.00000000000E+00 0. -1.
        -24    2    1    2    0    0  0.15309445561E+03 -0.69381157844E+03 -0.67543247170E+03  0.98357169899E+03  0.79949011948E+02 0.  0.
        254    2    1    2    0    0 -0.15309445561E+03  0.69381157844E+03  0.92802453713E+03  0.14797697997E+04  0.90756636118E+03 0.  0.
         23    2    4    4    0    0 -0.47968692307E+03  0.24041993774E+03  0.25809174671E+03  0.60244107077E+03  0.91774742686E+02 0.  0.
         23    2    4    4    0    0  0.32659246747E+03  0.45339164070E+03  0.66993279043E+03  0.87732872896E+03  0.93108191435E+02 0.  0.
          3    1    3    3  502    0  0.14558917231E+03 -0.69093864860E+03 -0.66191049646E+03  0.96784189233E+03  0.00000000000E+00 0. -1.
         -4    1    3    3    0  502  0.75052832954E+01 -0.28729298415E+01 -0.13521975239E+02  0.15729806661E+02  0.00000000000E+00 0.  1.
         11    1    5    5    0    0 -0.17092484897E+03  0.10100064636E+03  0.14288984693E+03  0.24460977682E+03  0.00000000000E+00 0.  1.
        -11    1    5    5    0    0 -0.30876207410E+03  0.13941929138E+03  0.11520189978E+03  0.35783129394E+03  0.00000000000E+00 0. -1.
          3    1    6    6  503    0  0.15672193062E+03  0.26930330737E+03  0.42507407670E+03  0.52704269806E+03  0.00000000000E+00 0. -1.
         -3    1    6    6    0  503  0.16987053685E+03  0.18408833332E+03  0.24485871372E+03  0.35028603090E+03  0.00000000000E+00 0.  1.
<mgrwt>
<rscale>  0 0.24503568E+04</rscale>
<asrwt>0</asrwt>
<pdfrwt beam="1">  1        1 0.17005765E+00 0.24503568E+04</pdfrwt>
<pdfrwt beam="2">  1       -2 0.20891796E+00 0.24503568E+04</pdfrwt>
<totfact> 0.11438950E+00</totfact>
</mgrwt>
</event>
<event>
12    4  0.4413110E-008  0.1345022E+04  0.7818608E-02  0.8994605E-01
          1   -1    0    0  501    0  0.00000000000E+00  0.00000000000E+00  0.39279981199E+04  0.39279981199E+04  0.00000000000E+00 0. -1.
         -2   -1    0    0    0  501 -0.00000000000E+00 -0.00000000000E+00 -0.11514030883E+03  0.11514030883E+03  0.00000000000E+00 0.  1.
        -24    2    1    2    0    0 -0.14376867521E+03 -0.30813325709E+03  0.14153610310E+04  0.14576412181E+04  0.76521477269E+02 0.  0.
        254    2    1    2    0    0  0.14376867521E+03  0.30813325709E+03  0.23974967800E+04  0.25854972106E+04  0.90619505608E+03 0.  0.
         23    2    4    4    0    0  0.40625487268E+03  0.47473354288E+03  0.17686428827E+04  0.18781793680E+04  0.95105906553E+02 0.  0.
         23    2    4    4    0    0 -0.26248619748E+03 -0.16660028579E+03  0.62885389729E+03  0.70731784258E+03  0.90480092887E+02 0.  0.
          1    1    3    3  502    0 -0.44753891881E+02 -0.18577450384E+03  0.76576783889E+03  0.78924993518E+03  0.00000000000E+00 0. -1.
         -2    1    3    3    0  502 -0.99014783325E+02 -0.12235875325E+03  0.64959319214E+03  0.66839128292E+03  0.00000000000E+00 0.  1.
         11    1    5    5    0    0  0.27450318579E+03  0.34157174200E+03  0.13550290416E+04  0.14241232242E+04  0.00000000000E+00 0. -1.
        -11    1    5    5    0    0  0.13175168689E+03  0.13316180088E+03  0.41361384110E+03  0.45405614384E+03  0.00000000000E+00 0.  1.
          3    1    6    6  503    0 -0.15834000937E+03 -0.10634062257E+03  0.28425854738E+03  0.34231974576E+03  0.00000000000E+00 0. -1.
         -3    1    6    6    0  503 -0.10414618810E+03 -0.60259663228E+02  0.34459534991E+03  0.36499809683E+03  0.00000000000E+00 0.  1.
<mgrwt>
<rscale>  0 0.13450218E+04</rscale>
<asrwt>0</asrwt>
<pdfrwt beam="1">  1        1 0.60430730E+00 0.13450218E+04</pdfrwt>
<pdfrwt beam="2">  1       -2 0.17713897E-01 0.13450218E+04</pdfrwt>
<totfact> 0.25809327E+00</totfact>
</mgrwt>
</event>
<event>
12    4  0.4413110E-008  0.1706315E+04  0.7818608E-02  0.8757771E-01
         -2   -1    0    0    0  501 -0.00000000000E+00  0.00000000000E+00  0.31513003520E+03  0.31513003520E+03  0.00000000000E+00 0.  1.
          1   -1    0    0  501    0  0.00000000000E+00 -0.00000000000E+00 -0.23097686710E+04  0.23097686710E+04  0.00000000000E+00 0. -1.
        -24    2    1    2    0    0  0.38457758873E+01 -0.33424736703E+03 -0.15545764790E+04  0.15920630679E+04  0.78871355210E+02 0.  0.
        254    2    1    2    0    0 -0.38457758873E+01  0.33424736703E+03 -0.44006215679E+03  0.10328356383E+04  0.87255868662E+03 0.  0.
         23    2    4    4    0    0  0.41101657918E+03  0.28104818752E+03 -0.24742734011E+03  0.56357996616E+03  0.92083535759E+02 0.  0.
         23    2    4    4    0    0 -0.41486235507E+03  0.53199179516E+02 -0.19263481668E+03  0.46925567216E+03  0.90287246643E+02 0.  0.
          1    1    3    3  502    0  0.21808671525E+02 -0.22739414364E+03 -0.11899329543E+04  0.12116617310E+04  0.00000000000E+00 0. -1.
         -2    1    3    3    0  502 -0.17962895638E+02 -0.10685322339E+03 -0.36464352477E+03  0.38040133691E+03  0.00000000000E+00 0.  1.
         11    1    5    5    0    0  0.31678115696E+03  0.17052170460E+03 -0.19464173800E+03  0.40903955715E+03  0.00000000000E+00 0. -1.
        -11    1    5    5    0    0  0.94235422223E+02  0.11052648291E+03 -0.52785602110E+02  0.15454040901E+03  0.00000000000E+00 0.  1.
          4    1    6    6  503    0 -0.39231184230E+03  0.48003751349E+02 -0.15391885714E+03  0.42415086507E+03  0.00000000000E+00 0. -1.
         -4    1    6    6    0  503 -0.22550512762E+02  0.51954281668E+01 -0.38715959542E+02  0.45104807093E+02  0.00000000000E+00 0.  1.
<mgrwt>
<rscale>  0 0.17063147E+04</rscale>
<asrwt>0</asrwt>
<pdfrwt beam="1">  1        1 0.35534903E+00 0.17063147E+04</pdfrwt>
<pdfrwt beam="2">  1       -2 0.48481544E-01 0.17063147E+04</pdfrwt>
<totfact> 0.61735450E+00</totfact>
</mgrwt>
</event>
<event>
12    4  0.4413110E-008  0.1610455E+04  0.7818608E-02  0.8814151E-01
          1   -1    0    0  501    0  0.00000000000E+00  0.00000000000E+00  0.18287965227E+04  0.18287965227E+04  0.00000000000E+00 0. -1.
         -2   -1    0    0    0  501 -0.00000000000E+00 -0.00000000000E+00 -0.35454516381E+03  0.35454516381E+03  0.00000000000E+00 0.  1.
        -24    2    1    2    0    0 -0.45783048292E+02 -0.73824614160E+02  0.11337970479E+04  0.11399088256E+04  0.79688290281E+02 0.  0.
        254    2    1    2    0    0  0.45783048292E+02  0.73824614160E+02  0.34045431097E+03  0.10434328609E+04  0.98249520925E+03 0.  0.
         23    2    4    4    0    0 -0.28342331178E+03 -0.20947794442E+03 -0.14032105695E+03  0.39012755005E+03  0.91102817884E+02 0.  0.
         23    2    4    4    0    0  0.32920636007E+03  0.28330255858E+03  0.48077536792E+03  0.65330531086E+03  0.83819494094E+02 0.  0.
          3    1    3    3  502    0 -0.60039193692E+02 -0.55122438737E+02  0.10407299310E+04  0.10439166524E+04  0.00000000000E+00 0. -1.
         -2    1    3    3    0  502  0.14256145400E+02 -0.18702175423E+02  0.93067116970E+02  0.95992173162E+02  0.00000000000E+00 0.  1.
         11    1    5    5    0    0 -0.24104885660E+02 -0.53524543810E+02 -0.58486227888E+01  0.58992615566E+02  0.00000000000E+00 0.  1.
        -11    1    5    5    0    0 -0.25931842612E+03 -0.15595340061E+03 -0.13447243417E+03  0.33113493449E+03  0.00000000000E+00 0. -1.
          3    1    6    6  503    0  0.43125782367E+02  0.10732659572E+02  0.73174575619E+02  0.85612742061E+02  0.00000000000E+00 0. -1.
         -3    1    6    6    0  503  0.28608057770E+03  0.27256989901E+03  0.40760079230E+03  0.56769256880E+03  0.00000000000E+00 0.  1.
<mgrwt>
<rscale>  0 0.16104545E+04</rscale>
<asrwt>0</asrwt>
<pdfrwt beam="1">  1        1 0.28135330E+00 0.16104545E+04</pdfrwt>
<pdfrwt beam="2">  1       -2 0.54545411E-01 0.16104545E+04</pdfrwt>
<totfact> 0.10368641E+01</totfact>
</mgrwt>
</event>
<event>
12    4  0.4413110E-008  0.1819801E+04  0.7818608E-02  0.8695840E-01
         -2   -1    0    0    0  501 -0.00000000000E+00  0.00000000000E+00  0.62163228333E+03  0.62163228333E+03  0.00000000000E+00 0.  1.
          1   -1    0    0  501    0  0.00000000000E+00 -0.00000000000E+00 -0.13318462766E+04  0.13318462766E+04  0.00000000000E+00 0. -1.
        -24    2    1    2    0    0 -0.36820320456E+03 -0.30099864079E+03 -0.80189609417E+03  0.93587797539E+03  0.81587115138E+02 0.  0.
        254    2    1    2    0    0  0.36820320456E+03  0.30099864079E+03  0.91682100864E+02  0.10176005846E+04  0.89494779766E+03 0.  0.
         23    2    4    4    0    0 -0.15822844030E+03  0.20519406382E+02  0.32353346939E+03  0.37139035401E+03  0.88315366047E+02 0.  0.
         23    2    4    4    0    0  0.52643164486E+03  0.28047923441E+03 -0.23185136852E+03  0.64621023058E+03  0.89631062535E+02 0.  0.
          3    1    3    3  502    0 -0.36599106039E+03 -0.30588576938E+03 -0.79003461978E+03  0.92285982719E+03  0.00000000000E+00 0. -1.
         -4    1    3    3    0  502 -0.22121441750E+01  0.48871285879E+01 -0.11861474388E+02  0.13018148192E+02  0.00000000000E+00 0.  1.
         11    1    5    5    0    0 -0.16378751885E+03  0.31638536074E+02  0.27817191487E+03  0.32435622781E+03  0.00000000000E+00 0.  1.
        -11    1    5    5    0    0  0.55590785472E+01 -0.11119129693E+02  0.45361554518E+02  0.47034126204E+02  0.00000000000E+00 0. -1.
          2    1    6    6  503    0  0.45022141086E+03  0.27272299033E+03 -0.20788691346E+03  0.56594533043E+03  0.00000000000E+00 0.  1.
         -2    1    6    6    0  503  0.76210234005E+02  0.77562440818E+01 -0.23964455060E+02  0.80264900147E+02  0.00000000000E+00 0. -1.
<mgrwt>
<rscale>  0 0.18198007E+04</rscale>
<asrwt>0</asrwt>
<pdfrwt beam="1">  1        1 0.20489943E+00 0.18198007E+04</pdfrwt>
<pdfrwt beam="2">  1       -2 0.95635736E-01 0.18198007E+04</pdfrwt>
<totfact> 0.65103425E+00</totfact>
</mgrwt>
</event>
<event>
12    4  0.4413110E-008  0.1033236E+04  0.7818608E-02  0.9272825E-01
         -2   -1    0    0    0  501 -0.00000000000E+00  0.00000000000E+00  0.63034101436E+03  0.63034101436E+03  0.00000000000E+00 0.  1.
          1   -1    0    0  501    0  0.00000000000E+00 -0.00000000000E+00 -0.42341192999E+03  0.42341192999E+03  0.00000000000E+00 0. -1.
        -24    2    1    2    0    0 -0.66016634335E+02 -0.44292741457E+02  0.98845295549E+02  0.14781093104E+03  0.75879087555E+02 0.  0.
        254    2    1    2    0    0  0.66016634335E+02  0.44292741457E+02  0.10808378882E+03  0.90594201331E+03  0.89595132855E+03 0.  0.
         23    2    4    4    0    0 -0.35888318560E+02  0.36286568591E+03 -0.21377912686E+03  0.43214734449E+03  0.89946288662E+02 0.  0.
         23    2    4    4    0    0  0.10190495289E+03 -0.31857294446E+03  0.32186291568E+03  0.47379466882E+03  0.94933194150E+02 0.  0.
          3    1    3    3  502    0  0.55248587761E+01  0.55307377326E+01  0.44273522304E+02  0.44958401901E+02  0.00000000000E+00 0. -1.
         -4    1    3    3    0  502 -0.71541493111E+02 -0.49823479190E+02  0.54571773245E+02  0.10285252914E+03  0.00000000000E+00 0.  1.
         11    1    5    5    0    0 -0.65685240184E+02  0.27524800138E+03 -0.16390615505E+03  0.32701871614E+03  0.00000000000E+00 0. -1.
        -11    1    5    5    0    0  0.29796921625E+02  0.87617684530E+02 -0.49872971804E+02  0.10512862834E+03  0.00000000000E+00 0.  1.
          3    1    6    6  503    0  0.99998056697E+02 -0.26608133727E+03  0.22093099826E+03  0.36001304891E+03  0.00000000000E+00 0. -1.
         -3    1    6    6    0  503  0.19068961973E+01 -0.52491607183E+02  0.10093191742E+03  0.11378161992E+03  0.00000000000E+00 0.  1.
<mgrwt>
<rscale>  0 0.10332355E+04</rscale>
<asrwt>0</asrwt>
<pdfrwt beam="1">  1        1 0.65140297E-01 0.10332355E+04</pdfrwt>
<pdfrwt beam="2">  1       -2 0.96975541E-01 0.10332355E+04</pdfrwt>
<totfact> 0.43187496E+01</totfact>
</mgrwt>
</event>
<event>
12    4  0.4413110E-008  0.2399808E+04  0.7818608E-02  0.8439575E-01
         -2   -1    0    0    0  501 -0.00000000000E+00  0.00000000000E+00  0.14122065930E+04  0.14122065930E+04  0.00000000000E+00 0.  1.
          1   -1    0    0  501    0  0.00000000000E+00 -0.00000000000E+00 -0.10195176317E+04  0.10195176317E+04  0.00000000000E+00 0. -1.
        -24    2    1    2    0    0 -0.15917795773E+02  0.92654738832E+03 -0.29795063032E+03  0.97635183674E+03  0.75795065597E+02 0.  0.
        254    2    1    2    0    0  0.15917795773E+02 -0.92654738832E+03  0.69063959161E+03  0.14553723879E+04  0.88452377189E+03 0.  0.
         23    2    4    4    0    0  0.51261568001E+02 -0.25868120009E+03 -0.19580687211E+03  0.34132632796E+03  0.92841905215E+02 0.  0.
         23    2    4    4    0    0 -0.35343772228E+02 -0.66786618823E+03  0.88644646372E+03  0.11140460600E+04  0.89536936957E+02 0.  0.
          3    1    3    3  502    0  0.15143892501E+02  0.18351108733E+03 -0.34217209651E+02  0.18728714342E+03  0.00000000000E+00 0. -1.
         -4    1    3    3    0  502 -0.31061688274E+02  0.74303630099E+03 -0.26373342067E+03  0.78906469332E+03  0.00000000000E+00 0.  1.
         11    1    5    5    0    0 -0.25330091676E+02 -0.37772233746E+02 -0.37744813080E+02  0.59101828237E+02  0.00000000000E+00 0.  1.
        -11    1    5    5    0    0  0.76591659677E+02 -0.22090896634E+03 -0.15806205903E+03  0.28222449973E+03  0.00000000000E+00 0. -1.
          1    1    6    6  503    0 -0.30679664084E+02 -0.66776786248E+03  0.88513986110E+03  0.11092013945E+04  0.00000000000E+00 0. -1.
         -1    1    6    6    0  503 -0.46641081441E+01 -0.98325752295E-01  0.13066026241E+01  0.48446654322E+01  0.00000000000E+00 0.  1.
<mgrwt>
<rscale>  0 0.23998079E+04</rscale>
<asrwt>0</asrwt>
<pdfrwt beam="1">  1        1 0.15684887E+00 0.23998079E+04</pdfrwt>
<pdfrwt beam="2">  1       -2 0.21726255E+00 0.23998079E+04</pdfrwt>
<totfact> 0.11810628E+00</totfact>
</mgrwt>
</event>
<event>
12    4  0.4413110E-008  0.2385442E+04  0.7818608E-02  0.8444974E-01
          1   -1    0    0  501    0  0.00000000000E+00  0.00000000000E+00  0.18596763497E+04  0.18596763497E+04  0.00000000000E+00 0. -1.
         -2   -1    0    0    0  501 -0.00000000000E+00 -0.00000000000E+00 -0.76496262274E+03  0.76496262274E+03  0.00000000000E+00 0.  1.
        -24    2    1    2    0    0 -0.89218059339E+03 -0.59611610027E+02 -0.60812208518E+02  0.89987652593E+03  0.80869536594E+02 0.  0.
        254    2    1    2    0    0  0.89218059339E+03  0.59611610027E+02  0.11555259355E+04  0.17247624465E+04  0.91652907978E+03 0.  0.
         23    2    4    4    0    0  0.77373472656E+03 -0.23143529748E+03  0.11361201818E+04  0.13970121565E+04  0.92984804422E+02 0.  0.
         23    2    4    4    0    0  0.11844586683E+03  0.29104690750E+03  0.19405753696E+02  0.32775029004E+03  0.91136949762E+02 0.  0.
          1    1    3    3  502    0 -0.55165705844E+03 -0.39284682722E+02 -0.76861614730E+02  0.55836950512E+03  0.00000000000E+00 0. -1.
         -2    1    3    3    0  502 -0.34052353494E+03 -0.20326927305E+02  0.16049406212E+02  0.34150702081E+03  0.00000000000E+00 0.  1.
         11    1    5    5    0    0  0.28837067459E+03 -0.40657000019E+02  0.39206563232E+03  0.48839133659E+03  0.00000000000E+00 0.  1.
        -11    1    5    5    0    0  0.48536405198E+03 -0.19077829746E+03  0.74405454949E+03  0.90862081989E+03  0.00000000000E+00 0. -1.
          4    1    6    6  503    0  0.12037184926E+03  0.28773148632E+03  0.40486358282E+01  0.31192175584E+03  0.00000000000E+00 0. -1.
         -4    1    6    6    0  503 -0.19259824332E+01  0.33154211876E+01  0.15357117868E+02  0.15828534208E+02  0.00000000000E+00 0.  1.
<mgrwt>
<rscale>  0 0.23854416E+04</rscale>
<asrwt>0</asrwt>
<pdfrwt beam="1">  1        1 0.28610405E+00 0.23854416E+04</pdfrwt>
<pdfrwt beam="2">  1       -2 0.11768656E+00 0.23854416E+04</pdfrwt>
<totfact> 0.16298470E+00</totfact>
</mgrwt>
</event>
<event>
12    4  0.4413110E-008  0.1839478E+04  0.7818608E-02  0.8685583E-01
          1   -1    0    0  501    0  0.00000000000E+00  0.00000000000E+00  0.22872762165E+04  0.22872762165E+04  0.00000000000E+00 0. -1.
         -2   -1    0    0    0  501 -0.00000000000E+00 -0.00000000000E+00 -0.36983724350E+03  0.36983724350E+03  0.00000000000E+00 0.  1.
        -24    2    1    2    0    0  0.92927512201E+02  0.19277197706E+03  0.16840755152E+04  0.16995216340E+04  0.80416950217E+02 0.  0.
        254    2    1    2    0    0 -0.92927512201E+02 -0.19277197706E+03  0.23336345782E+03  0.95759182602E+03  0.90372951936E+03 0.  0.
         23    2    4    4    0    0  0.16321607587E+03 -0.20043104526E+03  0.50365037782E+03  0.57339266204E+03  0.91122722063E+02 0.  0.
         23    2    4    4    0    0 -0.25614358807E+03  0.76590682016E+01 -0.27028692000E+03  0.38419916399E+03  0.94264412426E+02 0.  0.
          1    1    3    3  502    0  0.42045239313E+02  0.15418841634E+03  0.13472763932E+04  0.13567223554E+04  0.00000000000E+00 0. -1.
         -2    1    3    3    0  502  0.50882272889E+02  0.38583560718E+02  0.33679912202E+03  0.34279927866E+03  0.00000000000E+00 0.  1.
         11    1    5    5    0    0  0.22985238913E+02 -0.91801968604E+02  0.14297597236E+03  0.17145859943E+03  0.00000000000E+00 0.  1.
        -11    1    5    5    0    0  0.14023083695E+03 -0.10862907665E+03  0.36067440546E+03  0.40193406261E+03  0.00000000000E+00 0. -1.
          4    1    6    6  503    0 -0.18627747280E+03  0.48003933855E+02 -0.19138026631E+03  0.27134863344E+03  0.00000000000E+00 0.  1.
         -4    1    6    6    0  503 -0.69866115264E+02 -0.40344865653E+02 -0.78906653691E+02  0.11285053054E+03  0.00000000000E+00 0. -1.
<mgrwt>
<rscale>  0 0.18394781E+04</rscale>
<asrwt>0</asrwt>
<pdfrwt beam="1">  1        1 0.35188864E+00 0.18394781E+04</pdfrwt>
<pdfrwt beam="2">  1       -2 0.56898039E-01 0.18394781E+04</pdfrwt>
<totfact> 0.45444774E+00</totfact>
</mgrwt>
</event>
<event>
12    4  0.4413110E-008  0.1672996E+04  0.7818608E-02  0.8776917E-01
          1   -1    0    0  501    0  0.00000000000E+00  0.00000000000E+00  0.94217231162E+03  0.94217231162E+03  0.00000000000E+00 0. -1.
         -2   -1    0    0    0  501 -0.00000000000E+00 -0.00000000000E+00 -0.74267594692E+03  0.74267594692E+03  0.00000000000E+00 0.  1.
        -24    2    1    2    0    0 -0.54002625892E+03  0.24766477208E+03  0.31553806427E+02  0.60024639104E+03  0.79585724874E+02 0.  0.
        254    2    1    2    0    0  0.54002625892E+03 -0.24766477208E+03  0.16794255827E+03  0.10846018675E+04  0.89173443831E+03 0.  0.
         23    2    4    4    0    0  0.33895043867E+03 -0.52131760008E+02  0.51757106463E+03  0.62717922916E+03  0.88706585277E+02 0.  0.
         23    2    4    4    0    0  0.20107582025E+03 -0.19553301207E+03 -0.34962850637E+03  0.45742263834E+03  0.91272850869E+02 0.  0.
          1    1    3    3  502    0 -0.49437767096E+03  0.24626335042E+03  0.40146741506E+02  0.55377493638E+03  0.00000000000E+00 0. -1.
         -2    1    3    3    0  502 -0.45648587959E+02  0.14014216602E+01 -0.85929350785E+01  0.46471454664E+02  0.00000000000E+00 0.  1.
         11    1    5    5    0    0  0.29522626642E+03 -0.12958258741E+02  0.43322877213E+03  0.52441742330E+03  0.00000000000E+00 0.  1.
        -11    1    5    5    0    0  0.43724172248E+02 -0.39173501267E+02  0.84342292501E+02  0.10276180586E+03  0.00000000000E+00 0. -1.
          1    1    6    6  503    0  0.45381781294E+02 -0.54771234336E+00 -0.50949013179E+02  0.68232015991E+02  0.00000000000E+00 0. -1.
         -1    1    6    6    0  503  0.15569403896E+03 -0.19498529972E+03 -0.29867949319E+03  0.38919062235E+03  0.00000000000E+00 0.  1.
<mgrwt>
<rscale>  0 0.16729958E+04</rscale>
<asrwt>0</asrwt>
<pdfrwt beam="1">  1        1 0.14494959E+00 0.16729958E+04</pdfrwt>
<pdfrwt beam="2">  1       -2 0.11425784E+00 0.16729958E+04</pdfrwt>
<totfact> 0.84206537E+00</totfact>
</mgrwt>
</event>
<event>
12    4  0.4413110E-008  0.1517499E+04  0.7818608E-02  0.8872899E-01
          1   -1    0    0  501    0  0.00000000000E+00  0.00000000000E+00  0.17764919470E+04  0.17764919470E+04  0.00000000000E+00 0. -1.
         -2   -1    0    0    0  501 -0.00000000000E+00 -0.00000000000E+00 -0.32406596257E+03  0.32406596257E+03  0.00000000000E+00 0.  1.
        -24    2    1    2    0    0  0.65222129183E+01  0.20792858563E+03  0.10743014145E+04  0.10970426776E+04  0.78117036458E+02 0.  0.
        254    2    1    2    0    0 -0.65222129183E+01 -0.20792858563E+03  0.37812456991E+03  0.10035152319E+04  0.90597339604E+03 0.  0.
         23    2    4    4    0    0 -0.41630329450E+03 -0.26357159566E+03  0.15337312664E+03  0.52400142886E+03  0.90971217544E+02 0.  0.
         23    2    4    4    0    0  0.40978108158E+03  0.55643010037E+02  0.22475144327E+03  0.47951380306E+03  0.91671133348E+02 0.  0.
          3    1    3    3  502    0  0.25632025149E+02  0.17350162444E+03  0.96630275183E+03  0.98209002774E+03  0.00000000000E+00 0. -1.
         -4    1    3    3    0  502 -0.19109812230E+02  0.34426961187E+02  0.10799866267E+03  0.11495264990E+03  0.00000000000E+00 0.  1.
         11    1    5    5    0    0 -0.22368710092E+03 -0.17676441382E+03  0.52542914149E+02  0.28990056044E+03  0.00000000000E+00 0. -1.
        -11    1    5    5    0    0 -0.19261619357E+03 -0.86807181843E+02  0.10083021249E+03  0.23410086842E+03  0.00000000000E+00 0.  1.
          4    1    6    6  503    0  0.20041911468E+03  0.25192415526E+02  0.16172249898E+03  0.25875982301E+03  0.00000000000E+00 0. -1.
         -4    1    6    6    0  503  0.20936196689E+03  0.30450594510E+02  0.63028944289E+02  0.22075398005E+03  0.00000000000E+00 0.  1.
<mgrwt>
<rscale>  0 0.15174987E+04</rscale>
<asrwt>0</asrwt>
<pdfrwt beam="1">  1        1 0.27330645E+00 0.15174987E+04</pdfrwt>
<pdfrwt beam="2">  1       -2 0.49856303E-01 0.15174987E+04</pdfrwt>
<totfact> 0.13644571E+01</totfact>
</mgrwt>
</event>
<event>
12    4  0.4413110E-008  0.3086887E+04  0.7818608E-02  0.8219346E-01
         -4   -1    0    0    0  501 -0.00000000000E+00  0.00000000000E+00  0.86572353286E+03  0.86572353286E+03  0.00000000000E+00 0.  1.
          1   -1    0    0  501    0  0.00000000000E+00 -0.00000000000E+00 -0.27517074646E+04  0.27517074646E+04  0.00000000000E+00 0. -1.
        -24    2    1    2    0    0 -0.10351616008E+04 -0.73273965933E+03 -0.13452472135E+03  0.12778403429E+04  0.79448682347E+02 0.  0.
        254    2    1    2    0    0  0.10351616008E+04  0.73273965933E+03 -0.17514592104E+04  0.23395906546E+04  0.89308908695E+03 0.  0.
         23    2    4    4    0    0  0.92487751254E+03  0.45309043286E+03 -0.17414517247E+04  0.20252433216E+04  0.90923311574E+02 0.  0.
         23    2    4    4    0    0  0.11028408824E+03  0.27964922646E+03 -0.10007485696E+02  0.31434733300E+03  0.91366438115E+02 0.  0.
          3    1    3    3  502    0 -0.12427225383E+03 -0.83747410604E+02  0.95316760770E+01  0.15016016351E+03  0.00000000000E+00 0. -1.
         -4    1    3    3    0  502 -0.91088934695E+03 -0.64899224872E+03 -0.14405639743E+03  0.11276801794E+04  0.00000000000E+00 0.  1.
         11    1    5    5    0    0  0.81790829136E+03  0.41795000356E+03 -0.15009322505E+04  0.17596743447E+04  0.00000000000E+00 0.  1.
        -11    1    5    5    0    0  0.10696922118E+03  0.35140429307E+02 -0.24051947414E+03  0.26556897691E+03  0.00000000000E+00 0. -1.
          2    1    6    6  503    0  0.11216458956E+03  0.17160188624E+03  0.60517640851E+01  0.20509687067E+03  0.00000000000E+00 0. -1.
         -2    1    6    6    0  503 -0.18805013201E+01  0.10804734023E+03 -0.16059249781E+02  0.10925046233E+03  0.00000000000E+00 0.  1.
<mgrwt>
<rscale>  0 0.30868870E+04</rscale>
<asrwt>0</asrwt>
<pdfrwt beam="1">  1        1 0.42333962E+00 0.30868870E+04</pdfrwt>
<pdfrwt beam="2">  1       -4 0.13318823E+00 0.30868870E+04</pdfrwt>
<totfact> 0.15260508E-01</totfact>
</mgrwt>
</event>
<event>
12    4  0.4413110E-008  0.1914172E+04  0.7818608E-02  0.8647834E-01
         -2   -1    0    0    0  501 -0.00000000000E+00  0.00000000000E+00  0.35539319162E+03  0.35539319162E+03  0.00000000000E+00 0.  1.
          1   -1    0    0  501    0  0.00000000000E+00 -0.00000000000E+00 -0.25774661372E+04  0.25774661372E+04  0.00000000000E+00 0. -1.
        -24    2    1    2    0    0  0.16938253389E+03 -0.70052143324E+03 -0.54430343815E+03  0.90666132839E+03  0.79673147308E+02 0.  0.
        254    2    1    2    0    0 -0.16938253389E+03  0.70052143324E+03 -0.16777695075E+04  0.20261980005E+04  0.87814981391E+03 0.  0.
         23    2    4    4    0    0 -0.24773250209E+03  0.39832165830E+03 -0.20877866233E+03  0.52172415110E+03  0.92606824471E+02 0.  0.
         23    2    4    4    0    0  0.78349968204E+02  0.30219977495E+03 -0.14689908451E+04  0.15044738494E+04  0.89688565752E+02 0.  0.
          1    1    3    3  502    0  0.13957217151E+03 -0.56672202878E+03 -0.47787741090E+03  0.75433485192E+03  0.00000000000E+00 0. -1.
         -2    1    3    3    0  502  0.29810362372E+02 -0.13379940446E+03 -0.66426027244E+02  0.15232647647E+03  0.00000000000E+00 0.  1.
         11    1    5    5    0    0 -0.46380873211E+02  0.68667907899E+02 -0.49342631399E+00  0.82865616782E+02  0.00000000000E+00 0.  1.
        -11    1    5    5    0    0 -0.20135162888E+03  0.32965375040E+03 -0.20828523602E+03  0.43885853432E+03  0.00000000000E+00 0. -1.
          3    1    6    6  503    0  0.31733807121E+01  0.77615145486E+02 -0.22215549716E+03  0.23534495124E+03  0.00000000000E+00 0.  1.
         -3    1    6    6    0  503  0.75176587492E+02  0.22458462946E+03 -0.12468353480E+04  0.12691288981E+04  0.00000000000E+00 0. -1.
<mgrwt>
<rscale>  0 0.19141723E+04</rscale>
<asrwt>0</asrwt>
<pdfrwt beam="1">  1        1 0.39653326E+00 0.19141723E+04</pdfrwt>
<pdfrwt beam="2">  1       -2 0.54675875E-01 0.19141723E+04</pdfrwt>
<totfact> 0.30940339E+00</totfact>
</mgrwt>
</event>
<event>
12    4  0.4413110E-008  0.2060378E+04  0.7818608E-02  0.8578901E-01
         -2   -1    0    0    0  501 -0.00000000000E+00  0.00000000000E+00  0.12396859957E+04  0.12396859957E+04  0.00000000000E+00 0.  1.
          1   -1    0    0  501    0  0.00000000000E+00 -0.00000000000E+00 -0.85609491848E+03  0.85609491848E+03  0.00000000000E+00 0. -1.
        -24    2    1    2    0    0 -0.31812271320E+03  0.59589035187E+02  0.93557771580E+03  0.99325091115E+03  0.80553066014E+02 0.  0.
        254    2    1    2    0    0  0.31812271320E+03 -0.59589035187E+02 -0.55198663860E+03  0.11025300030E+04  0.89784756199E+03 0.  0.
         23    2    4    4    0    0  0.23170356830E+02 -0.44240214354E+03 -0.19070518318E+03  0.49220844313E+03  0.98204697197E+02 0.  0.
         23    2    4    4    0    0  0.29495235637E+03  0.38281310835E+03 -0.36128145542E+03  0.61032155988E+03  0.91789694211E+02 0.  0.
          3    1    3    3  502    0 -0.33496097557E+02  0.23802941690E+02  0.18993134921E+03  0.19432572140E+03  0.00000000000E+00 0. -1.
         -4    1    3    3    0  502 -0.28462661565E+03  0.35786093498E+02  0.74564636659E+03  0.79892518976E+03  0.00000000000E+00 0.  1.
         11    1    5    5    0    0 -0.18100306068E+02 -0.12671439522E+03 -0.15850625857E+02  0.12897829808E+03  0.00000000000E+00 0. -1.
        -11    1    5    5    0    0  0.41270662897E+02 -0.31568774832E+03 -0.17485455733E+03  0.36323014505E+03  0.00000000000E+00 0.  1.
          3    1    6    6  503    0  0.35345257191E+02  0.65922993564E+02 -0.20779243697E+02  0.77633145337E+02  0.00000000000E+00 0.  1.
         -3    1    6    6    0  503  0.25960709918E+03  0.31689011479E+03 -0.34050221172E+03  0.53268841454E+03  0.00000000000E+00 0. -1.
<mgrwt>
<rscale>  0 0.20603775E+04</rscale>
<asrwt>0</asrwt>
<pdfrwt beam="1">  1        1 0.13170691E+00 0.20603775E+04</pdfrwt>
<pdfrwt beam="2">  1       -2 0.19072092E+00 0.20603775E+04</pdfrwt>
<totfact> 0.24526389E+00</totfact>
</mgrwt>
</event>
<event>
12    4  0.4413110E-008  0.1305052E+04  0.7818608E-02  0.9025568E-01
          1   -1    0    0  501    0  0.00000000000E+00  0.00000000000E+00  0.81601480326E+03  0.81601480326E+03  0.00000000000E+00 0. -1.
         -2   -1    0    0    0  501 -0.00000000000E+00 -0.00000000000E+00 -0.52179228229E+03  0.52179228229E+03  0.00000000000E+00 0.  1.
        -24    2    1    2    0    0 -0.27157916145E+03 -0.15952192902E+03  0.19018329539E+03  0.37645852122E+03  0.79679643449E+02 0.  0.
        254    2    1    2    0    0  0.27157916145E+03  0.15952192902E+03  0.10403922559E+03  0.96134856433E+03  0.90231059781E+03 0.  0.
         23    2    4    4    0    0 -0.25108629183E+03 -0.14952427929E+01 -0.19627629917E+03  0.33088727635E+03  0.88968771670E+02 0.  0.
         23    2    4    4    0    0  0.52266545329E+03  0.16101717181E+03  0.30031552476E+03  0.63046128799E+03  0.90478260168E+02 0.  0.
          3    1    3    3  502    0 -0.74684911878E+02 -0.45752502633E+02  0.13788834446E+02  0.88663744083E+02  0.00000000000E+00 0. -1.
         -4    1    3    3    0  502 -0.19689424958E+03 -0.11376942639E+03  0.17639446094E+03  0.28779477714E+03  0.00000000000E+00 0.  1.
         11    1    5    5    0    0 -0.23733002686E+03 -0.24792396930E+02 -0.18320792473E+03  0.30084106814E+03  0.00000000000E+00 0.  1.
        -11    1    5    5    0    0 -0.13756264969E+02  0.23297154137E+02 -0.13068374443E+02  0.30046208203E+02  0.00000000000E+00 0. -1.
          4    1    6    6  503    0  0.22538527805E+03  0.10259775765E+03  0.98923249079E+02  0.26666576954E+03  0.00000000000E+00 0. -1.
         -4    1    6    6    0  503  0.29728017524E+03  0.58419414168E+02  0.20139227568E+03  0.36379551845E+03  0.00000000000E+00 0.  1.
<mgrwt>
<rscale>  0 0.13050521E+04</rscale>
<asrwt>0</asrwt>
<pdfrwt beam="1">  1        1 0.12554074E+00 0.13050521E+04</pdfrwt>
<pdfrwt beam="2">  1       -2 0.80275735E-01 0.13050521E+04</pdfrwt>
<totfact> 0.25277701E+01</totfact>
</mgrwt>
</event>
<event>
12    4  0.4413110E-008  0.1793878E+04  0.7818608E-02  0.8709562E-01
          1   -1    0    0  501    0  0.00000000000E+00  0.00000000000E+00  0.27325957778E+04  0.27325957778E+04  0.00000000000E+00 0. -1.
         -2   -1    0    0    0  501 -0.00000000000E+00 -0.00000000000E+00 -0.29440846137E+03  0.29440846137E+03  0.00000000000E+00 0.  1.
        -24    2    1    2    0    0 -0.39725318729E+03 -0.35603991954E+03  0.16735387774E+04  0.17583189493E+04  0.79868448832E+02 0.  0.
        254    2    1    2    0    0  0.39725318729E+03  0.35603991954E+03  0.76464853905E+03  0.12686852898E+04  0.86040714620E+03 0.  0.
         23    2    4    4    0    0  0.62252664284E+03  0.18930775104E+03  0.71268216885E+03  0.96941080192E+03  0.92003170729E+02 0.  0.
         23    2    4    4    0    0 -0.22527345555E+03  0.16673216850E+03  0.51966370194E+02  0.29927448791E+03  0.91197421547E+02 0.  0.
          1    1    3    3  502    0 -0.22151982270E+03 -0.22008765351E+03  0.85803416614E+03  0.91308939176E+03  0.00000000000E+00 0. -1.
         -2    1    3    3    0  502 -0.17573336459E+03 -0.13595226603E+03  0.81550461123E+03  0.84522955758E+03  0.00000000000E+00 0.  1.
         11    1    5    5    0    0  0.35272292633E+03  0.70930550353E+02  0.43545600481E+03  0.56485975061E+03  0.00000000000E+00 0. -1.
        -11    1    5    5    0    0  0.26980371651E+03  0.11837720069E+03  0.27722616404E+03  0.40455105131E+03  0.00000000000E+00 0.  1.
          1    1    6    6  503    0 -0.18030035794E+03  0.10796655799E+03  0.23270257675E+01  0.21016758020E+03  0.00000000000E+00 0. -1.
         -1    1    6    6    0  503 -0.44973097604E+02  0.58765610507E+02  0.49639344427E+02  0.89106907709E+02  0.00000000000E+00 0.  1.
<mgrwt>
<rscale>  0 0.17938777E+04</rscale>
<asrwt>0</asrwt>
<pdfrwt beam="1">  1        1 0.42039933E+00 0.17938777E+04</pdfrwt>
<pdfrwt beam="2">  1       -2 0.45293611E-01 0.17938777E+04</pdfrwt>
<totfact> 0.35741184E+00</totfact>
</mgrwt>
</event>
<event>
12    4  0.4413110E-008  0.1593315E+04  0.7818608E-02  0.8824665E-01
          1   -1    0    0  501    0  0.00000000000E+00  0.00000000000E+00  0.75447591937E+03  0.75447591937E+03  0.00000000000E+00 0. -1.
         -2   -1    0    0    0  501 -0.00000000000E+00 -0.00000000000E+00 -0.84119782693E+03  0.84119782693E+03  0.00000000000E+00 0.  1.
        -24    2    1    2    0    0 -0.48673298745E+03 -0.14306382179E+03 -0.21553231007E+03  0.55691900138E+03  0.79550859402E+02 0.  0.
        254    2    1    2    0    0  0.48673298745E+03  0.14306382179E+03  0.12881040251E+03  0.10387547449E+04  0.89724190837E+03 0.  0.
         23    2    4    4    0    0 -0.13371075897E+03 -0.19242109836E+03  0.20323319744E+03  0.32331688292E+03  0.91244879722E+02 0.  0.
         23    2    4    4    0    0  0.62044374643E+03  0.33548492016E+03 -0.74422794935E+02  0.71543786201E+03  0.93872295472E+02 0.  0.
          3    1    3    3  502    0 -0.13820118258E+03 -0.33119209990E+02 -0.99483946213E+02  0.17347479498E+03  0.00000000000E+00 0. -1.
         -4    1    3    3    0  502 -0.34853180487E+03 -0.10994461180E+03 -0.11604836386E+03  0.38344420640E+03  0.00000000000E+00 0.  1.
         11    1    5    5    0    0 -0.39089035985E+02 -0.49909595072E+02  0.82482657506E+01  0.63929291427E+02  0.00000000000E+00 0.  1.
        -11    1    5    5    0    0 -0.94621722989E+02 -0.14251150329E+03  0.19498493169E+03  0.25938759149E+03  0.00000000000E+00 0. -1.
          1    1    6    6  503    0  0.57499562603E+03  0.27971931628E+03 -0.61856957558E+02  0.64240886439E+03  0.00000000000E+00 0. -1.
         -1    1    6    6    0  503  0.45448120393E+02  0.55765603880E+02 -0.12565837377E+02  0.73028997613E+02  0.00000000000E+00 0.  1.
<mgrwt>
<rscale>  0 0.15933154E+04</rscale>
<asrwt>0</asrwt>
<pdfrwt beam="1">  1        1 0.11607322E+00 0.15933154E+04</pdfrwt>
<pdfrwt beam="2">  1       -2 0.12941505E+00 0.15933154E+04</pdfrwt>
<totfact> 0.89605497E+00</totfact>
</mgrwt>
</event>
<event>
12    4  0.4413110E-008  0.1456820E+04  0.7818608E-02  0.8913686E-01
          1   -1    0    0  501    0  0.00000000000E+00  0.00000000000E+00  0.26399449287E+04  0.26399449287E+04  0.00000000000E+00 0. -1.
         -2   -1    0    0    0  501 -0.00000000000E+00 -0.00000000000E+00 -0.20098191119E+03  0.20098191119E+03  0.00000000000E+00 0.  1.
        -24    2    1    2    0    0  0.29397527043E+03 -0.16017406425E+03  0.18296031031E+03  0.38955088170E+03  0.78728799079E+02 0.  0.
        254    2    1    2    0    0 -0.29397527043E+03  0.16017406425E+03  0.22560027072E+04  0.24513759582E+04  0.89867607238E+03 0.  0.
         23    2    4    4    0    0  0.25590497575E+03 -0.14418031312E+03  0.53602386774E+03  0.61789088635E+03  0.90511001220E+02 0.  0.
         23    2    4    4    0    0 -0.54988024618E+03  0.30435437737E+03  0.17199788395E+04  0.18334850719E+04  0.91325945588E+02 0.  0.
          1    1    3    3  502    0  0.12291560351E+03 -0.10954329770E+03  0.10167915813E+03  0.19351131971E+03  0.00000000000E+00 0. -1.
         -2    1    3    3    0  502  0.17105966691E+03 -0.50630766550E+02  0.81281152182E+02  0.19603956199E+03  0.00000000000E+00 0.  1.
         11    1    5    5    0    0  0.77754778753E+02 -0.34508375527E+02  0.24596578476E+03  0.26026102449E+03  0.00000000000E+00 0. -1.
        -11    1    5    5    0    0  0.17815019700E+03 -0.10967193759E+03  0.29005808298E+03  0.35762986185E+03  0.00000000000E+00 0.  1.
          1    1    6    6  503    0 -0.23850765152E+03  0.15175343648E+03  0.65270583415E+03  0.71129453200E+03  0.00000000000E+00 0. -1.
         -1    1    6    6    0  503 -0.31137259466E+03  0.15260094089E+03  0.10672730054E+04  0.11221905399E+04  0.00000000000E+00 0.  1.
<mgrwt>
<rscale>  0 0.14568201E+04</rscale>
<asrwt>0</asrwt>
<pdfrwt beam="1">  1        1 0.40614535E+00 0.14568201E+04</pdfrwt>
<pdfrwt beam="2">  1       -2 0.30920296E-01 0.14568201E+04</pdfrwt>
<totfact> 0.89701848E+00</totfact>
</mgrwt>
</event>
<event>
12    4  0.4413110E-008  0.1343508E+04  0.7818608E-02  0.8995757E-01
         -2   -1    0    0    0  501 -0.00000000000E+00  0.00000000000E+00  0.51323596617E+03  0.51323596617E+03  0.00000000000E+00 0.  1.
          1   -1    0    0  501    0  0.00000000000E+00 -0.00000000000E+00 -0.87923161729E+03  0.87923161729E+03  0.00000000000E+00 0. -1.
        -24    2    1    2    0    0  0.84280512844E+02  0.33538668094E+03  0.97308328900E+01  0.35509837616E+03  0.80079566977E+02 0.  0.
        254    2    1    2    0    0 -0.84280512844E+02 -0.33538668094E+03 -0.37572648401E+03  0.10373692073E+04  0.90298230928E+03 0.  0.
         23    2    4    4    0    0 -0.44777383720E+03  0.87459906154E+01 -0.14770119265E+03  0.48054617255E+03  0.92363845786E+02 0.  0.
         23    2    4    4    0    0  0.36349332436E+03 -0.34413267155E+03 -0.22802529135E+03  0.55682303475E+03  0.86612158745E+02 0.  0.
          3    1    3    3  502    0  0.82702428737E+02  0.33186613521E+03  0.21521771024E+02  0.34269229645E+03  0.00000000000E+00 0. -1.
         -4    1    3    3    0  502  0.15780841070E+01  0.35205457268E+01 -0.11790938134E+02  0.12406079709E+02  0.00000000000E+00 0.  1.
         11    1    5    5    0    0 -0.18946047311E+03 -0.41575653247E+02 -0.68690295318E+02  0.20577211299E+03  0.00000000000E+00 0.  1.
        -11    1    5    5    0    0 -0.25831336410E+03  0.50321643863E+02 -0.79010897336E+02  0.27477405957E+03  0.00000000000E+00 0. -1.
          3    1    6    6  503    0  0.24751931897E+03 -0.27729991655E+03 -0.14305818517E+03  0.39827967727E+03  0.00000000000E+00 0. -1.
         -3    1    6    6    0  503  0.11597400539E+03 -0.66832755009E+02 -0.84967106179E+02  0.15854335748E+03  0.00000000000E+00 0.  1.
<mgrwt>
<rscale>  0 0.13435078E+04</rscale>
<asrwt>0</asrwt>
<pdfrwt beam="1">  1        1 0.13526640E+00 0.13435078E+04</pdfrwt>
<pdfrwt beam="2">  1       -2 0.78959379E-01 0.13435078E+04</pdfrwt>
<totfact> 0.23130378E+01</totfact>
</mgrwt>
</event>
<event>
12    4  0.4413110E-008  0.1960728E+04  0.7818608E-02  0.8625205E-01
          1   -1    0    0  501    0  0.00000000000E+00  0.00000000000E+00  0.10575154324E+04  0.10575154324E+04  0.00000000000E+00 0. -1.
         -2   -1    0    0    0  501 -0.00000000000E+00 -0.00000000000E+00 -0.90884162693E+03  0.90884162693E+03  0.00000000000E+00 0.  1.
        -24    2    1    2    0    0 -0.74202490661E+03 -0.77554184409E+02  0.25027208326E+03  0.79109171246E+03  0.81082478488E+02 0.  0.
        254    2    1    2    0    0  0.74202490661E+03  0.77554184409E+02 -0.10159827783E+03  0.11752653468E+04  0.90239171751E+03 0.  0.
         23    2    4    4    0    0  0.74133226924E+03  0.55444510589E+02  0.26646289164E+03  0.79505831680E+03  0.92019711630E+02 0.  0.
         23    2    4    4    0    0  0.69263737376E+00  0.22109673819E+02 -0.36806116947E+03  0.38020703002E+03  0.92731029206E+02 0.  0.
          3    1    3    3  502    0 -0.73171952196E+03 -0.69229889284E+02  0.25346609520E+03  0.77746466016E+03  0.00000000000E+00 0. -1.
         -4    1    3    3    0  502 -0.10305384649E+02 -0.83242951246E+01 -0.31940119368E+01  0.13627052298E+02  0.00000000000E+00 0.  1.
         11    1    5    5    0    0  0.50921518947E+03  0.80604501042E+02  0.18740656352E+03  0.54856031102E+03  0.00000000000E+00 0. -1.
        -11    1    5    5    0    0  0.23211707976E+03 -0.25159990452E+02  0.79056328123E+02  0.24649800578E+03  0.00000000000E+00 0.  1.
          1    1    6    6  503    0 -0.29342984088E+01 -0.34221628190E+02 -0.19977196660E+03  0.20270315386E+03  0.00000000000E+00 0. -1.
         -1    1    6    6    0  503  0.36269357826E+01  0.56331302010E+02 -0.16828920287E+03  0.17750387616E+03  0.00000000000E+00 0.  1.
<mgrwt>
<rscale>  0 0.19607285E+04</rscale>
<asrwt>0</asrwt>
<pdfrwt beam="1">  1        1 0.16269468E+00 0.19607285E+04</pdfrwt>
<pdfrwt beam="2">  1       -2 0.13982179E+00 0.19607285E+04</pdfrwt>
<totfact> 0.40161598E+00</totfact>
</mgrwt>
</event>
<event>
12    4  0.4413110E-008  0.2036366E+04  0.7818608E-02  0.8589804E-01
          1   -1    0    0  501    0  0.00000000000E+00  0.00000000000E+00  0.10622209184E+04  0.10622209184E+04  0.00000000000E+00 0. -1.
         -2   -1    0    0    0  501 -0.00000000000E+00 -0.00000000000E+00 -0.97597112411E+03  0.97597112411E+03  0.00000000000E+00 0.  1.
        -24    2    1    2    0    0  0.54050735694E+03  0.80218139851E+00  0.64250850344E+03  0.84569041642E+03  0.10112495754E+03 0.  0.
        254    2    1    2    0    0 -0.54050735694E+03 -0.80218139851E+00 -0.55625870912E+03  0.11925016261E+04  0.90580766745E+03 0.  0.
         23    2    4    4    0    0 -0.45657329244E+02  0.34947841655E+03 -0.43406339914E+03  0.56739069146E+03  0.96443801946E+02 0.  0.
         23    2    4    4    0    0 -0.49485002770E+03 -0.35028059795E+03 -0.12219530999E+03  0.62511093466E+03  0.90878708374E+02 0.  0.
          3    1    3    3  502    0  0.39219349460E+03 -0.33438105262E+02  0.50729984632E+03  0.64209577025E+03  0.00000000000E+00 0. -1.
         -4    1    3    3    0  502  0.14831386234E+03  0.34240286660E+02  0.13520865711E+03  0.20359464617E+03  0.00000000000E+00 0.  1.
         11    1    5    5    0    0  0.15469102429E+02  0.72860799958E+01 -0.13629776352E+02  0.21866661727E+02  0.00000000000E+00 0.  1.
        -11    1    5    5    0    0 -0.61126431673E+02  0.34219233656E+03 -0.42043362278E+03  0.54552402973E+03  0.00000000000E+00 0. -1.
          2    1    6    6  503    0 -0.47191001409E+03 -0.32604094287E+03 -0.93623359914E+02  0.58117733210E+03  0.00000000000E+00 0. -1.
         -2    1    6    6    0  503 -0.22940013604E+02 -0.24239655079E+02 -0.28571950074E+02  0.43933602556E+02  0.00000000000E+00 0.  1.
<mgrwt>
<rscale>  0 0.20363663E+04</rscale>
<asrwt>0</asrwt>
<pdfrwt beam="1">  1        1 0.16341860E+00 0.20363663E+04</pdfrwt>
<pdfrwt beam="2">  1       -2 0.15014940E+00 0.20363663E+04</pdfrwt>
<totfact> 0.32816692E+00</totfact>
</mgrwt>
</event>
<event>
12    4  0.4413110E-008  0.1320044E+04  0.7818608E-02  0.9013819E-01
         -2   -1    0    0    0  501 -0.00000000000E+00  0.00000000000E+00  0.36888568082E+03  0.36888568082E+03  0.00000000000E+00 0.  1.
          1   -1    0    0  501    0  0.00000000000E+00 -0.00000000000E+00 -0.11809322535E+04  0.11809322535E+04  0.00000000000E+00 0. -1.
        -24    2    1    2    0    0  0.10884350419E+03 -0.17926683710E+03  0.96084933849E+02  0.25354448491E+03  0.10520923928E+03 0.  0.
        254    2    1    2    0    0 -0.10884350419E+03  0.17926683710E+03 -0.90813150651E+03  0.12962734494E+04  0.90090982634E+03 0.  0.
         23    2    4    4    0    0  0.12433321972E+03 -0.32601508042E+03 -0.35055634319E+03  0.50299689778E+03  0.91496159698E+02 0.  0.
         23    2    4    4    0    0 -0.23317672390E+03  0.50528191751E+03 -0.55757516332E+03  0.79327655161E+03  0.93361790119E+02 0.  0.
          3    1    3    3  502    0  0.91235282763E+02 -0.50888069434E+02  0.34022619282E+02  0.10986815305E+03  0.00000000000E+00 0. -1.
         -4    1    3    3    0  502  0.17608221424E+02 -0.12837876766E+03  0.62062314567E+02  0.14367633186E+03  0.00000000000E+00 0.  1.
         11    1    5    5    0    0  0.73114015106E+02 -0.28136938820E+03 -0.26181482229E+03  0.39123061357E+03  0.00000000000E+00 0.  1.
        -11    1    5    5    0    0  0.51219204612E+02 -0.44645692214E+02 -0.88741520905E+02  0.11176628421E+03  0.00000000000E+00 0. -1.
          3    1    6    6  503    0 -0.19957275373E+03  0.34158369685E+03 -0.36456541639E+03  0.53797458007E+03  0.00000000000E+00 0. -1.
         -3    1    6    6    0  503 -0.33603970178E+02  0.16369822067E+03 -0.19300974693E+03  0.25530197154E+03  0.00000000000E+00 0.  1.
<mgrwt>
<rscale>  0 0.13200439E+04</rscale>
<asrwt>0</asrwt>
<pdfrwt beam="1">  1        1 0.18168188E+00 0.13200439E+04</pdfrwt>
<pdfrwt beam="2">  1       -2 0.56751643E-01 0.13200439E+04</pdfrwt>
<totfact> 0.27648228E+01</totfact>
</mgrwt>
</event>
<event>
12    4  0.4413110E-008  0.1780107E+04  0.7818608E-02  0.8716950E-01
          1   -1    0    0  501    0  0.00000000000E+00  0.00000000000E+00  0.45851274991E+03  0.45851274991E+03  0.00000000000E+00 0. -1.
         -2   -1    0    0    0  501 -0.00000000000E+00 -0.00000000000E+00 -0.17277494420E+04  0.17277494420E+04  0.00000000000E+00 0.  1.
        -24    2    1    2    0    0  0.20967910347E+03 -0.27865069097E+03  0.21220164764E+03  0.41528192378E+03  0.76275834606E+02 0.  0.
        254    2    1    2    0    0 -0.20967910347E+03  0.27865069097E+03 -0.14814383397E+04  0.17709802681E+04  0.90559373985E+03 0.  0.
         23    2    4    4    0    0  0.26999893422E+03  0.32934161534E+03 -0.96451638904E+03  0.10581220542E+04  0.89247369014E+02 0.  0.
         23    2    4    4    0    0 -0.47967803769E+03 -0.50690924364E+02 -0.51692195069E+03  0.71285821389E+03  0.91093031230E+02 0.  0.
          3    1    3    3  502    0  0.17660881321E+03 -0.22737954226E+03  0.13816572296E+03  0.31934604451E+03  0.00000000000E+00 0. -1.
         -4    1    3    3    0  502  0.33070290259E+02 -0.51271148714E+02  0.74035924681E+02  0.95935879272E+02  0.00000000000E+00 0.  1.
         11    1    5    5    0    0  0.18967352395E+03  0.16876297152E+03 -0.51844326622E+03  0.57726978661E+03  0.00000000000E+00 0. -1.
        -11    1    5    5    0    0  0.80325410269E+02  0.16057864381E+03 -0.44607312283E+03  0.48085226764E+03  0.00000000000E+00 0.  1.
          4    1    6    6  503    0 -0.32664028266E+03  0.85983082316E+01 -0.34463469641E+03  0.47491144346E+03  0.00000000000E+00 0. -1.
         -4    1    6    6    0  503 -0.15303775503E+03 -0.59289232596E+02 -0.17228725428E+03  0.23794677042E+03  0.00000000000E+00 0.  1.
<mgrwt>
<rscale>  0 0.17801069E+04</rscale>
<asrwt>0</asrwt>
<pdfrwt beam="1">  1        1 0.70540424E-01 0.17801069E+04</pdfrwt>
<pdfrwt beam="2">  1       -2 0.26580760E+00 0.17801069E+04</pdfrwt>
<totfact> 0.21230952E+00</totfact>
</mgrwt>
</event>
<event>
12    4  0.4413110E-008  0.1432781E+04  0.7818608E-02  0.8930426E-01
         -2   -1    0    0    0  501 -0.00000000000E+00  0.00000000000E+00  0.39409311387E+03  0.39409311387E+03  0.00000000000E+00 0.  1.
          1   -1    0    0  501    0  0.00000000000E+00 -0.00000000000E+00 -0.13022695563E+04  0.13022695563E+04  0.00000000000E+00 0. -1.
        -24    2    1    2    0    0  0.35375132453E+03 -0.21347462065E+03 -0.14442548027E+03  0.44487987577E+03  0.79674156680E+02 0.  0.
        254    2    1    2    0    0 -0.35375132453E+03  0.21347462065E+03 -0.76375096219E+03  0.12514827944E+04  0.90121153966E+03 0.  0.
         23    2    4    4    0    0 -0.50004843795E+03  0.35450595461E+03 -0.20705350518E+03  0.65223303470E+03  0.82546140995E+02 0.  0.
         23    2    4    4    0    0  0.14629711342E+03 -0.14103133396E+03 -0.55669745701E+03  0.59924975972E+03  0.88856813627E+02 0.  0.
          1    1    3    3  502    0  0.11584278154E+03 -0.69170641204E+02 -0.87654153376E+02  0.16089555073E+03  0.00000000000E+00 0. -1.
         -2    1    3    3    0  502  0.23790854299E+03 -0.14430397945E+03 -0.56771326895E+02  0.28398432504E+03  0.00000000000E+00 0.  1.
         11    1    5    5    0    0 -0.45436962568E+03  0.34747410089E+03 -0.19660287911E+03  0.60484931975E+03  0.00000000000E+00 0.  1.
        -11    1    5    5    0    0 -0.45678812272E+02  0.70318537287E+01 -0.10450626073E+02  0.47383714953E+02  0.00000000000E+00 0. -1.
          3    1    6    6  503    0  0.12973093925E+03 -0.96935889487E+02 -0.49980792047E+03  0.52538998909E+03  0.00000000000E+00 0. -1.
         -3    1    6    6    0  503  0.16566174174E+02 -0.44095444473E+02 -0.56889536539E+02  0.73859770631E+02  0.00000000000E+00 0.  1.
<mgrwt>
<rscale>  0 0.14327812E+04</rscale>
<asrwt>0</asrwt>
<pdfrwt beam="1">  1        1 0.20034916E+00 0.14327812E+04</pdfrwt>
<pdfrwt beam="2">  1       -2 0.60629709E-01 0.14327812E+04</pdfrwt>
<totfact> 0.19475947E+01</totfact>
</mgrwt>
</event>
<event>
12    4  0.4413110E-008  0.1886047E+04  0.7818608E-02  0.8661833E-01
          1   -1    0    0  501    0  0.00000000000E+00  0.00000000000E+00  0.11416883895E+04  0.11416883895E+04  0.00000000000E+00 0. -1.
         -2   -1    0    0    0  501 -0.00000000000E+00 -0.00000000000E+00 -0.77892797797E+03  0.77892797797E+03  0.00000000000E+00 0.  1.
        -24    2    1    2    0    0  0.39143709557E+03 -0.60860769964E+03  0.89596358419E+02  0.73359764728E+03  0.80694911946E+02 0.  0.
        254    2    1    2    0    0 -0.39143709557E+03  0.60860769964E+03  0.27316405307E+03  0.11870187201E+04  0.90042684891E+03 0.  0.
         23    2    4    4    0    0 -0.15445657580E+03  0.86387548914E+02 -0.30673244211E+03  0.36626927227E+03  0.93534733400E+02 0.  0.
         23    2    4    4    0    0 -0.23698051977E+03  0.52222015072E+03  0.57989649518E+03  0.82074944787E+03  0.92065511921E+02 0.  0.
          3    1    3    3  502    0  0.25742961856E+03 -0.42951679067E+03  0.95793974003E+02  0.50983445101E+03  0.00000000000E+00 0. -1.
         -4    1    3    3    0  502  0.13400747700E+03 -0.17909090897E+03 -0.61976155838E+01  0.22376319627E+03  0.00000000000E+00 0.  1.
         11    1    5    5    0    0  0.57697338659E+01  0.25667241624E+02 -0.23685188830E+02  0.35398944778E+02  0.00000000000E+00 0.  1.
        -11    1    5    5    0    0 -0.16022630967E+03  0.60720307290E+02 -0.28304725328E+03  0.33087032749E+03  0.00000000000E+00 0. -1.
          3    1    6    6  503    0 -0.14744806980E+03  0.33218132331E+03  0.42814053584E+03  0.56159565816E+03  0.00000000000E+00 0. -1.
         -3    1    6    6    0  503 -0.89532449964E+02  0.19003882742E+03  0.15175595935E+03  0.25915378971E+03  0.00000000000E+00 0.  1.
<mgrwt>
<rscale>  0 0.18860467E+04</rscale>
<asrwt>0</asrwt>
<pdfrwt beam="1">  1        1 0.17564437E+00 0.18860467E+04</pdfrwt>
<pdfrwt beam="2">  1       -2 0.11983507E+00 0.18860467E+04</pdfrwt>
<totfact> 0.51648130E+00</totfact>
</mgrwt>
</event>
<event>
12    4  0.4413110E-008  0.2356017E+04  0.7818608E-02  0.8456156E-01
          1   -1    0    0  501    0  0.00000000000E+00  0.00000000000E+00  0.31559274173E+04  0.31559274173E+04  0.00000000000E+00 0. -1.
         -2   -1    0    0    0  501 -0.00000000000E+00 -0.00000000000E+00 -0.43971361980E+03  0.43971361980E+03  0.00000000000E+00 0.  1.
        -24    2    1    2    0    0 -0.69369557652E+03  0.12158778841E+03  0.65165563638E+02  0.71183794201E+03  0.80433586443E+02 0.  0.
        254    2    1    2    0    0  0.69369557652E+03 -0.12158778841E+03  0.26510482339E+04  0.28838030951E+04  0.89009348377E+03 0.  0.
         23    2    4    4    0    0  0.59780467505E+03 -0.12267325287E+03  0.71913046111E+03  0.94736793502E+03  0.89096732465E+02 0.  0.
         23    2    4    4    0    0  0.95890901473E+02  0.10854644546E+01  0.19319177728E+04  0.19364351601E+04  0.90986841122E+02 0.  0.
          3    1    3    3  502    0 -0.11869193120E+03  0.40343842407E+02  0.35837285279E+02  0.13038294048E+03  0.00000000000E+00 0. -1.
         -4    1    3    3    0  502 -0.57500364532E+03  0.81243946004E+02  0.29328278359E+02  0.58145500153E+03  0.00000000000E+00 0.  1.
         11    1    5    5    0    0  0.14835024062E+03 -0.54295365507E+02  0.23575745171E+03  0.28379104398E+03  0.00000000000E+00 0. -1.
        -11    1    5    5    0    0  0.44945443443E+03 -0.68377887359E+02  0.48337300939E+03  0.66357689104E+03  0.00000000000E+00 0.  1.
          1    1    6    6  503    0  0.34730033957E+02  0.37913119903E+02  0.47617376447E+03  0.47894157670E+03  0.00000000000E+00 0. -1.
         -1    1    6    6    0  503  0.61160867516E+02 -0.36827655448E+02  0.14557440083E+04  0.14574935834E+04  0.00000000000E+00 0.  1.
<mgrwt>
<rscale>  0 0.23560172E+04</rscale>
<asrwt>0</asrwt>
<pdfrwt beam="1">  1        1 0.48552728E+00 0.23560172E+04</pdfrwt>
<pdfrwt beam="2">  1       -2 0.67648251E-01 0.23560172E+04</pdfrwt>
<totfact> 0.72677182E-01</totfact>
</mgrwt>
</event>
<event>
12    4  0.4413110E-008  0.1034998E+04  0.7818608E-02  0.9270971E-01
          1   -1    0    0  501    0  0.00000000000E+00  0.00000000000E+00  0.11987554811E+03  0.11987554811E+03  0.00000000000E+00 0. -1.
         -2   -1    0    0    0  501 -0.00000000000E+00 -0.00000000000E+00 -0.22340288930E+04  0.22340288930E+04  0.00000000000E+00 0.  1.
        -24    2    1    2    0    0 -0.25271546757E+03  0.11701601549E+02 -0.43704640213E+03  0.51201338482E+03  0.84534688749E+02 0.  0.
        254    2    1    2    0    0  0.25271546757E+03 -0.11701601549E+02 -0.16771069428E+04  0.18418910563E+04  0.71824294688E+03 0.  0.
         23    2    4    4    0    0  0.44844589859E+03 -0.15308818122E+03 -0.12771711246E+04  0.13653297997E+04  0.91758733270E+02 0.  0.
         23    2    4    4    0    0 -0.19573043102E+03  0.14138657967E+03 -0.39993581819E+03  0.47656125665E+03  0.94135042011E+02 0.  0.
          3    1    3    3  502    0 -0.14690697006E+03  0.25310165648E+02 -0.32360921326E+03  0.35629367837E+03  0.00000000000E+00 0. -1.
         -4    1    3    3    0  502 -0.10580849751E+03 -0.13608564099E+02 -0.11343718887E+03  0.15571970646E+03  0.00000000000E+00 0.  1.
         11    1    5    5    0    0  0.70489425764E+01  0.95289609618E+01 -0.41155018847E+02  0.42827844502E+02  0.00000000000E+00 0.  1.
        -11    1    5    5    0    0  0.44139695601E+03 -0.16261714218E+03 -0.12360161058E+04  0.13225019552E+04  0.00000000000E+00 0. -1.
          4    1    6    6  503    0 -0.13232389367E+03  0.43161653219E+02 -0.18058600235E+03  0.22799966094E+03  0.00000000000E+00 0. -1.
         -4    1    6    6    0  503 -0.63406537356E+02  0.98224926447E+02 -0.21934981584E+03  0.24856159571E+03  0.00000000000E+00 0.  1.
<mgrwt>
<rscale>  0 0.10349984E+04</rscale>
<asrwt>0</asrwt>
<pdfrwt beam="1">  1        1 0.18442392E-01 0.10349984E+04</pdfrwt>
<pdfrwt beam="2">  1       -2 0.34369675E+00 0.10349984E+04</pdfrwt>
<totfact> 0.44273068E+00</totfact>
</mgrwt>
</event>
<event>
12    4  0.4413110E-008  0.1430912E+04  0.7818608E-02  0.8931742E-01
         -2   -1    0    0    0  501 -0.00000000000E+00  0.00000000000E+00  0.35145057219E+03  0.35145057219E+03  0.00000000000E+00 0.  1.
          1   -1    0    0  501    0  0.00000000000E+00 -0.00000000000E+00 -0.14564702976E+04  0.14564702976E+04  0.00000000000E+00 0. -1.
        -24    2    1    2    0    0 -0.22247203564E+02 -0.21365183164E+03  0.13265832936E+03  0.26448324364E+03  0.78810599465E+02 0.  0.
        254    2    1    2    0    0  0.22247203564E+02  0.21365183164E+03 -0.12376780547E+04  0.15434376261E+04  0.89677795206E+03 0.  0.
         23    2    4    4    0    0  0.13696678536E+03  0.48403613658E+03 -0.10855865970E+04  0.11999413084E+04  0.91159213056E+02 0.  0.
         23    2    4    4    0    0 -0.11471958180E+03 -0.27038430494E+03 -0.15209145775E+03  0.34349631776E+03  0.92680386208E+02 0.  0.
          3    1    3    3  502    0 -0.29883181522E+01 -0.32197848455E+02 -0.89004657837E+01  0.33538780265E+02  0.00000000000E+00 0. -1.
         -4    1    3    3    0  502 -0.19258885412E+02 -0.18145398318E+03  0.14155879514E+03  0.23094446337E+03  0.00000000000E+00 0.  1.
         11    1    5    5    0    0  0.14019378424E+03  0.38120562070E+03 -0.90804249699E+03  0.99474278018E+03  0.00000000000E+00 0.  1.
        -11    1    5    5    0    0 -0.32269988770E+01  0.10283051588E+03 -0.17754410000E+03  0.20519852817E+03  0.00000000000E+00 0. -1.
          3    1    6    6  503    0 -0.55289700515E+01 -0.12918517765E+03 -0.69918195162E+02  0.14699637291E+03  0.00000000000E+00 0. -1.
         -3    1    6    6    0  503 -0.10919061174E+03 -0.14119912729E+03 -0.82173262584E+02  0.19649994485E+03  0.00000000000E+00 0.  1.
<mgrwt>
<rscale>  0 0.14309120E+04</rscale>
<asrwt>0</asrwt>
<pdfrwt beam="1">  1        1 0.22407235E+00 0.14309120E+04</pdfrwt>
<pdfrwt beam="2">  1       -2 0.54069318E-01 0.14309120E+04</pdfrwt>
<totfact> 0.19282332E+01</totfact>
</mgrwt>
</event>
<event>
12    4  0.4413110E-008  0.2183777E+04  0.7818608E-02  0.8525211E-01
          1   -1    0    0  501    0  0.00000000000E+00  0.00000000000E+00  0.23641512539E+04  0.23641512539E+04  0.00000000000E+00 0. -1.
         -2   -1    0    0    0  501 -0.00000000000E+00 -0.00000000000E+00 -0.50429134516E+03  0.50429134516E+03  0.00000000000E+00 0.  1.
        -24    2    1    2    0    0  0.62530400460E+03 -0.13810360857E+03  0.16167105362E+04  0.17407794445E+04  0.80513424649E+02 0.  0.
        254    2    1    2    0    0 -0.62530400460E+03  0.13810360857E+03  0.24314937255E+03  0.11276631546E+04  0.89578170780E+03 0.  0.
         23    2    4    4    0    0 -0.11154464529E+03 -0.33290609072E+03  0.21883915289E+03  0.42368097608E+03  0.91358204471E+02 0.  0.
         23    2    4    4    0    0 -0.51375935930E+03  0.47100969929E+03  0.24310219660E+02  0.70398217852E+03  0.95922389467E+02 0.  0.
          1    1    3    3  502    0  0.52392014544E+03 -0.10087002361E+03  0.14096664416E+04  0.15072579597E+04  0.00000000000E+00 0. -1.
         -4    1    3    3    0  502  0.10138385916E+03 -0.37233584952E+02  0.20704409464E+03  0.23352148482E+03  0.00000000000E+00 0.  1.
         11    1    5    5    0    0 -0.92833719304E+02 -0.15156775814E+03  0.13407842716E+03  0.22263851728E+03  0.00000000000E+00 0.  1.
        -11    1    5    5    0    0 -0.18710925990E+02 -0.18133833258E+03  0.84760725726E+02  0.20104245880E+03  0.00000000000E+00 0. -1.
          2    1    6    6  503    0 -0.40353159964E+03  0.36855996834E+03  0.58585023273E+02  0.54964207183E+03  0.00000000000E+00 0. -1.
         -2    1    6    6    0  503 -0.11022775966E+03  0.10244973095E+03 -0.34274803613E+02  0.15434010669E+03  0.00000000000E+00 0.  1.
<mgrwt>
<rscale>  0 0.21837775E+04</rscale>
<asrwt>0</asrwt>
<pdfrwt beam="1">  1        1 0.36371557E+00 0.21837775E+04</pdfrwt>
<pdfrwt beam="2">  1       -2 0.77583285E-01 0.21837775E+04</pdfrwt>
<totfact> 0.19976041E+00</totfact>
</mgrwt>
</event>
<event>
12    4  0.4413110E-008  0.1300914E+04  0.7818608E-02  0.9028840E-01
         -2   -1    0    0    0  501 -0.00000000000E+00  0.00000000000E+00  0.38531465955E+03  0.38531465955E+03  0.00000000000E+00 0.  1.
          1   -1    0    0  501    0  0.00000000000E+00 -0.00000000000E+00 -0.10980492034E+04  0.10980492034E+04  0.00000000000E+00 0. -1.
        -24    2    1    2    0    0  0.15271695526E+03  0.21698223827E+03  0.36288318029E+02  0.27895108976E+03  0.78058364735E+02 0.  0.
        254    2    1    2    0    0 -0.15271695526E+03 -0.21698223827E+03 -0.74902286192E+03  0.12044127732E+04  0.90508072595E+03 0.  0.
         23    2    4    4    0    0 -0.24348432250E+03  0.84934789305E+02 -0.82355574312E+03  0.86754040533E+03  0.88790535089E+02 0.  0.
         23    2    4    4    0    0  0.90767367236E+02 -0.30191702758E+03  0.74532881205E+02  0.33687236789E+03  0.92386337595E+02 0.  0.
          3    1    3    3  502    0  0.94701454006E+02  0.88261668396E+02 -0.11323437265E+02  0.12994886583E+03  0.00000000000E+00 0. -1.
         -4    1    3    3    0  502  0.58015501253E+02  0.12872056987E+03  0.47611755294E+02  0.14900222393E+03  0.00000000000E+00 0.  1.
         11    1    5    5    0    0 -0.10573003481E+03  0.82200033476E+02 -0.36839773228E+03  0.39198542691E+03  0.00000000000E+00 0.  1.
        -11    1    5    5    0    0 -0.13775428768E+03  0.27347558290E+01 -0.45515801084E+03  0.47555497842E+03  0.00000000000E+00 0. -1.
          1    1    6    6  503    0  0.14176601257E+02 -0.17213260404E+03  0.69249594341E+02  0.18608093861E+03  0.00000000000E+00 0. -1.
         -1    1    6    6    0  503  0.76590765980E+02 -0.12978442354E+03  0.52832868637E+01  0.15079142929E+03  0.00000000000E+00 0.  1.
<mgrwt>
<rscale>  0 0.13009142E+04</rscale>
<asrwt>0</asrwt>
<pdfrwt beam="1">  1        1 0.16893065E+00 0.13009142E+04</pdfrwt>
<pdfrwt beam="2">  1       -2 0.59279179E-01 0.13009142E+04</pdfrwt>
<totfact> 0.29119679E+01</totfact>
</mgrwt>
</event>
<event>
12    4  0.4413110E-008  0.1237071E+04  0.7818608E-02  0.9081014E-01
          1   -1    0    0  501    0  0.00000000000E+00  0.00000000000E+00  0.26162456680E+04  0.26162456680E+04  0.00000000000E+00 0. -1.
         -2   -1    0    0    0  501 -0.00000000000E+00 -0.00000000000E+00 -0.14623469277E+03  0.14623469277E+03  0.00000000000E+00 0.  1.
        -24    2    1    2    0    0  0.10299483239E+03  0.66623795479E+02  0.16007747207E+02  0.14531250589E+03  0.76241791524E+02 0.  0.
        254    2    1    2    0    0 -0.10299483239E+03 -0.66623795479E+02  0.24540032281E+04  0.26171678549E+04  0.90132628491E+03 0.  0.
         23    2    4    4    0    0 -0.40278180182E+02 -0.32041593948E+02 -0.47206124816E+02  0.11319083094E+03  0.89077216211E+02 0.  0.
         23    2    4    4    0    0 -0.62716652210E+02 -0.34582201530E+02  0.25012093529E+04  0.25039770240E+04  0.93399157168E+02 0.  0.
          1    1    3    3  502    0  0.41539742643E+02 -0.11947358412E+02  0.14365912539E+02  0.45548534937E+02  0.00000000000E+00 0. -1.
         -2    1    3    3    0  502  0.61455089750E+02  0.78571153891E+02  0.16418346679E+01  0.99763970956E+02  0.00000000000E+00 0.  1.
         11    1    5    5    0    0 -0.14405687579E+02 -0.95612511675E+01  0.26651076582E+02  0.31768242656E+02  0.00000000000E+00 0. -1.
        -11    1    5    5    0    0 -0.25872492603E+02 -0.22480342781E+02 -0.73857201398E+02  0.81422588287E+02  0.00000000000E+00 0.  1.
          3    1    6    6  503    0 -0.68030373744E+02 -0.75402504837E+01  0.92585791636E+03  0.92838454771E+03  0.00000000000E+00 0. -1.
         -3    1    6    6    0  503  0.53137215332E+01 -0.27041951046E+02  0.15753514365E+04  0.15755924763E+04  0.00000000000E+00 0.  1.
<mgrwt>
<rscale>  0 0.12370705E+04</rscale>
<asrwt>0</asrwt>
<pdfrwt beam="1">  1        1 0.40249930E+00 0.12370705E+04</pdfrwt>
<pdfrwt beam="2">  1       -2 0.22497647E-01 0.12370705E+04</pdfrwt>
<totfact> 0.17016213E+01</totfact>
</mgrwt>
</event>
<event>
12    4  0.4413110E-008  0.1304461E+04  0.7818608E-02  0.9026035E-01
          1   -1    0    0  501    0  0.00000000000E+00  0.00000000000E+00  0.13559369419E+04  0.13559369419E+04  0.00000000000E+00 0. -1.
         -2   -1    0    0    0  501 -0.00000000000E+00 -0.00000000000E+00 -0.31373462712E+03  0.31373462712E+03  0.00000000000E+00 0.  1.
        -24    2    1    2    0    0  0.76778977874E+02 -0.70854861394E+02 -0.12896749101E+03  0.18517176754E+03  0.82100833909E+02 0.  0.
        254    2    1    2    0    0 -0.76778977874E+02  0.70854861394E+02  0.11711698058E+04  0.14844998015E+04  0.90619287341E+03 0.  0.
         23    2    4    4    0    0  0.24712404388E+03  0.36784031720E+03  0.70439616305E+03  0.83711040100E+03  0.90570839234E+02 0.  0.
         23    2    4    4    0    0 -0.32390302175E+03 -0.29698545580E+03  0.46677364278E+03  0.64738940053E+03  0.90121439535E+02 0.  0.
          1    1    3    3  502    0  0.53871951505E+01  0.18059349645E+02 -0.17994170543E+02  0.26056710359E+02  0.00000000000E+00 0. -1.
         -2    1    3    3    0  502  0.71391782724E+02 -0.88914211039E+02 -0.11097332047E+03  0.15911505718E+03  0.00000000000E+00 0.  1.
         11    1    5    5    0    0  0.25206551902E+02  0.78039226580E+02  0.18418137154E+03  0.20161415815E+03  0.00000000000E+00 0.  1.
        -11    1    5    5    0    0  0.22191749198E+03  0.28980109062E+03  0.52021479152E+03  0.63549624285E+03  0.00000000000E+00 0. -1.
          3    1    6    6  503    0 -0.19067438922E+03 -0.21085101143E+03  0.34715421491E+03  0.44869914270E+03  0.00000000000E+00 0. -1.
         -3    1    6    6    0  503 -0.13322863254E+03 -0.86134444371E+02  0.11961942787E+03  0.19869025784E+03  0.00000000000E+00 0.  1.
<mgrwt>
<rscale>  0 0.13044606E+04</rscale>
<asrwt>0</asrwt>
<pdfrwt beam="1">  1        1 0.20860568E+00 0.13044606E+04</pdfrwt>
<pdfrwt beam="2">  1       -2 0.48266866E-01 0.13044606E+04</pdfrwt>
<totfact> 0.28912174E+01</totfact>
</mgrwt>
</event>
<event>
12    4  0.4413110E-008  0.1787898E+04  0.7818608E-02  0.8712762E-01
         -2   -1    0    0    0  501 -0.00000000000E+00  0.00000000000E+00  0.73167456357E+03  0.73167456357E+03  0.00000000000E+00 0.  1.
          1   -1    0    0  501    0  0.00000000000E+00 -0.00000000000E+00 -0.10922130538E+04  0.10922130538E+04  0.00000000000E+00 0. -1.
        -24    2    1    2    0    0 -0.10461339577E+03  0.42829987369E+03  0.37183410757E+03  0.58209956243E+03  0.78705480440E+02 0.  0.
        254    2    1    2    0    0  0.10461339577E+03 -0.42829987369E+03 -0.73237259782E+03  0.12417880550E+04  0.90071261066E+03 0.  0.
         23    2    4    4    0    0 -0.39373531799E+02 -0.25121384961E+03 -0.90270901467E+03  0.94189349060E+03  0.87298964728E+02 0.  0.
         23    2    4    4    0    0  0.14398692757E+03 -0.17708602408E+03  0.17033641684E+03  0.29989456435E+03  0.93971057172E+02 0.  0.
          1    1    3    3  502    0 -0.33592337001E+02  0.86495202752E+02  0.42104170856E+02  0.10189517362E+03  0.00000000000E+00 0. -1.
         -2    1    3    3    0  502 -0.71021058772E+02  0.34180467094E+03  0.32972993671E+03  0.48020438881E+03  0.00000000000E+00 0.  1.
         11    1    5    5    0    0 -0.78372571002E+01 -0.29679055562E+01 -0.11694015144E+03  0.11724005323E+03  0.00000000000E+00 0. -1.
        -11    1    5    5    0    0 -0.31536274698E+02 -0.24824594405E+03 -0.78576886322E+03  0.82465343737E+03  0.00000000000E+00 0.  1.
          2    1    6    6  503    0 -0.18852205083E+00 -0.19788682150E+02 -0.84497248947E+01  0.21518023436E+02  0.00000000000E+00 0. -1.
         -2    1    6    6    0  503  0.14417544962E+03 -0.15729734193E+03  0.17878614174E+03  0.27837654091E+03  0.00000000000E+00 0.  1.
<mgrwt>
<rscale>  0 0.17878977E+04</rscale>
<asrwt>0</asrwt>
<pdfrwt beam="1">  1        1 0.16803278E+00 0.17878977E+04</pdfrwt>
<pdfrwt beam="2">  1       -2 0.11256532E+00 0.17878977E+04</pdfrwt>
<totfact> 0.66130254E+00</totfact>
</mgrwt>
</event>
<event>
12    4  0.4413110E-008  0.1709231E+04  0.7818608E-02  0.8756117E-01
          1   -1    0    0  501    0  0.00000000000E+00  0.00000000000E+00  0.16774686170E+04  0.16774686170E+04  0.00000000000E+00 0. -1.
         -2   -1    0    0    0  501 -0.00000000000E+00 -0.00000000000E+00 -0.43539846970E+03  0.43539846970E+03  0.00000000000E+00 0.  1.
        -24    2    1    2    0    0  0.47153925443E+03 -0.27706294965E+03  0.79262118062E+03  0.96611152718E+03  0.77524192684E+02 0.  0.
        254    2    1    2    0    0 -0.47153925443E+03  0.27706294965E+03  0.44944896668E+03  0.11467555595E+04  0.90218113099E+03 0.  0.
         23    2    4    4    0    0 -0.63912550689E+03  0.45825029941E+03  0.35039081527E+03  0.86580221915E+03  0.91460421972E+02 0.  0.
         23    2    4    4    0    0  0.16758625247E+03 -0.18118734976E+03  0.99058151410E+02  0.28095334037E+03  0.90599417083E+02 0.  0.
          3    1    3    3  502    0  0.44995607573E+03 -0.27302626708E+03  0.77946131197E+03  0.94051249299E+03  0.00000000000E+00 0. -1.
         -4    1    3    3    0  502  0.21583178699E+02 -0.40366825639E+01  0.13159868649E+02  0.25599034195E+02  0.00000000000E+00 0.  1.
         11    1    5    5    0    0 -0.40406424225E+03  0.29532963921E+03  0.27022132746E+03  0.56877682220E+03  0.00000000000E+00 0.  1.
        -11    1    5    5    0    0 -0.23506126464E+03  0.16292066020E+03  0.80169487810E+02  0.29702539694E+03  0.00000000000E+00 0. -1.
          2    1    6    6  503    0  0.64485246614E+01 -0.51627690750E+02  0.81126297136E+00  0.52035181080E+02  0.00000000000E+00 0. -1.
         -2    1    6    6    0  503  0.16113772781E+03 -0.12955965901E+03  0.98246888439E+02  0.22891815929E+03  0.00000000000E+00 0.  1.
<mgrwt>
<rscale>  0 0.17092306E+04</rscale>
<asrwt>0</asrwt>
<pdfrwt beam="1">  1        1 0.25807209E+00 0.17092306E+04</pdfrwt>
<pdfrwt beam="2">  1       -2 0.66984381E-01 0.17092306E+04</pdfrwt>
<totfact> 0.84316482E+00</totfact>
</mgrwt>
</event>
<event>
12    4  0.4413110E-008  0.1553579E+04  0.7818608E-02  0.8849585E-01
          1   -1    0    0  501    0  0.00000000000E+00  0.00000000000E+00  0.10215007206E+04  0.10215007206E+04  0.00000000000E+00 0. -1.
         -2   -1    0    0    0  501 -0.00000000000E+00 -0.00000000000E+00 -0.59070164920E+03  0.59070164920E+03  0.00000000000E+00 0.  1.
        -24    2    1    2    0    0  0.95448072712E+02  0.16145359193E+03 -0.35123265178E+03  0.40690174388E+03  0.83827540611E+02 0.  0.
        254    2    1    2    0    0 -0.95448072712E+02 -0.16145359193E+03  0.78203172313E+03  0.12053006259E+04  0.89777412849E+03 0.  0.
         23    2    4    4    0    0  0.26239916252E+03  0.23497796312E+03  0.22233664312E+03  0.42647278042E+03  0.91528607113E+02 0.  0.
         23    2    4    4    0    0 -0.35784723523E+03 -0.39643155505E+03  0.55969508001E+03  0.77882784545E+03  0.90008936488E+02 0.  0.
          1    1    3    3  502    0  0.32693663912E+02  0.23891236652E+02 -0.14894484450E+03  0.15435100762E+03  0.00000000000E+00 0. -1.
         -2    1    3    3    0  502  0.62754408800E+02  0.13756235528E+03 -0.20228780728E+03  0.25255073626E+03  0.00000000000E+00 0.  1.
         11    1    5    5    0    0  0.12201699607E+03  0.13863917339E+03  0.16251902239E+03  0.24601097612E+03  0.00000000000E+00 0.  1.
        -11    1    5    5    0    0  0.14038216645E+03  0.96338789726E+02  0.59817620729E+02  0.18046180430E+03  0.00000000000E+00 0. -1.
          1    1    6    6  503    0 -0.21126152893E+03 -0.20163463132E+03  0.36090685773E+03  0.46426470694E+03  0.00000000000E+00 0. -1.
         -1    1    6    6    0  503 -0.14658570630E+03 -0.19479692374E+03  0.19878822228E+03  0.31456313850E+03  0.00000000000E+00 0.  1.
<mgrwt>
<rscale>  0 0.15535793E+04</rscale>
<asrwt>0</asrwt>
<pdfrwt beam="1">  1        1 0.15715396E+00 0.15535793E+04</pdfrwt>
<pdfrwt beam="2">  1       -2 0.90877176E-01 0.15535793E+04</pdfrwt>
<totfact> 0.12703914E+01</totfact>
</mgrwt>
</event>
<event>
12    4  0.4413110E-008  0.1633438E+04  0.7818608E-02  0.8800265E-01
         -2   -1    0    0    0  501 -0.00000000000E+00  0.00000000000E+00  0.12645195112E+04  0.12645195112E+04  0.00000000000E+00 0.  1.
          1   -1    0    0  501    0  0.00000000000E+00 -0.00000000000E+00 -0.52749651313E+03  0.52749651313E+03  0.00000000000E+00 0. -1.
        -24    2    1    2    0    0  0.39628915791E+03 -0.34670421683E+03  0.31767256443E+02  0.53349639469E+03  0.79751701670E+02 0.  0.
        254    2    1    2    0    0 -0.39628915791E+03  0.34670421683E+03  0.70525574161E+03  0.12585196296E+04  0.89957605928E+03 0.  0.
         23    2    4    4    0    0  0.13750281640E+03  0.83420789774E+01 -0.12807657471E+03  0.20875904561E+03  0.90554488217E+02 0.  0.
         23    2    4    4    0    0 -0.53379197431E+03  0.33836213785E+03  0.83333231633E+03  0.10497605840E+04  0.90176084050E+02 0.  0.
          1    1    3    3  502    0  0.34454373554E+03 -0.26434963723E+03  0.38675187369E+02  0.43598954864E+03  0.00000000000E+00 0. -1.
         -2    1    3    3    0  502  0.51745422376E+02 -0.82354579600E+02 -0.69079309267E+01  0.97506846056E+02  0.00000000000E+00 0.  1.
         11    1    5    5    0    0  0.14510285024E+02 -0.17701977429E+02 -0.63344184691E+02  0.67352758745E+02  0.00000000000E+00 0. -1.
        -11    1    5    5    0    0  0.12299253138E+03  0.26044056406E+02 -0.64732390021E+02  0.14140628687E+03  0.00000000000E+00 0.  1.
          1    1    6    6  503    0 -0.19292674151E+03  0.75014762150E+02  0.24847119715E+03  0.32339739941E+03  0.00000000000E+00 0. -1.
         -1    1    6    6    0  503 -0.34086523281E+03  0.26334737570E+03  0.58486111918E+03  0.72636318461E+03  0.00000000000E+00 0.  1.
<mgrwt>
<rscale>  0 0.16334376E+04</rscale>
<asrwt>0</asrwt>
<pdfrwt beam="1">  1        1 0.81153310E-01 0.16334376E+04</pdfrwt>
<pdfrwt beam="2">  1       -2 0.19454146E+00 0.16334376E+04</pdfrwt>
<totfact> 0.49733068E+00</totfact>
</mgrwt>
</event>
<event>
12    4  0.4413110E-008  0.2702816E+04  0.7818608E-02  0.8334092E-01
         -2   -1    0    0    0  501 -0.00000000000E+00  0.00000000000E+00  0.15610281093E+04  0.15610281093E+04  0.00000000000E+00 0.  1.
          1   -1    0    0  501    0  0.00000000000E+00 -0.00000000000E+00 -0.11699363213E+04  0.11699363213E+04  0.00000000000E+00 0. -1.
        -24    2    1    2    0    0  0.72763047971E+03 -0.25162345015E+03 -0.75727908025E+03  0.10828245600E+04  0.79227184026E+02 0.  0.
        254    2    1    2    0    0 -0.72763047971E+03  0.25162345015E+03  0.11483708682E+04  0.16481398706E+04  0.89713371707E+03 0.  0.
         23    2    4    4    0    0  0.12224418889E+03 -0.14137825686E+03  0.75372007463E+02  0.22101790353E+03  0.90755280538E+02 0.  0.
         23    2    4    4    0    0 -0.84987466860E+03  0.39300170701E+03  0.10729988608E+04  0.14271219670E+04  0.92807648184E+02 0.  0.
          1    1    3    3  502    0  0.72944936670E+03 -0.25146512643E+03 -0.75276245999E+03  0.10779528791E+04  0.00000000000E+00 0. -1.
         -4    1    3    3    0  502 -0.18188869848E+01 -0.15832372142E+00 -0.45166202615E+01  0.48716809061E+01  0.00000000000E+00 0.  1.
         11    1    5    5    0    0  0.10009867495E+03 -0.85616726205E+02  0.97161930724E+01  0.13207714768E+03  0.00000000000E+00 0. -1.
        -11    1    5    5    0    0  0.22145513940E+02 -0.55761530651E+02  0.65655814391E+02  0.88940755852E+02  0.00000000000E+00 0.  1.
          4    1    6    6  503    0 -0.84409530274E+03  0.37812806858E+03  0.10527796996E+04  0.14013646250E+04  0.00000000000E+00 0. -1.
         -4    1    6    6    0  503 -0.57793658602E+01  0.14873638424E+02  0.20219161217E+02  0.25757342061E+02  0.00000000000E+00 0.  1.
<mgrwt>
<rscale>  0 0.27028159E+04</rscale>
<asrwt>0</asrwt>
<pdfrwt beam="1">  1        1 0.17999020E+00 0.27028159E+04</pdfrwt>
<pdfrwt beam="2">  1       -2 0.24015817E+00 0.27028159E+04</pdfrwt>
<totfact> 0.63655845E-01</totfact>
</mgrwt>
</event>
<event>
12    4  0.4413110E-008  0.2405652E+04  0.7818608E-02  0.8437391E-01
          1   -1    0    0  501    0  0.00000000000E+00  0.00000000000E+00  0.13212034252E+04  0.13212034252E+04  0.00000000000E+00 0. -1.
         -2   -1    0    0    0  501 -0.00000000000E+00 -0.00000000000E+00 -0.10950551187E+04  0.10950551187E+04  0.00000000000E+00 0.  1.
        -24    2    1    2    0    0 -0.92719781792E+03 -0.33015550978E+03 -0.19604617779E+03  0.10067222507E+04  0.79731625259E+02 0.  0.
        254    2    1    2    0    0  0.92719781792E+03  0.33015550978E+03  0.42219448432E+03  0.14095362932E+04  0.91643108041E+03 0.  0.
         23    2    4    4    0    0  0.29104136780E+03  0.46157543792E+03 -0.11073056939E+03  0.56421084800E+03  0.91190237064E+02 0.  0.
         23    2    4    4    0    0  0.63615645012E+03 -0.13141992815E+03  0.53292505370E+03  0.84532544523E+03  0.92734939146E+02 0.  0.
          1    1    3    3  502    0 -0.22582601464E+03 -0.78546804755E+02 -0.82807461332E+02  0.25302977113E+03  0.00000000000E+00 0. -1.
         -2    1    3    3    0  502 -0.70137180328E+03 -0.25160870502E+03 -0.11323871646E+03  0.75369247959E+03  0.00000000000E+00 0.  1.
         11    1    5    5    0    0  0.97646215186E+02  0.11953840375E+03  0.55163901374E+01  0.15444948647E+03  0.00000000000E+00 0.  1.
        -11    1    5    5    0    0  0.19339515262E+03  0.34203703417E+03 -0.11624695952E+03  0.40976136152E+03  0.00000000000E+00 0. -1.
          3    1    6    6  503    0  0.16833146514E+03 -0.91050951600E+01  0.98227603210E+02  0.19510778290E+03  0.00000000000E+00 0. -1.
         -3    1    6    6    0  503  0.46782498498E+03 -0.12231483299E+03  0.43469745049E+03  0.65021766233E+03  0.00000000000E+00 0.  1.
<mgrwt>
<rscale>  0 0.24056522E+04</rscale>
<asrwt>0</asrwt>
<pdfrwt beam="1">  1        1 0.20326207E+00 0.24056522E+04</pdfrwt>
<pdfrwt beam="2">  1       -2 0.16847002E+00 0.24056522E+04</pdfrwt>
<totfact> 0.15009357E+00</totfact>
</mgrwt>
</event>
<event>
12    4  0.4413110E-008  0.1373322E+04  0.7818608E-02  0.8973359E-01
         -2   -1    0    0    0  501 -0.00000000000E+00  0.00000000000E+00  0.52112331818E+03  0.52112331818E+03  0.00000000000E+00 0.  1.
          1   -1    0    0  501    0  0.00000000000E+00 -0.00000000000E+00 -0.90478255578E+03  0.90478255578E+03  0.00000000000E+00 0. -1.
        -24    2    1    2    0    0 -0.41000042657E+03 -0.77622834444E+02  0.92230616455E+01  0.42492730368E+03  0.79702536516E+02 0.  0.
        254    2    1    2    0    0  0.41000042657E+03  0.77622834444E+02 -0.39288229925E+03  0.10009785703E+04  0.82065580049E+03 0.  0.
         23    2    4    4    0    0  0.18395825740E+03  0.42264462297E+03 -0.33223995900E+03  0.57431586924E+03  0.83583548161E+02 0.  0.
         23    2    4    4    0    0  0.22604216918E+03 -0.34502178852E+03 -0.60642340249E+02  0.42666270103E+03  0.90710915665E+02 0.  0.
          3    1    3    3  502    0 -0.14396858536E+03 -0.53653343556E+02 -0.24903991308E+02  0.15564653427E+03  0.00000000000E+00 0. -1.
         -4    1    3    3    0  502 -0.26603184121E+03 -0.23969490888E+02  0.34127052954E+02  0.26928076941E+03  0.00000000000E+00 0.  1.
         11    1    5    5    0    0  0.14753642803E+03  0.32173583651E+03 -0.20951821596E+03  0.41131354088E+03  0.00000000000E+00 0.  1.
        -11    1    5    5    0    0  0.36421829369E+02  0.10090878646E+03 -0.12272174304E+03  0.16300232836E+03  0.00000000000E+00 0. -1.
          2    1    6    6  503    0  0.13710495768E+02 -0.71329265864E+02  0.94382497257E+01  0.73245630728E+02  0.00000000000E+00 0. -1.
         -2    1    6    6    0  503  0.21233167341E+03 -0.27369252266E+03 -0.70080589975E+02  0.35341707031E+03  0.00000000000E+00 0.  1.
<mgrwt>
<rscale>  0 0.13733219E+04</rscale>
<asrwt>0</asrwt>
<pdfrwt beam="1">  1        1 0.13919732E+00 0.13733219E+04</pdfrwt>
<pdfrwt beam="2">  1       -2 0.80172819E-01 0.13733219E+04</pdfrwt>
<totfact> 0.21244464E+01</totfact>
</mgrwt>
</event>
<event>
12    4  0.4413110E-008  0.1036496E+04  0.7818608E-02  0.9269398E-01
         -2   -1    0    0    0  501 -0.00000000000E+00  0.00000000000E+00  0.92358199436E+02  0.92358199436E+02  0.00000000000E+00 0.  1.
          1   -1    0    0  501    0  0.00000000000E+00 -0.00000000000E+00 -0.29080344564E+04  0.29080344564E+04  0.00000000000E+00 0. -1.
        -24    2    1    2    0    0  0.14563271424E+02 -0.82950745896E+02 -0.18743743320E+03  0.22037250485E+03  0.79613657186E+02 0.  0.
        254    2    1    2    0    0 -0.14563271424E+02  0.82950745896E+02 -0.26282388238E+04  0.27800201510E+04  0.90209745040E+03 0.  0.
         23    2    4    4    0    0  0.18618368450E+03  0.36296750940E+03 -0.66899622857E+03  0.78879586236E+03  0.90736879909E+02 0.  0.
         23    2    4    4    0    0 -0.20074695592E+03 -0.28001676350E+03 -0.19592425952E+04  0.19912242886E+04  0.87372150316E+02 0.  0.
          3    1    3    3  502    0  0.41247905515E+01  0.13992461230E+02 -0.48423875970E+02  0.50573457785E+02  0.00000000000E+00 0. -1.
         -4    1    3    3    0  502  0.10438480873E+02 -0.96943207127E+02 -0.13901355723E+03  0.16979904707E+03  0.00000000000E+00 0.  1.
         11    1    5    5    0    0  0.32019064155E+02  0.81565485476E+02 -0.82944350849E+02  0.12065618189E+03  0.00000000000E+00 0.  1.
        -11    1    5    5    0    0  0.15416462034E+03  0.28140202392E+03 -0.58605187772E+03  0.66813968047E+03  0.00000000000E+00 0. -1.
          4    1    6    6  503    0 -0.16278680185E+03 -0.16780630032E+03 -0.11685802321E+04  0.11917374946E+04  0.00000000000E+00 0. -1.
         -4    1    6    6    0  503 -0.37960154075E+02 -0.11221046318E+03 -0.79066236314E+03  0.79948679403E+03  0.00000000000E+00 0.  1.
<mgrwt>
<rscale>  0 0.10364957E+04</rscale>
<asrwt>0</asrwt>
<pdfrwt beam="1">  1        1 0.44738995E+00 0.10364957E+04</pdfrwt>
<pdfrwt beam="2">  1       -2 0.14208953E-01 0.10364957E+04</pdfrwt>
<totfact> 0.24007298E+01</totfact>
</mgrwt>
</event>
<event>
12    4  0.4413110E-008  0.1257500E+04  0.7818608E-02  0.9063964E-01
         -2   -1    0    0    0  501 -0.00000000000E+00  0.00000000000E+00  0.44235726608E+03  0.44235726608E+03  0.00000000000E+00 0.  1.
          1   -1    0    0  501    0  0.00000000000E+00 -0.00000000000E+00 -0.89368129976E+03  0.89368129976E+03  0.00000000000E+00 0. -1.
        -24    2    1    2    0    0  0.18354058134E+03 -0.22702199581E+03 -0.28401611563E+02  0.30429421257E+03  0.81007312523E+02 0.  0.
        254    2    1    2    0    0 -0.18354058134E+03  0.22702199581E+03 -0.42292242212E+03  0.10317443533E+04  0.89465462821E+03 0.  0.
         23    2    4    4    0    0 -0.47701272838E+03  0.18966905361E+03 -0.48981231578E+03  0.71612720748E+03  0.96987523251E+02 0.  0.
         23    2    4    4    0    0  0.29347214704E+03  0.37352942203E+02  0.66889893662E+02  0.31561714579E+03  0.87285631492E+02 0.  0.
          1    1    3    3  502    0  0.82747973022E+01 -0.15049565240E+02 -0.23623274466E+02  0.29206519492E+02  0.00000000000E+00 0. -1.
         -2    1    3    3    0  502  0.17526578404E+03 -0.21197243057E+03 -0.47783370972E+01  0.27508769308E+03  0.00000000000E+00 0.  1.
         11    1    5    5    0    0 -0.29891581898E+03  0.75682170487E+02 -0.25490539751E+03  0.40006901835E+03  0.00000000000E+00 0. -1.
        -11    1    5    5    0    0 -0.17809690940E+03  0.11398688312E+03 -0.23490691827E+03  0.31605818912E+03  0.00000000000E+00 0.  1.
          3    1    6    6  503    0  0.10428758721E+03 -0.10034107843E+00 -0.16354068445E+02  0.10556214506E+03  0.00000000000E+00 0. -1.
         -3    1    6    6    0  503  0.18918455982E+03  0.37453283282E+02  0.83243962107E+02  0.21005500073E+03  0.00000000000E+00 0.  1.
<mgrwt>
<rscale>  0 0.12574998E+04</rscale>
<asrwt>0</asrwt>
<pdfrwt beam="1">  1        1 0.13748943E+00 0.12574998E+04</pdfrwt>
<pdfrwt beam="2">  1       -2 0.68054966E-01 0.12574998E+04</pdfrwt>
<totfact> 0.31449156E+01</totfact>
</mgrwt>
</event>
<event>
12    4  0.4413110E-008  0.1033064E+04  0.7818608E-02  0.9273006E-01
          1   -1    0    0  501    0  0.00000000000E+00  0.00000000000E+00  0.15786704258E+04  0.15786704258E+04  0.00000000000E+00 0. -1.
         -2   -1    0    0    0  501 -0.00000000000E+00 -0.00000000000E+00 -0.16900645027E+03  0.16900645027E+03  0.00000000000E+00 0.  1.
        -24    2    1    2    0    0  0.16293422631E+02  0.51246095401E+02  0.35001339612E+02  0.10263463472E+03  0.80107031863E+02 0.  0.
        254    2    1    2    0    0 -0.16293422631E+02 -0.51246095401E+02  0.13746626360E+04  0.16450422414E+04  0.90198391081E+03 0.  0.
         23    2    4    4    0    0 -0.20094729494E+03  0.23677227766E+03  0.12417961230E+03  0.34539445932E+03  0.86231256538E+02 0.  0.
         23    2    4    4    0    0  0.18465387231E+03 -0.28801837306E+03  0.12504830237E+04  0.12996477821E+04  0.91241050084E+02 0.  0.
          3    1    3    3  502    0  0.40210270022E+02  0.48335588290E+02  0.44188328107E+02  0.76849224144E+02  0.00000000000E+00 0. -1.
         -2    1    3    3    0  502 -0.23916847392E+02  0.29105071104E+01 -0.91869884948E+01  0.25785410573E+02  0.00000000000E+00 0.  1.
         11    1    5    5    0    0 -0.39855754174E+02  0.11035269774E+03  0.39462322887E+02  0.12378802029E+03  0.00000000000E+00 0. -1.
        -11    1    5    5    0    0 -0.16109154076E+03  0.12641957992E+03  0.84717289410E+02  0.22160643903E+03  0.00000000000E+00 0.  1.
          2    1    6    6  503    0  0.14429071490E+03 -0.27591798186E+03  0.11239929526E+04  0.11663235831E+04  0.00000000000E+00 0.  1.
         -2    1    6    6    0  503  0.40363157409E+02 -0.12100391208E+02  0.12649007109E+03  0.13332419896E+03  0.00000000000E+00 0. -1.
<mgrwt>
<rscale>  0 0.10330643E+04</rscale>
<asrwt>0</asrwt>
<pdfrwt beam="1">  1        1 0.24287236E+00 0.10330643E+04</pdfrwt>
<pdfrwt beam="2">  1       -2 0.26000993E-01 0.10330643E+04</pdfrwt>
<totfact> 0.67725918E+01</totfact>
</mgrwt>
</event>
<event>
12    4  0.4413110E-008  0.1276712E+04  0.7818608E-02  0.9048240E-01
         -2   -1    0    0    0  501 -0.00000000000E+00  0.00000000000E+00  0.12306210870E+04  0.12306210870E+04  0.00000000000E+00 0.  1.
          1   -1    0    0  501    0  0.00000000000E+00 -0.00000000000E+00 -0.33113211963E+03  0.33113211963E+03  0.00000000000E+00 0. -1.
        -24    2    1    2    0    0  0.18516335502E+03  0.16948356813E+03  0.45448365628E+03  0.52382174798E+03  0.69452731539E+02 0.  0.
        254    2    1    2    0    0 -0.18516335502E+03 -0.16948356813E+03  0.44500531108E+03  0.10379314586E+04  0.90347210142E+03 0.  0.
         23    2    4    4    0    0  0.31591425994E+03  0.78923141081E+01 -0.14356550549E+02  0.32932249058E+03  0.91559183072E+02 0.  0.
         23    2    4    4    0    0 -0.50107761496E+03 -0.17737588223E+03  0.45936186163E+03  0.70860896806E+03  0.92587093449E+02 0.  0.
          1    1    3    3  502    0  0.79877159269E+02  0.46519699020E+02  0.11362249115E+03  0.14647359307E+03  0.00000000000E+00 0. -1.
         -2    1    3    3    0  502  0.10528619575E+03  0.12296386911E+03  0.34086116513E+03  0.37734815491E+03  0.00000000000E+00 0.  1.
         11    1    5    5    0    0  0.16224998083E+03  0.20226906372E+02  0.35474928929E+02  0.16731005529E+03  0.00000000000E+00 0. -1.
        -11    1    5    5    0    0  0.15366427912E+03 -0.12334592264E+02 -0.49831479478E+02  0.16201243529E+03  0.00000000000E+00 0.  1.
          1    1    6    6  503    0  0.37235640117E+01  0.13016876825E+01  0.22033060282E+01  0.45181718898E+01  0.00000000000E+00 0. -1.
         -1    1    6    6    0  503 -0.50480117897E+03 -0.17867756992E+03  0.45715855561E+03  0.70409079617E+03  0.00000000000E+00 0.  1.
<mgrwt>
<rscale>  0 0.12767117E+04</rscale>
<asrwt>0</asrwt>
<pdfrwt beam="1">  1        1 0.50943404E-01 0.12767117E+04</pdfrwt>
<pdfrwt beam="2">  1       -2 0.18932632E+00 0.12767117E+04</pdfrwt>
<totfact> 0.10358851E+01</totfact>
</mgrwt>
</event>
<event>
12    4  0.4413110E-008  0.2787076E+04  0.7818608E-02  0.8307292E-01
          1   -1    0    0  501    0  0.00000000000E+00  0.00000000000E+00  0.22197072079E+04  0.22197072079E+04  0.00000000000E+00 0. -1.
         -2   -1    0    0    0  501 -0.00000000000E+00 -0.00000000000E+00 -0.87486698894E+03  0.87486698894E+03  0.00000000000E+00 0.  1.
        -24    2    1    2    0    0 -0.42931567473E+03 -0.10114315276E+04 -0.75663758651E+02  0.11042540325E+04  0.79663544658E+02 0.  0.
        254    2    1    2    0    0  0.42931567473E+03  0.10114315276E+04  0.14205039776E+04  0.19903201644E+04  0.85804261120E+03 0.  0.
         23    2    4    4    0    0  0.19504815423E+03  0.11026465834E+04  0.10977175285E+04  0.15709806816E+04  0.95515753704E+02 0.  0.
         23    2    4    4    0    0  0.23426752049E+03 -0.91215055758E+02  0.32278644913E+03  0.41933948281E+03  0.91940483702E+02 0.  0.
          1    1    3    3  502    0 -0.36074798809E+01 -0.31968654803E+02 -0.12152119874E+02  0.34390155837E+02  0.00000000000E+00 0. -1.
         -2    1    3    3    0  502 -0.42570819485E+03 -0.97946287279E+03 -0.63511638776E+02  0.10698638767E+04  0.00000000000E+00 0.  1.
         11    1    5    5    0    0 -0.97727666236E+01  0.61108010566E+02  0.50602554525E+02  0.79939442375E+02  0.00000000000E+00 0.  1.
        -11    1    5    5    0    0  0.20482092086E+03  0.10415385728E+04  0.10471149740E+04  0.14910412392E+04  0.00000000000E+00 0. -1.
          4    1    6    6  503    0  0.76965116550E+02 -0.78187052307E+02  0.13881835217E+03  0.17693891379E+03  0.00000000000E+00 0. -1.
         -4    1    6    6    0  503  0.15730240394E+03 -0.13028003451E+02  0.18396809696E+03  0.24240056902E+03  0.00000000000E+00 0.  1.
<mgrwt>
<rscale>  0 0.27870763E+04</rscale>
<asrwt>0</asrwt>
<pdfrwt beam="1">  1        1 0.34149341E+00 0.27870763E+04</pdfrwt>
<pdfrwt beam="2">  1       -2 0.13459492E+00 0.27870763E+04</pdfrwt>
<totfact> 0.63978679E-01</totfact>
</mgrwt>
</event>
<event>
12    4  0.4413110E-008  0.1489119E+04  0.7818608E-02  0.8891721E-01
         -4   -1    0    0    0  501 -0.00000000000E+00  0.00000000000E+00  0.84803154170E+03  0.84803154170E+03  0.00000000000E+00 0.  1.
          3   -1    0    0  501    0  0.00000000000E+00 -0.00000000000E+00 -0.65371264884E+03  0.65371264884E+03  0.00000000000E+00 0. -1.
        -24    2    1    2    0    0 -0.10598541080E+03 -0.43162181658E+03 -0.90410197328E+02  0.46043294300E+03  0.79335939926E+02 0.  0.
        254    2    1    2    0    0  0.10598541080E+03  0.43162181658E+03  0.28472909019E+03  0.10413112475E+04  0.89762361802E+03 0.  0.
         23    2    4    4    0    0 -0.38097949897E+03  0.27821835431E+03  0.99419852233E+02  0.49074411721E+03  0.91622323979E+02 0.  0.
         23    2    4    4    0    0  0.48696490977E+03  0.15340346227E+03  0.18530923796E+03  0.55056713034E+03  0.90095536816E+02 0.  0.
          1    1    3    3  502    0 -0.95546120010E+02 -0.39800731321E+03 -0.10462114508E+03  0.42247421982E+03  0.00000000000E+00 0. -1.
         -2    1    3    3    0  502 -0.10439290791E+02 -0.33614503373E+02  0.14210947748E+02  0.37958723176E+02  0.00000000000E+00 0.  1.
         11    1    5    5    0    0 -0.31760046214E+03  0.19058784795E+03  0.95569429569E+02  0.38252751170E+03  0.00000000000E+00 0. -1.
        -11    1    5    5    0    0 -0.63379036826E+02  0.87630506359E+02  0.38504226642E+01  0.10821660551E+03  0.00000000000E+00 0.  1.
          1    1    6    6  503    0  0.29661024743E+03  0.71308636418E+02  0.68638908730E+02  0.31268811985E+03  0.00000000000E+00 0. -1.
         -1    1    6    6    0  503  0.19035466234E+03  0.82094825856E+02  0.11667032922E+03  0.23787901049E+03  0.00000000000E+00 0.  1.
<mgrwt>
<rscale>  0 0.14891191E+04</rscale>
<asrwt>0</asrwt>
<pdfrwt beam="1">  1        3 0.10057118E+00 0.14891191E+04</pdfrwt>
<pdfrwt beam="2">  1       -4 0.13046639E+00 0.14891191E+04</pdfrwt>
<totfact> 0.81900985E-01</totfact>
</mgrwt>
</event>
<event>
12    4  0.4413110E-008  0.1137255E+04  0.7818608E-02  0.9169622E-01
         -2   -1    0    0    0  501 -0.00000000000E+00  0.00000000000E+00  0.64897268917E+03  0.64897268917E+03  0.00000000000E+00 0.  1.
          1   -1    0    0  501    0  0.00000000000E+00 -0.00000000000E+00 -0.49822945621E+03  0.49822945621E+03  0.00000000000E+00 0. -1.
        -24    2    1    2    0    0 -0.41292077395E+02  0.16624014492E+03 -0.84024906737E+02  0.20591838709E+03  0.77468546852E+02 0.  0.
        254    2    1    2    0    0  0.41292077395E+02 -0.16624014492E+03  0.23476813970E+03  0.94128375829E+03  0.89529783466E+03 0.  0.
         23    2    4    4    0    0 -0.36684314319E+03  0.12997421655E+03  0.91835359598E+02  0.40925614791E+03  0.87118727364E+02 0.  0.
         23    2    4    4    0    0  0.40813522059E+03 -0.29621436147E+03  0.14293278011E+03  0.53202761037E+03  0.91138862996E+02 0.  0.
          3    1    3    3  502    0 -0.14692769134E+02  0.72474049147E+02 -0.79166537813E+02  0.10833146345E+03  0.00000000000E+00 0. -1.
         -4    1    3    3    0  502 -0.26599308261E+02  0.93766095775E+02 -0.48583689239E+01  0.97586923640E+02  0.00000000000E+00 0.  1.
         11    1    5    5    0    0 -0.21896506297E+02  0.34572161218E+02  0.93448655003E+01  0.41976396112E+02  0.00000000000E+00 0.  1.
        -11    1    5    5    0    0 -0.34494663689E+03  0.95402055329E+02  0.82490494098E+02  0.36727975180E+03  0.00000000000E+00 0. -1.
          2    1    6    6  503    0  0.27145446415E+03 -0.15236503768E+03  0.60291338896E+02  0.31707676730E+03  0.00000000000E+00 0. -1.
         -2    1    6    6    0  503  0.13668075644E+03 -0.14384932379E+03  0.82641441209E+02  0.21495084308E+03  0.00000000000E+00 0.  1.
<mgrwt>
<rscale>  0 0.11372551E+04</rscale>
<asrwt>0</asrwt>
<pdfrwt beam="1">  1        1 0.76650686E-01 0.11372551E+04</pdfrwt>
<pdfrwt beam="2">  1       -2 0.99841952E-01 0.11372551E+04</pdfrwt>
<totfact> 0.32105848E+01</totfact>
</mgrwt>
</event>
<event>
12    4  0.4413110E-008  0.2158368E+04  0.7818608E-02  0.8535959E-01
          1   -1    0    0  501    0  0.00000000000E+00  0.00000000000E+00  0.51912071463E+03  0.51912071463E+03  0.00000000000E+00 0. -1.
         -2   -1    0    0    0  501 -0.00000000000E+00 -0.00000000000E+00 -0.22434827823E+04  0.22434827823E+04  0.00000000000E+00 0.  1.
        -24    2    1    2    0    0  0.10382350908E+03  0.85866430392E+03 -0.88271062253E+03  0.12382380153E+04  0.77276331800E+02 0.  0.
        254    2    1    2    0    0 -0.10382350908E+03 -0.85866430392E+03 -0.84165144512E+03  0.15243654817E+04  0.93125144764E+03 0.  0.
         23    2    4    4    0    0  0.86972270845E+02 -0.24330150205E+02 -0.62445644458E+03  0.63712783531E+03  0.88486695275E+02 0.  0.
         23    2    4    4    0    0 -0.19079577993E+03 -0.83433415371E+03 -0.21719500054E+03  0.88723764635E+03  0.86605214353E+02 0.  0.
          1    1    3    3  502    0  0.17401523760E+02  0.10303637488E+03 -0.73775976304E+02  0.12791482422E+03  0.00000000000E+00 0. -1.
         -2    1    3    3    0  502  0.86421985321E+02  0.75562792904E+03 -0.80893464623E+03  0.11103231910E+04  0.00000000000E+00 0.  1.
         11    1    5    5    0    0 -0.21996644658E+01  0.15516648143E+02 -0.23817147581E+03  0.23868652409E+03  0.00000000000E+00 0. -1.
        -11    1    5    5    0    0  0.89171935310E+02 -0.39846798349E+02 -0.38628496877E+03  0.39844131122E+03  0.00000000000E+00 0.  1.
          1    1    6    6  503    0 -0.74913198566E+02 -0.43028748306E+03 -0.14856272221E+03  0.46133522283E+03  0.00000000000E+00 0. -1.
         -1    1    6    6    0  503 -0.11588258136E+03 -0.40404667065E+03 -0.68632278332E+02  0.42590242352E+03  0.00000000000E+00 0.  1.
<mgrwt>
<rscale>  0 0.21583683E+04</rscale>
<asrwt>0</asrwt>
<pdfrwt beam="1">  1        1 0.79864726E-01 0.21583683E+04</pdfrwt>
<pdfrwt beam="2">  1       -2 0.34515120E+00 0.21583683E+04</pdfrwt>
<totfact> 0.56353117E-01</totfact>
</mgrwt>
</event>
<event>
12    4  0.4413110E-008  0.1368541E+04  0.7818608E-02  0.8976910E-01
          1   -1    0    0  501    0  0.00000000000E+00  0.00000000000E+00  0.17728171733E+04  0.17728171733E+04  0.00000000000E+00 0. -1.
         -2   -1    0    0    0  501 -0.00000000000E+00 -0.00000000000E+00 -0.26411415561E+03  0.26411415561E+03  0.00000000000E+00 0.  1.
        -24    2    1    2    0    0 -0.89356457619E+02  0.26125784804E+03  0.34407224007E+02  0.28843619923E+03  0.75969364120E+02 0.  0.
        254    2    1    2    0    0  0.89356457619E+02 -0.26125784804E+03  0.14742957937E+04  0.17484951297E+04  0.89858048694E+03 0.  0.
         23    2    4    4    0    0  0.14674569645E+03 -0.43753286093E+03  0.30314918514E+03  0.55904627043E+03  0.87544275718E+02 0.  0.
         23    2    4    4    0    0 -0.57389238834E+02  0.17627501289E+03  0.11711466085E+04  0.11894488592E+04  0.94009601245E+02 0.  0.
          3    1    3    3  502    0 -0.54723253836E+01  0.81662826826E+02  0.37879116538E+02  0.90186424144E+02  0.00000000000E+00 0. -1.
         -4    1    3    3    0  502 -0.83884132235E+02  0.17959502121E+03 -0.34718925316E+01  0.19824977509E+03  0.00000000000E+00 0.  1.
         11    1    5    5    0    0  0.58642113179E+02 -0.26056264597E+03  0.21375109824E+03  0.34208379370E+03  0.00000000000E+00 0. -1.
        -11    1    5    5    0    0  0.88103583274E+02 -0.17697021496E+03  0.89398086906E+02  0.21696247674E+03  0.00000000000E+00 0.  1.
          4    1    6    6  503    0 -0.41270957576E+02  0.15630246990E+03  0.73594234709E+03  0.75348848184E+03  0.00000000000E+00 0. -1.
         -4    1    6    6    0  503 -0.16118281257E+02  0.19972542994E+02  0.43520426145E+03  0.43596037738E+03  0.00000000000E+00 0.  1.
<mgrwt>
<rscale>  0 0.13685410E+04</rscale>
<asrwt>0</asrwt>
<pdfrwt beam="1">  1        1 0.27274110E+00 0.13685410E+04</pdfrwt>
<pdfrwt beam="2">  1       -2 0.40632948E-01 0.13685410E+04</pdfrwt>
<totfact> 0.20922925E+01</totfact>
</mgrwt>
</event>
<event>
12    4  0.4413110E-008  0.1345697E+04  0.7818608E-02  0.8994092E-01
          1   -1    0    0  501    0  0.00000000000E+00  0.00000000000E+00  0.10910674964E+04  0.10910674964E+04  0.00000000000E+00 0. -1.
         -2   -1    0    0    0  501 -0.00000000000E+00 -0.00000000000E+00 -0.41493781024E+03  0.41493781024E+03  0.00000000000E+00 0.  1.
        -24    2    1    2    0    0  0.30299973220E+03  0.14029434055E+03  0.29652845861E+01  0.34322407618E+03  0.79389129311E+02 0.  0.
        254    2    1    2    0    0 -0.30299973220E+03 -0.14029434055E+03  0.67316440155E+03  0.11627812304E+04  0.88736606801E+03 0.  0.
         23    2    4    4    0    0  0.12358736678E+03 -0.40812390577E+03  0.29313288347E+03  0.52543908000E+03  0.91216115490E+02 0.  0.
         23    2    4    4    0    0 -0.42658709897E+03  0.26782956522E+03  0.38003151807E+03  0.63734215044E+03  0.89843380320E+02 0.  0.
          1    1    3    3  502    0  0.14548861185E+03  0.45150821761E+02  0.35345697805E+02  0.15638046948E+03  0.00000000000E+00 0. -1.
         -2    1    3    3    0  502  0.15751112035E+03  0.95143518792E+02 -0.32380413219E+02  0.18684360670E+03  0.00000000000E+00 0.  1.
         11    1    5    5    0    0  0.84894248394E+02 -0.13537161484E+03  0.92410877756E+02  0.18458677591E+03  0.00000000000E+00 0.  1.
        -11    1    5    5    0    0  0.38693118381E+02 -0.27275229094E+03  0.20072200572E+03  0.34085230409E+03  0.00000000000E+00 0. -1.
          2    1    6    6  503    0 -0.18448813324E+02  0.32763869633E+02  0.48499508312E+02  0.61368006102E+02  0.00000000000E+00 0.  1.
         -2    1    6    6    0  503 -0.40813828565E+03  0.23506569559E+03  0.33153200976E+03  0.57597414434E+03  0.00000000000E+00 0. -1.
<mgrwt>
<rscale>  0 0.13456971E+04</rscale>
<asrwt>0</asrwt>
<pdfrwt beam="1">  1        1 0.16785654E+00 0.13456971E+04</pdfrwt>
<pdfrwt beam="2">  1       -2 0.63836587E-01 0.13456971E+04</pdfrwt>
<totfact> 0.25092632E+01</totfact>
</mgrwt>
</event>
<event>
12    4  0.4413110E-008  0.1777639E+04  0.7818608E-02  0.8718282E-01
          1   -1    0    0  501    0  0.00000000000E+00  0.00000000000E+00  0.62633314901E+03  0.62633314901E+03  0.00000000000E+00 0. -1.
         -2   -1    0    0    0  501 -0.00000000000E+00 -0.00000000000E+00 -0.12613097840E+04  0.12613097840E+04  0.00000000000E+00 0.  1.
        -24    2    1    2    0    0 -0.20828644042E+03  0.27468034274E+03  0.33881131896E+03  0.48917442647E+03  0.75272689032E+02 0.  0.
        254    2    1    2    0    0  0.20828644042E+03 -0.27468034274E+03 -0.97378795397E+03  0.13984685066E+04  0.94266571626E+03 0.  0.
         23    2    4    4    0    0  0.49891935375E+03 -0.41797692728E+03 -0.72348176180E+03  0.97740672063E+03  0.90954959226E+02 0.  0.
         23    2    4    4    0    0 -0.29063291332E+03  0.14329658454E+03 -0.25030619218E+03  0.42106178594E+03  0.98175538132E+02 0.  0.
          1    1    3    3  502    0 -0.82569800732E+02  0.14546280501E+03  0.20544166982E+03  0.26492164754E+03  0.00000000000E+00 0. -1.
         -2    1    3    3    0  502 -0.12571663969E+03  0.12921753772E+03  0.13336964914E+03  0.22425277894E+03  0.00000000000E+00 0.  1.
         11    1    5    5    0    0  0.39781646806E+02 -0.66593348595E+02 -0.10783072187E+03  0.13283342230E+03  0.00000000000E+00 0. -1.
        -11    1    5    5    0    0  0.45913770694E+03 -0.35138357868E+03 -0.61565103992E+03  0.84457329833E+03  0.00000000000E+00 0.  1.
          4    1    6    6  503    0 -0.19175447071E+02  0.46056796908E+02 -0.43871612471E+02  0.66435266934E+02  0.00000000000E+00 0. -1.
         -4    1    6    6    0  503 -0.27145746625E+03  0.97239787633E+02 -0.20643457971E+03  0.35462651900E+03  0.00000000000E+00 0.  1.
<mgrwt>
<rscale>  0 0.17776390E+04</rscale>
<asrwt>0</asrwt>
<pdfrwt beam="1">  1        1 0.96358946E-01 0.17776390E+04</pdfrwt>
<pdfrwt beam="2">  1       -2 0.19404766E+00 0.17776390E+04</pdfrwt>
<totfact> 0.38744823E+00</totfact>
</mgrwt>
</event>
<event>
12    4  0.4413110E-008  0.1951162E+04  0.7818608E-02  0.8629801E-01
         -2   -1    0    0    0  501 -0.00000000000E+00  0.00000000000E+00  0.19997782065E+04  0.19997782065E+04  0.00000000000E+00 0.  1.
          1   -1    0    0  501    0  0.00000000000E+00 -0.00000000000E+00 -0.47593185830E+03  0.47593185830E+03  0.00000000000E+00 0. -1.
        -24    2    1    2    0    0  0.19173664619E+03 -0.74766050664E+03  0.59667451181E+03  0.97879254587E+03  0.79089823172E+02 0.  0.
        254    2    1    2    0    0 -0.19173664619E+03  0.74766050664E+03  0.92717183641E+03  0.14969175189E+04  0.88620272490E+03 0.  0.
         23    2    4    4    0    0 -0.23487148591E+03  0.58090647719E+03  0.10789033150E+04  0.12509369726E+04  0.90520694585E+02 0.  0.
         23    2    4    4    0    0  0.43134839719E+02  0.16675402945E+03 -0.15173147860E+03  0.24598054635E+03  0.88410784682E+02 0.  0.
          1    1    3    3  502    0  0.13703934773E+03 -0.61638961240E+03  0.45702520538E+03  0.77947929764E+03  0.00000000000E+00 0. -1.
         -2    1    3    3    0  502  0.54697298457E+02 -0.13127089424E+03  0.13964930644E+03  0.19931324823E+03  0.00000000000E+00 0.  1.
         11    1    5    5    0    0 -0.14340563273E+03  0.26174505622E+03  0.45408803681E+03  0.54338899062E+03  0.00000000000E+00 0. -1.
        -11    1    5    5    0    0 -0.91465853181E+02  0.31916142098E+03  0.62481527820E+03  0.70754798198E+03  0.00000000000E+00 0.  1.
          1    1    6    6  503    0  0.68173580231E+02  0.11766964959E+03 -0.89201908919E+02  0.16263690857E+03  0.00000000000E+00 0. -1.
         -1    1    6    6    0  503 -0.25038740512E+02  0.49084379860E+02 -0.62529569682E+02  0.83343637773E+02  0.00000000000E+00 0.  1.
<mgrwt>
<rscale>  0 0.19511619E+04</rscale>
<asrwt>0</asrwt>
<pdfrwt beam="1">  1        1 0.73220287E-01 0.19511619E+04</pdfrwt>
<pdfrwt beam="2">  1       -2 0.30765818E+00 0.19511619E+04</pdfrwt>
<totfact> 0.11047725E+00</totfact>
</mgrwt>
</event>
<event>
12    4  0.4413110E-008  0.1829005E+04  0.7818608E-02  0.8691025E-01
          1   -1    0    0  501    0  0.00000000000E+00  0.00000000000E+00  0.35645922705E+04  0.35645922705E+04  0.00000000000E+00 0. -1.
         -2   -1    0    0    0  501 -0.00000000000E+00 -0.00000000000E+00 -0.23461712321E+03  0.23461712321E+03  0.00000000000E+00 0.  1.
        -24    2    1    2    0    0  0.18099302254E+03 -0.41690684383E+03  0.23269893807E+04  0.23729922270E+04  0.98197456822E+02 0.  0.
        254    2    1    2    0    0 -0.18099302254E+03  0.41690684383E+03  0.10029857665E+04  0.14262171667E+04  0.90639128864E+03 0.  0.
         23    2    4    4    0    0 -0.21871756145E+03  0.29931925963E+03  0.11518197585E+04  0.12133749632E+04  0.90336340226E+02 0.  0.
         23    2    4    4    0    0  0.37724538910E+02  0.11758758421E+03 -0.14883399203E+03  0.21284220347E+03  0.88883438264E+02 0.  0.
          3    1    3    3  502    0  0.10745318325E+03 -0.33215176597E+03  0.16234572326E+04  0.16605674838E+04  0.00000000000E+00 0. -1.
         -4    1    3    3    0  502  0.73539839296E+02 -0.84755077861E+02  0.70353214812E+03  0.71242474313E+03  0.00000000000E+00 0.  1.
         11    1    5    5    0    0 -0.20433372847E+03  0.29355430503E+03  0.11370144406E+04  0.11919430526E+04  0.00000000000E+00 0. -1.
        -11    1    5    5    0    0 -0.14383832982E+02  0.57649545948E+01  0.14805317958E+02  0.21431910614E+02  0.00000000000E+00 0.  1.
          2    1    6    6  503    0 -0.69024797718E+00  0.29730510604E+02  0.63636339451E+01  0.30411766473E+02  0.00000000000E+00 0.  1.
         -2    1    6    6    0  503  0.38414786887E+02  0.87857073604E+02 -0.15519762597E+03  0.18243043699E+03  0.00000000000E+00 0. -1.
<mgrwt>
<rscale>  0 0.18290045E+04</rscale>
<asrwt>0</asrwt>
<pdfrwt beam="1">  1        1 0.54839877E+00 0.18290045E+04</pdfrwt>
<pdfrwt beam="2">  1       -2 0.36094944E-01 0.18290045E+04</pdfrwt>
<totfact> 0.13347522E+00</totfact>
</mgrwt>
</event>
<event>
12    4  0.4413110E-008  0.2543219E+04  0.7818608E-02  0.8387748E-01
          1   -1    0    0  501    0  0.00000000000E+00  0.00000000000E+00  0.12293867446E+04  0.12293867446E+04  0.00000000000E+00 0. -1.
         -2   -1    0    0    0  501 -0.00000000000E+00 -0.00000000000E+00 -0.13152823250E+04  0.13152823250E+04  0.00000000000E+00 0.  1.
        -24    2    1    2    0    0  0.85657605251E+03 -0.74583923883E+02 -0.67750933155E+03  0.10970054689E+04  0.71531874011E+02 0.  0.
        254    2    1    2    0    0 -0.85657605251E+03  0.74583923883E+02  0.59161375120E+03  0.14476636007E+04  0.10032137234E+04 0.  0.
         23    2    4    4    0    0 -0.50890839141E+03  0.46050674544E+03  0.60566568201E+03  0.91984869569E+03  0.90755116361E+02 0.  0.
         23    2    4    4    0    0 -0.34766766109E+03 -0.38592282156E+03 -0.14051930807E+02  0.52781490504E+03  0.92638493388E+02 0.  0.
          3    1    3    3  502    0  0.20675970618E+03 -0.47720540494E+02 -0.15606997907E+03  0.26340968937E+03  0.00000000000E+00 0. -1.
         -4    1    3    3    0  502  0.64981634633E+03 -0.26863383389E+02 -0.52143935248E+03  0.83359577952E+03  0.00000000000E+00 0.  1.
         11    1    5    5    0    0 -0.50472589284E+03  0.44463100496E+03  0.60271778519E+03  0.90316869192E+03  0.00000000000E+00 0. -1.
        -11    1    5    5    0    0 -0.41824985716E+01  0.15875740477E+02  0.29478968182E+01  0.16680003766E+02  0.00000000000E+00 0.  1.
          3    1    6    6  503    0 -0.16769035812E+03 -0.20824215144E+03  0.36675103492E+02  0.26987017816E+03  0.00000000000E+00 0. -1.
         -3    1    6    6    0  503 -0.17997730297E+03 -0.17768067012E+03 -0.50727034300E+02  0.25794472688E+03  0.00000000000E+00 0.  1.
<mgrwt>
<rscale>  0 0.25432189E+04</rscale>
<asrwt>0</asrwt>
<pdfrwt beam="1">  1        1 0.18913642E+00 0.25432189E+04</pdfrwt>
<pdfrwt beam="2">  1       -2 0.20235113E+00 0.25432189E+04</pdfrwt>
<totfact> 0.10140164E+00</totfact>
</mgrwt>
</event>
<event>
12    4  0.4413110E-008  0.1574519E+04  0.7818608E-02  0.8836356E-01
          1   -1    0    0  501    0  0.00000000000E+00  0.00000000000E+00  0.61616058956E+03  0.61616058956E+03  0.00000000000E+00 0. -1.
         -2   -1    0    0    0  501 -0.00000000000E+00 -0.00000000000E+00 -0.10058706205E+04  0.10058706205E+04  0.00000000000E+00 0.  1.
        -24    2    1    2    0    0 -0.26363623368E+03  0.43497046369E+03  0.13344457978E+02  0.51531018326E+03  0.81628073707E+02 0.  0.
        254    2    1    2    0    0  0.26363623368E+03 -0.43497046369E+03 -0.40305448896E+03  0.11067210268E+04  0.89647930383E+03 0.  0.
         23    2    4    4    0    0  0.18272737449E+03  0.61297828654E+02  0.21637821714E+03  0.30375307389E+03  0.91102578782E+02 0.  0.
         23    2    4    4    0    0  0.80908859192E+02 -0.49626829235E+03 -0.61943270610E+03  0.80296795295E+03  0.90731442178E+02 0.  0.
          1    1    3    3  502    0 -0.19964674622E+03  0.35218747208E+03 -0.20453808146E+02  0.40535564266E+03  0.00000000000E+00 0. -1.
         -2    1    3    3    0  502 -0.63989487459E+02  0.82782991608E+02  0.33798266125E+02  0.10995454060E+03  0.00000000000E+00 0.  1.
         11    1    5    5    0    0  0.17607531860E+02  0.49595792195E+01  0.80677590496E+02  0.82725426638E+02  0.00000000000E+00 0.  1.
        -11    1    5    5    0    0  0.16511984263E+03  0.56338249435E+02  0.13570062665E+03  0.22102764725E+03  0.00000000000E+00 0. -1.
          1    1    6    6  503    0 -0.96523619324E+01 -0.20589384218E+03 -0.23045606894E+03  0.30918512586E+03  0.00000000000E+00 0. -1.
         -1    1    6    6    0  503  0.90561221124E+02 -0.29037445016E+03 -0.38897663716E+03  0.49378282710E+03  0.00000000000E+00 0.  1.
<mgrwt>
<rscale>  0 0.15745194E+04</rscale>
<asrwt>0</asrwt>
<pdfrwt beam="1">  1        1 0.94793937E-01 0.15745194E+04</pdfrwt>
<pdfrwt beam="2">  1       -2 0.15474933E+00 0.15745194E+04</pdfrwt>
<totfact> 0.76401296E+00</totfact>
</mgrwt>
</event>
<event>
12    4  0.4413110E-008  0.1902585E+04  0.7818608E-02  0.8653571E-01
         -2   -1    0    0    0  501 -0.00000000000E+00  0.00000000000E+00  0.43591449454E+03  0.43591449454E+03  0.00000000000E+00 0.  1.
          1   -1    0    0  501    0  0.00000000000E+00 -0.00000000000E+00 -0.20759980815E+04  0.20759980815E+04  0.00000000000E+00 0. -1.
        -24    2    1    2    0    0  0.64408233070E+03 -0.31745115527E+03 -0.79733109908E+03  0.10759765936E+04  0.79821448471E+02 0.  0.
        254    2    1    2    0    0 -0.64408233070E+03  0.31745115527E+03 -0.84275248786E+03  0.14359359825E+04  0.91436486439E+03 0.  0.
         23    2    4    4    0    0 -0.70176209716E+03  0.32501885089E+03 -0.22684683126E+03  0.81138719706E+03  0.93714482650E+02 0.  0.
         23    2    4    4    0    0  0.57679766466E+02 -0.75676956193E+01 -0.61590565660E+03  0.62454878540E+03  0.85657352472E+02 0.  0.
          3    1    3    3  502    0  0.33229147907E+03 -0.12820106616E+03 -0.42963887197E+03  0.55807051592E+03  0.00000000000E+00 0. -1.
         -4    1    3    3    0  502  0.31179085163E+03 -0.18925008911E+03 -0.36769222711E+03  0.51790607764E+03  0.00000000000E+00 0.  1.
         11    1    5    5    0    0 -0.51893065817E+03  0.24207595494E+03 -0.21002400415E+03  0.60991792748E+03  0.00000000000E+00 0. -1.
        -11    1    5    5    0    0 -0.18283143899E+03  0.82942895951E+02 -0.16822827111E+02  0.20146926958E+03  0.00000000000E+00 0.  1.
          3    1    6    6  503    0  0.71671434060E+02 -0.12099189636E+02 -0.31472705249E+03  0.32301130385E+03  0.00000000000E+00 0. -1.
         -3    1    6    6    0  503 -0.13991667594E+02  0.45314940165E+01 -0.30117860412E+03  0.30153748155E+03  0.00000000000E+00 0.  1.
<mgrwt>
<rscale>  0 0.19025852E+04</rscale>
<asrwt>0</asrwt>
<pdfrwt beam="1">  1        1 0.31938433E+00 0.19025852E+04</pdfrwt>
<pdfrwt beam="2">  1       -2 0.67063767E-01 0.19025852E+04</pdfrwt>
<totfact> 0.44360080E+00</totfact>
</mgrwt>
</event>
<event>
12    4  0.4413110E-008  0.2677652E+04  0.7818608E-02  0.8342293E-01
          1   -1    0    0  501    0  0.00000000000E+00  0.00000000000E+00  0.10227910862E+04  0.10227910862E+04  0.00000000000E+00 0. -1.
         -2   -1    0    0    0  501 -0.00000000000E+00 -0.00000000000E+00 -0.17525137123E+04  0.17525137123E+04  0.00000000000E+00 0.  1.
        -24    2    1    2    0    0 -0.80329632098E+01  0.24574857133E+02  0.90487358980E+03  0.90877805582E+03  0.80080516489E+02 0.  0.
        254    2    1    2    0    0  0.80329632098E+01 -0.24574857133E+02 -0.16345962159E+04  0.18665267427E+04  0.90074904398E+03 0.  0.
         23    2    4    4    0    0  0.77074595547E+02  0.32718296888E+03 -0.23921480810E+03  0.42246907797E+03  0.90924193809E+02 0.  0.
         23    2    4    4    0    0 -0.69041632337E+02 -0.35175782601E+03 -0.13953814078E+04  0.14440576647E+04  0.98554303956E+02 0.  0.
          3    1    3    3  502    0 -0.33386349192E+02  0.27611902189E+02  0.78598804827E+03  0.78718122277E+03  0.00000000000E+00 0. -1.
         -4    1    3    3    0  502  0.25353385982E+02 -0.30370450558E+01  0.11888554153E+03  0.12159683305E+03  0.00000000000E+00 0.  1.
         11    1    5    5    0    0  0.72679201972E+02  0.11747640248E+03 -0.10396408620E+03  0.17289159251E+03  0.00000000000E+00 0. -1.
        -11    1    5    5    0    0  0.43953935743E+01  0.20970656639E+03 -0.13525072190E+03  0.24957748546E+03  0.00000000000E+00 0.  1.
          3    1    6    6  503    0 -0.91466544830E+02 -0.23982722430E+03 -0.10118321189E+04  0.10438809622E+04  0.00000000000E+00 0. -1.
         -3    1    6    6    0  503  0.22424912493E+02 -0.11193060171E+03 -0.38354928885E+03  0.40017670257E+03  0.00000000000E+00 0.  1.
<mgrwt>
<rscale>  0 0.26776523E+04</rscale>
<asrwt>0</asrwt>
<pdfrwt beam="1">  1        1 0.15735248E+00 0.26776523E+04</pdfrwt>
<pdfrwt beam="2">  1       -2 0.26961749E+00 0.26776523E+04</pdfrwt>
<totfact> 0.54317109E-01</totfact>
</mgrwt>
</event>
<event>
12    4  0.4413110E-008  0.1083437E+04  0.7818608E-02  0.9221488E-01
         -2   -1    0    0    0  501 -0.00000000000E+00  0.00000000000E+00  0.21544671050E+03  0.21544671050E+03  0.00000000000E+00 0.  1.
          1   -1    0    0  501    0  0.00000000000E+00 -0.00000000000E+00 -0.13620946826E+04  0.13620946826E+04  0.00000000000E+00 0. -1.
        -24    2    1    2    0    0  0.15511288464E+02 -0.10277756277E+03 -0.31913346190E+03  0.34543471780E+03  0.81701592890E+02 0.  0.
        254    2    1    2    0    0 -0.15511288464E+02  0.10277756277E+03 -0.82751451023E+03  0.12321066753E+04  0.90691938300E+03 0.  0.
         23    2    4    4    0    0  0.27699194039E+02 -0.16084082432E+03  0.13389982127E+03  0.23001900765E+03  0.91337646248E+02 0.  0.
         23    2    4    4    0    0 -0.43210482503E+02  0.26361838709E+03 -0.96141433150E+03  0.10020876677E+04  0.92197489592E+02 0.  0.
          1    1    3    3  502    0  0.34840358355E+02 -0.10449567005E+03 -0.29192597413E+03  0.31201597716E+03  0.00000000000E+00 0. -1.
         -2    1    3    3    0  502 -0.19329069891E+02  0.17181072841E+01 -0.27207487764E+02  0.33418740639E+02  0.00000000000E+00 0.  1.
         11    1    5    5    0    0  0.23104090031E+02 -0.14429251939E+03  0.66652949570E+02  0.16061365388E+03  0.00000000000E+00 0. -1.
        -11    1    5    5    0    0  0.45951040083E+01 -0.16548304936E+02  0.67246871704E+02  0.69405353763E+02  0.00000000000E+00 0.  1.
          3    1    6    6  503    0 -0.50676937282E+02  0.23515541706E+03 -0.72539113915E+03  0.76423721900E+03  0.00000000000E+00 0. -1.
         -3    1    6    6    0  503  0.74664547784E+01  0.28462970033E+02 -0.23602319235E+03  0.23785044868E+03  0.00000000000E+00 0.  1.
<mgrwt>
<rscale>  0 0.10834368E+04</rscale>
<asrwt>0</asrwt>
<pdfrwt beam="1">  1        1 0.20955303E+00 0.10834368E+04</pdfrwt>
<pdfrwt beam="2">  1       -2 0.33145647E-01 0.10834368E+04</pdfrwt>
<totfact> 0.60747863E+01</totfact>
</mgrwt>
</event>
<event>
12    4  0.4413110E-008  0.2011250E+04  0.7818608E-02  0.8601379E-01
         -4   -1    0    0    0  501 -0.00000000000E+00  0.00000000000E+00  0.32273094657E+03  0.32273094657E+03  0.00000000000E+00 0.  1.
          1   -1    0    0  501    0  0.00000000000E+00 -0.00000000000E+00 -0.31335119784E+04  0.31335119784E+04  0.00000000000E+00 0. -1.
        -24    2    1    2    0    0  0.64649054030E+03  0.19351130721E+03 -0.37165149950E+03  0.77449891478E+03  0.79542989656E+02 0.  0.
        254    2    1    2    0    0 -0.64649054030E+03 -0.19351130721E+03 -0.24391295323E+04  0.26817440102E+04  0.88713100271E+03 0.  0.
         23    2    4    4    0    0 -0.23817209266E+02  0.12309673801E+03 -0.13909583195E+02  0.15625471670E+03  0.92206255873E+02 0.  0.
         23    2    4    4    0    0 -0.62267333104E+03 -0.31660804521E+03 -0.24252199491E+04  0.25254892935E+04  0.91878388918E+02 0.  0.
          1    1    3    3  502    0  0.21757557255E+03  0.71384072721E+02 -0.84475429761E+02  0.24407153428E+03  0.00000000000E+00 0. -1.
         -2    1    3    3    0  502  0.42891496775E+03  0.12212723449E+03 -0.28717606974E+03  0.53042738051E+03  0.00000000000E+00 0.  1.
         11    1    5    5    0    0 -0.35709868952E+01  0.13018689470E+03  0.81012797840E+00  0.13023838069E+03  0.00000000000E+00 0. -1.
        -11    1    5    5    0    0 -0.20246222371E+02 -0.70901566927E+01 -0.14719711173E+02  0.26016336008E+02  0.00000000000E+00 0.  1.
          2    1    6    6  503    0 -0.42953539894E+03 -0.17454880955E+03 -0.15287234649E+04  0.15974865815E+04  0.00000000000E+00 0. -1.
         -2    1    6    6    0  503 -0.19313793209E+03 -0.14205923567E+03 -0.89649648423E+03  0.92800271201E+03  0.00000000000E+00 0.  1.
<mgrwt>
<rscale>  0 0.20112496E+04</rscale>
<asrwt>0</asrwt>
<pdfrwt beam="1">  1        1 0.48207876E+00 0.20112496E+04</pdfrwt>
<pdfrwt beam="2">  1       -4 0.49650915E-01 0.20112496E+04</pdfrwt>
<totfact> 0.86332285E-01</totfact>
</mgrwt>
</event>
<event>
12    4  0.4413110E-008  0.1454936E+04  0.7818608E-02  0.8914986E-01
         -2   -1    0    0    0  501 -0.00000000000E+00  0.00000000000E+00  0.18377501095E+03  0.18377501095E+03  0.00000000000E+00 0.  1.
          1   -1    0    0  501    0  0.00000000000E+00 -0.00000000000E+00 -0.28796601205E+04  0.28796601205E+04  0.00000000000E+00 0. -1.
        -24    2    1    2    0    0 -0.56464567048E+00 -0.23805512179E+03 -0.15960081958E+04  0.16155763956E+04  0.78577154209E+02 0.  0.
        254    2    1    2    0    0  0.56464567048E+00  0.23805512179E+03 -0.10998769138E+04  0.14478587359E+04  0.91098580325E+03 0.  0.
         23    2    4    4    0    0 -0.19964617528E+03  0.13948338025E+02  0.72417762595E+02  0.23400039228E+03  0.97255847189E+02 0.  0.
         23    2    4    4    0    0  0.20021082095E+03  0.22410678376E+03 -0.11722946764E+04  0.12138583436E+04  0.94175616143E+02 0.  0.
          3    1    3    3  502    0  0.22122761725E+00 -0.22122376269E+03 -0.15623666430E+04  0.15779510541E+04  0.00000000000E+00 0. -1.
         -4    1    3    3    0  502 -0.78587328773E+00 -0.16831359095E+02 -0.33641552825E+02  0.37625341491E+02  0.00000000000E+00 0.  1.
         11    1    5    5    0    0 -0.12405077296E+02 -0.23500284465E+02 -0.65463972445E+01  0.27367948947E+02  0.00000000000E+00 0. -1.
        -11    1    5    5    0    0 -0.18724109798E+03  0.37448622490E+02  0.78964159840E+02  0.20663244334E+03  0.00000000000E+00 0.  1.
          3    1    6    6  503    0  0.11992827426E+02  0.60881558477E+02 -0.16708065612E+03  0.17823113567E+03  0.00000000000E+00 0. -1.
         -3    1    6    6    0  503  0.18821799352E+03  0.16322522529E+03 -0.10052140202E+04  0.10356272079E+04  0.00000000000E+00 0.  1.
<mgrwt>
<rscale>  0 0.14549358E+04</rscale>
<asrwt>0</asrwt>
<pdfrwt beam="1">  1        1 0.44302465E+00 0.14549358E+04</pdfrwt>
<pdfrwt beam="2">  1       -2 0.28273077E-01 0.14549358E+04</pdfrwt>
<totfact> 0.71744958E+00</totfact>
</mgrwt>
</event>
<event>
12    4  0.4413110E-008  0.1168752E+04  0.7818608E-02  0.9140657E-01
         -4   -1    0    0    0  501 -0.00000000000E+00  0.00000000000E+00  0.63509360805E+03  0.63509360805E+03  0.00000000000E+00 0.  1.
          3   -1    0    0  501    0  0.00000000000E+00 -0.00000000000E+00 -0.53770818465E+03  0.53770818465E+03  0.00000000000E+00 0. -1.
        -24    2    1    2    0    0  0.16464482359E+02  0.45083887288E+02 -0.21066449355E+03  0.22983975804E+03  0.78378246088E+02 0.  0.
        254    2    1    2    0    0 -0.16464482359E+02 -0.45083887288E+02  0.30804991695E+03  0.94296203466E+03  0.88993202628E+03 0.  0.
         23    2    4    4    0    0  0.28391426142E+03 -0.20897750417E+03  0.43493013498E+03  0.56737693478E+03  0.92051391692E+02 0.  0.
         23    2    4    4    0    0 -0.30037874378E+03  0.16389361688E+03 -0.12688021803E+03  0.37558509988E+03  0.88752859978E+02 0.  0.
          3    1    3    3  502    0  0.44595179348E+02  0.44830215502E+02 -0.15683206585E+03  0.16909989687E+03  0.00000000000E+00 0. -1.
         -4    1    3    3    0  502 -0.28130696989E+02  0.25367178650E+00 -0.53832427698E+02  0.60739861165E+02  0.00000000000E+00 0.  1.
         11    1    5    5    0    0 -0.12981946056E+01 -0.19473166956E+02  0.10930230323E+02  0.22368716446E+02  0.00000000000E+00 0. -1.
        -11    1    5    5    0    0  0.28521245603E+03 -0.18950433721E+03  0.42399990466E+03  0.54500821833E+03  0.00000000000E+00 0.  1.
          4    1    6    6  503    0 -0.11979805112E+03  0.84930245761E+02 -0.11719017722E+02  0.14731617384E+03  0.00000000000E+00 0.  1.
         -4    1    6    6    0  503 -0.18058069266E+03  0.78963371118E+02 -0.11516120031E+03  0.22826892604E+03  0.00000000000E+00 0. -1.
<mgrwt>
<rscale>  0 0.11687515E+04</rscale>
<asrwt>0</asrwt>
<pdfrwt beam="1">  1        3 0.82724335E-01 0.11687515E+04</pdfrwt>
<pdfrwt beam="2">  1       -4 0.97706710E-01 0.11687515E+04</pdfrwt>
<totfact> 0.26629500E+00</totfact>
</mgrwt>
</event>
<event>
12    4  0.4413110E-008  0.2084934E+04  0.7818608E-02  0.8567909E-01
         -2   -1    0    0    0  501 -0.00000000000E+00  0.00000000000E+00  0.12593393152E+04  0.12593393152E+04  0.00000000000E+00 0.  1.
          1   -1    0    0  501    0  0.00000000000E+00 -0.00000000000E+00 -0.86294263364E+03  0.86294263364E+03  0.00000000000E+00 0. -1.
        -24    2    1    2    0    0 -0.13023880683E+03 -0.47525851881E+03 -0.54430779843E+03  0.73857600710E+03  0.79942056009E+02 0.  0.
        254    2    1    2    0    0  0.13023880683E+03  0.47525851881E+03  0.94070447997E+03  0.13837059417E+04  0.88706505284E+03 0.  0.
         23    2    4    4    0    0  0.47572388493E+03  0.10168705101E+03  0.50512605967E+03  0.70751080890E+03  0.93625517440E+02 0.  0.
         23    2    4    4    0    0 -0.34548507810E+03  0.37357146781E+03  0.43557842030E+03  0.67619513281E+03  0.92713087814E+02 0.  0.
          1    1    3    3  502    0 -0.87355127333E+02 -0.31305237646E+03 -0.41284666811E+03  0.52542847282E+03  0.00000000000E+00 0. -1.
         -2    1    3    3    0  502 -0.42883679501E+02 -0.16220614235E+03 -0.13146113032E+03  0.21314753428E+03  0.00000000000E+00 0.  1.
         11    1    5    5    0    0  0.38803410112E+03  0.10851710092E+03  0.37487163859E+03  0.55034095818E+03  0.00000000000E+00 0.  1.
        -11    1    5    5    0    0  0.87689783815E+02 -0.68300499133E+01  0.13025442108E+03  0.15716985073E+03  0.00000000000E+00 0. -1.
          4    1    6    6  503    0 -0.30312018820E+02  0.52880335592E+01  0.40435400734E+02  0.50811449658E+02  0.00000000000E+00 0. -1.
         -4    1    6    6    0  503 -0.31517305928E+03  0.36828343425E+03  0.39514301957E+03  0.62538368315E+03  0.00000000000E+00 0.  1.
<mgrwt>
<rscale>  0 0.20849341E+04</rscale>
<asrwt>0</asrwt>
<pdfrwt beam="1">  1        1 0.13276040E+00 0.20849341E+04</pdfrwt>
<pdfrwt beam="2">  1       -2 0.19374451E+00 0.20849341E+04</pdfrwt>
<totfact> 0.23054554E+00</totfact>
</mgrwt>
</event>
<event>
12    4  0.4413110E-008  0.1266583E+04  0.7818608E-02  0.9056493E-01
         -2   -1    0    0    0  501 -0.00000000000E+00  0.00000000000E+00  0.59069944132E+03  0.59069944132E+03  0.00000000000E+00 0.  1.
          1   -1    0    0  501    0  0.00000000000E+00 -0.00000000000E+00 -0.67895418168E+03  0.67895418168E+03  0.00000000000E+00 0. -1.
        -24    2    1    2    0    0  0.23217800323E+03  0.10686786465E+02  0.16747397022E+03  0.29721693408E+03  0.79180443379E+02 0.  0.
        254    2    1    2    0    0 -0.23217800323E+03 -0.10686786465E+02 -0.25572871059E+03  0.97243668892E+03  0.90896375503E+03 0.  0.
         23    2    4    4    0    0 -0.50974065814E+03 -0.20097394946E+03 -0.34834199120E+02  0.55706447750E+03  0.94240881457E+02 0.  0.
         23    2    4    4    0    0  0.27756265491E+03  0.19028716300E+03 -0.22089451147E+03  0.41537221142E+03  0.10241805027E+03 0.  0.
          3    1    3    3  502    0  0.78874844441E+02 -0.26137019413E+02  0.30986356383E+02  0.88682236955E+02  0.00000000000E+00 0. -1.
         -4    1    3    3    0  502  0.15330315879E+03  0.36823805879E+02  0.13648761384E+03  0.20853469713E+03  0.00000000000E+00 0.  1.
         11    1    5    5    0    0 -0.18549887376E+01  0.15540428410E+01  0.82449408355E+01  0.85927342418E+01  0.00000000000E+00 0.  1.
        -11    1    5    5    0    0 -0.50788566941E+03 -0.20252799230E+03 -0.43079139955E+02  0.54847174326E+03  0.00000000000E+00 0. -1.
          4    1    6    6  503    0  0.27781660447E+03  0.19967305926E+03 -0.21230889866E+03  0.40264930742E+03  0.00000000000E+00 0. -1.
         -4    1    6    6    0  503 -0.25394955817E+00 -0.93858962620E+01 -0.85856128090E+01  0.12722904005E+02  0.00000000000E+00 0.  1.
<mgrwt>
<rscale>  0 0.12665826E+04</rscale>
<asrwt>0</asrwt>
<pdfrwt beam="1">  1        1 0.10445449E+00 0.12665826E+04</pdfrwt>
<pdfrwt beam="2">  1       -2 0.90876837E-01 0.12665826E+04</pdfrwt>
<totfact> 0.25434152E+01</totfact>
</mgrwt>
</event>
<event>
12    4  0.4413110E-008  0.2584173E+04  0.7818608E-02  0.8373597E-01
         -2   -1    0    0    0  501 -0.00000000000E+00  0.00000000000E+00  0.11514844270E+04  0.11514844270E+04  0.00000000000E+00 0.  1.
          1   -1    0    0  501    0  0.00000000000E+00 -0.00000000000E+00 -0.14498566862E+04  0.14498566862E+04  0.00000000000E+00 0. -1.
        -24    2    1    2    0    0 -0.98015051974E+03 -0.28354159329E+02  0.45024473328E+03  0.10820696082E+04  0.81580128670E+02 0.  0.
        254    2    1    2    0    0  0.98015051974E+03  0.28354159329E+02 -0.74861699244E+03  0.15192715050E+04  0.88671275224E+03 0.  0.
         23    2    4    4    0    0  0.48168328894E+03  0.43953444826E+03 -0.27320499688E+03  0.71268610604E+03  0.89839820648E+02 0.  0.
         23    2    4    4    0    0  0.49846723080E+03 -0.41118028893E+03 -0.47541199555E+03  0.80658539901E+03  0.83813066930E+02 0.  0.
          1    1    3    3  502    0 -0.76331153098E+03 -0.28370518363E+02  0.38649579017E+03  0.85605395592E+03  0.00000000000E+00 0. -1.
         -2    1    3    3    0  502 -0.21683898876E+03  0.16359033417E-01  0.63748943115E+02  0.22601565225E+03  0.00000000000E+00 0.  1.
         11    1    5    5    0    0  0.36502287202E+03  0.31717295611E+03 -0.16054057425E+03  0.50952297021E+03  0.00000000000E+00 0. -1.
        -11    1    5    5    0    0  0.11666041692E+03  0.12236149215E+03 -0.11266442263E+03  0.20316313583E+03  0.00000000000E+00 0.  1.
          3    1    6    6  503    0  0.21118303184E+03 -0.17631593953E+03 -0.25425876755E+03  0.37461060362E+03  0.00000000000E+00 0. -1.
         -3    1    6    6    0  503  0.28728419897E+03 -0.23486434940E+03 -0.22115322800E+03  0.43197479539E+03  0.00000000000E+00 0.  1.
<mgrwt>
<rscale>  0 0.25841729E+04</rscale>
<asrwt>0</asrwt>
<pdfrwt beam="1">  1        1 0.22305488E+00 0.25841729E+04</pdfrwt>
<pdfrwt beam="2">  1       -2 0.17715145E+00 0.25841729E+04</pdfrwt>
<totfact> 0.10418575E+00</totfact>
</mgrwt>
</event>
<event>
12    4  0.4413110E-008  0.1600449E+04  0.7818608E-02  0.8820272E-01
         -2   -1    0    0    0  501 -0.00000000000E+00  0.00000000000E+00  0.47929766207E+03  0.47929766207E+03  0.00000000000E+00 0.  1.
          1   -1    0    0  501    0  0.00000000000E+00 -0.00000000000E+00 -0.13360372168E+04  0.13360372168E+04  0.00000000000E+00 0. -1.
        -24    2    1    2    0    0  0.43782354231E+03  0.22662514151E+03 -0.34944433512E+02  0.50044484924E+03  0.78584506952E+02 0.  0.
        254    2    1    2    0    0 -0.43782354231E+03 -0.22662514151E+03 -0.82179512124E+03  0.13148900296E+04  0.90030003877E+03 0.  0.
         23    2    4    4    0    0 -0.45194759324E+03 -0.52832585490E+03 -0.47922716851E+03  0.84917143114E+03  0.89714014728E+02 0.  0.
         23    2    4    4    0    0  0.14124050934E+02  0.30170071338E+03 -0.34256795273E+03  0.46571859851E+03  0.91204174718E+02 0.  0.
          1    1    3    3  502    0  0.35106239928E+02  0.11448225968E+02 -0.23369572460E+02  0.43699506595E+02  0.00000000000E+00 0. -1.
         -2    1    3    3    0  502  0.40271730238E+03  0.21517691554E+03 -0.11574861052E+02  0.45674534265E+03  0.00000000000E+00 0.  1.
         11    1    5    5    0    0 -0.42462970075E+03 -0.46862973626E+03 -0.45551592145E+03  0.77937087908E+03  0.00000000000E+00 0.  1.
        -11    1    5    5    0    0 -0.27317892490E+02 -0.59696118635E+02 -0.23711247054E+02  0.69800552054E+02  0.00000000000E+00 0. -1.
          3    1    6    6  503    0  0.10238805698E+02  0.15529054845E+02  0.92113263974E+00  0.18623457569E+02  0.00000000000E+00 0. -1.
         -3    1    6    6    0  503  0.38852452357E+01  0.28617165854E+03 -0.34348908537E+03  0.44709514094E+03  0.00000000000E+00 0.  1.
<mgrwt>
<rscale>  0 0.16004493E+04</rscale>
<asrwt>0</asrwt>
<pdfrwt beam="1">  1        1 0.20554418E+00 0.16004493E+04</pdfrwt>
<pdfrwt beam="2">  1       -2 0.73738103E-01 0.16004493E+04</pdfrwt>
<totfact> 0.11898529E+01</totfact>
</mgrwt>
</event>
<event>
12    4  0.4413110E-008  0.1630295E+04  0.7818608E-02  0.8802150E-01
          1   -1    0    0  501    0  0.00000000000E+00  0.00000000000E+00  0.13054547431E+04  0.13054547431E+04  0.00000000000E+00 0. -1.
         -4   -1    0    0    0  501 -0.00000000000E+00 -0.00000000000E+00 -0.50899165483E+03  0.50899165483E+03  0.00000000000E+00 0.  1.
        -24    2    1    2    0    0  0.16172224482E+03  0.71267441332E+02 -0.31326263268E+03  0.36932397124E+03  0.83866477435E+02 0.  0.
        254    2    1    2    0    0 -0.16172224482E+03 -0.71267441332E+02  0.11097257209E+04  0.14451224267E+04  0.90865533603E+03 0.  0.
         23    2    4    4    0    0  0.36404687790E+03  0.49865613855E+02  0.45823162516E+03  0.59417594438E+03  0.89733615952E+02 0.  0.
         23    2    4    4    0    0 -0.52576912272E+03 -0.12113305519E+03  0.65149409578E+03  0.85094648229E+03  0.92514709242E+02 0.  0.
          1    1    3    3  502    0  0.30097414945E+02 -0.17407166802E+02 -0.37395752227E+02  0.51061787347E+02  0.00000000000E+00 0. -1.
         -2    1    3    3    0  502  0.13162482988E+03  0.88674608134E+02 -0.27586688045E+03  0.31826218390E+03  0.00000000000E+00 0.  1.
         11    1    5    5    0    0  0.32342066920E+03  0.32952679168E+02  0.43871010792E+03  0.54603421790E+03  0.00000000000E+00 0.  1.
        -11    1    5    5    0    0  0.40626208698E+02  0.16912934687E+02  0.19521517240E+02  0.48141726477E+02  0.00000000000E+00 0. -1.
          3    1    6    6  503    0 -0.24202982285E+03 -0.83134326743E+02  0.36646232806E+03  0.44697247042E+03  0.00000000000E+00 0. -1.
         -3    1    6    6    0  503 -0.28373929987E+03 -0.37998728444E+02  0.28503176772E+03  0.40397401187E+03  0.00000000000E+00 0.  1.
<mgrwt>
<rscale>  0 0.16302952E+04</rscale>
<asrwt>0</asrwt>
<pdfrwt beam="1">  1        1 0.20083919E+00 0.16302952E+04</pdfrwt>
<pdfrwt beam="2">  1       -4 0.78306409E-01 0.16302952E+04</pdfrwt>
<totfact> 0.61122476E+00</totfact>
</mgrwt>
</event>
<event>
12    4  0.4413110E-008  0.1739875E+04  0.7818608E-02  0.8738943E-01
          1   -1    0    0  501    0  0.00000000000E+00  0.00000000000E+00  0.14698983481E+04  0.14698983481E+04  0.00000000000E+00 0. -1.
         -2   -1    0    0    0  501 -0.00000000000E+00 -0.00000000000E+00 -0.51485975246E+03  0.51485975246E+03  0.00000000000E+00 0.  1.
        -24    2    1    2    0    0 -0.19118759886E+03 -0.24490300694E+03 -0.24211085921E+03  0.40212287791E+03  0.80962707657E+02 0.  0.
        254    2    1    2    0    0  0.19118759886E+03  0.24490300694E+03  0.11971494548E+04  0.15826352227E+04  0.98743974498E+03 0.  0.
         23    2    4    4    0    0  0.29726198721E+03  0.58674120398E+03  0.80772827803E+03  0.10456142344E+04  0.90852773789E+02 0.  0.
         23    2    4    4    0    0 -0.10607438835E+03 -0.34183819705E+03  0.38942117682E+03  0.53702098827E+03  0.92938474641E+02 0.  0.
          3    1    3    3  502    0 -0.28883622931E+02 -0.65954472806E+02 -0.95236456655E+02  0.11939111706E+03  0.00000000000E+00 0. -1.
         -4    1    3    3    0  502 -0.16230397593E+03 -0.17894853413E+03 -0.14687440255E+03  0.28273176085E+03  0.00000000000E+00 0.  1.
         11    1    5    5    0    0  0.18677517721E+03  0.34957675294E+03  0.55377310852E+03  0.68099451447E+03  0.00000000000E+00 0.  1.
        -11    1    5    5    0    0  0.11048681000E+03  0.23716445104E+03  0.25395516951E+03  0.36461971991E+03  0.00000000000E+00 0. -1.
          3    1    6    6  503    0 -0.56741468779E+02 -0.10156962688E+03  0.18090096314E+03  0.21508403439E+03  0.00000000000E+00 0. -1.
         -3    1    6    6    0  503 -0.49332919569E+02 -0.24026857017E+03  0.20852021367E+03  0.32193695388E+03  0.00000000000E+00 0.  1.
<mgrwt>
<rscale>  0 0.17398753E+04</rscale>
<asrwt>0</asrwt>
<pdfrwt beam="1">  1        1 0.22613821E+00 0.17398753E+04</pdfrwt>
<pdfrwt beam="2">  1       -2 0.79209193E-01 0.17398753E+04</pdfrwt>
<totfact> 0.80754939E+00</totfact>
</mgrwt>
</event>
<event>
12    4  0.4413110E-008  0.1405265E+04  0.7818608E-02  0.8950016E-01
         -2   -1    0    0    0  501 -0.00000000000E+00  0.00000000000E+00  0.11986612980E+04  0.11986612980E+04  0.00000000000E+00 0.  1.
          1   -1    0    0  501    0  0.00000000000E+00 -0.00000000000E+00 -0.41186989931E+03  0.41186989931E+03  0.00000000000E+00 0. -1.
        -24    2    1    2    0    0 -0.12590309246E+03  0.25942691238E+03  0.56560283930E+03  0.63972875081E+03  0.78691748234E+02 0.  0.
        254    2    1    2    0    0  0.12590309246E+03 -0.25942691238E+03  0.22118855939E+03  0.97080244649E+03  0.90021058633E+03 0.  0.
         23    2    4    4    0    0 -0.98205159704E+02 -0.35691720987E+03 -0.23311837234E+03  0.44694609264E+03  0.91555917918E+02 0.  0.
         23    2    4    4    0    0  0.22410825216E+03  0.97490297489E+02  0.45430693173E+03  0.52385635385E+03  0.91114348288E+02 0.  0.
          3    1    3    3  502    0 -0.16078818080E+02  0.44723599266E+02  0.42688329826E+02  0.63882878970E+02  0.00000000000E+00 0. -1.
         -4    1    3    3    0  502 -0.10982427438E+03  0.21470331312E+03  0.52291450947E+03  0.57584587184E+03  0.00000000000E+00 0.  1.
         11    1    5    5    0    0 -0.61541881100E+02 -0.29617447046E+03 -0.14995149615E+03  0.33762726679E+03  0.00000000000E+00 0. -1.
        -11    1    5    5    0    0 -0.36663278604E+02 -0.60742739411E+02 -0.83166876194E+02  0.10931882585E+03  0.00000000000E+00 0.  1.
          4    1    6    6  503    0  0.24763917469E+02 -0.23721238565E+01  0.10128250878E+02  0.26860008300E+02  0.00000000000E+00 0. -1.
         -4    1    6    6    0  503  0.19934433470E+03  0.99862421346E+02  0.44417868085E+03  0.49699634555E+03  0.00000000000E+00 0.  1.
<mgrwt>
<rscale>  0 0.14052651E+04</rscale>
<asrwt>0</asrwt>
<pdfrwt beam="1">  1        1 0.63364601E-01 0.14052651E+04</pdfrwt>
<pdfrwt beam="2">  1       -2 0.18440943E+00 0.14052651E+04</pdfrwt>
<totfact> 0.83021824E+00</totfact>
</mgrwt>
</event>
<event>
12    4  0.4413110E-008  0.1113652E+04  0.7818608E-02  0.9191987E-01
         -2   -1    0    0    0  501 -0.00000000000E+00  0.00000000000E+00  0.25499618550E+03  0.25499618550E+03  0.00000000000E+00 0.  1.
          1   -1    0    0  501    0  0.00000000000E+00 -0.00000000000E+00 -0.12159212555E+04  0.12159212555E+04  0.00000000000E+00 0. -1.
        -24    2    1    2    0    0  0.71717300197E+02  0.15631549787E+03 -0.98159801656E+02  0.21386287930E+03  0.80771767726E+02 0.  0.
        254    2    1    2    0    0 -0.71717300197E+02 -0.15631549787E+03 -0.86276526832E+03  0.12570545617E+04  0.89791110738E+03 0.  0.
         23    2    4    4    0    0 -0.19139559061E+03  0.26525044526E+03 -0.70573305469E+03  0.78302499140E+03  0.89882822917E+02 0.  0.
         23    2    4    4    0    0  0.11967829042E+03 -0.42156594313E+03 -0.15703221363E+03  0.47402957026E+03  0.89466081622E+02 0.  0.
          3    1    3    3  502    0  0.28858205736E+02  0.12786540084E+03 -0.95816282703E+02  0.16236722823E+03  0.00000000000E+00 0. -1.
         -4    1    3    3    0  502  0.42859094461E+02  0.28450097024E+02 -0.23435189529E+01  0.51495651076E+02  0.00000000000E+00 0.  1.
         11    1    5    5    0    0 -0.17837732662E+03  0.19215829949E+03 -0.50508065882E+03  0.56907798643E+03  0.00000000000E+00 0. -1.
        -11    1    5    5    0    0 -0.13018263995E+02  0.73092145769E+02 -0.20065239587E+03  0.21394700497E+03  0.00000000000E+00 0.  1.
          3    1    6    6  503    0  0.97414442546E+02 -0.18598046437E+03 -0.60794045987E+02  0.21857315199E+03  0.00000000000E+00 0. -1.
         -3    1    6    6    0  503  0.22263847871E+02 -0.23558547876E+03 -0.96238167638E+02  0.25545641827E+03  0.00000000000E+00 0.  1.
<mgrwt>
<rscale>  0 0.11136522E+04</rscale>
<asrwt>0</asrwt>
<pdfrwt beam="1">  1        1 0.18706481E+00 0.11136522E+04</pdfrwt>
<pdfrwt beam="2">  1       -2 0.39230182E-01 0.11136522E+04</pdfrwt>
<totfact> 0.55786004E+01</totfact>
</mgrwt>
</event>
<event>
12    4  0.4413110E-008  0.1587431E+04  0.7818608E-02  0.8828307E-01
          1   -1    0    0  501    0  0.00000000000E+00  0.00000000000E+00  0.23130497354E+04  0.23130497354E+04  0.00000000000E+00 0. -1.
         -2   -1    0    0    0  501 -0.00000000000E+00 -0.00000000000E+00 -0.27236099269E+03  0.27236099269E+03  0.00000000000E+00 0.  1.
        -24    2    1    2    0    0  0.13026314209E+03 -0.15221911571E+02 -0.14734716935E+03  0.21296484440E+03  0.80266081591E+02 0.  0.
        254    2    1    2    0    0 -0.13026314209E+03  0.15221911571E+02  0.21880359120E+04  0.23724458837E+04  0.90763325512E+03 0.  0.
         23    2    4    4    0    0  0.80888722782E+02 -0.12600550460E+03  0.20709039444E+04  0.20783018550E+04  0.90967470197E+02 0.  0.
         23    2    4    4    0    0 -0.21115186488E+03  0.14122741617E+03  0.11713196761E+03  0.29414402871E+03  0.90942392042E+02 0.  0.
          1    1    3    3  502    0  0.42411873821E+02  0.15950981978E+01 -0.10647593489E+03  0.11462301728E+03  0.00000000000E+00 0. -1.
         -2    1    3    3    0  502  0.87851268274E+02 -0.16817009769E+02 -0.40871234458E+02  0.98341827118E+02  0.00000000000E+00 0.  1.
         11    1    5    5    0    0  0.86726760248E+01  0.20168973356E+01  0.60123732519E+03  0.60130325493E+03  0.00000000000E+00 0. -1.
        -11    1    5    5    0    0  0.72216046757E+02 -0.12802240194E+03  0.14696666192E+04  0.14769986000E+04  0.00000000000E+00 0.  1.
          4    1    6    6  503    0 -0.56935169028E+02  0.19555852750E+02  0.69632860526E+02  0.92047705642E+02  0.00000000000E+00 0. -1.
         -4    1    6    6    0  503 -0.15421669585E+03  0.12167156342E+03  0.47499107087E+02  0.20209632307E+03  0.00000000000E+00 0.  1.
<mgrwt>
<rscale>  0 0.15874313E+04</rscale>
<asrwt>0</asrwt>
<pdfrwt beam="1">  1        1 0.35585379E+00 0.15874313E+04</pdfrwt>
<pdfrwt beam="2">  1       -2 0.41901693E-01 0.15874313E+04</pdfrwt>
<totfact> 0.83105976E+00</totfact>
</mgrwt>
</event>
<event>
12    4  0.4413110E-008  0.1396282E+04  0.7818608E-02  0.8956514E-01
          3   -1    0    0  501    0  0.00000000000E+00  0.00000000000E+00  0.21892826086E+04  0.21892826086E+04  0.00000000000E+00 0. -1.
         -4   -1    0    0    0  501 -0.00000000000E+00 -0.00000000000E+00 -0.22263028388E+03  0.22263028388E+03  0.00000000000E+00 0.  1.
        -24    2    1    2    0    0 -0.25931177469E+02 -0.16174717846E+03 -0.56375039163E+02  0.19021020910E+03  0.78531540810E+02 0.  0.
        254    2    1    2    0    0  0.25931177469E+02  0.16174717846E+03  0.20230273639E+04  0.22217026834E+04  0.90359754462E+03 0.  0.
         23    2    4    4    0    0  0.34571376933E+03 -0.19452847076E+03  0.11757470780E+04  0.12442589610E+04  0.91868570867E+02 0.  0.
         23    2    4    4    0    0 -0.31978259186E+03  0.35627564922E+03  0.84728028595E+03  0.97744372247E+03  0.91209118796E+02 0.  0.
          1    1    3    3  502    0 -0.52009861126E+01  0.74963056230E+01  0.30856214291E+01  0.96315063278E+01  0.00000000000E+00 0. -1.
         -2    1    3    3    0  502 -0.20730191357E+02 -0.16924348408E+03 -0.59460660592E+02  0.18057870278E+03  0.00000000000E+00 0.  1.
         11    1    5    5    0    0  0.14090591912E+03 -0.12974767991E+03  0.51466510887E+03  0.54915308683E+03  0.00000000000E+00 0.  1.
        -11    1    5    5    0    0  0.20480785021E+03 -0.64780790846E+02  0.66108196911E+03  0.69510587413E+03  0.00000000000E+00 0. -1.
          2    1    6    6  503    0 -0.12443745171E+02  0.42273128548E+02  0.46646162162E+02  0.64169530429E+02  0.00000000000E+00 0.  1.
         -2    1    6    6    0  503 -0.30733884669E+03  0.31400252067E+03  0.80063412379E+03  0.91327419204E+03  0.00000000000E+00 0. -1.
<mgrwt>
<rscale>  0 0.13962816E+04</rscale>
<asrwt>0</asrwt>
<pdfrwt beam="1">  1        3 0.33681269E+00 0.13962816E+04</pdfrwt>
<pdfrwt beam="2">  1       -4 0.34250814E-01 0.13962816E+04</pdfrwt>
<totfact> 0.45510824E-01</totfact>
</mgrwt>
</event>
<event>
12    4  0.4413110E-008  0.2054016E+04  0.7818608E-02  0.8581775E-01
          1   -1    0    0  501    0  0.00000000000E+00  0.00000000000E+00  0.69061084338E+03  0.69061084338E+03  0.00000000000E+00 0. -1.
         -2   -1    0    0    0  501 -0.00000000000E+00 -0.00000000000E+00 -0.15272638438E+04  0.15272638438E+04  0.00000000000E+00 0.  1.
        -24    2    1    2    0    0 -0.33072693808E+03 -0.63473864933E+03 -0.79247248838E+03  0.10707960012E+04  0.79485663546E+02 0.  0.
        254    2    1    2    0    0  0.33072693808E+03  0.63473864933E+03 -0.44180512085E+02  0.11470786861E+04  0.89530114144E+03 0.  0.
         23    2    4    4    0    0  0.59704044850E+03  0.61780587299E+03 -0.22572918458E+02  0.86423033450E+03  0.90791742915E+02 0.  0.
         23    2    4    4    0    0 -0.26631351042E+03  0.16932776343E+02 -0.21607593627E+02  0.28284835157E+03  0.91250737726E+02 0.  0.
          1    1    3    3  502    0 -0.11508379415E+03 -0.24592341335E+03 -0.24680831323E+03  0.36692907815E+03  0.00000000000E+00 0. -1.
         -2    1    3    3    0  502 -0.21564314394E+03 -0.38881523598E+03 -0.54566417515E+03  0.70386692301E+03  0.00000000000E+00 0.  1.
         11    1    5    5    0    0 -0.30525805039E+01  0.10124260578E+01 -0.11451646159E+01  0.34138916581E+01  0.00000000000E+00 0.  1.
        -11    1    5    5    0    0  0.60009302901E+03  0.61679344693E+03 -0.21427753842E+02  0.86081644285E+03  0.00000000000E+00 0. -1.
          3    1    6    6  503    0 -0.16071858138E+03  0.54464187430E+02 -0.18942426650E+02  0.17075018489E+03  0.00000000000E+00 0. -1.
         -3    1    6    6    0  503 -0.10559492904E+03 -0.37531411087E+02 -0.26651669766E+01  0.11209816667E+03  0.00000000000E+00 0.  1.
<mgrwt>
<rscale>  0 0.20540156E+04</rscale>
<asrwt>0</asrwt>
<pdfrwt beam="1">  1        1 0.10624782E+00 0.20540156E+04</pdfrwt>
<pdfrwt beam="2">  1       -2 0.23496367E+00 0.20540156E+04</pdfrwt>
<totfact> 0.17899871E+00</totfact>
</mgrwt>
</event>
<event>
12    4  0.4413110E-008  0.2551779E+04  0.7818608E-02  0.8384768E-01
         -2   -1    0    0    0  501 -0.00000000000E+00  0.00000000000E+00  0.15195483724E+04  0.15195483724E+04  0.00000000000E+00 0.  1.
          1   -1    0    0  501    0  0.00000000000E+00 -0.00000000000E+00 -0.10713014929E+04  0.10713014929E+04  0.00000000000E+00 0. -1.
        -24    2    1    2    0    0  0.81033876389E+03  0.19737794816E+03  0.95034832377E+03  0.12669248103E+04  0.79558605415E+02 0.  0.
        254    2    1    2    0    0 -0.81033876389E+03 -0.19737794816E+03 -0.50210144428E+03  0.13239250551E+04  0.89725399109E+03 0.  0.
         23    2    4    4    0    0 -0.93105645082E+03 -0.36220120218E+03 -0.40256728621E+03  0.10810224119E+04  0.92158611411E+02 0.  0.
         23    2    4    4    0    0  0.12071768693E+03  0.16482325402E+03 -0.99534158070E+02  0.24290264320E+03  0.85762348663E+02 0.  0.
          1    1    3    3  502    0  0.28030469436E+03  0.73654335771E+02  0.27472982742E+03  0.39933965609E+03  0.00000000000E+00 0. -1.
         -4    1    3    3    0  502  0.53003406953E+03  0.12372361239E+03  0.67561849635E+03  0.86758515417E+03  0.00000000000E+00 0.  1.
         11    1    5    5    0    0 -0.59596886297E+02 -0.97729890370E+01 -0.57236205830E+01  0.60663498115E+02  0.00000000000E+00 0.  1.
        -11    1    5    5    0    0 -0.87145956452E+03 -0.35242821314E+03 -0.39684366563E+03  0.10203589138E+04  0.00000000000E+00 0. -1.
          4    1    6    6  503    0  0.12219279385E+03  0.17267644279E+03 -0.10156729679E+03  0.23465751329E+03  0.00000000000E+00 0. -1.
         -4    1    6    6    0  503 -0.14751069210E+01 -0.78531887711E+01  0.20331387177E+01  0.82451299171E+01  0.00000000000E+00 0.  1.
<mgrwt>
<rscale>  0 0.25517793E+04</rscale>
<asrwt>0</asrwt>
<pdfrwt beam="1">  1        1 0.16481561E+00 0.25517793E+04</pdfrwt>
<pdfrwt beam="2">  1       -2 0.23377667E+00 0.25517793E+04</pdfrwt>
<totfact> 0.83739504E-01</totfact>
</mgrwt>
</event>
<event>
12    4  0.4413110E-008  0.1351249E+04  0.7818608E-02  0.8989883E-01
          1   -1    0    0  501    0  0.00000000000E+00  0.00000000000E+00  0.86392556369E+03  0.86392556369E+03  0.00000000000E+00 0. -1.
         -2   -1    0    0    0  501 -0.00000000000E+00 -0.00000000000E+00 -0.52836556494E+03  0.52836556494E+03  0.00000000000E+00 0.  1.
        -24    2    1    2    0    0  0.12171060094E+03 -0.12171711463E+02 -0.25768414987E+03  0.29824975314E+03  0.87121600136E+02 0.  0.
        254    2    1    2    0    0 -0.12171060094E+03  0.12171711463E+02  0.59324414862E+03  0.10940413755E+04  0.91105778657E+03 0.  0.
         23    2    4    4    0    0  0.11112739767E+03 -0.66498662479E+02  0.76482385799E+03  0.78102763763E+03  0.90979483175E+02 0.  0.
         23    2    4    4    0    0 -0.23283799861E+03  0.78670373942E+02 -0.17157970937E+03  0.31301373786E+03  0.90196685575E+02 0.  0.
          1    1    3    3  502    0 -0.38901151076E+01 -0.22764557089E+02 -0.28417820112E+02  0.36618718641E+02  0.00000000000E+00 0. -1.
         -2    1    3    3    0  502  0.12560071605E+03  0.10592845626E+02 -0.22926632976E+03  0.26163103450E+03  0.00000000000E+00 0.  1.
         11    1    5    5    0    0  0.10971814344E+02 -0.55388580766E+02  0.23329769311E+03  0.24003351682E+03  0.00000000000E+00 0.  1.
        -11    1    5    5    0    0  0.10015558333E+03 -0.11110081713E+02  0.53152616488E+03  0.54099412080E+03  0.00000000000E+00 0. -1.
          1    1    6    6  503    0 -0.80869052071E+02 -0.16434587366E+02 -0.53784747679E+02  0.98502275749E+02  0.00000000000E+00 0. -1.
         -1    1    6    6    0  503 -0.15196894654E+03  0.95104961308E+02 -0.11779496169E+03  0.21451146211E+03  0.00000000000E+00 0.  1.
<mgrwt>
<rscale>  0 0.13512491E+04</rscale>
<asrwt>0</asrwt>
<pdfrwt beam="1">  1        1 0.13291162E+00 0.13512491E+04</pdfrwt>
<pdfrwt beam="2">  1       -2 0.81287010E-01 0.13512491E+04</pdfrwt>
<totfact> 0.22297580E+01</totfact>
</mgrwt>
</event>
<event>
12    4  0.4413110E-008  0.1160739E+04  0.7818608E-02  0.9147933E-01
         -2   -1    0    0    0  501 -0.00000000000E+00  0.00000000000E+00  0.34647801364E+03  0.34647801364E+03  0.00000000000E+00 0.  1.
          1   -1    0    0  501    0  0.00000000000E+00 -0.00000000000E+00 -0.97215108744E+03  0.97215108744E+03  0.00000000000E+00 0. -1.
        -24    2    1    2    0    0 -0.54993279837E+02  0.62187851667E+02 -0.27887289800E+03  0.30174293466E+03  0.79919432302E+02 0.  0.
        254    2    1    2    0    0  0.54993279837E+02 -0.62187851667E+02 -0.34680017581E+03  0.10168861664E+04  0.95231062358E+03 0.  0.
         23    2    4    4    0    0  0.26461184445E+03 -0.38176553088E+03  0.29223474800E+02  0.47356218366E+03  0.87423003374E+02 0.  0.
         23    2    4    4    0    0 -0.20961856461E+03  0.31957767921E+03 -0.37602365061E+03  0.54332398275E+03  0.87962086926E+02 0.  0.
          1    1    3    3  502    0 -0.68670980420E+02  0.21106046939E+02 -0.17982027924E+03  0.19364013425E+03  0.00000000000E+00 0. -1.
         -2    1    3    3    0  502  0.13677700583E+02  0.41081804728E+02 -0.99052618763E+02  0.10810280041E+03  0.00000000000E+00 0.  1.
         11    1    5    5    0    0  0.64374448813E+02 -0.10751722488E+03  0.46220991049E+02  0.13356797266E+03  0.00000000000E+00 0.  1.
        -11    1    5    5    0    0  0.20023739564E+03 -0.27424830600E+03 -0.16997516248E+02  0.33999421100E+03  0.00000000000E+00 0. -1.
          3    1    6    6  503    0 -0.12986453205E+03  0.23606522995E+03 -0.21253811397E+03  0.34316765489E+03  0.00000000000E+00 0. -1.
         -3    1    6    6    0  503 -0.79754032562E+02  0.83512449264E+02 -0.16348553664E+03  0.20015632786E+03  0.00000000000E+00 0.  1.
<mgrwt>
<rscale>  0 0.11607394E+04</rscale>
<asrwt>0</asrwt>
<pdfrwt beam="1">  1        1 0.14956171E+00 0.11607394E+04</pdfrwt>
<pdfrwt beam="2">  1       -2 0.53304310E-01 0.11607394E+04</pdfrwt>
<totfact> 0.45934753E+01</totfact>
</mgrwt>
</event>
<event>
12    4  0.4413110E-008  0.1288704E+04  0.7818608E-02  0.9038572E-01
          1   -1    0    0  501    0  0.00000000000E+00  0.00000000000E+00  0.37933155321E+03  0.37933155321E+03  0.00000000000E+00 0. -1.
         -2   -1    0    0    0  501 -0.00000000000E+00 -0.00000000000E+00 -0.10945287579E+04  0.10945287579E+04  0.00000000000E+00 0.  1.
        -24    2    1    2    0    0 -0.13986410396E+03  0.12444535970E+03 -0.48398669051E+03  0.52500099953E+03  0.79588427479E+02 0.  0.
        254    2    1    2    0    0  0.13986410396E+03 -0.12444535970E+03 -0.23121051422E+03  0.94885931163E+03  0.90101447061E+03 0.  0.
         23    2    4    4    0    0 -0.24814922962E+03  0.97406094710E+01  0.21211870945E+03  0.33757035642E+03  0.85360875113E+02 0.  0.
         23    2    4    4    0    0  0.38801333358E+03 -0.13418596917E+03 -0.44332922367E+03  0.61128895521E+03  0.92591386436E+02 0.  0.
          1    1    3    3  502    0 -0.31302390998E+02  0.74221173405E+02 -0.15033662620E+03  0.17055709731E+03  0.00000000000E+00 0. -1.
         -2    1    3    3    0  502 -0.10856171296E+03  0.50224186294E+02 -0.33365006430E+03  0.35444390222E+03  0.00000000000E+00 0.  1.
         11    1    5    5    0    0 -0.13865850710E+03  0.43879944358E+02  0.14132245270E+03  0.20278971065E+03  0.00000000000E+00 0. -1.
        -11    1    5    5    0    0 -0.10949072252E+03 -0.34139334887E+02  0.70796256753E+02  0.13478064577E+03  0.00000000000E+00 0.  1.
          1    1    6    6  503    0  0.23854519503E+02  0.36743937909E+01 -0.60928772889E+02  0.65535140469E+02  0.00000000000E+00 0. -1.
         -1    1    6    6    0  503  0.36415881408E+03 -0.13786036296E+03 -0.38240045078E+03  0.54575381474E+03  0.00000000000E+00 0.  1.
<mgrwt>
<rscale>  0 0.12887037E+04</rscale>
<asrwt>0</asrwt>
<pdfrwt beam="1">  1        1 0.58358701E-01 0.12887037E+04</pdfrwt>
<pdfrwt beam="2">  1       -2 0.16838904E+00 0.12887037E+04</pdfrwt>
<totfact> 0.12091134E+01</totfact>
</mgrwt>
</event>
<event>
12    4  0.4413110E-008  0.1425349E+04  0.7818608E-02  0.8935672E-01
          1   -1    0    0  501    0  0.00000000000E+00  0.00000000000E+00  0.35098973622E+03  0.35098973622E+03  0.00000000000E+00 0. -1.
         -2   -1    0    0    0  501 -0.00000000000E+00 -0.00000000000E+00 -0.14470639750E+04  0.14470639750E+04  0.00000000000E+00 0.  1.
        -24    2    1    2    0    0  0.16826437690E+03 -0.94277947462E+02 -0.80107585205E+03  0.82788060832E+03  0.80389980562E+02 0.  0.
        254    2    1    2    0    0 -0.16826437690E+03  0.94277947462E+02 -0.29499838672E+03  0.97017310288E+03  0.90388636978E+03 0.  0.
         23    2    4    4    0    0 -0.30414511985E+02 -0.31558463619E+03  0.13214863606E+03  0.35566754793E+03  0.92289964224E+02 0.  0.
         23    2    4    4    0    0 -0.13784986492E+03  0.40986258366E+03 -0.42714702277E+03  0.61450555496E+03  0.90402296811E+02 0.  0.
          3    1    3    3  502    0 -0.40761334493E+01 -0.10906262762E+02 -0.15933320674E+02  0.19734035042E+02  0.00000000000E+00 0. -1.
         -4    1    3    3    0  502  0.17234051035E+03 -0.83371684699E+02 -0.78514253138E+03  0.80814657327E+03  0.00000000000E+00 0.  1.
         11    1    5    5    0    0 -0.14729416446E+01 -0.16811452460E+03  0.22465573175E+02  0.16961534399E+03  0.00000000000E+00 0. -1.
        -11    1    5    5    0    0 -0.28941570340E+02 -0.14747011159E+03  0.10968306288E+03  0.18605220394E+03  0.00000000000E+00 0.  1.
          1    1    6    6  503    0 -0.46085101487E+02  0.87137552212E+02 -0.52870397319E+02  0.11185735781E+03  0.00000000000E+00 0. -1.
         -1    1    6    6    0  503 -0.91764763431E+02  0.32272503144E+03 -0.37427662545E+03  0.50264819714E+03  0.00000000000E+00 0.  1.
<mgrwt>
<rscale>  0 0.14253485E+04</rscale>
<asrwt>0</asrwt>
<pdfrwt beam="1">  1        1 0.53998421E-01 0.14253485E+04</pdfrwt>
<pdfrwt beam="2">  1       -2 0.22262523E+00 0.14253485E+04</pdfrwt>
<totfact> 0.57682522E+00</totfact>
</mgrwt>
</event>
<event>
12    4  0.4413110E-008  0.1253799E+04  0.7818608E-02  0.9067028E-01
         -2   -1    0    0    0  501 -0.00000000000E+00  0.00000000000E+00  0.60773797977E+03  0.60773797977E+03  0.00000000000E+00 0.  1.
          1   -1    0    0  501    0  0.00000000000E+00 -0.00000000000E+00 -0.64666486102E+03  0.64666486102E+03  0.00000000000E+00 0. -1.
        -24    2    1    2    0    0  0.71941541647E+02 -0.14395240851E+03 -0.25797082919E+03  0.31394340620E+03  0.78189719632E+02 0.  0.
        254    2    1    2    0    0 -0.71941541647E+02  0.14395240851E+03  0.21904394793E+03  0.94045943459E+03  0.90032539432E+03 0.  0.
         23    2    4    4    0    0  0.26998123701E+03  0.34899992135E+03 -0.48085853213E+02  0.45172865982E+03  0.83998329666E+02 0.  0.
         23    2    4    4    0    0 -0.34192277866E+03 -0.20504751284E+03  0.26712980115E+03  0.48873077477E+03  0.92432518399E+02 0.  0.
          3    1    3    3  502    0  0.77286081003E+02 -0.13152506454E+03 -0.25877259792E+03  0.30039180806E+03  0.00000000000E+00 0. -1.
         -4    1    3    3    0  502 -0.53445393561E+01 -0.12427343968E+02  0.80176872862E+00  0.13551598139E+02  0.00000000000E+00 0.  1.
         11    1    5    5    0    0  0.26071401476E+03  0.29590460962E+03 -0.51498138410E+02  0.39772275990E+03  0.00000000000E+00 0. -1.
        -11    1    5    5    0    0  0.92672222538E+01  0.53095311730E+02  0.34122851969E+01  0.54005899920E+02  0.00000000000E+00 0.  1.
          1    1    6    6  503    0 -0.25640689900E+03 -0.10544606578E+03  0.16731406464E+03  0.32381687243E+03  0.00000000000E+00 0. -1.
         -1    1    6    6    0  503 -0.85515879654E+02 -0.99601447059E+02  0.99815736508E+02  0.16491390234E+03  0.00000000000E+00 0.  1.
<mgrwt>
<rscale>  0 0.12537987E+04</rscale>
<asrwt>0</asrwt>
<pdfrwt beam="1">  1        1 0.99486902E-01 0.12537987E+04</pdfrwt>
<pdfrwt beam="2">  1       -2 0.93498151E-01 0.12537987E+04</pdfrwt>
<totfact> 0.25626411E+01</totfact>
</mgrwt>
</event>
<event>
12    4  0.4413110E-008  0.1393898E+04  0.7818608E-02  0.8958247E-01
          1   -1    0    0  501    0  0.00000000000E+00  0.00000000000E+00  0.12996960763E+04  0.12996960763E+04  0.00000000000E+00 0. -1.
         -2   -1    0    0    0  501 -0.00000000000E+00 -0.00000000000E+00 -0.37373195906E+03  0.37373195906E+03  0.00000000000E+00 0.  1.
        -24    2    1    2    0    0 -0.25179988358E+03  0.23777598092E+03  0.54743263100E+03  0.65240920417E+03  0.77554404996E+02 0.  0.
        254    2    1    2    0    0  0.25179988358E+03 -0.23777598092E+03  0.37853148625E+03  0.10210188312E+04  0.88275294908E+03 0.  0.
         23    2    4    4    0    0  0.53592741048E+03 -0.27631984132E+03  0.11718426829E+03  0.62102205000E+03  0.91462505086E+02 0.  0.
         23    2    4    4    0    0 -0.28412752690E+03  0.38543860398E+02  0.26134721796E+03  0.39999678120E+03  0.97370303068E+02 0.  0.
          3    1    3    3  502    0 -0.25655109315E+03  0.22848113520E+03  0.53805354057E+03  0.63837583371E+03  0.00000000000E+00 0. -1.
         -4    1    3    3    0  502  0.47512095752E+01  0.92948457164E+01  0.93790904267E+01  0.14033370463E+02  0.00000000000E+00 0.  1.
         11    1    5    5    0    0  0.26547980353E+03 -0.18605414497E+03  0.75706672807E+02  0.33290715109E+03  0.00000000000E+00 0.  1.
        -11    1    5    5    0    0  0.27044760695E+03 -0.90265696350E+02  0.41477595487E+02  0.28811489890E+03  0.00000000000E+00 0. -1.
          3    1    6    6  503    0 -0.20067710993E+03  0.26312560626E+02  0.11970346844E+03  0.23514372978E+03  0.00000000000E+00 0. -1.
         -3    1    6    6    0  503 -0.83450416972E+02  0.12231299772E+02  0.14164374952E+03  0.16485305143E+03  0.00000000000E+00 0.  1.
<mgrwt>
<rscale>  0 0.13938981E+04</rscale>
<asrwt>0</asrwt>
<pdfrwt beam="1">  1        1 0.19995324E+00 0.13938981E+04</pdfrwt>
<pdfrwt beam="2">  1       -2 0.57497225E-01 0.13938981E+04</pdfrwt>
<totfact> 0.21941792E+01</totfact>
</mgrwt>
</event>
<event>
12    4  0.4413110E-008  0.1449892E+04  0.7818608E-02  0.8918475E-01
          1   -1    0    0  501    0  0.00000000000E+00  0.00000000000E+00  0.63040037047E+03  0.63040037047E+03  0.00000000000E+00 0. -1.
         -2   -1    0    0    0  501 -0.00000000000E+00 -0.00000000000E+00 -0.83367182941E+03  0.83367182941E+03  0.00000000000E+00 0.  1.
        -24    2    1    2    0    0  0.17017297531E+03 -0.38634325495E+03 -0.20242241548E+03  0.47533110278E+03  0.82127162426E+02 0.  0.
        254    2    1    2    0    0 -0.17017297531E+03  0.38634325495E+03 -0.84904345984E+00  0.98874109710E+03  0.89408516600E+03 0.  0.
         23    2    4    4    0    0  0.14182115859E+03 -0.10787035512E+03  0.27265620294E+03  0.33712510520E+03  0.86963653402E+02 0.  0.
         23    2    4    4    0    0 -0.31199413391E+03  0.49421361007E+03 -0.27350524640E+03  0.65161599190E+03  0.90613735854E+02 0.  0.
          3    1    3    3  502    0  0.17731097333E+03 -0.35713776080E+03 -0.17828067726E+03  0.43677289447E+03  0.00000000000E+00 0. -1.
         -4    1    3    3    0  502 -0.71379980182E+01 -0.29205494142E+02 -0.24141738220E+02  0.38558208310E+02  0.00000000000E+00 0.  1.
         11    1    5    5    0    0  0.80234842412E+02 -0.77929027493E+02  0.95077296273E+02  0.14680005289E+03  0.00000000000E+00 0. -1.
        -11    1    5    5    0    0  0.61586316180E+02 -0.29941327630E+02  0.17757890667E+03  0.19032505230E+03  0.00000000000E+00 0.  1.
          1    1    6    6  503    0 -0.23249667946E+02  0.77191145339E+02 -0.13877338046E+02  0.81802203452E+02  0.00000000000E+00 0. -1.
         -1    1    6    6    0  503 -0.28874446596E+03  0.41702246473E+03 -0.25962790836E+03  0.56981378845E+03  0.00000000000E+00 0.  1.
<mgrwt>
<rscale>  0 0.14498925E+04</rscale>
<asrwt>0</asrwt>
<pdfrwt beam="1">  1        1 0.96984672E-01 0.14498925E+04</pdfrwt>
<pdfrwt beam="2">  1       -2 0.12825721E+00 0.14498925E+04</pdfrwt>
<totfact> 0.12168857E+01</totfact>
</mgrwt>
</event>
<event>
12    4  0.4413110E-008  0.1653803E+04  0.7818608E-02  0.8788160E-01
         -2   -1    0    0    0  501 -0.00000000000E+00  0.00000000000E+00  0.59065470514E+03  0.59065470514E+03  0.00000000000E+00 0.  1.
          1   -1    0    0  501    0  0.00000000000E+00 -0.00000000000E+00 -0.11576413760E+04  0.11576413760E+04  0.00000000000E+00 0. -1.
        -24    2    1    2    0    0  0.59812720148E+02 -0.11366385112E+03 -0.79894874818E+03  0.81327176474E+03  0.81208549774E+02 0.  0.
        254    2    1    2    0    0 -0.59812720148E+02  0.11366385112E+03  0.23196207732E+03  0.93502431641E+03  0.89664208826E+03 0.  0.
         23    2    4    4    0    0 -0.35265642644E+03  0.21903793050E+03 -0.13552085479E+03  0.44477270911E+03  0.84336768833E+02 0.  0.
         23    2    4    4    0    0  0.29284370629E+03 -0.10537407938E+03  0.36748293211E+03  0.49025160731E+03  0.91879269479E+02 0.  0.
          3    1    3    3  502    0  0.35900295512E+02 -0.87535581923E+02 -0.72643540611E+03  0.73257061678E+03  0.00000000000E+00 0. -1.
         -4    1    3    3    0  502  0.23912424636E+02 -0.26128269196E+02 -0.72513342068E+02  0.80701147953E+02  0.00000000000E+00 0.  1.
         11    1    5    5    0    0 -0.11947014433E+03  0.42354224571E+02 -0.12407347548E+02  0.12736144628E+03  0.00000000000E+00 0.  1.
        -11    1    5    5    0    0 -0.23318628211E+03  0.17668370593E+03 -0.12311350724E+03  0.31741126283E+03  0.00000000000E+00 0. -1.
          3    1    6    6  503    0  0.11641349334E+03 -0.39449176263E+02  0.21609626480E+03  0.24860799384E+03  0.00000000000E+00 0. -1.
         -3    1    6    6    0  503  0.17643021295E+03 -0.65924903118E+02  0.15138666731E+03  0.24164361347E+03  0.00000000000E+00 0.  1.
<mgrwt>
<rscale>  0 0.16538033E+04</rscale>
<asrwt>0</asrwt>
<pdfrwt beam="1">  1        1 0.17809867E+00 0.16538033E+04</pdfrwt>
<pdfrwt beam="2">  1       -2 0.90869955E-01 0.16538033E+04</pdfrwt>
<totfact> 0.99421496E+00</totfact>
</mgrwt>
</event>
<event>
12    4  0.4413110E-008  0.1926364E+04  0.7818608E-02  0.8641844E-01
         -2   -1    0    0    0  501 -0.00000000000E+00  0.00000000000E+00  0.31480281151E+03  0.31480281151E+03  0.00000000000E+00 0.  1.
          1   -1    0    0  501    0  0.00000000000E+00 -0.00000000000E+00 -0.29469859709E+04  0.29469859709E+04  0.00000000000E+00 0. -1.
        -24    2    1    2    0    0  0.24561496544E+02  0.37651613042E+03  0.66494967463E+02  0.39151825702E+03  0.80605839178E+02 0.  0.
        254    2    1    2    0    0 -0.24561496544E+02 -0.37651613042E+03 -0.26986781268E+04  0.28702705253E+04  0.90178799778E+03 0.  0.
         23    2    4    4    0    0  0.23822584394E+02  0.16276879740E+03 -0.18429169738E+04  0.18525013782E+04  0.91417649630E+02 0.  0.
         23    2    4    4    0    0 -0.48384080938E+02 -0.53928492781E+03 -0.85576115296E+03  0.10177691472E+04  0.10177245884E+03 0.  0.
          1    1    3    3  502    0  0.25719828395E+02  0.13495018747E+03 -0.11012389579E+02  0.13781993831E+03  0.00000000000E+00 0. -1.
         -2    1    3    3    0  502 -0.11583318515E+01  0.24156594295E+03  0.77507357042E+02  0.25369831872E+03  0.00000000000E+00 0.  1.
         11    1    5    5    0    0 -0.66431996240E+01  0.15111590869E+03 -0.16421651045E+04  0.16491168486E+04  0.00000000000E+00 0.  1.
        -11    1    5    5    0    0  0.30465784018E+02  0.11652888701E+02 -0.20075186936E+03  0.20338452955E+03  0.00000000000E+00 0. -1.
          2    1    6    6  503    0 -0.25568400774E+02 -0.18796015446E+03 -0.39225922680E+03  0.43571787178E+03  0.00000000000E+00 0. -1.
         -2    1    6    6    0  503 -0.22815680164E+02 -0.35132477336E+03 -0.46350192616E+03  0.58205127540E+03  0.00000000000E+00 0.  1.
<mgrwt>
<rscale>  0 0.19263639E+04</rscale>
<asrwt>0</asrwt>
<pdfrwt beam="1">  1        1 0.45338246E+00 0.19263639E+04</pdfrwt>
<pdfrwt beam="2">  1       -2 0.48431202E-01 0.19263639E+04</pdfrwt>
<totfact> 0.21679357E+00</totfact>
</mgrwt>
</event>
<event>
12    4  0.4413110E-008  0.1388229E+04  0.7818608E-02  0.8962384E-01
         -2   -1    0    0    0  501 -0.00000000000E+00  0.00000000000E+00  0.14533684019E+04  0.14533684019E+04  0.00000000000E+00 0.  1.
          1   -1    0    0  501    0  0.00000000000E+00 -0.00000000000E+00 -0.33150212141E+03  0.33150212141E+03  0.00000000000E+00 0. -1.
        -24    2    1    2    0    0  0.27704305055E+03  0.17023840781E+02  0.68599341483E+03  0.74451416853E+03  0.81680590887E+02 0.  0.
        254    2    1    2    0    0 -0.27704305055E+03 -0.17023840781E+02  0.43587286564E+03  0.10403563548E+04  0.90294713404E+03 0.  0.
         23    2    4    4    0    0  0.22767419878E+03 -0.13818067733E+03 -0.92613037016E+02  0.29394748357E+03  0.83057257928E+02 0.  0.
         23    2    4    4    0    0 -0.50471724934E+03  0.12115683654E+03  0.52848590266E+03  0.74640887119E+03  0.91708085008E+02 0.  0.
          3    1    3    3  502    0  0.23153601442E+02 -0.21098669075E+02  0.55079134501E+02  0.63363665881E+02  0.00000000000E+00 0. -1.
         -4    1    3    3    0  502  0.25388944911E+03  0.38122509856E+02  0.63091428033E+03  0.68115050265E+03  0.00000000000E+00 0.  1.
         11    1    5    5    0    0  0.14972876406E+03 -0.85120978144E+02 -0.16975132599E+02  0.17306772904E+03  0.00000000000E+00 0.  1.
        -11    1    5    5    0    0  0.77945434719E+02 -0.53059699182E+02 -0.75637904417E+02  0.12087975453E+03  0.00000000000E+00 0. -1.
          1    1    6    6  503    0 -0.47946159539E+03  0.13524975060E+03  0.49923883918E+03  0.70527677903E+03  0.00000000000E+00 0. -1.
         -1    1    6    6    0  503 -0.25255653948E+02 -0.14092914061E+02  0.29247063481E+02  0.41132092158E+02  0.00000000000E+00 0.  1.
<mgrwt>
<rscale>  0 0.13882287E+04</rscale>
<asrwt>0</asrwt>
<pdfrwt beam="1">  1        1 0.51000327E-01 0.13882287E+04</pdfrwt>
<pdfrwt beam="2">  1       -2 0.22359514E+00 0.13882287E+04</pdfrwt>
<totfact> 0.61486709E+00</totfact>
</mgrwt>
</event>
<event>
12    4  0.4413110E-008  0.1650545E+04  0.7818608E-02  0.8790084E-01
          1   -1    0    0  501    0  0.00000000000E+00  0.00000000000E+00  0.94669639942E+03  0.94669639942E+03  0.00000000000E+00 0. -1.
         -2   -1    0    0    0  501 -0.00000000000E+00 -0.00000000000E+00 -0.71942288151E+03  0.71942288151E+03  0.00000000000E+00 0.  1.
        -24    2    1    2    0    0  0.59186910253E+01  0.41476926131E+03 -0.31920560121E+03  0.52958528586E+03  0.80621263447E+02 0.  0.
        254    2    1    2    0    0 -0.59186910253E+01 -0.41476926131E+03  0.54647911912E+03  0.11365339951E+04  0.90609134379E+03 0.  0.
         23    2    4    4    0    0  0.28981373539E+03 -0.56442081011E+03  0.26913939724E+03  0.69499596956E+03  0.89557414239E+02 0.  0.
         23    2    4    4    0    0 -0.29573242642E+03  0.14965154880E+03  0.27733972188E+03  0.44153802551E+03  0.90472385563E+02 0.  0.
          3    1    3    3  502    0 -0.68672331493E+01  0.63461539698E+01 -0.23201481317E+02  0.25014821540E+02  0.00000000000E+00 0. -1.
         -4    1    3    3    0  502  0.12785924175E+02  0.40842310734E+03 -0.29600411989E+03  0.50457046432E+03  0.00000000000E+00 0.  1.
         11    1    5    5    0    0  0.27519194991E+03 -0.52290867215E+03  0.22395086084E+03  0.63191619443E+03  0.00000000000E+00 0. -1.
        -11    1    5    5    0    0  0.14621785481E+02 -0.41512137961E+02  0.45188536399E+02  0.63079775132E+02  0.00000000000E+00 0.  1.
          4    1    6    6  503    0 -0.41798655621E+02  0.14325044452E+02  0.35093698091E+01  0.44324374634E+02  0.00000000000E+00 0.  1.
         -4    1    6    6    0  503 -0.25393377080E+03  0.13532650435E+03  0.27383035207E+03  0.39721365088E+03  0.00000000000E+00 0. -1.
<mgrwt>
<rscale>  0 0.16505454E+04</rscale>
<asrwt>0</asrwt>
<pdfrwt beam="1">  1        1 0.14564560E+00 0.16505454E+04</pdfrwt>
<pdfrwt beam="2">  1       -2 0.11068044E+00 0.16505454E+04</pdfrwt>
<totfact> 0.90398606E+00</totfact>
</mgrwt>
</event>
<event>
12    4  0.4413110E-008  0.1270403E+04  0.7818608E-02  0.9053371E-01
         -2   -1    0    0    0  501 -0.00000000000E+00  0.00000000000E+00  0.30331831179E+03  0.30331831179E+03  0.00000000000E+00 0.  1.
          1   -1    0    0  501    0  0.00000000000E+00 -0.00000000000E+00 -0.13302217948E+04  0.13302217948E+04  0.00000000000E+00 0. -1.
        -24    2    1    2    0    0 -0.56061843456E+01  0.12029745346E+03 -0.59569607287E+03  0.61305700496E+03  0.80511946262E+02 0.  0.
        254    2    1    2    0    0  0.56061843456E+01 -0.12029745346E+03 -0.43120741012E+03  0.10204831016E+04  0.91702945618E+03 0.  0.
         23    2    4    4    0    0  0.17291169304E+03 -0.41202272994E+02  0.24370199574E+03  0.31473589878E+03  0.89843989028E+02 0.  0.
         23    2    4    4    0    0 -0.16730550869E+03 -0.79095180463E+02 -0.67490940586E+03  0.70574720282E+03  0.91264600837E+02 0.  0.
          3    1    3    3  502    0 -0.10780331019E+02  0.13013751630E+03 -0.57414093623E+03  0.58880370527E+03  0.00000000000E+00 0. -1.
         -4    1    3    3    0  502  0.51741466737E+01 -0.98400628385E+01 -0.21555136641E+02  0.24253299695E+02  0.00000000000E+00 0.  1.
         11    1    5    5    0    0  0.16915959207E+03 -0.49810937118E+02  0.18611471113E+03  0.25638795359E+03  0.00000000000E+00 0.  1.
        -11    1    5    5    0    0  0.37521009681E+01  0.86086641243E+01  0.57587284604E+02  0.58347945189E+02  0.00000000000E+00 0. -1.
          1    1    6    6  503    0 -0.99075166015E+02 -0.70558232461E+02 -0.54871939769E+03  0.56203854858E+03  0.00000000000E+00 0. -1.
         -1    1    6    6    0  503 -0.68230342676E+02 -0.85369480019E+01 -0.12619000817E+03  0.14370865425E+03  0.00000000000E+00 0.  1.
<mgrwt>
<rscale>  0 0.12704025E+04</rscale>
<asrwt>0</asrwt>
<pdfrwt beam="1">  1        1 0.20464951E+00 0.12704025E+04</pdfrwt>
<pdfrwt beam="2">  1       -2 0.46664355E-01 0.12704025E+04</pdfrwt>
<totfact> 0.32363984E+01</totfact>
</mgrwt>
</event>
<event>
12    4  0.4413110E-008  0.2209545E+04  0.7818608E-02  0.8514466E-01
          1   -1    0    0  501    0  0.00000000000E+00  0.00000000000E+00  0.38325124983E+04  0.38325124983E+04  0.00000000000E+00 0. -1.
         -2   -1    0    0    0  501 -0.00000000000E+00 -0.00000000000E+00 -0.31846526679E+03  0.31846526679E+03  0.00000000000E+00 0.  1.
        -24    2    1    2    0    0 -0.80457294189E+03 -0.21888600328E+02  0.63328140644E+03  0.10274041638E+04  0.81836706138E+02 0.  0.
        254    2    1    2    0    0  0.80457294189E+03  0.21888600328E+02  0.28807658250E+04  0.31235736012E+04  0.90004642877E+03 0.  0.
         23    2    4    4    0    0  0.55862887780E+02  0.22633985495E+03  0.17820685411E+03  0.31020368439E+03  0.10058951628E+03 0.  0.
         23    2    4    4    0    0  0.74871005411E+03 -0.20445125462E+03  0.27025589709E+04  0.28133699169E+04  0.94118207755E+02 0.  0.
          1    1    3    3  502    0 -0.18285965581E+03 -0.20141953277E+02  0.18522679177E+03  0.26105998620E+03  0.00000000000E+00 0. -1.
         -2    1    3    3    0  502 -0.62171328608E+03 -0.17466470512E+01  0.44805461466E+03  0.76634417763E+03  0.00000000000E+00 0.  1.
         11    1    5    5    0    0  0.16023600303E+02  0.19210489522E+03  0.17002937808E+03  0.25704286791E+03  0.00000000000E+00 0. -1.
        -11    1    5    5    0    0  0.39839287477E+02  0.34234959727E+02  0.81774760392E+01  0.53160816477E+02  0.00000000000E+00 0.  1.
          2    1    6    6  503    0  0.22944832972E+03 -0.22147392979E+02  0.86278453180E+03  0.89304769824E+03  0.00000000000E+00 0.  1.
         -2    1    6    6    0  503  0.51926172439E+03 -0.18230386164E+03  0.18397744391E+04  0.19203222186E+04  0.00000000000E+00 0. -1.
<mgrwt>
<rscale>  0 0.22095449E+04</rscale>
<asrwt>0</asrwt>
<pdfrwt beam="1">  1        1 0.58961727E+00 0.22095449E+04</pdfrwt>
<pdfrwt beam="2">  1       -2 0.48994659E-01 0.22095449E+04</pdfrwt>
<totfact> 0.42442416E-01</totfact>
</mgrwt>
</event>
<event>
12    4  0.4413110E-008  0.2025902E+04  0.7818608E-02  0.8594606E-01
          1   -1    0    0  501    0  0.00000000000E+00  0.00000000000E+00  0.18480540295E+04  0.18480540295E+04  0.00000000000E+00 0. -1.
         -2   -1    0    0    0  501 -0.00000000000E+00 -0.00000000000E+00 -0.55521616319E+03  0.55521616319E+03  0.00000000000E+00 0.  1.
        -24    2    1    2    0    0  0.22086484901E+03 -0.54893473083E+02 -0.40525870629E+03  0.47159326487E+03  0.79818628952E+02 0.  0.
        254    2    1    2    0    0 -0.22086484901E+03  0.54893473083E+02  0.16980965726E+04  0.19316769278E+04  0.89221589800E+03 0.  0.
         23    2    4    4    0    0  0.12882689716E+03 -0.34606895262E+03  0.71339540953E+03  0.80862100779E+03  0.92600402329E+02 0.  0.
         23    2    4    4    0    0 -0.34969174617E+03  0.40096242570E+03  0.98470116304E+03  0.11230559200E+04  0.92536667149E+02 0.  0.
          1    1    3    3  502    0  0.71585743419E+01  0.11828086880E+02 -0.48269602801E+02  0.50210590321E+02  0.00000000000E+00 0. -1.
         -2    1    3    3    0  502  0.21370627467E+03 -0.66721559963E+02 -0.35698910349E+03  0.42138267455E+03  0.00000000000E+00 0.  1.
         11    1    5    5    0    0 -0.14184563255E+02 -0.38265716398E+02  0.89999761205E+02  0.98820159396E+02  0.00000000000E+00 0. -1.
        -11    1    5    5    0    0  0.14301146041E+03 -0.30780323622E+03  0.62339564832E+03  0.70980084840E+03  0.00000000000E+00 0.  1.
          3    1    6    6  503    0 -0.18720461412E+03  0.28089223797E+03  0.63727411692E+03  0.72115484953E+03  0.00000000000E+00 0. -1.
         -3    1    6    6    0  503 -0.16248713205E+03  0.12007018774E+03  0.34742704612E+03  0.40190107046E+03  0.00000000000E+00 0.  1.
<mgrwt>
<rscale>  0 0.20259017E+04</rscale>
<asrwt>0</asrwt>
<pdfrwt beam="1">  1        1 0.28431600E+00 0.20259017E+04</pdfrwt>
<pdfrwt beam="2">  1       -2 0.85417872E-01 0.20259017E+04</pdfrwt>
<totfact> 0.36594489E+00</totfact>
</mgrwt>
</event>
<event>
12    4  0.4413110E-008  0.1343352E+04  0.7818608E-02  0.8995876E-01
         -2   -1    0    0    0  501 -0.00000000000E+00  0.00000000000E+00  0.20103576600E+03  0.20103576600E+03  0.00000000000E+00 0.  1.
          1   -1    0    0  501    0  0.00000000000E+00 -0.00000000000E+00 -0.22441210193E+04  0.22441210193E+04  0.00000000000E+00 0. -1.
        -24    2    1    2    0    0  0.60541791512E+02 -0.27735547991E+03 -0.18334655526E+03  0.34708646904E+03  0.79130821490E+02 0.  0.
        254    2    1    2    0    0 -0.60541791512E+02  0.27735547991E+03 -0.18597386981E+04  0.20980703163E+04  0.92880549968E+03 0.  0.
         23    2    4    4    0    0 -0.21055326221E+03  0.56580756223E+03 -0.14059011316E+04  0.15328683378E+04  0.93040181895E+02 0.  0.
         23    2    4    4    0    0  0.15001147069E+03 -0.28845208232E+03 -0.45383756645E+03  0.56520197849E+03  0.88185569259E+02 0.  0.
          3    1    3    3  502    0 -0.99436085390E+01 -0.20053703366E+01 -0.34675758589E+01  0.10720118623E+02  0.00000000000E+00 0. -1.
         -4    1    3    3    0  502  0.70485400051E+02 -0.27535010957E+03 -0.17987897940E+03  0.33636635042E+03  0.00000000000E+00 0.  1.
         11    1    5    5    0    0 -0.14175664690E+03  0.31436986893E+03 -0.89884310003E+03  0.96272648240E+03  0.00000000000E+00 0. -1.
        -11    1    5    5    0    0 -0.68796615306E+02  0.25143769330E+03 -0.50705803158E+03  0.57014185540E+03  0.00000000000E+00 0.  1.
          4    1    6    6  503    0  0.11518446001E+02 -0.17289051045E+00 -0.20974679661E+01  0.11709135804E+02  0.00000000000E+00 0. -1.
         -4    1    6    6    0  503  0.13849302469E+03 -0.28827919181E+03 -0.45174009848E+03  0.55349284268E+03  0.00000000000E+00 0.  1.
<mgrwt>
<rscale>  0 0.13433519E+04</rscale>
<asrwt>0</asrwt>
<pdfrwt beam="1">  1        1 0.34524941E+00 0.13433519E+04</pdfrwt>
<pdfrwt beam="2">  1       -2 0.30928578E-01 0.13433519E+04</pdfrwt>
<totfact> 0.16965742E+01</totfact>
</mgrwt>
</event>
<event>
12    4  0.4413110E-008  0.1079639E+04  0.7818608E-02  0.9225267E-01
         -2   -1    0    0    0  501 -0.00000000000E+00  0.00000000000E+00  0.20772271804E+03  0.20772271804E+03  0.00000000000E+00 0.  1.
          1   -1    0    0  501    0  0.00000000000E+00 -0.00000000000E+00 -0.14028566946E+04  0.14028566946E+04  0.00000000000E+00 0. -1.
        -24    2    1    2    0    0 -0.88949415352E+02  0.12719476465E+03 -0.24199902766E+03  0.29827947892E+03  0.79477113130E+02 0.  0.
        254    2    1    2    0    0  0.88949415352E+02 -0.12719476465E+03 -0.95313494889E+03  0.13122999337E+04  0.88857997871E+03 0.  0.
         23    2    4    4    0    0 -0.29232710414E+03  0.21526050181E+03 -0.31860855309E+03  0.49162523131E+03  0.91606432638E+02 0.  0.
         23    2    4    4    0    0  0.38127651949E+03 -0.34245526646E+03 -0.63452639580E+03  0.82067470240E+03  0.90751453688E+02 0.  0.
          1    1    3    3  502    0 -0.89036009372E+02  0.13590497088E+03 -0.21234359506E+03  0.26737122964E+03  0.00000000000E+00 0. -1.
         -2    1    3    3    0  502  0.86594020658E-01 -0.87102062314E+01 -0.29655432596E+02  0.30908249281E+02  0.00000000000E+00 0.  1.
         11    1    5    5    0    0 -0.23962636106E+02 -0.26718208821E+01 -0.44952838580E+01  0.24526600518E+02  0.00000000000E+00 0. -1.
        -11    1    5    5    0    0 -0.26836446803E+03  0.21793232270E+03 -0.31411326923E+03  0.46709863079E+03  0.00000000000E+00 0.  1.
          3    1    6    6  503    0  0.52788027517E+01 -0.12983984269E+01 -0.33384056157E+02  0.33823760916E+02  0.00000000000E+00 0. -1.
         -3    1    6    6    0  503  0.37599771674E+03 -0.34115686803E+03 -0.60114233965E+03  0.78685094149E+03  0.00000000000E+00 0.  1.
<mgrwt>
<rscale>  0 0.10796392E+04</rscale>
<asrwt>0</asrwt>
<pdfrwt beam="1">  1        1 0.21582410E+00 0.10796392E+04</pdfrwt>
<pdfrwt beam="2">  1       -2 0.31957342E-01 0.10796392E+04</pdfrwt>
<totfact> 0.60948363E+01</totfact>
</mgrwt>
</event>
<event>
12    4  0.4413110E-008  0.1583599E+04  0.7818608E-02  0.8830688E-01
          1   -1    0    0  501    0  0.00000000000E+00  0.00000000000E+00  0.24354438786E+04  0.24354438786E+04  0.00000000000E+00 0. -1.
         -2   -1    0    0    0  501 -0.00000000000E+00 -0.00000000000E+00 -0.25742594731E+03  0.25742594731E+03  0.00000000000E+00 0.  1.
        -24    2    1    2    0    0 -0.47973254729E+03 -0.31969526648E+02  0.33170907572E+03  0.58963979663E+03  0.80491063384E+02 0.  0.
        254    2    1    2    0    0  0.47973254729E+03  0.31969526648E+02  0.18463088556E+04  0.21032300293E+04  0.88518630717E+03 0.  0.
         23    2    4    4    0    0  0.67056124793E+03  0.23265883621E+03  0.13051695106E+04  0.14884927922E+04  0.91437518517E+02 0.  0.
         23    2    4    4    0    0 -0.19082870064E+03 -0.20068930956E+03  0.54113934499E+03  0.61473723709E+03  0.91532988663E+02 0.  0.
          1    1    3    3  502    0 -0.45541277869E+03 -0.17566087680E+02  0.32713977979E+03  0.56100784482E+03  0.00000000000E+00 0. -1.
         -2    1    3    3    0  502 -0.24319768600E+02 -0.14403438967E+02  0.45692959350E+01  0.28631951805E+02  0.00000000000E+00 0.  1.
         11    1    5    5    0    0  0.57955320922E+03  0.16704518205E+03  0.10843964664E+04  0.12408471749E+04  0.00000000000E+00 0.  1.
        -11    1    5    5    0    0  0.91008038711E+02  0.65613654163E+02  0.22077304419E+03  0.24764561729E+03  0.00000000000E+00 0. -1.
          1    1    6    6  503    0 -0.10264780428E+03 -0.13546167436E+03  0.23872269016E+03  0.29304429655E+03  0.00000000000E+00 0. -1.
         -1    1    6    6    0  503 -0.88180896361E+02 -0.65227635206E+02  0.30241665483E+03  0.32169294055E+03  0.00000000000E+00 0.  1.
<mgrwt>
<rscale>  0 0.15835990E+04</rscale>
<asrwt>0</asrwt>
<pdfrwt beam="1">  1        1 0.37468366E+00 0.15835990E+04</pdfrwt>
<pdfrwt beam="2">  1       -2 0.39603994E-01 0.15835990E+04</pdfrwt>
<totfact> 0.76545051E+00</totfact>
</mgrwt>
</event>
<event>
12    4  0.4413110E-008  0.2407493E+04  0.7818608E-02  0.8436703E-01
          1   -1    0    0  501    0  0.00000000000E+00  0.00000000000E+00  0.13305823149E+04  0.13305823149E+04  0.00000000000E+00 0. -1.
         -2   -1    0    0    0  501 -0.00000000000E+00 -0.00000000000E+00 -0.10890014847E+04  0.10890014847E+04  0.00000000000E+00 0.  1.
        -24    2    1    2    0    0 -0.64805916219E+03  0.77294505873E+02 -0.71175697044E+03  0.96883343954E+03  0.78007245006E+02 0.  0.
        254    2    1    2    0    0  0.64805916219E+03 -0.77294505873E+02  0.95333780071E+03  0.14507503601E+04  0.87742152165E+03 0.  0.
         23    2    4    4    0    0  0.83217519012E+03  0.49925925253E+02  0.82916061282E+03  0.11792509215E+04  0.90095888107E+02 0.  0.
         23    2    4    4    0    0 -0.18411602793E+03 -0.12722043113E+03  0.12417718790E+03  0.27149943853E+03  0.90599234514E+02 0.  0.
          3    1    3    3  502    0 -0.98137409093E+02  0.40304754360E+02 -0.11893572139E+03  0.15937731993E+03  0.00000000000E+00 0. -1.
         -4    1    3    3    0  502 -0.54992175310E+03  0.36989751513E+02 -0.59282124905E+03  0.80945611961E+03  0.00000000000E+00 0.  1.
         11    1    5    5    0    0  0.74674645768E+03  0.28992068772E+02  0.77140006928E+03  0.10740246175E+04  0.00000000000E+00 0. -1.
        -11    1    5    5    0    0  0.85428732440E+02  0.20933856481E+02  0.57760543539E+02  0.10522630405E+03  0.00000000000E+00 0.  1.
          3    1    6    6  503    0 -0.11093583203E+03 -0.57884902440E+02  0.20333070243E+02  0.12677087404E+03  0.00000000000E+00 0. -1.
         -3    1    6    6    0  503 -0.73180195894E+02 -0.69335528686E+02  0.10384411765E+03  0.14472856449E+03  0.00000000000E+00 0.  1.
<mgrwt>
<rscale>  0 0.24074934E+04</rscale>
<asrwt>0</asrwt>
<pdfrwt beam="1">  1        1 0.20470497E+00 0.24074934E+04</pdfrwt>
<pdfrwt beam="2">  1       -2 0.16753869E+00 0.24074934E+04</pdfrwt>
<totfact> 0.15007409E+00</totfact>
</mgrwt>
</event>
<event>
12    4  0.5464013E-008  0.3287471E+04  0.7818608E-02  0.8166091E-01
          1   -1    0    0  501    0  0.00000000000E+00  0.00000000000E+00  0.19486236052E+04  0.19486236052E+04  0.00000000000E+00 0. -1.
         -2   -1    0    0    0  501 -0.00000000000E+00 -0.00000000000E+00 -0.13865515298E+04  0.13865515298E+04  0.00000000000E+00 0.  1.
        -24    2    1    2    0    0 -0.86160729350E+03 -0.68877163590E+03  0.13228102995E+04  0.17242329732E+04  0.79867157683E+02 0.  0.
        254    2    1    2    0    0  0.86160729350E+03  0.68877163590E+03 -0.76073822413E+03  0.16109421618E+04  0.89422508814E+03 0.  0.
         23    2    4    4    0    0  0.10104132033E+04  0.50090671799E+03 -0.74355641620E+03  0.13538929366E+04  0.91145807976E+02 0.  0.
         23    2    4    4    0    0 -0.14880590979E+03  0.18786491791E+03 -0.17181807929E+02  0.25704922512E+03  0.91338181710E+02 0.  0.
          3    1    3    3  502    0 -0.80936980915E+03 -0.66912632858E+03  0.12548812459E+04  0.16363179621E+04  0.00000000000E+00 0. -1.
         -4    1    3    3    0  502 -0.52237484345E+02 -0.19645307326E+02  0.67929053563E+02  0.87915011168E+02  0.00000000000E+00 0.  1.
         11    1    5    5    0    0  0.56461171094E+00 -0.11248474057E+00 -0.75998164369E+01  0.76215909806E+01  0.00000000000E+00 0. -1.
        -11    1    5    5    0    0  0.10098485916E+04  0.50101920273E+03 -0.73595659976E+03  0.13462713457E+04  0.00000000000E+00 0.  1.
          2    1    6    6  503    0 -0.15796363992E+03  0.15732708187E+03 -0.52447084091E+01  0.22300634339E+03  0.00000000000E+00 0.  1.
         -2    1    6    6    0  503  0.91577301272E+01  0.30537836042E+02 -0.11937099520E+02  0.34042881725E+02  0.00000000000E+00 0. -1.
<mgrwt>
<rscale>  0 0.32874714E+04</rscale>
<asrwt>0</asrwt>
<pdfrwt beam="1">  1        1 0.29978825E+00 0.32874714E+04</pdfrwt>
<pdfrwt beam="2">  1       -2 0.21331562E+00 0.32874714E+04</pdfrwt>
<totfact> 0.25705313E-01</totfact>
</mgrwt>
</event>
<event>
12    4  0.4413110E-008  0.1996310E+04  0.7818608E-02  0.8608348E-01
          1   -1    0    0  501    0  0.00000000000E+00  0.00000000000E+00  0.21335994443E+04  0.21335994443E+04  0.00000000000E+00 0. -1.
         -2   -1    0    0    0  501 -0.00000000000E+00 -0.00000000000E+00 -0.46696350973E+03  0.46696350973E+03  0.00000000000E+00 0.  1.
        -24    2    1    2    0    0  0.65424716231E+03 -0.33643740408E+02  0.86254387005E+02  0.66568125909E+03  0.80749419626E+02 0.  0.
        254    2    1    2    0    0 -0.65424716231E+03  0.33643740408E+02  0.15803815476E+04  0.19348816950E+04  0.90387503941E+03 0.  0.
         23    2    4    4    0    0 -0.11677167286E+02  0.23579352268E+03  0.10283054899E+04  0.10591025678E+04  0.92472304366E+02 0.  0.
         23    2    4    4    0    0 -0.64256999502E+03 -0.20214978227E+03  0.55207605773E+03  0.87577912716E+03  0.91871503039E+02 0.  0.
          3    1    3    3  502    0  0.10890414902E+03 -0.36050922177E+02  0.14003449164E+02  0.11556763929E+03  0.00000000000E+00 0. -1.
         -4    1    3    3    0  502  0.54534301329E+03  0.24071817687E+01  0.72250937841E+02  0.55011361980E+03  0.00000000000E+00 0.  1.
         11    1    5    5    0    0 -0.37893232180E+02  0.96002339957E+02  0.56882976144E+03  0.57811732703E+03  0.00000000000E+00 0.  1.
        -11    1    5    5    0    0  0.26216064894E+02  0.13979118272E+03  0.45947572844E+03  0.48098524078E+03  0.00000000000E+00 0. -1.
          4    1    6    6  503    0 -0.10846720318E+03 -0.21536732932E+01  0.70994690670E+02  0.12965345571E+03  0.00000000000E+00 0.  1.
         -4    1    6    6    0  503 -0.53410279184E+03 -0.19999610898E+03  0.48108136706E+03  0.74612567145E+03  0.00000000000E+00 0. -1.
<mgrwt>
<rscale>  0 0.19963097E+04</rscale>
<asrwt>0</asrwt>
<pdfrwt beam="1">  1        1 0.32824606E+00 0.19963097E+04</pdfrwt>
<pdfrwt beam="2">  1       -2 0.71840541E-01 0.19963097E+04</pdfrwt>
<totfact> 0.34606068E+00</totfact>
</mgrwt>
</event>
<event>
12    4  0.4413110E-008  0.1709827E+04  0.7818608E-02  0.8755780E-01
         -2   -1    0    0    0  501 -0.00000000000E+00  0.00000000000E+00  0.51202918105E+03  0.51202918105E+03  0.00000000000E+00 0.  1.
          1   -1    0    0  501    0  0.00000000000E+00 -0.00000000000E+00 -0.14274127515E+04  0.14274127515E+04  0.00000000000E+00 0. -1.
        -24    2    1    2    0    0  0.23033434143E+03  0.56158550904E+03 -0.22210077223E+03  0.65124190007E+03  0.79718671439E+02 0.  0.
        254    2    1    2    0    0 -0.23033434143E+03 -0.56158550904E+03 -0.69328279825E+03  0.12882000325E+04  0.90021447034E+03 0.  0.
         23    2    4    4    0    0 -0.13762267379E+03 -0.57642715936E+03 -0.87726071960E+03  0.10625530147E+04  0.90687752691E+02 0.  0.
         23    2    4    4    0    0 -0.92711667634E+02  0.14841650318E+02  0.18397792135E+03  0.22564701782E+03  0.90845876127E+02 0.  0.
          3    1    3    3  502    0  0.19437193292E+03  0.42737252414E+03 -0.20094801432E+03  0.51069347671E+03  0.00000000000E+00 0. -1.
         -4    1    3    3    0  502  0.35962408507E+02  0.13421298490E+03 -0.21152757915E+02  0.14054842336E+03  0.00000000000E+00 0.  1.
         11    1    5    5    0    0 -0.39289990915E+01 -0.16502856882E+03 -0.20596029580E+03  0.26394982289E+03  0.00000000000E+00 0.  1.
        -11    1    5    5    0    0 -0.13369367470E+03 -0.41139859054E+03 -0.67130042380E+03  0.79860319180E+03  0.00000000000E+00 0. -1.
          4    1    6    6  503    0 -0.86567034538E+02  0.33611332873E+02  0.18376503601E+03  0.20589599711E+03  0.00000000000E+00 0. -1.
         -4    1    6    6    0  503 -0.61446330961E+01 -0.18769682555E+02  0.21288533937E+00  0.19751020714E+02  0.00000000000E+00 0.  1.
<mgrwt>
<rscale>  0 0.17098269E+04</rscale>
<asrwt>0</asrwt>
<pdfrwt beam="1">  1        1 0.21960196E+00 0.17098269E+04</pdfrwt>
<pdfrwt beam="2">  1       -2 0.78773720E-01 0.17098269E+04</pdfrwt>
<totfact> 0.87756558E+00</totfact>
</mgrwt>
</event>
<event>
12    4  0.4413110E-008  0.2175098E+04  0.7818608E-02  0.8528865E-01
         -2   -1    0    0    0  501 -0.00000000000E+00  0.00000000000E+00  0.48288023579E+03  0.48288023579E+03  0.00000000000E+00 0.  1.
          1   -1    0    0  501    0  0.00000000000E+00 -0.00000000000E+00 -0.24493915655E+04  0.24493915655E+04  0.00000000000E+00 0. -1.
        -24    2    1    2    0    0  0.85926853728E+02 -0.77125351930E+03 -0.19955949682E+03  0.80523310398E+03  0.79755524852E+02 0.  0.
        254    2    1    2    0    0 -0.85926853728E+02  0.77125351930E+03 -0.17669518329E+04  0.21270386974E+04  0.89440450854E+03 0.  0.
         23    2    4    4    0    0 -0.39711674027E+03  0.66878087622E+03 -0.88418809860E+03  0.11811139822E+04  0.90950972348E+02 0.  0.
         23    2    4    4    0    0  0.31118988654E+03  0.10247264309E+03 -0.88276373434E+03  0.94592471519E+03  0.90343611123E+02 0.  0.
          1    1    3    3  502    0 -0.10192126186E+02 -0.21110255424E+03 -0.42305564167E+02  0.21554101374E+03  0.00000000000E+00 0. -1.
         -2    1    3    3    0  502  0.96118979914E+02 -0.56015096506E+03 -0.15725393266E+03  0.58969209024E+03  0.00000000000E+00 0.  1.
         11    1    5    5    0    0 -0.31877724046E+03  0.55124592050E+03 -0.66810507757E+03  0.92296012297E+03  0.00000000000E+00 0. -1.
        -11    1    5    5    0    0 -0.78339499808E+02  0.11753495572E+03 -0.21608302102E+03  0.25815385920E+03  0.00000000000E+00 0.  1.
          4    1    6    6  503    0  0.23445001539E+03  0.63672336952E+02 -0.74416596794E+03  0.78281796354E+03  0.00000000000E+00 0. -1.
         -4    1    6    6    0  503  0.76739871151E+02  0.38800306137E+02 -0.13859776641E+03  0.16310675165E+03  0.00000000000E+00 0.  1.
<mgrwt>
<rscale>  0 0.21750980E+04</rscale>
<asrwt>0</asrwt>
<pdfrwt beam="1">  1        1 0.37682947E+00 0.21750980E+04</pdfrwt>
<pdfrwt beam="2">  1       -2 0.74289267E-01 0.21750980E+04</pdfrwt>
<totfact> 0.19231440E+00</totfact>
</mgrwt>
</event>
<event>
12    4  0.4413110E-008  0.1630103E+04  0.7818608E-02  0.8802265E-01
          1   -1    0    0  501    0  0.00000000000E+00  0.00000000000E+00  0.13049130123E+04  0.13049130123E+04  0.00000000000E+00 0. -1.
         -2   -1    0    0    0  501 -0.00000000000E+00 -0.00000000000E+00 -0.50908312876E+03  0.50908312876E+03  0.00000000000E+00 0.  1.
        -24    2    1    2    0    0  0.25703467510E+03  0.31975434921E+03  0.68826480355E+03  0.80514320609E+03  0.78977683322E+02 0.  0.
        254    2    1    2    0    0 -0.25703467510E+03 -0.31975434921E+03  0.10756507996E+03  0.10088529349E+04  0.91537114323E+03 0.  0.
         23    2    4    4    0    0 -0.47968396729E+03 -0.20195917157E+03 -0.23135566036E+03  0.57681881892E+03  0.91160807511E+02 0.  0.
         23    2    4    4    0    0  0.22264929219E+03 -0.11779517764E+03  0.33892074032E+03  0.43203411601E+03  0.91311543624E+02 0.  0.
          1    1    3    3  502    0  0.19227125520E+03  0.24842920171E+03  0.58436074601E+03  0.66344765077E+03  0.00000000000E+00 0. -1.
         -2    1    3    3    0  502  0.64763419907E+02  0.71325147494E+02  0.10390405754E+03  0.14169555532E+03  0.00000000000E+00 0.  1.
         11    1    5    5    0    0 -0.43356166127E+03 -0.15222784292E+03 -0.18904568324E+03  0.49687755095E+03  0.00000000000E+00 0.  1.
        -11    1    5    5    0    0 -0.46122306018E+02 -0.49731328646E+02 -0.42309977112E+02  0.79941267969E+02  0.00000000000E+00 0. -1.
          1    1    6    6  503    0  0.31119426043E+02  0.12637485828E+02  0.65640956275E+02  0.73735065376E+02  0.00000000000E+00 0. -1.
         -1    1    6    6    0  503  0.19152986614E+03 -0.13043266346E+03  0.27327978404E+03  0.35829905064E+03  0.00000000000E+00 0.  1.
<mgrwt>
<rscale>  0 0.16301033E+04</rscale>
<asrwt>0</asrwt>
<pdfrwt beam="1">  1        1 0.20075585E+00 0.16301033E+04</pdfrwt>
<pdfrwt beam="2">  1       -2 0.78320482E-01 0.16301033E+04</pdfrwt>
<totfact> 0.10922579E+01</totfact>
</mgrwt>
</event>
<event>
12    4  0.4413110E-008  0.1226949E+04  0.7818608E-02  0.9089590E-01
         -2   -1    0    0    0  501 -0.00000000000E+00  0.00000000000E+00  0.48649284784E+03  0.48649284784E+03  0.00000000000E+00 0.  1.
          1   -1    0    0  501    0  0.00000000000E+00 -0.00000000000E+00 -0.77359960452E+03  0.77359960452E+03  0.00000000000E+00 0. -1.
        -24    2    1    2    0    0 -0.13994037568E+03 -0.15198669559E+03 -0.28503009081E+03  0.36020458795E+03  0.76301560469E+02 0.  0.
        254    2    1    2    0    0  0.13994037568E+03  0.15198669559E+03 -0.20766658776E+01  0.89988786442E+03  0.87584849809E+03 0.  0.
         23    2    4    4    0    0 -0.12816592605E+03  0.43226145099E+03 -0.13538950059E+03  0.47935390699E+03  0.90406773328E+02 0.  0.
         23    2    4    4    0    0  0.26810630173E+03 -0.28027475540E+03  0.13331283471E+03  0.42053395743E+03  0.92960044720E+02 0.  0.
          3    1    3    3  502    0 -0.13781374465E+03 -0.11961054288E+03 -0.20847731589E+03  0.27705974342E+03  0.00000000000E+00 0. -1.
         -4    1    3    3    0  502 -0.21266310284E+01 -0.32376152707E+02 -0.76552774914E+02  0.83144844522E+02  0.00000000000E+00 0.  1.
         11    1    5    5    0    0 -0.95944687176E+02  0.23995121783E+03 -0.11644286120E+03  0.28344472100E+03  0.00000000000E+00 0.  1.
        -11    1    5    5    0    0 -0.32221238870E+02  0.19231023316E+03 -0.18946639388E+02  0.19590918599E+03  0.00000000000E+00 0. -1.
          4    1    6    6  503    0  0.20550527286E+03 -0.26325095275E+03  0.11100805649E+03  0.35193219504E+03  0.00000000000E+00 0. -1.
         -4    1    6    6    0  503  0.62601028868E+02 -0.17023802643E+02  0.22304778223E+02  0.68601762392E+02  0.00000000000E+00 0.  1.
<mgrwt>
<rscale>  0 0.12269485E+04</rscale>
<asrwt>0</asrwt>
<pdfrwt beam="1">  1        1 0.11901532E+00 0.12269485E+04</pdfrwt>
<pdfrwt beam="2">  1       -2 0.74845054E-01 0.12269485E+04</pdfrwt>
<totfact> 0.32388699E+01</totfact>
</mgrwt>
</event>
<event>
12    4  0.4413110E-008  0.1731705E+04  0.7818608E-02  0.8743486E-01
         -2   -1    0    0    0  501 -0.00000000000E+00  0.00000000000E+00  0.45092244930E+03  0.45092244930E+03  0.00000000000E+00 0.  1.
          1   -1    0    0  501    0  0.00000000000E+00 -0.00000000000E+00 -0.16625933870E+04  0.16625933870E+04  0.00000000000E+00 0. -1.
        -24    2    1    2    0    0 -0.56646003350E+03 -0.24321115374E+03 -0.57858301798E+03  0.84881147128E+03  0.75458400644E+02 0.  0.
        254    2    1    2    0    0  0.56646003350E+03  0.24321115374E+03 -0.63308791967E+03  0.12647043650E+04  0.90479178925E+03 0.  0.
         23    2    4    4    0    0  0.13076505106E+03  0.12189540663E+03 -0.76089028157E+03  0.78682862651E+03  0.90483579566E+02 0.  0.
         23    2    4    4    0    0  0.43569498245E+03  0.12131574711E+03  0.12780236191E+03  0.47787573846E+03  0.86510978942E+02 0.  0.
          1    1    3    3  502    0 -0.53442915471E+03 -0.21107947606E+03 -0.52220654004E+03  0.77644622291E+03  0.00000000000E+00 0. -1.
         -2    1    3    3    0  502 -0.32030878794E+02 -0.32131677675E+02 -0.56376477938E+02  0.72365248367E+02  0.00000000000E+00 0.  1.
         11    1    5    5    0    0 -0.64729690436E+01  0.39553243182E+02 -0.13756939236E+03  0.14328885542E+03  0.00000000000E+00 0. -1.
        -11    1    5    5    0    0  0.13723802010E+03  0.82342163444E+02 -0.62332088921E+03  0.64353977109E+03  0.00000000000E+00 0.  1.
          4    1    6    6  503    0  0.46403277591E+02 -0.13035372298E+02  0.70340399206E+01  0.48709986859E+02  0.00000000000E+00 0. -1.
         -4    1    6    6    0  503  0.38929170485E+03  0.13435111941E+03  0.12076832199E+03  0.42916575160E+03  0.00000000000E+00 0.  1.
<mgrwt>
<rscale>  0 0.17317052E+04</rscale>
<asrwt>0</asrwt>
<pdfrwt beam="1">  1        1 0.25578360E+00 0.17317052E+04</pdfrwt>
<pdfrwt beam="2">  1       -2 0.69372683E-01 0.17317052E+04</pdfrwt>
<totfact> 0.79832399E+00</totfact>
</mgrwt>
</event>
<event>
12    4  0.4413110E-008  0.1628653E+04  0.7818608E-02  0.8803136E-01
         -2   -1    0    0    0  501 -0.00000000000E+00  0.00000000000E+00  0.24609517635E+03  0.24609517635E+03  0.00000000000E+00 0.  1.
          1   -1    0    0  501    0  0.00000000000E+00 -0.00000000000E+00 -0.26945979724E+04  0.26945979724E+04  0.00000000000E+00 0. -1.
        -24    2    1    2    0    0  0.25774394186E+03  0.49143380618E+03 -0.11070632941E+04  0.12411736005E+04  0.83568200003E+02 0.  0.
        254    2    1    2    0    0 -0.25774394186E+03 -0.49143380618E+03 -0.13414395020E+04  0.16995195483E+04  0.88372373061E+03 0.  0.
         23    2    4    4    0    0 -0.44179342534E+03 -0.64465650026E+03 -0.99601239238E+03  0.12695320423E+04  0.94379481776E+02 0.  0.
         23    2    4    4    0    0  0.18404948348E+03  0.15322269408E+03 -0.34542710961E+03  0.42998750600E+03  0.90652969693E+02 0.  0.
          1    1    3    3  502    0  0.22869254547E+03  0.43914727208E+03 -0.10363697043E+04  0.11485698807E+04  0.00000000000E+00 0. -1.
         -2    1    3    3    0  502  0.29051396387E+02  0.52286534094E+02 -0.70693589830E+02  0.92603719810E+02  0.00000000000E+00 0.  1.
         11    1    5    5    0    0 -0.13208523662E+03 -0.12486130832E+03 -0.24660969953E+03  0.30635469631E+03  0.00000000000E+00 0. -1.
        -11    1    5    5    0    0 -0.30970818871E+03 -0.51979519194E+03 -0.74940269285E+03  0.96317734596E+03  0.00000000000E+00 0.  1.
          3    1    6    6  503    0 -0.46981939560E+01 -0.16008484423E+01  0.20141614738E+01  0.53565463338E+01  0.00000000000E+00 0. -1.
         -3    1    6    6    0  503  0.18874767743E+03  0.15482354252E+03 -0.34744127109E+03  0.42463095967E+03  0.00000000000E+00 0.  1.
<mgrwt>
<rscale>  0 0.16286529E+04</rscale>
<asrwt>0</asrwt>
<pdfrwt beam="1">  1        1 0.41455352E+00 0.16286529E+04</pdfrwt>
<pdfrwt beam="2">  1       -2 0.37860797E-01 0.16286529E+04</pdfrwt>
<totfact> 0.54949141E+00</totfact>
</mgrwt>
</event>
<event>
12    4  0.4413110E-008  0.1498896E+04  0.7818608E-02  0.8885187E-01
          1   -1    0    0  501    0  0.00000000000E+00  0.00000000000E+00  0.17602838486E+04  0.17602838486E+04  0.00000000000E+00 0. -1.
         -2   -1    0    0    0  501 -0.00000000000E+00 -0.00000000000E+00 -0.31908060680E+03  0.31908060680E+03  0.00000000000E+00 0.  1.
        -24    2    1    2    0    0 -0.25237950655E+03 -0.23665916861E+03  0.90816514815E+03  0.97508121977E+03  0.79476231720E+02 0.  0.
        254    2    1    2    0    0  0.25237950655E+03  0.23665916861E+03  0.53303809360E+03  0.11042832356E+04  0.90311066750E+03 0.  0.
         23    2    4    4    0    0 -0.65159816748E+02 -0.15691292573E+03 -0.15386790193E+03  0.24657092455E+03  0.90853847516E+02 0.  0.
         23    2    4    4    0    0  0.31753932330E+03  0.39357209435E+03  0.68690599553E+03  0.85771231104E+03  0.90001925130E+02 0.  0.
          1    1    3    3  502    0 -0.21601926188E+03 -0.22044364693E+03  0.73078941699E+03  0.79329243975E+03  0.00000000000E+00 0. -1.
         -2    1    3    3    0  502 -0.36360244674E+02 -0.16215521684E+02  0.17737573116E+03  0.18178878002E+03  0.00000000000E+00 0.  1.
         11    1    5    5    0    0  0.14403008135E+02 -0.63351145174E+02 -0.80734261049E+02  0.10362835107E+03  0.00000000000E+00 0. -1.
        -11    1    5    5    0    0 -0.79562824883E+02 -0.93561780559E+02 -0.73133640880E+02  0.14294257348E+03  0.00000000000E+00 0.  1.
          1    1    6    6  503    0  0.14696426168E+03  0.16209953397E+03  0.36958684384E+03  0.42949876398E+03  0.00000000000E+00 0. -1.
         -1    1    6    6    0  503  0.17057506162E+03  0.23147256038E+03  0.31731915169E+03  0.42821354706E+03  0.00000000000E+00 0.  1.
<mgrwt>
<rscale>  0 0.14988962E+04</rscale>
<asrwt>0</asrwt>
<pdfrwt beam="1">  1        1 0.27081289E+00 0.14988962E+04</pdfrwt>
<pdfrwt beam="2">  1       -2 0.49089325E-01 0.14988962E+04</pdfrwt>
<totfact> 0.14466615E+01</totfact>
</mgrwt>
</event>
<event>
12    4  0.4413110E-008  0.1827610E+04  0.7818608E-02  0.8691753E-01
         -2   -1    0    0    0  501 -0.00000000000E+00  0.00000000000E+00  0.18225956480E+04  0.18225956480E+04  0.00000000000E+00 0.  1.
          1   -1    0    0  501    0  0.00000000000E+00 -0.00000000000E+00 -0.45815944709E+03  0.45815944709E+03  0.00000000000E+00 0. -1.
        -24    2    1    2    0    0 -0.40225413674E+03 -0.46432357862E+03  0.89777299696E+03  0.10907629942E+04  0.79767031389E+02 0.  0.
        254    2    1    2    0    0  0.40225413674E+03  0.46432357862E+03  0.46666320393E+03  0.11899921008E+04  0.90603635577E+03 0.  0.
         23    2    4    4    0    0  0.11259849836E+03  0.69745378449E+03  0.30321946593E+03  0.77394050046E+03  0.89003653899E+02 0.  0.
         23    2    4    4    0    0  0.28965563838E+03 -0.23313020586E+03  0.16344373799E+03  0.41605160038E+03  0.90194217982E+02 0.  0.
          1    1    3    3  502    0 -0.25942856992E+02 -0.64079461886E+02  0.81994016378E+02  0.10724844048E+03  0.00000000000E+00 0. -1.
         -2    1    3    3    0  502 -0.37631127975E+03 -0.40024411674E+03  0.81577898059E+03  0.98351455374E+03  0.00000000000E+00 0.  1.
         11    1    5    5    0    0  0.10238130504E+03  0.41377567787E+03  0.15378196691E+03  0.45314582263E+03  0.00000000000E+00 0.  1.
        -11    1    5    5    0    0  0.10217193318E+02  0.28367810662E+03  0.14943749902E+03  0.32079467784E+03  0.00000000000E+00 0. -1.
          3    1    6    6  503    0  0.17068060156E+03 -0.10850473549E+03  0.45654083907E+02  0.20733895136E+03  0.00000000000E+00 0. -1.
         -3    1    6    6    0  503  0.11897503682E+03 -0.12462547037E+03  0.11778965409E+03  0.20871264902E+03  0.00000000000E+00 0.  1.
<mgrwt>
<rscale>  0 0.18276098E+04</rscale>
<asrwt>0</asrwt>
<pdfrwt beam="1">  1        1 0.70486070E-01 0.18276098E+04</pdfrwt>
<pdfrwt beam="2">  1       -2 0.28039933E+00 0.18276098E+04</pdfrwt>
<totfact> 0.17249799E+00</totfact>
</mgrwt>
</event>
<event>
12    4  0.4413110E-008  0.1915931E+04  0.7818608E-02  0.8646967E-01
         -2   -1    0    0    0  501 -0.00000000000E+00  0.00000000000E+00  0.33936313674E+03  0.33936313674E+03  0.00000000000E+00 0.  1.
          1   -1    0    0  501    0  0.00000000000E+00 -0.00000000000E+00 -0.27041773189E+04  0.27041773189E+04  0.00000000000E+00 0. -1.
        -24    2    1    2    0    0  0.33118312369E+03 -0.23641366169E+03 -0.19162119940E+04  0.19601270442E+04  0.68234468030E+02 0.  0.
        254    2    1    2    0    0 -0.33118312369E+03  0.23641366169E+03 -0.44860218807E+03  0.10834134114E+04  0.89831342855E+03 0.  0.
         23    2    4    4    0    0 -0.24423700215E+03  0.27148183041E+03  0.19653388487E+03  0.42483005624E+03  0.92200386769E+02 0.  0.
         23    2    4    4    0    0 -0.86946121542E+02 -0.35068168722E+02 -0.64513607294E+03  0.65858335512E+03  0.93499082964E+02 0.  0.
          1    1    3    3  502    0  0.19090260380E+03 -0.12988379910E+03 -0.12422781969E+04  0.12635540051E+04  0.00000000000E+00 0. -1.
         -2    1    3    3    0  502  0.14028051989E+03 -0.10652986259E+03 -0.67393379717E+03  0.69657303913E+03  0.00000000000E+00 0.  1.
         11    1    5    5    0    0 -0.29437108586E+01  0.13715317740E+02  0.32717085771E+02  0.35597515021E+02  0.00000000000E+00 0. -1.
        -11    1    5    5    0    0 -0.24129329129E+03  0.25776651267E+03  0.16381679910E+03  0.38923254122E+03  0.00000000000E+00 0.  1.
          4    1    6    6  503    0  0.12097825422E+02 -0.11275526791E+02 -0.23973528542E+02  0.29124301796E+02  0.00000000000E+00 0. -1.
         -4    1    6    6    0  503 -0.99043946963E+02 -0.23792641931E+02 -0.62116254440E+03  0.62945905332E+03  0.00000000000E+00 0.  1.
<mgrwt>
<rscale>  0 0.19159312E+04</rscale>
<asrwt>0</asrwt>
<pdfrwt beam="1">  1        1 0.41602729E+00 0.19159312E+04</pdfrwt>
<pdfrwt beam="2">  1       -2 0.52209712E-01 0.19159312E+04</pdfrwt>
<totfact> 0.27739390E+00</totfact>
</mgrwt>
</event>
<event>
12    4  0.4413110E-008  0.1091047E+04  0.7818608E-02  0.9213962E-01
         -2   -1    0    0    0  501 -0.00000000000E+00  0.00000000000E+00  0.84783901801E+03  0.84783901801E+03  0.00000000000E+00 0.  1.
          1   -1    0    0  501    0  0.00000000000E+00 -0.00000000000E+00 -0.35100520096E+03  0.35100520096E+03  0.00000000000E+00 0. -1.
        -24    2    1    2    0    0 -0.40922671584E+02  0.14236950154E+03  0.15527623770E+02  0.16929281888E+03  0.80468698301E+02 0.  0.
        254    2    1    2    0    0  0.40922671584E+02 -0.14236950154E+03  0.48130619329E+03  0.10295514001E+04  0.89798479592E+03 0.  0.
         23    2    4    4    0    0 -0.12527261784E+03  0.30513291938E+03  0.41681566744E+03  0.53928491441E+03  0.91069155118E+02 0.  0.
         23    2    4    4    0    0  0.16619528942E+03 -0.44750242093E+03  0.64490525850E+02  0.49026648568E+03  0.91229973678E+02 0.  0.
          3    1    3    3  502    0 -0.35696696235E+02  0.15278996022E+03  0.15066574980E+02  0.15762622798E+03  0.00000000000E+00 0. -1.
         -4    1    3    3    0  502 -0.52259753498E+01 -0.10420458674E+02  0.46104878999E+00  0.11666590904E+02  0.00000000000E+00 0.  1.
         11    1    5    5    0    0  0.76173586160E+01 -0.11901388256E+01  0.14780867796E+02  0.16670771893E+02  0.00000000000E+00 0.  1.
        -11    1    5    5    0    0 -0.13288997645E+03  0.30632305821E+03  0.40203479964E+03  0.52261414251E+03  0.00000000000E+00 0. -1.
          3    1    6    6  503    0  0.15028344490E+03 -0.30974617166E+03  0.70668595976E+02  0.35145676139E+03  0.00000000000E+00 0. -1.
         -3    1    6    6    0  503  0.15911844526E+02 -0.13775624927E+03 -0.61780701260E+01  0.13880972429E+03  0.00000000000E+00 0.  1.
<mgrwt>
<rscale>  0 0.10910470E+04</rscale>
<asrwt>0</asrwt>
<pdfrwt beam="1">  1        1 0.54000800E-01 0.10910470E+04</pdfrwt>
<pdfrwt beam="2">  1       -2 0.13043677E+00 0.10910470E+04</pdfrwt>
<totfact> 0.26729894E+01</totfact>
</mgrwt>
</event>
<event>
12    4  0.4413110E-008  0.1479816E+04  0.7818608E-02  0.8897987E-01
          1   -1    0    0  501    0  0.00000000000E+00  0.00000000000E+00  0.19881727153E+04  0.19881727153E+04  0.00000000000E+00 0. -1.
         -2   -1    0    0    0  501 -0.00000000000E+00 -0.00000000000E+00 -0.27536018471E+03  0.27536018471E+03  0.00000000000E+00 0.  1.
        -24    2    1    2    0    0 -0.35108737621E+03 -0.21585033896E+03  0.86339694864E+03  0.96002913809E+03  0.79673963736E+02 0.  0.
        254    2    1    2    0    0  0.35108737621E+03  0.21585033896E+03  0.84941558190E+03  0.13035037619E+04  0.89875553510E+03 0.  0.
         23    2    4    4    0    0  0.65689416704E+02 -0.33848235965E+03  0.34112219615E+03  0.49381556612E+03  0.92758036715E+02 0.  0.
         23    2    4    4    0    0  0.28539795950E+03  0.55433269861E+03  0.50829338576E+03  0.80968819576E+03  0.92174141178E+02 0.  0.
          3    1    3    3  502    0 -0.32121990677E+03 -0.16618976812E+03  0.75276259104E+03  0.83513638766E+03  0.00000000000E+00 0. -1.
         -4    1    3    3    0  502 -0.29867469438E+02 -0.49660570842E+02  0.11063435760E+03  0.12489275043E+03  0.00000000000E+00 0.  1.
         11    1    5    5    0    0 -0.32753039790E+01 -0.21793593740E+03  0.21669573565E+03  0.30734970681E+03  0.00000000000E+00 0.  1.
        -11    1    5    5    0    0  0.68964720683E+02 -0.12054642225E+03  0.12442646050E+03  0.18646585931E+03  0.00000000000E+00 0. -1.
          3    1    6    6  503    0  0.23368499731E+03  0.36021260337E+03  0.34660045687E+03  0.55180945470E+03  0.00000000000E+00 0. -1.
         -3    1    6    6    0  503  0.51712962192E+02  0.19412009525E+03  0.16169292888E+03  0.25787874106E+03  0.00000000000E+00 0.  1.
<mgrwt>
<rscale>  0 0.14798157E+04</rscale>
<asrwt>0</asrwt>
<pdfrwt beam="1">  1        1 0.30587272E+00 0.14798157E+04</pdfrwt>
<pdfrwt beam="2">  1       -2 0.42363106E-01 0.14798157E+04</pdfrwt>
<totfact> 0.13646771E+01</totfact>
</mgrwt>
</event>
<event>
12    4  0.4413110E-008  0.1141737E+04  0.7818608E-02  0.9165440E-01
         -2   -1    0    0    0  501 -0.00000000000E+00  0.00000000000E+00  0.55170320077E+03  0.55170320077E+03  0.00000000000E+00 0.  1.
          1   -1    0    0  501    0  0.00000000000E+00 -0.00000000000E+00 -0.59069970051E+03  0.59069970051E+03  0.00000000000E+00 0. -1.
        -24    2    1    2    0    0  0.18371822486E+03 -0.84603746986E+02 -0.52833533373E+02  0.22337363104E+03  0.78703345819E+02 0.  0.
        254    2    1    2    0    0 -0.18371822486E+03  0.84603746986E+02  0.13837033640E+02  0.91902927025E+03  0.89638895348E+03 0.  0.
         23    2    4    4    0    0  0.22386971993E+02  0.34703945656E+03  0.30276638674E+03  0.46842122068E+03  0.82543286329E+02 0.  0.
         23    2    4    4    0    0 -0.20610519685E+03 -0.26243570958E+03 -0.28892935310E+03  0.45060804957E+03  0.90639888669E+02 0.  0.
          1    1    3    3  502    0  0.35265375141E+02 -0.44315216682E+02 -0.39345950202E+02  0.68960778061E+02  0.00000000000E+00 0. -1.
         -2    1    3    3    0  502  0.14845284972E+03 -0.40288530303E+02 -0.13487583171E+02  0.15441285298E+03  0.00000000000E+00 0.  1.
         11    1    5    5    0    0  0.27433366658E+01  0.21538460481E+03  0.23593602443E+03  0.31947435188E+03  0.00000000000E+00 0.  1.
        -11    1    5    5    0    0  0.19643635327E+02  0.13165485175E+03  0.66830362310E+02  0.14894686880E+03  0.00000000000E+00 0. -1.
          1    1    6    6  503    0 -0.68592063472E+02 -0.95967233015E+02 -0.48738384969E+02  0.12763232801E+03  0.00000000000E+00 0. -1.
         -1    1    6    6    0  503 -0.13751313338E+03 -0.16646847656E+03 -0.24019096813E+03  0.32297572156E+03  0.00000000000E+00 0.  1.
<mgrwt>
<rscale>  0 0.11417371E+04</rscale>
<asrwt>0</asrwt>
<pdfrwt beam="1">  1        1 0.90876876E-01 0.11417371E+04</pdfrwt>
<pdfrwt beam="2">  1       -2 0.84877416E-01 0.11417371E+04</pdfrwt>
<totfact> 0.36840394E+01</totfact>
</mgrwt>
</event>
<event>
12    4  0.4413110E-008  0.2063314E+04  0.7818608E-02  0.8577578E-01
          1   -1    0    0  501    0  0.00000000000E+00  0.00000000000E+00  0.92068169883E+03  0.92068169883E+03  0.00000000000E+00 0. -1.
         -2   -1    0    0    0  501 -0.00000000000E+00 -0.00000000000E+00 -0.11560089996E+04  0.11560089996E+04  0.00000000000E+00 0.  1.
        -24    2    1    2    0    0  0.67461269156E+02 -0.74553355417E+03  0.27287005513E+03  0.80093820885E+03  0.81686254565E+02 0.  0.
        254    2    1    2    0    0 -0.67461269156E+02  0.74553355417E+03 -0.50819735592E+03  0.12757524896E+04  0.89939343945E+03 0.  0.
         23    2    4    4    0    0 -0.84114959830E+02  0.29986132411E+03 -0.70776698122E+03  0.77836348628E+03  0.89013914091E+02 0.  0.
         23    2    4    4    0    0  0.16653690674E+02  0.44567223006E+03  0.19956962530E+03  0.49738900332E+03  0.93095129921E+02 0.  0.
          3    1    3    3  502    0  0.36653920672E+02 -0.35399640285E+03  0.86683020545E+02  0.36629347412E+03  0.00000000000E+00 0. -1.
         -4    1    3    3    0  502  0.30807348483E+02 -0.39153715132E+03  0.18618703459E+03  0.43464473473E+03  0.00000000000E+00 0.  1.
         11    1    5    5    0    0  0.77863351848E+01  0.13306426595E+03 -0.30409611131E+03  0.33202585864E+03  0.00000000000E+00 0.  1.
        -11    1    5    5    0    0 -0.91901295015E+02  0.16679705816E+03 -0.40367086991E+03  0.44633762764E+03  0.00000000000E+00 0. -1.
          4    1    6    6  503    0  0.35930354192E+02  0.65799033949E+02  0.39219253121E+02  0.84608823632E+02  0.00000000000E+00 0. -1.
         -4    1    6    6    0  503 -0.19276663518E+02  0.37987319611E+03  0.16035037218E+03  0.41278017968E+03  0.00000000000E+00 0.  1.
<mgrwt>
<rscale>  0 0.20633142E+04</rscale>
<asrwt>0</asrwt>
<pdfrwt beam="1">  1        1 0.14164334E+00 0.20633142E+04</pdfrwt>
<pdfrwt beam="2">  1       -2 0.17784754E+00 0.20633142E+04</pdfrwt>
<totfact> 0.26555229E+00</totfact>
</mgrwt>
</event>
<event>
12    4  0.4413110E-008  0.2258274E+04  0.7818608E-02  0.8494557E-01
         -2   -1    0    0    0  501 -0.00000000000E+00  0.00000000000E+00  0.35381075563E+03  0.35381075563E+03  0.00000000000E+00 0.  1.
          1   -1    0    0  501    0  0.00000000000E+00 -0.00000000000E+00 -0.36034813645E+04  0.36034813645E+04  0.00000000000E+00 0. -1.
        -24    2    1    2    0    0 -0.81080383422E+03 -0.49000901971E+03 -0.14345547660E+04  0.17209942212E+04  0.79762369928E+02 0.  0.
        254    2    1    2    0    0  0.81080383422E+03  0.49000901971E+03 -0.18151158429E+04  0.22362978990E+04  0.89937259960E+03 0.  0.
         23    2    4    4    0    0 -0.16904743108E+03 -0.15539872631E+02 -0.36101176787E+03  0.40919329483E+03  0.91055666467E+02 0.  0.
         23    2    4    4    0    0  0.97985126529E+03  0.50554889234E+03 -0.14541040750E+04  0.18271046042E+04  0.90578081810E+02 0.  0.
          1    1    3    3  502    0 -0.44425810915E+03 -0.31199525179E+03 -0.84308544147E+03  0.10027459131E+04  0.00000000000E+00 0. -1.
         -2    1    3    3    0  502 -0.36654572506E+03 -0.17801376791E+03 -0.59146932456E+03  0.71824830806E+03  0.00000000000E+00 0.  1.
         11    1    5    5    0    0 -0.85320504255E+02 -0.27426628572E+02 -0.97439479320E+02  0.13238678382E+03  0.00000000000E+00 0. -1.
        -11    1    5    5    0    0 -0.83726926820E+02  0.11886755941E+02 -0.26357228855E+03  0.27680651100E+03  0.00000000000E+00 0.  1.
          2    1    6    6  503    0  0.83306554403E+03  0.41419844354E+03 -0.11740491451E+04  0.14979819579E+04  0.00000000000E+00 0.  1.
         -2    1    6    6    0  503  0.14678572126E+03  0.91350448793E+02 -0.28005492996E+03  0.32912264622E+03  0.00000000000E+00 0. -1.
<mgrwt>
<rscale>  0 0.22582741E+04</rscale>
<asrwt>0</asrwt>
<pdfrwt beam="1">  1        1 0.55438175E+00 0.22582741E+04</pdfrwt>
<pdfrwt beam="2">  1       -2 0.54432424E-01 0.22582741E+04</pdfrwt>
<totfact> 0.52495155E-01</totfact>
</mgrwt>
</event>
<event>
12    4  0.4413110E-008  0.1225938E+04  0.7818608E-02  0.9090451E-01
          1   -1    0    0  501    0  0.00000000000E+00  0.00000000000E+00  0.93268685179E+03  0.93268685179E+03  0.00000000000E+00 0. -1.
         -2   -1    0    0    0  501 -0.00000000000E+00 -0.00000000000E+00 -0.40284807356E+03  0.40284807356E+03  0.00000000000E+00 0.  1.
        -24    2    1    2    0    0  0.69499012991E+02  0.82769445149E+02 -0.15120031312E+03  0.20191130555E+03  0.78903401474E+02 0.  0.
        254    2    1    2    0    0 -0.69499012991E+02 -0.82769445149E+02  0.68103909135E+03  0.11336236198E+04  0.89978184777E+03 0.  0.
         23    2    4    4    0    0 -0.28065309111E+03  0.28701279854E+03  0.13006981872E+03  0.43113741268E+03  0.88424017056E+02 0.  0.
         23    2    4    4    0    0  0.21115407812E+03 -0.36978224369E+03  0.55096927263E+03  0.70248620712E+03  0.92708032868E+02 0.  0.
          1    1    3    3  502    0 -0.36051026282E+01 -0.12739721472E+02 -0.19321119073E+02  0.23422273809E+02  0.00000000000E+00 0. -1.
         -2    1    3    3    0  502  0.73104115620E+02  0.95509166621E+02 -0.13187919405E+03  0.17848903174E+03  0.00000000000E+00 0.  1.
         11    1    5    5    0    0 -0.29465271973E+02  0.78830623346E+02  0.36568893418E+02  0.91759214226E+02  0.00000000000E+00 0. -1.
        -11    1    5    5    0    0 -0.25118781914E+03  0.20818217520E+03  0.93500925301E+02  0.33937819845E+03  0.00000000000E+00 0.  1.
          3    1    6    6  503    0  0.54003811539E+02 -0.38187357565E+02  0.58227189369E+02  0.88119756697E+02  0.00000000000E+00 0. -1.
         -3    1    6    6    0  503  0.15715026658E+03 -0.33159488613E+03  0.49274208326E+03  0.61436645042E+03  0.00000000000E+00 0.  1.
<mgrwt>
<rscale>  0 0.12259382E+04</rscale>
<asrwt>0</asrwt>
<pdfrwt beam="1">  1        1 0.14349028E+00 0.12259382E+04</pdfrwt>
<pdfrwt beam="2">  1       -2 0.61976627E-01 0.12259382E+04</pdfrwt>
<totfact> 0.35831677E+01</totfact>
</mgrwt>
</event>
<event>
12    4  0.4413110E-008  0.1672629E+04  0.7818608E-02  0.8777131E-01
         -2   -1    0    0    0  501 -0.00000000000E+00  0.00000000000E+00  0.98097400240E+03  0.98097400240E+03  0.00000000000E+00 0.  1.
          1   -1    0    0  501    0  0.00000000000E+00 -0.00000000000E+00 -0.71298684544E+03  0.71298684544E+03  0.00000000000E+00 0. -1.
        -24    2    1    2    0    0  0.31341456512E+03  0.39806763510E+03 -0.21754917272E+03  0.55714023766E+03  0.79944168784E+02 0.  0.
        254    2    1    2    0    0 -0.31341456512E+03 -0.39806763510E+03  0.48553632968E+03  0.11368206102E+04  0.89438752259E+03 0.  0.
         23    2    4    4    0    0 -0.42304144871E+03 -0.47720275541E+03  0.22073051442E+02  0.64451555874E+03  0.90700324001E+02 0.  0.
         23    2    4    4    0    0  0.10962688359E+03  0.79135120303E+02  0.46346327823E+03  0.49230505144E+03  0.96361986957E+02 0.  0.
          1    1    3    3  502    0  0.27899852334E+03  0.38629346336E+03 -0.20353594792E+03  0.51815991543E+03  0.00000000000E+00 0. -1.
         -2    1    3    3    0  502  0.34416041776E+02  0.11774171741E+02 -0.14013224793E+02  0.38980322226E+02  0.00000000000E+00 0.  1.
         11    1    5    5    0    0 -0.30344976963E+03 -0.28199768362E+03 -0.26333939639E+01  0.41426005241E+03  0.00000000000E+00 0. -1.
        -11    1    5    5    0    0 -0.11959167908E+03 -0.19520507178E+03  0.24706445405E+02  0.23025550633E+03  0.00000000000E+00 0.  1.
          2    1    6    6  503    0  0.51129210835E+02 -0.11078151830E+02  0.22038216259E+03  0.22650655451E+03  0.00000000000E+00 0. -1.
         -2    1    6    6    0  503  0.58497672751E+02  0.90213272132E+02  0.24308111564E+03  0.26579849693E+03  0.00000000000E+00 0.  1.
<mgrwt>
<rscale>  0 0.16726285E+04</rscale>
<asrwt>0</asrwt>
<pdfrwt beam="1">  1        1 0.10969028E+00 0.16726285E+04</pdfrwt>
<pdfrwt beam="2">  1       -2 0.15091908E+00 0.16726285E+04</pdfrwt>
<totfact> 0.65186909E+00</totfact>
</mgrwt>
</event>
<event>
12    4  0.4413110E-008  0.1478448E+04  0.7818608E-02  0.8898913E-01
         -4   -1    0    0    0  501 -0.00000000000E+00  0.00000000000E+00  0.90281726303E+03  0.90281726303E+03  0.00000000000E+00 0.  1.
          3   -1    0    0  501    0  0.00000000000E+00 -0.00000000000E+00 -0.60527397008E+03  0.60527397008E+03  0.00000000000E+00 0. -1.
        -24    2    1    2    0    0  0.25154167901E+03 -0.33004835393E+03  0.29945523356E+03  0.51781803213E+03  0.79100855101E+02 0.  0.
        254    2    1    2    0    0 -0.25154167901E+03  0.33004835393E+03 -0.19119406135E+01  0.99027320098E+03  0.89912859195E+03 0.  0.
         23    2    4    4    0    0 -0.48637428567E+03  0.17198618170E+03  0.26805754347E+03  0.58862914096E+03  0.92142425176E+02 0.  0.
         23    2    4    4    0    0  0.23483260666E+03  0.15806217223E+03 -0.26996948408E+03  0.40164406002E+03  0.91128618870E+02 0.  0.
          1    1    3    3  502    0  0.14179892632E+03 -0.15850962886E+03  0.19681998102E+03  0.28977636700E+03  0.00000000000E+00 0. -1.
         -2    1    3    3    0  502  0.10974275269E+03 -0.17153872507E+03  0.10263525254E+03  0.22804166513E+03  0.00000000000E+00 0.  1.
         11    1    5    5    0    0 -0.62300636359E+01 -0.38565647725E+01  0.17990977918E+02  0.19425809409E+02  0.00000000000E+00 0. -1.
        -11    1    5    5    0    0 -0.48014422203E+03  0.17584274648E+03  0.25006656555E+03  0.56920333155E+03  0.00000000000E+00 0.  1.
          1    1    6    6  503    0  0.44773090420E+02 -0.51304463961E+01 -0.26325152697E+02  0.52191615902E+02  0.00000000000E+00 0. -1.
         -1    1    6    6    0  503  0.19005951624E+03  0.16319261862E+03 -0.24364433138E+03  0.34945244412E+03  0.00000000000E+00 0.  1.
<mgrwt>
<rscale>  0 0.14784475E+04</rscale>
<asrwt>0</asrwt>
<pdfrwt beam="1">  1        3 0.93119072E-01 0.14784475E+04</pdfrwt>
<pdfrwt beam="2">  1       -4 0.13889496E+00 0.14784475E+04</pdfrwt>
<totfact> 0.83386833E-01</totfact>
</mgrwt>
</event>
<event>
12    4  0.4413110E-008  0.1688894E+04  0.7818608E-02  0.8767724E-01
          1   -1    0    0  501    0  0.00000000000E+00  0.00000000000E+00  0.20345504358E+04  0.20345504358E+04  0.00000000000E+00 0. -1.
         -2   -1    0    0    0  501 -0.00000000000E+00 -0.00000000000E+00 -0.35049067648E+03  0.35049067648E+03  0.00000000000E+00 0.  1.
        -24    2    1    2    0    0 -0.41944205174E+02  0.51058484630E+03  0.15293189104E+03  0.54096086538E+03  0.82427501200E+02 0.  0.
        254    2    1    2    0    0  0.41944205174E+02 -0.51058484630E+03  0.15311278683E+04  0.18440802469E+04  0.89096756752E+03 0.  0.
         23    2    4    4    0    0  0.30617998632E+03  0.10721765114E+03  0.37816099550E+03  0.50645183833E+03  0.90807033257E+02 0.  0.
         23    2    4    4    0    0 -0.26423578115E+03 -0.61780249744E+03  0.11529668728E+04  0.13376284086E+04  0.91742442873E+02 0.  0.
          3    1    3    3  502    0  0.12162378752E+02  0.17486010320E+03  0.82318336724E+02  0.19364991017E+03  0.00000000000E+00 0. -1.
         -4    1    3    3    0  502 -0.54106583925E+02  0.33572474310E+03  0.70613554313E+02  0.34731095520E+03  0.00000000000E+00 0.  1.
         11    1    5    5    0    0  0.28989131601E+03  0.12231786010E+03  0.35481162660E+03  0.47422560492E+03  0.00000000000E+00 0.  1.
        -11    1    5    5    0    0  0.16288670314E+02 -0.15100208963E+02  0.23349368899E+02  0.32226233402E+02  0.00000000000E+00 0. -1.
          3    1    6    6  503    0 -0.72228747328E+02 -0.85990844029E+02  0.20989451600E+03  0.23804857707E+03  0.00000000000E+00 0. -1.
         -3    1    6    6    0  503 -0.19200703382E+03 -0.53181165341E+03  0.94307235679E+03  0.10995798315E+04  0.00000000000E+00 0.  1.
<mgrwt>
<rscale>  0 0.16888943E+04</rscale>
<asrwt>0</asrwt>
<pdfrwt beam="1">  1        1 0.31300775E+00 0.16888943E+04</pdfrwt>
<pdfrwt beam="2">  1       -2 0.53921644E-01 0.16888943E+04</pdfrwt>
<totfact> 0.76515269E+00</totfact>
</mgrwt>
</event>
<event>
12    4  0.4413110E-008  0.1652348E+04  0.7818608E-02  0.8789019E-01
         -2   -1    0    0    0  501 -0.00000000000E+00  0.00000000000E+00  0.13164817155E+04  0.13164817155E+04  0.00000000000E+00 0.  1.
          1   -1    0    0  501    0  0.00000000000E+00 -0.00000000000E+00 -0.51847547048E+03  0.51847547048E+03  0.00000000000E+00 0. -1.
        -24    2    1    2    0    0  0.43296002173E+03 -0.37116754989E+03  0.21804371066E+03  0.61559569605E+03  0.78710042113E+02 0.  0.
        254    2    1    2    0    0 -0.43296002173E+03  0.37116754989E+03  0.57996253437E+03  0.12193614899E+04  0.90844161694E+03 0.  0.
         23    2    4    4    0    0 -0.32092761970E+03  0.64468395978E+03  0.25143291926E+03  0.76774513135E+03  0.87190187189E+02 0.  0.
         23    2    4    4    0    0 -0.11203240202E+03 -0.27351640989E+03  0.32852961512E+03  0.45161635860E+03  0.93075999912E+02 0.  0.
          1    1    3    3  502    0  0.26600602392E+03 -0.20355384677E+03  0.91132951090E+02  0.34712906544E+03  0.00000000000E+00 0. -1.
         -2    1    3    3    0  502  0.16695399781E+03 -0.16761370311E+03  0.12691075957E+03  0.26846663061E+03  0.00000000000E+00 0.  1.
         11    1    5    5    0    0 -0.28314548364E+03  0.59364046834E+03  0.20446074935E+03  0.68875581202E+03  0.00000000000E+00 0. -1.
        -11    1    5    5    0    0 -0.37782136067E+02  0.51043491435E+02  0.46972169902E+02  0.78989319335E+02  0.00000000000E+00 0.  1.
          4    1    6    6  503    0 -0.35051580625E+02 -0.11975927388E+03  0.76009575246E+02  0.14611075427E+03  0.00000000000E+00 0.  1.
         -4    1    6    6    0  503 -0.76980821399E+02 -0.15375713601E+03  0.25252003987E+03  0.30550560433E+03  0.00000000000E+00 0. -1.
<mgrwt>
<rscale>  0 0.16523480E+04</rscale>
<asrwt>0</asrwt>
<pdfrwt beam="1">  1        1 0.79765457E-01 0.16523480E+04</pdfrwt>
<pdfrwt beam="2">  1       -2 0.20253565E+00 0.16523480E+04</pdfrwt>
<totfact> 0.45053251E+00</totfact>
</mgrwt>
</event>
<event>
12    4  0.4413110E-008  0.1466445E+04  0.7818608E-02  0.8907079E-01
          1   -1    0    0  501    0  0.00000000000E+00  0.00000000000E+00  0.15735121648E+04  0.15735121648E+04  0.00000000000E+00 0. -1.
         -2   -1    0    0    0  501 -0.00000000000E+00 -0.00000000000E+00 -0.34166556146E+03  0.34166556146E+03  0.00000000000E+00 0.  1.
        -24    2    1    2    0    0 -0.18406354884E+03  0.10815006583E+02 -0.16016025059E+03  0.25698467052E+03  0.79959118503E+02 0.  0.
        254    2    1    2    0    0  0.18406354884E+03 -0.10815006583E+02  0.13920068539E+04  0.16581930557E+04  0.88200043896E+03 0.  0.
         23    2    4    4    0    0 -0.33787636233E+03 -0.95635164842E+02  0.50358393032E+03  0.62051158750E+03  0.90173911794E+02 0.  0.
         23    2    4    4    0    0  0.52193991117E+03  0.84820158260E+02  0.88842292358E+03  0.10376814682E+04  0.88723211176E+02 0.  0.
          1    1    3    3  502    0 -0.15431053712E+02 -0.21118784783E+02 -0.38758897436E+02  0.46758663581E+02  0.00000000000E+00 0. -1.
         -2    1    3    3    0  502 -0.16863249513E+03  0.31933791366E+02 -0.12140135316E+03  0.21022600694E+03  0.00000000000E+00 0.  1.
         11    1    5    5    0    0 -0.53892280730E+02 -0.40078998008E+02  0.14449614685E+03  0.15934189800E+03  0.00000000000E+00 0. -1.
        -11    1    5    5    0    0 -0.28398408160E+03 -0.55556166835E+02  0.35908778347E+03  0.46116968951E+03  0.00000000000E+00 0.  1.
          4    1    6    6  503    0  0.51113165427E+02 -0.57664518792E+01  0.13683744815E+03  0.14618582305E+03  0.00000000000E+00 0. -1.
         -4    1    6    6    0  503  0.47082674575E+03  0.90586610139E+02  0.75158547543E+03  0.89149564515E+03  0.00000000000E+00 0.  1.
<mgrwt>
<rscale>  0 0.14664446E+04</rscale>
<asrwt>0</asrwt>
<pdfrwt beam="1">  1        1 0.24207879E+00 0.14664446E+04</pdfrwt>
<pdfrwt beam="2">  1       -2 0.52563933E-01 0.14664446E+04</pdfrwt>
<totfact> 0.16915620E+01</totfact>
</mgrwt>
</event>
<event>
12    4  0.4413110E-008  0.1749808E+04  0.7818608E-02  0.8733456E-01
         -2   -1    0    0    0  501 -0.00000000000E+00  0.00000000000E+00  0.38324832108E+03  0.38324832108E+03  0.00000000000E+00 0.  1.
          1   -1    0    0  501    0  0.00000000000E+00 -0.00000000000E+00 -0.19972873869E+04  0.19972873869E+04  0.00000000000E+00 0. -1.
        -24    2    1    2    0    0  0.40057390041E+02  0.31870016901E+02 -0.13849657882E+04  0.13882571862E+04  0.80669003657E+02 0.  0.
        254    2    1    2    0    0 -0.40057390041E+02 -0.31870016901E+02 -0.22907327760E+03  0.99227852173E+03  0.96411711203E+03 0.  0.
         23    2    4    4    0    0 -0.46083399443E+02  0.29409432906E+03 -0.47931589481E+03  0.57133275437E+03  0.89789949981E+02 0.  0.
         23    2    4    4    0    0  0.60260094014E+01 -0.32596434596E+03  0.25024261721E+03  0.42094576736E+03  0.91021447822E+02 0.  0.
          3    1    3    3  502    0  0.64758705946E+02  0.27846205929E+02 -0.10346434303E+04  0.10370420093E+04  0.00000000000E+00 0. -1.
         -4    1    3    3    0  502 -0.24701315905E+02  0.40238109720E+01 -0.35032235786E+03  0.35121517689E+03  0.00000000000E+00 0.  1.
         11    1    5    5    0    0 -0.46062815551E+02  0.14114857190E+03 -0.30641921693E+03  0.34049587197E+03  0.00000000000E+00 0. -1.
        -11    1    5    5    0    0 -0.20583891895E-01  0.15294575716E+03 -0.17289667788E+03  0.23083688241E+03  0.00000000000E+00 0.  1.
          1    1    6    6  503    0  0.21011195384E+02 -0.74289865894E+02  0.10385839402E+03  0.12941027979E+03  0.00000000000E+00 0. -1.
         -1    1    6    6    0  503 -0.14985185982E+02 -0.25167448007E+03  0.14638422319E+03  0.29153548757E+03  0.00000000000E+00 0.  1.
<mgrwt>
<rscale>  0 0.17498080E+04</rscale>
<asrwt>0</asrwt>
<pdfrwt beam="1">  1        1 0.30727498E+00 0.17498080E+04</pdfrwt>
<pdfrwt beam="2">  1       -2 0.58961281E-01 0.17498080E+04</pdfrwt>
<totfact> 0.66927794E+00</totfact>
</mgrwt>
</event>
<event>
12    4  0.4413110E-008  0.1159466E+04  0.7818608E-02  0.9149095E-01
          1   -1    0    0  501    0  0.00000000000E+00  0.00000000000E+00  0.80496883983E+03  0.80496883983E+03  0.00000000000E+00 0. -1.
         -2   -1    0    0    0  501 -0.00000000000E+00 -0.00000000000E+00 -0.41751986904E+03  0.41751986904E+03  0.00000000000E+00 0.  1.
        -24    2    1    2    0    0 -0.44885115522E+02  0.96536567052E+02  0.29755505752E+03  0.32585989846E+03  0.79446074779E+02 0.  0.
        254    2    1    2    0    0  0.44885115522E+02 -0.96536567052E+02  0.89893913265E+02  0.89662881040E+03  0.88573603609E+03 0.  0.
         23    2    4    4    0    0  0.37211744067E+02  0.38704512416E+03  0.18036235177E+02  0.39957405783E+03  0.90252312277E+02 0.  0.
         23    2    4    4    0    0  0.76733714548E+01 -0.48358169122E+03  0.71857678088E+02  0.49705475258E+03  0.89385504709E+02 0.  0.
          1    1    3    3  502    0 -0.57521303628E+02  0.96661366353E+02  0.21800766783E+03  0.24531502879E+03  0.00000000000E+00 0. -1.
         -2    1    3    3    0  502  0.12636188106E+02 -0.12479930142E+00  0.79547389691E+02  0.80544869677E+02  0.00000000000E+00 0.  1.
         11    1    5    5    0    0 -0.13936279958E+02  0.68177363560E+01  0.65861480672E+00  0.15528528635E+02  0.00000000000E+00 0. -1.
        -11    1    5    5    0    0  0.51148024025E+02  0.38022738781E+03  0.17377620371E+02  0.38404552919E+03  0.00000000000E+00 0.  1.
          1    1    6    6  503    0  0.15183299957E+02 -0.16066869805E+02  0.13372654526E+02  0.25836114104E+02  0.00000000000E+00 0. -1.
         -1    1    6    6    0  503 -0.75099285019E+01 -0.46751482141E+03  0.58485023562E+02  0.47121863848E+03  0.00000000000E+00 0.  1.
<mgrwt>
<rscale>  0 0.11594662E+04</rscale>
<asrwt>0</asrwt>
<pdfrwt beam="1">  1        1 0.12384136E+00 0.11594662E+04</pdfrwt>
<pdfrwt beam="2">  1       -2 0.64233826E-01 0.11594662E+04</pdfrwt>
<totfact> 0.42639899E+01</totfact>
</mgrwt>
</event>
<event>
12    4  0.4413110E-008  0.1825104E+04  0.7818608E-02  0.8693062E-01
          1   -1    0    0  501    0  0.00000000000E+00  0.00000000000E+00  0.15183153681E+04  0.15183153681E+04  0.00000000000E+00 0. -1.
         -2   -1    0    0    0  501 -0.00000000000E+00 -0.00000000000E+00 -0.54847037072E+03  0.54847037072E+03  0.00000000000E+00 0.  1.
        -24    2    1    2    0    0  0.66700264731E+03 -0.35620183694E+02  0.56694140004E+03  0.87977596918E+03  0.80136607532E+02 0.  0.
        254    2    1    2    0    0 -0.66700264731E+03  0.35620183694E+02  0.40290359735E+03  0.11870097697E+04  0.89470640743E+03 0.  0.
         23    2    4    4    0    0 -0.72379406199E+03  0.23429541458E+03  0.52651936241E+03  0.92958508711E+03  0.90186527313E+02 0.  0.
         23    2    4    4    0    0  0.56791414686E+02 -0.19867523089E+03 -0.12361576506E+03  0.25742468255E+03  0.91046678489E+02 0.  0.
          3    1    3    3  502    0  0.27537154446E+03  0.85383328839E+01  0.27542085806E+03  0.38956262614E+03  0.00000000000E+00 0. -1.
         -4    1    3    3    0  502  0.39163110285E+03 -0.44158516577E+02  0.29152054198E+03  0.49021334305E+03  0.00000000000E+00 0.  1.
         11    1    5    5    0    0 -0.63070124331E+03  0.20745590050E+03  0.49337266114E+03  0.82718715641E+03  0.00000000000E+00 0. -1.
        -11    1    5    5    0    0 -0.93092818681E+02  0.26839514078E+02  0.33146701269E+02  0.10239793070E+03  0.00000000000E+00 0.  1.
          1    1    6    6  503    0  0.38149745530E+02 -0.15036828103E+03 -0.13355281415E+03  0.20470070150E+03  0.00000000000E+00 0. -1.
         -1    1    6    6    0  503  0.18641669156E+02 -0.48306949856E+02  0.99370490952E+01  0.52723981053E+02  0.00000000000E+00 0.  1.
<mgrwt>
<rscale>  0 0.18251038E+04</rscale>
<asrwt>0</asrwt>
<pdfrwt beam="1">  1        1 0.23358698E+00 0.18251038E+04</pdfrwt>
<pdfrwt beam="2">  1       -2 0.84380057E-01 0.18251038E+04</pdfrwt>
<totfact> 0.64320481E+00</totfact>
</mgrwt>
</event>
<event>
12    4  0.4413110E-008  0.1178003E+04  0.7818608E-02  0.9132332E-01
          1   -1    0    0  501    0  0.00000000000E+00  0.00000000000E+00  0.55004826625E+03  0.55004826625E+03  0.00000000000E+00 0. -1.
         -2   -1    0    0    0  501 -0.00000000000E+00 -0.00000000000E+00 -0.63071283758E+03  0.63071283758E+03  0.00000000000E+00 0.  1.
        -24    2    1    2    0    0  0.47831193704E+02 -0.11596397675E+03 -0.22036734681E+03  0.26645807245E+03  0.81869834739E+02 0.  0.
        254    2    1    2    0    0 -0.47831193704E+02  0.11596397675E+03  0.13970277547E+03  0.91430303137E+03  0.89481713255E+03 0.  0.
         23    2    4    4    0    0  0.29120760181E+03 -0.23664084048E+03  0.15334976929E+03  0.41637146100E+03  0.95122484517E+02 0.  0.
         23    2    4    4    0    0 -0.33903879551E+03  0.35260481724E+03 -0.13646993816E+02  0.49793157037E+03  0.92044262874E+02 0.  0.
          1    1    3    3  502    0  0.21415972962E+01 -0.40804078895E+02 -0.15846684115E+02  0.43825525563E+02  0.00000000000E+00 0. -1.
         -2    1    3    3    0  502  0.45689596408E+02 -0.75159897859E+02 -0.20452066269E+03  0.22263254689E+03  0.00000000000E+00 0.  1.
         11    1    5    5    0    0  0.29083751613E+03 -0.22346327917E+03  0.16162633637E+03  0.40080590132E+03  0.00000000000E+00 0.  1.
        -11    1    5    5    0    0  0.37008567793E+00 -0.13177561312E+02 -0.82765670792E+01  0.15565559680E+02  0.00000000000E+00 0. -1.
          1    1    6    6  503    0 -0.66718184487E+02  0.12192441213E+03 -0.23218054767E+02  0.14091116521E+03  0.00000000000E+00 0. -1.
         -1    1    6    6    0  503 -0.27232061103E+03  0.23068040511E+03  0.95710609513E+01  0.35702040516E+03  0.00000000000E+00 0.  1.
<mgrwt>
<rscale>  0 0.11780026E+04</rscale>
<asrwt>0</asrwt>
<pdfrwt beam="1">  1        1 0.84622811E-01 0.11780026E+04</pdfrwt>
<pdfrwt beam="2">  1       -2 0.97032744E-01 0.11780026E+04</pdfrwt>
<totfact> 0.29835018E+01</totfact>
</mgrwt>
</event>
<event>
12    4  0.4413110E-008  0.1350570E+04  0.7818608E-02  0.8990397E-01
         -4   -1    0    0    0  501 -0.00000000000E+00  0.00000000000E+00  0.17820737843E+04  0.17820737843E+04  0.00000000000E+00 0.  1.
          3   -1    0    0  501    0  0.00000000000E+00 -0.00000000000E+00 -0.25588718748E+03  0.25588718748E+03  0.00000000000E+00 0. -1.
        -24    2    1    2    0    0 -0.21082403920E+03  0.11118214246E+03  0.10282289555E+02  0.25235190852E+03  0.82264913217E+02 0.  0.
        254    2    1    2    0    0  0.21082403920E+03 -0.11118214246E+03  0.15159043072E+04  0.17856090632E+04  0.91303100367E+03 0.  0.
         23    2    4    4    0    0  0.34197991641E+03 -0.23037990080E+03  0.22782671453E+03  0.48207015874E+03  0.10228129921E+03 0.  0.
         23    2    4    4    0    0 -0.13115587721E+03  0.11919775834E+03  0.12880775927E+04  0.13035389045E+04  0.93058159089E+02 0.  0.
          3    1    3    3  502    0 -0.19469295119E+03  0.83124564797E+02 -0.13596884611E+02  0.21213183115E+03  0.00000000000E+00 0. -1.
         -4    1    3    3    0  502 -0.16131088015E+02  0.28057577664E+02  0.23879174166E+02  0.40220077371E+02  0.00000000000E+00 0.  1.
         11    1    5    5    0    0  0.33711242443E+03 -0.20490508746E+03  0.22892487364E+03  0.45611125764E+03  0.00000000000E+00 0. -1.
        -11    1    5    5    0    0  0.48674919813E+01 -0.25474813336E+02 -0.10981591087E+01  0.25958901096E+02  0.00000000000E+00 0.  1.
          1    1    6    6  503    0 -0.10411489953E+03  0.13360624040E+03  0.10718191379E+04  0.10851206404E+04  0.00000000000E+00 0. -1.
         -1    1    6    6    0  503 -0.27040977682E+02 -0.14408482059E+02  0.21625845481E+03  0.21841826413E+03  0.00000000000E+00 0.  1.
<mgrwt>
<rscale>  0 0.13505700E+04</rscale>
<asrwt>0</asrwt>
<pdfrwt beam="1">  1        3 0.39367261E-01 0.13505700E+04</pdfrwt>
<pdfrwt beam="2">  1       -4 0.27416519E+00 0.13505700E+04</pdfrwt>
<totfact> 0.64417139E-01</totfact>
</mgrwt>
</event>
<event>
12    4  0.4413110E-008  0.2233280E+04  0.7818608E-02  0.8504703E-01
          1   -1    0    0  501    0  0.00000000000E+00  0.00000000000E+00  0.25635382347E+04  0.25635382347E+04  0.00000000000E+00 0. -1.
         -2   -1    0    0    0  501 -0.00000000000E+00 -0.00000000000E+00 -0.48639221092E+03  0.48639221092E+03  0.00000000000E+00 0.  1.
        -24    2    1    2    0    0 -0.51977361959E+03 -0.60716987856E+03  0.20647533179E+03  0.82929842937E+03  0.79271339463E+02 0.  0.
        254    2    1    2    0    0  0.51977361959E+03  0.60716987856E+03  0.18706706920E+04  0.22206320162E+04  0.89049303012E+03 0.  0.
         23    2    4    4    0    0  0.17273413270E+03 -0.20311346908E+03  0.26311807073E+03  0.38495848615E+03  0.88711639556E+02 0.  0.
         23    2    4    4    0    0  0.34703948688E+03  0.81028334764E+03  0.16075526212E+04  0.18356735301E+04  0.92067204174E+02 0.  0.
          1    1    3    3  502    0 -0.17420806393E+02 -0.47047541010E+02  0.51326512612E+01  0.50431138391E+02  0.00000000000E+00 0. -1.
         -2    1    3    3    0  502 -0.50235281319E+03 -0.56012233755E+03  0.20134268052E+03  0.77886729098E+03  0.00000000000E+00 0.  1.
         11    1    5    5    0    0  0.18195364396E+03 -0.18608704351E+03  0.23398409199E+03  0.34997724443E+03  0.00000000000E+00 0. -1.
        -11    1    5    5    0    0 -0.92195112527E+01 -0.17026425564E+02  0.29133978742E+02  0.34981241724E+02  0.00000000000E+00 0.  1.
          4    1    6    6  503    0  0.27247464006E+03  0.54193408127E+03  0.10569985259E+04  0.12186799669E+04  0.00000000000E+00 0. -1.
         -4    1    6    6    0  503  0.74564846828E+02  0.26834926637E+03  0.55055409536E+03  0.61699356323E+03  0.00000000000E+00 0.  1.
<mgrwt>
<rscale>  0 0.22332801E+04</rscale>
<asrwt>0</asrwt>
<pdfrwt beam="1">  1        1 0.39439049E+00 0.22332801E+04</pdfrwt>
<pdfrwt beam="2">  1       -2 0.74829572E-01 0.22332801E+04</pdfrwt>
<totfact> 0.15689187E+00</totfact>
</mgrwt>
</event>
<event>
12    4  0.4413110E-008  0.2671678E+04  0.7818608E-02  0.8344254E-01
         -2   -1    0    0    0  501 -0.00000000000E+00  0.00000000000E+00  0.75238737547E+03  0.75238737547E+03  0.00000000000E+00 0.  1.
          1   -1    0    0  501    0  0.00000000000E+00 -0.00000000000E+00 -0.23717372855E+04  0.23717372855E+04  0.00000000000E+00 0. -1.
        -24    2    1    2    0    0 -0.10476966583E+04 -0.49770371431E+03 -0.10061937334E+04  0.15378452402E+04  0.84645605942E+02 0.  0.
        254    2    1    2    0    0  0.10476966583E+04  0.49770371431E+03 -0.61315617663E+03  0.15862794207E+04  0.89159667372E+03 0.  0.
         23    2    4    4    0    0  0.87133213348E+03  0.17879003460E+02 -0.60853590962E+03  0.10668334334E+04  0.90985030756E+02 0.  0.
         23    2    4    4    0    0  0.17636452486E+03  0.47982471085E+03 -0.46202670068E+01  0.51944598729E+03  0.92014064542E+02 0.  0.
          3    1    3    3  502    0 -0.39677830897E+03 -0.19883359023E+03 -0.33255278843E+03  0.55458018371E+03  0.00000000000E+00 0. -1.
         -4    1    3    3    0  502 -0.65091834937E+03 -0.29887012408E+03 -0.67364094497E+03  0.98326505651E+03  0.00000000000E+00 0.  1.
         11    1    5    5    0    0  0.39404578642E+03  0.18111461747E+02 -0.32942724978E+03  0.51392841888E+03  0.00000000000E+00 0.  1.
        -11    1    5    5    0    0  0.47728634707E+03 -0.23245828698E+00 -0.27910865984E+03  0.55290501457E+03  0.00000000000E+00 0. -1.
          1    1    6    6  503    0  0.18334039811E+03  0.46566720293E+03  0.58718503220E+01  0.50049388017E+03  0.00000000000E+00 0. -1.
         -1    1    6    6    0  503 -0.69758732526E+01  0.14157507921E+02 -0.10492117329E+02  0.18952107118E+02  0.00000000000E+00 0.  1.
<mgrwt>
<rscale>  0 0.26716775E+04</rscale>
<asrwt>0</asrwt>
<pdfrwt beam="1">  1        1 0.36488266E+00 0.26716775E+04</pdfrwt>
<pdfrwt beam="2">  1       -2 0.11575190E+00 0.26716775E+04</pdfrwt>
<totfact> 0.74191750E-01</totfact>
</mgrwt>
</event>
<event>
12    4  0.4413110E-008  0.1878036E+04  0.7818608E-02  0.8665867E-01
          1   -1    0    0  501    0  0.00000000000E+00  0.00000000000E+00  0.24671897645E+04  0.24671897645E+04  0.00000000000E+00 0. -1.
         -2   -1    0    0    0  501 -0.00000000000E+00 -0.00000000000E+00 -0.35739250837E+03  0.35739250837E+03  0.00000000000E+00 0.  1.
        -24    2    1    2    0    0 -0.72903281867E+02  0.70137089113E+03  0.10149927865E+04  0.12384963289E+04  0.80167229287E+02 0.  0.
        254    2    1    2    0    0  0.72903281867E+02 -0.70137089113E+03  0.10948044696E+04  0.15860859440E+04  0.90544783366E+03 0.  0.
         23    2    4    4    0    0  0.30431698783E+03 -0.50818234582E+03  0.19099527838E+03  0.62886617592E+03  0.90196148300E+02 0.  0.
         23    2    4    4    0    0 -0.23141370596E+03 -0.19318854531E+03  0.90380919124E+03  0.95721976804E+03  0.92328288224E+02 0.  0.
          1    1    3    3  502    0 -0.45522667866E+02  0.17889376346E+03  0.30584345786E+03  0.35723313481E+03  0.00000000000E+00 0. -1.
         -2    1    3    3    0  502 -0.27380614001E+02  0.52247712766E+03  0.70914932868E+03  0.88126319413E+03  0.00000000000E+00 0.  1.
         11    1    5    5    0    0  0.83937551401E+02 -0.74864635278E+02  0.46507105339E+02  0.12170923136E+03  0.00000000000E+00 0.  1.
        -11    1    5    5    0    0  0.22037943643E+03 -0.43331771054E+03  0.14448817304E+03  0.50715694456E+03  0.00000000000E+00 0. -1.
          3    1    6    6  503    0 -0.17117743409E+02 -0.17989829775E+01  0.14182557982E+03  0.14286619113E+03  0.00000000000E+00 0.  1.
         -3    1    6    6    0  503 -0.21429596255E+03 -0.19138956233E+03  0.76198361142E+03  0.81435357690E+03  0.00000000000E+00 0. -1.
<mgrwt>
<rscale>  0 0.18780364E+04</rscale>
<asrwt>0</asrwt>
<pdfrwt beam="1">  1        1 0.37956765E+00 0.18780364E+04</pdfrwt>
<pdfrwt beam="2">  1       -2 0.54983464E-01 0.18780364E+04</pdfrwt>
<totfact> 0.36592445E+00</totfact>
</mgrwt>
</event>
<event>
12    4  0.4413110E-008  0.2219592E+04  0.7818608E-02  0.8510317E-01
          1   -1    0    0  501    0  0.00000000000E+00  0.00000000000E+00  0.30209207059E+04  0.30209207059E+04  0.00000000000E+00 0. -1.
         -2   -1    0    0    0  501 -0.00000000000E+00 -0.00000000000E+00 -0.40770589627E+03  0.40770589627E+03  0.00000000000E+00 0.  1.
        -24    2    1    2    0    0  0.59064788990E+03  0.69731332231E+03  0.83911945780E+03  0.12432266666E+04  0.79876659052E+02 0.  0.
        254    2    1    2    0    0 -0.59064788990E+03 -0.69731332231E+03  0.17740953518E+04  0.21853999356E+04  0.89075684779E+03 0.  0.
         23    2    4    4    0    0 -0.80401579429E+03 -0.53454065515E+03  0.11869738743E+04  0.15328133995E+04  0.91841330676E+02 0.  0.
         23    2    4    4    0    0  0.21336790439E+03 -0.16277266716E+03  0.58712147750E+03  0.65258653606E+03  0.95586368892E+02 0.  0.
          3    1    3    3  502    0  0.56604241205E+03  0.67826276597E+03  0.79031073106E+03  0.11853419100E+04  0.00000000000E+00 0. -1.
         -4    1    3    3    0  502  0.24605477855E+02  0.19050556336E+02  0.48808726736E+02  0.57884756566E+02  0.00000000000E+00 0.  1.
         11    1    5    5    0    0 -0.78084710604E+03 -0.53016751564E+03  0.11380038111E+04  0.14784628747E+04  0.00000000000E+00 0.  1.
        -11    1    5    5    0    0 -0.23168688254E+02 -0.43731395091E+01  0.48970063182E+02  0.54350524861E+02  0.00000000000E+00 0. -1.
          1    1    6    6  503    0  0.23641016254E+02 -0.43517840529E+02  0.19257370054E+03  0.19883996136E+03  0.00000000000E+00 0. -1.
         -1    1    6    6    0  503  0.18972688813E+03 -0.11925482663E+03  0.39454777696E+03  0.45374657471E+03  0.00000000000E+00 0.  1.
<mgrwt>
<rscale>  0 0.22195920E+04</rscale>
<asrwt>0</asrwt>
<pdfrwt beam="1">  1        1 0.46475702E+00 0.22195920E+04</pdfrwt>
<pdfrwt beam="2">  1       -2 0.62723986E-01 0.22195920E+04</pdfrwt>
<totfact> 0.10887354E+00</totfact>
</mgrwt>
</event>
<event>
12    4  0.4413110E-008  0.2705140E+04  0.7818608E-02  0.8333339E-01
          1   -1    0    0  501    0  0.00000000000E+00  0.00000000000E+00  0.19673595469E+04  0.19673595469E+04  0.00000000000E+00 0. -1.
         -2   -1    0    0    0  501 -0.00000000000E+00 -0.00000000000E+00 -0.92989885033E+03  0.92989885033E+03  0.00000000000E+00 0.  1.
        -24    2    1    2    0    0 -0.52560668591E+03 -0.10854456953E+04  0.47598466475E+03  0.12990022871E+04  0.79942449344E+02 0.  0.
        254    2    1    2    0    0  0.52560668591E+03  0.10854456953E+04  0.56147603183E+03  0.15982561101E+04  0.88584000455E+03 0.  0.
         23    2    4    4    0    0  0.24361658554E+03  0.37318208554E+03  0.68011230634E+03  0.81824580643E+03  0.91430524318E+02 0.  0.
         23    2    4    4    0    0  0.28199010037E+03  0.71226360971E+03 -0.11863627451E+03  0.78001030371E+03  0.86623564036E+02 0.  0.
          3    1    3    3  502    0 -0.51337753594E+03 -0.10748234344E+04  0.46197058216E+03  0.12775831591E+04  0.00000000000E+00 0. -1.
         -4    1    3    3    0  502 -0.12229149966E+02 -0.10622260811E+02  0.14014082585E+02  0.21419128001E+02  0.00000000000E+00 0.  1.
         11    1    5    5    0    0  0.95518127529E+02  0.20031366177E+03  0.39861706164E+03  0.45622893114E+03  0.00000000000E+00 0. -1.
        -11    1    5    5    0    0  0.14809845801E+03  0.17286842377E+03  0.28149524471E+03  0.36201687529E+03  0.00000000000E+00 0.  1.
          3    1    6    6  503    0  0.10768886442E+03  0.18301297132E+03 -0.53662364474E+02  0.21902120571E+03  0.00000000000E+00 0. -1.
         -3    1    6    6    0  503  0.17430123595E+03  0.52925063839E+03 -0.64973910035E+02  0.56098909800E+03  0.00000000000E+00 0.  1.
<mgrwt>
<rscale>  0 0.27051398E+04</rscale>
<asrwt>0</asrwt>
<pdfrwt beam="1">  1        1 0.30267070E+00 0.27051398E+04</pdfrwt>
<pdfrwt beam="2">  1       -2 0.14306136E+00 0.27051398E+04</pdfrwt>
<totfact> 0.81656276E-01</totfact>
</mgrwt>
</event>
<event>
12    4  0.4413110E-008  0.1265396E+04  0.7818608E-02  0.9057466E-01
         -2   -1    0    0    0  501 -0.00000000000E+00  0.00000000000E+00  0.17868323864E+04  0.17868323864E+04  0.00000000000E+00 0.  1.
          1   -1    0    0  501    0  0.00000000000E+00 -0.00000000000E+00 -0.22403146987E+03  0.22403146987E+03  0.00000000000E+00 0. -1.
        -24    2    1    2    0    0  0.22244859072E+03 -0.18945108630E+03  0.24958987305E+03  0.39251726043E+03  0.79997533687E+02 0.  0.
        254    2    1    2    0    0 -0.22244859072E+03  0.18945108630E+03  0.13132110435E+04  0.16183465959E+04  0.89952619190E+03 0.  0.
         23    2    4    4    0    0 -0.96456183009E+01 -0.89643382291E+02  0.12402787542E+04  0.12468642025E+04  0.90829386525E+02 0.  0.
         23    2    4    4    0    0 -0.21280297242E+03  0.27909446859E+03  0.72932289312E+02  0.37148239334E+03  0.97474213355E+02 0.  0.
          3    1    3    3  502    0  0.20662865254E+02 -0.39730216225E+02  0.11204006516E+02  0.46162472246E+02  0.00000000000E+00 0. -1.
         -4    1    3    3    0  502  0.20178572547E+03 -0.14972087007E+03  0.23838586653E+03  0.34635478819E+03  0.00000000000E+00 0.  1.
         11    1    5    5    0    0  0.21729146732E+01 -0.42570841091E+02  0.10368585367E+04  0.10377343702E+04  0.00000000000E+00 0. -1.
        -11    1    5    5    0    0 -0.11818532974E+02 -0.47072541200E+02  0.20342021753E+03  0.20912983230E+03  0.00000000000E+00 0.  1.
          4    1    6    6  503    0 -0.11906967474E+03  0.77898448842E+02  0.29548549550E+02  0.14532333796E+03  0.00000000000E+00 0. -1.
         -4    1    6    6    0  503 -0.93733297686E+02  0.20119601975E+03  0.43383739762E+02  0.22615905539E+03  0.00000000000E+00 0.  1.
<mgrwt>
<rscale>  0 0.12653959E+04</rscale>
<asrwt>0</asrwt>
<pdfrwt beam="1">  1        1 0.34466381E-01 0.12653959E+04</pdfrwt>
<pdfrwt beam="2">  1       -2 0.27489728E+00 0.12653959E+04</pdfrwt>
<totfact> 0.50076974E+00</totfact>
</mgrwt>
</event>
<event>
12    4  0.4413110E-008  0.1656146E+04  0.7818608E-02  0.8786779E-01
         -2   -1    0    0    0  501 -0.00000000000E+00  0.00000000000E+00  0.33278335637E+03  0.33278335637E+03  0.00000000000E+00 0.  1.
          1   -1    0    0  501    0  0.00000000000E+00 -0.00000000000E+00 -0.20605154671E+04  0.20605154671E+04  0.00000000000E+00 0. -1.
        -24    2    1    2    0    0 -0.48030035727E+03 -0.24285886008E+03 -0.26357845443E+03  0.60494870371E+03  0.82586157223E+02 0.  0.
        254    2    1    2    0    0  0.48030035727E+03  0.24285886008E+03 -0.14641536563E+04  0.17883501198E+04  0.87451778857E+03 0.  0.
         23    2    4    4    0    0  0.40327726990E+03  0.21611862220E+03 -0.18268802319E+03  0.50124067687E+03  0.92344393741E+02 0.  0.
         23    2    4    4    0    0  0.77023087374E+02  0.26740237878E+02 -0.12814656331E+04  0.12871094429E+04  0.88594316125E+02 0.  0.
          3    1    3    3  502    0 -0.75927186127E+02 -0.36038667244E+02 -0.96685252754E+01  0.84600257156E+02  0.00000000000E+00 0. -1.
         -4    1    3    3    0  502 -0.40437317114E+03 -0.20682019283E+03 -0.25390992916E+03  0.52034844655E+03  0.00000000000E+00 0.  1.
         11    1    5    5    0    0  0.12364841849E+03  0.35549067472E+02 -0.18148295799E+02  0.12993085943E+03  0.00000000000E+00 0.  1.
        -11    1    5    5    0    0  0.27962885141E+03  0.18056955473E+03 -0.16453972739E+03  0.37130981744E+03  0.00000000000E+00 0. -1.
          3    1    6    6  503    0  0.93343354381E+02  0.18272497955E+02 -0.86016908758E+03  0.86541188183E+03  0.00000000000E+00 0. -1.
         -3    1    6    6    0  503 -0.16320267007E+02  0.84677399223E+01 -0.42129654555E+03  0.42169756109E+03  0.00000000000E+00 0.  1.
<mgrwt>
<rscale>  0 0.16561464E+04</rscale>
<asrwt>0</asrwt>
<pdfrwt beam="1">  1        1 0.31700238E+00 0.16561464E+04</pdfrwt>
<pdfrwt beam="2">  1       -2 0.51197439E-01 0.16561464E+04</pdfrwt>
<totfact> 0.81994530E+00</totfact>
</mgrwt>
</event>
<event>
12    4  0.4413110E-008  0.1943770E+04  0.7818608E-02  0.8633371E-01
         -2   -1    0    0    0  501 -0.00000000000E+00  0.00000000000E+00  0.72439816703E+03  0.72439816703E+03  0.00000000000E+00 0.  1.
          1   -1    0    0  501    0  0.00000000000E+00 -0.00000000000E+00 -0.13039248615E+04  0.13039248615E+04  0.00000000000E+00 0. -1.
        -24    2    1    2    0    0 -0.37689146364E+02  0.12322128237E+03  0.55105032220E+03  0.57138039638E+03  0.78836181965E+02 0.  0.
        254    2    1    2    0    0  0.37689146364E+02 -0.12322128237E+03 -0.11305770167E+04  0.14569426322E+04  0.90987553359E+03 0.  0.
         23    2    4    4    0    0 -0.13172093104E+03  0.28034648788E+03 -0.89416330537E+03  0.95066123332E+03  0.91017618746E+02 0.  0.
         23    2    4    4    0    0  0.16941007740E+03 -0.40356777025E+03 -0.23641371132E+03  0.50628139886E+03  0.94141873938E+02 0.  0.
          3    1    3    3  502    0  0.21783566452E+02  0.23655798133E+02  0.17216809483E+03  0.17514557782E+03  0.00000000000E+00 0. -1.
         -4    1    3    3    0  502 -0.59472712816E+02  0.99565484239E+02  0.37888222737E+03  0.39623481856E+03  0.00000000000E+00 0.  1.
         11    1    5    5    0    0 -0.69799614917E+02  0.14389446306E+03 -0.32666840644E+03  0.36371671739E+03  0.00000000000E+00 0. -1.
        -11    1    5    5    0    0 -0.61921316120E+02  0.13645202482E+03 -0.56749489893E+03  0.58694451592E+03  0.00000000000E+00 0.  1.
          4    1    6    6  503    0  0.23236463704E+01 -0.70145185436E+02 -0.65641230787E+02  0.96096397183E+02  0.00000000000E+00 0. -1.
         -4    1    6    6    0  503  0.16708643103E+03 -0.33342258481E+03 -0.17077248053E+03  0.41018500168E+03  0.00000000000E+00 0.  1.
<mgrwt>
<rscale>  0 0.19437703E+04</rscale>
<asrwt>0</asrwt>
<pdfrwt beam="1">  1        1 0.20060382E+00 0.19437703E+04</pdfrwt>
<pdfrwt beam="2">  1       -2 0.11144587E+00 0.19437703E+04</pdfrwt>
<totfact> 0.46786816E+00</totfact>
</mgrwt>
</event>
<event>
12    4  0.4413110E-008  0.1753421E+04  0.7818608E-02  0.8731470E-01
          1   -1    0    0  501    0  0.00000000000E+00  0.00000000000E+00  0.22788181934E+04  0.22788181934E+04  0.00000000000E+00 0. -1.
         -2   -1    0    0    0  501 -0.00000000000E+00 -0.00000000000E+00 -0.33728927156E+03  0.33728927156E+03  0.00000000000E+00 0.  1.
        -24    2    1    2    0    0 -0.10692634802E+03 -0.20008247515E+03 -0.16788695183E+03  0.29522131592E+03  0.86621914144E+02 0.  0.
        254    2    1    2    0    0  0.10692634802E+03  0.20008247515E+03  0.21094158737E+04  0.23208861490E+04  0.94096277713E+03 0.  0.
         23    2    4    4    0    0 -0.19066347034E+02 -0.95728284601E+00 -0.74996320379E+02  0.12173588579E+03  0.93971994972E+02 0.  0.
         23    2    4    4    0    0  0.12599269506E+03  0.20103975800E+03  0.21844121940E+04  0.21991502632E+04  0.91181704998E+02 0.  0.
          1    1    3    3  502    0 -0.37338980970E+02 -0.16711833247E+02 -0.69102016913E+01  0.41487778414E+02  0.00000000000E+00 0. -1.
         -2    1    3    3    0  502 -0.69587367052E+02 -0.18337064191E+03 -0.16097675014E+03  0.25373353750E+03  0.00000000000E+00 0.  1.
         11    1    5    5    0    0  0.49487568930E+01 -0.70218152805E+01 -0.91545050690E+02  0.91947226117E+02  0.00000000000E+00 0.  1.
        -11    1    5    5    0    0 -0.24015103927E+02  0.60645324345E+01  0.16548730311E+02  0.29788659674E+02  0.00000000000E+00 0. -1.
          4    1    6    6  503    0  0.63143921665E+02  0.54360324087E+02  0.47007201019E+03  0.47739909347E+03  0.00000000000E+00 0. -1.
         -4    1    6    6    0  503  0.62848773391E+02  0.14667943391E+03  0.17143401838E+04  0.17217511698E+04  0.00000000000E+00 0.  1.
<mgrwt>
<rscale>  0 0.17534206E+04</rscale>
<asrwt>0</asrwt>
<pdfrwt beam="1">  1        1 0.35058740E+00 0.17534206E+04</pdfrwt>
<pdfrwt beam="2">  1       -2 0.51890659E-01 0.17534206E+04</pdfrwt>
<totfact> 0.56182418E+00</totfact>
</mgrwt>
</event>
<event>
12    4  0.4413110E-008  0.1594973E+04  0.7818608E-02  0.8823642E-01
         -2   -1    0    0    0  501 -0.00000000000E+00  0.00000000000E+00  0.25420587430E+03  0.25420587430E+03  0.00000000000E+00 0.  1.
          1   -1    0    0  501    0  0.00000000000E+00 -0.00000000000E+00 -0.25018493300E+04  0.25018493300E+04  0.00000000000E+00 0. -1.
        -24    2    1    2    0    0 -0.31893296144E+03 -0.41068752210E+03 -0.50315116445E+03  0.72759291825E+03  0.76471469755E+02 0.  0.
        254    2    1    2    0    0  0.31893296144E+03  0.41068752210E+03 -0.17444922913E+04  0.20284622861E+04  0.89499911566E+03 0.  0.
         23    2    4    4    0    0  0.14949692883E+03  0.62016631339E+03 -0.72543825305E+03  0.97047588423E+03  0.92774969131E+02 0.  0.
         23    2    4    4    0    0  0.16943603261E+03 -0.20947879129E+03 -0.10190540382E+04  0.10579864019E+04  0.90962412726E+02 0.  0.
          3    1    3    3  502    0 -0.11805244258E+02 -0.12797544647E+02 -0.41979611529E+02  0.45446988075E+02  0.00000000000E+00 0. -1.
         -4    1    3    3    0  502 -0.30712771718E+03 -0.39788997746E+03 -0.46117155292E+03  0.68214593017E+03  0.00000000000E+00 0.  1.
         11    1    5    5    0    0  0.15396077187E+02  0.17282930801E+03 -0.14985205886E+03  0.22926545410E+03  0.00000000000E+00 0.  1.
        -11    1    5    5    0    0  0.13410085164E+03  0.44733700538E+03 -0.57558619418E+03  0.74121043012E+03  0.00000000000E+00 0. -1.
          1    1    6    6  503    0  0.18046088974E+03 -0.19333811277E+03 -0.93457721050E+03  0.97127767449E+03  0.00000000000E+00 0. -1.
         -1    1    6    6    0  503 -0.11024857132E+02 -0.16140678513E+02 -0.84476827733E+02  0.86708727366E+02  0.00000000000E+00 0.  1.
<mgrwt>
<rscale>  0 0.15949731E+04</rscale>
<asrwt>0</asrwt>
<pdfrwt beam="1">  1        1 0.38489989E+00 0.15949731E+04</pdfrwt>
<pdfrwt beam="2">  1       -2 0.39108597E-01 0.15949731E+04</pdfrwt>
<totfact> 0.70519681E+00</totfact>
</mgrwt>
</event>
<event>
12    4  0.4413110E-008  0.1975717E+04  0.7818608E-02  0.8618058E-01
         -2   -1    0    0    0  501 -0.00000000000E+00  0.00000000000E+00  0.34506313334E+03  0.34506313334E+03  0.00000000000E+00 0.  1.
          1   -1    0    0  501    0  0.00000000000E+00 -0.00000000000E+00 -0.28280758244E+04  0.28280758244E+04  0.00000000000E+00 0. -1.
        -24    2    1    2    0    0 -0.34856110193E+02  0.16163081549E+03  0.23832623301E+03  0.30049118621E+03  0.78460759060E+02 0.  0.
        254    2    1    2    0    0  0.34856110193E+02 -0.16163081549E+03 -0.27213389241E+04  0.28726477716E+04  0.90503050267E+03 0.  0.
         23    2    4    4    0    0  0.88753309105E+02 -0.33082705999E+03 -0.36773865911E+03  0.51050503198E+03  0.89777351104E+02 0.  0.
         23    2    4    4    0    0 -0.53897198912E+02  0.16919624450E+03 -0.23536002650E+04  0.23621427396E+04  0.93551256877E+02 0.  0.
          3    1    3    3  502    0 -0.76047472099E+01  0.13649345235E+02  0.82147921144E+02  0.83620677788E+02  0.00000000000E+00 0. -1.
         -4    1    3    3    0  502 -0.27251362983E+02  0.14798147026E+03  0.15617831186E+03  0.21687050842E+03  0.00000000000E+00 0.  1.
         11    1    5    5    0    0  0.77172255709E+01 -0.17680522472E+03 -0.15177138310E+03  0.23313986314E+03  0.00000000000E+00 0.  1.
        -11    1    5    5    0    0  0.81036083534E+02 -0.15402183527E+03 -0.21596727602E+03  0.27736516884E+03  0.00000000000E+00 0. -1.
          3    1    6    6  503    0 -0.48986052284E+02  0.98751927734E+02 -0.88394715095E+03  0.89079410765E+03  0.00000000000E+00 0. -1.
         -3    1    6    6    0  503 -0.49111466275E+01  0.70444316764E+02 -0.14696531140E+04  0.14713486319E+04  0.00000000000E+00 0.  1.
<mgrwt>
<rscale>  0 0.19757173E+04</rscale>
<asrwt>0</asrwt>
<pdfrwt beam="1">  1        1 0.43508859E+00 0.19757173E+04</pdfrwt>
<pdfrwt beam="2">  1       -2 0.53086636E-01 0.19757173E+04</pdfrwt>
<totfact> 0.21774743E+00</totfact>
</mgrwt>
</event>
<event>
12    4  0.4413110E-008  0.1620713E+04  0.7818608E-02  0.8807923E-01
          1   -1    0    0  501    0  0.00000000000E+00  0.00000000000E+00  0.81152065395E+03  0.81152065395E+03  0.00000000000E+00 0. -1.
         -2   -1    0    0    0  501 -0.00000000000E+00 -0.00000000000E+00 -0.80919387562E+03  0.80919387562E+03  0.00000000000E+00 0.  1.
        -24    2    1    2    0    0  0.20120652999E+03 -0.26799401884E+03  0.44647872308E+03  0.56390101110E+03  0.79600491893E+02 0.  0.
        254    2    1    2    0    0 -0.20120652999E+03  0.26799401884E+03 -0.44415194476E+03  0.10568135185E+04  0.89848706221E+03 0.  0.
         23    2    4    4    0    0  0.27081311468E+02  0.26650093083E+03 -0.66731021910E+03  0.72498746166E+03  0.92454029045E+02 0.  0.
         23    2    4    4    0    0 -0.22828784145E+03  0.14930880033E+01  0.22315827434E+03  0.33182605681E+03  0.90506069989E+02 0.  0.
          1    1    3    3  502    0  0.16661272078E+03 -0.20871399944E+03  0.40018398675E+03  0.48111179110E+03  0.00000000000E+00 0. -1.
         -2    1    3    3    0  502  0.34593809208E+02 -0.59280019399E+02  0.46294736337E+02  0.82789219999E+02  0.00000000000E+00 0.  1.
         11    1    5    5    0    0 -0.14493045089E+02  0.90490878616E+00 -0.32011477909E+02  0.35151129908E+02  0.00000000000E+00 0.  1.
        -11    1    5    5    0    0  0.41574356557E+02  0.26559602205E+03 -0.63529874119E+03  0.68983633176E+03  0.00000000000E+00 0. -1.
          4    1    6    6  503    0 -0.16594830979E+03 -0.24506204259E+02  0.19858097016E+03  0.25994960527E+03  0.00000000000E+00 0. -1.
         -4    1    6    6    0  503 -0.62339531660E+02  0.25999292263E+02  0.24577304188E+02  0.71876451546E+02  0.00000000000E+00 0.  1.
<mgrwt>
<rscale>  0 0.16207129E+04</rscale>
<asrwt>0</asrwt>
<pdfrwt beam="1">  1        1 0.12484933E+00 0.16207129E+04</pdfrwt>
<pdfrwt beam="2">  1       -2 0.12449136E+00 0.16207129E+04</pdfrwt>
<totfact> 0.87808677E+00</totfact>
</mgrwt>
</event>
<event>
12    4  0.4413110E-008  0.2136682E+04  0.7818608E-02  0.8545255E-01
          1   -1    0    0  501    0  0.00000000000E+00  0.00000000000E+00  0.15252912370E+04  0.15252912370E+04  0.00000000000E+00 0. -1.
         -2   -1    0    0    0  501 -0.00000000000E+00 -0.00000000000E+00 -0.74828492650E+03  0.74828492650E+03  0.00000000000E+00 0.  1.
        -24    2    1    2    0    0  0.60474901680E+03 -0.80763206734E+02 -0.35266255649E+03  0.70926963414E+03  0.80302342912E+02 0.  0.
        254    2    1    2    0    0 -0.60474901680E+03  0.80763206734E+02  0.11296688670E+04  0.15643065293E+04  0.89367729065E+03 0.  0.
         23    2    4    4    0    0 -0.60556639058E+03  0.29162436172E+03  0.11484047138E+04  0.13343103138E+04  0.98970728539E+02 0.  0.
         23    2    4    4    0    0  0.81737377252E+00 -0.21086115499E+03 -0.18735846795E+02  0.22999621556E+03  0.89911803634E+02 0.  0.
          3    1    3    3  502    0  0.55961979983E+02 -0.10514328996E+02 -0.62439846703E+02  0.84504608005E+02  0.00000000000E+00 0. -1.
         -4    1    3    3    0  502  0.54878703682E+03 -0.70248877738E+02 -0.29022270979E+03  0.62476502613E+03  0.00000000000E+00 0.  1.
         11    1    5    5    0    0 -0.42638318457E+03  0.17156655945E+03  0.84728683414E+03  0.96391528866E+03  0.00000000000E+00 0. -1.
        -11    1    5    5    0    0 -0.17918320601E+03  0.12005780227E+03  0.30111787962E+03  0.37039502511E+03  0.00000000000E+00 0.  1.
          1    1    6    6  503    0 -0.25453601822E+02 -0.15353182257E+02 -0.13536542439E+02  0.32662578471E+02  0.00000000000E+00 0. -1.
         -1    1    6    6    0  503  0.26270975595E+02 -0.19550797273E+03 -0.51993043564E+01  0.19733363709E+03  0.00000000000E+00 0.  1.
<mgrwt>
<rscale>  0 0.21366820E+04</rscale>
<asrwt>0</asrwt>
<pdfrwt beam="1">  1        1 0.23466019E+00 0.21366820E+04</pdfrwt>
<pdfrwt beam="2">  1       -2 0.11512076E+00 0.21366820E+04</pdfrwt>
<totfact> 0.29739693E+00</totfact>
</mgrwt>
</event>
<event>
12    4  0.4413110E-008  0.1847968E+04  0.7818608E-02  0.8681199E-01
          1   -1    0    0  501    0  0.00000000000E+00  0.00000000000E+00  0.32774397066E+04  0.32774397066E+04  0.00000000000E+00 0. -1.
         -2   -1    0    0    0  501 -0.00000000000E+00 -0.00000000000E+00 -0.26049175709E+03  0.26049175709E+03  0.00000000000E+00 0.  1.
        -24    2    1    2    0    0  0.19337869895E+03  0.15695470913E+03 -0.10386703433E+03  0.28149780834E+03  0.80140834481E+02 0.  0.
        254    2    1    2    0    0 -0.19337869895E+03 -0.15695470913E+03  0.31208149838E+04  0.32564336553E+04  0.89601556144E+03 0.  0.
         23    2    4    4    0    0  0.28876554467E+03  0.13028130911E+03  0.76278036432E+03  0.83079645962E+03  0.89610902502E+02 0.  0.
         23    2    4    4    0    0 -0.48214424362E+03 -0.28723601824E+03  0.23580346195E+04  0.24256371957E+04  0.91765661000E+02 0.  0.
          3    1    3    3  502    0  0.71617941599E+02  0.10957398617E+03 -0.48567250297E+02  0.13962222533E+03  0.00000000000E+00 0. -1.
         -4    1    3    3    0  502  0.12176075735E+03  0.47380722956E+02 -0.55299784038E+02  0.14187558301E+03  0.00000000000E+00 0.  1.
         11    1    5    5    0    0  0.15229392144E+03  0.11232495762E+03  0.39189339224E+03  0.43519049334E+03  0.00000000000E+00 0. -1.
        -11    1    5    5    0    0  0.13647162322E+03  0.17956351499E+02  0.37088697208E+03  0.39560596628E+03  0.00000000000E+00 0.  1.
          4    1    6    6  503    0 -0.87694145142E+02 -0.40529553353E+02  0.28131103398E+03  0.29743706162E+03  0.00000000000E+00 0.  1.
         -4    1    6    6    0  503 -0.39445009848E+03 -0.24670646489E+03  0.20767235855E+04  0.21282001341E+04  0.00000000000E+00 0. -1.
<mgrwt>
<rscale>  0 0.18479676E+04</rscale>
<asrwt>0</asrwt>
<pdfrwt beam="1">  1        1 0.50422146E+00 0.18479676E+04</pdfrwt>
<pdfrwt beam="2">  1       -2 0.40075657E-01 0.18479676E+04</pdfrwt>
<totfact> 0.18150956E+00</totfact>
</mgrwt>
</event>
<event>
12    4  0.4413110E-008  0.1758893E+04  0.7818608E-02  0.8728470E-01
         -2   -1    0    0    0  501 -0.00000000000E+00  0.00000000000E+00  0.17424668130E+04  0.17424668130E+04  0.00000000000E+00 0.  1.
          1   -1    0    0  501    0  0.00000000000E+00 -0.00000000000E+00 -0.44386862577E+03  0.44386862577E+03  0.00000000000E+00 0. -1.
        -24    2    1    2    0    0 -0.17806058255E+03 -0.51579700249E+03  0.93343309004E+03  0.10839541495E+04  0.76857957946E+02 0.  0.
        254    2    1    2    0    0  0.17806058255E+03  0.51579700249E+03  0.36516509721E+03  0.11023812893E+04  0.88552066042E+03 0.  0.
         23    2    4    4    0    0 -0.15986088949E+03  0.51171438038E+03  0.48933858033E+03  0.73163109918E+03  0.91786208189E+02 0.  0.
         23    2    4    4    0    0  0.33792147204E+03  0.40826221163E+01 -0.12417348312E+03  0.37075019016E+03  0.88481978530E+02 0.  0.
          3    1    3    3  502    0 -0.18281132734E+03 -0.46085301385E+03  0.84652015831E+03  0.98102082557E+03  0.00000000000E+00 0. -1.
         -4    1    3    3    0  502  0.47507447857E+01 -0.54943988644E+02  0.86912931731E+02  0.10293332389E+03  0.00000000000E+00 0.  1.
         11    1    5    5    0    0 -0.11573844440E+03  0.23808427136E+03  0.27053987896E+03  0.37851199966E+03  0.00000000000E+00 0. -1.
        -11    1    5    5    0    0 -0.44122445086E+02  0.27363010902E+03  0.21879870137E+03  0.35311909952E+03  0.00000000000E+00 0.  1.
          4    1    6    6  503    0  0.14427834800E+02 -0.10536604072E+02 -0.27518508443E+02  0.32809308881E+02  0.00000000000E+00 0.  1.
         -4    1    6    6    0  503  0.32349363724E+03  0.14619226188E+02 -0.96654974676E+02  0.33794088128E+03  0.00000000000E+00 0. -1.
<mgrwt>
<rscale>  0 0.17588932E+04</rscale>
<asrwt>0</asrwt>
<pdfrwt beam="1">  1        1 0.68287482E-01 0.17588932E+04</pdfrwt>
<pdfrwt beam="2">  1       -2 0.26807181E+00 0.17588932E+04</pdfrwt>
<totfact> 0.21530538E+00</totfact>
</mgrwt>
</event>
<event>
12    4  0.4413110E-008  0.1790605E+04  0.7818608E-02  0.8711312E-01
         -2   -1    0    0    0  501 -0.00000000000E+00  0.00000000000E+00  0.32888497906E+03  0.32888497906E+03  0.00000000000E+00 0.  1.
          1   -1    0    0  501    0  0.00000000000E+00 -0.00000000000E+00 -0.24372251014E+04  0.24372251014E+04  0.00000000000E+00 0. -1.
        -24    2    1    2    0    0 -0.20558778914E+02 -0.44156630116E+03 -0.23394809092E+02  0.44995489314E+03  0.80676062457E+02 0.  0.
        254    2    1    2    0    0  0.20558778914E+02  0.44156630116E+03 -0.20849453132E+04  0.23161551873E+04  0.90673834749E+03 0.  0.
         23    2    4    4    0    0 -0.17949674008E+03  0.44479061536E+03 -0.20302179951E+04  0.20880955674E+04  0.91105542844E+02 0.  0.
         23    2    4    4    0    0  0.20005551900E+03 -0.32243141989E+01 -0.54727318179E+02  0.22805961991E+03  0.94781348348E+02 0.  0.
          1    1    3    3  502    0  0.16246642850E+02 -0.24474703654E+02  0.68073955507E+01  0.30154687149E+02  0.00000000000E+00 0. -1.
         -2    1    3    3    0  502 -0.36805421764E+02 -0.41709159751E+03 -0.30202204643E+02  0.41980020599E+03  0.00000000000E+00 0.  1.
         11    1    5    5    0    0 -0.11832812304E+03  0.36276502449E+03 -0.17042892775E+04  0.17464827366E+04  0.00000000000E+00 0. -1.
        -11    1    5    5    0    0 -0.61168617041E+02  0.82025590868E+02 -0.32592871756E+03  0.34161283084E+03  0.00000000000E+00 0.  1.
          4    1    6    6  503    0  0.16268004072E+03 -0.33947677576E+02 -0.65269103237E+02  0.17854214152E+03  0.00000000000E+00 0. -1.
         -4    1    6    6    0  503  0.37375478274E+02  0.30723363377E+02  0.10541785058E+02  0.49517478386E+02  0.00000000000E+00 0.  1.
<mgrwt>
<rscale>  0 0.17906052E+04</rscale>
<asrwt>0</asrwt>
<pdfrwt beam="1">  1        1 0.37495771E+00 0.17906052E+04</pdfrwt>
<pdfrwt beam="2">  1       -2 0.50597689E-01 0.17906052E+04</pdfrwt>
<totfact> 0.45913191E+00</totfact>
</mgrwt>
</event>
<event>
12    4  0.5729029E-008  0.1547856E+04  0.7818608E-02  0.8853238E-01
          1   -1    0    0  501    0  0.00000000000E+00  0.00000000000E+00  0.11666027780E+04  0.11666027780E+04  0.00000000000E+00 0. -1.
         -2   -1    0    0    0  501 -0.00000000000E+00 -0.00000000000E+00 -0.51342648137E+03  0.51342648137E+03  0.00000000000E+00 0.  1.
        -24    2    1    2    0    0  0.45744279118E+02  0.12915003601E+03  0.74675990145E+03  0.76369850216E+03  0.82539571790E+02 0.  0.
        254    2    1    2    0    0 -0.45744279118E+02 -0.12915003601E+03 -0.93583604777E+02  0.91633075725E+03  0.90118360766E+03 0.  0.
         23    2    4    4    0    0 -0.34535945920E+03 -0.22798971233E+01 -0.34492170105E+03  0.49576222594E+03  0.86780474891E+02 0.  0.
         23    2    4    4    0    0  0.29961518008E+03 -0.12687013889E+03  0.25133809627E+03  0.42056853131E+03  0.88553727270E+02 0.  0.
          3    1    3    3  502    0  0.47768991558E+02  0.13955920630E+03  0.71915075231E+03  0.73412291420E+03  0.00000000000E+00 0. -1.
         -4    1    3    3    0  502 -0.20247124404E+01 -0.10409170282E+02  0.27609149148E+02  0.29575587959E+02  0.00000000000E+00 0.  1.
         11    1    5    5    0    0 -0.11060175728E+03  0.35503175619E+02 -0.88275322482E+02  0.14589639047E+03  0.00000000000E+00 0. -1.
        -11    1    5    5    0    0 -0.23475770192E+03 -0.37783072743E+02 -0.25664637857E+03  0.34986583547E+03  0.00000000000E+00 0.  1.
          3    1    6    6  503    0  0.89158051263E+02 -0.79550693961E+02  0.68075840156E+02  0.13752014772E+03  0.00000000000E+00 0. -1.
         -3    1    6    6    0  503  0.21045712882E+03 -0.47319444930E+02  0.18326225612E+03  0.28304838359E+03  0.00000000000E+00 0.  1.
<mgrwt>
<rscale>  0 0.15478563E+04</rscale>
<asrwt>0</asrwt>
<pdfrwt beam="1">  1        1 0.17947735E+00 0.15478563E+04</pdfrwt>
<pdfrwt beam="2">  1       -2 0.78988689E-01 0.15478563E+04</pdfrwt>
<totfact> 0.13592670E+01</totfact>
</mgrwt>
</event>
<event>
12    4  0.4413110E-008  0.1377650E+04  0.7818608E-02  0.8970158E-01
          3   -1    0    0  501    0  0.00000000000E+00  0.00000000000E+00  0.35490698147E+03  0.35490698147E+03  0.00000000000E+00 0. -1.
         -4   -1    0    0    0  501 -0.00000000000E+00 -0.00000000000E+00 -0.13369124654E+04  0.13369124654E+04  0.00000000000E+00 0.  1.
        -24    2    1    2    0    0 -0.36422151079E+03 -0.13943634725E+03 -0.27194063057E+03  0.48225446541E+03  0.80733258280E+02 0.  0.
        254    2    1    2    0    0  0.36422151079E+03  0.13943634725E+03 -0.71006485339E+03  0.12095649815E+04  0.89819571619E+03 0.  0.
         23    2    4    4    0    0  0.47696454826E+03  0.42951273066E+03 -0.40802499673E+03  0.76610279844E+03  0.91938749857E+02 0.  0.
         23    2    4    4    0    0 -0.11274303747E+03 -0.29007638340E+03 -0.30203985666E+03  0.44346218306E+03  0.92603088966E+02 0.  0.
          3    1    3    3  502    0 -0.21101201372E+03 -0.76195121198E+02 -0.10749794798E+03  0.24877213519E+03  0.00000000000E+00 0. -1.
         -4    1    3    3    0  502 -0.15320949707E+03 -0.63241226055E+02 -0.16444268259E+03  0.23348233022E+03  0.00000000000E+00 0.  1.
         11    1    5    5    0    0  0.47644512649E+03  0.40957673780E+03 -0.39235112996E+03  0.74073778888E+03  0.00000000000E+00 0.  1.
        -11    1    5    5    0    0  0.51942177400E+00  0.19935992858E+02 -0.15673866773E+02  0.25365009557E+02  0.00000000000E+00 0. -1.
          4    1    6    6  503    0 -0.19316440750E+02 -0.15712144705E+03 -0.11483885563E+03  0.19557156431E+03  0.00000000000E+00 0. -1.
         -4    1    6    6    0  503 -0.93426596718E+02 -0.13295493636E+03 -0.18720100103E+03  0.24789061875E+03  0.00000000000E+00 0.  1.
<mgrwt>
<rscale>  0 0.13776495E+04</rscale>
<asrwt>0</asrwt>
<pdfrwt beam="1">  1        3 0.54601074E-01 0.13776495E+04</pdfrwt>
<pdfrwt beam="2">  1       -4 0.20567884E+00 0.13776495E+04</pdfrwt>
<totfact> 0.89115622E-01</totfact>
</mgrwt>
</event>
<event>
12    4  0.4413110E-008  0.2084992E+04  0.7818608E-02  0.8567884E-01
         -2   -1    0    0    0  501 -0.00000000000E+00  0.00000000000E+00  0.54332938241E+03  0.54332938241E+03  0.00000000000E+00 0.  1.
          1   -1    0    0  501    0  0.00000000000E+00 -0.00000000000E+00 -0.20002559815E+04  0.20002559815E+04  0.00000000000E+00 0. -1.
        -24    2    1    2    0    0  0.67173538206E+02 -0.83945638754E+03 -0.70282345971E+03  0.10991497550E+04  0.70498635936E+02 0.  0.
        254    2    1    2    0    0 -0.67173538206E+02  0.83945638754E+03 -0.75410313937E+03  0.14444356089E+04  0.89917927718E+03 0.  0.
         23    2    4    4    0    0 -0.28526795450E+03  0.43704865236E+03  0.31742669169E+02  0.53040444264E+03  0.89061469415E+02 0.  0.
         23    2    4    4    0    0  0.21809441630E+03  0.40240773518E+03 -0.78584580854E+03  0.91403116621E+03  0.91663396468E+02 0.  0.
          3    1    3    3  502    0  0.54426081141E+01 -0.62136575528E+02 -0.29913027612E+02  0.69176334265E+02  0.00000000000E+00 0. -1.
         -4    1    3    3    0  502  0.61730930092E+02 -0.77731981201E+03 -0.67291043210E+03  0.10299734208E+04  0.00000000000E+00 0.  1.
         11    1    5    5    0    0 -0.28739677446E+03  0.43632839131E+03  0.37902669086E+02  0.52384729011E+03  0.00000000000E+00 0.  1.
        -11    1    5    5    0    0  0.21288199515E+01  0.72026104704E+00 -0.61599999171E+01  0.65571525330E+01  0.00000000000E+00 0. -1.
          3    1    6    6  503    0  0.12953217186E+02  0.44823479386E+02 -0.14241588817E+03  0.14986398948E+03  0.00000000000E+00 0. -1.
         -3    1    6    6    0  503  0.20514119911E+03  0.35758425579E+03 -0.64342992037E+03  0.76416717673E+03  0.00000000000E+00 0.  1.
<mgrwt>
<rscale>  0 0.20849919E+04</rscale>
<asrwt>0</asrwt>
<pdfrwt beam="1">  1        1 0.30773169E+00 0.20849919E+04</pdfrwt>
<pdfrwt beam="2">  1       -2 0.83589135E-01 0.20849919E+04</pdfrwt>
<totfact> 0.30155385E+00</totfact>
</mgrwt>
</event>
<event>
12    4  0.4413110E-008  0.1530122E+04  0.7818608E-02  0.8864665E-01
         -2   -1    0    0    0  501 -0.00000000000E+00  0.00000000000E+00  0.26781330370E+03  0.26781330370E+03  0.00000000000E+00 0.  1.
          1   -1    0    0  501    0  0.00000000000E+00 -0.00000000000E+00 -0.21855473698E+04  0.21855473698E+04  0.00000000000E+00 0. -1.
        -24    2    1    2    0    0  0.17489113469E+03  0.25413921557E+03 -0.59157386595E+01  0.31868456432E+03  0.79694452024E+02 0.  0.
        254    2    1    2    0    0 -0.17489113469E+03 -0.25413921557E+03 -0.19118183275E+04  0.21346761092E+04  0.89811977158E+03 0.  0.
         23    2    4    4    0    0 -0.32198057038E+03 -0.34558938169E+03 -0.44643385691E+03  0.65625858993E+03  0.90932061578E+02 0.  0.
         23    2    4    4    0    0  0.14708943569E+03  0.91450166116E+02 -0.14653844706E+04  0.14784175193E+04  0.91478302210E+02 0.  0.
          3    1    3    3  502    0  0.55059882365E+02  0.76423810578E+02  0.34977573648E+02  0.10047696317E+03  0.00000000000E+00 0. -1.
         -4    1    3    3    0  502  0.11983125233E+03  0.17771540500E+03 -0.40893312308E+02  0.21820760115E+03  0.00000000000E+00 0.  1.
         11    1    5    5    0    0 -0.29610359274E+03 -0.27616454024E+03 -0.35427492453E+03  0.53801014216E+03  0.00000000000E+00 0.  1.
        -11    1    5    5    0    0 -0.25876977641E+02 -0.69424841452E+02 -0.92158932375E+02  0.11824844777E+03  0.00000000000E+00 0. -1.
          3    1    6    6  503    0 -0.49435938719E+01 -0.10943413977E+02 -0.66549135667E+02  0.67623848514E+02  0.00000000000E+00 0. -1.
         -3    1    6    6    0  503  0.15203302957E+03  0.10239358009E+03 -0.13988353349E+04  0.14107936708E+04  0.00000000000E+00 0.  1.
<mgrwt>
<rscale>  0 0.15301224E+04</rscale>
<asrwt>0</asrwt>
<pdfrwt beam="1">  1        1 0.33623806E+00 0.15301224E+04</pdfrwt>
<pdfrwt beam="2">  1       -2 0.41202047E-01 0.15301224E+04</pdfrwt>
<totfact> 0.10547115E+01</totfact>
</mgrwt>
</event>
<event>
12    4  0.4413110E-008  0.1261293E+04  0.7818608E-02  0.9060836E-01
          1   -1    0    0  501    0  0.00000000000E+00  0.00000000000E+00  0.19954408496E+04  0.19954408496E+04  0.00000000000E+00 0. -1.
         -2   -1    0    0    0  501 -0.00000000000E+00 -0.00000000000E+00 -0.19931175831E+03  0.19931175831E+03  0.00000000000E+00 0.  1.
        -24    2    1    2    0    0 -0.82393768509E+02 -0.23237802862E+03  0.14118776075E+03  0.29503121331E+03  0.79505671289E+02 0.  0.
        254    2    1    2    0    0  0.82393768509E+02  0.23237802862E+03  0.16549413305E+04  0.18997213946E+04  0.89962341472E+03 0.  0.
         23    2    4    4    0    0  0.39964837661E+02  0.46701264915E+03  0.41281810299E+03  0.63165709348E+03  0.94201352825E+02 0.  0.
         23    2    4    4    0    0  0.42428930848E+02 -0.23463462053E+03  0.12421232275E+04  0.12680643011E+04  0.90902915463E+02 0.  0.
          3    1    3    3  502    0  0.49078752612E+01 -0.70828317025E+01  0.25941256861E+02  0.27335005982E+02  0.00000000000E+00 0. -1.
         -4    1    3    3    0  502 -0.87301643770E+02 -0.22529519692E+03  0.11524650389E+03  0.26769620733E+03  0.00000000000E+00 0.  1.
         11    1    5    5    0    0  0.10086893639E+02  0.13068015779E+03  0.17506628040E+03  0.21869442516E+03  0.00000000000E+00 0. -1.
        -11    1    5    5    0    0  0.29877944022E+02  0.33633249135E+03  0.23775182259E+03  0.41296266832E+03  0.00000000000E+00 0.  1.
          4    1    6    6  503    0  0.64679192438E+01 -0.15546812739E+03  0.59017013765E+03  0.61033840121E+03  0.00000000000E+00 0. -1.
         -4    1    6    6    0  503  0.35961011605E+02 -0.79166493140E+02  0.65195308988E+03  0.65772589990E+03  0.00000000000E+00 0.  1.
<mgrwt>
<rscale>  0 0.12612927E+04</rscale>
<asrwt>0</asrwt>
<pdfrwt beam="1">  1        1 0.30699089E+00 0.12612927E+04</pdfrwt>
<pdfrwt beam="2">  1       -2 0.30663349E-01 0.12612927E+04</pdfrwt>
<totfact> 0.25590966E+01</totfact>
</mgrwt>
</event>
<event>
12    4  0.4413110E-008  0.2299812E+04  0.7818608E-02  0.8477995E-01
         -4   -1    0    0    0  501 -0.00000000000E+00  0.00000000000E+00  0.27372656077E+03  0.27372656077E+03  0.00000000000E+00 0.  1.
          1   -1    0    0  501    0  0.00000000000E+00 -0.00000000000E+00 -0.48306725742E+04  0.48306725742E+04  0.00000000000E+00 0. -1.
        -24    2    1    2    0    0  0.59618637421E+03  0.61654255204E+03 -0.29474183121E+04  0.30706203897E+04  0.76628714143E+02 0.  0.
        254    2    1    2    0    0 -0.59618637421E+03 -0.61654255204E+03 -0.16095277014E+04  0.20337787453E+04  0.90006313787E+03 0.  0.
         23    2    4    4    0    0  0.11748040278E+03 -0.31587824687E+02  0.25498360288E+02  0.15414741885E+03  0.91169208920E+02 0.  0.
         23    2    4    4    0    0 -0.71366677699E+03 -0.58495472735E+03 -0.16350260617E+04  0.18796313265E+04  0.90616772666E+02 0.  0.
          1    1    3    3  502    0  0.58964002962E+03  0.59237798666E+03 -0.28494448058E+04  0.29694987363E+04  0.00000000000E+00 0. -1.
         -2    1    3    3    0  502  0.65463445852E+01  0.24164565375E+02 -0.97973506305E+02  0.10112165339E+03  0.00000000000E+00 0.  1.
         11    1    5    5    0    0  0.98320666737E+02  0.13439727847E+02  0.58630367471E+00  0.99236704621E+02  0.00000000000E+00 0.  1.
        -11    1    5    5    0    0  0.19159736044E+02 -0.45027552534E+02  0.24912056613E+02  0.54910714229E+02  0.00000000000E+00 0. -1.
          2    1    6    6  503    0 -0.68717473208E+03 -0.58204044358E+03 -0.15891329113E+04  0.18265605930E+04  0.00000000000E+00 0. -1.
         -2    1    6    6    0  503 -0.26492044907E+02 -0.29142837742E+01 -0.45893150425E+02  0.53070733453E+02  0.00000000000E+00 0.  1.
<mgrwt>
<rscale>  0 0.22998116E+04</rscale>
<asrwt>0</asrwt>
<pdfrwt beam="1">  1        1 0.74318041E+00 0.22998116E+04</pdfrwt>
<pdfrwt beam="2">  1       -4 0.42111778E-01 0.22998116E+04</pdfrwt>
<totfact> 0.35205188E-02</totfact>
</mgrwt>
</event>
<event>
12    4  0.4413110E-008  0.2850890E+04  0.7818608E-02  0.8287641E-01
         -2   -1    0    0    0  501 -0.00000000000E+00  0.00000000000E+00  0.45098870209E+03  0.45098870209E+03  0.00000000000E+00 0.  1.
          1   -1    0    0  501    0  0.00000000000E+00 -0.00000000000E+00 -0.45054196059E+04  0.45054196059E+04  0.00000000000E+00 0. -1.
        -24    2    1    2    0    0  0.63679476343E+03 -0.45728139752E+03 -0.35895657785E+04  0.36751201590E+04  0.83137581469E+02 0.  0.
        254    2    1    2    0    0 -0.63679476343E+03  0.45728139752E+03 -0.46486512526E+03  0.12812881490E+04  0.90054754941E+03 0.  0.
         23    2    4    4    0    0  0.11186369261E+02  0.52785518636E+03 -0.20865468146E+03  0.57485403238E+03  0.90355685014E+02 0.  0.
         23    2    4    4    0    0 -0.64798113269E+03 -0.70573788841E+02 -0.25621044380E+03  0.70643411660E+03  0.92440043173E+02 0.  0.
          3    1    3    3  502    0  0.35234448008E+03 -0.30309708609E+03 -0.21356262823E+04  0.21856152667E+04  0.00000000000E+00 0. -1.
         -4    1    3    3    0  502  0.28445028335E+03 -0.15418431144E+03 -0.14539394962E+04  0.14895048923E+04  0.00000000000E+00 0.  1.
         11    1    5    5    0    0  0.25255068753E+02  0.49914899273E+03 -0.17793214959E+03  0.53051614989E+03  0.00000000000E+00 0. -1.
        -11    1    5    5    0    0 -0.14068699492E+02  0.28706193636E+02 -0.30722531874E+02  0.44337882485E+02  0.00000000000E+00 0.  1.
          3    1    6    6  503    0 -0.30312347709E+03  0.13054167435E+02 -0.12352128636E+03  0.32758473993E+03  0.00000000000E+00 0. -1.
         -3    1    6    6    0  503 -0.34485765560E+03 -0.83627956275E+02 -0.13268915744E+03  0.37884937666E+03  0.00000000000E+00 0.  1.
<mgrwt>
<rscale>  0 0.28508899E+04</rscale>
<asrwt>0</asrwt>
<pdfrwt beam="1">  1        1 0.69314151E+00 0.28508899E+04</pdfrwt>
<pdfrwt beam="2">  1       -2 0.69382874E-01 0.28508899E+04</pdfrwt>
<totfact> 0.45756847E-02</totfact>
</mgrwt>
</event>
<event>
12    4  0.6028440E-008  0.1889932E+04  0.7818608E-02  0.8659884E-01
         -2   -1    0    0    0  501 -0.00000000000E+00  0.00000000000E+00  0.10135188501E+04  0.10135188501E+04  0.00000000000E+00 0.  1.
          1   -1    0    0  501    0  0.00000000000E+00 -0.00000000000E+00 -0.88104977739E+03  0.88104977739E+03  0.00000000000E+00 0. -1.
        -24    2    1    2    0    0 -0.36558636046E+03 -0.24571177778E+03  0.56028827380E+03  0.71722330388E+03  0.80365746326E+02 0.  0.
        254    2    1    2    0    0  0.36558636046E+03  0.24571177778E+03 -0.42781920105E+03  0.11773453236E+04  0.10045322681E+04 0.  0.
         23    2    4    4    0    0  0.22853702957E+03  0.29673240603E+03 -0.73242548176E+03  0.82741954846E+03  0.88863536794E+02 0.  0.
         23    2    4    4    0    0  0.13704933089E+03 -0.51020628251E+02  0.30460628071E+03  0.34992577519E+03  0.90980428056E+02 0.  0.
          1    1    3    3  502    0 -0.37895101401E+02 -0.38649635305E+02  0.11332310395E+03  0.12558645989E+03  0.00000000000E+00 0. -1.
         -2    1    3    3    0  502 -0.32769125906E+03 -0.20706214247E+03  0.44696516985E+03  0.59163684399E+03  0.00000000000E+00 0.  1.
         11    1    5    5    0    0  0.17920835300E+03  0.22310941942E+03 -0.63018204193E+03  0.69211476852E+03  0.00000000000E+00 0. -1.
        -11    1    5    5    0    0  0.49328676566E+02  0.73622986607E+02 -0.10224343983E+03  0.13530477995E+03  0.00000000000E+00 0.  1.
          4    1    6    6  503    0  0.13632171398E+03 -0.37920739475E+02  0.30559971588E+03  0.33676813764E+03  0.00000000000E+00 0. -1.
         -4    1    6    6    0  503  0.72761691077E+00 -0.13099888777E+02 -0.99343517288E+00  0.13157637545E+02  0.00000000000E+00 0.  1.
<mgrwt>
<rscale>  0 0.18899318E+04</rscale>
<asrwt>0</asrwt>
<pdfrwt beam="1">  1        1 0.13554612E+00 0.18899318E+04</pdfrwt>
<pdfrwt beam="2">  1       -2 0.15592598E+00 0.18899318E+04</pdfrwt>
<totfact> 0.41806968E+00</totfact>
</mgrwt>
</event>
<event>
12    4  0.4413110E-008  0.1236833E+04  0.7818608E-02  0.9081214E-01
         -2   -1    0    0    0  501 -0.00000000000E+00  0.00000000000E+00  0.22233906951E+04  0.22233906951E+04  0.00000000000E+00 0.  1.
          1   -1    0    0  501    0  0.00000000000E+00 -0.00000000000E+00 -0.17200702881E+03  0.17200702881E+03  0.00000000000E+00 0. -1.
        -24    2    1    2    0    0 -0.10800084882E+03 -0.12023982884E+03  0.38786725894E+02  0.18416395488E+03  0.79310480938E+02 0.  0.
        254    2    1    2    0    0  0.10800084882E+03  0.12023982884E+03  0.20125969404E+04  0.22112337691E+04  0.90160220555E+03 0.  0.
         23    2    4    4    0    0 -0.31372429482E+02  0.41797986995E+02 -0.65720438441E+02  0.12520483079E+03  0.92875037419E+02 0.  0.
         23    2    4    4    0    0  0.13937327830E+03  0.78441841849E+02  0.20783173789E+04  0.20860289383E+04  0.80842877040E+02 0.  0.
          1    1    3    3  502    0 -0.10727429512E+03 -0.85982217392E+02  0.73719255869E+01  0.13767738154E+03  0.00000000000E+00 0. -1.
         -2    1    3    3    0  502 -0.72655369731E+00 -0.34257611452E+02  0.31414800307E+02  0.46486573341E+02  0.00000000000E+00 0.  1.
         11    1    5    5    0    0  0.13745806362E+02  0.15450680885E+02 -0.69798902711E+02  0.72798060084E+02  0.00000000000E+00 0.  1.
        -11    1    5    5    0    0 -0.45118235844E+02  0.26347306110E+02  0.40784642694E+01  0.52406770705E+02  0.00000000000E+00 0. -1.
          3    1    6    6  503    0  0.70416339476E+02 -0.49565035313E+01  0.75356165557E+03  0.75686075109E+03  0.00000000000E+00 0. -1.
         -3    1    6    6    0  503  0.68956938822E+02  0.83398345380E+02  0.13247557233E+04  0.13291681872E+04  0.00000000000E+00 0.  1.
<mgrwt>
<rscale>  0 0.12368328E+04</rscale>
<asrwt>0</asrwt>
<pdfrwt beam="1">  1        1 0.26462621E-01 0.12368328E+04</pdfrwt>
<pdfrwt beam="2">  1       -2 0.34206009E+00 0.12368328E+04</pdfrwt>
<totfact> 0.27546893E+00</totfact>
</mgrwt>
</event>
<event>
12    4  0.4413110E-008  0.2326339E+04  0.7818608E-02  0.8467608E-01
          1   -1    0    0  501    0  0.00000000000E+00  0.00000000000E+00  0.82114693775E+03  0.82114693775E+03  0.00000000000E+00 0. -1.
         -2   -1    0    0    0  501 -0.00000000000E+00 -0.00000000000E+00 -0.16476502557E+04  0.16476502557E+04  0.00000000000E+00 0.  1.
        -24    2    1    2    0    0  0.48903434917E+03 -0.20834394174E+03 -0.12350071941E+04  0.13469296956E+04  0.80093961472E+02 0.  0.
        254    2    1    2    0    0 -0.48903434917E+03  0.20834394174E+03  0.40850387612E+03  0.11218674979E+04  0.89952736106E+03 0.  0.
         23    2    4    4    0    0 -0.55490851182E+03 -0.18703845897E+03  0.84964509197E+02  0.59875494388E+03  0.91551479355E+02 0.  0.
         23    2    4    4    0    0  0.65874162651E+02  0.39538240071E+03  0.32353936693E+03  0.52311255402E+03  0.91117364553E+02 0.  0.
          1    1    3    3  502    0  0.11623899372E+03 -0.25364965502E+02 -0.21696057524E+03  0.24744045010E+03  0.00000000000E+00 0. -1.
         -2    1    3    3    0  502  0.37279535545E+03 -0.18297897624E+03 -0.10180466189E+04  0.10994892455E+04  0.00000000000E+00 0.  1.
         11    1    5    5    0    0 -0.69506242000E+02 -0.11035980713E+02  0.38814485014E+02  0.80370857866E+02  0.00000000000E+00 0. -1.
        -11    1    5    5    0    0 -0.48540226982E+03 -0.17600247825E+03  0.46150024183E+02  0.51838408601E+03  0.00000000000E+00 0.  1.
          3    1    6    6  503    0  0.14238241338E+02  0.50708985804E+02  0.85841401874E+01  0.53364934371E+02  0.00000000000E+00 0. -1.
         -3    1    6    6    0  503  0.51635921314E+02  0.34467341490E+03  0.31495522674E+03  0.46974761964E+03  0.00000000000E+00 0.  1.
<mgrwt>
<rscale>  0 0.23263387E+04</rscale>
<asrwt>0</asrwt>
<pdfrwt beam="1">  1        1 0.12633030E+00 0.23263387E+04</pdfrwt>
<pdfrwt beam="2">  1       -2 0.25348465E+00 0.23263387E+04</pdfrwt>
<totfact> 0.10248095E+00</totfact>
</mgrwt>
</event>
<event>
12    4  0.4413110E-008  0.3458590E+04  0.7818608E-02  0.8123674E-01
          1   -1    0    0  501    0  0.00000000000E+00  0.00000000000E+00  0.21690460278E+04  0.21690460278E+04  0.00000000000E+00 0. -1.
         -2   -1    0    0    0  501 -0.00000000000E+00 -0.00000000000E+00 -0.13786987835E+04  0.13786987835E+04  0.00000000000E+00 0.  1.
        -24    2    1    2    0    0  0.35977782212E+03  0.15738575656E+04  0.49191298276E+03  0.16896526301E+04  0.80497885878E+02 0.  0.
        254    2    1    2    0    0 -0.35977782212E+03 -0.15738575656E+04  0.29843426151E+03  0.18580921811E+04  0.87004357761E+03 0.  0.
         23    2    4    4    0    0  0.23767535187E+03 -0.79753377679E+03  0.27350822912E+02  0.83758563878E+03  0.90840171622E+02 0.  0.
         23    2    4    4    0    0 -0.59745317399E+03 -0.77632378884E+03  0.27108343860E+03  0.10205065423E+04  0.91205548327E+02 0.  0.
          1    1    3    3  502    0  0.31067506189E+02  0.90703171832E+02  0.46499940981E+02  0.10655749543E+03  0.00000000000E+00 0. -1.
         -2    1    3    3    0  502  0.32871031593E+03  0.14831543938E+04  0.44541304178E+03  0.15830951347E+04  0.00000000000E+00 0.  1.
         11    1    5    5    0    0  0.19945622625E+02 -0.18033110465E+03  0.24660710477E+02  0.18309911471E+03  0.00000000000E+00 0.  1.
        -11    1    5    5    0    0  0.21772972924E+03 -0.61720267214E+03  0.26901124353E+01  0.65448652408E+03  0.00000000000E+00 0. -1.
          4    1    6    6  503    0 -0.52030980890E+03 -0.70678336894E+03  0.22019118832E+03  0.90484760444E+03  0.00000000000E+00 0. -1.
         -4    1    6    6    0  503 -0.77143365095E+02 -0.69540419902E+02  0.50892250283E+02  0.11565893790E+03  0.00000000000E+00 0.  1.
<mgrwt>
<rscale>  0 0.34585900E+04</rscale>
<asrwt>0</asrwt>
<pdfrwt beam="1">  1        1 0.33369939E+00 0.34585900E+04</pdfrwt>
<pdfrwt beam="2">  1       -2 0.21210750E+00 0.34585900E+04</pdfrwt>
<totfact> 0.18276707E-01</totfact>
</mgrwt>
</event>
<event>
12    4  0.4413110E-008  0.2832360E+04  0.7818608E-02  0.8293292E-01
          1   -1    0    0  501    0  0.00000000000E+00  0.00000000000E+00  0.83578676486E+03  0.83578676486E+03  0.00000000000E+00 0. -1.
         -2   -1    0    0    0  501 -0.00000000000E+00 -0.00000000000E+00 -0.23996139865E+04  0.23996139865E+04  0.00000000000E+00 0.  1.
        -24    2    1    2    0    0 -0.63442774973E+03 -0.14728371307E+03  0.53910141854E+03  0.84888062620E+03  0.76006028120E+02 0.  0.
        254    2    1    2    0    0  0.63442774973E+03  0.14728371307E+03 -0.21029286402E+04  0.23865201252E+04  0.92140022810E+03 0.  0.
         23    2    4    4    0    0  0.27910515200E+03  0.52034416450E+03 -0.97940961249E+03  0.11474255806E+04  0.93190871994E+02 0.  0.
         23    2    4    4    0    0  0.35532259772E+03 -0.37306045143E+03 -0.11235190277E+04  0.12390945445E+04  0.87361523811E+02 0.  0.
          1    1    3    3  502    0 -0.97936117433E+02 -0.27295666971E+02  0.12201689145E+03  0.15882272612E+03  0.00000000000E+00 0. -1.
         -4    1    3    3    0  502 -0.53649163229E+03 -0.11998804610E+03  0.41708452709E+03  0.69005790008E+03  0.00000000000E+00 0.  1.
         11    1    5    5    0    0  0.28165767505E+03  0.50872536457E+03 -0.97395854535E+03  0.11343402446E+04  0.00000000000E+00 0.  1.
        -11    1    5    5    0    0 -0.25525230407E+01  0.11618799933E+02 -0.54510671395E+01  0.13085336018E+02  0.00000000000E+00 0. -1.
          4    1    6    6  503    0  0.11477182192E+03 -0.12243048764E+03 -0.46864217286E+03  0.49778236368E+03  0.00000000000E+00 0. -1.
         -4    1    6    6    0  503  0.24055077580E+03 -0.25062996379E+03 -0.65487685484E+03  0.74131218086E+03  0.00000000000E+00 0.  1.
<mgrwt>
<rscale>  0 0.28323599E+04</rscale>
<asrwt>0</asrwt>
<pdfrwt beam="1">  1        1 0.12858258E+00 0.28323599E+04</pdfrwt>
<pdfrwt beam="2">  1       -2 0.36917138E+00 0.28323599E+04</pdfrwt>
<totfact> 0.18322830E-01</totfact>
</mgrwt>
</event>
<event>
12    4  0.4413110E-008  0.1715024E+04  0.7818608E-02  0.8752842E-01
          1   -1    0    0  501    0  0.00000000000E+00  0.00000000000E+00  0.15490699751E+04  0.15490699751E+04  0.00000000000E+00 0. -1.
         -2   -1    0    0    0  501 -0.00000000000E+00 -0.00000000000E+00 -0.47468911414E+03  0.47468911414E+03  0.00000000000E+00 0.  1.
        -24    2    1    2    0    0 -0.50407848615E+03  0.35004879497E+03  0.36000684469E+03  0.71761419310E+03  0.93466158839E+02 0.  0.
        254    2    1    2    0    0  0.50407848615E+03 -0.35004879497E+03  0.71437401631E+03  0.13061448962E+04  0.90501656095E+03 0.  0.
         23    2    4    4    0    0  0.41593379209E+03  0.23917797498E+03  0.35999938973E+03  0.60693756654E+03  0.92556069214E+02 0.  0.
         23    2    4    4    0    0  0.88144694060E+02 -0.58922676995E+03  0.35437462658E+03  0.69920732965E+03  0.91388403849E+02 0.  0.
          1    1    3    3  502    0 -0.20224808122E+02  0.34857702689E+02  0.72904974058E+01  0.40954287355E+02  0.00000000000E+00 0. -1.
         -2    1    3    3    0  502 -0.48385367803E+03  0.31519109228E+03  0.35271634729E+03  0.67665990574E+03  0.00000000000E+00 0.  1.
         11    1    5    5    0    0  0.39863785995E+03  0.24066743897E+03  0.36151239983E+03  0.58951181056E+03  0.00000000000E+00 0. -1.
        -11    1    5    5    0    0  0.17295932144E+02 -0.14894639914E+01 -0.15130100966E+01  0.17425755974E+02  0.00000000000E+00 0.  1.
          3    1    6    6  503    0 -0.12370977293E+02 -0.20753468378E+03  0.12953432657E+03  0.24495474645E+03  0.00000000000E+00 0. -1.
         -3    1    6    6    0  503  0.10051567135E+03 -0.38169208617E+03  0.22484030001E+03  0.45425258320E+03  0.00000000000E+00 0.  1.
<mgrwt>
<rscale>  0 0.17150238E+04</rscale>
<asrwt>0</asrwt>
<pdfrwt beam="1">  1        1 0.23831845E+00 0.17150238E+04</pdfrwt>
<pdfrwt beam="2">  1       -2 0.73029095E-01 0.17150238E+04</pdfrwt>
<totfact> 0.85461395E+00</totfact>
</mgrwt>
</event>
<event>
12    4  0.4413110E-008  0.1792638E+04  0.7818608E-02  0.8710224E-01
         -2   -1    0    0    0  501 -0.00000000000E+00  0.00000000000E+00  0.88328555094E+03  0.88328555094E+03  0.00000000000E+00 0.  1.
          1   -1    0    0  501    0  0.00000000000E+00 -0.00000000000E+00 -0.90954491866E+03  0.90954491866E+03  0.00000000000E+00 0. -1.
        -24    2    1    2    0    0 -0.26977159807E+03 -0.36584286640E+03 -0.49547206092E+03  0.67694760906E+03  0.78407807251E+02 0.  0.
        254    2    1    2    0    0  0.26977159807E+03  0.36584286640E+03  0.46921269320E+03  0.11158828605E+04  0.90466363306E+03 0.  0.
         23    2    4    4    0    0  0.56237424899E+03  0.27826687731E+03  0.12344489536E+03  0.64574012544E+03  0.89690671088E+02 0.  0.
         23    2    4    4    0    0 -0.29260265092E+03  0.87575989089E+02  0.34576779784E+03  0.47014273510E+03  0.90514949890E+02 0.  0.
          3    1    3    3  502    0 -0.25494637090E+03 -0.30451952006E+03 -0.41121969872E+03  0.57169172703E+03  0.00000000000E+00 0. -1.
         -4    1    3    3    0  502 -0.14825227171E+02 -0.61323346336E+02 -0.84252362191E+02  0.10525588203E+03  0.00000000000E+00 0.  1.
         11    1    5    5    0    0  0.19886695444E+03  0.71251237273E+02  0.63589684786E+01  0.21134152659E+03  0.00000000000E+00 0.  1.
        -11    1    5    5    0    0  0.36350729455E+03  0.20701564004E+03  0.11708592688E+03  0.43439859885E+03  0.00000000000E+00 0. -1.
          4    1    6    6  503    0 -0.24653109305E+03  0.51667060022E+02  0.23291697830E+03  0.34307052295E+03  0.00000000000E+00 0. -1.
         -4    1    6    6    0  503 -0.46071557866E+02  0.35908929067E+02  0.11285081954E+03  0.12707221215E+03  0.00000000000E+00 0.  1.
<mgrwt>
<rscale>  0 0.17926382E+04</rscale>
<asrwt>0</asrwt>
<pdfrwt beam="1">  1        1 0.13992999E+00 0.17926382E+04</pdfrwt>
<pdfrwt beam="2">  1       -2 0.13589008E+00 0.17926382E+04</pdfrwt>
<totfact> 0.57359621E+00</totfact>
</mgrwt>
</event>
<event>
12    4  0.4413110E-008  0.1615690E+04  0.7818608E-02  0.8810967E-01
         -2   -1    0    0    0  501 -0.00000000000E+00  0.00000000000E+00  0.93560045110E+03  0.93560045110E+03  0.00000000000E+00 0.  1.
          1   -1    0    0  501    0  0.00000000000E+00 -0.00000000000E+00 -0.69753433703E+03  0.69753433703E+03  0.00000000000E+00 0. -1.
        -24    2    1    2    0    0 -0.42027566156E+03 -0.32904198165E+03  0.23239257203E+03  0.58746382704E+03  0.78785678641E+02 0.  0.
        254    2    1    2    0    0  0.42027566156E+03  0.32904198165E+03  0.56735420396E+01  0.10456709611E+04  0.89916367386E+03 0.  0.
         23    2    4    4    0    0  0.43525734934E+03 -0.18756145630E+03  0.14269608047E+03  0.50328068372E+03  0.91109907154E+02 0.  0.
         23    2    4    4    0    0 -0.14981687779E+02  0.51660343795E+03 -0.13702253843E+03  0.54239027737E+03  0.91150830336E+02 0.  0.
          3    1    3    3  502    0 -0.13105131725E+03 -0.95623012475E+02  0.32493309727E+02  0.16545096991E+03  0.00000000000E+00 0. -1.
         -4    1    3    3    0  502 -0.28922434430E+03 -0.23341896917E+03  0.19989926231E+03  0.42201285713E+03  0.00000000000E+00 0.  1.
         11    1    5    5    0    0  0.78186211875E+02 -0.24133528261E+02 -0.89698350853E+01  0.82316273332E+02  0.00000000000E+00 0.  1.
        -11    1    5    5    0    0  0.35707113746E+03 -0.16342792804E+03  0.15166591556E+03  0.42096441039E+03  0.00000000000E+00 0. -1.
          4    1    6    6  503    0  0.28747376037E+02  0.32964869796E+03 -0.64365106748E+02  0.33710168000E+03  0.00000000000E+00 0. -1.
         -4    1    6    6    0  503 -0.43729063816E+02  0.18695473999E+03 -0.72657431684E+02  0.20528859736E+03  0.00000000000E+00 0.  1.
<mgrwt>
<rscale>  0 0.16156899E+04</rscale>
<asrwt>0</asrwt>
<pdfrwt beam="1">  1        1 0.10731297E+00 0.16156899E+04</pdfrwt>
<pdfrwt beam="2">  1       -2 0.14393853E+00 0.16156899E+04</pdfrwt>
<totfact> 0.76739656E+00</totfact>
</mgrwt>
</event>
<event>
12    4  0.4413110E-008  0.1631554E+04  0.7818608E-02  0.8801394E-01
          1   -1    0    0  501    0  0.00000000000E+00  0.00000000000E+00  0.47833387087E+03  0.47833387087E+03  0.00000000000E+00 0. -1.
         -2   -1    0    0    0  501 -0.00000000000E+00 -0.00000000000E+00 -0.13912715898E+04  0.13912715898E+04  0.00000000000E+00 0.  1.
        -24    2    1    2    0    0 -0.29334706018E+03 -0.63844777179E+02  0.23383739699E+03  0.38731404323E+03  0.72135889577E+02 0.  0.
        254    2    1    2    0    0  0.29334706018E+03  0.63844777179E+02 -0.11467751159E+04  0.14822914174E+04  0.88992473076E+03 0.  0.
         23    2    4    4    0    0 -0.92437114597E+02  0.88590695588E+02 -0.10645220570E+04  0.10761236379E+04  0.91880044898E+02 0.  0.
         23    2    4    4    0    0  0.38578417478E+03 -0.24745918409E+02 -0.82253058855E+02  0.40616777951E+03  0.93621095038E+02 0.  0.
          1    1    3    3  502    0 -0.12411102421E+03 -0.53694810884E+02  0.13493708213E+03  0.19103584789E+03  0.00000000000E+00 0. -1.
         -2    1    3    3    0  502 -0.16923603597E+03 -0.10149966295E+02  0.98900314862E+02  0.19627819534E+03  0.00000000000E+00 0.  1.
         11    1    5    5    0    0 -0.99087776469E+02  0.53221683349E+02 -0.93339886139E+03  0.94015124818E+03  0.00000000000E+00 0. -1.
        -11    1    5    5    0    0  0.66506618714E+01  0.35369012238E+02 -0.13112319562E+03  0.13597238970E+03  0.00000000000E+00 0.  1.
          3    1    6    6  503    0  0.23157233520E+03 -0.43225716508E+01 -0.31089082802E+01  0.23163353894E+03  0.00000000000E+00 0. -1.
         -3    1    6    6    0  503  0.15421183958E+03 -0.20423346758E+02 -0.79144150575E+02  0.17453424057E+03  0.00000000000E+00 0.  1.
<mgrwt>
<rscale>  0 0.16315543E+04</rscale>
<asrwt>0</asrwt>
<pdfrwt beam="1">  1        1 0.73589825E-01 0.16315543E+04</pdfrwt>
<pdfrwt beam="2">  1       -2 0.21404179E+00 0.16315543E+04</pdfrwt>
<totfact> 0.42506160E+00</totfact>
</mgrwt>
</event>
<event>
12    4  0.4413110E-008  0.1419066E+04  0.7818608E-02  0.8940132E-01
         -2   -1    0    0    0  501 -0.00000000000E+00  0.00000000000E+00  0.42425889330E+03  0.42425889330E+03  0.00000000000E+00 0.  1.
          1   -1    0    0  501    0  0.00000000000E+00 -0.00000000000E+00 -0.11866266406E+04  0.11866266406E+04  0.00000000000E+00 0. -1.
        -24    2    1    2    0    0  0.13918435297E+03 -0.34015326596E+03 -0.41484607804E+03  0.56004097910E+03  0.80449371387E+02 0.  0.
        254    2    1    2    0    0 -0.13918435297E+03  0.34015326596E+03 -0.34752166927E+03  0.10508445548E+04  0.92110066730E+03 0.  0.
         23    2    4    4    0    0 -0.72376177238E+02  0.61817169700E+03 -0.52160889401E+02  0.63118254684E+03  0.91082880114E+02 0.  0.
         23    2    4    4    0    0 -0.66808175736E+02 -0.27801843104E+03 -0.29536077987E+03  0.41966200796E+03  0.84383827257E+02 0.  0.
          3    1    3    3  502    0  0.71285029528E+02 -0.24394378164E+03 -0.32121938389E+03  0.40959982498E+03  0.00000000000E+00 0. -1.
         -4    1    3    3    0  502  0.67899323446E+02 -0.96209484316E+02 -0.93626694143E+02  0.15044115412E+03  0.00000000000E+00 0.  1.
         11    1    5    5    0    0 -0.17040706702E+02  0.14936356338E+03  0.26383929237E+02  0.15263017877E+03  0.00000000000E+00 0. -1.
        -11    1    5    5    0    0 -0.55335470536E+02  0.46880813362E+03 -0.78544818638E+02  0.47855236807E+03  0.00000000000E+00 0.  1.
          1    1    6    6  503    0  0.17996484606E+02 -0.83421057653E+02 -0.96021284227E+02  0.12846413251E+03  0.00000000000E+00 0. -1.
         -1    1    6    6    0  503 -0.84804660342E+02 -0.19459737339E+03 -0.19933949564E+03  0.29119787545E+03  0.00000000000E+00 0.  1.
<mgrwt>
<rscale>  0 0.14190658E+04</rscale>
<asrwt>0</asrwt>
<pdfrwt beam="1">  1        1 0.18255794E+00 0.14190658E+04</pdfrwt>
<pdfrwt beam="2">  1       -2 0.65270600E-01 0.14190658E+04</pdfrwt>
<totfact> 0.20193362E+01</totfact>
</mgrwt>
</event>
<event>
12    4  0.4413110E-008  0.1618834E+04  0.7818608E-02  0.8809061E-01
          1   -1    0    0  501    0  0.00000000000E+00  0.00000000000E+00  0.63335751772E+03  0.63335751772E+03  0.00000000000E+00 0. -1.
         -2   -1    0    0    0  501 -0.00000000000E+00 -0.00000000000E+00 -0.10344168951E+04  0.10344168951E+04  0.00000000000E+00 0.  1.
        -24    2    1    2    0    0  0.23498113770E+03 -0.24328401827E+03 -0.59304512459E+03  0.68749474302E+03  0.80890378099E+02 0.  0.
        254    2    1    2    0    0 -0.23498113770E+03  0.24328401827E+03  0.19198574722E+03  0.98027966978E+03  0.89982579160E+03 0.  0.
         23    2    4    4    0    0 -0.20878796252E+03 -0.16276951746E+01 -0.32734563788E+03  0.39818376432E+03  0.88318066369E+02 0.  0.
         23    2    4    4    0    0 -0.26193175182E+02  0.24491171344E+03  0.51933138509E+03  0.58209590545E+03  0.91993074710E+02 0.  0.
          3    1    3    3  502    0  0.89037694149E+02 -0.40399082412E+02 -0.17327959156E+03  0.19896133717E+03  0.00000000000E+00 0. -1.
         -4    1    3    3    0  502  0.14594344355E+03 -0.20288493586E+03 -0.41976553303E+03  0.48853340585E+03  0.00000000000E+00 0.  1.
         11    1    5    5    0    0 -0.14881168692E+03 -0.49453499039E+01 -0.29382140601E+03  0.32939397881E+03  0.00000000000E+00 0. -1.
        -11    1    5    5    0    0 -0.59976275603E+02  0.33176547293E+01 -0.33524231869E+02  0.68789785510E+02  0.00000000000E+00 0.  1.
          2    1    6    6  503    0  0.27526035718E+01  0.17871451359E+03  0.43934341325E+03  0.47430906481E+03  0.00000000000E+00 0. -1.
         -2    1    6    6    0  503 -0.28945778754E+02  0.66197199857E+02  0.79987971841E+02  0.10778684064E+03  0.00000000000E+00 0.  1.
<mgrwt>
<rscale>  0 0.16188338E+04</rscale>
<asrwt>0</asrwt>
<pdfrwt beam="1">  1        1 0.97439619E-01 0.16188338E+04</pdfrwt>
<pdfrwt beam="2">  1       -2 0.15914106E+00 0.16188338E+04</pdfrwt>
<totfact> 0.67789623E+00</totfact>
</mgrwt>
</event>
<event>
12    4  0.4413110E-008  0.2097426E+04  0.7818608E-02  0.8562378E-01
          1   -1    0    0  501    0  0.00000000000E+00  0.00000000000E+00  0.51813838743E+04  0.51813838743E+04  0.00000000000E+00 0. -1.
         -2   -1    0    0    0  501 -0.00000000000E+00 -0.00000000000E+00 -0.21225973556E+03  0.21225973556E+03  0.00000000000E+00 0.  1.
        -24    2    1    2    0    0 -0.24368014398E+02 -0.27978906527E+02 -0.16243108012E+03  0.18339478657E+03  0.76636627119E+02 0.  0.
        254    2    1    2    0    0  0.24368014398E+02  0.27978906527E+02  0.51315552188E+04  0.52102488232E+04  0.90136408684E+03 0.  0.
         23    2    4    4    0    0  0.52341342416E+01 -0.42740186087E+03  0.24183785481E+04  0.24576009851E+04  0.92455683778E+02 0.  0.
         23    2    4    4    0    0  0.19133880156E+02  0.45538076740E+03  0.27131766707E+04  0.27526478381E+04  0.89469130861E+02 0.  0.
          3    1    3    3  502    0 -0.99855491528E+01 -0.50690595956E+02 -0.69160580995E+02  0.86327479251E+02  0.00000000000E+00 0. -1.
         -4    1    3    3    0  502 -0.14382465245E+02  0.22711689429E+02 -0.93270499124E+02  0.97067307319E+02  0.00000000000E+00 0.  1.
         11    1    5    5    0    0 -0.73545694801E+01 -0.94241695959E+00  0.16033705380E+02  0.17665150726E+02  0.00000000000E+00 0. -1.
        -11    1    5    5    0    0  0.12588703722E+02 -0.42645944391E+03  0.24023448427E+04  0.24399358344E+04  0.00000000000E+00 0.  1.
          4    1    6    6  503    0 -0.14625949277E+02  0.19475628967E+03  0.93733701837E+03  0.95746781500E+03  0.00000000000E+00 0. -1.
         -4    1    6    6    0  503  0.33759829433E+02  0.26062447773E+03  0.17758396524E+04  0.17951800231E+04  0.00000000000E+00 0.  1.
<mgrwt>
<rscale>  0 0.20974262E+04</rscale>
<asrwt>0</asrwt>
<pdfrwt beam="1">  1        1 0.79713588E+00 0.20974262E+04</pdfrwt>
<pdfrwt beam="2">  1       -2 0.32655348E-01 0.20974262E+04</pdfrwt>
<totfact> 0.35522640E-02</totfact>
</mgrwt>
</event>
<event>
12    4  0.4413110E-008  0.1343456E+04  0.7818608E-02  0.8995797E-01
         -2   -1    0    0    0  501 -0.00000000000E+00  0.00000000000E+00  0.65369690423E+03  0.65369690423E+03  0.00000000000E+00 0.  1.
          1   -1    0    0  501    0  0.00000000000E+00 -0.00000000000E+00 -0.69025619253E+03  0.69025619253E+03  0.00000000000E+00 0. -1.
        -24    2    1    2    0    0 -0.81987956497E+02 -0.28425028271E+03  0.20337378843E+03  0.36783313905E+03  0.80125352580E+02 0.  0.
        254    2    1    2    0    0  0.81987956497E+02  0.28425028271E+03 -0.23993307673E+03  0.97611995771E+03  0.89873357693E+03 0.  0.
         23    2    4    4    0    0 -0.33896732867E+02  0.53108775861E+03  0.79933084627E+02  0.54593166617E+03  0.91917845233E+02 0.  0.
         23    2    4    4    0    0  0.11588468936E+03 -0.24683747589E+03 -0.31986616136E+03  0.43018829154E+03  0.91594782933E+02 0.  0.
          1    1    3    3  502    0  0.13787970658E+02 -0.32554851390E+02  0.37537425170E+02  0.51565344683E+02  0.00000000000E+00 0. -1.
         -2    1    3    3    0  502 -0.95775927154E+02 -0.25169543132E+03  0.16583636326E+03  0.31626779436E+03  0.00000000000E+00 0.  1.
         11    1    5    5    0    0 -0.13495978526E+02  0.11696210276E+03 -0.20015357084E+02  0.11942733957E+03  0.00000000000E+00 0. -1.
        -11    1    5    5    0    0 -0.20400754340E+02  0.41412565585E+03  0.99948441711E+02  0.42650432660E+03  0.00000000000E+00 0.  1.
          4    1    6    6  503    0  0.11007653093E+03 -0.17337218068E+03 -0.18454073447E+03  0.27609787825E+03  0.00000000000E+00 0. -1.
         -4    1    6    6    0  503  0.58081584382E+01 -0.73465295211E+02 -0.13532542689E+03  0.15409041329E+03  0.00000000000E+00 0.  1.
<mgrwt>
<rscale>  0 0.13434557E+04</rscale>
<asrwt>0</asrwt>
<pdfrwt beam="1">  1        1 0.10619326E+00 0.13434557E+04</pdfrwt>
<pdfrwt beam="2">  1       -2 0.10056876E+00 0.13434557E+04</pdfrwt>
<totfact> 0.19449289E+01</totfact>
</mgrwt>
</event>
<event>
12    4  0.4413110E-008  0.1233398E+04  0.7818608E-02  0.9084116E-01
          3   -1    0    0  501    0  0.00000000000E+00  0.00000000000E+00  0.20870051022E+04  0.20870051022E+04  0.00000000000E+00 0. -1.
         -4   -1    0    0    0  501 -0.00000000000E+00 -0.00000000000E+00 -0.18223118863E+03  0.18223118863E+03  0.00000000000E+00 0.  1.
        -24    2    1    2    0    0 -0.10260122281E+03 -0.20725694458E+03  0.13387109996E+03  0.27872903807E+03  0.79284003800E+02 0.  0.
        254    2    1    2    0    0  0.10260122281E+03  0.20725694458E+03  0.17709028136E+04  0.19905072528E+04  0.87894248734E+03 0.  0.
         23    2    4    4    0    0 -0.36773246106E+03  0.98898911380E+02  0.55584408424E+03  0.67998133650E+03  0.91672320881E+02 0.  0.
         23    2    4    4    0    0  0.47033368387E+03  0.10835803320E+03  0.12150587294E+04  0.13105259163E+04  0.90306277927E+02 0.  0.
          3    1    3    3  502    0  0.41655831774E+01 -0.10017453830E+02 -0.78781318707E+01  0.13407700258E+02  0.00000000000E+00 0. -1.
         -4    1    3    3    0  502 -0.10676680599E+03 -0.19723949075E+03  0.14174923183E+03  0.26532133781E+03  0.00000000000E+00 0.  1.
         11    1    5    5    0    0 -0.34306654413E+03  0.11527298879E+03  0.51872254268E+03  0.63249947979E+03  0.00000000000E+00 0.  1.
        -11    1    5    5    0    0 -0.24665916925E+02 -0.16374077414E+02  0.37121541558E+02  0.47481856709E+02  0.00000000000E+00 0. -1.
          1    1    6    6  503    0  0.10188993143E+03  0.21541933567E+02  0.37362357285E+03  0.38786619757E+03  0.00000000000E+00 0. -1.
         -1    1    6    6    0  503  0.36844375244E+03  0.86816099630E+02  0.84143515655E+03  0.92265971872E+03  0.00000000000E+00 0.  1.
<mgrwt>
<rscale>  0 0.12333976E+04</rscale>
<asrwt>0</asrwt>
<pdfrwt beam="1">  1        3 0.32107769E+00 0.12333976E+04</pdfrwt>
<pdfrwt beam="2">  1       -4 0.28035569E-01 0.12333976E+04</pdfrwt>
<totfact> 0.82889033E-01</totfact>
</mgrwt>
</event>
<event>
12    4  0.4413110E-008  0.1410053E+04  0.7818608E-02  0.8946573E-01
          1   -1    0    0  501    0  0.00000000000E+00  0.00000000000E+00  0.89545619448E+03  0.89545619448E+03  0.00000000000E+00 0. -1.
         -2   -1    0    0    0  501 -0.00000000000E+00 -0.00000000000E+00 -0.55509437368E+03  0.55509437368E+03  0.00000000000E+00 0.  1.
        -24    2    1    2    0    0 -0.21134945792E+03 -0.27272888283E+03 -0.11428124868E+03  0.37200254264E+03  0.79221531397E+02 0.  0.
        254    2    1    2    0    0  0.21134945792E+03  0.27272888283E+03  0.45464306948E+03  0.10785480255E+04  0.91515894020E+03 0.  0.
         23    2    4    4    0    0  0.18004775575E+03  0.38645830423E+03 -0.14574993541E+03  0.45992245986E+03  0.92295233595E+02 0.  0.
         23    2    4    4    0    0  0.31301702173E+02 -0.11372942141E+03  0.60039300489E+03  0.61862556566E+03  0.91168263748E+02 0.  0.
          3    1    3    3  502    0 -0.12965560839E+03 -0.18960481075E+03 -0.38282989510E+02  0.23286508612E+03  0.00000000000E+00 0. -1.
         -4    1    3    3    0  502 -0.81693849530E+02 -0.83124072076E+02 -0.75998259171E+02  0.13913745652E+03  0.00000000000E+00 0.  1.
         11    1    5    5    0    0  0.46619047683E+02  0.30470778499E+02 -0.12537037953E+02  0.57087487857E+02  0.00000000000E+00 0.  1.
        -11    1    5    5    0    0  0.13342870807E+03  0.35598752573E+03 -0.13321289746E+03  0.40283497200E+03  0.00000000000E+00 0. -1.
          4    1    6    6  503    0  0.15121823445E+00 -0.11367258150E+03  0.52275793456E+03  0.53497414592E+03  0.00000000000E+00 0. -1.
         -4    1    6    6    0  503  0.31150483938E+02 -0.56839910694E-01  0.77635070328E+02  0.83651419744E+02  0.00000000000E+00 0.  1.
<mgrwt>
<rscale>  0 0.14100535E+04</rscale>
<asrwt>0</asrwt>
<pdfrwt beam="1">  1        1 0.13776249E+00 0.14100535E+04</pdfrwt>
<pdfrwt beam="2">  1       -2 0.85399134E-01 0.14100535E+04</pdfrwt>
<totfact> 0.18683779E+01</totfact>
</mgrwt>
</event>
<event>
12    4  0.4413110E-008  0.1166841E+04  0.7818608E-02  0.9142386E-01
         -2   -1    0    0    0  501 -0.00000000000E+00  0.00000000000E+00  0.30972945203E+03  0.30972945203E+03  0.00000000000E+00 0.  1.
          1   -1    0    0  501    0  0.00000000000E+00 -0.00000000000E+00 -0.10989581945E+04  0.10989581945E+04  0.00000000000E+00 0. -1.
        -24    2    1    2    0    0  0.46735545547E+02 -0.16584675919E+03 -0.27726686422E+03  0.33497826838E+03  0.75127674949E+02 0.  0.
        254    2    1    2    0    0 -0.46735545547E+02  0.16584675919E+03 -0.51196187824E+03  0.10737093781E+04  0.92793184297E+03 0.  0.
         23    2    4    4    0    0 -0.84224497132E+02 -0.11499361769E+03 -0.70101648901E+03  0.72115226964E+03  0.91209539622E+02 0.  0.
         23    2    4    4    0    0  0.37488951585E+02  0.28084037687E+03  0.18905461077E+03  0.35255710851E+03  0.90984230139E+02 0.  0.
          1    1    3    3  502    0  0.15241859806E+02 -0.46212785056E+02 -0.26625583475E+02  0.55469428412E+02  0.00000000000E+00 0. -1.
         -2    1    3    3    0  502  0.31493685741E+02 -0.11963397413E+03 -0.25064128074E+03  0.27950883997E+03  0.00000000000E+00 0.  1.
         11    1    5    5    0    0 -0.10303448617E+03 -0.84930139127E+02 -0.53789656207E+03  0.55422192790E+03  0.00000000000E+00 0.  1.
        -11    1    5    5    0    0  0.18809989036E+02 -0.30063478559E+02 -0.16311992693E+03  0.16693034174E+03  0.00000000000E+00 0. -1.
          2    1    6    6  503    0  0.41440653822E+01 -0.66839889074E+01  0.75700229510E+01  0.10915779087E+02  0.00000000000E+00 0. -1.
         -2    1    6    6    0  503  0.33344886203E+02  0.28752436578E+03  0.18148458781E+03  0.34164132942E+03  0.00000000000E+00 0.  1.
<mgrwt>
<rscale>  0 0.11668414E+04</rscale>
<asrwt>0</asrwt>
<pdfrwt beam="1">  1        1 0.16907049E+00 0.11668414E+04</pdfrwt>
<pdfrwt beam="2">  1       -2 0.47650685E-01 0.11668414E+04</pdfrwt>
<totfact> 0.46102536E+01</totfact>
</mgrwt>
</event>
<event>
12    4  0.5834802E-008  0.2564548E+04  0.7818608E-02  0.8380344E-01
         -2   -1    0    0    0  501 -0.00000000000E+00  0.00000000000E+00  0.91649270423E+03  0.91649270423E+03  0.00000000000E+00 0.  1.
          1   -1    0    0  501    0  0.00000000000E+00 -0.00000000000E+00 -0.17940426062E+04  0.17940426062E+04  0.00000000000E+00 0. -1.
        -24    2    1    2    0    0 -0.51647377849E+02  0.41486569513E+03 -0.14648957795E+04  0.15254721260E+04  0.79778228745E+02 0.  0.
        254    2    1    2    0    0  0.51647377849E+02 -0.41486569513E+03  0.58734587746E+03  0.11850631845E+04  0.94054163909E+03 0.  0.
         23    2    4    4    0    0  0.43204949221E+03  0.14256524559E+02  0.18586337707E+03  0.47952703678E+03  0.92363260315E+02 0.  0.
         23    2    4    4    0    0 -0.38040211436E+03 -0.42912221968E+03  0.40148250039E+03  0.70553614772E+03  0.87985280528E+02 0.  0.
          1    1    3    3  502    0 -0.23450227128E+02  0.37144726581E+03 -0.12374975179E+04  0.12922550410E+04  0.00000000000E+00 0. -1.
         -2    1    3    3    0  502 -0.28197150721E+02  0.43418429313E+02 -0.22739826161E+03  0.23321708492E+03  0.00000000000E+00 0.  1.
         11    1    5    5    0    0  0.84946094956E+02 -0.29882827054E+02  0.57419671095E+02  0.10679813215E+03  0.00000000000E+00 0.  1.
        -11    1    5    5    0    0  0.34710339725E+03  0.44139351612E+02  0.12844370597E+03  0.37272890463E+03  0.00000000000E+00 0. -1.
          4    1    6    6  503    0 -0.33926484240E+03 -0.38656719505E+03  0.38944304684E+03  0.64513619982E+03  0.00000000000E+00 0. -1.
         -4    1    6    6    0  503 -0.41137271953E+02 -0.42555024629E+02  0.12039453548E+02  0.60399947903E+02  0.00000000000E+00 0.  1.
<mgrwt>
<rscale>  0 0.25645483E+04</rscale>
<asrwt>0</asrwt>
<pdfrwt beam="1">  1        1 0.27600655E+00 0.25645483E+04</pdfrwt>
<pdfrwt beam="2">  1       -2 0.14099888E+00 0.25645483E+04</pdfrwt>
<totfact> 0.11253816E+00</totfact>
</mgrwt>
</event>
<event>
12    4  0.4413110E-008  0.1276118E+04  0.7818608E-02  0.9048721E-01
         -2   -1    0    0    0  501 -0.00000000000E+00  0.00000000000E+00  0.64664754640E+03  0.64664754640E+03  0.00000000000E+00 0.  1.
          1   -1    0    0  501    0  0.00000000000E+00 -0.00000000000E+00 -0.62958442541E+03  0.62958442541E+03  0.00000000000E+00 0. -1.
        -24    2    1    2    0    0  0.14943005549E+03  0.11818499059E+03 -0.24555796027E+03  0.32073159717E+03  0.79202349020E+02 0.  0.
        254    2    1    2    0    0 -0.14943005549E+03 -0.11818499059E+03  0.26262108126E+03  0.95550037464E+03  0.89872915838E+03 0.  0.
         23    2    4    4    0    0 -0.23751479459E+03  0.19718899568E+03  0.46099594945E+03  0.56252457744E+03  0.92843185818E+02 0.  0.
         23    2    4    4    0    0  0.88084739100E+02 -0.31537398627E+03 -0.19837486820E+03  0.39297579719E+03  0.88643761042E+02 0.  0.
          1    1    3    3  502    0  0.11335004168E+03  0.56720415425E+02 -0.19784281016E+03  0.23496215654E+03  0.00000000000E+00 0. -1.
         -2    1    3    3    0  502  0.36080013813E+02  0.61464575164E+02 -0.47715150111E+02  0.85769440636E+02  0.00000000000E+00 0.  1.
         11    1    5    5    0    0 -0.54767957922E+02  0.10314676078E+03  0.16223479551E+03  0.19989725448E+03  0.00000000000E+00 0.  1.
        -11    1    5    5    0    0 -0.18274683667E+03  0.94042234902E+02  0.29876115394E+03  0.36262732296E+03  0.00000000000E+00 0. -1.
          4    1    6    6  503    0  0.10498882754E+03 -0.25840892462E+03 -0.15236884515E+03  0.31782714044E+03  0.00000000000E+00 0. -1.
         -4    1    6    6    0  503 -0.16904088440E+02 -0.56965061647E+02 -0.46006023050E+02  0.75148656750E+02  0.00000000000E+00 0.  1.
<mgrwt>
<rscale>  0 0.12761179E+04</rscale>
<asrwt>0</asrwt>
<pdfrwt beam="1">  1        1 0.96859142E-01 0.12761179E+04</pdfrwt>
<pdfrwt beam="2">  1       -2 0.99484238E-01 0.12761179E+04</pdfrwt>
<totfact> 0.23002147E+01</totfact>
</mgrwt>
</event>
<event>
12    4  0.4413110E-008  0.1297080E+04  0.7818608E-02  0.9031884E-01
         -2   -1    0    0    0  501 -0.00000000000E+00  0.00000000000E+00  0.36691072438E+03  0.36691072438E+03  0.00000000000E+00 0.  1.
          1   -1    0    0  501    0  0.00000000000E+00 -0.00000000000E+00 -0.11463388660E+04  0.11463388660E+04  0.00000000000E+00 0. -1.
        -24    2    1    2    0    0 -0.18455146964E+02  0.32192444627E+03 -0.14126497888E+03  0.36086240964E+03  0.79309160114E+02 0.  0.
        254    2    1    2    0    0  0.18455146964E+02 -0.32192444627E+03 -0.63816316270E+03  0.11523871807E+04  0.90375220634E+03 0.  0.
         23    2    4    4    0    0 -0.22423743859E+03  0.11022366738E+03 -0.58745281979E+03  0.64606996819E+03  0.99367512777E+02 0.  0.
         23    2    4    4    0    0  0.24269258555E+03 -0.43214811366E+03 -0.50710342907E+02  0.50631721251E+03  0.90188123323E+02 0.  0.
          3    1    3    3  502    0 -0.17411794042E+02  0.17703587771E+02  0.13558759272E+01  0.24868172254E+02  0.00000000000E+00 0. -1.
         -4    1    3    3    0  502 -0.10433529216E+01  0.30422085850E+03 -0.14262085481E+03  0.33599423739E+03  0.00000000000E+00 0.  1.
         11    1    5    5    0    0 -0.37508881900E+02  0.65972003226E+02 -0.14110800301E+03  0.16022075379E+03  0.00000000000E+00 0. -1.
        -11    1    5    5    0    0 -0.18672855669E+03  0.44251664159E+02 -0.44634481678E+03  0.48584921440E+03  0.00000000000E+00 0.  1.
          3    1    6    6  503    0  0.92966804197E+01 -0.35136172072E+02  0.18213550585E+02  0.40653564169E+02  0.00000000000E+00 0. -1.
         -3    1    6    6    0  503  0.23339590514E+03 -0.39701194158E+03 -0.68923893492E+02  0.46566364834E+03  0.00000000000E+00 0.  1.
<mgrwt>
<rscale>  0 0.12970798E+04</rscale>
<asrwt>0</asrwt>
<pdfrwt beam="1">  1        1 0.17635982E+00 0.12970798E+04</pdfrwt>
<pdfrwt beam="2">  1       -2 0.56447805E-01 0.12970798E+04</pdfrwt>
<totfact> 0.29706585E+01</totfact>
</mgrwt>
</event>
<event>
12    4  0.4413110E-008  0.1611197E+04  0.7818608E-02  0.8813698E-01
          1   -1    0    0  501    0  0.00000000000E+00  0.00000000000E+00  0.23413672239E+04  0.23413672239E+04  0.00000000000E+00 0. -1.
         -2   -1    0    0    0  501 -0.00000000000E+00 -0.00000000000E+00 -0.27718384800E+03  0.27718384800E+03  0.00000000000E+00 0.  1.
        -24    2    1    2    0    0  0.51376120326E+03 -0.27807524583E+02  0.10994693169E+04  0.12164428679E+04  0.78591599953E+02 0.  0.
        254    2    1    2    0    0 -0.51376120326E+03  0.27807524583E+02  0.96471405900E+03  0.14021082040E+04  0.87778719962E+03 0.  0.
         23    2    4    4    0    0 -0.43571217704E+03 -0.13677342475E+03  0.53744076947E+02  0.46877783895E+03  0.91171078453E+02 0.  0.
         23    2    4    4    0    0 -0.78049026219E+02  0.16458094933E+03  0.91096998206E+03  0.93333036510E+03  0.89781528302E+02 0.  0.
          1    1    3    3  502    0  0.49985115121E+03 -0.40656088701E+02  0.10564486829E+04  0.11694391435E+04  0.00000000000E+00 0. -1.
         -2    1    3    3    0  502  0.13910052049E+02  0.12848564118E+02  0.43020634089E+02  0.47003724377E+02  0.00000000000E+00 0.  1.
         11    1    5    5    0    0 -0.32397224540E+03 -0.58566380024E+02  0.41794305407E+02  0.33186563640E+03  0.00000000000E+00 0. -1.
        -11    1    5    5    0    0 -0.11173993164E+03 -0.78207044727E+02  0.11949771541E+02  0.13691220255E+03  0.00000000000E+00 0.  1.
          4    1    6    6  503    0 -0.10186878048E+02  0.12298373674E+03  0.56593789962E+03  0.57923611611E+03  0.00000000000E+00 0. -1.
         -4    1    6    6    0  503 -0.67862148172E+02  0.41597212594E+02  0.34503208244E+03  0.35409424898E+03  0.00000000000E+00 0.  1.
<mgrwt>
<rscale>  0 0.16111973E+04</rscale>
<asrwt>0</asrwt>
<pdfrwt beam="1">  1        1 0.36021033E+00 0.16111973E+04</pdfrwt>
<pdfrwt beam="2">  1       -2 0.42643670E-01 0.16111973E+04</pdfrwt>
<totfact> 0.76606804E+00</totfact>
</mgrwt>
</event>
<event>
12    4  0.4413110E-008  0.3334012E+04  0.7818608E-02  0.8154295E-01
         -2   -1    0    0    0  501 -0.00000000000E+00  0.00000000000E+00  0.77751121518E+03  0.77751121518E+03  0.00000000000E+00 0.  1.
          1   -1    0    0  501    0  0.00000000000E+00 -0.00000000000E+00 -0.35741069930E+04  0.35741069930E+04  0.00000000000E+00 0. -1.
        -24    2    1    2    0    0 -0.15113645066E+04 -0.25120741270E+03 -0.15574316741E+04  0.21862752554E+04  0.82935136043E+02 0.  0.
        254    2    1    2    0    0  0.15113645066E+04  0.25120741270E+03 -0.12391641037E+04  0.21653429528E+04  0.89769404087E+03 0.  0.
         23    2    4    4    0    0  0.14843604932E+04  0.40012646322E+02 -0.85393165882E+03  0.17154085202E+04  0.92195594525E+02 0.  0.
         23    2    4    4    0    0  0.27004013479E+02  0.21119476638E+03 -0.38523244489E+03  0.44993443258E+03  0.93297968548E+02 0.  0.
          1    1    3    3  502    0 -0.12109866002E+04 -0.23458621849E+03 -0.12496282025E+04  0.17558729693E+04  0.00000000000E+00 0. -1.
         -2    1    3    3    0  502 -0.30037790640E+03 -0.16621194214E+02 -0.30780347159E+03  0.43040228610E+03  0.00000000000E+00 0.  1.
         11    1    5    5    0    0  0.12788583151E+04  0.37617477238E+01 -0.74430026204E+03  0.14796876768E+04  0.00000000000E+00 0. -1.
        -11    1    5    5    0    0  0.20550217804E+03  0.36250898599E+02 -0.10963139679E+03  0.23572084335E+03  0.00000000000E+00 0.  1.
          4    1    6    6  503    0  0.30455062946E+02  0.19983594396E+03 -0.38821826802E+03  0.43769320189E+03  0.00000000000E+00 0. -1.
         -4    1    6    6    0  503 -0.34510494668E+01  0.11358822420E+02  0.29858231236E+01  0.12241230694E+02  0.00000000000E+00 0.  1.
<mgrwt>
<rscale>  0 0.33340116E+04</rscale>
<asrwt>0</asrwt>
<pdfrwt beam="1">  1        1 0.54986261E+00 0.33340116E+04</pdfrwt>
<pdfrwt beam="2">  1       -2 0.11961711E+00 0.33340116E+04</pdfrwt>
<totfact> 0.84972550E-02</totfact>
</mgrwt>
</event>
<event>
12    4  0.4895074E-008  0.1958143E+04  0.7818608E-02  0.8626444E-01
         -2   -1    0    0    0  501 -0.00000000000E+00  0.00000000000E+00  0.66927263179E+03  0.66927263179E+03  0.00000000000E+00 0.  1.
          1   -1    0    0  501    0  0.00000000000E+00 -0.00000000000E+00 -0.14322735412E+04  0.14322735412E+04  0.00000000000E+00 0. -1.
        -24    2    1    2    0    0 -0.40981891538E+02  0.66754018189E+03  0.10567240206E+03  0.68173559218E+03  0.79418834158E+02 0.  0.
        254    2    1    2    0    0  0.40981891538E+02 -0.66754018189E+03 -0.86867331151E+03  0.14198105808E+04  0.90220804335E+03 0.  0.
         23    2    4    4    0    0 -0.26197842935E+03 -0.50803039142E+02  0.30671907886E+02  0.28433521933E+03  0.93231458155E+02 0.  0.
         23    2    4    4    0    0  0.30296032089E+03 -0.61673714274E+03 -0.89934521939E+03  0.11354753615E+04  0.91284246644E+02 0.  0.
          3    1    3    3  502    0  0.10680114319E+02  0.13744140359E+02 -0.22276141405E+00  0.17407350710E+02  0.00000000000E+00 0. -1.
         -4    1    3    3    0  502 -0.51662005857E+02  0.65379604153E+03  0.10589516347E+03  0.66432824147E+03  0.00000000000E+00 0.  1.
         11    1    5    5    0    0 -0.10707892152E+03 -0.42996095725E+02  0.54166134208E+02  0.12746972102E+03  0.00000000000E+00 0.  1.
        -11    1    5    5    0    0 -0.15489950783E+03 -0.78069434165E+01 -0.23494226323E+02  0.15686549831E+03  0.00000000000E+00 0. -1.
          1    1    6    6  503    0  0.29238370307E+01  0.32429482670E+01 -0.47823164899E+01  0.64758078611E+01  0.00000000000E+00 0. -1.
         -1    1    6    6    0  503  0.30003648386E+03 -0.61998009101E+03 -0.89456290290E+03  0.11289995537E+04  0.00000000000E+00 0.  1.
<mgrwt>
<rscale>  0 0.19581435E+04</rscale>
<asrwt>0</asrwt>
<pdfrwt beam="1">  1        1 0.22034978E+00 0.19581435E+04</pdfrwt>
<pdfrwt beam="2">  1       -2 0.10296502E+00 0.19581435E+04</pdfrwt>
<totfact> 0.45903648E+00</totfact>
</mgrwt>
</event>
<event>
12    4  0.4413110E-008  0.1791994E+04  0.7818608E-02  0.8710569E-01
         -2   -1    0    0    0  501 -0.00000000000E+00  0.00000000000E+00  0.84755624933E+03  0.84755624933E+03  0.00000000000E+00 0.  1.
          1   -1    0    0  501    0  0.00000000000E+00 -0.00000000000E+00 -0.94720640343E+03  0.94720640343E+03  0.00000000000E+00 0. -1.
        -24    2    1    2    0    0 -0.29640044803E+02 -0.55175140258E+03  0.33392308274E+03  0.64906759398E+03  0.66902719451E+02 0.  0.
        254    2    1    2    0    0  0.29640044803E+02  0.55175140258E+03 -0.43357323683E+03  0.11456950588E+04  0.90516477699E+03 0.  0.
         23    2    4    4    0    0  0.41699283642E+03  0.47855974675E+03 -0.35695020643E+03  0.73366240187E+03  0.89132559845E+02 0.  0.
         23    2    4    4    0    0 -0.38735279161E+03  0.73191655832E+02 -0.76623030403E+02  0.41203265690E+03  0.92198795609E+02 0.  0.
          3    1    3    3  502    0 -0.46181883859E+02 -0.49818766632E+03  0.30541074992E+03  0.58617356084E+03  0.00000000000E+00 0. -1.
         -4    1    3    3    0  502  0.16541839056E+02 -0.53563736260E+02  0.28512332827E+02  0.62894033140E+02  0.00000000000E+00 0.  1.
         11    1    5    5    0    0  0.33941055338E+03  0.36158695929E+03 -0.23992991477E+03  0.55091833958E+03  0.00000000000E+00 0. -1.
        -11    1    5    5    0    0  0.77582283031E+02  0.11697278745E+03 -0.11702029166E+03  0.18274406230E+03  0.00000000000E+00 0.  1.
          3    1    6    6  503    0 -0.37503020069E+03  0.54869329926E+02 -0.58591172806E+02  0.38352473235E+03  0.00000000000E+00 0. -1.
         -3    1    6    6    0  503 -0.12322590923E+02  0.18322325906E+02 -0.18031857597E+02  0.28507924548E+02  0.00000000000E+00 0.  1.
<mgrwt>
<rscale>  0 0.17919941E+04</rscale>
<asrwt>0</asrwt>
<pdfrwt beam="1">  1        1 0.14572406E+00 0.17919941E+04</pdfrwt>
<pdfrwt beam="2">  1       -2 0.13039327E+00 0.17919941E+04</pdfrwt>
<totfact> 0.59420614E+00</totfact>
</mgrwt>
</event>
<event>
12    4  0.4413110E-008  0.2731027E+04  0.7818608E-02  0.8325007E-01
          1   -1    0    0  501    0  0.00000000000E+00  0.00000000000E+00  0.33470145765E+04  0.33470145765E+04  0.00000000000E+00 0. -1.
         -2   -1    0    0    0  501 -0.00000000000E+00 -0.00000000000E+00 -0.55710167370E+03  0.55710167370E+03  0.00000000000E+00 0.  1.
        -24    2    1    2    0    0 -0.95096842956E+03  0.76620014852E+03  0.12353703141E+04  0.17389404234E+04  0.79814543790E+02 0.  0.
        254    2    1    2    0    0  0.95096842956E+03 -0.76620014852E+03  0.15545425887E+04  0.21651758268E+04  0.88316480877E+03 0.  0.
         23    2    4    4    0    0  0.47059478033E+03 -0.66962189801E+03  0.14327242916E+04  0.16526836534E+04  0.93869212020E+02 0.  0.
         23    2    4    4    0    0  0.48037364923E+03 -0.96578250509E+02  0.12181829708E+03  0.51249217341E+03  0.87876782827E+02 0.  0.
          1    1    3    3  502    0 -0.86183179245E+03  0.72204050248E+03  0.11310974981E+04  0.15948285412E+04  0.00000000000E+00 0. -1.
         -2    1    3    3    0  502 -0.89136637110E+02  0.44159646036E+02  0.10427281601E+03  0.14411188213E+03  0.00000000000E+00 0.  1.
         11    1    5    5    0    0  0.46997035336E+03 -0.65305421765E+03  0.14186942533E+04  0.16309645393E+04  0.00000000000E+00 0. -1.
        -11    1    5    5    0    0  0.62442696602E+00 -0.16567680354E+02  0.14030038273E+02  0.21719114054E+02  0.00000000000E+00 0.  1.
          1    1    6    6  503    0  0.31024975666E+03 -0.98984470058E+02  0.10168765890E+03  0.34116450107E+03  0.00000000000E+00 0. -1.
         -1    1    6    6    0  503  0.17012389258E+03  0.24062195492E+01  0.20130638182E+02  0.17132767234E+03  0.00000000000E+00 0.  1.
<mgrwt>
<rscale>  0 0.27310272E+04</rscale>
<asrwt>0</asrwt>
<pdfrwt beam="1">  1        1 0.51492531E+00 0.27310272E+04</pdfrwt>
<pdfrwt beam="2">  1       -2 0.85707952E-01 0.27310272E+04</pdfrwt>
<totfact> 0.29768633E-01</totfact>
</mgrwt>
</event>
<event>
12    4  0.4413110E-008  0.2228712E+04  0.7818608E-02  0.8506572E-01
         -2   -1    0    0    0  501 -0.00000000000E+00  0.00000000000E+00  0.56099851944E+03  0.56099851944E+03  0.00000000000E+00 0.  1.
          1   -1    0    0  501    0  0.00000000000E+00 -0.00000000000E+00 -0.22135335207E+04  0.22135335207E+04  0.00000000000E+00 0. -1.
        -24    2    1    2    0    0  0.26550788158E+03 -0.45753387605E+03  0.26218767659E+03  0.59588400238E+03  0.80645419100E+02 0.  0.
        254    2    1    2    0    0 -0.26550788158E+03  0.45753387605E+03 -0.19147226779E+04  0.21786480378E+04  0.89471372874E+03 0.  0.
         23    2    4    4    0    0 -0.32422240933E+03 -0.18705708363E+03 -0.69785438406E+03  0.79723697901E+03  0.92062674839E+02 0.  0.
         23    2    4    4    0    0  0.58714527748E+02  0.64459095969E+03 -0.12168682938E+04  0.13814110587E+04  0.92645386834E+02 0.  0.
          3    1    3    3  502    0  0.12662117337E+03 -0.18314523645E+03  0.15025711313E+03  0.26861180024E+03  0.00000000000E+00 0. -1.
         -4    1    3    3    0  502  0.13888670821E+03 -0.27438863960E+03  0.11193056346E+03  0.32727220214E+03  0.00000000000E+00 0.  1.
         11    1    5    5    0    0 -0.23607348334E+03 -0.10916137305E+03 -0.40141776940E+03  0.47831278521E+03  0.00000000000E+00 0. -1.
        -11    1    5    5    0    0 -0.88148925987E+02 -0.77895710583E+02 -0.29643661467E+03  0.31892419381E+03  0.00000000000E+00 0.  1.
          1    1    6    6  503    0  0.35860148564E+02  0.60958299070E+03 -0.11589752102E+04  0.13100003476E+04  0.00000000000E+00 0. -1.
         -1    1    6    6    0  503  0.22854379184E+02  0.35007968989E+02 -0.57893083567E+02  0.71410711140E+02  0.00000000000E+00 0.  1.
<mgrwt>
<rscale>  0 0.22287118E+04</rscale>
<asrwt>0</asrwt>
<pdfrwt beam="1">  1        1 0.34054361E+00 0.22287118E+04</pdfrwt>
<pdfrwt beam="2">  1       -2 0.86307466E-01 0.22287118E+04</pdfrwt>
<totfact> 0.19828374E+00</totfact>
</mgrwt>
</event>
<event>
12    4  0.4413110E-008  0.2735543E+04  0.7818608E-02  0.8323564E-01
          1   -1    0    0  501    0  0.00000000000E+00  0.00000000000E+00  0.10925158761E+04  0.10925158761E+04  0.00000000000E+00 0. -1.
         -2   -1    0    0    0  501 -0.00000000000E+00 -0.00000000000E+00 -0.17123771072E+04  0.17123771072E+04  0.00000000000E+00 0.  1.
        -24    2    1    2    0    0  0.79806547709E+02  0.30667680058E+03  0.93135669258E+03  0.98734340401E+03  0.83677736293E+02 0.  0.
        254    2    1    2    0    0 -0.79806547709E+02 -0.30667680058E+03 -0.15512179237E+04  0.18175495794E+04  0.89263076441E+03 0.  0.
         23    2    4    4    0    0 -0.43274539451E+03 -0.37009278847E+03 -0.98022611149E+03  0.11372632678E+04  0.91034401090E+02 0.  0.
         23    2    4    4    0    0  0.35293884680E+03  0.63415987895E+02 -0.57099181221E+03  0.68028631153E+03  0.90390259123E+02 0.  0.
          3    1    3    3  502    0  0.68371356499E+02  0.26868290529E+03  0.70536517740E+03  0.75789522988E+03  0.00000000000E+00 0. -1.
         -4    1    3    3    0  502  0.11435191210E+02  0.37993895290E+02  0.22599151518E+03  0.22944817413E+03  0.00000000000E+00 0.  1.
         11    1    5    5    0    0 -0.36478548187E+03 -0.29901472918E+03 -0.73822648410E+03  0.87604600215E+03  0.00000000000E+00 0. -1.
        -11    1    5    5    0    0 -0.67959912633E+02 -0.71078059289E+02 -0.24199962739E+03  0.26121726569E+03  0.00000000000E+00 0.  1.
          2    1    6    6  503    0  0.34228369618E+03  0.41759215142E+02 -0.54397937371E+03  0.64406173597E+03  0.00000000000E+00 0. -1.
         -2    1    6    6    0  503  0.10655150621E+02  0.21656772753E+02 -0.27012438502E+02  0.36224575563E+02  0.00000000000E+00 0.  1.
<mgrwt>
<rscale>  0 0.27355432E+04</rscale>
<asrwt>0</asrwt>
<pdfrwt beam="1">  1        1 0.16807937E+00 0.27355432E+04</pdfrwt>
<pdfrwt beam="2">  1       -2 0.26344263E+00 0.27355432E+04</pdfrwt>
<totfact> 0.52145734E-01</totfact>
</mgrwt>
</event>
<event>
12    4  0.4413110E-008  0.1402442E+04  0.7818608E-02  0.8952053E-01
          1   -1    0    0  501    0  0.00000000000E+00  0.00000000000E+00  0.93742934709E+03  0.93742934709E+03  0.00000000000E+00 0. -1.
         -2   -1    0    0    0  501 -0.00000000000E+00 -0.00000000000E+00 -0.52453138657E+03  0.52453138657E+03  0.00000000000E+00 0.  1.
        -24    2    1    2    0    0  0.30449128834E+03  0.32196034285E+03  0.10686695375E+03  0.46260293600E+03  0.78787838837E+02 0.  0.
        254    2    1    2    0    0 -0.30449128834E+03 -0.32196034285E+03  0.30603100676E+03  0.99935779766E+03  0.84183586500E+03 0.  0.
         23    2    4    4    0    0 -0.10027126613E+03 -0.55774054523E+03  0.33134466879E+02  0.57490240376E+03  0.91027679050E+02 0.  0.
         23    2    4    4    0    0 -0.20422002221E+03  0.23578020238E+03  0.27289653988E+03  0.42445539390E+03  0.91606433311E+02 0.  0.
          3    1    3    3  502    0  0.56817135751E+02  0.44191821415E+02  0.46217349241E+02  0.85540325963E+02  0.00000000000E+00 0. -1.
         -4    1    3    3    0  502  0.24767415259E+03  0.27776852144E+03  0.60649604511E+02  0.37706261004E+03  0.00000000000E+00 0.  1.
         11    1    5    5    0    0  0.16800674772E+02 -0.10117472706E+03  0.88304628938E+01  0.10293961892E+03  0.00000000000E+00 0. -1.
        -11    1    5    5    0    0 -0.11707194090E+03 -0.45656581817E+03  0.24304003985E+02  0.47196278485E+03  0.00000000000E+00 0.  1.
          4    1    6    6  503    0 -0.12147571521E+03  0.71821039727E+02  0.10920109243E+03  0.17843623433E+03  0.00000000000E+00 0. -1.
         -4    1    6    6    0  503 -0.82744306996E+02  0.16395916265E+03  0.16369544745E+03  0.24601915957E+03  0.00000000000E+00 0.  1.
<mgrwt>
<rscale>  0 0.14024423E+04</rscale>
<asrwt>0</asrwt>
<pdfrwt beam="1">  1        1 0.14421990E+00 0.14024423E+04</pdfrwt>
<pdfrwt beam="2">  1       -2 0.80697136E-01 0.14024423E+04</pdfrwt>
<totfact> 0.19651532E+01</totfact>
</mgrwt>
</event>
<event>
12    4  0.4413110E-008  0.1603787E+04  0.7818608E-02  0.8818225E-01
          1   -1    0    0  501    0  0.00000000000E+00  0.00000000000E+00  0.20722864355E+04  0.20722864355E+04  0.00000000000E+00 0. -1.
         -2   -1    0    0    0  501 -0.00000000000E+00 -0.00000000000E+00 -0.31030121660E+03  0.31030121660E+03  0.00000000000E+00 0.  1.
        -24    2    1    2    0    0  0.56585299459E+03  0.21195940702E+02  0.57180849999E+03  0.80836029363E+03  0.76436406692E+02 0.  0.
        254    2    1    2    0    0 -0.56585299459E+03 -0.21195940702E+02  0.11901767189E+04  0.15742273584E+04  0.86083231496E+03 0.  0.
         23    2    4    4    0    0 -0.62519998258E+03 -0.25336961730E+03  0.52311409218E+03  0.85818721030E+03  0.88123511586E+02 0.  0.
         23    2    4    4    0    0  0.59346987982E+02  0.23217367660E+03  0.66706262669E+03  0.71604014813E+03  0.10155916857E+03 0.  0.
          1    1    3    3  502    0  0.32917082182E+03  0.20556889170E+02  0.38416620691E+03  0.50631975090E+03  0.00000000000E+00 0. -1.
         -2    1    3    3    0  502  0.23668217278E+03  0.63905153224E+00  0.18764229308E+03  0.30204054273E+03  0.00000000000E+00 0.  1.
         11    1    5    5    0    0 -0.55370313278E+03 -0.21555477209E+03  0.49232387821E+03  0.77164358358E+03  0.00000000000E+00 0. -1.
        -11    1    5    5    0    0 -0.71496849794E+02 -0.37814845207E+02  0.30790213964E+02  0.86543626712E+02  0.00000000000E+00 0.  1.
          1    1    6    6  503    0  0.87156475424E+02  0.15797428024E+03  0.44033499709E+03  0.47586451232E+03  0.00000000000E+00 0. -1.
         -1    1    6    6    0  503 -0.27809487442E+02  0.74199396354E+02  0.22672762960E+03  0.24017563580E+03  0.00000000000E+00 0.  1.
<mgrwt>
<rscale>  0 0.16037868E+04</rscale>
<asrwt>0</asrwt>
<pdfrwt beam="1">  1        1 0.31881329E+00 0.16037868E+04</pdfrwt>
<pdfrwt beam="2">  1       -2 0.47738650E-01 0.16037868E+04</pdfrwt>
<totfact> 0.93248583E+00</totfact>
</mgrwt>
</event>
<event>
12    4  0.4413110E-008  0.1720087E+04  0.7818608E-02  0.8749990E-01
          1   -1    0    0  501    0  0.00000000000E+00  0.00000000000E+00  0.17901729794E+04  0.17901729794E+04  0.00000000000E+00 0. -1.
         -2   -1    0    0    0  501 -0.00000000000E+00 -0.00000000000E+00 -0.41318614892E+03  0.41318614892E+03  0.00000000000E+00 0.  1.
        -24    2    1    2    0    0  0.14430893805E+03 -0.12321911654E+03  0.12872813910E+04  0.13040294266E+04  0.85972934699E+02 0.  0.
        254    2    1    2    0    0 -0.14430893805E+03  0.12321911654E+03  0.89705439517E+02  0.89932970176E+03  0.87449346842E+03 0.  0.
         23    2    4    4    0    0 -0.42455632686E+03 -0.76249301891E+02  0.25250326778E+03  0.50772781710E+03  0.89261443538E+02 0.  0.
         23    2    4    4    0    0  0.28024738881E+03  0.19946841843E+03 -0.16279782826E+03  0.39160188467E+03  0.92318223010E+02 0.  0.
          1    1    3    3  502    0  0.85968524942E+02 -0.73332245950E+02  0.10105905541E+04  0.10168881323E+04  0.00000000000E+00 0. -1.
         -2    1    3    3    0  502  0.58340413108E+02 -0.49886870593E+02  0.27669083691E+03  0.28714129430E+03  0.00000000000E+00 0.  1.
         11    1    5    5    0    0  0.12970942116E+01  0.61725676189E+01  0.11648462491E+01  0.64140401610E+01  0.00000000000E+00 0. -1.
        -11    1    5    5    0    0 -0.42585342107E+03 -0.82421869510E+02  0.25133842153E+03  0.50131377694E+03  0.00000000000E+00 0.  1.
          3    1    6    6  503    0  0.20463332786E+03  0.18795380541E+03 -0.11087301948E+03  0.29915590966E+03  0.00000000000E+00 0. -1.
         -3    1    6    6    0  503  0.75614060951E+02  0.11514613023E+02 -0.51924808786E+02  0.92445975002E+02  0.00000000000E+00 0.  1.
<mgrwt>
<rscale>  0 0.17200868E+04</rscale>
<asrwt>0</asrwt>
<pdfrwt beam="1">  1        1 0.27541122E+00 0.17200868E+04</pdfrwt>
<pdfrwt beam="2">  1       -2 0.63567101E-01 0.17200868E+04</pdfrwt>
<totfact> 0.79021012E+00</totfact>
</mgrwt>
</event>
<event>
12    4  0.4413110E-008  0.1883178E+04  0.7818608E-02  0.8663275E-01
          1   -1    0    0  501    0  0.00000000000E+00  0.00000000000E+00  0.16709154939E+04  0.16709154939E+04  0.00000000000E+00 0. -1.
         -2   -1    0    0    0  501 -0.00000000000E+00 -0.00000000000E+00 -0.53060113531E+03  0.53060113531E+03  0.00000000000E+00 0.  1.
        -24    2    1    2    0    0  0.19405955200E+03  0.45866152856E+03 -0.18166141403E+03  0.53574093008E+03  0.77381957314E+02 0.  0.
        254    2    1    2    0    0 -0.19405955200E+03 -0.45866152856E+03  0.13219757726E+04  0.16657756991E+04  0.88269996541E+03 0.  0.
         23    2    4    4    0    0  0.24613558992E+02  0.24499681470E+03  0.44672076180E+03  0.51798404527E+03  0.90104193176E+02 0.  0.
         23    2    4    4    0    0 -0.21867311100E+03 -0.70365834326E+03  0.87525501083E+03  0.11477916539E+04  0.91658895957E+02 0.  0.
          3    1    3    3  502    0  0.37545062043E+02  0.12261471865E+03 -0.80762091391E+02  0.15154707625E+03  0.00000000000E+00 0. -1.
         -4    1    3    3    0  502  0.15651448996E+03  0.33604680991E+03 -0.10089932264E+03  0.38419385383E+03  0.00000000000E+00 0.  1.
         11    1    5    5    0    0 -0.13952760548E+02  0.74131323032E+01  0.63572535442E+02  0.65506498304E+02  0.00000000000E+00 0.  1.
        -11    1    5    5    0    0  0.38566319540E+02  0.23758368240E+03  0.38314822636E+03  0.45247754697E+03  0.00000000000E+00 0. -1.
          3    1    6    6  503    0 -0.11979745523E+03 -0.45605545720E+03  0.61757651940E+03  0.77700628546E+03  0.00000000000E+00 0. -1.
         -3    1    6    6    0  503 -0.98875655765E+02 -0.24760288606E+03  0.25767849142E+03  0.37078536841E+03  0.00000000000E+00 0.  1.
<mgrwt>
<rscale>  0 0.18831778E+04</rscale>
<asrwt>0</asrwt>
<pdfrwt beam="1">  1        1 0.25706392E+00 0.18831778E+04</pdfrwt>
<pdfrwt beam="2">  1       -2 0.81630945E-01 0.18831778E+04</pdfrwt>
<totfact> 0.54196713E+00</totfact>
</mgrwt>
</event>
<event>
12    4  0.4413110E-008  0.1685287E+04  0.7818608E-02  0.8769800E-01
          1   -1    0    0  501    0  0.00000000000E+00  0.00000000000E+00  0.36161858725E+04  0.36161858725E+04  0.00000000000E+00 0. -1.
         -2   -1    0    0    0  501 -0.00000000000E+00 -0.00000000000E+00 -0.19635284013E+03  0.19635284013E+03  0.00000000000E+00 0.  1.
        -24    2    1    2    0    0  0.10210575752E+02  0.16731186533E+03  0.23951937772E+04  0.24023045892E+04  0.77566701093E+02 0.  0.
        254    2    1    2    0    0 -0.10210575752E+02 -0.16731186533E+03  0.10246392552E+04  0.14102341234E+04  0.95434645877E+03 0.  0.
         23    2    4    4    0    0  0.38825409362E+03 -0.92511299692E+02  0.87960657876E+03  0.97030139736E+03  0.92073267193E+02 0.  0.
         23    2    4    4    0    0 -0.39846466938E+03 -0.74800565636E+02  0.14503267642E+03  0.43993272603E+03  0.90205924631E+02 0.  0.
          1    1    3    3  502    0  0.14874947973E+02  0.70071797468E+02  0.15251393212E+04  0.15268206411E+04  0.00000000000E+00 0. -1.
         -2    1    3    3    0  502 -0.46643722209E+01  0.97240067860E+02  0.87005445595E+03  0.87548394816E+03  0.00000000000E+00 0.  1.
         11    1    5    5    0    0  0.44995740763E+02 -0.16537372407E+02  0.19370690712E+03  0.19955066334E+03  0.00000000000E+00 0.  1.
        -11    1    5    5    0    0  0.34325835286E+03 -0.75973927285E+02  0.68589967164E+03  0.77075073402E+03  0.00000000000E+00 0. -1.
          4    1    6    6  503    0 -0.61985717942E+02 -0.22331704471E+02 -0.83994793832E+01  0.66419014651E+02  0.00000000000E+00 0.  1.
         -4    1    6    6    0  503 -0.33647895143E+03 -0.52468861166E+02  0.15343215581E+03  0.37351371138E+03  0.00000000000E+00 0. -1.
<mgrwt>
<rscale>  0 0.16852874E+04</rscale>
<asrwt>0</asrwt>
<pdfrwt beam="1">  1        1 0.55633624E+00 0.16852874E+04</pdfrwt>
<pdfrwt beam="2">  1       -2 0.30208132E-01 0.16852874E+04</pdfrwt>
<totfact> 0.17262872E+00</totfact>
</mgrwt>
</event>
<event>
12    4  0.4413110E-008  0.2017591E+04  0.7818608E-02  0.8598440E-01
         -2   -1    0    0    0  501 -0.00000000000E+00  0.00000000000E+00  0.76544777849E+03  0.76544777849E+03  0.00000000000E+00 0.  1.
          1   -1    0    0  501    0  0.00000000000E+00 -0.00000000000E+00 -0.13295070141E+04  0.13295070141E+04  0.00000000000E+00 0. -1.
        -24    2    1    2    0    0  0.39699420558E+03  0.63814768838E+03 -0.52976806914E+03  0.92279695827E+03  0.77866216485E+02 0.  0.
        254    2    1    2    0    0 -0.39699420558E+03 -0.63814768838E+03 -0.34291166508E+02  0.11721578344E+04  0.89885551291E+03 0.  0.
         23    2    4    4    0    0 -0.18123240839E+01  0.20089176853E+03  0.76801433852E+02  0.23351798546E+03  0.90947249053E+02 0.  0.
         23    2    4    4    0    0 -0.39518188150E+03 -0.83903945690E+03 -0.11109260036E+03  0.93863984889E+03  0.92451448698E+02 0.  0.
          1    1    3    3  502    0  0.32100703574E+03  0.51620855771E+03 -0.46427037960E+03  0.76489461850E+03  0.00000000000E+00 0. -1.
         -2    1    3    3    0  502  0.75987169843E+02  0.12193913067E+03 -0.65497689548E+02  0.15790233977E+03  0.00000000000E+00 0.  1.
         11    1    5    5    0    0  0.29306262754E+02  0.23041462507E+02  0.27592319833E+02  0.46379975688E+02  0.00000000000E+00 0. -1.
        -11    1    5    5    0    0 -0.31118586838E+02  0.17785030602E+03  0.49209114020E+02  0.18713800977E+03  0.00000000000E+00 0.  1.
          4    1    6    6  503    0 -0.31264684504E+03 -0.56377847817E+03 -0.78640084803E+02  0.64944475138E+03  0.00000000000E+00 0. -1.
         -4    1    6    6    0  503 -0.82535036455E+02 -0.27526097873E+03 -0.32452515557E+02  0.28919509751E+03  0.00000000000E+00 0.  1.
<mgrwt>
<rscale>  0 0.20175908E+04</rscale>
<asrwt>0</asrwt>
<pdfrwt beam="1">  1        1 0.20453954E+00 0.20175908E+04</pdfrwt>
<pdfrwt beam="2">  1       -2 0.11776120E+00 0.20175908E+04</pdfrwt>
<totfact> 0.38967511E+00</totfact>
</mgrwt>
</event>
<event>
12    4  0.4413110E-008  0.1917887E+04  0.7818608E-02  0.8646004E-01
          1   -1    0    0  501    0  0.00000000000E+00  0.00000000000E+00  0.31648746590E+03  0.31648746590E+03  0.00000000000E+00 0. -1.
         -2   -1    0    0    0  501 -0.00000000000E+00 -0.00000000000E+00 -0.29055582949E+04  0.29055582949E+04  0.00000000000E+00 0.  1.
        -24    2    1    2    0    0 -0.65539922820E+02  0.73433497856E+03 -0.82508057276E+03  0.11111881436E+04  0.10216553617E+03 0.  0.
        254    2    1    2    0    0  0.65539922820E+02 -0.73433497856E+03 -0.17639902562E+04  0.21108576171E+04  0.89471499016E+03 0.  0.
         23    2    4    4    0    0  0.33339504860E+03 -0.72038777836E+03 -0.15841481568E+04  0.17743389378E+04  0.92964905589E+02 0.  0.
         23    2    4    4    0    0 -0.26785512578E+03 -0.13947200194E+02 -0.17984209936E+03  0.33651867935E+03  0.94661227805E+02 0.  0.
          3    1    3    3  502    0 -0.56421847809E+02  0.63893053991E+03 -0.76394217919E+03  0.99750855279E+03  0.00000000000E+00 0. -1.
         -4    1    3    3    0  502 -0.91180750114E+01  0.95404438651E+02 -0.61138393572E+02  0.11367959085E+03  0.00000000000E+00 0.  1.
         11    1    5    5    0    0  0.10415359153E+03 -0.27945919662E+03 -0.68222807892E+03  0.74456736759E+03  0.00000000000E+00 0. -1.
        -11    1    5    5    0    0  0.22924145706E+03 -0.44092858174E+03 -0.90192007792E+03  0.10297715702E+04  0.00000000000E+00 0.  1.
          2    1    6    6  503    0 -0.21624331267E+03 -0.25496656208E+01 -0.94210283350E+02  0.23588821199E+03  0.00000000000E+00 0. -1.
         -2    1    6    6    0  503 -0.51611813111E+02 -0.11397534573E+02 -0.85631816014E+02  0.10063046736E+03  0.00000000000E+00 0.  1.
<mgrwt>
<rscale>  0 0.19178872E+04</rscale>
<asrwt>0</asrwt>
<pdfrwt beam="1">  1        1 0.48690381E-01 0.19178872E+04</pdfrwt>
<pdfrwt beam="2">  1       -2 0.44700896E+00 0.19178872E+04</pdfrwt>
<totfact> 0.24314618E-01</totfact>
</mgrwt>
</event>
<event>
12    4  0.4413110E-008  0.1485338E+04  0.7818608E-02  0.8894262E-01
          1   -1    0    0  501    0  0.00000000000E+00  0.00000000000E+00  0.53554600828E+03  0.53554600828E+03  0.00000000000E+00 0. -1.
         -2   -1    0    0    0  501 -0.00000000000E+00 -0.00000000000E+00 -0.10298968258E+04  0.10298968258E+04  0.00000000000E+00 0.  1.
        -24    2    1    2    0    0 -0.29274942457E+03 -0.35362777707E+03 -0.87977736326E+02  0.47399671561E+03  0.78600089132E+02 0.  0.
        254    2    1    2    0    0  0.29274942457E+03  0.35362777707E+03 -0.40637308115E+03  0.10914461184E+04  0.90297326540E+03 0.  0.
         23    2    4    4    0    0  0.51603885901E+03  0.47859581153E+02  0.33598955595E+01  0.52593000638E+03  0.89467531540E+02 0.  0.
         23    2    4    4    0    0 -0.22328943444E+03  0.30576819592E+03 -0.40973297671E+03  0.56551611204E+03  0.92601293784E+02 0.  0.
          3    1    3    3  502    0 -0.15053208804E+03 -0.21399240613E+03 -0.16121201424E+02  0.26213079282E+03  0.00000000000E+00 0. -1.
         -4    1    3    3    0  502 -0.14221733653E+03 -0.13963537095E+03 -0.71856534902E+02  0.21186592279E+03  0.00000000000E+00 0.  1.
         11    1    5    5    0    0  0.26031031980E+03  0.58657844079E+02  0.30334519539E+02  0.26855611767E+03  0.00000000000E+00 0. -1.
        -11    1    5    5    0    0  0.25572853921E+03 -0.10798262926E+02 -0.26974623979E+02  0.25737388871E+03  0.00000000000E+00 0.  1.
          2    1    6    6  503    0 -0.99636758932E+02  0.85781847045E+02 -0.18907397605E+03  0.23029324227E+03  0.00000000000E+00 0. -1.
         -2    1    6    6    0  503 -0.12365267550E+03  0.21998634888E+03 -0.22065900065E+03  0.33522286978E+03  0.00000000000E+00 0.  1.
<mgrwt>
<rscale>  0 0.14853379E+04</rscale>
<asrwt>0</asrwt>
<pdfrwt beam="1">  1        1 0.82391694E-01 0.14853379E+04</pdfrwt>
<pdfrwt beam="2">  1       -2 0.15844566E+00 0.14853379E+04</pdfrwt>
<totfact> 0.88187992E+00</totfact>
</mgrwt>
</event>
<event>
12    4  0.4413110E-008  0.1030209E+04  0.7818608E-02  0.9276019E-01
         -2   -1    0    0    0  501 -0.00000000000E+00  0.00000000000E+00  0.30060958531E+03  0.30060958531E+03  0.00000000000E+00 0.  1.
          1   -1    0    0  501    0  0.00000000000E+00 -0.00000000000E+00 -0.88264843115E+03  0.88264843115E+03  0.00000000000E+00 0. -1.
        -24    2    1    2    0    0 -0.31373666638E+02 -0.52655861774E+02 -0.12392782855E+03  0.16552850400E+03  0.91019955012E+02 0.  0.
        254    2    1    2    0    0  0.31373666638E+02  0.52655861774E+02 -0.45811101729E+03  0.10177295125E+04  0.90672526690E+03 0.  0.
         23    2    4    4    0    0 -0.14902429816E+03 -0.38673676915E+03 -0.23636732830E+03  0.48558676799E+03  0.90285244170E+02 0.  0.
         23    2    4    4    0    0  0.18039796480E+03  0.43939263092E+03 -0.22174368900E+03  0.53214274446E+03  0.91631474220E+02 0.  0.
          3    1    3    3  502    0 -0.21342290971E+02 -0.94334360964E+01 -0.11855923495E+03  0.12083366788E+03  0.00000000000E+00 0. -1.
         -4    1    3    3    0  502 -0.10031375667E+02 -0.43222425678E+02 -0.53685936033E+01  0.44694836128E+02  0.00000000000E+00 0.  1.
         11    1    5    5    0    0 -0.31661421435E+02 -0.20659539876E+03 -0.10967588037E+03  0.23603580900E+03  0.00000000000E+00 0. -1.
        -11    1    5    5    0    0 -0.11736287672E+03 -0.18014137039E+03 -0.12669144792E+03  0.24955095900E+03  0.00000000000E+00 0.  1.
          2    1    6    6  503    0  0.15627021237E+03  0.43025501261E+03 -0.21315824269E+03  0.50495167252E+03  0.00000000000E+00 0. -1.
         -2    1    6    6    0  503  0.24127752423E+02  0.91376183096E+01 -0.85854463046E+01  0.27191071947E+02  0.00000000000E+00 0.  1.
<mgrwt>
<rscale>  0 0.10302089E+04</rscale>
<asrwt>0</asrwt>
<pdfrwt beam="1">  1        1 0.13579206E+00 0.10302089E+04</pdfrwt>
<pdfrwt beam="2">  1       -2 0.46247630E-01 0.10302089E+04</pdfrwt>
<totfact> 0.73112993E+01</totfact>
</mgrwt>
</event>
<event>
12    4  0.4413110E-008  0.4865739E+04  0.7818608E-02  0.7849559E-01
         -2   -1    0    0    0  501 -0.00000000000E+00  0.00000000000E+00  0.26224877607E+04  0.26224877607E+04  0.00000000000E+00 0.  1.
          1   -1    0    0  501    0  0.00000000000E+00 -0.00000000000E+00 -0.22569614867E+04  0.22569614867E+04  0.00000000000E+00 0. -1.
        -24    2    1    2    0    0  0.13462503856E+04  0.85106085974E+03  0.19051212385E+04  0.24844596625E+04  0.79738281625E+02 0.  0.
        254    2    1    2    0    0 -0.13462503856E+04 -0.85106085974E+03 -0.15395949645E+04  0.23949895849E+04  0.91045470474E+03 0.  0.
         23    2    4    4    0    0 -0.18393914432E+03 -0.29913969277E+03 -0.86907254015E+03  0.94134221356E+03  0.86717463016E+02 0.  0.
         23    2    4    4    0    0 -0.11623112413E+04 -0.55192116697E+03 -0.67052242437E+03  0.14536473714E+04  0.88915479648E+02 0.  0.
          1    1    3    3  502    0  0.20239648857E+03  0.99664261273E+02  0.29207482319E+03  0.36905962377E+03  0.00000000000E+00 0. -1.
         -2    1    3    3    0  502  0.11438538970E+04  0.75139659847E+03  0.16130464153E+04  0.21154000387E+04  0.00000000000E+00 0.  1.
         11    1    5    5    0    0 -0.17798339108E+03 -0.25370817545E+03 -0.80480149562E+03  0.86241021164E+03  0.00000000000E+00 0. -1.
        -11    1    5    5    0    0 -0.59557532439E+01 -0.45431517320E+02 -0.64271044524E+02  0.78932001919E+02  0.00000000000E+00 0.  1.
          4    1    6    6  503    0 -0.11049605097E+04 -0.50465697874E+03 -0.62038418827E+03  0.13639988765E+04  0.00000000000E+00 0. -1.
         -4    1    6    6    0  503 -0.57350731593E+02 -0.47264188234E+02 -0.50138236098E+02  0.89648494816E+02  0.00000000000E+00 0.  1.
<mgrwt>
<rscale>  0 0.48657389E+04</rscale>
<asrwt>0</asrwt>
<pdfrwt beam="1">  1        1 0.34722484E+00 0.48657389E+04</pdfrwt>
<pdfrwt beam="2">  1       -2 0.40345966E+00 0.48657389E+04</pdfrwt>
<totfact> 0.90017973E-03</totfact>
</mgrwt>
</event>
<event>
12    4  0.4413110E-008  0.1484597E+04  0.7818608E-02  0.8894761E-01
          1   -1    0    0  501    0  0.00000000000E+00  0.00000000000E+00  0.12160151035E+04  0.12160151035E+04  0.00000000000E+00 0. -1.
         -2   -1    0    0    0  501 -0.00000000000E+00 -0.00000000000E+00 -0.45312501670E+03  0.45312501670E+03  0.00000000000E+00 0.  1.
        -24    2    1    2    0    0 -0.30713661036E+02 -0.27333535315E+02  0.76558487668E+03  0.77134786906E+03  0.84657430696E+02 0.  0.
        254    2    1    2    0    0  0.30713661036E+02  0.27333535315E+02 -0.26947899181E+01  0.89779225111E+03  0.89684625947E+03 0.  0.
         23    2    4    4    0    0 -0.16540809674E+02 -0.41029914251E+03  0.10954960366E+03  0.43475145080E+03  0.91589975319E+02 0.  0.
         23    2    4    4    0    0  0.47254470710E+02  0.43763267783E+03 -0.11224439357E+03  0.46304080031E+03  0.89736465062E+02 0.  0.
          1    1    3    3  502    0 -0.25408750450E+02 -0.20984660997E+02  0.76133285896E+03  0.76204572220E+03  0.00000000000E+00 0. -1.
         -2    1    3    3    0  502 -0.53049105865E+01 -0.63488743177E+01  0.42520177224E+01  0.93021468567E+01  0.00000000000E+00 0.  1.
         11    1    5    5    0    0  0.80474760822E+01 -0.47145209325E+02  0.43845377328E+02  0.64883354928E+02  0.00000000000E+00 0. -1.
        -11    1    5    5    0    0 -0.24588285756E+02 -0.36315393318E+03  0.65704226328E+02  0.36986809587E+03  0.00000000000E+00 0.  1.
          1    1    6    6  503    0 -0.11034045025E+02  0.25632413513E+03 -0.87085045665E+02  0.27093840182E+03  0.00000000000E+00 0. -1.
         -1    1    6    6    0  503  0.58288515734E+02  0.18130854269E+03 -0.25159347909E+02  0.19210239849E+03  0.00000000000E+00 0.  1.
<mgrwt>
<rscale>  0 0.14845967E+04</rscale>
<asrwt>0</asrwt>
<pdfrwt beam="1">  1        1 0.18707925E+00 0.14845967E+04</pdfrwt>
<pdfrwt beam="2">  1       -2 0.69711541E-01 0.14845967E+04</pdfrwt>
<totfact> 0.16574573E+01</totfact>
</mgrwt>
</event>
<event>
12    4  0.4413110E-008  0.2577383E+04  0.7818608E-02  0.8375924E-01
         -2   -1    0    0    0  501 -0.00000000000E+00  0.00000000000E+00  0.85225105910E+03  0.85225105910E+03  0.00000000000E+00 0.  1.
          1   -1    0    0  501    0  0.00000000000E+00 -0.00000000000E+00 -0.19486344534E+04  0.19486344534E+04  0.00000000000E+00 0. -1.
        -24    2    1    2    0    0  0.68098539848E+03  0.35175270510E+03  0.41345201196E+03  0.87451047119E+03  0.79717749256E+02 0.  0.
        254    2    1    2    0    0 -0.68098539848E+03 -0.35175270510E+03 -0.15098354062E+04  0.19263750413E+04  0.91861132545E+03 0.  0.
         23    2    4    4    0    0 -0.44944483819E+03 -0.18283262245E+03 -0.12321000575E+03  0.50681899497E+03  0.79097141151E+02 0.  0.
         23    2    4    4    0    0 -0.23154056028E+03 -0.16892008265E+03 -0.13866254005E+04  0.14195560463E+04  0.10131308872E+03 0.  0.
          1    1    3    3  502    0  0.33449782462E+03  0.19138720140E+03  0.16652367577E+03  0.41981899686E+03  0.00000000000E+00 0. -1.
         -2    1    3    3    0  502  0.34648757386E+03  0.16036550370E+03  0.24692833619E+03  0.45469147433E+03  0.00000000000E+00 0.  1.
         11    1    5    5    0    0 -0.24610805631E+03 -0.13752232006E+03 -0.52139065929E+02  0.28670550412E+03  0.00000000000E+00 0. -1.
        -11    1    5    5    0    0 -0.20333678189E+03 -0.45310302390E+02 -0.71070939821E+02  0.22011349086E+03  0.00000000000E+00 0.  1.
          1    1    6    6  503    0 -0.23495430442E+03 -0.13733153208E+03 -0.12320479852E+04  0.12617470875E+04  0.00000000000E+00 0. -1.
         -1    1    6    6    0  503  0.34137441345E+01 -0.31588550575E+02 -0.15457741528E+03  0.15780895885E+03  0.00000000000E+00 0.  1.
<mgrwt>
<rscale>  0 0.25773830E+04</rscale>
<asrwt>0</asrwt>
<pdfrwt beam="1">  1        1 0.29978991E+00 0.25773830E+04</pdfrwt>
<pdfrwt beam="2">  1       -2 0.13111555E+00 0.25773830E+04</pdfrwt>
<totfact> 0.10642144E+00</totfact>
</mgrwt>
</event>
<event>
12    4  0.4413110E-008  0.2290641E+04  0.7818608E-02  0.8481620E-01
          1   -1    0    0  501    0  0.00000000000E+00  0.00000000000E+00  0.15476098229E+04  0.15476098229E+04  0.00000000000E+00 0. -1.
         -2   -1    0    0    0  501 -0.00000000000E+00 -0.00000000000E+00 -0.84760301235E+03  0.84760301235E+03  0.00000000000E+00 0.  1.
        -24    2    1    2    0    0 -0.25743611427E+02 -0.33929097660E+03 -0.65252190153E+03  0.73764585800E+03  0.50551750976E+02 0.  0.
        254    2    1    2    0    0  0.25743611427E+02  0.33929097660E+03  0.13525287121E+04  0.16575669773E+04  0.89577523226E+03 0.  0.
         23    2    4    4    0    0  0.24967924503E+03  0.54082174912E+03  0.64109528305E+03  0.87986648763E+03  0.91290658780E+02 0.  0.
         23    2    4    4    0    0 -0.22393563360E+03 -0.20153077252E+03  0.71143342905E+03  0.77770048964E+03  0.88987119002E+02 0.  0.
          1    1    3    3  502    0 -0.35782470537E+02 -0.14579007011E+03 -0.27511393428E+03  0.31340517956E+03  0.00000000000E+00 0. -1.
         -2    1    3    3    0  502  0.10038859110E+02 -0.19350090649E+03 -0.37740796724E+03  0.42424067844E+03  0.00000000000E+00 0.  1.
         11    1    5    5    0    0  0.15697124414E+03  0.40762387503E+03  0.50810154104E+03  0.67004803633E+03  0.00000000000E+00 0.  1.
        -11    1    5    5    0    0  0.92708000891E+02  0.13319787409E+03  0.13299374201E+03  0.20981845130E+03  0.00000000000E+00 0. -1.
          1    1    6    6  503    0 -0.49965554424E+02 -0.35254374557E+02  0.24896779900E+03  0.25636769003E+03  0.00000000000E+00 0. -1.
         -1    1    6    6    0  503 -0.17397007918E+03 -0.16627639796E+03  0.46246563005E+03  0.52133279961E+03  0.00000000000E+00 0.  1.
<mgrwt>
<rscale>  0 0.22906407E+04</rscale>
<asrwt>0</asrwt>
<pdfrwt beam="1">  1        1 0.23809382E+00 0.22906407E+04</pdfrwt>
<pdfrwt beam="2">  1       -2 0.13040046E+00 0.22906407E+04</pdfrwt>
<totfact> 0.20755064E+00</totfact>
</mgrwt>
</event>
<event>
12    4  0.4413110E-008  0.1592413E+04  0.7818608E-02  0.8825223E-01
          1   -1    0    0  501    0  0.00000000000E+00  0.00000000000E+00  0.21449109183E+04  0.21449109183E+04  0.00000000000E+00 0. -1.
         -2   -1    0    0    0  501 -0.00000000000E+00 -0.00000000000E+00 -0.29555759957E+03  0.29555759957E+03  0.00000000000E+00 0.  1.
        -24    2    1    2    0    0 -0.32396391358E+03  0.20969612785E+03  0.62956406941E+02  0.39897392356E+03  0.79319601432E+02 0.  0.
        254    2    1    2    0    0  0.32396391358E+03 -0.20969612785E+03  0.17863969118E+04  0.20414945943E+04  0.90970389073E+03 0.  0.
         23    2    4    4    0    0 -0.23600504023E+03 -0.31785400094E+03  0.67234937819E+03  0.78685789150E+03  0.10179445043E+03 0.  0.
         23    2    4    4    0    0  0.55996895381E+03  0.10815787309E+03  0.11140475336E+04  0.12546367028E+04  0.88022691220E+02 0.  0.
          3    1    3    3  502    0 -0.61175668878E+02  0.35201328034E+02  0.43543025453E+02  0.82931242748E+02  0.00000000000E+00 0. -1.
         -4    1    3    3    0  502 -0.26278824470E+03  0.17449479982E+03  0.19413381487E+02  0.31604268082E+03  0.00000000000E+00 0.  1.
         11    1    5    5    0    0 -0.19932557723E+03 -0.28387997914E+03  0.63800553192E+03  0.72620216680E+03  0.00000000000E+00 0. -1.
        -11    1    5    5    0    0 -0.36679462997E+02 -0.33974021797E+02  0.34343846265E+02  0.60655724701E+02  0.00000000000E+00 0.  1.
          3    1    6    6  503    0  0.33691096157E+03  0.31071631529E+02  0.59537828831E+03  0.68479905702E+03  0.00000000000E+00 0. -1.
         -3    1    6    6    0  503  0.22305799224E+03  0.77086241559E+02  0.51866924533E+03  0.56983764582E+03  0.00000000000E+00 0.  1.
<mgrwt>
<rscale>  0 0.15924129E+04</rscale>
<asrwt>0</asrwt>
<pdfrwt beam="1">  1        1 0.32998628E+00 0.15924129E+04</pdfrwt>
<pdfrwt beam="2">  1       -2 0.45470401E-01 0.15924129E+04</pdfrwt>
<totfact> 0.91911075E+00</totfact>
</mgrwt>
</event>
<event>
12    4  0.4413110E-008  0.2577133E+04  0.7818608E-02  0.8376010E-01
          1   -1    0    0  501    0  0.00000000000E+00  0.00000000000E+00  0.10197102208E+04  0.10197102208E+04  0.00000000000E+00 0. -1.
         -2   -1    0    0    0  501 -0.00000000000E+00 -0.00000000000E+00 -0.16283093072E+04  0.16283093072E+04  0.00000000000E+00 0.  1.
        -24    2    1    2    0    0  0.40471530766E+03 -0.34618143026E+03 -0.12943794079E+04  0.14020037415E+04  0.80996152728E+02 0.  0.
        254    2    1    2    0    0 -0.40471530766E+03  0.34618143026E+03  0.68578032149E+03  0.12460157864E+04  0.89365800382E+03 0.  0.
         23    2    4    4    0    0 -0.16337422634E+03  0.46345920925E+03  0.79824018469E+03  0.94159215621E+03  0.89010222542E+02 0.  0.
         23    2    4    4    0    0 -0.24134108131E+03 -0.11727777899E+03 -0.11245986319E+03  0.30442363022E+03  0.89593140545E+02 0.  0.
          3    1    3    3  502    0  0.34524187680E+02 -0.41876284366E+02 -0.20141989314E+03  0.20860372979E+03  0.00000000000E+00 0. -1.
         -4    1    3    3    0  502  0.37019111998E+03 -0.30430514590E+03 -0.10929595147E+04  0.11934000117E+04  0.00000000000E+00 0.  1.
         11    1    5    5    0    0  0.75249261916E+01  0.31611412153E+02  0.32116253266E+02  0.45687630890E+02  0.00000000000E+00 0. -1.
        -11    1    5    5    0    0 -0.17089915254E+03  0.43184779710E+03  0.76612393142E+03  0.89590452532E+03  0.00000000000E+00 0.  1.
          2    1    6    6  503    0 -0.50290373000E+02  0.11790351888E+02 -0.28883283483E+02  0.59180892853E+02  0.00000000000E+00 0. -1.
         -2    1    6    6    0  503 -0.19105070831E+03 -0.12906813088E+03 -0.83576579711E+02  0.24524273737E+03  0.00000000000E+00 0.  1.
<mgrwt>
<rscale>  0 0.25771330E+04</rscale>
<asrwt>0</asrwt>
<pdfrwt beam="1">  1        1 0.15687850E+00 0.25771330E+04</pdfrwt>
<pdfrwt beam="2">  1       -2 0.25050912E+00 0.25771330E+04</pdfrwt>
<totfact> 0.72125092E-01</totfact>
</mgrwt>
</event>
<event>
12    4  0.4413110E-008  0.1804702E+04  0.7818608E-02  0.8703803E-01
          1   -1    0    0  501    0  0.00000000000E+00  0.00000000000E+00  0.17752622598E+04  0.17752622598E+04  0.00000000000E+00 0. -1.
         -2   -1    0    0    0  501 -0.00000000000E+00 -0.00000000000E+00 -0.45865767042E+03  0.45865767042E+03  0.00000000000E+00 0.  1.
        -24    2    1    2    0    0  0.25571956466E+03 -0.34185315222E+03 -0.15126442956E+03  0.45995068046E+03  0.80110095287E+02 0.  0.
        254    2    1    2    0    0 -0.25571956466E+03  0.34185315222E+03  0.14678690189E+04  0.17739692498E+04  0.90003964853E+03 0.  0.
         23    2    4    4    0    0 -0.54039984642E+03  0.55031429584E+02  0.10531514701E+04  0.11884643227E+04  0.90878903458E+02 0.  0.
         23    2    4    4    0    0  0.28468028176E+03  0.28682172264E+03  0.41471754882E+03  0.58550492705E+03  0.86693776588E+02 0.  0.
          1    1    3    3  502    0 -0.11141699081E+01 -0.12212632863E+01  0.52764853520E+01  0.55293902258E+01  0.00000000000E+00 0. -1.
         -2    1    3    3    0  502  0.25683373457E+03 -0.34063188894E+03 -0.15654091491E+03  0.45442129023E+03  0.00000000000E+00 0.  1.
         11    1    5    5    0    0 -0.40199359900E+03  0.71877262644E+02  0.72875743750E+03  0.83537572220E+03  0.00000000000E+00 0. -1.
        -11    1    5    5    0    0 -0.13840624743E+03 -0.16845833060E+02  0.32439403262E+03  0.35308860053E+03  0.00000000000E+00 0.  1.
          4    1    6    6  503    0  0.92961089352E+02  0.47861279280E+02  0.13412618309E+03  0.17006557317E+03  0.00000000000E+00 0. -1.
         -4    1    6    6    0  503  0.19171919241E+03  0.23896044336E+03  0.28059136572E+03  0.41543935387E+03  0.00000000000E+00 0.  1.
<mgrwt>
<rscale>  0 0.18047024E+04</rscale>
<asrwt>0</asrwt>
<pdfrwt beam="1">  1        1 0.27311727E+00 0.18047024E+04</pdfrwt>
<pdfrwt beam="2">  1       -2 0.70562719E-01 0.18047024E+04</pdfrwt>
<totfact> 0.64054871E+00</totfact>
</mgrwt>
</event>
<event>
12    4  0.4413110E-008  0.1430138E+04  0.7818608E-02  0.8932287E-01
          3   -1    0    0  501    0  0.00000000000E+00  0.00000000000E+00  0.27250975733E+03  0.27250975733E+03  0.00000000000E+00 0. -1.
         -4   -1    0    0    0  501 -0.00000000000E+00 -0.00000000000E+00 -0.18763502182E+04  0.18763502182E+04  0.00000000000E+00 0.  1.
        -24    2    1    2    0    0 -0.45424768485E+03  0.10689723354E+03 -0.56629021112E+03  0.73803506408E+03  0.79013763795E+02 0.  0.
        254    2    1    2    0    0  0.45424768485E+03 -0.10689723354E+03 -0.10375502498E+04  0.14108249115E+04  0.83435509965E+03 0.  0.
         23    2    4    4    0    0 -0.12324074529E+03 -0.21060911275E+03 -0.65258659657E+03  0.70248810196E+03  0.89865386556E+02 0.  0.
         23    2    4    4    0    0  0.57748843014E+03  0.10371187921E+03 -0.38496365324E+03  0.70833680954E+03  0.96410479729E+02 0.  0.
          3    1    3    3  502    0 -0.33717347840E+02  0.23173752995E+02 -0.78910116061E+02  0.88885818835E+02  0.00000000000E+00 0. -1.
         -4    1    3    3    0  502 -0.42053033701E+03  0.83723480540E+02 -0.48738009506E+03  0.64914924524E+03  0.00000000000E+00 0.  1.
         11    1    5    5    0    0 -0.46137440096E+02 -0.15362968726E+03 -0.46374009132E+03  0.49069910993E+03  0.00000000000E+00 0. -1.
        -11    1    5    5    0    0 -0.77103305198E+02 -0.56979425489E+02 -0.18884650525E+03  0.21178899203E+03  0.00000000000E+00 0.  1.
          3    1    6    6  503    0  0.52337365827E+03  0.63579415100E+02 -0.34074950385E+03  0.62775198333E+03  0.00000000000E+00 0. -1.
         -3    1    6    6    0  503  0.54114771873E+02  0.40132464111E+02 -0.44214149388E+02  0.80584826218E+02  0.00000000000E+00 0.  1.
<mgrwt>
<rscale>  0 0.14301381E+04</rscale>
<asrwt>0</asrwt>
<pdfrwt beam="1">  1        3 0.41924577E-01 0.14301381E+04</pdfrwt>
<pdfrwt beam="2">  1       -4 0.28866927E+00 0.14301381E+04</pdfrwt>
<totfact> 0.45968878E-01</totfact>
</mgrwt>
</event>
<event>
12    4  0.4413110E-008  0.2194710E+04  0.7818608E-02  0.8520633E-01
         -2   -1    0    0    0  501 -0.00000000000E+00  0.00000000000E+00  0.14299101149E+04  0.14299101149E+04  0.00000000000E+00 0.  1.
          1   -1    0    0  501    0  0.00000000000E+00 -0.00000000000E+00 -0.84214211699E+03  0.84214211699E+03  0.00000000000E+00 0. -1.
        -24    2    1    2    0    0 -0.91139339138E+03 -0.22995563503E+02  0.27727268066E+03  0.95580142051E+03  0.74226048113E+02 0.  0.
        254    2    1    2    0    0  0.91139339138E+03  0.22995563503E+02  0.31049531724E+03  0.13162508114E+04  0.89718568125E+03 0.  0.
         23    2    4    4    0    0 -0.92503441173E+02 -0.20447096548E+03  0.97625711791E+02  0.26125404055E+03  0.91420083955E+02 0.  0.
         23    2    4    4    0    0  0.10038968325E+04  0.22746652898E+03  0.21286960545E+03  0.10549967708E+04  0.90304182183E+02 0.  0.
          3    1    3    3  502    0 -0.89749205451E+03 -0.20050476199E+02  0.28176868899E+03  0.94089723328E+03  0.00000000000E+00 0. -1.
         -4    1    3    3    0  502 -0.13901336862E+02 -0.29450873043E+01 -0.44960083310E+01  0.14904187221E+02  0.00000000000E+00 0.  1.
         11    1    5    5    0    0  0.12396863237E+02 -0.28868847987E+02 -0.59503261547E+01  0.31976538017E+02  0.00000000000E+00 0. -1.
        -11    1    5    5    0    0 -0.10490030441E+03 -0.17560211749E+03  0.10357603795E+03  0.22927750253E+03  0.00000000000E+00 0.  1.
          4    1    6    6  503    0  0.16436428254E+03  0.56505564097E+02  0.75207137578E+01  0.17396855257E+03  0.00000000000E+00 0. -1.
         -4    1    6    6    0  503  0.83953255001E+03  0.17096096488E+03  0.20534889169E+03  0.88102821825E+03  0.00000000000E+00 0.  1.
<mgrwt>
<rscale>  0 0.21947096E+04</rscale>
<asrwt>0</asrwt>
<pdfrwt beam="1">  1        1 0.12956033E+00 0.21947096E+04</pdfrwt>
<pdfrwt beam="2">  1       -2 0.21998617E+00 0.21947096E+04</pdfrwt>
<totfact> 0.16067931E+00</totfact>
</mgrwt>
</event>
<event>
12    4  0.4413110E-008  0.1424123E+04  0.7818608E-02  0.8936540E-01
         -2   -1    0    0    0  501 -0.00000000000E+00  0.00000000000E+00  0.15504046005E+04  0.15504046005E+04  0.00000000000E+00 0.  1.
          1   -1    0    0  501    0  0.00000000000E+00 -0.00000000000E+00 -0.32703187806E+03  0.32703187806E+03  0.00000000000E+00 0. -1.
        -24    2    1    2    0    0  0.13222680626E+03  0.24875831860E+03 -0.57108400627E+02  0.30005205421E+03  0.86053683517E+02 0.  0.
        254    2    1    2    0    0 -0.13222680626E+03 -0.24875831860E+03  0.12804811231E+04  0.15773844244E+04  0.87700917115E+03 0.  0.
         23    2    4    4    0    0 -0.32146826900E+03 -0.48266123134E+03  0.97741379247E+03  0.11403900071E+04  0.94063458791E+02 0.  0.
         23    2    4    4    0    0  0.18924146274E+03  0.23390291274E+03  0.30306733065E+03  0.43699441733E+03  0.92689859584E+02 0.  0.
          3    1    3    3  502    0  0.13185310505E+03  0.16773537075E+03 -0.36581281494E+02  0.21646844128E+03  0.00000000000E+00 0. -1.
         -4    1    3    3    0  502  0.37370120632E+00  0.81022947855E+02 -0.20527119133E+02  0.83583612937E+02  0.00000000000E+00 0.  1.
         11    1    5    5    0    0 -0.11755572042E+03 -0.24593507633E+03  0.50778478192E+03  0.57632351499E+03  0.00000000000E+00 0. -1.
        -11    1    5    5    0    0 -0.20391254858E+03 -0.23672615500E+03  0.46962901055E+03  0.56406649207E+03  0.00000000000E+00 0.  1.
          1    1    6    6  503    0  0.59267628761E+02  0.73281148628E+02  0.39750748471E+02  0.10228832078E+03  0.00000000000E+00 0. -1.
         -1    1    6    6    0  503  0.12997383398E+03  0.16062176411E+03  0.26331658218E+03  0.33470609656E+03  0.00000000000E+00 0.  1.
<mgrwt>
<rscale>  0 0.14241232E+04</rscale>
<asrwt>0</asrwt>
<pdfrwt beam="1">  1        1 0.50312598E-01 0.14241232E+04</pdfrwt>
<pdfrwt beam="2">  1       -2 0.23852378E+00 0.14241232E+04</pdfrwt>
<totfact> 0.50374496E+00</totfact>
</mgrwt>
</event>
<event>
12    4  0.4413110E-008  0.2709300E+04  0.7818608E-02  0.8331994E-01
          1   -1    0    0  501    0  0.00000000000E+00  0.00000000000E+00  0.17090326556E+04  0.17090326556E+04  0.00000000000E+00 0. -1.
         -2   -1    0    0    0  501 -0.00000000000E+00 -0.00000000000E+00 -0.10737520361E+04  0.10737520361E+04  0.00000000000E+00 0.  1.
        -24    2    1    2    0    0  0.25824078502E+03 -0.66792935900E+03 -0.68405676580E+03  0.99353133844E+03  0.79705269394E+02 0.  0.
        254    2    1    2    0    0 -0.25824078502E+03  0.66792935900E+03  0.13193373853E+04  0.17892533532E+04  0.97363160081E+03 0.  0.
         23    2    4    4    0    0 -0.57615778244E+03  0.61760482515E+03  0.10967812225E+04  0.13871584805E+04  0.88803659413E+02 0.  0.
         23    2    4    4    0    0  0.31791699741E+03  0.50324533856E+02  0.22255616288E+03  0.40209487269E+03  0.92440602875E+02 0.  0.
          3    1    3    3  502    0  0.41438171295E+02 -0.48257463395E+02 -0.51067554819E+02  0.81570827927E+02  0.00000000000E+00 0. -1.
         -4    1    3    3    0  502  0.21680261373E+03 -0.61967189561E+03 -0.63298921098E+03  0.91196051052E+03  0.00000000000E+00 0.  1.
         11    1    5    5    0    0 -0.32656670926E+02  0.71904998057E+02  0.95205876347E+02  0.12369699185E+03  0.00000000000E+00 0.  1.
        -11    1    5    5    0    0 -0.54350111151E+03  0.54569982709E+03  0.10015753461E+04  0.12634614887E+04  0.00000000000E+00 0. -1.
          4    1    6    6  503    0  0.27620719324E+03  0.75270754782E+02  0.18939108778E+03  0.34325658662E+03  0.00000000000E+00 0. -1.
         -4    1    6    6    0  503  0.41709804169E+02 -0.24946220925E+02  0.33165075095E+02  0.58838286076E+02  0.00000000000E+00 0.  1.
<mgrwt>
<rscale>  0 0.27093005E+04</rscale>
<asrwt>0</asrwt>
<pdfrwt beam="1">  1        1 0.26292810E+00 0.27093005E+04</pdfrwt>
<pdfrwt beam="2">  1       -2 0.16519262E+00 0.27093005E+04</pdfrwt>
<totfact> 0.83120841E-01</totfact>
</mgrwt>
</event>
<event>
12    4  0.4413110E-008  0.1703123E+04  0.7818608E-02  0.8759585E-01
          1   -1    0    0  501    0  0.00000000000E+00  0.00000000000E+00  0.10474772757E+04  0.10474772757E+04  0.00000000000E+00 0. -1.
         -2   -1    0    0    0  501 -0.00000000000E+00 -0.00000000000E+00 -0.69228885660E+03  0.69228885660E+03  0.00000000000E+00 0.  1.
        -24    2    1    2    0    0  0.13665631928E+03 -0.55687712229E+03  0.34534008875E+03  0.67404518257E+03  0.79309850108E+02 0.  0.
        254    2    1    2    0    0 -0.13665631928E+03  0.55687712229E+03  0.98483303665E+01  0.10657209497E+04  0.89826336572E+03 0.  0.
         23    2    4    4    0    0  0.34865451754E+03  0.68909246350E+02  0.49152804900E+02  0.37031797480E+03  0.91711217394E+02 0.  0.
         23    2    4    4    0    0 -0.48531083681E+03  0.48796787594E+03 -0.39304474533E+02  0.69540297495E+03  0.91658057877E+02 0.  0.
          1    1    3    3  502    0  0.32521173188E+01 -0.31918805851E+02  0.43260894747E+02  0.53859924325E+02  0.00000000000E+00 0. -1.
         -2    1    3    3    0  502  0.13340420196E+03 -0.52495831644E+03  0.30207919400E+03  0.62018525825E+03  0.00000000000E+00 0.  1.
         11    1    5    5    0    0  0.17642827615E+02 -0.89922988950E+01  0.21363308621E+02  0.29129396851E+02  0.00000000000E+00 0.  1.
        -11    1    5    5    0    0  0.33101168992E+03  0.77901545245E+02  0.27789496279E+02  0.34118857794E+03  0.00000000000E+00 0. -1.
          1    1    6    6  503    0 -0.38831379896E+03  0.42048314215E+03 -0.59806128094E+02  0.57547411084E+03  0.00000000000E+00 0. -1.
         -1    1    6    6    0  503 -0.96997037856E+02  0.67484733793E+02  0.20501653560E+02  0.11992886411E+03  0.00000000000E+00 0.  1.
<mgrwt>
<rscale>  0 0.17031228E+04</rscale>
<asrwt>0</asrwt>
<pdfrwt beam="1">  1        1 0.16115035E+00 0.17031228E+04</pdfrwt>
<pdfrwt beam="2">  1       -2 0.10650598E+00 0.17031228E+04</pdfrwt>
<totfact> 0.82364248E+00</totfact>
</mgrwt>
</event>
<event>
12    4  0.4413110E-008  0.1824817E+04  0.7818608E-02  0.8693212E-01
         -4   -1    0    0    0  501 -0.00000000000E+00  0.00000000000E+00  0.29831714587E+03  0.29831714587E+03  0.00000000000E+00 0.  1.
          1   -1    0    0  501    0  0.00000000000E+00 -0.00000000000E+00 -0.27906174053E+04  0.27906174053E+04  0.00000000000E+00 0. -1.
        -24    2    1    2    0    0 -0.68164782811E+03 -0.82947081507E+01 -0.81484614596E+03  0.10648861318E+04  0.72771343331E+02 0.  0.
        254    2    1    2    0    0  0.68164782811E+03  0.82947081507E+01 -0.16774541135E+04  0.20240484193E+04  0.90454802930E+03 0.  0.
         23    2    4    4    0    0  0.44166970513E+02 -0.14341433036E+03  0.42732522115E+02  0.18106652700E+03  0.91872886736E+02 0.  0.
         23    2    4    4    0    0  0.63748085760E+03  0.15170903851E+03 -0.17201866356E+04  0.18429818923E+04  0.90237010720E+02 0.  0.
          3    1    3    3  502    0 -0.10061547835E+02  0.61304619333E+01 -0.52563655882E+01  0.12901421920E+02  0.00000000000E+00 0. -1.
         -4    1    3    3    0  502 -0.67158628028E+03 -0.14425170084E+02 -0.80958978037E+03  0.10519847099E+04  0.00000000000E+00 0.  1.
         11    1    5    5    0    0  0.68972790346E+02 -0.12636382089E+03  0.24957276602E+02  0.14610929708E+03  0.00000000000E+00 0. -1.
        -11    1    5    5    0    0 -0.24805819833E+02 -0.17050509472E+02  0.17775245513E+02  0.34957229923E+02  0.00000000000E+00 0.  1.
          2    1    6    6  503    0  0.44883453249E+03  0.14796773583E+03 -0.12092647129E+04  0.12983327903E+04  0.00000000000E+00 0. -1.
         -2    1    6    6    0  503  0.18864632511E+03  0.37413026785E+01 -0.51092192269E+03  0.54464910209E+03  0.00000000000E+00 0.  1.
<mgrwt>
<rscale>  0 0.18248167E+04</rscale>
<asrwt>0</asrwt>
<pdfrwt beam="1">  1        1 0.42932574E+00 0.18248167E+04</pdfrwt>
<pdfrwt beam="2">  1       -4 0.45894947E-01 0.18248167E+04</pdfrwt>
<totfact> 0.18303920E+00</totfact>
</mgrwt>
</event>
<event>
12    4  0.4413110E-008  0.1645624E+04  0.7818608E-02  0.8792999E-01
          1   -1    0    0  501    0  0.00000000000E+00  0.00000000000E+00  0.97996609632E+03  0.97996609632E+03  0.00000000000E+00 0. -1.
         -2   -1    0    0    0  501 -0.00000000000E+00 -0.00000000000E+00 -0.69086021837E+03  0.69086021837E+03  0.00000000000E+00 0.  1.
        -24    2    1    2    0    0  0.12397992452E+03 -0.52031721692E+03 -0.11044299247E+03  0.55194341589E+03  0.79642023169E+02 0.  0.
        254    2    1    2    0    0 -0.12397992452E+03  0.52031721692E+03  0.39954887043E+03  0.11188828988E+04  0.89786336013E+03 0.  0.
         23    2    4    4    0    0  0.98352728894E+01 -0.16800405849E+03  0.36269008885E+03  0.41018884173E+03  0.91589786930E+02 0.  0.
         23    2    4    4    0    0 -0.13381519741E+03  0.68832127540E+03  0.36858781572E+02  0.70869405706E+03  0.95895836749E+02 0.  0.
          1    1    3    3  502    0  0.80736166969E+02 -0.45218081211E+03 -0.10419345679E+03  0.47100115917E+03  0.00000000000E+00 0. -1.
         -2    1    3    3    0  502  0.43243757554E+02 -0.68136404806E+02 -0.62495356740E+01  0.80942256723E+02  0.00000000000E+00 0.  1.
         11    1    5    5    0    0 -0.23471972843E+02 -0.52926979558E+02  0.19959267821E+03  0.20782068201E+03  0.00000000000E+00 0. -1.
        -11    1    5    5    0    0  0.33307245733E+02 -0.11507707893E+03  0.16309741064E+03  0.20236815972E+03  0.00000000000E+00 0.  1.
          4    1    6    6  503    0 -0.92779647804E+02  0.28853229030E+03  0.46840865971E+02  0.30668063570E+03  0.00000000000E+00 0.  1.
         -4    1    6    6    0  503 -0.41035549609E+02  0.39978898511E+03 -0.99820843987E+01  0.40201342136E+03  0.00000000000E+00 0. -1.
<mgrwt>
<rscale>  0 0.16456240E+04</rscale>
<asrwt>0</asrwt>
<pdfrwt beam="1">  1        1 0.15076401E+00 0.16456240E+04</pdfrwt>
<pdfrwt beam="2">  1       -2 0.10628619E+00 0.16456240E+04</pdfrwt>
<totfact> 0.93855032E+00</totfact>
</mgrwt>
</event>
<event>
12    4  0.4413110E-008  0.1862830E+04  0.7818608E-02  0.8673583E-01
         -2   -1    0    0    0  501 -0.00000000000E+00  0.00000000000E+00  0.42425705740E+03  0.42425705740E+03  0.00000000000E+00 0.  1.
          1   -1    0    0  501    0  0.00000000000E+00 -0.00000000000E+00 -0.20448300080E+04  0.20448300080E+04  0.00000000000E+00 0. -1.
        -24    2    1    2    0    0  0.46304116548E+03  0.26632200918E+03 -0.12500696359E+04  0.13616444908E+04  0.77891535025E+02 0.  0.
        254    2    1    2    0    0 -0.46304116548E+03 -0.26632200918E+03 -0.37050331474E+03  0.11074425746E+04  0.89656110579E+03 0.  0.
         23    2    4    4    0    0 -0.62961848273E+03 -0.34870365287E+03 -0.52272330827E+02  0.72773085241E+03  0.94053844471E+02 0.  0.
         23    2    4    4    0    0  0.16657731725E+03  0.82381643696E+02 -0.31823098391E+03  0.37971172224E+03  0.91516638064E+02 0.  0.
          1    1    3    3  502    0  0.31913818164E+03  0.21397928103E+03 -0.83280038648E+03  0.91716563140E+03  0.00000000000E+00 0. -1.
         -2    1    3    3    0  502  0.14390298384E+03  0.52342728147E+02 -0.41726924941E+03  0.44447885940E+03  0.00000000000E+00 0.  1.
         11    1    5    5    0    0 -0.61339574922E+03 -0.35299626388E+03 -0.57777976632E+02  0.71006971633E+03  0.00000000000E+00 0. -1.
        -11    1    5    5    0    0 -0.16222733513E+02  0.42926110047E+01  0.55056458053E+01  0.17661136079E+02  0.00000000000E+00 0.  1.
          2    1    6    6  503    0  0.56833353056E+02  0.65742808649E+02 -0.85725206828E+02  0.12206948019E+03  0.00000000000E+00 0. -1.
         -2    1    6    6    0  503  0.10974396419E+03  0.16638835048E+02 -0.23250577708E+03  0.25764224205E+03  0.00000000000E+00 0.  1.
<mgrwt>
<rscale>  0 0.18628296E+04</rscale>
<asrwt>0</asrwt>
<pdfrwt beam="1">  1        1 0.31458923E+00 0.18628296E+04</pdfrwt>
<pdfrwt beam="2">  1       -2 0.65270316E-01 0.18628296E+04</pdfrwt>
<totfact> 0.49550605E+00</totfact>
</mgrwt>
</event>
<event>
12    4  0.4413110E-008  0.2514846E+04  0.7818608E-02  0.8397716E-01
          1   -1    0    0  501    0  0.00000000000E+00  0.00000000000E+00  0.13789332351E+04  0.13789332351E+04  0.00000000000E+00 0. -1.
         -2   -1    0    0    0  501 -0.00000000000E+00 -0.00000000000E+00 -0.11466203130E+04  0.11466203130E+04  0.00000000000E+00 0.  1.
        -24    2    1    2    0    0 -0.19793928948E+03  0.85418042363E+03 -0.55792086106E+03  0.10423435631E+04  0.80001612072E+02 0.  0.
        254    2    1    2    0    0  0.19793928948E+03 -0.85418042363E+03  0.79023378318E+03  0.14832099850E+04  0.89813042996E+03 0.  0.
         23    2    4    4    0    0 -0.18569838349E+02 -0.94829500447E+03  0.43646747609E+03  0.10481157832E+04  0.91839985912E+02 0.  0.
         23    2    4    4    0    0  0.21650912783E+03  0.94114580837E+02  0.35376630709E+03  0.43509420180E+03  0.91774765850E+02 0.  0.
          3    1    3    3  502    0 -0.11456501077E+03  0.41590162572E+03 -0.31675277282E+03  0.53519307082E+03  0.00000000000E+00 0. -1.
         -4    1    3    3    0  502 -0.83374278712E+02  0.43827879791E+03 -0.24116808824E+03  0.50715049229E+03  0.00000000000E+00 0.  1.
         11    1    5    5    0    0 -0.36608039326E+02 -0.44372882501E+03  0.16463263661E+03  0.47469919288E+03  0.00000000000E+00 0.  1.
        -11    1    5    5    0    0  0.18038200977E+02 -0.50456617946E+03  0.27183483949E+03  0.57341659037E+03  0.00000000000E+00 0. -1.
          1    1    6    6  503    0  0.29808142436E+02 -0.94495425112E+01  0.15045999130E+02  0.34701603695E+02  0.00000000000E+00 0. -1.
         -1    1    6    6    0  503  0.18670098540E+03  0.10356412335E+03  0.33872030796E+03  0.40039259810E+03  0.00000000000E+00 0.  1.
<mgrwt>
<rscale>  0 0.25148462E+04</rscale>
<asrwt>0</asrwt>
<pdfrwt beam="1">  1        1 0.21214357E+00 0.25148462E+04</pdfrwt>
<pdfrwt beam="2">  1       -2 0.17640313E+00 0.25148462E+04</pdfrwt>
<totfact> 0.11893839E+00</totfact>
</mgrwt>
</event>
<event>
12    4  0.4413110E-008  0.1760553E+04  0.7818608E-02  0.8727563E-01
          1   -1    0    0  501    0  0.00000000000E+00  0.00000000000E+00  0.89873919272E+03  0.89873919272E+03  0.00000000000E+00 0. -1.
         -2   -1    0    0    0  501 -0.00000000000E+00 -0.00000000000E+00 -0.86219289175E+03  0.86219289175E+03  0.00000000000E+00 0.  1.
        -24    2    1    2    0    0 -0.52055198735E+03 -0.35322770810E+03  0.14959586627E+03  0.65144724120E+03  0.79122686749E+02 0.  0.
        254    2    1    2    0    0  0.52055198735E+03  0.35322770810E+03 -0.11304956531E+03  0.11094848433E+04  0.90688049265E+03 0.  0.
         23    2    4    4    0    0  0.22052391137E+03  0.17281535681E+03  0.39050719601E+03  0.48909752519E+03  0.90689448002E+02 0.  0.
         23    2    4    4    0    0  0.30002807598E+03  0.18041235129E+03 -0.50355676131E+03  0.62038731809E+03  0.93517643868E+02 0.  0.
          1    1    3    3  502    0 -0.31703393598E+03 -0.25373636234E+03  0.74935086124E+02  0.41292605303E+03  0.00000000000E+00 0. -1.
         -2    1    3    3    0  502 -0.20351805137E+03 -0.99491345754E+02  0.74660780151E+02  0.23852118817E+03  0.00000000000E+00 0.  1.
         11    1    5    5    0    0  0.37539287397E+02  0.66381501844E+01  0.10363272583E+03  0.11042194075E+03  0.00000000000E+00 0.  1.
        -11    1    5    5    0    0  0.18298462398E+03  0.16617720662E+03  0.28687447018E+03  0.37867558444E+03  0.00000000000E+00 0. -1.
          3    1    6    6  503    0  0.19428019401E+03  0.11531547850E+03 -0.39688130652E+03  0.45668065958E+03  0.00000000000E+00 0. -1.
         -3    1    6    6    0  503  0.10574788196E+03  0.65096872794E+02 -0.10667545479E+03  0.16370665851E+03  0.00000000000E+00 0.  1.
<mgrwt>
<rscale>  0 0.17605528E+04</rscale>
<asrwt>0</asrwt>
<pdfrwt beam="1">  1        1 0.13826757E+00 0.17605528E+04</pdfrwt>
<pdfrwt beam="2">  1       -2 0.13264506E+00 0.17605528E+04</pdfrwt>
<totfact> 0.62436712E+00</totfact>
</mgrwt>
</event>
<event>
12    4  0.4413110E-008  0.1865485E+04  0.7818608E-02  0.8672230E-01
         -2   -1    0    0    0  501 -0.00000000000E+00  0.00000000000E+00  0.21261124025E+03  0.21261124025E+03  0.00000000000E+00 0.  1.
          1   -1    0    0  501    0  0.00000000000E+00 -0.00000000000E+00 -0.40920177206E+04  0.40920177206E+04  0.00000000000E+00 0. -1.
        -24    2    1    2    0    0  0.30839815488E+03 -0.57854321559E+03 -0.84095372678E+03  0.10692391822E+04  0.79041659044E+02 0.  0.
        254    2    1    2    0    0 -0.30839815488E+03  0.57854321559E+03 -0.30384527536E+04  0.32353897787E+04  0.89762476019E+03 0.  0.
         23    2    4    4    0    0  0.20285194002E+03  0.64971720167E+02 -0.20681045835E+03  0.31119866575E+03  0.93294211468E+02 0.  0.
         23    2    4    4    0    0 -0.51125009490E+03  0.51357149542E+03 -0.28316422952E+04  0.29241911129E+04  0.86966869764E+02 0.  0.
          3    1    3    3  502    0  0.11970166588E+03 -0.22686403647E+03 -0.26787380481E+03  0.37088024369E+03  0.00000000000E+00 0. -1.
         -4    1    3    3    0  502  0.18869648900E+03 -0.35167917913E+03 -0.57307992197E+03  0.69835893849E+03  0.00000000000E+00 0.  1.
         11    1    5    5    0    0  0.20851411090E+03  0.47072523291E+02 -0.19056921109E+03  0.28637489609E+03  0.00000000000E+00 0.  1.
        -11    1    5    5    0    0 -0.56621708819E+01  0.17899196876E+02 -0.16241247255E+02  0.24823769663E+02  0.00000000000E+00 0. -1.
          1    1    6    6  503    0 -0.75302752098E+02  0.67264361476E+02 -0.28920853253E+03  0.30632756012E+03  0.00000000000E+00 0. -1.
         -1    1    6    6    0  503 -0.43594734280E+03  0.44630713395E+03 -0.25424337627E+04  0.26178635528E+04  0.00000000000E+00 0.  1.
<mgrwt>
<rscale>  0 0.18654854E+04</rscale>
<asrwt>0</asrwt>
<pdfrwt beam="1">  1        1 0.62954123E+00 0.18654854E+04</pdfrwt>
<pdfrwt beam="2">  1       -2 0.32709419E-01 0.18654854E+04</pdfrwt>
<totfact> 0.57722134E-01</totfact>
</mgrwt>
</event>
<event>
12    4  0.4413110E-008  0.1349176E+04  0.7818608E-02  0.8991452E-01
         -2   -1    0    0    0  501 -0.00000000000E+00  0.00000000000E+00  0.29632248766E+03  0.29632248766E+03  0.00000000000E+00 0.  1.
          1   -1    0    0  501    0  0.00000000000E+00 -0.00000000000E+00 -0.15357210325E+04  0.15357210325E+04  0.00000000000E+00 0. -1.
        -24    2    1    2    0    0 -0.24062035034E+03  0.21675482566E+03 -0.12100752093E+03  0.35466304980E+03  0.79134387764E+02 0.  0.
        254    2    1    2    0    0  0.24062035034E+03 -0.21675482566E+03 -0.11183910239E+04  0.14773804703E+04  0.90938097867E+03 0.  0.
         23    2    4    4    0    0 -0.23303197654E+03  0.19469045215E+02 -0.16341072622E+02  0.25144734810E+03  0.90971382294E+02 0.  0.
         23    2    4    4    0    0  0.47365232688E+03 -0.23622387087E+03 -0.11020499513E+04  0.12259331222E+04  0.90827755570E+02 0.  0.
          1    1    3    3  502    0 -0.42607969099E+01 -0.55603680539E+01 -0.89703159056E+01  0.11381504762E+02  0.00000000000E+00 0. -1.
         -2    1    3    3    0  502 -0.23635955343E+03  0.22231519371E+03 -0.11203720502E+03  0.34328154503E+03  0.00000000000E+00 0.  1.
         11    1    5    5    0    0 -0.23756010047E+03  0.12319535865E+02 -0.58272489383E+01  0.23795068634E+03  0.00000000000E+00 0. -1.
        -11    1    5    5    0    0  0.45281239226E+01  0.71495093501E+01 -0.10513823684E+02  0.13496661760E+02  0.00000000000E+00 0.  1.
          4    1    6    6  503    0  0.16893469369E+03 -0.10921979142E+03 -0.50684610845E+03  0.54530805167E+03  0.00000000000E+00 0. -1.
         -4    1    6    6    0  503  0.30471763319E+03 -0.12700407945E+03 -0.59520384281E+03  0.68062507056E+03  0.00000000000E+00 0.  1.
<mgrwt>
<rscale>  0 0.13491756E+04</rscale>
<asrwt>0</asrwt>
<pdfrwt beam="1">  1        1 0.23626477E+00 0.13491756E+04</pdfrwt>
<pdfrwt beam="2">  1       -2 0.45588075E-01 0.13491756E+04</pdfrwt>
<totfact> 0.24218802E+01</totfact>
</mgrwt>
</event>
<event>
12    4  0.4413110E-008  0.1466852E+04  0.7818608E-02  0.8906800E-01
          1   -1    0    0  501    0  0.00000000000E+00  0.00000000000E+00  0.65823407026E+03  0.65823407026E+03  0.00000000000E+00 0. -1.
         -2   -1    0    0    0  501 -0.00000000000E+00 -0.00000000000E+00 -0.81720676446E+03  0.81720676446E+03  0.00000000000E+00 0.  1.
        -24    2    1    2    0    0  0.44308228579E+03 -0.12568140047E+03 -0.41393423916E+02  0.46922252905E+03  0.79615575204E+02 0.  0.
        254    2    1    2    0    0 -0.44308228579E+03  0.12568140047E+03 -0.11757927029E+03  0.10062183057E+04  0.88686676985E+03 0.  0.
         23    2    4    4    0    0 -0.61393095573E+03 -0.29243901160E+02  0.15131263889E+03  0.63991270084E+03  0.93948527610E+02 0.  0.
         23    2    4    4    0    0  0.17084866994E+03  0.15492530163E+03 -0.26889190918E+03  0.36630560483E+03  0.93197747843E+02 0.  0.
          1    1    3    3  502    0  0.28794469759E+03 -0.11747759642E+03 -0.12742339441E+02  0.31124829597E+03  0.00000000000E+00 0. -1.
         -2    1    3    3    0  502  0.15513758820E+03 -0.82038040486E+01 -0.28651084474E+02  0.15797423307E+03  0.00000000000E+00 0.  1.
         11    1    5    5    0    0 -0.26635054582E+03  0.11727621283E+02  0.24790800189E+02  0.26775872373E+03  0.00000000000E+00 0. -1.
        -11    1    5    5    0    0 -0.34758040991E+03 -0.40971522442E+02  0.12652183870E+03  0.37215397710E+03  0.00000000000E+00 0.  1.
          1    1    6    6  503    0  0.29560683734E+02 -0.18741810354E+01 -0.79118175448E+01  0.30658496933E+02  0.00000000000E+00 0. -1.
         -1    1    6    6    0  503  0.14128798621E+03  0.15679948266E+03 -0.26098009164E+03  0.33564710790E+03  0.00000000000E+00 0.  1.
<mgrwt>
<rscale>  0 0.14668515E+04</rscale>
<asrwt>0</asrwt>
<pdfrwt beam="1">  1        1 0.10126678E+00 0.14668515E+04</pdfrwt>
<pdfrwt beam="2">  1       -2 0.12572412E+00 0.14668515E+04</pdfrwt>
<totfact> 0.11990030E+01</totfact>
</mgrwt>
</event>
